FOO
135168
    1MOL0     O    1   9.280   0.397   9.056 -0.6819  0.8104  0.1510
    1MOL0     C    2   9.291   0.376   9.172  0.3180  0.3617 -0.7100
    1MOL0     O    3   9.371   0.452   9.261  0.8247 -0.1020  0.1425
    1MOL0     C    4   9.434   0.561   9.206  0.5163 -0.9041  0.5468
    1MOL0     C    5   9.569   0.565   9.157  0.9625 -0.0738 -0.5785
    1MOL0     C    6   9.612   0.687   9.088 -0.2697  0.2905 -0.8104
    1MOL0     C    7   9.533   0.803   9.071  0.1310 -0.4841 -1.0294
    1MOL0     O    8   9.572   0.915   9.002  0.3289 -0.2281 -0.0495
    1MOL0     C    9   9.704   0.910   8.937  0.6840 -0.9474 -0.0269
    1MOL0     C   10   9.724   1.037   8.855  0.6897 -0.0886 -0.7501
    1MOL0     C   11   9.866   1.059   8.812 -0.4106 -0.1153 -0.1119
    1MOL0     C   12   9.903   0.967   8.700 -0.1197  0.5685  0.3890
    1MOL0     C   13  10.042   1.004   8.653 -0.4418  0.4469  0.3091
    1MOL0     C   14  10.097   0.930   8.527  0.2318  0.1920 -0.4469
    1MOL0     C   15  10.041   0.982   8.397  0.1421  0.2259 -0.3428
    1MOL0     C   16  10.111   0.925   8.268  0.5931 -0.1859 -0.0636
    1MOL0     N   17  10.100   0.773   8.248 -0.4552 -0.1743 -0.2716
    1MOL0     C   18  10.195   0.684   8.293 -0.5566  0.2289 -0.4760
    1MOL0     C   19  10.180   0.574   8.221  1.1945  0.7596 -1.2756
    1MOL0     C   20  10.283   0.467   8.218 -0.2176 -1.3342  0.0320
    1MOL0     C   21  10.333   0.453   8.072 -0.2398 -0.6335  0.3864
    1MOL0     C   22  10.235   0.374   7.983 -0.0227 -0.6002  0.0077
    1MOL0     C   23  10.300   0.273   7.897 -0.4786  0.6130  0.1343
    1MOL0     O   24  10.399   0.334   7.815  0.5235  0.4885 -0.1487
    1MOL0     C   25  10.494   0.260   7.755 -0.2911 -0.4610 -0.1689
    1MOL0     C   26  10.572   0.334   7.658 -0.5522  0.4484  0.2289
    1MOL0     C   27  10.664   0.266   7.578 -0.3637  0.1311 -0.9864
    1MOL0     C   28  10.685   0.127   7.592 -0.5213  0.2910 -0.6399
    1MOL0     C   29  10.756   0.049   7.490  0.8605 -0.2849 -0.2773
    1MOL0     O   30  10.778  -0.080   7.512  0.0960  0.0416  0.4796
    1MOL0     C   31  10.834  -0.163   7.415  1.0222 -0.4417 -0.5066
    1MOL0     C   32  10.944  -0.244   7.453  0.1860 -0.2791  0.2246
    1MOL0     C   33  10.986  -0.335   7.361 -1.1583  0.3459  0.3871
    1MOL0     C   34  10.928  -0.352   7.233  0.4288  0.1708 -0.8334
    1MOL0     O   35  10.970  -0.445   7.151 -0.1671 -0.4601  1.0425
    1MOL0     C   36  11.108  -0.432   7.105  0.4339 -0.8639  0.8573
    1MOL0     C   37  11.098  -0.321   6.999 -0.3954  0.2535 -0.7904
    1MOL0     C   38  11.201  -0.351   6.889  1.3573  0.0440 -1.0537
    1MOL0     C   39  11.172  -0.463   6.794  0.7798 -0.1203 -1.0651
    1MOL0     C   40  11.285  -0.486   6.688  0.0220  0.2458 -1.1527
    1MOL0     C   41  11.321  -0.365   6.608  0.0661 -0.6850  0.0985
    1MOL0     C   42  11.207  -0.321   6.503  0.6929  0.2114 -0.3018
    1MOL0     C   43  11.214  -0.403   6.376  0.2937  0.1430 -0.0783
    1MOL0    Cl   44  11.128  -0.334   6.240  0.0270  0.2714  0.3448
    1MOL0     C   45  10.812  -0.273   7.204 -0.5846  0.2029  0.7036
    1MOL0     C   46  10.771  -0.176   7.287 -0.2387 -0.4133 -0.6983
    1MOL0     O   47  10.801   0.113   7.397  1.3101 -0.0404  0.3068
    1MOL0     C   48  10.615   0.056   7.692  0.1705  0.3715  0.1042
    1MOL0     C   49  10.511   0.116   7.762  0.0943 -0.8342 -1.8151
    1MOL0     N   50  10.066   0.579   8.145  0.0607 -0.1650  1.2709
    1MOL0     N   51  10.023   0.699   8.160 -0.0426 -0.0662  0.4740
    1MOL0     C   52   9.411   0.808   9.136 -0.4444 -0.4119  0.4958
    1MOL0     C   53   9.362   0.683   9.190  0.1187 -0.4764  0.2845
    1MOL0     C   54   9.217   0.255   9.220  0.6174  1.0237  0.6416
    1MOL0     C   55   9.228   0.213   9.352 -0.7067 -0.0750  1.2521
    1MOL0     C   56   9.156   0.105   9.409  0.1330  0.7620 -0.6747
    1MOL0     C   57   9.073   0.027   9.332  0.4052  0.1224 -0.5043
    1MOL0     O   58   8.999  -0.065   9.390 -0.5443 -0.2839 -0.8968
    1MOL0     C   59   8.922  -0.163   9.311  0.3658  0.6986 -0.6008
    1MOL0     C   60   8.847  -0.268   9.391  0.5335 -0.2363  0.5265
    1MOL0     C   61   8.737  -0.200   9.484  0.7571  2.0014  0.2887
    1MOL0     C   62   8.718  -0.289   9.605 -0.4726  0.3893  0.0520
    1MOL0     C   63   8.606  -0.230   9.682 -1.4071 -0.2144  0.4850
    1MOL0     C   64   8.516  -0.187   9.743  0.4268  0.7435  0.3955
    1MOL0     C   65   9.062   0.062   9.195 -1.0426  0.6846  1.5390
    1MOL0     C   66   9.132   0.175   9.133 -0.1787 -0.3285  0.4275
    1MOL0     H   67   9.639   0.483   9.164  1.4920  0.3258 -1.1401
    1MOL0     H   68   9.715   0.681   9.052 -0.6101 -3.1725 -1.5296
    1MOL0     H   69   9.708   0.831   8.862  2.2735 -0.6454 -0.2981
    1MOL0     H   70   9.794   0.904   9.000  1.9837 -0.6791 -1.7604
    1MOL0     H   71   9.695   1.120   8.920 -2.1321 -1.7460  0.2867
    1MOL0     H   72   9.649   1.049   8.776 -0.7766  0.2064  0.6186
    1MOL0     H   73   9.928   1.044   8.901  2.7363  1.6250 -1.8563
    1MOL0     H   74   9.892   1.161   8.784  0.7665 -0.9185 -2.1955
    1MOL0     H   75   9.903   0.867   8.743 -0.3187 -0.1803 -1.2683
    1MOL0     H   76   9.834   0.967   8.614  1.0859  1.0371 -0.6045
    1MOL0     H   77  10.121   1.004   8.729  1.6790 -1.6927 -1.7464
    1MOL0     H   78  10.055   1.108   8.622 -0.6229  0.8309  1.4618
    1MOL0     H   79  10.064   0.826   8.530  0.0141  0.2424 -1.1104
    1MOL0     H   80  10.205   0.946   8.535  0.4348 -0.8180 -1.0312
    1MOL0     H   81   9.937   0.955   8.375 -0.0470  1.2126 -0.7184
    1MOL0     H   82  10.032   1.090   8.389 -2.9714 -0.0612 -2.5540
    1MOL0     H   83  10.213   0.959   8.288 -0.5214  3.6321  0.0173
    1MOL0     H   84  10.071   0.981   8.184  1.1096  2.1443  1.1546
    1MOL0     H   85  10.292   0.704   8.338 -1.7184 -0.6560  2.6608
    1MOL0     H   86  10.246   0.380   8.274 -1.0844 -0.2304  1.2213
    1MOL0     H   87  10.366   0.500   8.281 -0.9018  1.0547 -0.2461
    1MOL0     H   88  10.430   0.404   8.062 -0.4633 -0.6139 -2.9604
    1MOL0     H   89  10.333   0.556   8.034 -1.2299 -0.7482  0.0628
    1MOL0     H   90  10.157   0.317   8.034  1.1962 -0.7348  1.8317
    1MOL0     H   91  10.184   0.452   7.927  1.6213 -0.7577 -1.8327
    1MOL0     H   92  10.233   0.222   7.827  1.2651 -0.1338 -1.0438
    1MOL0     H   93  10.348   0.195   7.956 -0.0057 -0.1940 -1.2649
    1MOL0     H   94  10.557   0.440   7.641 -3.4993  0.0391 -0.2767
    1MOL0     H   95  10.705   0.328   7.499  0.7803 -1.8485 -2.0056
    1MOL0     H   96  10.993  -0.243   7.550  3.4295  3.0144 -1.1888
    1MOL0     H   97  11.062  -0.405   7.394 -0.8941  0.7211  0.5774
    1MOL0     H   98  11.137  -0.524   7.052  1.9915  1.0052 -1.7960
    1MOL0     H   99  11.177  -0.413   7.188 -0.4873  1.4582  1.1589
    1MOL0     H  100  11.112  -0.225   7.049  0.4729  0.9771 -2.3591
    1MOL0     H  101  11.000  -0.314   6.949 -1.2332  2.4206  0.9898
    1MOL0     H  102  11.292  -0.387   6.939  1.0488  1.0898  0.3260
    1MOL0     H  103  11.218  -0.255   6.839  0.1116  2.3099  2.4741
    1MOL0     H  104  11.161  -0.556   6.850  2.1033  1.2235  1.6000
    1MOL0     H  105  11.070  -0.449   6.756 -0.7126 -1.6913  1.9861
    1MOL0     H  106  11.252  -0.568   6.623 -0.8866 -1.3182  1.1405
    1MOL0     H  107  11.375  -0.522   6.739 -1.2358 -2.4310 -0.6314
    1MOL0     H  108  11.401  -0.395   6.540 -0.3467 -1.0572 -0.2212
    1MOL0     H  109  11.348  -0.280   6.672 -1.9656  1.4171 -1.6770
    1MOL0     H  110  11.100  -0.319   6.527  0.0880  1.5824 -2.7677
    1MOL0     H  111  11.229  -0.217   6.476  3.0337 -0.3331 -0.6611
    1MOL0     H  112  11.178  -0.505   6.390  1.3892 -0.1664  0.6896
    1MOL0     H  113  11.321  -0.412   6.355  0.3590  1.3250 -0.3310
    1MOL0     H  114  10.761  -0.288   7.110 -0.9272  2.0503  0.5507
    1MOL0     H  115  10.682  -0.127   7.248  0.2725  1.0716 -0.0389
    1MOL0     H  116  10.619  -0.053   7.693  1.2269  0.3876 -0.5920
    1MOL0     H  117  10.444   0.054   7.820  2.1335 -2.5790 -1.1863
    1MOL0     H  118   9.349   0.895   9.123  1.9050  1.4641  1.0785
    1MOL0     H  119   9.269   0.682   9.246 -0.7873  0.1373 -1.1698
    1MOL0     H  120   9.298   0.264   9.416  1.6912 -1.4343 -0.1492
    1MOL0     H  121   9.163   0.093   9.517 -2.0927 -1.0568 -0.6503
    1MOL0     H  122   8.979  -0.210   9.230  1.6201 -1.3520  1.3568
    1MOL0     H  123   8.846  -0.111   9.251  0.5158 -0.2251 -1.6138
    1MOL0     H  124   8.794  -0.339   9.327 -2.6110  0.7951  1.7916
    1MOL0     H  125   8.920  -0.322   9.451  1.5860 -2.9845 -2.8677
    1MOL0     H  126   8.643  -0.184   9.431 -0.9414 -0.2816  2.3773
    1MOL0     H  127   8.782  -0.110   9.528  2.6406  1.3704 -0.2660
    1MOL0     H  128   8.691  -0.389   9.571  0.4472  1.0147 -2.7048
    1MOL0     H  129   8.815  -0.286   9.656  0.2592 -0.0096 -1.2758
    1MOL0     H  130   8.427  -0.148   9.787 -2.4715 -2.2887 -2.2000
    1MOL0     H  131   8.990   0.007   9.134  0.0123  0.4215  0.4935
    1MOL0     H  132   9.098   0.201   9.033 -0.9365 -6.2339 -1.2816
    2MOL0     O  133   5.464   4.199   8.737 -0.0768 -0.5363  0.0666
    2MOL0     C  134   5.512   4.088   8.736 -0.7048 -0.7863  0.5449
    2MOL0     O  135   5.476   3.983   8.654  0.1131 -0.4063  0.4286
    2MOL0     C  136   5.370   4.013   8.575  0.2211 -0.0873  0.1263
    2MOL0     C  137   5.250   4.054   8.627  0.0365 -0.4666 -0.7873
    2MOL0     C  138   5.144   4.098   8.550  0.6714 -0.7107  0.0856
    2MOL0     C  139   5.148   4.092   8.404 -0.8992  0.8209 -0.5153
    2MOL0     O  140   5.054   4.131   8.313  0.2888 -0.3033 -0.8168
    2MOL0     C  141   4.938   4.194   8.366 -0.0149 -0.0607 -0.0825
    2MOL0     C  142   4.828   4.224   8.263  0.6727  0.1529  0.1450
    2MOL0     C  143   4.742   4.104   8.217 -0.6871  0.7269 -0.6905
    2MOL0     C  144   4.636   4.159   8.118 -0.1572  0.0147  1.2994
    2MOL0     C  145   4.560   4.035   8.050 -0.0873  0.3487  0.0876
    2MOL0     C  146   4.426   4.075   7.986 -0.2310  0.3715  0.6815
    2MOL0     C  147   4.373   3.938   7.926  0.6867 -0.6516 -0.2959
    2MOL0     C  148   4.237   3.949   7.856  0.1809 -0.2785 -0.1029
    2MOL0     N  149   4.178   3.822   7.804 -0.9222 -0.7682 -0.9406
    2MOL0     C  150   4.103   3.726   7.870 -0.1352  0.2155  0.9466
    2MOL0     C  151   4.082   3.631   7.777  1.0646 -0.4010  0.0900
    2MOL0     C  152   4.033   3.487   7.782 -0.1504  0.2072 -0.3073
    2MOL0     C  153   3.937   3.471   7.908 -0.5368 -0.4302 -0.5822
    2MOL0     C  154   3.918   3.321   7.918  1.0671 -0.4832 -0.4373
    2MOL0     C  155   3.775   3.259   7.935 -0.0874 -0.7145 -0.1513
    2MOL0     O  156   3.676   3.326   7.852  0.5680 -0.3717 -0.0526
    2MOL0     C  157   3.680   3.304   7.718  0.8670 -0.3387  0.0470
    2MOL0     C  158   3.658   3.181   7.660 -1.0838 -0.3349  0.2634
    2MOL0     C  159   3.689   3.164   7.518 -0.2513  0.3299 -0.6955
    2MOL0     C  160   3.722   3.272   7.435  0.7073 -0.0195 -0.0018
    2MOL0     C  161   3.732   3.265   7.288 -0.1534  0.0495  0.4820
    2MOL0     O  162   3.738   3.373   7.217  0.4196  0.5802 -0.0729
    2MOL0     C  163   3.756   3.366   7.082  1.1794 -0.2009 -0.3365
    2MOL0     C  164   3.856   3.293   7.012  1.2334 -0.8386 -0.4406
    2MOL0     C  165   3.862   3.285   6.877  0.5443 -0.8378 -0.3104
    2MOL0     C  166   3.775   3.362   6.799  0.4082 -0.3073  0.3783
    2MOL0     O  167   3.788   3.373   6.667  0.2065  0.6281 -0.2106
    2MOL0     C  168   3.888   3.295   6.597  0.5104 -0.2631 -1.1538
    2MOL0     C  169   3.857   3.296   6.449 -0.0684 -0.1982  0.2506
    2MOL0     C  170   3.953   3.200   6.374  0.5965  0.7943  0.6454
    2MOL0     C  171   4.002   3.265   6.249 -0.2806 -0.5344 -0.3320
    2MOL0     C  172   3.885   3.262   6.148  0.3716  0.1407  0.0912
    2MOL0     C  173   3.934   3.329   6.017 -0.4760  1.2108 -0.2436
    2MOL0     C  174   3.827   3.339   5.911  0.8770  0.0709  1.3737
    2MOL0     C  175   3.801   3.209   5.825 -0.6958 -0.3215 -0.1423
    2MOL0    Cl  176   3.916   3.195   5.695 -0.3335 -0.0124 -0.3764
    2MOL0     C  177   3.685   3.459   6.862 -0.0469  0.1281 -0.6042
    2MOL0     C  178   3.678   3.459   7.002 -1.2802 -0.4548 -0.9791
    2MOL0     O  179   3.772   3.152   7.246  1.5549  0.1707  0.0722
    2MOL0     C  180   3.722   3.394   7.501  0.6272 -0.6912 -0.1500
    2MOL0     C  181   3.718   3.412   7.643  0.7503  0.4539 -0.2497
    2MOL0     N  182   4.131   3.661   7.658  0.0297  0.5980 -0.2460
    2MOL0     N  183   4.184   3.777   7.671 -0.2342 -0.5718  0.1318
    2MOL0     C  184   5.275   4.045   8.359 -0.6122  0.4320  0.2417
    2MOL0     C  185   5.388   4.009   8.431 -0.2303 -0.0847 -1.5692
    2MOL0     C  186   5.636   4.077   8.809 -0.0852  1.4108 -0.4493
    2MOL0     C  187   5.656   4.123   8.931  0.7136  0.0494 -0.5427
    2MOL0     C  188   5.765   4.095   9.008 -0.8528  0.9501 -0.6821
    2MOL0     C  189   5.872   4.015   8.966  0.4076  0.6446 -1.0196
    2MOL0     O  190   5.966   3.963   9.050  0.3205  0.3328  0.0825
    2MOL0     C  191   5.952   3.971   9.195  0.0609  0.0269  0.0315
    2MOL0     C  192   6.030   3.847   9.235 -0.1220 -0.7435 -1.2670
    2MOL0     C  193   6.038   3.809   9.386 -0.3090 -0.3096 -0.0721
    2MOL0     C  194   6.106   3.674   9.405  0.7942 -0.6246  0.3609
    2MOL0     C  195   6.005   3.570   9.368 -0.4432 -0.1490 -1.1268
    2MOL0     C  196   5.915   3.492   9.337  0.1451  0.4196  0.2464
    2MOL0     C  197   5.862   3.968   8.837 -0.1133 -0.1110  0.0896
    2MOL0     C  198   5.746   3.996   8.765  0.1760  0.6673 -0.9096
    2MOL0     H  199   5.232   4.047   8.733 -0.3432 -2.5244 -0.9500
    2MOL0     H  200   5.058   4.134   8.605  0.7032 -1.1205  0.4159
    2MOL0     H  201   4.966   4.298   8.389  0.2867  0.3107 -1.9913
    2MOL0     H  202   4.897   4.138   8.451 -0.6212 -0.1387 -0.4272
    2MOL0     H  203   4.874   4.273   8.177 -0.0681  0.0670 -0.3077
    2MOL0     H  204   4.765   4.300   8.310  1.2402  1.6448 -1.3999
    2MOL0     H  205   4.693   4.054   8.301  1.0580 -0.2941 -0.2353
    2MOL0     H  206   4.802   4.026   8.171  0.8330  0.3736  1.7381
    2MOL0     H  207   4.562   4.222   8.169  0.1564 -0.7415  2.7570
    2MOL0     H  208   4.699   4.211   8.046  1.6251 -1.8893  1.4342
    2MOL0     H  209   4.544   3.968   8.136  0.6149  1.2018  0.8968
    2MOL0     H  210   4.633   3.992   7.981  1.4994  3.1939 -0.1591
    2MOL0     H  211   4.439   4.164   7.924  0.2839  1.1498  1.8693
    2MOL0     H  212   4.356   4.111   8.062  1.7970  3.4068  1.2849
    2MOL0     H  213   4.450   3.897   7.861  0.6837  0.4827 -1.0389
    2MOL0     H  214   4.351   3.874   8.012 -1.0902  0.7939  0.4015
    2MOL0     H  215   4.252   4.025   7.779 -0.0056 -0.2196 -0.0814
    2MOL0     H  216   4.166   3.998   7.924 -1.2207  3.3310 -3.7789
    2MOL0     H  217   4.071   3.725   7.973 -1.7599  0.1530  0.4623
    2MOL0     H  218   4.120   3.424   7.800  0.3044  0.7971 -0.3942
    2MOL0     H  219   3.984   3.454   7.690  2.5822  0.0122 -1.7979
    2MOL0     H  220   3.843   3.525   7.896 -0.2452 -0.3078 -2.7188
    2MOL0     H  221   3.982   3.513   7.999  0.3291 -3.2447  0.3710
    2MOL0     H  222   3.958   3.273   7.828 -1.3380 -2.4334 -0.5819
    2MOL0     H  223   3.980   3.272   7.994 -0.2617 -0.2144  0.8675
    2MOL0     H  224   3.756   3.274   8.042  2.5565  0.8227  0.1926
    2MOL0     H  225   3.779   3.154   7.905 -0.1303 -0.2587 -1.8530
    2MOL0     H  226   3.634   3.099   7.727  0.6295 -0.3213  0.9476
    2MOL0     H  227   3.695   3.067   7.469 -1.5875  0.1789 -0.6102
    2MOL0     H  228   3.931   3.259   7.083  2.3786  3.4342  0.6715
    2MOL0     H  229   3.943   3.228   6.833  1.8094 -1.3354  2.4435
    2MOL0     H  230   3.888   3.191   6.628  2.4767 -0.3443 -1.2954
    2MOL0     H  231   3.983   3.344   6.620 -0.2156  0.2950  0.8802
    2MOL0     H  232   3.870   3.397   6.409 -3.7590  1.2049  2.1679
    2MOL0     H  233   3.758   3.258   6.424 -0.1706  0.1560  0.1166
    2MOL0     H  234   3.902   3.106   6.348 -0.1429  1.2678  0.3487
    2MOL0     H  235   4.041   3.177   6.434  0.4800 -2.0175 -0.1150
    2MOL0     H  236   4.037   3.367   6.271  3.5064 -2.3073  3.0899
    2MOL0     H  237   4.085   3.207   6.209  2.4188  1.5805  1.8052
    2MOL0     H  238   3.803   3.323   6.186 -0.1259  0.9306 -2.0778
    2MOL0     H  239   3.853   3.158   6.142 -1.6299  0.5123  2.6607
    2MOL0     H  240   4.020   3.270   5.983 -1.1179 -2.3277  3.4503
    2MOL0     H  241   3.965   3.427   6.053 -3.5229  1.3745  2.2916
    2MOL0     H  242   3.734   3.382   5.947  0.7169  0.9548 -0.0355
    2MOL0     H  243   3.870   3.408   5.838 -0.4875 -2.4811 -2.1117
    2MOL0     H  244   3.698   3.202   5.787 -0.7422 -0.8139  0.0697
    2MOL0     H  245   3.797   3.132   5.902  0.8450  0.3246  0.6123
    2MOL0     H  246   3.639   3.543   6.812  2.5323  1.1702 -1.3506
    2MOL0     H  247   3.615   3.521   7.065  1.7193 -0.0407  1.9055
    2MOL0     H  248   3.757   3.477   7.440 -4.0888 -2.0759 -5.6341
    2MOL0     H  249   3.737   3.509   7.688 -0.6120  0.5678  0.1324
    2MOL0     H  250   5.299   4.058   8.254 -3.2244 -1.0225 -0.6533
    2MOL0     H  251   5.484   3.975   8.391 -0.9034 -2.2509 -1.4711
    2MOL0     H  252   5.574   4.181   8.970 -0.7532  0.2553 -3.6496
    2MOL0     H  253   5.772   4.139   9.107 -2.5614 -0.8123  0.2811
    2MOL0     H  254   5.851   3.955   9.232  0.4383 -3.3221 -0.0776
    2MOL0     H  255   5.995   4.065   9.230 -3.1501  2.6418 -2.3397
    2MOL0     H  256   5.982   3.769   9.176 -3.4333 -1.1568  1.6749
    2MOL0     H  257   6.135   3.866   9.208  1.1851 -2.5011  1.9928
    2MOL0     H  258   5.936   3.808   9.424  0.2183  0.7886  1.4426
    2MOL0     H  259   6.094   3.884   9.443  0.4484  1.9787 -3.5116
    2MOL0     H  260   6.195   3.647   9.347  1.8209  0.6030  1.2978
    2MOL0     H  261   6.129   3.663   9.512  2.1427 -0.4325  0.1026
    2MOL0     H  262   5.838   3.428   9.299 -0.3756  1.6144 -0.7402
    2MOL0     H  263   5.937   3.907   8.789  0.2793  0.9205 -0.6402
    2MOL0     H  264   5.739   3.953   8.665 -1.0049  0.5929 -0.8098
    3MOL0     O  265   6.761   9.364   2.976  0.2368 -0.9208  0.6381
    3MOL0     C  266   6.871   9.348   3.024  0.2707 -0.0355  0.0794
    3MOL0     O  267   6.984   9.325   2.951 -0.1149  0.0042  0.1935
    3MOL0     C  268   6.994   9.299   2.814  0.0461 -0.6746  1.1377
    3MOL0     C  269   6.886   9.249   2.738 -0.2403 -0.8764 -0.5490
    3MOL0     C  270   6.907   9.234   2.598  0.1909  0.5489  0.3880
    3MOL0     C  271   7.029   9.255   2.541 -0.7562 -0.0495  0.0122
    3MOL0     O  272   7.034   9.224   2.406 -0.6512  0.3226 -0.6486
    3MOL0     C  273   7.131   9.120   2.390 -0.2714  0.7299 -0.0578
    3MOL0     C  274   7.224   9.165   2.285  0.3758  0.3021  0.0439
    3MOL0     C  275   7.340   9.066   2.257 -1.0460  0.5204 -0.2020
    3MOL0     C  276   7.434   9.111   2.144 -0.2904  0.7572  0.7036
    3MOL0     C  277   7.371   9.118   2.011  0.0512 -0.1783  0.3109
    3MOL0     C  278   7.438   9.035   1.904  0.0448  0.4159  0.3699
    3MOL0     C  279   7.432   8.879   1.930 -0.3076 -0.5522 -0.2903
    3MOL0     C  280   7.420   8.790   1.803 -0.8064  0.7393  1.1977
    3MOL0     N  281   7.536   8.808   1.713  0.1057  0.0157  0.1386
    3MOL0     C  282   7.637   8.720   1.688  0.6688 -1.1001  0.2873
    3MOL0     C  283   7.739   8.789   1.631  0.6631 -0.3952 -0.2957
    3MOL0     C  284   7.874   8.737   1.603 -0.1345  0.1909 -0.1583
    3MOL0     C  285   7.985   8.781   1.688 -0.6292 -0.6372  0.0515
    3MOL0     C  286   7.954   8.748   1.836  0.0246 -0.5386 -1.1353
    3MOL0     C  287   8.075   8.790   1.927 -0.2500  0.2676  0.2006
    3MOL0     O  288   8.011   8.789   2.056 -0.2603 -0.4455  0.0509
    3MOL0     C  289   8.070   8.726   2.163  0.5728  0.2616  0.1101
    3MOL0     C  290   8.025   8.585   2.184 -0.9274  0.0801 -0.2292
    3MOL0     C  291   8.089   8.513   2.276 -0.4792  0.5268 -0.0194
    3MOL0     C  292   8.190   8.570   2.358  0.0373  0.3482 -0.5212
    3MOL0     C  293   8.265   8.474   2.458 -0.1645  0.3625 -1.0712
    3MOL0     O  294   8.388   8.511   2.507 -0.2136 -0.9980 -0.5022
    3MOL0     C  295   8.455   8.417   2.578 -0.4752 -0.4992  0.5228
    3MOL0     C  296   8.492   8.471   2.700 -0.8767  0.6187 -1.1094
    3MOL0     C  297   8.582   8.398   2.781  0.8141  0.7500 -0.0010
    3MOL0     C  298   8.623   8.262   2.743  0.4325 -0.5920  1.3848
    3MOL0     O  299   8.683   8.178   2.830 -0.6068 -0.1548  0.4166
    3MOL0     C  300   8.822   8.179   2.794 -0.6430  0.0775  0.4033
    3MOL0     C  301   8.900   8.107   2.893  0.0057 -0.3851  0.3120
    3MOL0     C  302   8.905   8.189   3.025  0.4113  0.0203  0.6655
    3MOL0     C  303   8.992   8.131   3.136 -0.0085  0.2254  0.8598
    3MOL0     C  304   8.992   8.208   3.258 -0.2757 -0.0063  0.7301
    3MOL0     C  305   9.126   8.210   3.334  0.2789  0.8282  0.1504
    3MOL0     C  306   9.160   8.066   3.375  0.9108 -0.7191  0.3341
    3MOL0     C  307   9.289   8.050   3.460  0.2874 -0.3747 -0.9252
    3MOL0    Cl  308   9.411   8.137   3.368 -0.1689 -0.1627 -0.3754
    3MOL0     C  309   8.578   8.213   2.615 -0.0806 -0.2897 -0.4043
    3MOL0     C  310   8.503   8.295   2.529  0.0056 -0.9611 -0.5945
    3MOL0     O  311   8.217   8.364   2.477 -0.6499  1.1850  0.1300
    3MOL0     C  312   8.208   8.707   2.358  0.7231  0.6455  0.4906
    3MOL0     C  313   8.159   8.785   2.251  0.3598 -0.6341  0.4082
    3MOL0     N  314   7.695   8.920   1.605  1.7514  0.7016 -0.1717
    3MOL0     N  315   7.574   8.924   1.649  0.0353 -0.0888  0.2667
    3MOL0     C  316   7.135   9.306   2.616  0.2360  0.0620  0.1200
    3MOL0     C  317   7.110   9.335   2.745 -0.0853 -0.2507 -0.2337
    3MOL0     C  318   6.882   9.358   3.172 -0.2400  0.3449  0.8948
    3MOL0     C  319   7.013   9.364   3.225 -0.4803 -0.7573 -0.3355
    3MOL0     C  320   7.025   9.358   3.364 -0.0823 -0.2358  0.2270
    3MOL0     C  321   6.913   9.329   3.448 -0.6240  0.9439 -0.4754
    3MOL0     O  322   6.934   9.294   3.582 -0.0311  0.1979 -0.1742
    3MOL0     C  323   6.820   9.277   3.664  0.6755  0.6057  0.1662
    3MOL0     C  324   6.865   9.288   3.813  0.2171 -0.1994  0.4485
    3MOL0     C  325   6.749   9.331   3.895  0.2316 -0.0782 -0.1989
    3MOL0     C  326   6.754   9.266   4.030  0.8531 -0.4055 -0.1250
    3MOL0     C  327   6.649   9.291   4.119 -0.5913  0.5057 -0.1649
    3MOL0     C  328   6.573   9.348   4.191 -1.1601 -0.3663  0.4649
    3MOL0     C  329   6.785   9.308   3.385 -0.5176 -0.4935 -0.7958
    3MOL0     C  330   6.768   9.343   3.252 -0.5043  0.5243 -0.0453
    3MOL0     H  331   6.793   9.237   2.793  2.1645 -3.0969  3.5763
    3MOL0     H  332   6.820   9.199   2.543 -0.7950  3.6906 -0.2577
    3MOL0     H  333   7.097   9.021   2.359  1.1999 -0.3061  1.4462
    3MOL0     H  334   7.183   9.095   2.483  2.2891 -1.4094 -1.9369
    3MOL0     H  335   7.266   9.257   2.326  0.1282  0.4354  0.0033
    3MOL0     H  336   7.162   9.185   2.197 -1.2722 -0.6788  0.9146
    3MOL0     H  337   7.298   8.969   2.232 -1.8125  1.0009 -0.8265
    3MOL0     H  338   7.399   9.049   2.348  0.5740  2.8356 -0.7159
    3MOL0     H  339   7.475   9.209   2.172  2.8521 -0.2494  0.0203
    3MOL0     H  340   7.524   9.049   2.145  0.0116  1.1799  0.1898
    3MOL0     H  341   7.383   9.225   1.990 -0.8229  0.0775  1.0306
    3MOL0     H  342   7.263   9.102   2.008  0.0086  0.1048  0.2947
    3MOL0     H  343   7.543   9.060   1.887  0.7785 -2.2146  0.5483
    3MOL0     H  344   7.382   9.058   1.813  0.4977 -2.0416 -0.6090
    3MOL0     H  345   7.515   8.850   1.994 -2.4918  0.1158  3.1256
    3MOL0     H  346   7.341   8.859   1.988 -1.0351 -2.4601 -1.9772
    3MOL0     H  347   7.334   8.814   1.741  2.2158 -0.8522 -4.2301
    3MOL0     H  348   7.418   8.682   1.824 -0.7259  0.2513 -1.0772
    3MOL0     H  349   7.642   8.615   1.716 -1.5311 -0.2805  4.5348
    3MOL0     H  350   7.895   8.768   1.500 -0.4526 -0.8039 -0.5435
    3MOL0     H  351   7.865   8.628   1.598  2.4259 -0.1440  0.7448
    3MOL0     H  352   7.993   8.890   1.679  1.0378 -0.6224  1.2756
    3MOL0     H  353   8.074   8.727   1.656 -0.7615 -1.6773  1.3367
    3MOL0     H  354   7.866   8.805   1.867 -0.4542 -1.4634 -0.7501
    3MOL0     H  355   7.932   8.641   1.841 -0.8111 -0.3161  2.1250
    3MOL0     H  356   8.123   8.887   1.907 -1.3400  1.6398  3.5035
    3MOL0     H  357   8.156   8.717   1.921  1.2223  1.8963 -0.8480
    3MOL0     H  358   7.965   8.538   2.107  0.4215  1.7910 -2.4350
    3MOL0     H  359   8.081   8.406   2.262  0.0781  0.1413  2.1989
    3MOL0     H  360   8.461   8.571   2.730 -0.3809  1.3381 -2.8259
    3MOL0     H  361   8.621   8.439   2.874  2.3331  2.3205 -1.2841
    3MOL0     H  362   8.882   8.269   2.779  0.2292 -0.7380 -1.3232
    3MOL0     H  363   8.830   8.121   2.702  3.0447  0.4135  0.3487
    3MOL0     H  364   8.998   8.109   2.845 -0.7883  0.7586 -1.3537
    3MOL0     H  365   8.870   8.003   2.908 -1.5633  0.0241  0.1670
    3MOL0     H  366   8.805   8.197   3.069 -0.9301  0.7783 -2.2578
    3MOL0     H  367   8.941   8.290   3.001  0.0349  0.6598  2.6380
    3MOL0     H  368   8.953   8.032   3.162 -0.7936  0.1479 -0.5169
    3MOL0     H  369   9.095   8.120   3.101  0.2715 -3.1713  2.2988
    3MOL0     H  370   8.921   8.174   3.334 -0.1800  1.1785  1.3694
    3MOL0     H  371   8.959   8.308   3.230 -0.5410 -0.4859 -0.8241
    3MOL0     H  372   9.115   8.270   3.424  1.1866 -1.1489  1.6456
    3MOL0     H  373   9.205   8.252   3.271  0.5081 -0.8385 -0.7146
    3MOL0     H  374   9.073   8.017   3.420 -0.1947 -1.0606 -1.9992
    3MOL0     H  375   9.201   8.016   3.286 -0.6383 -1.9708  0.2734
    3MOL0     H  376   9.304   7.943   3.476 -0.6938 -0.2751  0.8986
    3MOL0     H  377   9.275   8.087   3.562 -1.1870  0.8006 -1.5117
    3MOL0     H  378   8.594   8.113   2.577  0.2409  0.2083 -1.6413
    3MOL0     H  379   8.487   8.272   2.424  5.3904 -0.4478 -1.8472
    3MOL0     H  380   8.286   8.753   2.417  0.9680 -1.5956  2.0511
    3MOL0     H  381   8.211   8.874   2.215 -0.3079 -0.7253 -0.8541
    3MOL0     H  382   7.230   9.323   2.565 -1.3934 -2.4407 -4.2887
    3MOL0     H  383   7.184   9.385   2.806  0.0116  0.4908 -0.9531
    3MOL0     H  384   7.093   9.383   3.154  1.8018 -0.6874  2.1413
    3MOL0     H  385   7.122   9.363   3.412 -1.1256  2.5144  2.3268
    3MOL0     H  386   6.760   9.186   3.652  0.6002  0.5173  1.0962
    3MOL0     H  387   6.750   9.359   3.647  2.2973  2.1362  0.6281
    3MOL0     H  388   6.892   9.187   3.845 -2.5965 -1.1626  0.0633
    3MOL0     H  389   6.945   9.363   3.819  0.8535 -0.9521  1.6685
    3MOL0     H  390   6.662   9.321   3.829  1.6968  3.2633 -2.9121
    3MOL0     H  391   6.761   9.440   3.898 -0.3170 -0.0121 -0.1805
    3MOL0     H  392   6.743   9.157   4.018 -0.8924 -0.3272  0.5416
    3MOL0     H  393   6.848   9.293   4.079  0.5818  1.3892 -0.5460
    3MOL0     H  394   6.502   9.386   4.262  1.0134 -1.8615  3.7147
    3MOL0     H  395   6.699   9.266   3.435  0.4374 -2.4780 -0.7434
    3MOL0     H  396   6.667   9.328   3.215  0.3154 -1.4780 -1.6520
    4MOL0     O  397   5.516   5.887   6.932 -0.4212 -0.2143 -0.1970
    4MOL0     C  398   5.501   5.762   6.945 -0.0462  0.1088 -0.6218
    4MOL0     O  399   5.379   5.691   6.927 -0.8354  0.7043  0.0830
    4MOL0     C  400   5.273   5.776   6.886 -0.6215  0.1043 -0.1578
    4MOL0     C  401   5.166   5.788   6.958 -0.1423  0.4554 -0.2559
    4MOL0     C  402   5.048   5.851   6.915  0.4359  0.4678  0.6614
    4MOL0     C  403   5.048   5.924   6.788  0.3134 -0.1490 -0.8881
    4MOL0     O  404   4.925   5.976   6.741  0.0704 -0.0661  0.3884
    4MOL0     C  405   4.922   6.058   6.623 -0.3814  0.1173  0.4983
    4MOL0     C  406   4.794   6.138   6.598 -0.2759  0.9768  0.7050
    4MOL0     C  407   4.703   6.073   6.494 -0.1629 -0.7622  1.3277
    4MOL0     C  408   4.555   6.097   6.499  0.6594 -0.0837 -0.2181
    4MOL0     C  409   4.480   5.988   6.413  0.3411 -0.4992 -0.3536
    4MOL0     C  410   4.511   5.970   6.263 -0.9185  1.1465 -0.1662
    4MOL0     C  411   4.485   6.106   6.189 -0.6901 -0.9644 -1.1259
    4MOL0     C  412   4.536   6.096   6.047  0.0927 -0.9720  0.9636
    4MOL0     N  413   4.504   6.213   5.967 -0.7624 -0.2194  0.3510
    4MOL0     C  414   4.529   6.344   6.005  0.3093  0.4173 -0.4422
    4MOL0     C  415   4.450   6.411   5.929 -0.1191 -0.2112  0.4931
    4MOL0     C  416   4.422   6.558   5.924  0.1707 -0.1808  0.3725
    4MOL0     C  417   4.437   6.630   5.780 -0.4060  0.3224 -0.4032
    4MOL0     C  418   4.310   6.625   5.699  0.5933  0.1342 -0.7917
    4MOL0     C  419   4.335   6.707   5.569 -0.3997 -0.0530 -0.6335
    4MOL0     O  420   4.431   6.654   5.482  0.1457  0.9674 -0.5555
    4MOL0     C  421   4.480   6.719   5.372  1.1369  0.4943 -0.4450
    4MOL0     C  422   4.543   6.649   5.265 -0.1130 -0.4721  0.8642
    4MOL0     C  423   4.608   6.714   5.154  0.1869  0.6711 -0.1034
    4MOL0     C  424   4.588   6.847   5.133  0.1257 -0.4258  0.0143
    4MOL0     C  425   4.639   6.914   5.013 -0.0578 -0.0182 -1.2335
    4MOL0     O  426   4.731   6.841   4.945 -0.5208 -0.3972 -0.2892
    4MOL0     C  427   4.791   6.903   4.834 -0.0953 -1.4015 -0.3394
    4MOL0     C  428   4.714   6.938   4.731  0.0497 -0.6834  0.3467
    4MOL0     C  429   4.765   7.015   4.624 -1.4191 -0.6602  1.0763
    4MOL0     C  430   4.904   7.052   4.633 -0.6682 -0.0323 -0.8659
    4MOL0     O  431   4.973   7.129   4.534 -0.6317 -0.6987  0.2579
    4MOL0     C  432   4.896   7.231   4.466  0.1996 -0.6496  0.9249
    4MOL0     C  433   4.967   7.364   4.445 -0.5615  0.0134  0.6765
    4MOL0     C  434   4.895   7.471   4.366  0.4946 -0.5778  0.4643
    4MOL0     C  435   4.993   7.591   4.346 -1.3840  1.5211 -0.3061
    4MOL0     C  436   4.936   7.722   4.320 -0.2417 -0.3978  0.4044
    4MOL0     C  437   4.817   7.720   4.213  0.7974 -0.4756  0.4549
    4MOL0     C  438   4.863   7.669   4.077  0.0949  0.5366  0.6622
    4MOL0     C  439   4.760   7.680   3.961 -0.5259  0.1691  0.2771
    4MOL0    Cl  440   4.664   7.532   3.928 -0.1809  0.3074 -0.6498
    4MOL0     C  441   4.980   7.001   4.741 -1.8037  0.5235  0.0611
    4MOL0     C  442   4.921   6.926   4.836  0.0094  0.3446 -0.9128
    4MOL0     O  443   4.597   7.023   4.984  0.4544 -0.8436 -0.1184
    4MOL0     C  444   4.538   6.922   5.238 -0.3362  0.4439  0.5008
    4MOL0     C  445   4.473   6.857   5.351  0.6191 -0.8646 -0.0368
    4MOL0     N  446   4.379   6.333   5.839 -1.0848  0.2093 -0.1167
    4MOL0     N  447   4.404   6.211   5.875  0.4038  0.9251 -0.1303
    4MOL0     C  448   5.164   5.919   6.720  0.2055  0.1084  0.3845
    4MOL0     C  449   5.279   5.852   6.769 -0.0055  0.5116 -0.4700
    4MOL0     C  450   5.616   5.675   6.990  1.0458 -0.0929 -0.0745
    4MOL0     C  451   5.734   5.745   7.028 -0.3249  0.9795  0.5136
    4MOL0     C  452   5.844   5.662   7.065  0.3585  0.0144  0.1074
    4MOL0     C  453   5.842   5.520   7.058  1.0430  0.1781  0.2789
    4MOL0     O  454   5.947   5.448   7.110  0.2650 -0.2873  0.4684
    4MOL0     C  455   6.006   5.361   7.007  0.4925 -0.5250 -0.1880
    4MOL0     C  456   6.143   5.409   6.950 -0.3291  0.8606 -1.2959
    4MOL0     C  457   6.140   5.549   6.906  0.6303 -0.3027 -1.2201
    4MOL0     C  458   6.267   5.590   6.835 -0.0043  0.4817 -0.9226
    4MOL0     C  459   6.259   5.689   6.735 -0.0977  0.1423  0.3511
    4MOL0     C  460   6.266   5.779   6.655  0.0912 -0.1213  1.2924
    4MOL0     C  461   5.728   5.461   7.023 -0.8037  0.0376 -1.7017
    4MOL0     C  462   5.611   5.533   6.984 -0.9150 -0.4241  0.0813
    4MOL0     H  463   5.142   5.729   7.047  1.2029 -1.2519 -0.9615
    4MOL0     H  464   4.962   5.847   6.980 -0.3897 -0.9792 -0.4648
    4MOL0     H  465   4.942   5.990   6.540 -0.5160  0.7244 -0.0447
    4MOL0     H  466   4.996   6.138   6.626  0.1881 -0.3169 -0.9855
    4MOL0     H  467   4.806   6.244   6.572 -3.4909  1.6614  1.5649
    4MOL0     H  468   4.750   6.161   6.695 -0.8911 -0.0036  0.6720
    4MOL0     H  469   4.706   5.963   6.497  4.0423 -0.8344  0.6670
    4MOL0     H  470   4.728   6.106   6.393 -1.2633  1.1391  1.6288
    4MOL0     H  471   4.520   6.088   6.602  1.3995  1.7178  0.2206
    4MOL0     H  472   4.542   6.200   6.467  1.7079 -0.8343 -3.5070
    4MOL0     H  473   4.372   6.001   6.429  0.6870 -0.1438  2.1021
    4MOL0     H  474   4.499   5.887   6.450 -2.5604 -1.6757 -1.7619
    4MOL0     H  475   4.448   5.902   6.205 -0.2977  1.2495 -0.9850
    4MOL0     H  476   4.616   5.939   6.260 -0.3960  2.8203 -0.7426
    4MOL0     H  477   4.376   6.116   6.194 -0.6502 -1.1558  0.4314
    4MOL0     H  478   4.537   6.189   6.237 -1.7040 -0.9186 -0.0610
    4MOL0     H  479   4.479   6.022   5.990  0.4024 -0.3659 -0.1804
    4MOL0     H  480   4.643   6.074   6.044  0.4933  0.8445 -0.5639
    4MOL0     H  481   4.587   6.381   6.089  0.6428 -3.1070  1.0489
    4MOL0     H  482   4.487   6.611   5.995 -0.2135 -2.0469  2.2035
    4MOL0     H  483   4.322   6.584   5.959  1.2360  0.4187  3.2053
    4MOL0     H  484   4.516   6.592   5.715  0.7642 -0.9501  1.6704
    4MOL0     H  485   4.468   6.735   5.787  1.5531 -0.3306  1.8997
    4MOL0     H  486   4.292   6.519   5.677  2.1941 -0.8628  2.1897
    4MOL0     H  487   4.220   6.671   5.740 -1.3724 -0.1529 -4.3465
    4MOL0     H  488   4.350   6.814   5.587  4.0226 -0.6263  0.1696
    4MOL0     H  489   4.241   6.705   5.514 -2.2963  1.2592  2.2955
    4MOL0     H  490   4.534   6.545   5.293 -3.2497  0.0671  2.3438
    4MOL0     H  491   4.675   6.663   5.087  0.6297  2.2324 -0.9041
    4MOL0     H  492   4.611   6.910   4.752  0.6736 -2.8818  0.8391
    4MOL0     H  493   4.699   7.035   4.540  2.5094  2.3083 -1.7228
    4MOL0     H  494   4.802   7.259   4.515  0.7404  1.8945  0.6641
    4MOL0     H  495   4.869   7.201   4.364  0.5016 -2.3326  1.3062
    4MOL0     H  496   5.070   7.341   4.418 -1.2778 -1.9285 -0.5896
    4MOL0     H  497   4.972   7.402   4.548 -3.1288  0.8748  0.5539
    4MOL0     H  498   4.822   7.513   4.435  1.1187 -1.0254  1.4345
    4MOL0     H  499   4.856   7.436   4.270 -0.0638  2.1572 -0.3698
    4MOL0     H  500   5.054   7.609   4.435  2.8802 -2.8744 -1.8641
    4MOL0     H  501   5.061   7.558   4.267 -0.6528  0.2028  0.8137
    4MOL0     H  502   5.017   7.783   4.280  0.1824 -3.4101 -4.0190
    4MOL0     H  503   4.908   7.766   4.416 -1.2486 -0.3587  0.1102
    4MOL0     H  504   4.782   7.824   4.208  3.2213  0.4119  0.6332
    4MOL0     H  505   4.736   7.658   4.253  1.8140 -2.5433 -0.5770
    4MOL0     H  506   4.961   7.703   4.043 -0.2098  0.2822 -0.4909
    4MOL0     H  507   4.889   7.563   4.079 -2.8691 -0.2878  0.2363
    4MOL0     H  508   4.812   7.712   3.870  3.2683 -1.8207  1.5206
    4MOL0     H  509   4.697   7.764   3.991  2.6502  2.2787  1.5398
    4MOL0     H  510   5.087   7.017   4.734 -1.1391 -3.7319 -2.6715
    4MOL0     H  511   4.977   6.875   4.915  1.0580  3.7106  0.6860
    4MOL0     H  512   4.512   7.027   5.240 -1.5981  0.1417  1.1747
    4MOL0     H  513   4.418   6.925   5.416 -0.1218  1.0581 -2.5167
    4MOL0     H  514   5.161   5.950   6.616  1.0844  0.9888  0.6046
    4MOL0     H  515   5.355   5.843   6.693 -0.2205  0.1360 -0.6454
    4MOL0     H  516   5.733   5.853   7.038 -2.2049  0.9010  1.7044
    4MOL0     H  517   5.935   5.707   7.104  1.6633  0.6918 -3.3456
    4MOL0     H  518   5.938   5.353   6.921 -0.4557  2.9899  0.0785
    4MOL0     H  519   6.023   5.265   7.056  1.5562  0.0915  0.6739
    4MOL0     H  520   6.207   5.394   7.037 -1.9410  0.9168 -0.0615
    4MOL0     H  521   6.168   5.344   6.866 -1.0284  1.2554 -1.8270
    4MOL0     H  522   6.130   5.619   6.989  3.3767 -0.7167 -0.4487
    4MOL0     H  523   6.045   5.563   6.852 -0.5692 -2.5475  0.1746
    4MOL0     H  524   6.338   5.611   6.916  1.2424 -2.5228 -1.0849
    4MOL0     H  525   6.317   5.502   6.792  0.3610 -0.0991  0.6155
    4MOL0     H  526   6.273   5.856   6.582  5.1020 -1.4793 -0.0522
    4MOL0     H  527   5.735   5.353   7.027  0.0817  0.0858 -1.8067
    4MOL0     H  528   5.527   5.485   6.935 -0.7028  0.8024 -1.5820
    5MOL0     O  529   2.058   3.261  10.696  0.6951  1.1860  0.2647
    5MOL0     C  530   2.133   3.201  10.776  0.0695  0.0656  0.3703
    5MOL0     O  531   2.199   3.091  10.734 -0.4655 -0.5122 -0.6258
    5MOL0     C  532   2.203   3.058  10.599 -0.1733 -0.5278 -0.1974
    5MOL0     C  533   2.089   3.042  10.512 -0.4296  0.6277  0.5315
    5MOL0     C  534   2.114   2.996  10.381 -0.1279  0.2690 -0.2800
    5MOL0     C  535   2.247   2.950  10.338  1.0286 -1.2604  0.3830
    5MOL0     O  536   2.258   2.895  10.220  0.1204  0.3761 -0.0687
    5MOL0     C  537   2.383   2.857  10.163  0.5465  1.1257  0.2475
    5MOL0     C  538   2.358   2.804  10.024  0.1393 -0.0686  0.4952
    5MOL0     C  539   2.313   2.909   9.924  0.4797  0.6982  1.3615
    5MOL0     C  540   2.300   2.837   9.788  0.0940  0.8711  0.9192
    5MOL0     C  541   2.265   2.938   9.667  0.0795 -0.4127 -0.5442
    5MOL0     C  542   2.372   3.052   9.633 -0.1562 -0.3582 -0.2452
    5MOL0     C  543   2.494   2.977   9.582 -0.1357 -0.0049 -0.0459
    5MOL0     C  544   2.608   3.068   9.564 -0.0617 -0.2817 -0.0460
    5MOL0     N  545   2.741   3.006   9.535 -0.6388  0.0158  0.0884
    5MOL0     C  546   2.849   3.032   9.608 -0.4866  1.1754 -0.8186
    5MOL0     C  547   2.949   2.964   9.545  0.7517 -0.4246  1.2141
    5MOL0     C  548   3.091   2.954   9.584 -0.8096 -1.1120  0.1442
    5MOL0     C  549   3.152   3.092   9.613  0.3178 -1.2426 -0.3040
    5MOL0     C  550   3.300   3.125   9.575 -0.9093  0.4154 -0.0807
    5MOL0     C  551   3.339   3.269   9.617 -0.2609 -0.1472 -0.2353
    5MOL0     O  552   3.325   3.312   9.756 -0.6858 -0.5953  0.7309
    5MOL0     C  553   3.390   3.243   9.851  0.3833  0.0755  0.0663
    5MOL0     C  554   3.324   3.235   9.973 -0.2851  0.6338 -0.0821
    5MOL0     C  555   3.380   3.164  10.071  0.9586  0.6269 -0.6793
    5MOL0     C  556   3.505   3.098  10.055 -0.0888  0.1160 -0.2681
    5MOL0     C  557   3.572   3.033  10.173  0.1988 -0.3439 -0.3134
    5MOL0     O  558   3.644   2.922  10.150 -0.4807 -0.3630 -0.4187
    5MOL0     C  559   3.732   2.862  10.240 -0.1531 -0.2615 -0.1550
    5MOL0     C  560   3.699   2.739  10.289 -0.1417  0.0991  0.5670
    5MOL0     C  561   3.764   2.675  10.398 -0.7519  0.8891 -0.5531
    5MOL0     C  562   3.853   2.745  10.469 -0.4241 -0.3469  0.5111
    5MOL0     O  563   3.921   2.676  10.569  0.6040 -0.6218  0.3287
    5MOL0     C  564   4.004   2.745  10.656  0.4278 -0.4300  0.0850
    5MOL0     C  565   4.020   2.653  10.782  0.6854  0.0328  0.7582
    5MOL0     C  566   3.882   2.616  10.849 -0.5482  0.1828 -0.4916
    5MOL0     C  567   3.880   2.553  10.985 -0.1780 -0.8413  1.3800
    5MOL0     C  568   3.974   2.433  10.973 -1.0735 -0.0136 -0.2948
    5MOL0     C  569   3.970   2.340  11.097 -0.8509 -0.1664  0.6873
    5MOL0     C  570   3.843   2.264  11.116  0.5609  0.5057  0.3938
    5MOL0     C  571   3.864   2.136  11.193  0.0026 -0.0287 -1.0141
    5MOL0    Cl  572   3.918   2.179  11.360 -0.1362  0.4029 -0.2321
    5MOL0     C  573   3.899   2.866  10.420 -0.1891  0.1416 -0.3587
    5MOL0     C  574   3.842   2.928  10.306 -0.5765  0.5615 -0.2657
    5MOL0     O  575   3.584   3.102  10.276  0.2481  1.0169 -0.4066
    5MOL0     C  576   3.561   3.089   9.932  0.9696 -0.7596 -0.0092
    5MOL0     C  577   3.512   3.178   9.834  0.0885 -0.0813 -0.4588
    5MOL0     N  578   2.892   2.923   9.423 -0.7350  0.3774 -0.3328
    5MOL0     N  579   2.765   2.951   9.418 -0.1357  0.0937  0.4628
    5MOL0     C  580   2.354   2.970  10.426  0.0639 -0.6818  0.5588
    5MOL0     C  581   2.326   3.030  10.548  0.2755 -0.5379  0.2164
    5MOL0     C  582   2.142   3.237  10.917 -0.2279  0.7417 -0.4483
    5MOL0     C  583   2.089   3.356  10.976  0.7986 -0.1741 -0.7270
    5MOL0     C  584   2.097   3.374  11.115 -0.5135 -1.3601  0.8078
    5MOL0     C  585   2.153   3.286  11.206 -1.5017  0.2066 -0.0779
    5MOL0     O  586   2.170   3.330  11.342  0.3306 -0.5418 -0.7856
    5MOL0     C  587   2.234   3.249  11.442 -0.1192  0.5031  0.0530
    5MOL0     C  588   2.159   3.256  11.571  0.1341  0.3431  0.4937
    5MOL0     C  589   2.155   3.400  11.627  0.2477 -0.3791 -0.3566
    5MOL0     C  590   2.211   3.394  11.778 -0.2455 -0.5419 -0.1886
    5MOL0     C  591   2.357   3.368  11.785  0.3330  0.5066  0.0623
    5MOL0     C  592   2.474   3.327  11.784 -0.5536  0.6206  0.2003
    5MOL0     C  593   2.217   3.177  11.143  0.2637 -0.6920 -0.4746
    5MOL0     C  594   2.199   3.144  11.009 -0.2165 -0.1345 -0.4475
    5MOL0     H  595   1.988   3.052  10.550  0.0111  0.3436  1.8054
    5MOL0     H  596   2.026   2.983  10.319 -0.5022  0.2210  0.2532
    5MOL0     H  597   2.431   2.777  10.221 -0.5584  0.3213  0.0724
    5MOL0     H  598   2.439   2.950  10.149  1.1086  0.9452  1.1977
    5MOL0     H  599   2.276   2.732  10.030 -0.2283  0.3042  0.0172
    5MOL0     H  600   2.445   2.752   9.983  0.5713  1.4697 -0.6717
    5MOL0     H  601   2.395   2.980   9.910  0.3154  0.7966  0.8700
    5MOL0     H  602   2.220   2.948   9.965 -0.6444  0.9111 -1.2205
    5MOL0     H  603   2.380   2.765   9.767  0.2558  1.4032 -0.4057
    5MOL0     H  604   2.209   2.776   9.792  0.8361 -0.5283 -1.3048
    5MOL0     H  605   2.173   2.980   9.708 -0.4050 -2.5446  0.6791
    5MOL0     H  606   2.247   2.876   9.578 -1.7779 -0.3513 -0.2333
    5MOL0     H  607   2.399   3.102   9.726  3.5360 -0.0629 -1.3161
    5MOL0     H  608   2.332   3.120   9.558 -2.7655 -2.0912 -0.5699
    5MOL0     H  609   2.537   2.911   9.658  1.8150  1.8038  0.5264
    5MOL0     H  610   2.464   2.938   9.485  2.0026 -2.6119  0.2074
    5MOL0     H  611   2.616   3.122   9.659  0.4855 -0.5438  0.0613
    5MOL0     H  612   2.580   3.142   9.489  0.0041  0.9224  1.0840
    5MOL0     H  613   2.856   3.090   9.700  0.7417  0.8335 -0.6838
    5MOL0     H  614   3.140   2.924   9.492  0.4207 -1.5704  0.9271
    5MOL0     H  615   3.104   2.883   9.666  3.3330 -0.0215  0.6760
    5MOL0     H  616   3.132   3.111   9.719 -3.2284 -0.9065 -0.9159
    5MOL0     H  617   3.093   3.170   9.563  0.1020 -0.8219  0.5895
    5MOL0     H  618   3.367   3.053   9.624 -1.4821  0.8785  1.4460
    5MOL0     H  619   3.320   3.122   9.467  1.6231 -1.4890  0.3364
    5MOL0     H  620   3.285   3.346   9.562 -3.4303  1.0400  3.9961
    5MOL0     H  621   3.445   3.271   9.589  0.3964 -0.2886  2.0258
    5MOL0     H  622   3.225   3.277   9.988 -0.6807 -1.2217  3.5302
    5MOL0     H  623   3.343   3.162  10.173 -2.2728  1.8363 -1.7004
    5MOL0     H  624   3.604   2.708  10.247 -0.0949  0.7822 -0.0668
    5MOL0     H  625   3.724   2.584  10.443 -1.3842 -0.0811 -2.9227
    5MOL0     H  626   3.967   2.846  10.680  3.4116  0.8610 -0.3337
    5MOL0     H  627   4.099   2.767  10.608 -0.1160  0.8838 -0.4397
    5MOL0     H  628   4.092   2.697  10.852  0.1857  1.7505  0.2504
    5MOL0     H  629   4.069   2.563  10.744 -0.7197  0.1859 -1.5561
    5MOL0     H  630   3.841   2.545  10.777  2.4436 -1.4814 -0.7250
    5MOL0     H  631   3.812   2.699  10.855 -2.8679 -1.5772 -1.5005
    5MOL0     H  632   3.909   2.620  11.067  0.3048 -0.6426  1.0537
    5MOL0     H  633   3.774   2.525  10.991  0.0205 -3.2886 -2.9205
    5MOL0     H  634   4.078   2.467  10.969 -0.9989  0.1803  1.9568
    5MOL0     H  635   3.954   2.384  10.878  1.9354 -1.2960 -0.3664
    5MOL0     H  636   3.987   2.401  11.186  1.1785  3.2571 -1.8087
    5MOL0     H  637   4.053   2.269  11.085 -0.9492 -0.6345  2.4899
    5MOL0     H  638   3.778   2.323  11.181 -0.9377 -0.2479 -0.3555
    5MOL0     H  639   3.792   2.238  11.022 -0.0087 -2.0070  1.3188
    5MOL0     H  640   3.936   2.071  11.143  0.9634  0.6522 -0.5520
    5MOL0     H  641   3.762   2.096  11.201 -0.3024  1.1043  3.0397
    5MOL0     H  642   3.973   2.924  10.474  3.1459 -2.5959 -1.6711
    5MOL0     H  643   3.882   3.025  10.277  0.4527 -0.3934 -2.2490
    5MOL0     H  644   3.657   3.040   9.919  1.3351 -0.5665  1.6741
    5MOL0     H  645   3.570   3.188   9.743 -0.5158 -2.6952 -1.2049
    5MOL0     H  646   2.456   2.957  10.392  0.1453  1.4233 -0.1165
    5MOL0     H  647   2.405   3.054  10.619  2.6702 -0.6758 -2.2557
    5MOL0     H  648   2.036   3.421  10.907 -0.2795 -1.3593 -1.0505
    5MOL0     H  649   2.044   3.458  11.159 -1.3674 -0.1634 -2.2398
    5MOL0     H  650   2.332   3.290  11.469  1.6215 -2.2743 -1.4924
    5MOL0     H  651   2.239   3.144  11.413 -2.4417 -0.6465  3.2974
    5MOL0     H  652   2.057   3.220  11.553 -0.7503  4.1153 -4.2318
    5MOL0     H  653   2.216   3.184  11.630 -0.9425 -1.5805 -0.6982
    5MOL0     H  654   2.050   3.430  11.624  0.0663 -0.8370 -4.2863
    5MOL0     H  655   2.215   3.466  11.564  0.1186 -0.4678 -0.5718
    5MOL0     H  656   2.207   3.491  11.828 -0.2875 -0.3634 -0.5345
    5MOL0     H  657   2.160   3.318  11.838 -3.2072  3.6940  3.1943
    5MOL0     H  658   2.578   3.301  11.787 -0.7222 -0.1267 -0.2826
    5MOL0     H  659   2.270   3.107  11.207 -2.1177  1.0287  3.8188
    5MOL0     H  660   2.229   3.041  10.992 -0.8987 -1.2600  4.0542
    6MOL0     O  661   7.159   2.805   6.869 -0.2616  0.6765  0.7606
    6MOL0     C  662   7.161   2.862   6.760  0.4639 -0.2859  0.2759
    6MOL0     O  663   7.224   2.978   6.730 -0.3743  0.4618  1.3499
    6MOL0     C  664   7.322   3.029   6.810 -0.4837 -1.1062 -0.0660
    6MOL0     C  665   7.446   3.060   6.753 -0.0292  0.1126 -0.0629
    6MOL0     C  666   7.547   3.111   6.837  0.0383  0.8728  0.5750
    6MOL0     C  667   7.517   3.165   6.964  0.2059  0.1527 -0.0353
    6MOL0     O  668   7.618   3.217   7.043 -0.4243  0.7197 -0.0029
    6MOL0     C  669   7.704   3.111   7.110  0.7063  1.0012  1.0524
    6MOL0     C  670   7.776   3.170   7.238  0.3273  0.2237  0.6674
    6MOL0     C  671   7.684   3.160   7.357 -0.8815 -0.3198  0.7942
    6MOL0     C  672   7.736   3.241   7.470 -0.5938 -0.8075 -0.7205
    6MOL0     C  673   7.635   3.228   7.591  0.6258 -0.5910  1.0421
    6MOL0     C  674   7.676   3.315   7.710 -0.1616 -1.1662 -0.0490
    6MOL0     C  675   7.683   3.470   7.701 -0.0078 -0.5459 -0.0459
    6MOL0     C  676   7.709   3.546   7.835  0.1331  0.6750  0.9924
    6MOL0     N  677   7.852   3.548   7.879 -0.0784  0.8015  0.2952
    6MOL0     C  678   7.922   3.664   7.902  0.2403 -0.6548 -0.6301
    6MOL0     C  679   8.032   3.628   7.972 -0.2787 -1.4069  0.0257
    6MOL0     C  680   8.153   3.709   8.024 -1.2235 -0.8095  0.4327
    6MOL0     C  681   8.232   3.750   7.896  0.2280 -1.0092 -0.3770
    6MOL0     C  682   8.339   3.854   7.920 -0.6664  0.9697  0.5482
    6MOL0     C  683   8.382   3.923   7.789  0.5100  0.0203 -0.7077
    6MOL0     O  684   8.483   3.855   7.710  0.0407 -0.8010 -0.7969
    6MOL0     C  685   8.615   3.869   7.756 -0.1090 -0.3388  0.2838
    6MOL0     C  686   8.713   3.807   7.686 -1.1116  0.6728 -0.6494
    6MOL0     C  687   8.851   3.818   7.711 -0.4818  0.1764 -0.1660
    6MOL0     C  688   8.895   3.894   7.814  0.0663 -0.0741 -1.5331
    6MOL0     C  689   9.040   3.917   7.836 -0.2298  0.9242 -0.2180
    6MOL0     O  690   9.077   3.948   7.958  0.0959 -0.4664 -0.2358
    6MOL0     C  691   9.207   3.964   7.999 -0.0589 -0.0471 -0.0724
    6MOL0     C  692   9.228   4.023   8.126  1.0927 -0.8734  0.2389
    6MOL0     C  693   9.354   4.057   8.173 -1.2882 -0.6622 -0.6008
    6MOL0     C  694   9.471   4.011   8.115 -0.7040  0.0400  0.3652
    6MOL0     O  695   9.584   4.047   8.184  0.8608 -0.2723  0.4528
    6MOL0     C  696   9.677   3.940   8.199  0.1125 -0.5627  0.0473
    6MOL0     C  697   9.645   3.823   8.287 -0.2826 -0.0383  1.0120
    6MOL0     C  698   9.604   3.859   8.427  0.8185  0.0592  0.1260
    6MOL0     C  699   9.707   3.910   8.530 -0.7033  0.3857 -0.4284
    6MOL0     C  700   9.833   3.820   8.530  0.2742 -0.4943 -0.5032
    6MOL0     C  701   9.919   3.850   8.645  0.3735  0.4548  0.2173
    6MOL0     C  702  10.067   3.807   8.630  0.0767 -0.7556  0.1332
    6MOL0     C  703  10.086   3.662   8.611  0.2573  0.4266 -1.1626
    6MOL0    Cl  704  10.031   3.559   8.753  0.1637 -0.0811  0.0299
    6MOL0     C  705   9.453   3.922   7.997 -0.2476 -0.1795 -1.0270
    6MOL0     C  706   9.323   3.907   7.943  1.5673 -0.7537  0.2582
    6MOL0     O  707   9.118   3.908   7.740 -0.8217 -1.0652 -0.5790
    6MOL0     C  708   8.797   3.953   7.887 -0.2690  0.3038  0.2639
    6MOL0     C  709   8.665   3.947   7.863 -0.2489  0.3278 -0.2861
    6MOL0     N  710   8.026   3.495   7.992 -0.3997 -0.6150  0.1931
    6MOL0     N  711   7.917   3.449   7.942 -0.4266  1.1627 -0.7842
    6MOL0     C  712   7.389   3.144   7.017 -0.1080 -0.2319 -0.9886
    6MOL0     C  713   7.292   3.076   6.941 -0.8198 -0.5998  0.7804
    6MOL0     C  714   7.052   2.830   6.651 -0.1845  0.2418  0.5481
    6MOL0     C  715   7.074   2.865   6.518  0.0888 -0.3530  0.7843
    6MOL0     C  716   6.978   2.829   6.423  0.0738  0.2131  0.8359
    6MOL0     C  717   6.870   2.741   6.459  0.5937 -0.0131  0.2951
    6MOL0     O  718   6.776   2.704   6.362  0.1065  0.0893  0.4328
    6MOL0     C  719   6.657   2.635   6.396  0.5949  0.1775  0.0403
    6MOL0     C  720   6.596   2.589   6.261  0.2658 -0.8282 -0.0738
    6MOL0     C  721   6.525   2.706   6.192 -0.4821  0.2944 -0.5135
    6MOL0     C  722   6.389   2.737   6.252 -0.2840 -0.1388 -0.1424
    6MOL0     C  723   6.344   2.872   6.214  0.2437 -0.1676  0.2323
    6MOL0     C  724   6.298   2.967   6.172 -0.0173 -0.1460  0.2980
    6MOL0     C  725   6.842   2.725   6.592 -1.0987  0.1414 -0.4499
    6MOL0     C  726   6.939   2.754   6.689  0.7629 -0.6240  0.0556
    6MOL0     H  727   7.456   3.032   6.649 -1.5992  0.9945 -0.4796
    6MOL0     H  728   7.650   3.118   6.803  0.0268 -2.0896 -0.3441
    6MOL0     H  729   7.779   3.083   7.035 -2.6478 -2.0438 -1.5695
    6MOL0     H  730   7.649   3.020   7.135 -1.2977  1.3181 -1.7776
    6MOL0     H  731   7.806   3.274   7.218  3.0591 -0.8619 -1.6376
    6MOL0     H  732   7.865   3.107   7.244  0.2096 -0.3888 -2.2213
    6MOL0     H  733   7.669   3.057   7.391  1.4700 -1.9194 -2.5258
    6MOL0     H  734   7.584   3.199   7.333  0.5751  1.4630 -3.1593
    6MOL0     H  735   7.836   3.216   7.505 -0.3228  1.8969  0.6728
    6MOL0     H  736   7.738   3.342   7.430 -0.5931 -0.6353 -0.2927
    6MOL0     H  737   7.642   3.124   7.625  0.1149 -2.0485 -2.8173
    6MOL0     H  738   7.538   3.247   7.545  1.1900  3.0537  1.0973
    6MOL0     H  739   7.771   3.277   7.749  2.2988  0.6120 -3.7931
    6MOL0     H  740   7.600   3.294   7.786 -1.6090 -2.8450 -1.8523
    6MOL0     H  741   7.768   3.481   7.633  0.0946 -0.4302  0.1009
    6MOL0     H  742   7.588   3.506   7.660  1.0320  0.2132 -1.8975
    6MOL0     H  743   7.645   3.492   7.906  0.3063  1.0352  1.4280
    6MOL0     H  744   7.671   3.648   7.838 -1.3033  0.1481  2.5631
    6MOL0     H  745   7.901   3.768   7.881  1.4735  0.4931  3.1193
    6MOL0     H  746   8.220   3.653   8.090 -1.2348 -1.5490 -0.1779
    6MOL0     H  747   8.118   3.792   8.085  0.9035 -0.8051  1.7576
    6MOL0     H  748   8.155   3.798   7.834  3.3328 -0.0576 -3.8869
    6MOL0     H  749   8.273   3.664   7.843  0.8229  0.2594 -2.0933
    6MOL0     H  750   8.316   3.928   7.997 -1.5869 -0.4907  1.7232
    6MOL0     H  751   8.427   3.794   7.947  0.2110  1.2443 -1.5534
    6MOL0     H  752   8.410   4.024   7.820 -1.0820  0.1370  0.4971
    6MOL0     H  753   8.293   3.950   7.732 -1.9556 -2.2741  1.7510
    6MOL0     H  754   8.691   3.745   7.600 -1.8794 -0.5548  0.3852
    6MOL0     H  755   8.926   3.763   7.654  0.0411  0.8562 -0.1386
    6MOL0     H  756   9.146   4.074   8.174 -1.0430 -1.1444 -2.8268
    6MOL0     H  757   9.371   4.120   8.259  4.8982  1.0512 -2.5431
    6MOL0     H  758   9.776   3.976   8.228  0.5058 -1.6709  0.1178
    6MOL0     H  759   9.691   3.883   8.106 -2.9399 -2.1172  0.3971
    6MOL0     H  760   9.712   3.737   8.275 -0.7139  0.0037 -3.3879
    6MOL0     H  761   9.556   3.778   8.242 -1.3413  0.6820  2.3267
    6MOL0     H  762   9.564   3.767   8.472 -4.0098  2.7046  1.9584
    6MOL0     H  763   9.526   3.935   8.417  0.6268 -0.3577 -2.1980
    6MOL0     H  764   9.733   4.016   8.542 -0.0033  0.0251  1.8657
    6MOL0     H  765   9.657   3.876   8.621  1.3155 -4.6750 -0.8984
    6MOL0     H  766   9.892   3.842   8.440 -0.7512  0.3117 -1.0040
    6MOL0     H  767   9.804   3.716   8.548  0.1976 -0.0736  2.2088
    6MOL0     H  768   9.867   3.817   8.735 -0.1791  3.4966  1.1452
    6MOL0     H  769   9.922   3.958   8.664  0.7745  0.2421  1.4153
    6MOL0     H  770  10.110   3.857   8.543 -2.9209  1.8638 -0.0309
    6MOL0     H  771  10.113   3.844   8.722 -0.7132  1.6677 -0.3780
    6MOL0     H  772  10.194   3.649   8.607  0.4577  1.0807  0.6979
    6MOL0     H  773  10.038   3.625   8.520 -0.4371  0.9562 -1.0250
    6MOL0     H  774   9.539   3.879   7.949  1.9310  1.9455  0.6974
    6MOL0     H  775   9.324   3.846   7.853  0.5833 -0.8790  0.3288
    6MOL0     H  776   8.842   4.023   7.957 -0.5928  1.0062 -0.2086
    6MOL0     H  777   8.602   3.995   7.937 -2.4402 -0.3462 -1.6023
    6MOL0     H  778   7.375   3.158   7.124  0.9206 -3.2073 -0.3769
    6MOL0     H  779   7.200   3.056   6.994  0.1783  0.2600  2.9912
    6MOL0     H  780   7.153   2.933   6.489 -1.3638  1.2679  0.4103
    6MOL0     H  781   6.982   2.865   6.321  4.3511  2.7397  1.6225
    6MOL0     H  782   6.592   2.696   6.460 -0.6303  2.1860 -2.8694
    6MOL0     H  783   6.678   2.546   6.456  2.4224 -1.9325 -3.3937
    6MOL0     H  784   6.674   2.553   6.193  1.9790 -1.7224  2.2260
    6MOL0     H  785   6.523   2.509   6.275  0.8064 -1.6317 -1.5880
    6MOL0     H  786   6.513   2.691   6.084 -0.8082  3.2109 -0.9840
    6MOL0     H  787   6.582   2.799   6.200  0.7605 -0.4647 -0.4324
    6MOL0     H  788   6.310   2.663   6.232  0.7179 -2.4727  3.6347
    6MOL0     H  789   6.410   2.735   6.359  2.2710  0.7935 -0.5688
    6MOL0     H  790   6.262   3.048   6.112 -0.6022  0.3852  1.3347
    6MOL0     H  791   6.755   2.678   6.637  0.2283 -1.3934  0.6551
    6MOL0     H  792   6.914   2.732   6.792 -1.0255  0.6310 -0.0533
    7MOL0     O  793   0.130   2.016   5.470 -1.3388  0.3506 -0.0622
    7MOL0     C  794   0.160   2.086   5.378 -0.8341 -0.6383 -0.7972
    7MOL0     O  795   0.080   2.180   5.329  0.1970 -0.2621  0.1082
    7MOL0     C  796  -0.025   2.232   5.401 -0.0373  0.8999  0.3709
    7MOL0     C  797  -0.118   2.288   5.317 -0.7023 -0.5454  0.5421
    7MOL0     C  798  -0.243   2.314   5.361 -0.5105  0.5112 -0.4127
    7MOL0     C  799  -0.273   2.316   5.498 -0.6797 -0.6256 -0.1029
    7MOL0     O  800  -0.403   2.349   5.533 -0.5751 -0.4991 -0.1876
    7MOL0     C  801  -0.498   2.252   5.489  0.3193 -0.1325 -1.1507
    7MOL0     C  802  -0.629   2.325   5.514 -0.4474 -0.0916 -0.3749
    7MOL0     C  803  -0.747   2.228   5.514 -0.1064  0.8319  0.1665
    7MOL0     C  804  -0.884   2.309   5.516  1.4853  0.1269 -0.2575
    7MOL0     C  805  -1.010   2.224   5.474 -1.6217  0.3709 -1.3455
    7MOL0     C  806  -1.130   2.323   5.511  1.3492  0.4652  0.5454
    7MOL0     C  807  -1.259   2.248   5.508  0.6651 -0.3733 -0.1424
    7MOL0     C  808  -1.312   2.169   5.625 -0.5144  0.5435  0.9488
    7MOL0     N  809  -1.218   2.077   5.694  0.2782  0.5328 -0.2231
    7MOL0     C  810  -1.106   2.106   5.771  0.2421  0.0938  0.5039
    7MOL0     C  811  -1.051   1.983   5.793 -0.1675  0.1065  0.4820
    7MOL0     C  812  -0.926   1.966   5.885 -0.1829 -0.1169  0.0106
    7MOL0     C  813  -0.890   1.820   5.936  0.6796  0.7279 -0.0824
    7MOL0     C  814  -0.734   1.800   5.969  1.1340  0.1739  0.6567
    7MOL0     C  815  -0.686   1.859   6.103 -0.1319  0.1111  0.5460
    7MOL0     O  816  -0.767   1.816   6.214 -1.0429  0.1693 -0.2791
    7MOL0     C  817  -0.740   1.883   6.333  0.1426 -0.0421  0.4866
    7MOL0     C  818  -0.613   1.894   6.391 -0.4461 -0.0112 -0.2819
    7MOL0     C  819  -0.601   1.958   6.518 -0.2528  0.8272 -0.3606
    7MOL0     C  820  -0.704   2.027   6.579  0.1418 -0.7556  0.8632
    7MOL0     C  821  -0.677   2.101   6.697 -0.8071 -0.7216  0.1627
    7MOL0     O  822  -0.547   2.134   6.719  0.0782 -0.3501  0.5841
    7MOL0     C  823  -0.533   2.200   6.834  0.1222 -0.5808 -0.7120
    7MOL0     C  824  -0.535   2.344   6.841  0.1407 -0.6428 -0.2421
    7MOL0     C  825  -0.537   2.419   6.963  0.1678 -0.2387 -0.2870
    7MOL0     C  826  -0.527   2.333   7.081  0.5915 -0.5263  0.1371
    7MOL0     O  827  -0.540   2.396   7.205 -0.5828 -1.0311 -0.2938
    7MOL0     C  828  -0.495   2.343   7.327 -0.6256 -1.3074  0.0429
    7MOL0     C  829  -0.530   2.447   7.433 -0.1989 -0.5044 -0.7370
    7MOL0     C  830  -0.421   2.566   7.437  0.0981  0.3057 -0.8622
    7MOL0     C  831  -0.272   2.525   7.468  0.6977 -0.1848  0.7447
    7MOL0     C  832  -0.184   2.654   7.473  0.2072  0.3093 -0.3320
    7MOL0     C  833  -0.044   2.622   7.473 -0.2844  0.8289  0.9131
    7MOL0     C  834   0.048   2.733   7.500  0.0584 -0.3888 -0.7511
    7MOL0     C  835   0.196   2.694   7.478  0.5241  0.6785 -0.6080
    7MOL0    Cl  836   0.249   2.637   7.307  0.3300 -0.0074 -0.3337
    7MOL0     C  837  -0.527   2.197   7.078 -1.2485  0.2635  0.3575
    7MOL0     C  838  -0.521   2.129   6.957 -0.4741 -0.6649  0.5580
    7MOL0     O  839  -0.775   2.124   6.772 -0.0707  0.5505  0.9855
    7MOL0     C  840  -0.834   2.018   6.518 -0.1642 -0.7235  0.4521
    7MOL0     C  841  -0.851   1.936   6.404 -0.9680  0.2452  0.5691
    7MOL0     N  842  -1.136   1.883   5.753 -1.1471 -0.5967 -0.9036
    7MOL0     N  843  -1.231   1.937   5.691 -0.1426  1.0379  0.3790
    7MOL0     C  844  -0.175   2.264   5.581  0.2967  0.6594 -0.2056
    7MOL0     C  845  -0.047   2.231   5.536 -0.0159 -0.0085  1.1302
    7MOL0     C  846   0.303   2.065   5.333 -0.2052  0.0552 -0.0840
    7MOL0     C  847   0.349   2.144   5.227 -0.3291  0.1273 -0.1836
    7MOL0     C  848   0.476   2.123   5.183  0.1157  0.3974 -0.4064
    7MOL0     C  849   0.567   2.024   5.237 -0.7632  0.6572 -0.0862
    7MOL0     O  850   0.685   1.985   5.180 -0.1040  0.8486 -0.4857
    7MOL0     C  851   0.702   1.997   5.035  0.3280  0.2382 -0.6956
    7MOL0     C  852   0.826   1.929   4.981  0.4489  0.4121 -0.1503
    7MOL0     C  853   0.881   1.985   4.848  0.6663  0.0723  0.2805
    7MOL0     C  854   1.019   1.929   4.815  0.5690  0.6176  0.5105
    7MOL0     C  855   1.012   1.788   4.798  0.6808  0.0357  0.1991
    7MOL0     C  856   1.007   1.667   4.796 -0.6009 -0.5846 -0.5608
    7MOL0     C  857   0.522   1.944   5.345 -0.2185  0.0272 -0.3242
    7MOL0     C  858   0.393   1.965   5.391  0.0084 -0.8313 -0.4750
    7MOL0     H  859  -0.092   2.286   5.211 -0.9072 -3.2606  0.4736
    7MOL0     H  860  -0.302   2.366   5.286  3.0372  4.2382 -0.9393
    7MOL0     H  861  -0.498   2.160   5.548 -2.1918 -0.3049 -1.3227
    7MOL0     H  862  -0.497   2.216   5.385  2.1673  2.3518 -2.0876
    7MOL0     H  863  -0.645   2.389   5.427 -2.5488 -0.1007 -0.0525
    7MOL0     H  864  -0.630   2.389   5.602  2.3453 -2.0113  1.1963
    7MOL0     H  865  -0.740   2.152   5.593 -2.6233  1.0874  0.7079
    7MOL0     H  866  -0.738   2.173   5.420  0.3845 -2.8088  2.1523
    7MOL0     H  867  -0.906   2.344   5.617 -2.0228 -2.3523  0.0222
    7MOL0     H  868  -0.875   2.406   5.465  0.6870  0.9501  1.0995
    7MOL0     H  869  -1.024   2.133   5.533  2.4393  0.8071  0.6677
    7MOL0     H  870  -1.001   2.194   5.369  2.3619  1.1432 -1.3662
    7MOL0     H  871  -1.132   2.397   5.431 -2.1183 -0.3326 -0.2464
    7MOL0     H  872  -1.115   2.364   5.612 -3.2468 -4.7654  3.9663
    7MOL0     H  873  -1.334   2.326   5.491 -0.1881 -0.9800  0.7187
    7MOL0     H  874  -1.262   2.191   5.415 -4.1967  2.4597 -2.1321
    7MOL0     H  875  -1.406   2.115   5.613 -0.1558 -0.8688  3.7560
    7MOL0     H  876  -1.346   2.240   5.702  0.2387  0.8945  0.9747
    7MOL0     H  877  -1.077   2.200   5.816 -0.3070 -1.3559  4.2637
    7MOL0     H  878  -0.935   2.021   5.979 -4.1035 -5.2473  3.1740
    7MOL0     H  879  -0.854   2.008   5.814 -1.4516  1.9090 -0.1546
    7MOL0     H  880  -0.922   1.757   5.853 -0.1406  2.3411 -1.0373
    7MOL0     H  881  -0.945   1.783   6.023 -0.0001 -0.7039 -1.0822
    7MOL0     H  882  -0.718   1.692   5.964  0.1995 -0.0227  1.5576
    7MOL0     H  883  -0.681   1.851   5.888  1.8036  0.5015  1.2889
    7MOL0     H  884  -0.668   1.967   6.103 -3.0125  0.7683 -3.0003
    7MOL0     H  885  -0.588   1.810   6.108  1.6026  3.2844  0.0082
    7MOL0     H  886  -0.531   1.844   6.340  0.0418 -0.0451  0.5060
    7MOL0     H  887  -0.500   1.970   6.554 -0.1195  2.3270 -1.1585
    7MOL0     H  888  -0.528   2.398   6.747 -0.1997  0.2599  0.2430
    7MOL0     H  889  -0.544   2.527   6.974 -1.6591 -0.2219 -1.3312
    7MOL0     H  890  -0.394   2.301   7.331 -0.0351 -0.3501 -2.5590
    7MOL0     H  891  -0.565   2.262   7.349 -0.4801 -1.3872  0.2088
    7MOL0     H  892  -0.537   2.399   7.531 -0.0774 -0.6155 -0.7813
    7MOL0     H  893  -0.632   2.481   7.413 -1.0059 -0.0673  3.2107
    7MOL0     H  894  -0.452   2.628   7.522 -0.4479 -4.7676  3.0937
    7MOL0     H  895  -0.426   2.626   7.346 -1.0034  2.3217  0.4582
    7MOL0     H  896  -0.273   2.463   7.559  2.2772 -1.2558  0.0969
    7MOL0     H  897  -0.247   2.463   7.382  1.1916 -0.2337  0.9178
    7MOL0     H  898  -0.213   2.707   7.564  2.8222  0.3107  0.6077
    7MOL0     H  899  -0.200   2.723   7.389  2.8008  0.8380 -0.4900
    7MOL0     H  900  -0.018   2.584   7.374  0.7406  0.3565  1.3501
    7MOL0     H  901  -0.027   2.531   7.532  0.3129 -0.5194 -1.2487
    7MOL0     H  902   0.037   2.819   7.434  0.9179 -1.2535 -2.0650
    7MOL0     H  903   0.045   2.755   7.608 -0.5820  5.3955 -1.6161
    7MOL0     H  904   0.219   2.619   7.553 -1.9798  1.1314  0.7417
    7MOL0     H  905   0.253   2.787   7.488  1.4298  0.5405 -3.4517
    7MOL0     H  906  -0.544   2.127   7.160 -0.8148 -4.1104 -2.9417
    7MOL0     H  907  -0.527   2.021   6.958 -0.0991 -0.6983 -0.3171
    7MOL0     H  908  -0.914   2.066   6.573  0.3851  1.7658 -0.7671
    7MOL0     H  909  -0.943   1.917   6.349 -0.4084  1.3754 -0.8464
    7MOL0     H  910  -0.204   2.269   5.686  1.9098 -0.7694  0.3440
    7MOL0     H  911   0.033   2.203   5.602  0.3328 -1.4738  0.1384
    7MOL0     H  912   0.280   2.217   5.187 -2.0590 -1.8565 -1.0084
    7MOL0     H  913   0.521   2.188   5.108  1.6922 -2.8569 -2.5187
    7MOL0     H  914   0.701   2.103   5.009  0.5428  0.9740  2.0657
    7MOL0     H  915   0.615   1.943   4.995  0.7006 -0.6656 -0.3244
    7MOL0     H  916   0.907   1.939   5.053  2.2534  1.7472 -2.2236
    7MOL0     H  917   0.811   1.821   4.970  2.2673  0.2962 -2.0393
    7MOL0     H  918   0.890   2.093   4.863  1.6673  0.3214 -1.8583
    7MOL0     H  919   0.806   1.965   4.772  0.5823 -0.5783  0.5315
    7MOL0     H  920   1.065   1.965   4.722  2.0222 -0.5020  0.7684
    7MOL0     H  921   1.095   1.955   4.889  0.5890  1.0285  0.3510
    7MOL0     H  922   0.999   1.561   4.798 -0.9827 -0.5709  2.0373
    7MOL0     H  923   0.594   1.887   5.403 -0.2519  0.6173  0.3090
    7MOL0     H  924   0.359   1.923   5.485  0.5773 -0.0410  0.0967
    8MOL0     O  925   3.162  10.630   4.560  0.5890 -0.4579 -0.6735
    8MOL0     C  926   3.188  10.741   4.619 -0.7094  0.1410  0.0149
    8MOL0     O  927   3.306  10.809   4.610 -0.6738  0.1730 -0.6952
    8MOL0     C  928   3.419  10.742   4.577  0.9923  1.0830  0.4911
    8MOL0     C  929   3.526  10.819   4.523 -0.8749 -0.7860 -0.3174
    8MOL0     C  930   3.651  10.769   4.486 -0.7248 -1.2022  0.2720
    8MOL0     C  931   3.674  10.639   4.508 -0.2553 -0.3675 -0.1269
    8MOL0     O  932   3.802  10.591   4.474 -0.5087 -0.6953 -0.0586
    8MOL0     C  933   3.818  10.448   4.456  0.5798  0.0861  0.1524
    8MOL0     C  934   3.948  10.437   4.388  1.3758 -0.6449  0.8573
    8MOL0     C  935   4.066  10.414   4.475 -0.1964  0.3475  0.6155
    8MOL0     C  936   4.048  10.300   4.573 -0.4327  0.0352  0.7563
    8MOL0     C  937   4.186  10.232   4.610  0.8398 -0.1433  0.3275
    8MOL0     C  938   4.178  10.122   4.713 -0.2453  0.2763  0.2465
    8MOL0     C  939   4.324  10.059   4.733 -0.0929 -0.1016 -0.2396
    8MOL0     C  940   4.350   9.981   4.865 -1.2235  0.3077  0.4789
    8MOL0     N  941   4.482   9.919   4.855  0.9807  0.8087  0.0375
    8MOL0     C  942   4.513   9.819   4.765 -1.1509  0.3669 -0.0306
    8MOL0     C  943   4.649   9.795   4.798 -0.6132  0.4773  0.6075
    8MOL0     C  944   4.720   9.669   4.743  0.5768 -0.7960 -0.5146
    8MOL0     C  945   4.818   9.623   4.853  0.1392 -0.2329  0.3083
    8MOL0     C  946   4.941   9.709   4.845 -0.8896  0.1430 -0.9256
    8MOL0     C  947   5.031   9.695   4.969 -0.2680 -0.0204  0.0468
    8MOL0     O  948   5.163   9.682   4.940  0.5491  0.3106 -0.0122
    8MOL0     C  949   5.239   9.659   5.055  0.4775 -0.2326  0.2740
    8MOL0     C  950   5.179   9.662   5.183 -1.0324 -0.0873  0.7294
    8MOL0     C  951   5.272   9.670   5.294  0.8750 -1.5099  0.3819
    8MOL0     C  952   5.410   9.658   5.280  0.4791  0.2405  0.3486
    8MOL0     C  953   5.498   9.680   5.410  0.2881  0.8817  0.4643
    8MOL0     O  954   5.445   9.630   5.518 -0.6659 -0.4505 -0.0248
    8MOL0     C  955   5.504   9.673   5.634 -0.8972 -0.7738 -0.2101
    8MOL0     C  956   5.501   9.802   5.676 -0.9928  0.1198  0.1378
    8MOL0     C  957   5.565   9.842   5.796  0.5215 -0.1659 -0.0697
    8MOL0     C  958   5.636   9.757   5.875  0.3100 -0.6618  0.5881
    8MOL0     O  959   5.707   9.797   5.980 -0.0853  0.1866 -0.3886
    8MOL0     C  960   5.840   9.841   5.952  0.4705 -0.4414 -1.7327
    8MOL0     C  961   5.928   9.774   6.059 -0.1364 -0.4986  0.4025
    8MOL0     C  962   6.065   9.846   6.063  0.6083 -0.0313 -0.3578
    8MOL0     C  963   6.156   9.760   6.140 -0.4536  0.4065 -0.6875
    8MOL0     C  964   6.284   9.833   6.179 -0.4626 -0.0352 -0.2630
    8MOL0     C  965   6.281   9.957   6.265  0.2037 -0.5379  0.3504
    8MOL0     C  966   6.220   9.938   6.414 -0.0879  0.0491 -0.9010
    8MOL0     C  967   6.312  10.008   6.516 -0.3272 -0.9942  0.9336
    8MOL0    Cl  968   6.244   9.979   6.684 -0.2461  0.6255 -0.5699
    8MOL0     C  969   5.636   9.618   5.830  0.7032 -0.2228  0.1465
    8MOL0     C  970   5.567   9.580   5.715 -0.6232  0.4634 -0.4141
    8MOL0     O  971   5.597   9.759   5.401  0.1239 -0.3591  0.3966
    8MOL0     C  972   5.463   9.660   5.152  0.7219 -0.2814 -0.4855
    8MOL0     C  973   5.376   9.658   5.042 -0.0881  0.7315 -0.8660
    8MOL0     N  974   4.683   9.880   4.898  0.1019 -0.3447 -0.3675
    8MOL0     N  975   4.587   9.959   4.926  0.0927 -0.0126  0.4055
    8MOL0     C  976   3.573  10.557   4.557 -0.7818 -0.7484  0.6110
    8MOL0     C  977   3.445  10.604   4.589 -0.6831  0.6565 -0.2155
    8MOL0     C  978   3.074  10.807   4.682  0.2222 -0.5577  0.1738
    8MOL0     C  979   2.954  10.738   4.690 -0.1200  0.2948 -0.6296
    8MOL0     C  980   2.845  10.804   4.754  0.0410 -0.3823 -0.3169
    8MOL0     C  981   2.855  10.938   4.796 -0.3702 -0.1589  0.5166
    8MOL0     O  982   2.749  10.989   4.867 -0.1177 -0.4279  0.6183
    8MOL0     C  983   2.703  11.107   4.812 -0.3006 -0.6980  0.6036
    8MOL0     C  984   2.666  11.096   4.668  0.2505  0.0305  0.6902
    8MOL0     C  985   2.582  11.216   4.624  0.5884  0.4645 -0.1253
    8MOL0     C  986   2.676  11.342   4.602 -0.2250  0.9887  0.6569
    8MOL0     C  987   2.602  11.457   4.565 -0.4424 -1.0799  0.0527
    8MOL0     C  988   2.544  11.559   4.541  0.3245  0.7670  0.1561
    8MOL0     C  989   2.976  11.006   4.786 -0.4019 -1.0129  0.4982
    8MOL0     C  990   3.089  10.940   4.740 -0.1180 -0.1099 -0.7335
    8MOL0     H  991   3.491  10.921   4.523 -2.0576 -1.1567 -1.6773
    8MOL0     H  992   3.723  10.829   4.431 -0.6208 -0.3634  1.2857
    8MOL0     H  993   3.739  10.411   4.390  0.2460  2.5066 -0.9222
    8MOL0     H  994   3.820  10.404   4.556  0.1267  2.0649  1.0913
    8MOL0     H  995   3.976  10.518   4.320 -1.1392  0.6954  1.2898
    8MOL0     H  996   3.945  10.341   4.336 -1.5020 -1.6851  2.6954
    8MOL0     H  997   4.096  10.500   4.535 -0.9666  0.3789  0.9615
    8MOL0     H  998   4.145  10.383   4.407 -1.5505  0.1382 -0.9140
    8MOL0     H  999   4.002  10.325   4.669  2.4288 -1.1076  2.5492
    8MOL0     H 1000   3.983  10.226   4.524  0.5305 -0.9347  0.9003
    8MOL0     H 1001   4.253  10.306   4.656 -2.0511  1.5709  2.0840
    8MOL0     H 1002   4.249  10.192   4.530 -0.9787  1.6962 -2.1553
    8MOL0     H 1003   4.115  10.047   4.664 -0.1554  1.5388 -1.9228
    8MOL0     H 1004   4.133  10.162   4.805 -1.2228  0.8028 -0.4450
    8MOL0     H 1005   4.344  10.003   4.641  0.7754  3.5823 -2.4996
    8MOL0     H 1006   4.397  10.141   4.732 -0.6995  0.4452 -0.9494
    8MOL0     H 1007   4.276   9.905   4.891 -0.8862  0.3986  1.8039
    8MOL0     H 1008   4.354  10.050   4.950  1.4160  0.2889  0.4346
    8MOL0     H 1009   4.451   9.763   4.695  1.5161  0.4180 -2.6732
    8MOL0     H 1010   4.785   9.686   4.657  1.1817 -3.2928 -0.6313
    8MOL0     H 1011   4.642   9.594   4.727  0.4052 -0.2045 -2.8046
    8MOL0     H 1012   4.838   9.519   4.824 -1.7068 -0.6405  0.3836
    8MOL0     H 1013   4.769   9.626   4.951  0.3649  0.1038  0.4099
    8MOL0     H 1014   5.001   9.674   4.760 -0.9044  0.5981 -1.1270
    8MOL0     H 1015   4.908   9.809   4.817  0.0068  0.0370 -2.4865
    8MOL0     H 1016   5.005   9.600   5.016  0.9531  0.4746  1.8048
    8MOL0     H 1017   5.006   9.779   5.034 -1.6843  0.5933 -1.2284
    8MOL0     H 1018   5.073   9.659   5.209 -0.4115 -0.2724  3.5634
    8MOL0     H 1019   5.220   9.698   5.385 -2.0226  1.8310 -2.0051
    8MOL0     H 1020   5.463   9.874   5.604 -0.5491 -1.0788 -1.3514
    8MOL0     H 1021   5.564   9.946   5.826  1.9197 -1.0143  3.4816
    8MOL0     H 1022   5.822   9.949   5.961 -3.0481 -1.0431  0.4334
    8MOL0     H 1023   5.874   9.811   5.852  3.1263  1.2745 -1.4305
    8MOL0     H 1024   5.930   9.670   6.024 -0.5371 -0.8465  1.3868
    8MOL0     H 1025   5.887   9.782   6.160 -0.9728 -0.2654  0.0458
    8MOL0     H 1026   6.054   9.945   6.108 -2.1007 -0.0214 -0.8431
    8MOL0     H 1027   6.112   9.858   5.965  4.7980  2.7734  1.6683
    8MOL0     H 1028   6.111   9.711   6.227 -2.4894  3.4955  0.2023
    8MOL0     H 1029   6.184   9.676   6.077 -0.6315  1.6964 -2.5721
    8MOL0     H 1030   6.331   9.878   6.091  0.1832 -0.7301 -0.2837
    8MOL0     H 1031   6.354   9.759   6.219 -1.9814 -0.5492  1.6405
    8MOL0     H 1032   6.215  10.018   6.203 -0.4258 -1.7310 -0.1820
    8MOL0     H 1033   6.378  10.008   6.270  1.0521 -2.1211  1.2553
    8MOL0     H 1034   6.123   9.988   6.403 -0.0196  1.3168  2.8674
    8MOL0     H 1035   6.202   9.835   6.446 -2.9711  1.1225  1.4765
    8MOL0     H 1036   6.296  10.115   6.497 -0.2136 -0.5363  3.0873
    8MOL0     H 1037   6.417   9.979   6.517 -0.0543 -0.1181  2.7131
    8MOL0     H 1038   5.680   9.550   5.902  4.3110  1.8456  0.1398
    8MOL0     H 1039   5.559   9.476   5.684 -1.5915  1.0269 -2.2472
    8MOL0     H 1040   5.570   9.659   5.134  0.8690 -1.7652  0.3488
    8MOL0     H 1041   5.423   9.669   4.945  1.4997 -2.1034 -0.5213
    8MOL0     H 1042   3.609  10.455   4.567  3.8566  0.5255 -0.7901
    8MOL0     H 1043   3.378  10.524   4.621  2.0922 -1.9028 -0.3725
    8MOL0     H 1044   2.922  10.645   4.645 -1.5060  0.4530 -0.0102
    8MOL0     H 1045   2.746  10.764   4.772 -0.1407  0.0466 -0.3301
    8MOL0     H 1046   2.765  11.193   4.836 -2.5691  0.9488  0.8598
    8MOL0     H 1047   2.606  11.103   4.863 -0.2027  2.4263  1.2311
    8MOL0     H 1048   2.755  11.097   4.605  1.8805 -2.6802  2.7210
    8MOL0     H 1049   2.627  10.995   4.652  2.9105 -0.8303 -0.9796
    8MOL0     H 1050   2.509  11.242   4.701 -0.7738 -0.1764 -1.1691
    8MOL0     H 1051   2.531  11.188   4.532  1.2090  0.5494 -0.4990
    8MOL0     H 1052   2.738  11.371   4.687  1.1158 -1.4358  0.5811
    8MOL0     H 1053   2.731  11.322   4.509 -4.0537 -2.2395 -1.2338
    8MOL0     H 1054   2.485  11.644   4.514  0.8445  0.5489 -1.8101
    8MOL0     H 1055   2.994  11.103   4.830  2.1960  0.1550 -2.7057
    8MOL0     H 1056   3.178  11.001   4.738  0.0274 -0.2286  0.9336
    9MOL0     O 1057   6.457  10.510   6.981 -0.0996 -0.5010  0.5877
    9MOL0     C 1058   6.458  10.507   7.106  0.1649 -0.5999 -0.6194
    9MOL0     O 1059   6.525  10.429   7.189 -0.0755 -0.1541 -0.1364
    9MOL0     C 1060   6.579  10.318   7.146 -0.0491  0.6054  0.4623
    9MOL0     C 1061   6.545  10.214   7.224  0.8555 -0.2746 -0.0828
    9MOL0     C 1062   6.593  10.080   7.199  0.3650  0.0531 -0.2929
    9MOL0     C 1063   6.677  10.050   7.101  0.6105 -0.5173  0.6707
    9MOL0     O 1064   6.729   9.929   7.063  0.0288  0.0652 -0.3254
    9MOL0     C 1065   6.660   9.814   7.119 -0.1112  0.6377 -0.3213
    9MOL0     C 1066   6.741   9.690   7.072  0.3547 -0.7324  0.1901
    9MOL0     C 1067   6.634   9.592   7.019 -0.5321  0.4816  0.1641
    9MOL0     C 1068   6.700   9.462   6.977  0.1297 -0.3169  0.3260
    9MOL0     C 1069   6.612   9.367   6.895  0.4414  0.3744 -0.1395
    9MOL0     C 1070   6.497   9.316   6.974  0.4333 -0.0877  0.0389
    9MOL0     C 1071   6.414   9.213   6.907  0.3126 -0.0559 -0.6159
    9MOL0     C 1072   6.493   9.070   6.901 -0.5176 -0.0740  0.7943
    9MOL0     N 1073   6.394   8.958   6.909  0.3530 -0.2646 -0.7291
    9MOL0     C 1074   6.328   8.898   6.808  0.1456 -0.7836 -0.9005
    9MOL0     C 1075   6.255   8.797   6.866 -0.5398  0.6635  0.1727
    9MOL0     C 1076   6.150   8.719   6.786  0.1025  0.7049  0.2129
    9MOL0     C 1077   6.207   8.667   6.643  0.4271 -0.6223  0.1010
    9MOL0     C 1078   6.308   8.556   6.647 -0.2199  0.3479  0.4574
    9MOL0     C 1079   6.272   8.426   6.726 -0.5581  1.2295  0.3922
    9MOL0     O 1080   6.374   8.316   6.700  0.4724 -0.0629  0.1615
    9MOL0     C 1081   6.349   8.185   6.747 -0.4496 -0.4532 -0.0692
    9MOL0     C 1082   6.248   8.150   6.839  0.5077 -0.2308 -0.3876
    9MOL0     C 1083   6.231   8.015   6.876 -0.0337 -0.3754 -1.2033
    9MOL0     C 1084   6.307   7.912   6.824  0.1601  0.3649 -0.1435
    9MOL0     C 1085   6.270   7.776   6.858 -0.5479 -0.7037 -0.6431
    9MOL0     O 1086   6.197   7.760   6.972  0.0453 -0.5712  0.7122
    9MOL0     C 1087   6.154   7.634   7.005 -0.7067  0.1178  0.1681
    9MOL0     C 1088   6.167   7.606   7.141 -1.0278  0.5111 -0.1050
    9MOL0     C 1089   6.144   7.477   7.183  0.4505  0.3853 -0.4086
    9MOL0     C 1090   6.121   7.369   7.102 -0.5808  0.2949  0.4887
    9MOL0     O 1091   6.108   7.244   7.148  0.0295 -0.7691  0.0440
    9MOL0     C 1092   6.017   7.234   7.266  0.2620  0.6007 -0.0053
    9MOL0     C 1093   5.991   7.091   7.316  0.1256 -0.4036 -0.1677
    9MOL0     C 1094   5.852   7.057   7.382 -0.4429 -0.1920  0.3621
    9MOL0     C 1095   5.736   7.052   7.268  0.2103  0.5263 -0.3117
    9MOL0     C 1096   5.610   6.970   7.295  0.5856  1.1160  0.5704
    9MOL0     C 1097   5.546   7.013   7.418 -0.6935 -0.6483 -1.1010
    9MOL0     C 1098   5.393   6.983   7.427  0.1299 -0.4688 -0.8789
    9MOL0     C 1099   5.365   6.898   7.554  0.1738 -0.8829 -0.4796
    9MOL0    Cl 1100   5.413   6.988   7.696 -0.0353 -0.1935  0.3837
    9MOL0     C 1101   6.114   7.396   6.971  0.8997 -0.7772 -0.1828
    9MOL0     C 1102   6.133   7.526   6.920  0.1714  0.8231  0.8904
    9MOL0     O 1103   6.318   7.684   6.789  0.2300  0.6418 -0.2584
    9MOL0     C 1104   6.412   7.952   6.733  0.0347 -0.2165 -0.6097
    9MOL0     C 1105   6.432   8.088   6.696  0.2006 -0.7819 -0.3196
    9MOL0     N 1106   6.273   8.804   7.000  0.0664  0.1163  0.6784
    9MOL0     N 1107   6.356   8.900   7.029 -0.0041 -0.3339 -0.2545
    9MOL0     C 1108   6.713  10.157   7.008  0.1964 -0.0423 -0.4477
    9MOL0     C 1109   6.669  10.293   7.037  0.6332  0.2592 -0.5376
    9MOL0     C 1110   6.375  10.612   7.180 -0.5107 -0.2092  0.1065
    9MOL0     C 1111   6.331  10.727   7.119 -1.3100 -0.1361 -0.1343
    9MOL0     C 1112   6.258  10.823   7.188 -0.5298 -0.6309  0.5252
    9MOL0     C 1113   6.235  10.814   7.318 -0.9131  0.0307  0.0456
    9MOL0     O 1114   6.182  10.914   7.387  0.4330 -0.1386 -0.6992
    9MOL0     C 1115   6.088  11.003   7.307  0.3445  0.1859  1.0219
    9MOL0     C 1116   5.988  11.054   7.413  1.0536 -0.1337  0.6388
    9MOL0     C 1117   5.902  10.950   7.465  0.9095  0.6598  0.1098
    9MOL0     C 1118   5.813  11.004   7.578 -0.0848  0.3089 -0.0990
    9MOL0     C 1119   5.764  10.904   7.667 -0.8151 -0.4689 -0.8665
    9MOL0     C 1120   5.725  10.811   7.739 -0.2669  0.0188 -0.0789
    9MOL0     C 1121   6.271  10.697   7.382  0.8769  0.1963 -0.3392
    9MOL0     C 1122   6.345  10.593   7.306  0.1407 -1.2278 -0.9323
    9MOL0     H 1123   6.466  10.225   7.298  0.4794  0.6386 -0.5996
    9MOL0     H 1124   6.564  10.007   7.274  1.3177 -1.6774 -1.5463
    9MOL0     H 1125   6.558   9.805   7.080 -0.8889  0.2811  1.6646
    9MOL0     H 1126   6.653   9.822   7.228 -0.9185 -1.0724 -0.2166
    9MOL0     H 1127   6.790   9.642   7.157 -1.7723 -1.6245  0.9786
    9MOL0     H 1128   6.818   9.718   7.000  0.5699  1.4927  1.1929
    9MOL0     H 1129   6.576   9.620   6.930 -1.4815  0.1791  0.6721
    9MOL0     H 1130   6.584   9.564   7.112 -0.1475  2.3828  0.9912
    9MOL0     H 1131   6.776   9.484   6.902 -0.0543 -1.1384 -0.1098
    9MOL0     H 1132   6.747   9.409   7.061  2.0002  0.3374 -0.2701
    9MOL0     H 1133   6.672   9.278   6.874  1.5255  0.7727  1.1917
    9MOL0     H 1134   6.579   9.405   6.798  0.2771 -4.2864 -2.2160
    9MOL0     H 1135   6.436   9.406   6.986 -0.7845 -0.7710 -0.8591
    9MOL0     H 1136   6.532   9.291   7.075  0.8788  0.8103  0.1218
    9MOL0     H 1137   6.327   9.197   6.972  0.3012 -0.8815 -0.8215
    9MOL0     H 1138   6.364   9.249   6.817  0.4634 -0.3352 -0.8137
    9MOL0     H 1139   6.555   9.061   6.990  1.3989  1.4309 -0.3169
    9MOL0     H 1140   6.552   9.070   6.809  0.1842 -1.6905  1.2074
    9MOL0     H 1141   6.327   8.932   6.705 -1.9172  0.5722 -0.5040
    9MOL0     H 1142   6.062   8.784   6.785 -0.2206  0.4183  3.0535
    9MOL0     H 1143   6.120   8.625   6.833  2.2421 -0.3372 -0.4010
    9MOL0     H 1144   6.242   8.758   6.593  0.0219  0.2451  1.3425
    9MOL0     H 1145   6.118   8.641   6.585  0.1186  1.3158 -0.3631
    9MOL0     H 1146   6.324   8.527   6.542 -1.8271 -1.2805  0.5930
    9MOL0     H 1147   6.397   8.605   6.687  0.3217 -0.0000 -0.2859
    9MOL0     H 1148   6.174   8.385   6.702  0.4354 -1.1774  0.1506
    9MOL0     H 1149   6.274   8.439   6.835 -1.1997  0.0399  0.5522
    9MOL0     H 1150   6.184   8.227   6.882 -1.5169 -1.5530 -0.9221
    9MOL0     H 1151   6.149   7.995   6.944  0.0723 -0.3818 -1.0773
    9MOL0     H 1152   6.166   7.683   7.217 -5.2036 -0.0424  0.6451
    9MOL0     H 1153   6.158   7.457   7.288  2.9936 -2.4456 -1.1292
    9MOL0     H 1154   5.923   7.283   7.239 -2.2619 -1.4796  4.0964
    9MOL0     H 1155   6.054   7.297   7.348  2.4674 -0.1703 -0.3366
    9MOL0     H 1156   6.066   7.084   7.395 -0.2647  3.6445  0.7803
    9MOL0     H 1157   6.001   7.022   7.232  0.8064 -2.3644  1.4349
    9MOL0     H 1158   5.822   7.137   7.450 -0.5153 -1.4584  1.8605
    9MOL0     H 1159   5.861   6.964   7.439 -2.6160 -0.5530  0.2233
    9MOL0     H 1160   5.704   7.153   7.242 -0.7668  0.3584  0.2010
    9MOL0     H 1161   5.784   7.012   7.178  0.9135  0.5017  0.0654
    9MOL0     H 1162   5.624   6.862   7.301 -2.2682  0.6396  0.3516
    9MOL0     H 1163   5.540   6.974   7.210 -0.3011  0.1781  1.2260
    9MOL0     H 1164   5.559   7.118   7.445  1.7005 -0.0263 -4.0615
    9MOL0     H 1165   5.585   6.960   7.506 -0.4455 -0.5761 -1.1662
    9MOL0     H 1166   5.333   7.074   7.424  0.0809 -0.4969 -0.7382
    9MOL0     H 1167   5.360   6.924   7.340 -1.9730 -1.5828  0.5885
    9MOL0     H 1168   5.412   6.799   7.557  1.3973 -0.3142 -0.4612
    9MOL0     H 1169   5.256   6.889   7.554  0.1042 -0.1080  0.5645
    9MOL0     H 1170   6.081   7.307   6.918 -0.7731 -1.2741  1.5819
    9MOL0     H 1171   6.124   7.529   6.812 -0.4708 -1.6978  0.8072
    9MOL0     H 1172   6.493   7.888   6.698  1.8650  1.5137  0.2029
    9MOL0     H 1173   6.510   8.118   6.627  2.0168 -1.1252  1.4912
    9MOL0     H 1174   6.756  10.131   6.912 -4.5205 -5.2223 -1.6887
    9MOL0     H 1175   6.711  10.378   6.984  2.2542 -0.0056  0.2809
    9MOL0     H 1176   6.360  10.745   7.016 -0.4478 -2.1190 -0.2829
    9MOL0     H 1177   6.220  10.898   7.119 -2.8379 -1.6318  0.6317
    9MOL0     H 1178   6.031  10.952   7.229  2.9400  2.8374 -2.9275
    9MOL0     H 1179   6.138  11.091   7.265  0.9149 -0.1308  1.0307
    9MOL0     H 1180   6.041  11.093   7.501  0.6200  0.7459  0.5132
    9MOL0     H 1181   5.932  11.138   7.372 -0.4984 -2.2636 -1.8922
    9MOL0     H 1182   5.973  10.870   7.490  1.1835  1.1070  0.8004
    9MOL0     H 1183   5.829  10.905   7.398 -1.6337  2.5088  1.4568
    9MOL0     H 1184   5.869  11.076   7.639  1.2554 -0.6223 -0.1720
    9MOL0     H 1185   5.724  11.055   7.540  2.3850  5.1327 -0.2230
    9MOL0     H 1186   5.691  10.736   7.806  0.5085  0.0372  0.3481
    9MOL0     H 1187   6.255  10.680   7.488  1.5599  1.1896 -0.0664
    9MOL0     H 1188   6.377  10.502   7.356 -0.0527  0.7615  3.3285
   10MOL0     O 1189   9.670  11.274   5.575 -0.2291  0.4598 -0.4003
   10MOL0     C 1190   9.776  11.221   5.538 -0.4814  0.8734 -0.2511
   10MOL0     O 1191   9.824  11.097   5.577 -0.0983 -0.1112  0.5668
   10MOL0     C 1192   9.747  11.043   5.689  0.0958 -0.3226  1.0564
   10MOL0     C 1193   9.774  11.047   5.825 -0.1757 -0.8291  0.2635
   10MOL0     C 1194   9.693  10.991   5.925 -0.1738 -0.6135  0.4214
   10MOL0     C 1195   9.594  10.901   5.880 -0.2193  0.2754  0.6053
   10MOL0     O 1196   9.508  10.850   5.973 -0.4177 -0.9505 -1.0081
   10MOL0     C 1197   9.445  10.722   5.939 -0.1729  0.6122  0.0819
   10MOL0     C 1198   9.418  10.627   6.056 -1.1627 -0.7401 -0.7208
   10MOL0     C 1199   9.544  10.609   6.137 -0.0883 -0.6196 -1.6004
   10MOL0     C 1200   9.548  10.494   6.237 -0.3444 -0.4692  0.1259
   10MOL0     C 1201   9.458  10.508   6.360 -0.0815 -0.2915  0.3044
   10MOL0     C 1202   9.425  10.377   6.425 -1.1068  0.3867  0.4531
   10MOL0     C 1203   9.361  10.390   6.567  0.6647  0.3820 -0.2315
   10MOL0     C 1204   9.458  10.346   6.676  0.2019 -0.3470 -0.1057
   10MOL0     N 1205   9.391  10.327   6.805  0.1646  0.1579  0.5104
   10MOL0     C 1206   9.327  10.434   6.866  0.1173 -0.0051 -0.3076
   10MOL0     C 1207   9.247  10.365   6.952  0.3400  1.2544 -0.4679
   10MOL0     C 1208   9.151  10.436   7.049 -0.6378  0.1644 -0.4373
   10MOL0     C 1209   9.166  10.372   7.189  0.2409 -0.2198 -0.2484
   10MOL0     C 1210   9.049  10.276   7.219 -0.8854 -0.7089 -0.7243
   10MOL0     C 1211   9.057  10.218   7.359  0.1847  0.5424  0.1341
   10MOL0     O 1212   9.045  10.321   7.462  0.2990  0.1689 -0.5992
   10MOL0     C 1213   8.927  10.391   7.485  1.1398  0.1409 -0.3386
   10MOL0     C 1214   8.794  10.367   7.441 -0.0244 -0.5004  0.1277
   10MOL0     C 1215   8.688  10.434   7.506 -0.6350 -0.1461 -0.3610
   10MOL0     C 1216   8.701  10.545   7.584  0.0796  0.0645  0.4335
   10MOL0     C 1217   8.585  10.629   7.641  0.2954 -0.5216 -0.5210
   10MOL0     O 1218   8.472  10.566   7.615 -0.6070 -0.4413 -0.4573
   10MOL0     C 1219   8.354  10.620   7.579 -0.0543 -0.1698  0.2894
   10MOL0     C 1220   8.312  10.752   7.551 -0.5309  0.1345 -0.7506
   10MOL0     C 1221   8.178  10.780   7.520 -0.1238  0.4136 -0.7174
   10MOL0     C 1222   8.071  10.690   7.528  0.4488  0.2068 -0.6419
   10MOL0     O 1223   7.947  10.711   7.470  0.7021 -0.1920  0.5865
   10MOL0     C 1224   7.882  10.835   7.474 -0.3054 -0.7698  0.1336
   10MOL0     C 1225   7.906  10.923   7.339  0.3192  0.6374  0.7690
   10MOL0     C 1226   7.846  11.067   7.334  0.1483  0.0614 -0.8798
   10MOL0     C 1227   7.916  11.157   7.441 -0.6089 -0.5015 -0.6698
   10MOL0     C 1228   7.931  11.307   7.410  0.9813  0.2564  0.8007
   10MOL0     C 1229   7.802  11.378   7.435  0.5714  0.1572 -0.7765
   10MOL0     C 1230   7.804  11.512   7.377  0.1417 -1.1539  0.2412
   10MOL0     C 1231   7.674  11.580   7.405 -0.1789 -0.5101  0.5784
   10MOL0    Cl 1232   7.693  11.754   7.368 -0.1688  0.1240  0.1433
   10MOL0     C 1233   8.103  10.566   7.580 -0.4299 -1.1207 -0.6034
   10MOL0     C 1234   8.245  10.531   7.592  0.9420  0.5142  0.0230
   10MOL0     O 1235   8.594  10.735   7.707  0.1780  0.5167  0.3941
   10MOL0     C 1236   8.835  10.574   7.619  0.1030  1.2075 -0.1980
   10MOL0     C 1237   8.948  10.500   7.570  0.0345  0.0712 -0.1406
   10MOL0     N 1238   9.264  10.228   6.933  0.0484 -0.1180 -0.4729
   10MOL0     N 1239   9.352  10.203   6.841  0.2415  0.0345  0.6476
   10MOL0     C 1240   9.582  10.881   5.737 -0.1441  0.5738 -0.6034
   10MOL0     C 1241   9.652  10.953   5.649  0.2210 -0.6013 -0.4935
   10MOL0     C 1242   9.847  11.301   5.443  0.4914  0.6601 -0.1310
   10MOL0     C 1243   9.796  11.429   5.397 -0.3486  0.7071 -0.2570
   10MOL0     C 1244   9.870  11.501   5.298 -0.3393 -0.0009 -0.0618
   10MOL0     C 1245   9.993  11.459   5.239  1.2081  0.0113  0.3097
   10MOL0     O 1246  10.039  11.527   5.129  1.5803  0.3433 -0.4743
   10MOL0     C 1247  10.159  11.499   5.066 -0.3030 -0.4715  0.1327
   10MOL0     C 1248  10.284  11.563   5.133 -0.0534 -0.6919  0.5221
   10MOL0     C 1249  10.272  11.710   5.150  0.4751 -1.0070  1.2736
   10MOL0     C 1250  10.279  11.789   5.016  0.3539  0.2507 -0.0055
   10MOL0     C 1251  10.153  11.830   4.955 -0.3287 -0.7134  0.6171
   10MOL0     C 1252  10.057  11.871   4.897 -0.3602 -0.8283 -0.6721
   10MOL0     C 1253  10.038  11.343   5.294  0.6415 -0.9082  0.4893
   10MOL0     C 1254   9.971  11.262   5.388 -0.1970 -1.0449 -0.1961
   10MOL0     H 1255   9.855  11.119   5.840  3.0366 -4.1694  0.3912
   10MOL0     H 1256   9.701  11.020   6.029 -0.8972  4.5595 -0.7039
   10MOL0     H 1257   9.510  10.667   5.870  0.9213 -2.4132  3.2077
   10MOL0     H 1258   9.350  10.732   5.887 -1.0456  1.4927  1.7778
   10MOL0     H 1259   9.394  10.526   6.021 -1.8909 -0.6305 -0.5516
   10MOL0     H 1260   9.337  10.663   6.120  0.4498  1.7424  0.0530
   10MOL0     H 1261   9.570  10.710   6.170 -0.0932 -0.9542 -0.5159
   10MOL0     H 1262   9.616  10.582   6.060  0.9414  1.6258 -1.4987
   10MOL0     H 1263   9.517  10.404   6.183  1.4989 -1.7813  1.1239
   10MOL0     H 1264   9.653  10.487   6.267 -1.0143  0.2491  2.9560
   10MOL0     H 1265   9.359  10.546   6.332  0.0376 -1.7589 -2.3715
   10MOL0     H 1266   9.511  10.578   6.425  1.5402 -1.3802  0.2134
   10MOL0     H 1267   9.518  10.318   6.426 -1.0274  0.5147  0.7813
   10MOL0     H 1268   9.354  10.325   6.360 -0.8008 -0.0163  0.4285
   10MOL0     H 1269   9.328  10.494   6.578 -1.3848 -0.4541  3.1985
   10MOL0     H 1270   9.272  10.328   6.573  2.8698 -2.8539  2.3344
   10MOL0     H 1271   9.539  10.418   6.686 -0.9583  0.9534  0.2051
   10MOL0     H 1272   9.496  10.247   6.649  0.9115  0.2503 -1.4230
   10MOL0     H 1273   9.331  10.541   6.848  1.9216 -0.2748 -1.8581
   10MOL0     H 1274   9.046  10.432   7.019 -0.8713 -0.7254  0.4667
   10MOL0     H 1275   9.185  10.540   7.063  1.6797 -0.3499 -1.6963
   10MOL0     H 1276   9.184  10.454   7.260  0.6089  2.6136 -3.3658
   10MOL0     H 1277   9.257  10.316   7.207 -0.4060 -0.0578  5.2187
   10MOL0     H 1278   8.961  10.341   7.224 -0.7911 -0.6047 -0.3748
   10MOL0     H 1279   9.046  10.200   7.140  2.0891 -2.4705  0.6798
   10MOL0     H 1280   9.163  10.190   7.371 -0.1735 -1.0932 -0.2669
   10MOL0     H 1281   8.996  10.127   7.361  0.9081 -0.1620 -3.0410
   10MOL0     H 1282   8.783  10.292   7.364  2.4062  0.7548 -1.5860
   10MOL0     H 1283   8.595  10.396   7.464  0.0511 -2.2603 -0.0673
   10MOL0     H 1284   8.385  10.831   7.542 -0.7824  0.7012  1.5704
   10MOL0     H 1285   8.159  10.882   7.488  3.5439  3.0094  4.0391
   10MOL0     H 1286   7.909  10.878   7.570  2.3820 -1.9582 -0.0155
   10MOL0     H 1287   7.773  10.833   7.488 -0.2364  2.3361  1.8826
   10MOL0     H 1288   7.896  10.864   7.247 -0.7098  3.2900 -0.9670
   10MOL0     H 1289   8.014  10.933   7.332  0.2290  1.3573  0.2024
   10MOL0     H 1290   7.739  11.054   7.348  0.5481 -3.0483 -0.0125
   10MOL0     H 1291   7.874  11.109   7.236  1.8491  0.5428 -0.2347
   10MOL0     H 1292   7.856  11.153   7.533  0.6022  1.5931  0.2844
   10MOL0     H 1293   8.011  11.113   7.473 -0.2707  0.3381 -0.4889
   10MOL0     H 1294   7.951  11.310   7.303 -0.7885  2.0440  0.4522
   10MOL0     H 1295   8.017  11.350   7.463  1.8689 -0.9662  0.3944
   10MOL0     H 1296   7.790  11.370   7.544  3.6692  0.9544 -0.2716
   10MOL0     H 1297   7.725  11.321   7.384  0.4497  0.2956 -0.7471
   10MOL0     H 1298   7.884  11.569   7.424 -2.1434  2.0366  0.5954
   10MOL0     H 1299   7.812  11.491   7.269  0.5648 -4.0499  0.7579
   10MOL0     H 1300   7.661  11.592   7.513 -1.8523  0.1292  0.3407
   10MOL0     H 1301   7.597  11.525   7.351 -1.3646  0.7272  0.9357
   10MOL0     H 1302   8.028  10.493   7.606  1.8603 -3.0977  0.8602
   10MOL0     H 1303   8.274  10.433   7.629  0.9443  1.4293  2.6377
   10MOL0     H 1304   8.855  10.663   7.677 -0.7710  1.1333  0.2334
   10MOL0     H 1305   9.046  10.534   7.601  1.0306 -1.3994 -1.5228
   10MOL0     H 1306   9.509  10.811   5.698  3.9844 -2.1641 -4.3621
   10MOL0     H 1307   9.626  10.963   5.544  3.0739  1.5782 -1.1118
   10MOL0     H 1308   9.706  11.470   5.441 -0.3149  0.4716  0.0335
   10MOL0     H 1309   9.832  11.598   5.269 -0.3227  0.6963  2.0489
   10MOL0     H 1310  10.141  11.542   4.967 -0.2192  1.3101  0.8680
   10MOL0     H 1311  10.182  11.394   5.044  2.4195  0.2091 -0.5426
   10MOL0     H 1312  10.287  11.516   5.232 -0.3236  0.7974  1.2580
   10MOL0     H 1313  10.373  11.534   5.075 -1.1723 -1.4430 -0.8956
   10MOL0     H 1314  10.343  11.759   5.218  2.1890  1.0305 -1.7599
   10MOL0     H 1315  10.177  11.743   5.194 -1.4192 -1.6545 -2.0405
   10MOL0     H 1316  10.337  11.878   5.038  2.4914 -1.2157  0.5611
   10MOL0     H 1317  10.333  11.732   4.940 -3.6872 -1.5377 -1.8531
   10MOL0     H 1318   9.981  11.925   4.843  0.8848  2.3995  0.5396
   10MOL0     H 1319  10.131  11.313   5.246 -0.7336  0.3008 -3.3049
   10MOL0     H 1320  10.011  11.170   5.429 -1.9927 -0.6558  2.7428
   11MOL0     O 1321   3.314   3.631   7.157  0.0712 -0.2056 -0.0277
   11MOL0     C 1322   3.376   3.729   7.191  0.7358 -0.1299  0.1851
   11MOL0     O 1323   3.378   3.773   7.318 -0.9538  0.6534  0.6332
   11MOL0     C 1324   3.337   3.688   7.418  0.0267  0.1831 -0.0638
   11MOL0     C 1325   3.425   3.597   7.485  0.7458  0.4303 -0.4785
   11MOL0     C 1326   3.376   3.523   7.595  1.1860  0.5309  0.3299
   11MOL0     C 1327   3.243   3.537   7.635  0.4126 -0.3564 -1.2306
   11MOL0     O 1328   3.203   3.457   7.736  0.7945  0.2442 -0.5458
   11MOL0     C 1329   3.078   3.390   7.725 -0.1287 -0.0058  1.1291
   11MOL0     C 1330   3.074   3.271   7.630  0.1798 -0.5317 -0.4200
   11MOL0     C 1331   3.205   3.190   7.636  0.6241  0.0175  0.2500
   11MOL0     C 1332   3.208   3.048   7.587  0.9421  0.5390 -0.2640
   11MOL0     C 1333   3.337   2.978   7.626  0.1830 -0.9116 -0.2148
   11MOL0     C 1334   3.366   2.829   7.591 -0.5129  0.2162  0.6565
   11MOL0     C 1335   3.515   2.784   7.612 -0.2107  0.5313  0.3790
   11MOL0     C 1336   3.568   2.661   7.543 -0.8090  0.0585  0.1620
   11MOL0     N 1337   3.497   2.541   7.570  0.5713  1.4402  0.4333
   11MOL0     C 1338   3.533   2.421   7.618  0.0697  0.4696 -0.0194
   11MOL0     C 1339   3.426   2.351   7.649 -0.2037  0.8513 -0.4622
   11MOL0     C 1340   3.433   2.221   7.739 -0.4253  1.0768  0.1791
   11MOL0     C 1341   3.439   2.095   7.646  0.2446 -0.3333  0.3129
   11MOL0     C 1342   3.291   2.055   7.595  0.7423  0.2185 -0.8841
   11MOL0     C 1343   3.295   1.938   7.492 -0.0014 -0.5525 -0.3614
   11MOL0     O 1344   3.399   1.950   7.394 -0.2063  0.2192 -0.3785
   11MOL0     C 1345   3.396   1.846   7.300 -0.3548  0.0754 -0.0878
   11MOL0     C 1346   3.334   1.722   7.315 -0.3154  0.0730  0.6235
   11MOL0     C 1347   3.345   1.619   7.217  0.2185 -0.4378 -0.5279
   11MOL0     C 1348   3.426   1.639   7.103 -1.3352  1.2169 -0.1633
   11MOL0     C 1349   3.433   1.536   6.996  0.0682 -0.3114  0.1760
   11MOL0     O 1350   3.396   1.405   7.015 -0.6984 -0.2454 -1.0422
   11MOL0     C 1351   3.394   1.319   6.907 -1.5535  0.2229 -0.5335
   11MOL0     C 1352   3.278   1.304   6.838 -0.9479  0.3631 -0.4856
   11MOL0     C 1353   3.272   1.220   6.727 -0.0874 -0.4339  0.1874
   11MOL0     C 1354   3.386   1.151   6.682  0.2227  1.1890 -0.1806
   11MOL0     O 1355   3.359   1.077   6.570  0.0437  0.3678 -0.4354
   11MOL0     C 1356   3.451   0.973   6.524 -0.2828 -0.2978 -0.8915
   11MOL0     C 1357   3.421   0.933   6.388  0.0011 -0.2259 -0.2950
   11MOL0     C 1358   3.404   1.040   6.276  0.0988 -0.0522  0.2391
   11MOL0     C 1359   3.438   0.992   6.134  0.4270  0.5428 -1.0747
   11MOL0     C 1360   3.470   1.105   6.044  0.4085  0.2987 -0.1958
   11MOL0     C 1361   3.611   1.167   6.073  0.1162  0.0440  0.8443
   11MOL0     C 1362   3.679   1.255   5.972  0.6104 -1.7189 -0.4414
   11MOL0     C 1363   3.668   1.207   5.825 -0.0263 -0.1022  0.1482
   11MOL0    Cl 1364   3.727   1.328   5.708  0.2009 -0.6503 -0.7122
   11MOL0     C 1365   3.500   1.156   6.758  0.3453 -0.4945 -0.6490
   11MOL0     C 1366   3.502   1.232   6.874 -0.0135  0.3675  0.5134
   11MOL0     O 1367   3.487   1.581   6.889 -1.2711 -0.2157 -1.0111
   11MOL0     C 1368   3.495   1.761   7.095 -0.1935  0.3673 -1.1067
   11MOL0     C 1369   3.484   1.857   7.195 -0.5800  0.2439  0.4343
   11MOL0     N 1370   3.311   2.427   7.613  0.0183  0.6805  0.5055
   11MOL0     N 1371   3.356   2.542   7.576  0.6748  0.8504  0.1954
   11MOL0     C 1372   3.151   3.630   7.569  0.4596  0.1353  0.3397
   11MOL0     C 1373   3.199   3.710   7.465  0.1158 -0.4309 -0.1477
   11MOL0     C 1374   3.452   3.809   7.093  0.1668 -0.2782  0.4325
   11MOL0     C 1375   3.483   3.749   6.969  0.2582 -0.5977  0.0188
   11MOL0     C 1376   3.565   3.821   6.876 -0.0318  0.3920 -0.0894
   11MOL0     C 1377   3.614   3.950   6.904 -0.5412  0.3732 -0.0226
   11MOL0     O 1378   3.706   3.983   6.805  0.8073 -0.0710 -0.1254
   11MOL0     C 1379   3.760   4.113   6.821 -0.1166  0.6384  0.1072
   11MOL0     C 1380   3.871   4.133   6.716  0.0391 -0.6964  0.2390
   11MOL0     C 1381   3.807   4.129   6.573 -0.0105 -0.5182 -0.5737
   11MOL0     C 1382   3.756   4.262   6.525  0.4955  0.1581  0.9960
   11MOL0     C 1383   3.780   4.271   6.380 -0.1764 -0.0555 -0.2834
   11MOL0     C 1384   3.830   4.262   6.272 -0.3846 -0.4298  0.4018
   11MOL0     C 1385   3.562   4.016   7.015  0.7421  0.5873  0.2383
   11MOL0     C 1386   3.489   3.946   7.120 -0.9308  0.4118 -1.0025
   11MOL0     H 1387   3.526   3.578   7.451  2.1692  3.8382  1.3311
   11MOL0     H 1388   3.439   3.449   7.643 -1.4419 -2.6888 -0.8170
   11MOL0     H 1389   3.010   3.472   7.702  0.7823 -0.0449 -2.2138
   11MOL0     H 1390   3.055   3.351   7.824  0.4823 -2.3823  0.4197
   11MOL0     H 1391   3.067   3.304   7.525  3.0018 -1.1213 -0.8754
   11MOL0     H 1392   2.994   3.205   7.662 -0.6730  0.6088 -0.1351
   11MOL0     H 1393   3.231   3.198   7.742 -4.0926  3.8807  1.4746
   11MOL0     H 1394   3.280   3.241   7.575  0.0182 -0.2695 -0.7668
   11MOL0     H 1395   3.129   2.988   7.632  2.0062 -1.5834 -1.0638
   11MOL0     H 1396   3.211   3.045   7.478  2.4624  1.5251 -0.2910
   11MOL0     H 1397   3.339   2.983   7.735 -1.3736  1.1543 -0.2180
   11MOL0     H 1398   3.418   3.032   7.576  0.6693 -1.1611  0.2960
   11MOL0     H 1399   3.349   2.831   7.483  3.9752  1.1139 -0.2113
   11MOL0     H 1400   3.285   2.768   7.633 -1.9440  0.4635 -1.6062
   11MOL0     H 1401   3.577   2.871   7.586 -1.6022  2.1229  2.1139
   11MOL0     H 1402   3.530   2.762   7.718 -3.5130 -0.3380  0.7630
   11MOL0     H 1403   3.663   2.647   7.595 -1.2914  1.4399  1.5154
   11MOL0     H 1404   3.581   2.678   7.436 -0.9265 -2.9500 -0.4076
   11MOL0     H 1405   3.634   2.383   7.630 -0.4561 -0.8076  0.5424
   11MOL0     H 1406   3.345   2.211   7.804 -1.6625  1.7087 -1.3404
   11MOL0     H 1407   3.527   2.232   7.793  2.1402  2.0124 -4.0389
   11MOL0     H 1408   3.481   2.004   7.690  2.4924 -0.3541 -1.6818
   11MOL0     H 1409   3.499   2.117   7.558 -0.4674 -0.7779 -0.2918
   11MOL0     H 1410   3.220   2.020   7.671 -1.3867 -0.5456 -3.1147
   11MOL0     H 1411   3.247   2.142   7.546 -0.1324  0.1771 -0.2142
   11MOL0     H 1412   3.199   1.941   7.441  2.0129 -1.3291 -4.6591
   11MOL0     H 1413   3.311   1.845   7.547  1.4944 -1.3197 -2.0056
   11MOL0     H 1414   3.269   1.688   7.394  1.3985  1.6682  2.8531
   11MOL0     H 1415   3.283   1.531   7.230 -0.2092 -0.3009 -1.5392
   11MOL0     H 1416   3.190   1.350   6.882  0.0629  3.7321 -1.6594
   11MOL0     H 1417   3.173   1.199   6.688  0.0328 -1.1849  0.2640
   11MOL0     H 1418   3.433   0.895   6.599 -0.9635 -0.7387 -1.4989
   11MOL0     H 1419   3.550   1.018   6.537 -0.2262 -0.8619  0.9253
   11MOL0     H 1420   3.329   0.874   6.384  0.5878 -1.0831 -1.8290
   11MOL0     H 1421   3.499   0.864   6.356 -1.2836 -0.9391 -2.0619
   11MOL0     H 1422   3.469   1.126   6.297 -0.3428  0.1019  1.0571
   11MOL0     H 1423   3.302   1.081   6.274 -0.0620 -0.4604 -2.3507
   11MOL0     H 1424   3.520   0.921   6.130 -0.5798 -0.7405  0.1099
   11MOL0     H 1425   3.343   0.953   6.097  0.7628  1.1654 -2.6454
   11MOL0     H 1426   3.389   1.179   6.040  0.7625  0.6548 -2.5736
   11MOL0     H 1427   3.457   1.060   5.945 -0.6089 -1.3286  0.6520
   11MOL0     H 1428   3.673   1.077   6.068 -0.5690 -0.4645  1.4148
   11MOL0     H 1429   3.619   1.211   6.173  3.3595 -0.0615  0.7423
   11MOL0     H 1430   3.620   1.348   5.972  1.5602 -1.1035 -1.0063
   11MOL0     H 1431   3.776   1.282   6.015 -2.0190  0.7150  4.9575
   11MOL0     H 1432   3.562   1.203   5.795 -0.3699  0.6591  1.2158
   11MOL0     H 1433   3.709   1.106   5.818  0.0482 -0.1454  1.1250
   11MOL0     H 1434   3.585   1.095   6.729  2.4454  1.2536  1.4385
   11MOL0     H 1435   3.600   1.236   6.920  0.8128 -1.0103 -1.0162
   11MOL0     H 1436   3.562   1.772   7.011  1.6992  0.1267  0.3102
   11MOL0     H 1437   3.544   1.947   7.181  0.2375 -0.6729 -3.1789
   11MOL0     H 1438   3.046   3.641   7.594  0.7489 -1.3672  2.4969
   11MOL0     H 1439   3.123   3.776   7.423  0.4421 -0.0560 -0.1513
   11MOL0     H 1440   3.457   3.646   6.950 -1.7482  0.0724 -1.1378
   11MOL0     H 1441   3.586   3.785   6.776  0.7962  2.3987 -0.6719
   11MOL0     H 1442   3.802   4.125   6.922  0.0423  0.9264  0.0073
   11MOL0     H 1443   3.693   4.195   6.793  0.1121  0.8510  0.1757
   11MOL0     H 1444   3.928   4.226   6.730 -3.7174  2.3141 -2.3728
   11MOL0     H 1445   3.938   4.047   6.722 -1.5133 -1.9065  0.6089
   11MOL0     H 1446   3.730   4.054   6.556 -2.2558  1.3986  0.5512
   11MOL0     H 1447   3.890   4.105   6.506 -0.4646  1.2370 -1.8216
   11MOL0     H 1448   3.651   4.283   6.550  0.3131 -0.3960  0.7270
   11MOL0     H 1449   3.801   4.350   6.571 -0.8647  1.1222  0.5699
   11MOL0     H 1450   3.860   4.242   6.171  0.0484  1.6573  0.0740
   11MOL0     H 1451   3.585   4.117   7.048  3.4832 -0.2135  1.0237
   11MOL0     H 1452   3.466   4.001   7.211 -0.4014  1.4896 -1.4941
   12MOL0     O 1453  10.223   2.541   6.559  0.5371  0.6564  0.5463
   12MOL0     C 1454  10.278   2.433   6.552 -0.4571 -0.2536  0.7222
   12MOL0     O 1455  10.420   2.414   6.556  0.1212 -0.4978 -0.5760
   12MOL0     C 1456  10.509   2.521   6.589  0.2613 -0.0575  0.8089
   12MOL0     C 1457  10.641   2.490   6.553  0.4139  0.2764  0.4460
   12MOL0     C 1458  10.733   2.581   6.578  0.0347 -0.4966 -0.8020
   12MOL0     C 1459  10.711   2.705   6.631 -0.1160 -0.1085  0.1947
   12MOL0     O 1460  10.815   2.795   6.651  0.0108  0.3710 -0.8032
   12MOL0     C 1461  10.941   2.745   6.702 -1.1293 -0.5226  0.4393
   12MOL0     C 1462  11.018   2.877   6.745 -0.5330  0.4083  1.0003
   12MOL0     C 1463  10.983   2.919   6.890  0.1554  0.1130  0.3355
   12MOL0     C 1464  10.840   2.969   6.909  0.1488 -1.1703 -0.2955
   12MOL0     C 1465  10.801   3.091   6.822 -0.8542  0.2171 -0.1477
   12MOL0     C 1466  10.859   3.214   6.875  0.1189  0.7467  0.6381
   12MOL0     C 1467  10.791   3.340   6.814 -0.1065  0.2660  0.7738
   12MOL0     C 1468  10.795   3.466   6.913  0.7223  0.2833  0.5433
   12MOL0     N 1469  10.767   3.591   6.834  0.2083  1.0192 -0.5957
   12MOL0     C 1470  10.655   3.620   6.754  0.1608 -0.0682 -0.3806
   12MOL0     C 1471  10.689   3.736   6.696  1.2477 -0.0453  0.5580
   12MOL0     C 1472  10.611   3.799   6.585 -0.5328  0.1545 -0.0931
   12MOL0     C 1473  10.692   3.853   6.465 -0.2557 -0.3558 -0.3104
   12MOL0     C 1474  10.643   3.806   6.324  0.1480  0.1994 -0.6264
   12MOL0     C 1475  10.685   3.894   6.204  0.1704 -0.2823 -0.0179
   12MOL0     O 1476  10.814   3.855   6.163 -0.4590  0.7012  0.1383
   12MOL0     C 1477  10.856   3.914   6.047  0.4508  0.7792  0.2533
   12MOL0     C 1478  10.771   3.917   5.928 -0.6451 -0.6326 -0.4448
   12MOL0     C 1479  10.829   3.965   5.813 -0.1309 -0.1437  0.6359
   12MOL0     C 1480  10.961   4.004   5.796 -0.9415 -0.0506 -0.6984
   12MOL0     C 1481  11.012   4.013   5.658  0.3879  0.4016  0.0715
   12MOL0     O 1482  10.921   4.068   5.565 -0.3744  0.4375 -0.2753
   12MOL0     C 1483  10.975   4.108   5.451  0.6822 -0.3666  0.2505
   12MOL0     C 1484  11.033   4.015   5.369 -0.1961 -0.0781  0.8218
   12MOL0     C 1485  11.080   4.069   5.248 -0.0760  0.6492  1.1007
   12MOL0     C 1486  11.072   4.206   5.203  0.5092 -0.3041 -0.5879
   12MOL0     O 1487  11.112   4.240   5.081  0.1647 -0.3042  0.4066
   12MOL0     C 1488  10.999   4.221   4.982  0.0686 -0.9026 -0.7243
   12MOL0     C 1489  10.971   4.077   4.939 -0.9865 -0.6317 -0.0663
   12MOL0     C 1490  11.098   4.027   4.863  1.1981  0.6024 -0.4137
   12MOL0     C 1491  11.054   3.887   4.807  0.0839 -0.0581  0.9408
   12MOL0     C 1492  11.175   3.805   4.751 -0.7553  0.6313 -0.5120
   12MOL0     C 1493  11.131   3.690   4.667  0.6768  0.1290  0.0066
   12MOL0     C 1494  11.062   3.575   4.751  0.5553 -0.3445 -0.0400
   12MOL0     C 1495  11.093   3.447   4.680  0.1458 -0.5884 -0.4101
   12MOL0    Cl 1496  11.013   3.320   4.761  0.2625  0.0510  0.3401
   12MOL0     C 1497  11.009   4.296   5.286 -0.6296  0.7750 -0.1056
   12MOL0     C 1498  10.963   4.243   5.403 -0.5362  0.3031 -0.8000
   12MOL0     O 1499  11.138   4.003   5.640 -0.2202 -0.9014  0.2391
   12MOL0     C 1500  11.044   4.009   5.912  0.4008  0.1822  0.5358
   12MOL0     C 1501  10.997   3.954   6.037 -0.0387  0.8526 -0.1820
   12MOL0     N 1502  10.821   3.770   6.743 -0.1199 -0.2577  0.4395
   12MOL0     N 1503  10.861   3.686   6.830 -0.2244  0.7870  0.1516
   12MOL0     C 1504  10.580   2.737   6.678  0.0290 -0.4934  0.1563
   12MOL0     C 1505  10.473   2.642   6.652 -0.8324  0.0080  0.5400
   12MOL0     C 1506  10.190   2.312   6.513  0.0579 -1.2384  0.5770
   12MOL0     C 1507  10.252   2.191   6.480 -0.1407  0.3536 -0.6822
   12MOL0     C 1508  10.172   2.073   6.445  0.5418  0.5000  0.5455
   12MOL0     C 1509  10.027   2.088   6.432  0.2950  0.4933  0.2361
   12MOL0     O 1510   9.964   1.975   6.387 -0.6683 -0.0409 -0.2989
   12MOL0     C 1511   9.815   1.971   6.399  0.4034  0.3509 -0.0856
   12MOL0     C 1512   9.777   1.834   6.341 -0.0810 -0.6787  0.5923
   12MOL0     C 1513   9.622   1.814   6.326 -0.3916 -0.5264  0.1365
   12MOL0     C 1514   9.544   1.871   6.434  1.2613 -0.5943 -0.0729
   12MOL0     C 1515   9.561   1.820   6.568 -0.0438  0.3196  0.5883
   12MOL0     C 1516   9.554   1.747   6.673 -0.5134  0.3615  0.3101
   12MOL0     C 1517   9.960   2.209   6.466 -0.6434  0.8176  1.3884
   12MOL0     C 1518  10.046   2.321   6.498 -0.0164  0.1156  0.3923
   12MOL0     H 1519  10.661   2.396   6.501 -0.5153  1.7427 -2.8200
   12MOL0     H 1520  10.836   2.552   6.560 -0.6706 -3.1288 -1.0141
   12MOL0     H 1521  10.999   2.681   6.634  0.3173  1.9243 -0.7906
   12MOL0     H 1522  10.931   2.689   6.795 -0.2807 -3.7349 -1.2390
   12MOL0     H 1523  10.994   2.958   6.675  2.3885  0.7099  0.2046
   12MOL0     H 1524  11.126   2.864   6.759 -0.8733  0.6529  4.7009
   12MOL0     H 1525  11.041   3.003   6.930 -1.1166 -0.1140  2.8083
   12MOL0     H 1526  11.000   2.840   6.963  1.1585  0.9970  1.1078
   12MOL0     H 1527  10.763   2.901   6.871 -2.5612  1.3660  0.3213
   12MOL0     H 1528  10.819   2.980   7.015 -1.0966 -0.2002 -0.6240
   12MOL0     H 1529  10.692   3.097   6.814 -0.7047  0.7237 -3.2545
   12MOL0     H 1530  10.834   3.067   6.720 -1.5417 -1.8555  0.0748
   12MOL0     H 1531  10.965   3.204   6.848 -0.5119  0.9991 -2.2668
   12MOL0     H 1532  10.853   3.215   6.984 -0.1455 -1.0963  0.6720
   12MOL0     H 1533  10.846   3.369   6.723 -1.1296 -4.5382 -1.6873
   12MOL0     H 1534  10.685   3.317   6.801 -0.2751  1.8144 -1.1630
   12MOL0     H 1535  10.894   3.493   6.950  1.8553 -0.6636 -1.5755
   12MOL0     H 1536  10.734   3.443   7.000  1.9746  2.5013  2.0862
   12MOL0     H 1537  10.562   3.563   6.750 -1.6016  2.4796  1.2121
   12MOL0     H 1538  10.559   3.886   6.626  3.8877  3.1028 -0.0951
   12MOL0     H 1539  10.538   3.725   6.550 -0.4577 -0.0636  0.2039
   12MOL0     H 1540  10.796   3.821   6.479 -0.6143 -0.8935  1.3487
   12MOL0     H 1541  10.691   3.961   6.479  0.3877 -0.3167 -0.5518
   12MOL0     H 1542  10.683   3.705   6.312 -1.2645 -0.2791 -1.5227
   12MOL0     H 1543  10.536   3.788   6.317 -0.0048  1.2168 -1.1055
   12MOL0     H 1544  10.689   4.000   6.230 -0.1718  0.0395 -1.2075
   12MOL0     H 1545  10.612   3.895   6.123 -0.0512  1.1686  0.1701
   12MOL0     H 1546  10.667   3.889   5.930 -0.6134 -0.7088  1.4924
   12MOL0     H 1547  10.759   3.971   5.730  1.0938  2.0105 -0.3240
   12MOL0     H 1548  11.020   3.907   5.371 -1.1767 -0.0163 -0.5557
   12MOL0     H 1549  11.119   3.994   5.181  0.0847 -0.5098  2.4491
   12MOL0     H 1550  11.030   4.282   4.897 -1.9401 -0.8421 -1.4559
   12MOL0     H 1551  10.912   4.264   5.032  0.6179 -0.4485 -0.1477
   12MOL0     H 1552  10.877   4.082   4.883 -0.6609 -1.2602 -0.6757
   12MOL0     H 1553  10.951   4.016   5.028 -1.1860 -1.1448 -0.4588
   12MOL0     H 1554  11.179   4.032   4.936 -0.6288  0.6773  1.6870
   12MOL0     H 1555  11.129   4.093   4.782  1.8421  0.3341 -0.3890
   12MOL0     H 1556  10.996   3.824   4.876  2.2443 -0.3863  2.5660
   12MOL0     H 1557  10.971   3.906   4.738  1.1276  0.0425 -0.3286
   12MOL0     H 1558  11.221   3.766   4.842 -2.6278 -3.2894 -1.0332
   12MOL0     H 1559  11.245   3.882   4.717 -0.8709  1.2192  0.5291
   12MOL0     H 1560  11.217   3.644   4.616  1.2552 -0.2901  1.3030
   12MOL0     H 1561  11.056   3.718   4.593  1.1658 -0.4474 -0.7236
   12MOL0     H 1562  11.106   3.588   4.850 -0.0170  3.1917 -0.1241
   12MOL0     H 1563  10.953   3.579   4.754  0.3625 -1.6492 -2.4587
   12MOL0     H 1564  11.202   3.442   4.682  0.1920 -0.0281  2.0640
   12MOL0     H 1565  11.059   3.444   4.576 -1.2737  0.4278 -0.0045
   12MOL0     H 1566  10.990   4.399   5.256  1.3086  0.7502 -1.5800
   12MOL0     H 1567  10.905   4.315   5.460  1.1688 -0.5745  2.2968
   12MOL0     H 1568  11.140   4.057   5.901 -0.3586  2.1435  1.8384
   12MOL0     H 1569  11.059   3.920   6.120 -3.3451 -1.2861  1.6727
   12MOL0     H 1570  10.569   2.833   6.728  3.7599  0.5204 -0.6463
   12MOL0     H 1571  10.370   2.660   6.683  0.2281 -0.2090  4.8313
   12MOL0     H 1572  10.360   2.181   6.470 -0.1457  0.3713 -0.7578
   12MOL0     H 1573  10.228   1.982   6.429  0.3069  0.8571 -3.5472
   12MOL0     H 1574   9.759   2.051   6.350  0.5795  0.6845  0.2578
   12MOL0     H 1575   9.789   1.983   6.505 -0.2475  1.9350 -0.4072
   12MOL0     H 1576   9.830   1.810   6.249  0.0823  0.8805  0.2579
   12MOL0     H 1577   9.808   1.766   6.421 -0.7048 -3.0493 -1.0805
   12MOL0     H 1578   9.602   1.707   6.312 -0.2722 -0.3344 -1.8553
   12MOL0     H 1579   9.591   1.841   6.224  1.2926 -4.0922 -1.5391
   12MOL0     H 1580   9.555   1.979   6.445 -1.3573 -0.2882  0.2257
   12MOL0     H 1581   9.438   1.859   6.406  2.0495 -1.8529 -2.8669
   12MOL0     H 1582   9.561   1.684   6.759 -2.0260 -2.5952 -1.5504
   12MOL0     H 1583   9.853   2.228   6.455 -1.0409 -1.8619 -0.1711
   12MOL0     H 1584   9.997   2.416   6.520  3.4218  2.3455 -0.6623
   13MOL0     O 1585   9.225   8.932   0.221  0.7912  0.5828  0.0564
   13MOL0     C 1586   9.108   8.976   0.223  0.7949 -0.5982  0.0205
   13MOL0     O 1587   9.062   9.067   0.144  0.1649 -0.3234 -0.2055
   13MOL0     C 1588   9.123   9.082   0.023 -0.4666 -0.1707  0.7515
   13MOL0     C 1589   9.247   9.143   0.003 -0.5212  0.1742  0.0199
   13MOL0     C 1590   9.303   9.158  -0.126 -0.5129  0.4678 -0.9490
   13MOL0     C 1591   9.238   9.102  -0.236  0.6739  0.3021  0.0202
   13MOL0     O 1592   9.290   9.126  -0.353  0.1143  0.8013  0.1416
   13MOL0     C 1593   9.360   9.008  -0.406 -0.3339  0.7235 -0.1037
   13MOL0     C 1594   9.376   9.019  -0.555 -0.5758 -0.3293 -0.0755
   13MOL0     C 1595   9.466   8.914  -0.628  0.9328 -0.3051 -0.5796
   13MOL0     C 1596   9.608   8.906  -0.563  0.5706  0.5174  0.3013
   13MOL0     C 1597   9.705   8.828  -0.652 -0.4058 -0.5944  0.2576
   13MOL0     C 1598   9.674   8.679  -0.661 -0.8234 -0.2523  0.1388
   13MOL0     C 1599   9.684   8.620  -0.523  0.0655 -0.2828  0.5174
   13MOL0     C 1600   9.687   8.468  -0.511 -0.3684 -0.1252  0.1502
   13MOL0     N 1601   9.685   8.397  -0.383 -0.3331  0.1234 -0.6615
   13MOL0     C 1602   9.582   8.406  -0.286 -0.8772 -0.0162 -1.2245
   13MOL0     C 1603   9.630   8.332  -0.182 -0.3351  0.6129 -0.1081
   13MOL0     C 1604   9.556   8.320  -0.039 -0.2952 -0.1343 -0.2537
   13MOL0     C 1605   9.420   8.247  -0.074  0.2911  1.3466 -0.8386
   13MOL0     C 1606   9.335   8.199   0.050 -0.5800 -0.3545  0.9626
   13MOL0     C 1607   9.271   8.316   0.133 -0.0600 -0.2122 -0.0493
   13MOL0     O 1608   9.376   8.395   0.199  0.4912  0.6872 -0.2630
   13MOL0     C 1609   9.342   8.492   0.297  0.1824  0.1608 -0.9041
   13MOL0     C 1610   9.453   8.558   0.356  0.7318 -0.4169  0.4491
   13MOL0     C 1611   9.431   8.644   0.462  0.3738 -0.1193 -0.3899
   13MOL0     C 1612   9.311   8.660   0.525 -0.2014  0.2446 -0.0806
   13MOL0     C 1613   9.301   8.740   0.658  0.7357  0.5462 -0.6844
   13MOL0     O 1614   9.390   8.837   0.685 -0.1486 -1.3122  0.7175
   13MOL0     C 1615   9.358   8.914   0.801 -0.2723  0.3598  0.5539
   13MOL0     C 1616   9.432   8.899   0.918 -0.2835 -0.0916 -0.5161
   13MOL0     C 1617   9.405   8.984   1.032  0.1646  0.0745  0.0372
   13MOL0     C 1618   9.311   9.087   1.020  0.1948 -0.5159 -0.2353
   13MOL0     O 1619   9.298   9.171   1.126  0.5066  0.9523 -0.1367
   13MOL0     C 1620   9.170   9.243   1.136  0.0997  0.4112  0.1717
   13MOL0     C 1621   9.178   9.328   1.249  0.3913  0.7615  0.0774
   13MOL0     C 1622   9.144   9.477   1.221 -0.5225  0.0462 -0.7266
   13MOL0     C 1623   9.125   9.540   1.360  0.1122  0.1268 -0.5243
   13MOL0     C 1624   9.031   9.662   1.373  0.3024  0.3724 -0.0303
   13MOL0     C 1625   9.091   9.804   1.346 -0.2414 -0.1932 -0.3639
   13MOL0     C 1626   9.126   9.831   1.195 -0.2684 -0.0845  0.2543
   13MOL0     C 1627   9.002   9.828   1.098 -0.3054  0.0424 -0.0515
   13MOL0    Cl 1628   9.060   9.853   0.935 -0.6214 -0.2241  0.2417
   13MOL0     C 1629   9.247   9.110   0.888 -0.2177  0.3601  0.1362
   13MOL0     C 1630   9.276   9.021   0.784 -0.7355 -1.1148 -0.3469
   13MOL0     O 1631   9.202   8.715   0.722 -0.1131 -0.0619  0.7253
   13MOL0     C 1632   9.205   8.589   0.472  0.3308 -0.0757  1.1678
   13MOL0     C 1633   9.215   8.514   0.348 -0.2066 -0.1645  0.1917
   13MOL0     N 1634   9.751   8.269  -0.219  0.2882 -0.0941  0.1423
   13MOL0     N 1635   9.787   8.318  -0.337 -0.2268  0.2244  0.5608
   13MOL0     C 1636   9.102   9.057  -0.211  0.4324  0.1144  0.6862
   13MOL0     C 1637   9.047   9.046  -0.081  0.7501 -0.0161  0.4423
   13MOL0     C 1638   9.025   8.949   0.338 -0.1108 -0.0246 -0.9287
   13MOL0     C 1639   9.087   8.933   0.457 -0.0548  0.5230  0.0676
   13MOL0     C 1640   8.998   8.912   0.573 -0.4218 -0.2805 -1.3477
   13MOL0     C 1641   8.863   8.913   0.562 -0.0171 -0.5769  0.2748
   13MOL0     O 1642   8.772   8.895   0.669  0.1729  0.3354  0.1090
   13MOL0     C 1643   8.815   8.826   0.792  0.3213  1.2477  0.3584
   13MOL0     C 1644   8.858   8.927   0.899 -0.8776  0.2061  1.1260
   13MOL0     C 1645   8.870   8.864   1.041 -0.4266 -0.3344 -0.7152
   13MOL0     C 1646   8.995   8.777   1.067  0.0606  0.4407  0.3907
   13MOL0     C 1647   8.992   8.703   1.186  0.0261  0.3916 -0.1166
   13MOL0     C 1648   9.010   8.651   1.294  0.5012 -0.4646  0.3497
   13MOL0     C 1649   8.801   8.933   0.440 -0.3456 -0.1807 -0.2991
   13MOL0     C 1650   8.881   8.935   0.326  0.6318 -0.7254  0.8793
   13MOL0     H 1651   9.293   9.185   0.092 -0.2460  2.0657 -0.9679
   13MOL0     H 1652   9.390   9.220  -0.145 -0.9881  1.8525  1.0395
   13MOL0     H 1653   9.319   8.910  -0.377  0.4159  1.1492  2.7140
   13MOL0     H 1654   9.463   9.003  -0.369 -0.2965 -4.8164 -0.0161
   13MOL0     H 1655   9.419   9.119  -0.568  0.3087 -0.3376  2.3044
   13MOL0     H 1656   9.273   9.022  -0.592 -1.2426  4.7674  1.3959
   13MOL0     H 1657   9.465   8.959  -0.728 -2.4186 -2.9243 -1.9208
   13MOL0     H 1658   9.421   8.815  -0.637  3.0335 -1.4776  1.0653
   13MOL0     H 1659   9.653   9.005  -0.553 -0.9853  1.1339  1.5357
   13MOL0     H 1660   9.603   8.864  -0.462  2.5507  2.0415  1.1003
   13MOL0     H 1661   9.805   8.859  -0.623  0.1541  0.4793 -2.5016
   13MOL0     H 1662   9.687   8.877  -0.748 -3.3585 -0.2123  0.9136
   13MOL0     H 1663   9.749   8.636  -0.728  2.4203 -2.1745  4.5146
   13MOL0     H 1664   9.573   8.665  -0.699 -1.7990  3.1867  1.0861
   13MOL0     H 1665   9.775   8.654  -0.474  0.4304  0.1984 -0.4608
   13MOL0     H 1666   9.603   8.655  -0.459  0.9432 -2.8914  3.2787
   13MOL0     H 1667   9.763   8.429  -0.579 -0.5667  1.2216 -0.8993
   13MOL0     H 1668   9.596   8.433  -0.562 -0.6489  0.3841  0.2936
   13MOL0     H 1669   9.493   8.467  -0.278 -0.6592  0.2076 -0.4367
   13MOL0     H 1670   9.526   8.415   0.005 -0.7020 -1.5886  2.8409
   13MOL0     H 1671   9.619   8.274   0.038 -1.0899 -3.5234 -1.4522
   13MOL0     H 1672   9.441   8.171  -0.149 -2.6217  1.9714 -2.4567
   13MOL0     H 1673   9.348   8.320  -0.113 -2.3277 -0.3661  0.5735
   13MOL0     H 1674   9.260   8.144  -0.008  0.1813 -1.3406  0.8811
   13MOL0     H 1675   9.393   8.135   0.117  0.6487 -1.3227 -0.9379
   13MOL0     H 1676   9.193   8.271   0.194  0.1258  1.0102  1.1240
   13MOL0     H 1677   9.235   8.389   0.060 -1.9422  3.2676  3.9467
   13MOL0     H 1678   9.553   8.538   0.319 -0.0027  0.7126 -2.3882
   13MOL0     H 1679   9.512   8.697   0.509  1.0500 -0.4893 -1.1162
   13MOL0     H 1680   9.510   8.824   0.924 -0.8927 -0.6619  0.6544
   13MOL0     H 1681   9.450   8.963   1.128 -3.8744 -3.1731  1.4947
   13MOL0     H 1682   9.080   9.183   1.146 -2.1692  3.8726  3.0092
   13MOL0     H 1683   9.154   9.307   1.049  0.3592 -1.5108 -1.3538
   13MOL0     H 1684   9.279   9.322   1.290  0.2289  0.8160  0.4984
   13MOL0     H 1685   9.096   9.290   1.310  0.8458  1.5422  1.2164
   13MOL0     H 1686   9.053   9.496   1.163  0.1840  1.5654 -1.3951
   13MOL0     H 1687   9.225   9.514   1.158  3.1216 -3.3711  1.5207
   13MOL0     H 1688   9.081   9.472   1.433  0.3722 -0.1846 -0.6552
   13MOL0     H 1689   9.225   9.549   1.402  1.2296  0.2663 -3.0001
   13MOL0     H 1690   8.993   9.668   1.476 -1.4716  1.5809 -0.7016
   13MOL0     H 1691   8.941   9.648   1.312  1.1034 -1.4834 -0.8574
   13MOL0     H 1692   9.189   9.800   1.394 -0.1082 -1.6340 -0.7103
   13MOL0     H 1693   9.025   9.875   1.397  1.6815  1.6639 -0.3254
   13MOL0     H 1694   9.177   9.925   1.175  0.7121 -0.5006  0.7307
   13MOL0     H 1695   9.198   9.755   1.163 -0.5500  0.1463 -0.9685
   13MOL0     H 1696   8.917   9.889   1.129 -2.8445 -3.1681 -0.1517
   13MOL0     H 1697   8.959   9.727   1.101 -0.6297  0.2068  1.7810
   13MOL0     H 1698   9.187   9.200   0.877  0.1099  0.6659  0.7662
   13MOL0     H 1699   9.254   9.070   0.689  1.2469  0.3943 -0.0903
   13MOL0     H 1700   9.103   8.595   0.510 -1.8847 -0.4593 -3.8966
   13MOL0     H 1701   9.121   8.479   0.308 -1.5686  0.3547  2.7197
   13MOL0     H 1702   9.047   9.033  -0.302  4.0745 -0.2494 -1.6014
   13MOL0     H 1703   8.943   9.024  -0.059 -0.0677 -1.9040 -4.1522
   13MOL0     H 1704   9.193   8.940   0.476 -0.4556 -1.3812  3.9032
   13MOL0     H 1705   9.049   8.913   0.669 -0.6660  3.2799 -1.1088
   13MOL0     H 1706   8.892   8.752   0.768 -0.2745  0.7711 -0.0845
   13MOL0     H 1707   8.732   8.767   0.831 -0.8541  2.8542  0.3809
   13MOL0     H 1708   8.962   8.955   0.879 -1.2882 -0.9066 -3.6183
   13MOL0     H 1709   8.798   9.018   0.907 -1.1688  0.0332  0.9404
   13MOL0     H 1710   8.777   8.811   1.062  2.5299 -5.3480  1.2374
   13MOL0     H 1711   8.884   8.946   1.112  0.4814 -2.1785  1.3553
   13MOL0     H 1712   9.021   8.722   0.976  0.2766  4.0426 -1.9243
   13MOL0     H 1713   9.083   8.841   1.074 -0.1198  0.9799 -1.6031
   13MOL0     H 1714   9.038   8.607   1.387  0.5268 -1.4620 -0.1229
   13MOL0     H 1715   8.693   8.941   0.436 -0.3708 -0.0729  0.5085
   13MOL0     H 1716   8.833   8.957   0.231 -0.5598 -2.5948  0.9963
   14MOL0     O 1717   3.440   2.458  10.505  0.1145  0.1971  0.8493
   14MOL0     C 1718   3.461   2.565  10.560  0.0230 -0.4457  0.3702
   14MOL0     O 1719   3.533   2.581  10.670  0.6727 -0.6835 -0.2615
   14MOL0     C 1720   3.544   2.467  10.748  0.0256 -0.6723  0.0762
   14MOL0     C 1721   3.451   2.440  10.835  0.9494 -0.3598 -0.0066
   14MOL0     C 1722   3.460   2.322  10.914 -0.1932 -0.4905  0.0865
   14MOL0     C 1723   3.555   2.224  10.889  0.2081 -0.6668 -0.4146
   14MOL0     O 1724   3.559   2.106  10.953  0.4308  0.0107  0.5739
   14MOL0     C 1725   3.433   2.053  10.992  0.2971  0.5523  0.4898
   14MOL0     C 1726   3.449   1.898  11.017 -0.3177 -0.8546  0.4609
   14MOL0     C 1727   3.547   1.865  11.140  0.9996  0.6073  0.6700
   14MOL0     C 1728   3.690   1.830  11.108 -0.4089 -0.2810  0.3335
   14MOL0     C 1729   3.711   1.694  11.048  0.1659 -0.0326 -0.3899
   14MOL0     C 1730   3.855   1.660  11.060 -0.5201  0.2465 -0.3394
   14MOL0     C 1731   3.887   1.506  11.032 -0.4941  0.4548 -0.6710
   14MOL0     C 1732   4.024   1.448  11.039 -0.5587  0.2744  0.2208
   14MOL0     N 1733   4.109   1.497  10.933  0.3090  0.1735 -0.2304
   14MOL0     C 1734   4.156   1.432  10.820 -0.0655 -0.2731  0.3477
   14MOL0     C 1735   4.246   1.518  10.770 -0.5657 -0.6833 -0.0866
   14MOL0     C 1736   4.316   1.485  10.641  0.4945 -0.0718 -0.5726
   14MOL0     C 1737   4.296   1.613  10.541 -0.3908  0.2439 -0.9823
   14MOL0     C 1738   4.155   1.617  10.470 -0.4264 -0.1477 -0.2119
   14MOL0     C 1739   4.136   1.759  10.410 -0.4604  0.1310  0.2846
   14MOL0     O 1740   4.234   1.776  10.306 -0.2577  0.9203  0.1802
   14MOL0     C 1741   4.205   1.860  10.200  0.8489 -0.1814 -0.2709
   14MOL0     C 1742   4.111   1.964  10.196  0.1221  0.3475  0.1458
   14MOL0     C 1743   4.089   2.040  10.076 -0.4381 -0.9299 -0.5964
   14MOL0     C 1744   4.165   2.014   9.966 -0.5395 -0.3291  1.1957
   14MOL0     C 1745   4.135   2.104   9.846  0.1691 -0.2467  0.5773
   14MOL0     O 1746   4.146   2.047   9.724 -0.8884  0.4329  0.1097
   14MOL0     C 1747   4.140   2.127   9.614 -1.6020 -1.1070 -0.4143
   14MOL0     C 1748   4.254   2.128   9.529 -0.4931  0.5075 -0.7950
   14MOL0     C 1749   4.259   2.191   9.405  0.1527 -0.2506 -0.3091
   14MOL0     C 1750   4.143   2.256   9.359 -0.8933 -0.3259 -1.3634
   14MOL0     O 1751   4.130   2.320   9.238  0.6171 -0.1713 -0.5381
   14MOL0     C 1752   4.252   2.375   9.177 -0.3522 -0.3719  0.1950
   14MOL0     C 1753   4.190   2.455   9.053  0.9728 -0.2093 -1.1226
   14MOL0     C 1754   4.290   2.472   8.936 -1.1579  0.9057  0.4204
   14MOL0     C 1755   4.226   2.565   8.822 -0.4877 -0.0547  0.4104
   14MOL0     C 1756   4.088   2.537   8.764  1.0874  0.8270 -0.3834
   14MOL0     C 1757   4.081   2.408   8.678  0.9080  0.4325  0.3390
   14MOL0     C 1758   4.135   2.415   8.536 -0.0099 -0.1625  0.1520
   14MOL0     C 1759   4.124   2.277   8.466  0.0419  0.0758  0.6842
   14MOL0    Cl 1760   4.236   2.165   8.541 -0.0736 -0.5441 -0.3249
   14MOL0     C 1761   4.025   2.255   9.444 -0.3048  0.8892  0.3333
   14MOL0     C 1762   4.027   2.184   9.561  1.6560 -0.5602 -0.7169
   14MOL0     O 1763   4.128   2.227   9.868  0.2137 -1.3757  0.1172
   14MOL0     C 1764   4.263   1.914   9.966 -0.2600 -0.7111  0.1867
   14MOL0     C 1765   4.284   1.846  10.084  0.4271 -0.2652  0.0828
   14MOL0     N 1766   4.250   1.638  10.845 -1.2697  0.6475  0.0286
   14MOL0     N 1767   4.159   1.616  10.943  0.4276  0.3312 -0.0060
   14MOL0     C 1768   3.655   2.254  10.792 -0.4236  0.6127  0.6735
   14MOL0     C 1769   3.645   2.373  10.724 -0.1088 -0.3949  0.7312
   14MOL0     C 1770   3.404   2.689  10.492 -0.2371  1.1695 -0.3102
   14MOL0     C 1771   3.427   2.821  10.525 -0.0984  0.1617  0.4268
   14MOL0     C 1772   3.353   2.926  10.471 -0.1095  0.0921 -0.4041
   14MOL0     C 1773   3.249   2.914  10.378  0.8297  0.4941  0.2729
   14MOL0     O 1774   3.183   3.014  10.310 -0.2725 -0.2386 -0.8735
   14MOL0     C 1775   3.159   3.130  10.391 -0.1664 -0.3454 -0.7270
   14MOL0     C 1776   3.012   3.164  10.346 -0.4126 -1.0497  0.7172
   14MOL0     C 1777   3.040   3.219  10.203  0.5807 -0.7012 -0.7179
   14MOL0     C 1778   2.904   3.240  10.123 -0.7808  0.2142 -0.5025
   14MOL0     C 1779   2.917   3.265   9.981  1.3748 -0.6497 -0.3866
   14MOL0     C 1780   2.926   3.277   9.864 -0.5699 -0.1102  0.1916
   14MOL0     C 1781   3.225   2.778  10.345  0.2960  0.1349 -0.1248
   14MOL0     C 1782   3.301   2.671  10.396 -0.9226 -0.0411  0.0438
   14MOL0     H 1783   3.365   2.505  10.847  0.1524 -1.0094 -1.7968
   14MOL0     H 1784   3.374   2.305  10.979 -0.4402  0.7733  0.1155
   14MOL0     H 1785   3.361   2.060  10.910  1.5643  3.1493 -0.5369
   14MOL0     H 1786   3.397   2.112  11.076  0.5773  0.0536  0.9643
   14MOL0     H 1787   3.474   1.847  10.924  3.3290  0.1353  0.7264
   14MOL0     H 1788   3.350   1.864  11.050 -0.4721  0.7397  1.7712
   14MOL0     H 1789   3.506   1.785  11.204 -3.5877  0.6943 -1.7493
   14MOL0     H 1790   3.550   1.955  11.201  0.9742 -0.4748  2.3567
   14MOL0     H 1791   3.721   1.911  11.041 -3.0902 -0.4975 -1.2978
   14MOL0     H 1792   3.743   1.846  11.202  1.2792  2.4292 -0.9360
   14MOL0     H 1793   3.688   1.698  10.941 -1.6230 -0.9809 -0.0721
   14MOL0     H 1794   3.644   1.623  11.096  0.0755  1.6577  2.2070
   14MOL0     H 1795   3.890   1.687  11.160  1.0602 -1.0903 -0.4880
   14MOL0     H 1796   3.905   1.732  10.994 -2.2297  0.7843 -1.1118
   14MOL0     H 1797   3.825   1.451  11.103  1.3846 -0.0141  0.6917
   14MOL0     H 1798   3.838   1.483  10.937  1.0285 -3.8325 -0.6375
   14MOL0     H 1799   4.017   1.338  11.036 -0.4038  0.1863  2.0520
   14MOL0     H 1800   4.063   1.474  11.137  2.1734 -0.9308 -0.4636
   14MOL0     H 1801   4.134   1.331  10.786 -2.3538 -0.2589  1.5529
   14MOL0     H 1802   4.272   1.396  10.595 -0.9479 -0.8391  2.0800
   14MOL0     H 1803   4.421   1.457  10.658  0.0374 -0.4346  2.0743
   14MOL0     H 1804   4.372   1.606  10.463  1.3519 -0.5709  0.7321
   14MOL0     H 1805   4.303   1.705  10.600 -0.8789 -2.1285  3.0885
   14MOL0     H 1806   4.141   1.533  10.402  0.0771 -0.3962 -0.0086
   14MOL0     H 1807   4.083   1.609  10.552 -0.5070 -0.6956 -0.3340
   14MOL0     H 1808   4.147   1.831  10.491 -2.8820  2.5610 -1.3222
   14MOL0     H 1809   4.031   1.771  10.380 -1.3963 -1.3181  2.6713
   14MOL0     H 1810   4.064   1.988  10.291  2.1648 -2.0361  1.9002
   14MOL0     H 1811   4.016   2.120  10.073 -0.1071 -0.5699  0.7039
   14MOL0     H 1812   4.334   2.072   9.576  0.0340  0.5113 -1.6715
   14MOL0     H 1813   4.349   2.191   9.344 -0.3986  2.5853 -1.2348
   14MOL0     H 1814   4.323   2.300   9.142 -0.2063 -0.6864  1.1569
   14MOL0     H 1815   4.296   2.431   9.260 -1.6393  0.4186  0.3898
   14MOL0     H 1816   4.158   2.550   9.097  3.3295  0.0032  0.3724
   14MOL0     H 1817   4.114   2.383   9.022  1.1684 -0.8386 -0.1915
   14MOL0     H 1818   4.324   2.381   8.887 -1.1132  1.6191 -0.9056
   14MOL0     H 1819   4.374   2.525   8.983 -1.4373 -1.0947  3.4736
   14MOL0     H 1820   4.224   2.662   8.873 -1.0557 -1.1959  2.6755
   14MOL0     H 1821   4.289   2.552   8.733  2.3904 -0.3200  2.3745
   14MOL0     H 1822   4.046   2.618   8.703 -1.9363 -0.3194  0.0062
   14MOL0     H 1823   4.025   2.525   8.853 -0.0740 -1.4361 -1.4263
   14MOL0     H 1824   3.975   2.398   8.655  0.9336 -0.4085  0.5686
   14MOL0     H 1825   4.126   2.331   8.741  1.5035  2.9858  3.2812
   14MOL0     H 1826   4.086   2.493   8.477 -0.3327  0.2253  0.9147
   14MOL0     H 1827   4.241   2.440   8.535  0.4202 -1.2914 -4.5327
   14MOL0     H 1828   4.147   2.280   8.360  1.6047 -1.7418  0.9162
   14MOL0     H 1829   4.019   2.248   8.482  0.4651 -1.2012  1.2896
   14MOL0     H 1830   3.928   2.295   9.415 -0.7809  0.2900  1.0423
   14MOL0     H 1831   3.934   2.164   9.613  0.6212 -0.4119 -2.4296
   14MOL0     H 1832   4.322   1.908   9.875 -1.0841  1.3261 -0.5455
   14MOL0     H 1833   4.376   1.790  10.089  0.7038  0.2878  1.6300
   14MOL0     H 1834   3.728   2.183  10.755 -0.1305 -0.6188  3.3374
   14MOL0     H 1835   3.720   2.412  10.656 -0.2628  0.9235  1.2837
   14MOL0     H 1836   3.504   2.851  10.595  1.4951 -1.7708 -0.3960
   14MOL0     H 1837   3.363   3.029  10.504  2.3727 -0.4530  0.8440
   14MOL0     H 1838   3.224   3.209  10.355  3.3672 -3.8912 -3.0037
   14MOL0     H 1839   3.159   3.123  10.500  1.3058  0.1394 -0.6785
   14MOL0     H 1840   2.939   3.083  10.336  1.7963 -2.8410 -3.4900
   14MOL0     H 1841   2.975   3.237  10.418  1.7449  0.6033  0.2700
   14MOL0     H 1842   3.091   3.147  10.138  1.6983  0.2315 -0.9023
   14MOL0     H 1843   3.102   3.309  10.201  1.6118 -1.3951 -0.8975
   14MOL0     H 1844   2.845   3.149  10.131 -2.5199  1.3028 -0.5966
   14MOL0     H 1845   2.844   3.318  10.171  1.5152  1.2890  0.7973
   14MOL0     H 1846   2.941   3.272   9.758 -1.0729  0.2304  0.1040
   14MOL0     H 1847   3.153   2.745  10.271 -1.3388 -0.9770  1.8721
   14MOL0     H 1848   3.286   2.570  10.361  3.0609 -0.0007 -2.3640
   15MOL0     O 1849   9.820   8.611   2.583  0.8602 -0.7262 -0.0021
   15MOL0     C 1850   9.699   8.613   2.589  0.3715 -0.6429  1.2111
   15MOL0     O 1851   9.623   8.544   2.673  0.2649  0.7218 -0.0298
   15MOL0     C 1852   9.670   8.411   2.683 -0.9776  0.3160 -0.5781
   15MOL0     C 1853   9.762   8.367   2.776 -0.0044  0.0829 -0.3343
   15MOL0     C 1854   9.806   8.235   2.758 -0.4812  0.1283 -0.6546
   15MOL0     C 1855   9.767   8.147   2.662  0.6524 -0.7200  0.3521
   15MOL0     O 1856   9.809   8.018   2.651 -0.4818 -0.0556  0.2067
   15MOL0     C 1857   9.858   7.959   2.777  0.1963  0.2206  0.9548
   15MOL0     C 1858   9.866   7.811   2.766 -0.2116  0.5431 -0.0154
   15MOL0     C 1859   9.980   7.772   2.670  0.0224  0.3555 -0.2619
   15MOL0     C 1860  10.025   7.625   2.695 -0.6529 -1.4914  0.7532
   15MOL0     C 1861  10.150   7.584   2.623 -1.0504 -0.7974 -0.1046
   15MOL0     C 1862  10.185   7.438   2.601 -0.6637 -0.3650  0.4407
   15MOL0     C 1863  10.315   7.416   2.518  0.5878 -0.0131 -0.3192
   15MOL0     C 1864  10.355   7.272   2.510  0.5759  0.6719 -0.5899
   15MOL0     N 1865  10.401   7.213   2.639 -0.3479  0.5471 -0.9333
   15MOL0     C 1866  10.427   7.277   2.760 -1.4744 -0.4841 -1.4992
   15MOL0     C 1867  10.486   7.177   2.836  1.1730 -0.4748  0.9585
   15MOL0     C 1868  10.544   7.191   2.971  0.2085  0.4749  0.3222
   15MOL0     C 1869  10.681   7.262   2.980  0.2523 -0.8210  0.4475
   15MOL0     C 1870  10.669   7.414   2.969 -0.0166  0.4968  0.1895
   15MOL0     C 1871  10.799   7.483   2.997 -0.1592  1.1920  0.2160
   15MOL0     O 1872  10.797   7.616   2.951  0.0465  0.4340  0.4821
   15MOL0     C 1873  10.838   7.637   2.822  0.4482 -0.2620  0.9670
   15MOL0     C 1874  10.745   7.704   2.733 -0.0663  0.3076 -1.2697
   15MOL0     C 1875  10.774   7.726   2.597  0.1389 -0.0491 -0.1200
   15MOL0     C 1876  10.884   7.678   2.539  0.3705 -0.6274 -1.0324
   15MOL0     C 1877  10.917   7.706   2.397 -0.1014 -0.7289  0.1682
   15MOL0     O 1878  11.048   7.694   2.363 -0.2389  0.0375 -0.8206
   15MOL0     C 1879  11.077   7.732   2.234  0.9541 -0.0570  0.1651
   15MOL0     C 1880  11.091   7.871   2.212  0.4389  0.3468 -0.6265
   15MOL0     C 1881  11.132   7.917   2.093  0.7089 -0.1990  0.5026
   15MOL0     C 1882  11.129   7.833   1.982  0.2111  0.1202  0.0575
   15MOL0     O 1883  11.160   7.887   1.855 -0.5350  0.8361 -0.5329
   15MOL0     C 1884  11.258   7.982   1.843  0.0359 -1.8679  0.0644
   15MOL0     C 1885  11.386   7.911   1.857  0.9073  0.4941  0.3779
   15MOL0     C 1886  11.507   7.984   1.819  0.1636  0.0384  0.8645
   15MOL0     C 1887  11.637   7.904   1.833 -0.4841  0.2029  0.8540
   15MOL0     C 1888  11.749   7.984   1.762  0.1941  0.3068  0.3969
   15MOL0     C 1889  11.803   8.106   1.836 -0.5902  0.3340  0.9495
   15MOL0     C 1890  11.951   8.131   1.787  0.6160  0.2969  0.2266
   15MOL0     C 1891  12.052   8.087   1.883 -0.8448 -0.2288  0.0886
   15MOL0    Cl 1892  12.025   7.919   1.949  0.1781  0.1180  0.3255
   15MOL0     C 1893  11.110   7.698   2.001 -0.3732 -0.0672  0.0553
   15MOL0     C 1894  11.085   7.641   2.121  0.4649 -0.8825  0.0859
   15MOL0     O 1895  10.833   7.774   2.338 -0.1351 -0.6936 -0.2917
   15MOL0     C 1896  10.974   7.605   2.624 -0.2132  0.9609  0.0443
   15MOL0     C 1897  10.955   7.591   2.759 -0.1252 -0.0328 -1.4978
   15MOL0     N 1898  10.499   7.061   2.755 -0.4541  0.2300  0.0529
   15MOL0     N 1899  10.440   7.084   2.646  0.0559 -0.6648  0.4234
   15MOL0     C 1900   9.675   8.197   2.571  0.6865  0.0552 -0.2886
   15MOL0     C 1901   9.614   8.325   2.586 -0.0986  0.2070  0.1802
   15MOL0     C 1902   9.641   8.724   2.520  0.6903 -0.2427  0.0901
   15MOL0     C 1903   9.671   8.765   2.386 -0.4659 -0.5145 -0.7493
   15MOL0     C 1904   9.595   8.867   2.330  0.1573 -0.5901  0.1698
   15MOL0     C 1905   9.487   8.927   2.386 -0.0743 -0.5814  0.7909
   15MOL0     O 1906   9.418   9.038   2.331  0.4496  0.6450 -0.2923
   15MOL0     C 1907   9.396   9.037   2.187 -0.0984  0.5305 -0.0538
   15MOL0     C 1908   9.386   9.180   2.140 -0.1107 -0.0682  0.1635
   15MOL0     C 1909   9.305   9.273   2.225 -1.2197 -1.0517  0.1159
   15MOL0     C 1910   9.278   9.399   2.144 -0.1192 -0.9088  0.8479
   15MOL0     C 1911   9.196   9.481   2.228 -0.1787 -0.7980 -0.5670
   15MOL0     C 1912   9.115   9.533   2.299 -0.5826 -0.3522  1.0209
   15MOL0     C 1913   9.454   8.880   2.514  0.1373  0.6203  0.1762
   15MOL0     C 1914   9.542   8.801   2.586  0.0004 -0.2557  0.6896
   15MOL0     H 1915   9.792   8.437   2.853 -1.1133  0.1113  0.0842
   15MOL0     H 1916   9.883   8.207   2.828  2.1324 -1.2307 -3.8180
   15MOL0     H 1917   9.800   7.990   2.864  0.8846  2.5792  0.6550
   15MOL0     H 1918   9.959   7.997   2.792  0.6122  0.9778 -2.6656
   15MOL0     H 1919   9.776   7.770   2.718  1.7906 -1.2040 -2.5578
   15MOL0     H 1920   9.888   7.775   2.867  4.4701  2.4650 -0.1340
   15MOL0     H 1921  10.058   7.847   2.688  0.3678  0.1269 -0.7915
   15MOL0     H 1922   9.956   7.783   2.564 -4.3626  2.4561  0.6911
   15MOL0     H 1923  10.056   7.617   2.800  0.0153  0.2451  0.7263
   15MOL0     H 1924   9.948   7.553   2.667  0.3496 -1.9579 -0.9186
   15MOL0     H 1925  10.228   7.633   2.682 -1.6899  0.5237 -0.3000
   15MOL0     H 1926  10.152   7.639   2.528 -0.7290  0.8765  0.8350
   15MOL0     H 1927  10.106   7.379   2.552 -0.2459 -0.1530 -0.4968
   15MOL0     H 1928  10.203   7.399   2.702 -1.1810 -2.8304 -0.3471
   15MOL0     H 1929  10.284   7.441   2.416  0.1288 -0.3674 -0.2671
   15MOL0     H 1930  10.396   7.478   2.559 -0.2291  1.9518 -1.5162
   15MOL0     H 1931  10.430   7.259   2.430  0.5379 -0.7761 -0.4161
   15MOL0     H 1932  10.268   7.216   2.474 -0.0601  0.6365  0.9518
   15MOL0     H 1933  10.410   7.378   2.794 -1.2930 -0.9664  0.0836
   15MOL0     H 1934  10.559   7.084   2.991  2.1128 -0.3258 -4.1056
   15MOL0     H 1935  10.473   7.237   3.040  3.2309  2.0209  2.6066
   15MOL0     H 1936  10.750   7.228   2.902  0.2368 -2.1675  0.9901
   15MOL0     H 1937  10.724   7.239   3.078  0.9013 -2.3568 -0.1445
   15MOL0     H 1938  10.634   7.437   2.868  1.3170 -0.0823 -0.4241
   15MOL0     H 1939  10.594   7.446   3.041 -0.9926  2.4987 -1.5935
   15MOL0     H 1940  10.890   7.440   2.954 -1.3017 -1.5112  0.3068
   15MOL0     H 1941  10.798   7.475   3.106  1.2480  0.6194  0.2107
   15MOL0     H 1942  10.644   7.724   2.769 -0.0646 -0.5459 -0.7586
   15MOL0     H 1943  10.711   7.790   2.535  1.8215  1.0990 -0.7279
   15MOL0     H 1944  11.064   7.931   2.298 -1.8215 -2.6039  0.9305
   15MOL0     H 1945  11.159   8.021   2.081  2.5944 -0.9113 -2.9870
   15MOL0     H 1946  11.259   8.062   1.919 -2.0346 -0.8512 -0.8900
   15MOL0     H 1947  11.245   8.036   1.749 -0.2059 -2.5818 -0.3198
   15MOL0     H 1948  11.377   7.827   1.788  2.8682  0.1221  0.5025
   15MOL0     H 1949  11.394   7.857   1.952  1.2774 -0.4120 -0.1594
   15MOL0     H 1950  11.506   8.071   1.886 -0.6093  1.1531 -0.5254
   15MOL0     H 1951  11.495   8.016   1.715 -0.7077  2.7939  1.7255
   15MOL0     H 1952  11.658   7.892   1.940 -2.6087  3.8207  1.8079
   15MOL0     H 1953  11.638   7.802   1.792 -1.0840 -0.0593  1.4737
   15MOL0     H 1954  11.722   8.033   1.668  1.4970 -0.5523 -0.4496
   15MOL0     H 1955  11.833   7.916   1.748  2.5428  2.8197  1.2516
   15MOL0     H 1956  11.793   8.085   1.943  0.0198 -0.1662  0.9101
   15MOL0     H 1957  11.766   8.206   1.809  2.2569  1.3870  0.6121
   15MOL0     H 1958  11.961   8.071   1.696 -2.5559  0.9627 -0.6612
   15MOL0     H 1959  11.978   8.233   1.761  4.8219 -1.2855 -2.8491
   15MOL0     H 1960  12.076   8.158   1.962  3.4101 -0.0333 -1.1248
   15MOL0     H 1961  12.151   8.076   1.838 -0.6845 -1.5517  0.7136
   15MOL0     H 1962  11.138   7.637   1.915 -1.9187  1.2022 -1.4276
   15MOL0     H 1963  11.093   7.533   2.137  1.5260 -1.8216 -5.0454
   15MOL0     H 1964  11.070   7.581   2.577 -0.7700 -0.1541 -0.5802
   15MOL0     H 1965  11.029   7.539   2.819 -1.3522  0.4445  0.5165
   15MOL0     H 1966   9.639   8.126   2.497 -2.6272  1.8834 -0.6134
   15MOL0     H 1967   9.540   8.365   2.518  1.0699 -1.0458 -1.9585
   15MOL0     H 1968   9.759   8.724   2.338 -0.8816 -3.6021  0.8699
   15MOL0     H 1969   9.621   8.888   2.226  0.4271 -5.2325 -0.9391
   15MOL0     H 1970   9.299   8.988   2.180  1.0961 -1.8863 -0.8251
   15MOL0     H 1971   9.468   8.980   2.129 -1.9551 -0.2408 -1.7051
   15MOL0     H 1972   9.480   9.231   2.115 -0.5608 -0.4701 -2.6092
   15MOL0     H 1973   9.333   9.168   2.046  0.8933 -2.4639 -0.1794
   15MOL0     H 1974   9.366   9.302   2.311 -0.7975  1.2830 -0.8808
   15MOL0     H 1975   9.211   9.227   2.255 -0.8993 -1.4773  0.4869
   15MOL0     H 1976   9.369   9.453   2.116 -2.4413  1.2442 -3.5651
   15MOL0     H 1977   9.227   9.373   2.051 -0.0188 -1.4263  0.9381
   15MOL0     H 1978   9.050   9.575   2.373 -1.3821 -3.6127  2.3106
   15MOL0     H 1979   9.357   8.905   2.556 -1.0950 -2.9907 -0.1849
   15MOL0     H 1980   9.518   8.787   2.691  0.9797 -0.6274  0.8756
   16MOL0     O 1981   8.230   9.517   8.729  0.3450  0.7893  0.5273
   16MOL0     C 1982   8.328   9.569   8.783  1.0161 -1.1160 -0.4466
   16MOL0     O 1983   8.320   9.690   8.854 -0.3710  0.1638 -0.1380
   16MOL0     C 1984   8.203   9.760   8.880 -0.7607  1.0384 -0.1299
   16MOL0     C 1985   8.111   9.690   8.955 -0.2476  1.1382 -0.7631
   16MOL0     C 1986   7.995   9.768   8.987  0.4835  0.9832  0.2333
   16MOL0     C 1987   7.977   9.890   8.927 -0.9461 -0.3680 -0.0365
   16MOL0     O 1988   7.867   9.975   8.941  0.1846  0.4685  0.6596
   16MOL0     C 1989   7.729   9.920   8.910 -1.0202  0.1812  0.5951
   16MOL0     C 1990   7.637  10.016   8.986  0.2699  0.0380  0.0085
   16MOL0     C 1991   7.680  10.039   9.126 -0.7794 -0.9305  0.3642
   16MOL0     C 1992   7.567  10.082   9.211  0.3414  0.2531 -0.7647
   16MOL0     C 1993   7.601  10.185   9.330  1.0133 -0.0600  0.9803
   16MOL0     C 1994   7.623  10.319   9.278 -0.4077 -0.1910 -0.1651
   16MOL0     C 1995   7.637  10.416   9.395  0.0983  0.1264 -0.0169
   16MOL0     C 1996   7.625  10.558   9.337  0.0243 -0.0091  0.5846
   16MOL0     N 1997   7.505  10.577   9.261 -0.3942  0.7214 -0.9483
   16MOL0     C 1998   7.492  10.577   9.128 -1.0732 -0.1837  0.2005
   16MOL0     C 1999   7.370  10.627   9.107  1.0490 -0.2383 -0.7205
   16MOL0     C 2000   7.311  10.670   8.976  0.0147 -0.7718  0.1225
   16MOL0     C 2001   7.165  10.708   8.995 -0.2483  1.1110 -0.5038
   16MOL0     C 2002   7.064  10.595   9.035 -0.1704 -0.3360  0.9490
   16MOL0     C 2003   7.098  10.471   8.953  0.4018  0.3150  0.5578
   16MOL0     O 2004   7.011  10.355   8.975  0.5721 -0.5213  0.5140
   16MOL0     C 2005   6.909  10.345   8.889  0.9409 -0.9576 -0.6927
   16MOL0     C 2006   6.857  10.220   8.884 -1.3716  0.6054 -0.0827
   16MOL0     C 2007   6.760  10.184   8.793  0.6832 -0.9821  0.8542
   16MOL0     C 2008   6.701  10.277   8.711 -0.4679  0.3217  0.2580
   16MOL0     C 2009   6.592  10.238   8.621 -1.7202 -0.7861  0.9718
   16MOL0     O 2010   6.521  10.124   8.643 -0.7974  0.5531  0.0308
   16MOL0     C 2011   6.403  10.089   8.586 -1.1285  0.7333 -0.0604
   16MOL0     C 2012   6.285  10.155   8.606 -0.0340 -0.1754  0.3913
   16MOL0     C 2013   6.163  10.109   8.548  0.1625  1.2030  0.7252
   16MOL0     C 2014   6.162   9.990   8.479  0.1528 -1.0143 -0.1818
   16MOL0     O 2015   6.047   9.931   8.439 -0.0487  0.5019 -0.1199
   16MOL0     C 2016   5.954  10.000   8.354  0.1560 -0.2484  0.3165
   16MOL0     C 2017   6.002  10.094   8.242 -0.1385 -0.0426  0.3201
   16MOL0     C 2018   6.067  10.031   8.117  0.1629 -0.7803 -0.1874
   16MOL0     C 2019   6.134  10.148   8.037  0.2136  0.0849  0.2502
   16MOL0     C 2020   6.196  10.118   7.906 -0.4662 -1.0348  0.9935
   16MOL0     C 2021   6.292   9.997   7.901  0.4814 -0.1419  0.5579
   16MOL0     C 2022   6.398   9.980   8.010 -0.1086 -0.5867  0.3250
   16MOL0     C 2023   6.409   9.832   8.056 -0.3174 -0.8922 -0.1877
   16MOL0    Cl 2024   6.513   9.739   7.928  0.3655 -0.3216 -0.1553
   16MOL0     C 2025   6.284   9.923   8.456  0.9757 -0.0745 -0.9479
   16MOL0     C 2026   6.402   9.975   8.496  1.0539 -0.7078 -0.6323
   16MOL0     O 2027   6.573  10.312   8.526  0.3830 -0.5431 -0.4645
   16MOL0     C 2028   6.751  10.409   8.718 -0.6494 -0.1898  0.1810
   16MOL0     C 2029   6.852  10.447   8.807  0.6313 -0.7018  0.0748
   16MOL0     N 2030   7.303  10.653   9.229 -0.5412  0.3074  0.7820
   16MOL0     N 2031   7.386  10.623   9.317  0.3772 -0.3343  0.6942
   16MOL0     C 2032   8.085   9.962   8.857  1.0236 -1.1400 -0.7345
   16MOL0     C 2033   8.195   9.897   8.840  0.0896  0.0035 -0.3211
   16MOL0     C 2034   8.460   9.503   8.761  0.8989  0.0751 -0.2126
   16MOL0     C 2035   8.484   9.421   8.655 -0.3731 -0.9502  0.1147
   16MOL0     C 2036   8.611   9.365   8.630  0.3408 -0.5067 -0.3385
   16MOL0     C 2037   8.715   9.397   8.715  0.6555 -0.1595 -0.6857
   16MOL0     O 2038   8.829   9.331   8.697 -0.4200  0.6225 -0.1269
   16MOL0     C 2039   8.945   9.348   8.785  0.0717  0.3819 -0.4153
   16MOL0     C 2040   9.031   9.219   8.781  0.0290 -0.6463  0.0506
   16MOL0     C 2041   9.119   9.192   8.656  0.3104  0.1110  0.0869
   16MOL0     C 2042   9.027   9.156   8.534 -0.4420  0.1573  1.1966
   16MOL0     C 2043   8.966   9.024   8.557 -0.8837  0.1383 -0.2699
   16MOL0     C 2044   8.904   8.916   8.561  0.0595 -0.0636  0.8229
   16MOL0     C 2045   8.688   9.497   8.816  0.5617  0.8677  0.1722
   16MOL0     C 2046   8.565   9.561   8.830 -0.6900 -0.2304 -0.3169
   16MOL0     H 2047   8.123   9.595   9.008  0.2764  0.6345 -1.7607
   16MOL0     H 2048   7.920   9.726   9.052  1.0220 -0.0003  0.2404
   16MOL0     H 2049   7.712   9.819   8.949 -0.1791  0.5134  1.8986
   16MOL0     H 2050   7.715   9.911   8.802 -1.9042 -1.5894  0.8089
   16MOL0     H 2051   7.547   9.954   8.993  1.1874 -1.2458  0.9928
   16MOL0     H 2052   7.627  10.113   8.938  0.4991 -0.5073 -1.1806
   16MOL0     H 2053   7.753  10.120   9.128 -0.4733 -1.1033 -1.8337
   16MOL0     H 2054   7.727   9.961   9.187  0.6985  2.0386  3.3691
   16MOL0     H 2055   7.500  10.148   9.154  0.1708  1.3444  0.6379
   16MOL0     H 2056   7.511   9.996   9.248 -1.0868  1.8833  1.1601
   16MOL0     H 2057   7.684  10.152   9.393 -0.3649 -1.3223  2.1963
   16MOL0     H 2058   7.518  10.194   9.400 -0.1479  1.0202 -0.4709
   16MOL0     H 2059   7.551  10.350   9.202  0.7004 -1.4176 -1.7902
   16MOL0     H 2060   7.721  10.316   9.229 -0.2798 -1.6852  0.1292
   16MOL0     H 2061   7.549  10.403   9.459 -0.4536 -0.9543 -0.9626
   16MOL0     H 2062   7.726  10.386   9.451 -0.8401  1.4156  2.2996
   16MOL0     H 2063   7.715  10.570   9.277  0.7163  1.2651  1.8279
   16MOL0     H 2064   7.630  10.623   9.424 -1.1517 -2.1307  2.3455
   16MOL0     H 2065   7.567  10.547   9.056 -3.2275 -1.2629 -1.7141
   16MOL0     H 2066   7.329  10.589   8.905  5.6238 -0.6508  0.9398
   16MOL0     H 2067   7.360  10.758   8.934 -0.7684  0.8182  2.3509
   16MOL0     H 2068   7.140  10.772   8.910 -1.6519  0.3768 -0.6764
   16MOL0     H 2069   7.151  10.777   9.078 -0.9769  3.3878 -2.4026
   16MOL0     H 2070   7.066  10.557   9.138 -1.0399 -4.3975 -0.3292
   16MOL0     H 2071   6.960  10.625   9.019 -0.2939 -1.6130 -0.9570
   16MOL0     H 2072   7.201  10.442   8.978  1.4365  2.8008 -0.4962
   16MOL0     H 2073   7.093  10.508   8.850 -2.1371 -1.3844 -0.0166
   16MOL0     H 2074   6.892  10.138   8.947  1.0231  1.5778 -0.0429
   16MOL0     H 2075   6.741  10.077   8.795 -0.1032 -0.8547  0.5384
   16MOL0     H 2076   6.291  10.250   8.659  0.4612 -1.8564  3.5964
   16MOL0     H 2077   6.063  10.149   8.562 -0.8066 -1.0463  0.7041
   16MOL0     H 2078   5.902  10.074   8.416  2.3376  1.0529  0.7192
   16MOL0     H 2079   5.887   9.923   8.316 -0.2892  0.9009 -1.3213
   16MOL0     H 2080   6.075  10.165   8.283 -1.2327  1.6598 -0.5885
   16MOL0     H 2081   5.918  10.154   8.206  0.4250  0.4018 -0.2572
   16MOL0     H 2082   5.987   9.986   8.057  1.4910 -1.4119 -1.5483
   16MOL0     H 2083   6.137   9.951   8.145  0.2733 -0.7451 -0.3646
   16MOL0     H 2084   6.061  10.225   8.009  1.6814  1.5372  0.2239
   16MOL0     H 2085   6.210  10.201   8.094  3.2054 -2.6634 -0.8615
   16MOL0     H 2086   6.234  10.215   7.876 -1.7046  0.5015  3.9331
   16MOL0     H 2087   6.110  10.091   7.844 -1.0941  1.2743  0.7637
   16MOL0     H 2088   6.350   9.986   7.809  0.3780 -0.5873  0.5435
   16MOL0     H 2089   6.235   9.903   7.897 -0.9461  0.7109  0.0639
   16MOL0     H 2090   6.496  10.007   7.971  0.4162 -2.6315  0.1300
   16MOL0     H 2091   6.363  10.041   8.095 -0.3639 -1.4422  0.8454
   16MOL0     H 2092   6.309   9.795   8.078  0.2492 -3.9204 -2.1273
   16MOL0     H 2093   6.468   9.835   8.148  2.6069 -1.6818 -1.8841
   16MOL0     H 2094   6.282   9.826   8.407 -1.0121 -1.3173  1.3650
   16MOL0     H 2095   6.493   9.924   8.466  2.2635  1.5043 -0.9653
   16MOL0     H 2096   6.718  10.494   8.658  0.5964  0.2512  0.0763
   16MOL0     H 2097   6.900  10.545   8.806 -0.9453  0.1793  2.3882
   16MOL0     H 2098   8.076  10.067   8.829 -4.3985 -1.7991 -2.6292
   16MOL0     H 2099   8.274   9.943   8.783 -0.7467  4.2990  1.5909
   16MOL0     H 2100   8.402   9.391   8.591 -3.0061  0.2024  2.7181
   16MOL0     H 2101   8.629   9.309   8.538 -0.8935 -0.7608 -0.4485
   16MOL0     H 2102   8.895   9.355   8.882 -3.9317 -1.7682 -2.0798
   16MOL0     H 2103   9.002   9.438   8.759  1.2575 -0.3168 -0.3213
   16MOL0     H 2104   9.092   9.230   8.871 -0.0284  2.1123 -0.1333
   16MOL0     H 2105   8.964   9.134   8.792 -1.9761  0.9046  0.5562
   16MOL0     H 2106   9.199   9.121   8.681 -1.6030 -3.1814 -2.3053
   16MOL0     H 2107   9.174   9.284   8.636 -2.0438  1.3289 -1.2936
   16MOL0     H 2108   8.949   9.231   8.522  0.3324  1.0143  1.4021
   16MOL0     H 2109   9.080   9.147   8.438  0.6000  4.5467  1.1599
   16MOL0     H 2110   8.845   8.827   8.560  0.7994 -0.5819 -0.7709
   16MOL0     H 2111   8.762   9.537   8.886 -0.2539  0.0314  1.5516
   16MOL0     H 2112   8.563   9.636   8.908 -3.6926 -0.8142  0.2952
   17MOL0     O 2113   7.817   0.133   6.384  0.6299  0.1916 -0.0618
   17MOL0     C 2114   7.694   0.146   6.378 -1.0518 -0.6090 -0.7150
   17MOL0     O 2115   7.624   0.265   6.357  0.6511 -0.3446 -1.1085
   17MOL0     C 2116   7.686   0.384   6.320 -0.5281  0.2143 -1.0864
   17MOL0     C 2117   7.821   0.425   6.344 -0.2583 -0.6693 -0.0990
   17MOL0     C 2118   7.864   0.548   6.309 -0.7165  0.3930 -0.4485
   17MOL0     C 2119   7.770   0.638   6.250 -0.5666  0.0308  0.5399
   17MOL0     O 2120   7.806   0.757   6.237  0.1466 -0.5889  0.3668
   17MOL0     C 2121   7.895   0.820   6.329 -0.4564 -0.2865  0.3471
   17MOL0     C 2122   7.860   0.962   6.338  0.4957  0.1316 -0.5899
   17MOL0     C 2123   7.712   0.996   6.359 -0.8791 -0.0657 -0.2806
   17MOL0     C 2124   7.688   1.150   6.335  0.3496  0.4507 -0.0749
   17MOL0     C 2125   7.551   1.204   6.379 -0.1674 -0.9967  0.5751
   17MOL0     C 2126   7.535   1.352   6.355  0.0999 -1.1027 -0.4490
   17MOL0     C 2127   7.548   1.391   6.209  0.7065  0.2601  0.3469
   17MOL0     C 2128   7.486   1.526   6.199  0.1695 -0.7964 -0.7306
   17MOL0     N 2129   7.511   1.586   6.068  0.4097 -0.3921  0.3556
   17MOL0     C 2130   7.558   1.715   6.032  0.7025 -0.9703 -0.4376
   17MOL0     C 2131   7.534   1.725   5.898 -0.6958  0.2889  0.3989
   17MOL0     C 2132   7.587   1.817   5.789 -0.2520  0.2499  0.1037
   17MOL0     C 2133   7.704   1.743   5.733  0.6571  0.4802  0.3038
   17MOL0     C 2134   7.824   1.746   5.833  0.7942 -0.1144  0.5080
   17MOL0     C 2135   7.952   1.721   5.754 -0.0237  0.2242  0.3464
   17MOL0     O 2136   7.995   1.831   5.675 -0.0968 -0.6012  0.0829
   17MOL0     C 2137   8.078   1.942   5.716  0.1050 -0.1747 -0.3552
   17MOL0     C 2138   8.097   2.048   5.628  0.5740  1.2884  0.7495
   17MOL0     C 2139   8.196   2.150   5.657  1.0291  1.1339  0.7884
   17MOL0     C 2140   8.262   2.140   5.774  0.2609  0.1503  0.0968
   17MOL0     C 2141   8.369   2.237   5.816 -0.9627  0.3328  0.6236
   17MOL0     O 2142   8.354   2.368   5.766  0.4200  0.7512 -0.8090
   17MOL0     C 2143   8.448   2.471   5.802  0.0827  0.4196 -0.4192
   17MOL0     C 2144   8.587   2.452   5.842 -0.9190 -0.4770 -0.3792
   17MOL0     C 2145   8.663   2.543   5.899 -0.6843 -0.6161  0.7247
   17MOL0     C 2146   8.618   2.676   5.921 -0.1545  1.0921  0.1416
   17MOL0     O 2147   8.699   2.765   5.976  0.4574  0.0572 -0.3470
   17MOL0     C 2148   8.726   2.883   5.885  0.1794 -0.4926 -0.0648
   17MOL0     C 2149   8.837   2.965   5.938 -0.3295  0.1496 -0.4569
   17MOL0     C 2150   8.903   3.061   5.841 -0.5640 -1.3407 -0.1249
   17MOL0     C 2151   9.014   3.140   5.893  0.3304  0.8637 -0.4691
   17MOL0     C 2152   8.986   3.232   6.010  0.4211 -1.2934  0.5558
   17MOL0     C 2153   9.108   3.293   6.064 -0.1417  0.6991  0.0491
   17MOL0     C 2154   9.169   3.414   5.990  0.8721  0.3204 -0.3522
   17MOL0     C 2155   9.317   3.376   5.946  0.6329  0.6410 -0.1918
   17MOL0    Cl 2156   9.378   3.512   5.860  0.9414  0.1552 -0.4504
   17MOL0     C 2157   8.486   2.705   5.877 -0.1277  1.0639 -0.9156
   17MOL0     C 2158   8.397   2.600   5.832 -0.7451 -0.0666  0.5351
   17MOL0     O 2159   8.465   2.196   5.884 -0.4299  0.2195 -0.8743
   17MOL0     C 2160   8.227   2.036   5.871 -0.0456  0.2995 -0.3860
   17MOL0     C 2161   8.137   1.938   5.842  0.9317  0.0523 -0.4946
   17MOL0     N 2162   7.456   1.621   5.860 -1.1506  0.7861 -0.0983
   17MOL0     N 2163   7.451   1.537   5.959 -0.2150  0.6679  0.2616
   17MOL0     C 2164   7.640   0.606   6.217 -0.5759 -0.9516 -0.8889
   17MOL0     C 2165   7.602   0.482   6.263 -0.6247 -1.0442  0.8190
   17MOL0     C 2166   7.607   0.026   6.402 -0.1071  0.4357 -0.5277
   17MOL0     C 2167   7.658  -0.090   6.452  0.2981 -0.1334 -0.0663
   17MOL0     C 2168   7.569  -0.197   6.483  0.3462  0.0252  0.8182
   17MOL0     C 2169   7.429  -0.193   6.447 -0.4366  0.4944 -0.2418
   17MOL0     O 2170   7.339  -0.290   6.482 -0.0638  0.0684  0.3591
   17MOL0     C 2171   7.376  -0.397   6.579  0.2783  0.4167 -0.2235
   17MOL0     C 2172   7.393  -0.348   6.718 -0.5875  0.4976  0.4477
   17MOL0     C 2173   7.257  -0.328   6.771  0.6962 -0.2679 -1.0604
   17MOL0     C 2174   7.248  -0.193   6.851 -0.6271  0.5750  0.7891
   17MOL0     C 2175   7.329  -0.158   6.976  0.7197 -0.2518 -0.0825
   17MOL0     C 2176   7.385  -0.137   7.081  0.5331 -1.2116  0.0422
   17MOL0     C 2177   7.381  -0.070   6.399 -0.1973 -0.3489 -1.0814
   17MOL0     C 2178   7.465   0.039   6.381  0.2007 -0.0603 -0.3881
   17MOL0     H 2179   7.868   0.344   6.400 -3.8624 -2.3089  0.9087
   17MOL0     H 2180   7.965   0.577   6.335 -0.9183 -1.3646  2.7506
   17MOL0     H 2181   8.002   0.822   6.306 -0.8978 -0.8243 -1.9881
   17MOL0     H 2182   7.884   0.783   6.431  1.9981  4.4443  2.6688
   17MOL0     H 2183   7.899   1.018   6.253  2.8745 -0.1308  0.2487
   17MOL0     H 2184   7.916   0.994   6.427  2.1554 -2.4174 -0.6179
   17MOL0     H 2185   7.672   0.960   6.455  0.4642 -0.1677  0.2642
   17MOL0     H 2186   7.652   0.946   6.283 -1.9918  2.6204 -1.2780
   17MOL0     H 2187   7.750   1.199   6.410 -1.6487  1.7702  0.8163
   17MOL0     H 2188   7.708   1.161   6.228  1.5579 -0.0025  0.0960
   17MOL0     H 2189   7.535   1.177   6.483  3.3584 -0.9210  1.2594
   17MOL0     H 2190   7.482   1.150   6.314 -2.1491 -1.7176  3.1089
   17MOL0     H 2191   7.621   1.396   6.407 -0.5000  2.7139 -2.3354
   17MOL0     H 2192   7.443   1.386   6.403  1.2637  0.1523  0.9933
   17MOL0     H 2193   7.656   1.390   6.191  1.2868 -0.3090  3.3251
   17MOL0     H 2194   7.496   1.320   6.144  3.2884 -1.1317 -0.3328
   17MOL0     H 2195   7.528   1.595   6.272 -1.1099 -0.5813 -0.1803
   17MOL0     H 2196   7.380   1.526   6.222  0.6878 -0.3840  1.9892
   17MOL0     H 2197   7.625   1.777   6.091  3.3463 -3.5787 -0.4590
   17MOL0     H 2198   7.619   1.913   5.831 -0.9415 -0.2545  1.8562
   17MOL0     H 2199   7.511   1.817   5.710  3.6489 -2.5184 -4.1790
   17MOL0     H 2200   7.729   1.769   5.630  2.0662 -2.2990 -0.1591
   17MOL0     H 2201   7.691   1.636   5.715 -2.2125  0.4710  1.9111
   17MOL0     H 2202   7.835   1.848   5.870  0.3838  2.2404 -4.8510
   17MOL0     H 2203   7.803   1.665   5.904 -3.1503 -3.0180 -3.3843
   17MOL0     H 2204   7.935   1.634   5.689  2.3148 -1.8928  2.3469
   17MOL0     H 2205   8.026   1.682   5.824 -0.8311  1.4022  1.9050
   17MOL0     H 2206   8.045   2.057   5.533  0.7546  1.7295  0.6882
   17MOL0     H 2207   8.218   2.227   5.584 -1.6182  0.1449 -1.2175
   17MOL0     H 2208   8.635   2.355   5.829 -2.2212 -1.1246 -0.4552
   17MOL0     H 2209   8.764   2.530   5.938  0.6130  2.0441 -1.3500
   17MOL0     H 2210   8.636   2.945   5.876  0.9413  0.4642 -1.4096
   17MOL0     H 2211   8.755   2.853   5.785  0.1957  0.6529 -0.4187
   17MOL0     H 2212   8.915   2.895   5.970 -0.0508  1.2857  1.5247
   17MOL0     H 2213   8.798   3.009   6.031  0.2964  0.6667 -0.4379
   17MOL0     H 2214   8.828   3.119   5.787  0.1930 -1.5986 -1.4986
   17MOL0     H 2215   8.959   3.002   5.768  0.6792  0.2317 -0.4874
   17MOL0     H 2216   9.094   3.069   5.915  0.9282  0.9917 -2.1139
   17MOL0     H 2217   9.058   3.198   5.812 -0.8389  0.4413 -1.4341
   17MOL0     H 2218   8.933   3.178   6.089 -3.1021  2.1357  0.8244
   17MOL0     H 2219   8.924   3.314   5.974  5.3619  2.4287 -0.6380
   17MOL0     H 2220   9.185   3.216   6.070 -2.0959 -1.4590 -1.0442
   17MOL0     H 2221   9.093   3.328   6.167  2.0251  1.9383  0.0104
   17MOL0     H 2222   9.114   3.432   5.898  1.0228  0.3969 -0.4289
   17MOL0     H 2223   9.163   3.508   6.046 -2.0189  0.6848 -1.1192
   17MOL0     H 2224   9.304   3.282   5.890  1.9409  0.0518  0.4534
   17MOL0     H 2225   9.387   3.345   6.024  1.9385 -1.2550 -2.0081
   17MOL0     H 2226   8.431   2.797   5.895 -1.6826  0.4453 -2.2257
   17MOL0     H 2227   8.294   2.611   5.800 -1.6139 -1.1527  2.7268
   17MOL0     H 2228   8.277   2.042   5.968  0.0505 -0.5358 -0.3789
   17MOL0     H 2229   8.118   1.867   5.922 -1.6566  1.8292  0.6095
   17MOL0     H 2230   7.571   0.679   6.177  1.8901  1.7134 -0.5575
   17MOL0     H 2231   7.500   0.458   6.237 -0.1371  0.5252 -3.3700
   17MOL0     H 2232   7.764  -0.103   6.474  0.5841  0.2863 -1.1189
   17MOL0     H 2233   7.616  -0.286   6.525  0.6086  0.6526  1.8926
   17MOL0     H 2234   7.468  -0.445   6.545 -0.9259 -0.7499 -1.9794
   17MOL0     H 2235   7.302  -0.477   6.577 -0.9119  1.5197 -1.8329
   17MOL0     H 2236   7.435  -0.427   6.780 -1.1617 -0.7716 -0.7377
   17MOL0     H 2237   7.446  -0.252   6.722 -2.9297  1.7948  2.8649
   17MOL0     H 2238   7.229  -0.398   6.850 -0.0003  3.3705  2.2692
   17MOL0     H 2239   7.177  -0.328   6.697  0.0496 -3.0147 -0.4747
   17MOL0     H 2240   7.291  -0.126   6.777 -0.0185 -1.5440 -0.9032
   17MOL0     H 2241   7.143  -0.170   6.872 -0.4204  0.1535  2.4198
   17MOL0     H 2242   7.430  -0.123   7.177 -1.9620  0.7374  1.0464
   17MOL0     H 2243   7.278  -0.052   6.372  0.2829  0.0591 -2.7882
   17MOL0     H 2244   7.419   0.135   6.362  2.1359  1.1478  0.5949
   18MOL0     O 2245   4.663   0.498   0.314 -0.1110 -0.6447 -0.0591
   18MOL0     C 2246   4.780   0.496   0.332 -0.1175 -0.8222 -0.4081
   18MOL0     O 2247   4.843   0.405   0.408  0.8431  0.9231 -0.5430
   18MOL0     C 2248   4.763   0.303   0.460 -0.4699 -0.2331  0.2779
   18MOL0     C 2249   4.679   0.206   0.392 -0.5945 -0.4652  0.0765
   18MOL0     C 2250   4.610   0.110   0.462 -0.1757  0.4268  0.5050
   18MOL0     C 2251   4.624   0.093   0.605 -0.5455  0.3471 -0.2749
   18MOL0     O 2252   4.565  -0.022   0.661  0.0731  0.5926  0.0427
   18MOL0     C 2253   4.536  -0.006   0.800  0.5651 -0.1719  0.5526
   18MOL0     C 2254   4.467  -0.127   0.856 -0.4042  2.0411  0.5881
   18MOL0     C 2255   4.536  -0.254   0.817  0.0097 -0.6176 -0.7288
   18MOL0     C 2256   4.448  -0.364   0.876  0.4505  0.1547  0.1095
   18MOL0     C 2257   4.476  -0.502   0.809  0.4522  0.3411 -0.4612
   18MOL0     C 2258   4.411  -0.619   0.893 -0.0952 -0.3057 -1.4456
   18MOL0     C 2259   4.463  -0.762   0.865 -0.3955 -1.3235  0.4006
   18MOL0     C 2260   4.537  -0.773   0.733  0.5060  0.9302 -0.0023
   18MOL0     N 2261   4.597  -0.907   0.734 -0.4310 -0.3870  0.1309
   18MOL0     C 2262   4.545  -1.020   0.676  0.7280  1.0604  1.4778
   18MOL0     C 2263   4.637  -1.119   0.694  1.5497  1.2773  0.2379
   18MOL0     C 2264   4.632  -1.265   0.639  1.2035 -0.5535  0.8895
   18MOL0     C 2265   4.671  -1.368   0.755  0.8306 -0.3022  0.4695
   18MOL0     C 2266   4.549  -1.430   0.835 -0.7214  0.2255  0.1304
   18MOL0     C 2267   4.469  -1.318   0.886 -0.4239  0.0935  0.5783
   18MOL0     O 2268   4.357  -1.364   0.961  1.1551  0.6642  0.4082
   18MOL0     C 2269   4.371  -1.372   1.097  0.1934 -0.6371 -0.7568
   18MOL0     C 2270   4.330  -1.262   1.183 -0.2264  0.5288 -0.2696
   18MOL0     C 2271   4.334  -1.274   1.318 -0.5113  0.3550  0.1796
   18MOL0     C 2272   4.377  -1.390   1.375  0.0381 -0.5391 -0.6677
   18MOL0     C 2273   4.379  -1.391   1.530 -1.1009 -0.1032  0.9111
   18MOL0     O 2274   4.340  -1.284   1.593  0.4017 -0.4501 -0.7741
   18MOL0     C 2275   4.301  -1.294   1.723  0.3014 -0.7049 -0.6296
   18MOL0     C 2276   4.165  -1.277   1.762 -0.2956  0.4558  0.2362
   18MOL0     C 2277   4.131  -1.299   1.898  0.4231  0.0965  0.2045
   18MOL0     C 2278   4.231  -1.313   1.999  0.5905  1.0291 -0.3396
   18MOL0     O 2279   4.214  -1.329   2.139  0.0025  0.4624 -0.2656
   18MOL0     C 2280   4.111  -1.246   2.193 -0.6651  0.5711  0.8870
   18MOL0     C 2281   4.188  -1.141   2.279  0.0883 -0.0244 -0.4229
   18MOL0     C 2282   4.224  -1.196   2.424  0.1792 -0.1268 -0.1492
   18MOL0     C 2283   4.306  -1.088   2.488 -0.1850 -0.1154 -0.0634
   18MOL0     C 2284   4.302  -1.087   2.645 -0.1036 -0.4182  0.9596
   18MOL0     C 2285   4.410  -0.983   2.688  0.0112  1.9476 -0.9766
   18MOL0     C 2286   4.353  -0.836   2.678  0.2563 -0.0696 -0.1221
   18MOL0     C 2287   4.457  -0.723   2.721  0.1840 -0.0526 -0.4613
   18MOL0    Cl 2288   4.476  -0.761   2.892 -0.2747  0.1094 -0.4906
   18MOL0     C 2289   4.363  -1.319   1.957 -0.0965 -0.7259  0.0789
   18MOL0     C 2290   4.396  -1.320   1.820  0.0210  0.5396 -0.0070
   18MOL0     O 2291   4.425  -1.497   1.580 -0.7345  0.0772  0.2221
   18MOL0     C 2292   4.416  -1.504   1.299 -0.6780 -0.0618 -0.4180
   18MOL0     C 2293   4.409  -1.492   1.161 -1.0461 -0.4450  0.5001
   18MOL0     N 2294   4.740  -1.071   0.775  0.3992 -0.3547 -0.0315
   18MOL0     N 2295   4.716  -0.943   0.794  0.2523  0.5480 -0.1227
   18MOL0     C 2296   4.700   0.189   0.673 -0.4064 -1.0858  0.3546
   18MOL0     C 2297   4.764   0.293   0.598 -0.4208 -0.0837 -0.8839
   18MOL0     C 2298   4.861   0.594   0.256 -0.0754 -0.0996 -0.4848
   18MOL0     C 2299   4.969   0.649   0.329  0.0841 -1.3076 -0.8059
   18MOL0     C 2300   5.050   0.746   0.273  0.9965 -1.1487 -0.0218
   18MOL0     C 2301   5.022   0.802   0.139  0.4512  0.5269 -0.7767
   18MOL0     O 2302   5.107   0.884   0.067 -0.0902 -0.3469 -0.1046
   18MOL0     C 2303   5.203   0.951   0.144  0.2607 -0.0186  0.1596
   18MOL0     C 2304   5.284   1.047   0.058 -0.6397  0.7570  0.0500
   18MOL0     C 2305   5.202   1.185   0.043 -0.0619  0.6936  0.4109
   18MOL0     C 2306   5.285   1.290  -0.022 -0.0785 -0.7291  0.5079
   18MOL0     C 2307   5.254   1.430   0.013  0.1731  0.8112  0.5604
   18MOL0     C 2308   5.224   1.550   0.022 -0.6800 -0.1388 -0.4190
   18MOL0     C 2309   4.922   0.731   0.069  0.0307  0.4969 -0.1545
   18MOL0     C 2310   4.843   0.634   0.126  0.5477  0.0595 -0.4912
   18MOL0     H 2311   4.664   0.229   0.287  0.5566  1.9960  0.3879
   18MOL0     H 2312   4.552   0.039   0.403  1.3135 -1.0404  0.7330
   18MOL0     H 2313   4.459   0.071   0.812 -1.4435 -1.9897 -0.0133
   18MOL0     H 2314   4.623   0.013   0.864 -0.6735  1.8818  1.7524
   18MOL0     H 2315   4.364  -0.129   0.819 -1.2045 -0.8088  2.5889
   18MOL0     H 2316   4.460  -0.124   0.965 -2.8032 -3.5679  0.9620
   18MOL0     H 2317   4.635  -0.250   0.865 -0.2081  1.1189 -0.3396
   18MOL0     H 2318   4.545  -0.261   0.708  0.9341 -0.3375 -0.6827
   18MOL0     H 2319   4.445  -0.376   0.984  1.2201 -1.9353 -0.0578
   18MOL0     H 2320   4.346  -0.343   0.842  0.9368  2.1199 -0.2675
   18MOL0     H 2321   4.583  -0.508   0.832  0.0505  1.3972  1.9802
   18MOL0     H 2322   4.460  -0.503   0.701 -1.6495  3.8953 -0.3272
   18MOL0     H 2323   4.308  -0.617   0.857 -1.5371  0.6248  2.3325
   18MOL0     H 2324   4.407  -0.607   1.001 -1.5970 -2.7883 -1.1354
   18MOL0     H 2325   4.541  -0.778   0.941  1.2854  1.6204 -0.5542
   18MOL0     H 2326   4.390  -0.844   0.866 -1.1954 -0.6158  1.3009
   18MOL0     H 2327   4.621  -0.703   0.731  0.4180  1.1102  1.4081
   18MOL0     H 2328   4.475  -0.765   0.644  0.4900  1.2616  0.0372
   18MOL0     H 2329   4.456  -1.036   0.616  0.8692 -2.2290  1.9602
   18MOL0     H 2330   4.715  -1.268   0.567  0.3056  1.9654 -0.3598
   18MOL0     H 2331   4.535  -1.286   0.594  0.5628  2.5312  0.6411
   18MOL0     H 2332   4.732  -1.313   0.828  0.8893  2.1433 -1.3193
   18MOL0     H 2333   4.729  -1.449   0.710 -0.9870 -0.6134 -1.4548
   18MOL0     H 2334   4.482  -1.486   0.769 -0.5630  2.8902 -2.4530
   18MOL0     H 2335   4.583  -1.488   0.922 -1.7490 -1.8548 -0.7834
   18MOL0     H 2336   4.433  -1.251   0.808  0.9857  1.8335  1.3419
   18MOL0     H 2337   4.530  -1.251   0.948 -0.6794  1.1244 -0.2663
   18MOL0     H 2338   4.306  -1.162   1.150 -1.7014  0.4359  0.4493
   18MOL0     H 2339   4.294  -1.190   1.374  0.9030  2.1100 -1.3469
   18MOL0     H 2340   4.088  -1.265   1.686 -0.3865  1.2661  0.4520
   18MOL0     H 2341   4.025  -1.290   1.920 -0.1301  3.1807 -2.9784
   18MOL0     H 2342   4.038  -1.293   2.260  0.2807 -0.2420  1.3672
   18MOL0     H 2343   4.067  -1.187   2.112 -0.7519  0.4836  0.8696
   18MOL0     H 2344   4.131  -1.049   2.293  0.5782  0.2738 -0.3417
   18MOL0     H 2345   4.278  -1.115   2.222 -1.5184  1.3496 -2.4902
   18MOL0     H 2346   4.285  -1.285   2.405  2.9526  1.7537 -0.7156
   18MOL0     H 2347   4.138  -1.219   2.488 -0.4567 -1.6773 -1.5142
   18MOL0     H 2348   4.412  -1.096   2.460  0.5866 -0.0535  2.5969
   18MOL0     H 2349   4.266  -0.992   2.453 -3.4799 -0.1550  3.0269
   18MOL0     H 2350   4.318  -1.191   2.675 -0.5708  0.0082  2.8168
   18MOL0     H 2351   4.208  -1.044   2.679  0.3800  3.0968 -1.6378
   18MOL0     H 2352   4.507  -0.990   2.637  0.7391 -1.8309  0.5896
   18MOL0     H 2353   4.439  -1.006   2.791 -0.7098  2.4153 -0.6597
   18MOL0     H 2354   4.318  -0.807   2.579 -2.9852  1.9290  1.4596
   18MOL0     H 2355   4.263  -0.827   2.739 -2.0081  0.0686 -3.2792
   18MOL0     H 2356   4.422  -0.620   2.707 -0.9465 -0.4363 -0.5901
   18MOL0     H 2357   4.552  -0.730   2.668  0.1874  1.1145 -0.6468
   18MOL0     H 2358   4.449  -1.326   2.024 -0.4394 -0.6678  0.5278
   18MOL0     H 2359   4.503  -1.320   1.802  0.0376  3.2159 -0.3957
   18MOL0     H 2360   4.443  -1.597   1.347 -1.9724 -0.0298  0.4183
   18MOL0     H 2361   4.436  -1.571   1.093 -3.3913 -1.0354  0.1540
   18MOL0     H 2362   4.692   0.192   0.781 -2.5223 -2.7906  0.3176
   18MOL0     H 2363   4.811   0.381   0.639 -0.6570  1.0795 -2.9689
   18MOL0     H 2364   4.980   0.610   0.430  4.4907 -0.1277 -0.5973
   18MOL0     H 2365   5.124   0.795   0.334 -0.1751  1.2034 -0.3974
   18MOL0     H 2366   5.277   0.885   0.191 -0.7908 -2.5091 -1.4388
   18MOL0     H 2367   5.153   1.006   0.224 -0.7632 -1.1408  0.3277
   18MOL0     H 2368   5.384   1.057   0.101 -0.1298 -1.5788 -0.4500
   18MOL0     H 2369   5.296   1.016  -0.046  3.4935  0.8593  0.3016
   18MOL0     H 2370   5.191   1.218   0.147  0.2105 -2.4545  1.5562
   18MOL0     H 2371   5.104   1.172  -0.005  0.8394  4.3891 -2.8872
   18MOL0     H 2372   5.388   1.271   0.010 -0.6240 -2.9847  1.1531
   18MOL0     H 2373   5.272   1.278  -0.130 -1.4824 -1.4728  0.7270
   18MOL0     H 2374   5.200   1.654   0.016 -3.0302 -0.6201 -0.5325
   18MOL0     H 2375   4.907   0.754  -0.035  1.3316  1.7780 -0.0883
   18MOL0     H 2376   4.765   0.578   0.075  0.1261  0.5090 -0.3577
   19MOL0     O 2377  10.393   8.833   7.013  0.1980 -0.5432  0.5484
   19MOL0     C 2378  10.395   8.937   6.948  0.1129 -0.4030 -1.0002
   19MOL0     O 2379  10.509   9.006   6.936 -0.1508 -0.5213 -0.6621
   19MOL0     C 2380  10.625   8.966   6.993 -0.1244  0.4832 -0.6731
   19MOL0     C 2381  10.735   8.920   6.918  0.1409  0.4467 -0.8712
   19MOL0     C 2382  10.836   8.859   6.988  0.2603  0.0439  0.0111
   19MOL0     C 2383  10.841   8.850   7.125 -0.1902 -0.5370 -0.6802
   19MOL0     O 2384  10.965   8.807   7.176  0.5811 -0.1924  0.5645
   19MOL0     C 2385  10.973   8.675   7.192 -0.5579  0.1746 -0.2896
   19MOL0     C 2386  11.095   8.632   7.280 -0.8010 -0.3220  0.2873
   19MOL0     C 2387  11.142   8.718   7.392 -0.4699 -0.6983 -0.6329
   19MOL0     C 2388  11.041   8.755   7.498 -0.3482 -0.0509 -0.3922
   19MOL0     C 2389  11.120   8.851   7.594  0.2366 -1.0610 -1.0026
   19MOL0     C 2390  11.071   9.005   7.575  0.0832  0.2471  0.4238
   19MOL0     C 2391  11.148   9.110   7.659  1.2255 -0.5115  0.6958
   19MOL0     C 2392  11.297   9.113   7.623 -0.2063  0.1075  0.1108
   19MOL0     N 2393  11.380   9.028   7.708  0.7955  0.6013 -1.3058
   19MOL0     C 2394  11.425   9.069   7.826  0.3644  0.4598 -1.1055
   19MOL0     C 2395  11.539   8.990   7.851  0.4371 -0.4718 -0.2305
   19MOL0     C 2396  11.618   8.969   7.982 -0.1317 -0.6575 -0.8249
   19MOL0     C 2397  11.747   9.042   7.971  0.1533  0.5434  0.3841
   19MOL0     C 2398  11.862   8.949   7.907  1.3199 -0.7169 -0.4262
   19MOL0     C 2399  12.006   9.009   7.921  0.3373  0.9241  0.1549
   19MOL0     O 2400  12.028   9.047   8.059 -0.0693  1.3461 -0.1309
   19MOL0     C 2401  12.137   9.120   8.100 -0.1047  0.4299  0.2824
   19MOL0     C 2402  12.230   9.164   8.014  0.8437 -0.7275  0.5369
   19MOL0     C 2403  12.334   9.238   8.051  0.2617 -0.2679 -0.2160
   19MOL0     C 2404  12.341   9.283   8.190  0.1307  0.0873  0.5483
   19MOL0     C 2405  12.432   9.393   8.227 -0.6680 -0.2424 -0.8483
   19MOL0     O 2406  12.448   9.417   8.362  0.2768 -0.1959  0.7087
   19MOL0     C 2407  12.556   9.490   8.404  0.1194 -0.2628 -0.1563
   19MOL0     C 2408  12.532   9.621   8.452  0.4184  0.0408 -0.2793
   19MOL0     C 2409  12.643   9.691   8.493  0.0284 -0.4404  0.0690
   19MOL0     C 2410  12.776   9.649   8.506 -0.3431  0.5794  0.9597
   19MOL0     O 2411  12.879   9.739   8.551 -0.0924  0.8686 -0.0393
   19MOL0     C 2412  12.954   9.672   8.647 -0.6033  0.5220  0.1342
   19MOL0     C 2413  13.027   9.780   8.723 -0.3145  0.1657 -0.3258
   19MOL0     C 2414  12.937   9.888   8.801 -0.5357  0.3048 -0.0297
   19MOL0     C 2415  12.884  10.007   8.719  1.2698 -0.7253 -0.0478
   19MOL0     C 2416  13.002  10.082   8.650  0.7255 -0.3723  0.1206
   19MOL0     C 2417  12.988  10.234   8.601 -0.5330 -0.3410  0.3261
   19MOL0     C 2418  12.867  10.270   8.519 -0.0901  0.6254  0.6904
   19MOL0     C 2419  12.840  10.178   8.397 -0.0660  0.0606 -0.2781
   19MOL0    Cl 2420  12.679  10.229   8.311  0.2032 -0.3315  0.0631
   19MOL0     C 2421  12.797   9.515   8.472  0.2898 -0.2744 -0.5775
   19MOL0     C 2422  12.682   9.434   8.425 -0.5671 -0.6160  0.6592
   19MOL0     O 2423  12.481   9.460   8.139  0.2807 -0.9936  0.0737
   19MOL0     C 2424  12.258   9.228   8.281  0.2468 -1.0282  0.8206
   19MOL0     C 2425  12.147   9.140   8.238 -0.2222 -0.3882  0.2963
   19MOL0     N 2426  11.549   8.906   7.739  0.1997  1.0769 -0.0975
   19MOL0     N 2427  11.456   8.930   7.654  0.5443 -0.2168 -0.6386
   19MOL0     C 2428  10.732   8.894   7.199 -0.2718 -0.3487  0.2536
   19MOL0     C 2429  10.625   8.954   7.138 -0.0933 -0.0540 -0.2130
   19MOL0     C 2430  10.292   8.976   6.857 -0.4308  1.1559  0.3932
   19MOL0     C 2431  10.170   8.897   6.854 -0.2289 -0.1102 -0.0433
   19MOL0     C 2432  10.086   8.912   6.741 -0.0472 -0.0304 -0.0231
   19MOL0     C 2433  10.117   9.009   6.639  0.1918  0.5211 -0.5673
   19MOL0     O 2434  10.036   9.017   6.520 -0.4310  1.0149  0.2584
   19MOL0     C 2435   9.928   8.930   6.489 -0.1701  0.0007  0.9588
   19MOL0     C 2436   9.795   8.958   6.546 -0.6427  0.1559 -0.4683
   19MOL0     C 2437   9.704   8.848   6.519  0.8890 -0.5964 -0.4069
   19MOL0     C 2438   9.552   8.879   6.551  0.2778 -0.5345 -0.8566
   19MOL0     C 2439   9.465   8.760   6.530 -0.0155  0.7076 -0.1890
   19MOL0     C 2440   9.393   8.667   6.501  0.5778 -0.2570 -0.0255
   19MOL0     C 2441  10.226   9.085   6.644 -0.3462  0.0638  0.8482
   19MOL0     C 2442  10.315   9.070   6.757  1.1036  0.3411  0.0068
   19MOL0     H 2443  10.727   8.924   6.810 -0.7195  1.4029 -0.7850
   19MOL0     H 2444  10.919   8.812   6.936  1.1962 -1.9037  3.0077
   19MOL0     H 2445  10.976   8.606   7.107  2.6464 -1.0819  0.6566
   19MOL0     H 2446  10.887   8.650   7.255 -2.3893  2.8138 -1.5871
   19MOL0     H 2447  11.177   8.636   7.208 -1.4420  1.4743 -0.4269
   19MOL0     H 2448  11.080   8.532   7.321 -0.5537  0.3109  1.9822
   19MOL0     H 2449  11.169   8.812   7.345 -0.5027 -0.4395 -0.1451
   19MOL0     H 2450  11.228   8.663   7.430 -0.6275 -1.6078 -1.5436
   19MOL0     H 2451  10.950   8.800   7.458 -1.4986  0.7529  2.8078
   19MOL0     H 2452  11.011   8.669   7.558 -2.0599 -0.1417 -1.3202
   19MOL0     H 2453  11.228   8.835   7.592  0.5977  0.7146  1.1180
   19MOL0     H 2454  11.096   8.817   7.695 -0.4240  1.0938 -0.3753
   19MOL0     H 2455  10.969   9.000   7.615  0.4543 -2.9675  1.2913
   19MOL0     H 2456  11.100   9.034   7.474  1.6980 -0.4646  0.6474
   19MOL0     H 2457  11.113   9.214   7.651 -1.4279 -1.4129 -0.6323
   19MOL0     H 2458  11.144   9.078   7.763  1.7640  0.0487  0.9001
   19MOL0     H 2459  11.342   9.213   7.630 -0.8906  0.5032 -0.9607
   19MOL0     H 2460  11.308   9.088   7.518  0.3669  4.4881 -1.0885
   19MOL0     H 2461  11.395   9.151   7.891  2.6095 -0.8354  1.7947
   19MOL0     H 2462  11.634   8.863   8.000 -0.1276 -0.8372 -1.8235
   19MOL0     H 2463  11.554   8.996   8.067  1.5397 -1.3089  0.6937
   19MOL0     H 2464  11.769   9.065   8.076  0.0117  3.2837 -0.1259
   19MOL0     H 2465  11.744   9.135   7.914 -0.9603  1.5126  1.9385
   19MOL0     H 2466  11.854   8.858   7.967 -3.4379 -0.4600 -0.2367
   19MOL0     H 2467  11.840   8.924   7.802  2.7696  1.5972 -1.3597
   19MOL0     H 2468  12.015   9.097   7.856  0.4661  2.1359  1.7564
   19MOL0     H 2469  12.076   8.931   7.890 -2.1433 -0.8375 -1.4080
   19MOL0     H 2470  12.225   9.139   7.909 -0.0080  2.1949 -0.2122
   19MOL0     H 2471  12.401   9.289   7.982  0.3600  1.6570  1.2288
   19MOL0     H 2472  12.430   9.653   8.474  0.2930  0.7530 -1.7219
   19MOL0     H 2473  12.638   9.794   8.526  1.3501  0.3554 -1.9744
   19MOL0     H 2474  13.028   9.611   8.594 -3.2561 -2.7719 -0.0414
   19MOL0     H 2475  12.897   9.602   8.708 -2.0163  0.1557 -1.5587
   19MOL0     H 2476  13.100   9.822   8.653  0.4153 -2.2396 -1.0989
   19MOL0     H 2477  13.088   9.728   8.797 -1.2167 -0.8429 -0.2709
   19MOL0     H 2478  12.984   9.925   8.893 -1.6089 -2.2564  1.6552
   19MOL0     H 2479  12.846   9.845   8.843  0.6568 -2.7181 -0.2826
   19MOL0     H 2480  12.799   9.986   8.654 -0.2543  1.1269  1.2441
   19MOL0     H 2481  12.850  10.089   8.783 -0.5815 -0.1950 -1.5866
   19MOL0     H 2482  13.040  10.026   8.564  3.2168 -0.6621  1.3342
   19MOL0     H 2483  13.092  10.089   8.710  1.0954  0.9947 -0.5408
   19MOL0     H 2484  13.079  10.254   8.544 -0.5407 -0.7202  0.1781
   19MOL0     H 2485  12.988  10.301   8.688  0.0196  0.6499 -0.4218
   19MOL0     H 2486  12.787  10.258   8.593  0.1084 -0.5719  0.7384
   19MOL0     H 2487  12.864  10.375   8.490 -2.2698  1.1685  2.5521
   19MOL0     H 2488  12.808  10.079   8.430  1.3143  0.0251  1.1058
   19MOL0     H 2489  12.920  10.178   8.322  0.2443 -1.6318  0.0016
   19MOL0     H 2490  12.897   9.475   8.475  0.7811  0.9304 -0.3198
   19MOL0     H 2491  12.704   9.330   8.400  3.4086  0.7406 -2.5964
   19MOL0     H 2492  12.266   9.249   8.387  1.1518 -1.1857  0.7953
   19MOL0     H 2493  12.085   9.096   8.316  1.1003  0.8522  2.1082
   19MOL0     H 2494  10.729   8.875   7.306  0.0580 -1.1899  0.1215
   19MOL0     H 2495  10.540   8.991   7.195  0.8671 -0.9041  1.8581
   19MOL0     H 2496  10.150   8.841   6.945  0.1077 -2.0546 -1.1224
   19MOL0     H 2497   9.992   8.857   6.747  0.2602 -0.7493 -1.3975
   19MOL0     H 2498   9.963   8.830   6.516  3.5884  0.8691 -0.1399
   19MOL0     H 2499   9.918   8.941   6.380 -3.8388 -2.1206  0.9306
   19MOL0     H 2500   9.799   8.977   6.654  0.4489  1.1782 -0.6716
   19MOL0     H 2501   9.757   9.049   6.498 -3.5177 -0.0442  1.1910
   19MOL0     H 2502   9.744   8.758   6.566  3.2149 -0.0837 -1.2573
   19MOL0     H 2503   9.689   8.831   6.412 -3.5802 -1.0495  0.0822
   19MOL0     H 2504   9.545   8.910   6.656  2.6508 -1.1223 -0.4740
   19MOL0     H 2505   9.505   8.959   6.492 -0.8826  1.1254  2.1199
   19MOL0     H 2506   9.341   8.577   6.475  0.0085  0.0780 -0.0572
   19MOL0     H 2507  10.242   9.157   6.565 -2.6110 -0.2116  0.0787
   19MOL0     H 2508  10.403   9.133   6.744  0.2139  1.7247  0.4933
   20MOL0     O 2509   5.824   4.984   6.485 -1.0916 -0.3245  0.4652
   20MOL0     C 2510   5.796   4.936   6.592 -0.5830 -0.6861 -0.5978
   20MOL0     O 2511   5.749   5.003   6.700 -0.0443 -1.1404 -0.5440
   20MOL0     C 2512   5.739   5.139   6.679  0.7536 -0.0735 -0.1689
   20MOL0     C 2513   5.835   5.225   6.717 -0.8863 -0.5506  0.5997
   20MOL0     C 2514   5.829   5.359   6.693  0.4364 -0.0742  0.4636
   20MOL0     C 2515   5.714   5.425   6.630  0.2741  0.2600 -0.3185
   20MOL0     O 2516   5.687   5.560   6.618 -1.1906 -0.2965  0.1367
   20MOL0     C 2517   5.792   5.646   6.661 -0.4511  0.1616 -0.3838
   20MOL0     C 2518   5.752   5.788   6.619 -0.5021 -0.7428  0.3079
   20MOL0     C 2519   5.859   5.889   6.622 -0.7757 -0.4782  0.1348
   20MOL0     C 2520   5.879   5.935   6.769  0.3042 -1.0763 -0.8718
   20MOL0     C 2521   5.979   6.046   6.786  0.4590 -1.0791 -0.4693
   20MOL0     C 2522   6.001   6.094   6.931 -0.7246  0.7721  0.8935
   20MOL0     C 2523   6.100   6.208   6.945  0.0267 -0.1761 -0.3424
   20MOL0     C 2524   6.025   6.334   6.900 -1.3341 -0.5597 -0.7428
   20MOL0     N 2525   6.082   6.444   6.976 -0.7607 -0.6034  0.4128
   20MOL0     C 2526   6.204   6.508   6.975 -0.0541  0.9840  0.2106
   20MOL0     C 2527   6.194   6.620   7.040  0.1654 -0.3294  0.5897
   20MOL0     C 2528   6.295   6.718   7.066 -0.2962  0.4761  0.2673
   20MOL0     C 2529   6.271   6.847   6.986 -1.5001 -0.2892 -0.0438
   20MOL0     C 2530   6.363   6.951   7.042 -0.3582 -0.0872 -1.4896
   20MOL0     C 2531   6.383   7.087   6.980 -0.5148  0.3018  0.4752
   20MOL0     O 2532   6.493   7.151   7.049 -0.5302  0.6501  0.1653
   20MOL0     C 2533   6.550   7.258   6.992  0.2796  0.1316 -0.5556
   20MOL0     C 2534   6.486   7.362   6.923  1.0833  0.3643 -0.0308
   20MOL0     C 2535   6.563   7.467   6.856  0.1450  0.1444 -0.3142
   20MOL0     C 2536   6.702   7.464   6.881 -0.7727  0.2499 -0.0462
   20MOL0     C 2537   6.797   7.569   6.826 -0.6897 -0.5022  0.1730
   20MOL0     O 2538   6.741   7.684   6.768  0.0529  0.8766  0.7833
   20MOL0     C 2539   6.807   7.805   6.747 -1.4321 -0.5598 -0.4375
   20MOL0     C 2540   6.895   7.854   6.845 -0.1215  0.5054 -0.4896
   20MOL0     C 2541   6.971   7.971   6.825 -0.3677 -0.2603 -1.0403
   20MOL0     C 2542   6.950   8.039   6.705  0.4377 -0.2687 -1.0708
   20MOL0     O 2543   7.023   8.149   6.694  0.3861  0.2333  0.6478
   20MOL0     C 2544   6.960   8.271   6.647 -0.0187 -0.4705 -0.0118
   20MOL0     C 2545   7.064   8.385   6.671 -0.2824 -0.1633  0.6986
   20MOL0     C 2546   7.037   8.516   6.584 -0.8877 -0.3238  0.7882
   20MOL0     C 2547   6.908   8.575   6.639 -0.5321 -0.2596 -0.2673
   20MOL0     C 2548   6.858   8.691   6.554  0.4951 -0.1450  1.2652
   20MOL0     C 2549   6.722   8.725   6.606  0.2823  0.3997 -0.3658
   20MOL0     C 2550   6.670   8.860   6.552  0.1484 -0.6282 -0.0911
   20MOL0     C 2551   6.760   8.982   6.575 -0.5389 -0.6237 -1.1295
   20MOL0    Cl 2552   6.694   9.132   6.500  0.2093 -0.2817 -0.8191
   20MOL0     C 2553   6.859   8.002   6.608  0.7768  0.3451 -1.1040
   20MOL0     C 2554   6.793   7.881   6.625 -0.9685 -0.1979  0.2735
   20MOL0     O 2555   6.917   7.549   6.835 -0.0619 -0.8598  0.0231
   20MOL0     C 2556   6.763   7.365   6.961  0.6044 -0.0611 -0.8113
   20MOL0     C 2557   6.689   7.262   7.016 -0.1815 -0.0801  0.1515
   20MOL0     N 2558   6.069   6.633   7.097  0.3161  1.0090  0.3336
   20MOL0     N 2559   6.000   6.526   7.053 -0.0297  0.2037 -0.0956
   20MOL0     C 2560   5.618   5.339   6.594  0.5615  0.3194 -0.5083
   20MOL0     C 2561   5.629   5.202   6.619  0.5736  0.1155 -0.6186
   20MOL0     C 2562   5.818   4.787   6.610  0.2138  0.1597 -0.0983
   20MOL0     C 2563   5.756   4.726   6.721 -0.0719 -0.6190  0.5563
   20MOL0     C 2564   5.768   4.594   6.740 -0.0241  0.3452  0.1053
   20MOL0     C 2565   5.855   4.511   6.663  0.2356 -0.0942  0.6096
   20MOL0     O 2566   5.873   4.379   6.707  0.3814  0.2503 -0.3866
   20MOL0     C 2567   5.936   4.276   6.629  1.1899 -0.6027 -0.0068
   20MOL0     C 2568   6.078   4.239   6.667 -0.3267 -0.4765  0.7522
   20MOL0     C 2569   6.077   4.134   6.774  0.5655  0.4385 -0.0242
   20MOL0     C 2570   6.208   4.058   6.789  0.2807  0.0420  0.2408
   20MOL0     C 2571   6.318   4.152   6.829 -0.8452  0.5028  0.1483
   20MOL0     C 2572   6.414   4.210   6.866 -0.1475 -0.1268 -0.3878
   20MOL0     C 2573   5.914   4.568   6.546 -0.2807  0.0907  0.0712
   20MOL0     C 2574   5.886   4.708   6.520  0.2900  0.2082  0.7585
   20MOL0     H 2575   5.928   5.183   6.753 -1.1185 -0.8489  0.8546
   20MOL0     H 2576   5.921   5.414   6.708  1.7163 -2.7648  3.7225
   20MOL0     H 2577   5.888   5.615   6.620  0.2058  1.1247  0.3713
   20MOL0     H 2578   5.813   5.636   6.768  1.1764 -0.9041 -0.7798
   20MOL0     H 2579   5.668   5.806   6.686 -0.7526 -1.4693  0.1909
   20MOL0     H 2580   5.726   5.783   6.513  1.5009  1.4326 -0.3776
   20MOL0     H 2581   5.828   5.976   6.563  1.5152  0.9322  0.8809
   20MOL0     H 2582   5.950   5.848   6.577 -1.6953 -1.0524 -1.2882
   20MOL0     H 2583   5.796   5.967   6.832  0.9920 -2.4454  0.8305
   20MOL0     H 2584   5.920   5.846   6.818  0.0616  0.0714  1.5533
   20MOL0     H 2585   5.945   6.136   6.735 -1.4282  0.6585  3.4323
   20MOL0     H 2586   6.074   6.012   6.743  2.2252  0.7145  1.7495
   20MOL0     H 2587   6.061   6.010   6.969  2.3191  1.8983 -1.0505
   20MOL0     H 2588   5.903   6.116   6.976 -2.8909 -2.1745 -1.8996
   20MOL0     H 2589   6.142   6.214   7.046  3.6794 -2.2231 -1.5498
   20MOL0     H 2590   6.194   6.189   6.893  0.3160  0.4556 -0.0617
   20MOL0     H 2591   5.921   6.325   6.935 -0.6440  0.9251  2.0121
   20MOL0     H 2592   6.031   6.352   6.793 -2.5765  4.2492 -0.2383
   20MOL0     H 2593   6.292   6.471   6.924 -0.0491  1.9249 -0.4998
   20MOL0     H 2594   6.393   6.670   7.057  1.0519  3.3694 -2.7357
   20MOL0     H 2595   6.295   6.737   7.174  3.6259 -2.3904  0.9792
   20MOL0     H 2596   6.169   6.886   6.990 -1.1490  0.8815 -1.5879
   20MOL0     H 2597   6.303   6.832   6.882  1.4621 -0.4753  0.7891
   20MOL0     H 2598   6.348   6.968   7.149  0.1754  0.9405 -1.5710
   20MOL0     H 2599   6.462   6.906   7.049  0.3029  1.1635 -2.5330
   20MOL0     H 2600   6.294   7.151   6.978 -0.5256  0.4722 -3.6691
   20MOL0     H 2601   6.392   7.068   6.872  2.9215  1.1601  0.4770
   20MOL0     H 2602   6.378   7.356   6.917  1.0519 -0.3565  1.0156
   20MOL0     H 2603   6.519   7.540   6.788  2.1267  3.9508  2.1493
   20MOL0     H 2604   6.927   7.806   6.937 -2.0174 -0.6965 -0.4071
   20MOL0     H 2605   7.036   8.017   6.898 -2.7125  2.2581 -0.3608
   20MOL0     H 2606   6.871   8.304   6.701  0.9415  3.3403 -0.4257
   20MOL0     H 2607   6.936   8.270   6.540 -0.5869 -1.6685  0.1229
   20MOL0     H 2608   7.150   8.335   6.625 -0.3965  2.1309 -2.2915
   20MOL0     H 2609   7.069   8.412   6.777  0.8029  2.1414  0.1164
   20MOL0     H 2610   7.007   8.495   6.481 -1.0198 -3.4515  1.3673
   20MOL0     H 2611   7.131   8.571   6.580  1.3298 -3.7956  0.7463
   20MOL0     H 2612   6.832   8.496   6.641 -0.5282 -0.2522  0.9207
   20MOL0     H 2613   6.935   8.603   6.741  5.1417 -1.5077 -1.0797
   20MOL0     H 2614   6.838   8.656   6.453 -0.2180 -0.9800  1.6842
   20MOL0     H 2615   6.922   8.780   6.548 -1.9220  1.6392 -4.0209
   20MOL0     H 2616   6.723   8.724   6.715  2.0131 -2.4857 -0.3064
   20MOL0     H 2617   6.656   8.643   6.575  0.1707  0.9196 -1.5773
   20MOL0     H 2618   6.655   8.840   6.445 -2.0950 -2.2622  0.4322
   20MOL0     H 2619   6.571   8.879   6.594  0.3978 -0.5957  0.4863
   20MOL0     H 2620   6.862   8.964   6.542 -0.3407 -0.4632 -0.6209
   20MOL0     H 2621   6.764   9.004   6.683  0.1832 -3.9457 -0.3615
   20MOL0     H 2622   6.836   8.058   6.518  2.1543  2.4409 -0.2186
   20MOL0     H 2623   6.729   7.851   6.542 -0.3103 -0.4132 -0.1684
   20MOL0     H 2624   6.862   7.376   7.004  0.5737  0.9603 -0.9674
   20MOL0     H 2625   6.730   7.188   7.085 -0.5227  0.6128  1.1118
   20MOL0     H 2626   5.523   5.385   6.567  2.4878  5.7388  0.5735
   20MOL0     H 2627   5.550   5.135   6.586 -0.7650  1.3740 -0.0848
   20MOL0     H 2628   5.686   4.786   6.777  0.7543  2.5613 -1.5788
   20MOL0     H 2629   5.731   4.555   6.835 -2.8385  0.9241 -0.6745
   20MOL0     H 2630   5.944   4.318   6.528  1.2317 -2.8709 -1.0056
   20MOL0     H 2631   5.870   4.192   6.609  2.5659 -1.3487 -1.6976
   20MOL0     H 2632   6.112   4.191   6.574 -1.1145 -1.1290  0.7955
   20MOL0     H 2633   6.131   4.333   6.685 -0.1694 -0.4079 -0.0369
   20MOL0     H 2634   6.006   4.054   6.749  2.3077 -1.0823 -0.3249
   20MOL0     H 2635   6.052   4.183   6.868  0.6759  1.3147 -0.4430
   20MOL0     H 2636   6.193   3.989   6.871 -2.6303 -0.0841 -0.3079
   20MOL0     H 2637   6.235   4.013   6.693 -2.3138 -1.1891  0.0104
   20MOL0     H 2638   6.497   4.257   6.915 -0.8884 -1.0339  1.8426
   20MOL0     H 2639   5.985   4.518   6.482  0.0932 -0.7955  1.1355
   20MOL0     H 2640   5.935   4.755   6.435 -3.6364  1.0703 -1.2538
   21MOL0     O 2641   2.331   8.931  10.267 -0.2423  0.3061 -0.3651
   21MOL0     C 2642   2.453   8.953  10.263  0.0245  0.2658  0.4730
   21MOL0     O 2643   2.505   9.052  10.180 -0.8509 -0.4764 -0.0865
   21MOL0     C 2644   2.431   9.095  10.081 -0.6912 -0.9982  0.1667
   21MOL0     C 2645   2.441   9.033   9.960 -0.3394  1.2354 -1.1559
   21MOL0     C 2646   2.388   9.081   9.839  0.6628  0.4466  0.0827
   21MOL0     C 2647   2.311   9.194   9.853  0.5711  0.1928  0.7307
   21MOL0     O 2648   2.259   9.256   9.739  0.3143 -0.1439 -0.2388
   21MOL0     C 2649   2.162   9.187   9.653  0.0924  0.4734  0.1329
   21MOL0     C 2650   2.031   9.261   9.659 -0.2853  0.1686  0.5882
   21MOL0     C 2651   1.964   9.284   9.801 -0.5441 -0.2559 -0.3918
   21MOL0     C 2652   1.945   9.149   9.860 -1.1794 -0.6932  0.6687
   21MOL0     C 2653   1.927   9.174  10.015  0.3913 -0.6024  0.2169
   21MOL0     C 2654   1.815   9.284  10.051 -0.1505 -0.1694 -0.3311
   21MOL0     C 2655   1.674   9.258   9.982 -0.9062 -0.2973 -0.2679
   21MOL0     C 2656   1.546   9.281  10.070 -0.8265  0.2690  0.3342
   21MOL0     N 2657   1.521   9.183  10.175  0.4793  0.6187  0.2644
   21MOL0     C 2658   1.488   9.045  10.161 -0.5756 -0.3428 -0.0303
   21MOL0     C 2659   1.502   8.997  10.290  0.0831  0.1437 -0.3175
   21MOL0     C 2660   1.463   8.864  10.338 -0.7598  0.0140 -0.4291
   21MOL0     C 2661   1.319   8.849  10.313 -0.6065  0.5636 -0.3663
   21MOL0     C 2662   1.274   8.700  10.361  0.2898 -0.6286 -0.4423
   21MOL0     C 2663   1.132   8.667  10.300  0.6006 -0.5785 -0.3236
   21MOL0     O 2664   1.122   8.529  10.288  0.4910  1.0373 -0.0155
   21MOL0     C 2665   0.995   8.474  10.278  0.4679  0.1402 -0.5888
   21MOL0     C 2666   0.967   8.339  10.321  0.2808  0.3194 -0.0182
   21MOL0     C 2667   0.837   8.280  10.309 -0.2201  0.0362 -0.7992
   21MOL0     C 2668   0.729   8.357  10.259 -0.8640  0.6618  0.3453
   21MOL0     C 2669   0.599   8.289  10.238  0.7437 -0.5122 -0.7223
   21MOL0     O 2670   0.502   8.358  10.177 -0.3115  0.5573 -0.5227
   21MOL0     C 2671   0.383   8.293  10.146  0.1507  0.6826  0.0531
   21MOL0     C 2672   0.382   8.242  10.014  0.7267  1.0755 -0.6755
   21MOL0     C 2673   0.258   8.201   9.965 -0.2468  0.1148  0.9274
   21MOL0     C 2674   0.137   8.198  10.043  0.2572 -0.7044 -0.1105
   21MOL0     O 2675   0.015   8.137  10.007  0.4729 -0.3209  0.2978
   21MOL0     C 2676   0.034   8.004   9.970  0.0504 -0.3231  0.6377
   21MOL0     C 2677   0.037   7.907  10.097  1.0664 -0.7435 -0.3535
   21MOL0     C 2678  -0.096   7.927  10.181 -0.1542 -0.2023  1.1909
   21MOL0     C 2679  -0.113   7.801  10.268 -0.3593  0.5412 -0.8531
   21MOL0     C 2680  -0.149   7.823  10.418  0.3404 -1.6031 -0.2692
   21MOL0     C 2681  -0.022   7.851  10.508  1.4540  0.5247  0.3319
   21MOL0     C 2682  -0.064   7.872  10.649 -0.2514  0.1364 -0.3319
   21MOL0     C 2683   0.055   7.915  10.740  0.6061  0.1545  0.8118
   21MOL0    Cl 2684   0.079   8.082  10.715  0.0563 -0.1351  0.3269
   21MOL0     C 2685   0.143   8.256  10.171 -0.3708  0.3723 -1.0663
   21MOL0     C 2686   0.269   8.300  10.227 -0.5839  1.3337  0.0223
   21MOL0     O 2687   0.603   8.166  10.251  0.3255  0.1719 -0.4910
   21MOL0     C 2688   0.758   8.492  10.222  0.0440  0.0004 -0.0404
   21MOL0     C 2689   0.885   8.546  10.222 -0.4280  0.0769  0.1603
   21MOL0     N 2690   1.547   9.092  10.371  0.7729  0.0212  0.1090
   21MOL0     N 2691   1.557   9.203  10.304 -1.0960 -0.6329  0.1388
   21MOL0     C 2692   2.308   9.270   9.974 -0.7143 -0.0408  0.2028
   21MOL0     C 2693   2.354   9.211  10.092 -0.0866 -1.0165  1.0848
   21MOL0     C 2694   2.555   8.885  10.351 -0.2185 -0.0798 -0.7797
   21MOL0     C 2695   2.687   8.942  10.367  0.3809  0.9024  0.0934
   21MOL0     C 2696   2.785   8.863  10.416 -0.2841 -0.5047  1.0393
   21MOL0     C 2697   2.765   8.745  10.476 -0.2963  0.5454  0.7223
   21MOL0     O 2698   2.872   8.682  10.533  0.9851  0.0606  0.4908
   21MOL0     C 2699   2.888   8.681  10.676  0.4039 -0.2342  0.5690
   21MOL0     C 2700   2.976   8.806  10.703  1.4458  0.4933 -0.1256
   21MOL0     C 2701   3.092   8.813  10.605 -0.3463 -0.3998 -0.0125
   21MOL0     C 2702   3.188   8.931  10.635  1.1022  0.0748  0.1252
   21MOL0     C 2703   3.267   8.915  10.749 -0.1031  0.5199  0.5126
   21MOL0     C 2704   3.350   8.903  10.842 -0.3648  1.0865  0.5283
   21MOL0     C 2705   2.627   8.693  10.482 -0.0270 -0.1061 -0.2755
   21MOL0     C 2706   2.533   8.769  10.422  0.4563 -1.0263  0.0757
   21MOL0     H 2707   2.499   8.941   9.957 -1.7470  0.2917 -0.5232
   21MOL0     H 2708   2.401   9.029   9.745 -0.3678 -1.2502  0.8215
   21MOL0     H 2709   2.145   9.084   9.685 -2.1701  1.0188  0.8420
   21MOL0     H 2710   2.194   9.179   9.549  0.9089  0.8475  0.3497
   21MOL0     H 2711   1.964   9.203   9.594  0.8005 -1.4422  0.8425
   21MOL0     H 2712   2.048   9.359   9.614 -0.2922 -0.9571 -2.0587
   21MOL0     H 2713   1.869   9.334   9.782  0.4852  0.5601 -4.3362
   21MOL0     H 2714   2.029   9.358   9.849  1.4433 -1.0106 -1.7782
   21MOL0     H 2715   1.852   9.103   9.823 -0.7309 -0.3327 -0.9675
   21MOL0     H 2716   2.034   9.087   9.847  0.5903  1.7435  0.6879
   21MOL0     H 2717   2.024   9.216  10.045  1.0793 -0.0758 -2.5158
   21MOL0     H 2718   1.900   9.076  10.056 -0.3559 -2.2105 -3.7034
   21MOL0     H 2719   1.841   9.388  10.032  0.1054 -0.2235 -0.2748
   21MOL0     H 2720   1.803   9.284  10.160  2.1874 -2.5373  0.0442
   21MOL0     H 2721   1.667   9.318   9.891 -0.2613  0.8709  0.4273
   21MOL0     H 2722   1.675   9.154   9.946 -0.4385 -0.3184 -0.1963
   21MOL0     H 2723   1.469   9.291   9.992  2.0436  1.8002 -2.5293
   21MOL0     H 2724   1.541   9.383  10.109  0.8122  0.1228  0.9891
   21MOL0     H 2725   1.443   8.986  10.082 -1.2012 -2.2236  1.6417
   21MOL0     H 2726   1.476   8.853  10.446 -5.8005 -2.1301  0.2275
   21MOL0     H 2727   1.526   8.799  10.277 -3.3452 -1.1061 -2.0755
   21MOL0     H 2728   1.306   8.855  10.205  0.8623 -3.6705 -0.9653
   21MOL0     H 2729   1.267   8.927  10.368  2.5267  2.0197  0.7505
   21MOL0     H 2730   1.354   8.634  10.325  1.4218  0.7161 -0.4814
   21MOL0     H 2731   1.264   8.674  10.467 -0.5887 -0.3844 -0.4565
   21MOL0     H 2732   1.123   8.711  10.200  1.1048  1.3087  0.4085
   21MOL0     H 2733   1.058   8.704  10.371  0.1375 -2.1904  0.0803
   21MOL0     H 2734   1.049   8.273  10.350  0.5205  1.2679  1.5933
   21MOL0     H 2735   0.825   8.174  10.330 -3.5559  0.4634  0.1144
   21MOL0     H 2736   0.479   8.224   9.970  2.5101 -1.3000  3.6209
   21MOL0     H 2737   0.265   8.184   9.858  1.5246 -1.7870  1.2780
   21MOL0     H 2738   0.130   7.986   9.920  0.3116  1.1954  0.5373
   21MOL0     H 2739  -0.037   7.969   9.895 -1.2015  1.7688  0.7641
   21MOL0     H 2740   0.126   7.929  10.157  2.5068 -1.6629 -2.0430
   21MOL0     H 2741   0.040   7.810  10.046 -1.3905 -0.7206 -0.6368
   21MOL0     H 2742  -0.174   7.933  10.105  1.7964  0.2126 -0.8950
   21MOL0     H 2743  -0.086   8.015  10.245  2.1203 -0.2058  0.9133
   21MOL0     H 2744  -0.175   7.729  10.215  4.5505 -3.4234 -2.0017
   21MOL0     H 2745  -0.016   7.751  10.263  0.8202  2.7269 -1.1384
   21MOL0     H 2746  -0.206   7.738  10.455 -0.4317 -0.1659  2.0331
   21MOL0     H 2747  -0.226   7.899  10.437  1.0351 -1.0544  0.4362
   21MOL0     H 2748   0.036   7.939  10.477  0.4022  2.5104  3.5653
   21MOL0     H 2749   0.041   7.762  10.506  2.8791  1.4356  1.7370
   21MOL0     H 2750  -0.144   7.945  10.660 -1.1475 -0.7636 -0.7373
   21MOL0     H 2751  -0.092   7.779  10.699 -0.4547 -0.0946 -0.8693
   21MOL0     H 2752   0.146   7.860  10.715 -0.1367  0.1118 -2.1897
   21MOL0     H 2753   0.031   7.900  10.846  0.3678  3.1186  1.2572
   21MOL0     H 2754   0.056   8.261  10.236  1.8499 -0.6135  2.2686
   21MOL0     H 2755   0.260   8.353  10.321 -3.8612 -0.5484  0.9138
   21MOL0     H 2756   0.678   8.555  10.184 -0.3693  0.9569  2.2101
   21MOL0     H 2757   0.901   8.639  10.170 -0.8556 -1.2910 -2.6080
   21MOL0     H 2758   2.263   9.368   9.990 -1.2029 -0.5386  2.1252
   21MOL0     H 2759   2.335   9.260  10.186  0.2533  0.0765  0.5967
   21MOL0     H 2760   2.702   9.038  10.318 -0.3570  1.5763  1.1435
   21MOL0     H 2761   2.888   8.895  10.402 -0.1093 -0.5928  2.0983
   21MOL0     H 2762   2.938   8.594  10.720  0.6116 -0.7301 -0.6168
   21MOL0     H 2763   2.785   8.687  10.713  0.7204 -0.6190  1.5529
   21MOL0     H 2764   2.913   8.893  10.682  1.8119  0.4610 -1.4463
   21MOL0     H 2765   3.001   8.818  10.809  0.6730 -0.0913  0.1382
   21MOL0     H 2766   3.058   8.839  10.504  0.5085 -0.2692 -0.2723
   21MOL0     H 2767   3.150   8.721  10.599 -0.5175 -0.4572 -0.9922
   21MOL0     H 2768   3.254   8.932  10.548 -1.2243  3.0269 -1.7962
   21MOL0     H 2769   3.128   9.022  10.644 -0.2216 -0.5893 -1.4740
   21MOL0     H 2770   3.421   8.897  10.922  0.1068 -0.1192  0.0454
   21MOL0     H 2771   2.605   8.594  10.523 -0.8812 -0.3103 -1.2065
   21MOL0     H 2772   2.437   8.719  10.432 -0.8111  1.3636  0.6066
   22MOL0     O 2773   8.053  10.595   4.750 -0.7178  0.1493  0.8266
   22MOL0     C 2774   7.950  10.615   4.812  0.7539 -0.2450  0.1642
   22MOL0     O 2775   7.946  10.651   4.942 -0.7514 -0.0631  0.4448
   22MOL0     C 2776   8.073  10.670   5.001  0.4266  0.2539  0.3274
   22MOL0     C 2777   8.136  10.550   5.063 -0.2793  1.3728 -0.3655
   22MOL0     C 2778   8.261  10.568   5.118 -0.0929  0.7744  0.3264
   22MOL0     C 2779   8.340  10.678   5.100  0.2251 -0.4869 -0.9503
   22MOL0     O 2780   8.462  10.694   5.162  0.4416  0.1403  0.4012
   22MOL0     C 2781   8.562  10.731   5.066 -0.1560  0.6187  0.5140
   22MOL0     C 2782   8.564  10.670   4.921  0.5766 -0.2517 -0.6032
   22MOL0     C 2783   8.642  10.762   4.822 -0.5585  0.0301 -0.5654
   22MOL0     C 2784   8.657  10.699   4.673 -0.3325 -0.0649 -0.4213
   22MOL0     C 2785   8.522  10.662   4.608  0.2804  0.2985 -0.5157
   22MOL0     C 2786   8.533  10.557   4.494  0.0269 -0.1050  0.6091
   22MOL0     C 2787   8.403  10.490   4.442  1.3645 -1.0172  0.3857
   22MOL0     C 2788   8.299  10.456   4.543 -0.5786 -0.1430 -0.3520
   22MOL0     N 2789   8.331  10.352   4.642 -0.1099  0.3146 -0.4507
   22MOL0     C 2790   8.325  10.381   4.779 -0.6036 -1.3193  0.1348
   22MOL0     C 2791   8.305  10.255   4.846 -0.1910 -1.3647  1.0992
   22MOL0     C 2792   8.300  10.219   4.990 -0.2242 -0.1787  0.4587
   22MOL0     C 2793   8.436  10.265   5.052 -0.4038 -0.2446 -0.5116
   22MOL0     C 2794   8.559  10.202   4.975 -0.5013 -0.2060 -0.7165
   22MOL0     C 2795   8.693  10.254   5.037 -0.1804 -0.2883 -1.0334
   22MOL0     O 2796   8.727  10.197   5.168 -0.7867  0.3243 -0.0776
   22MOL0     C 2797   8.676  10.256   5.290  0.0569  0.4737  0.6903
   22MOL0     C 2798   8.646  10.389   5.296 -0.0772  0.2172 -0.1704
   22MOL0     C 2799   8.623  10.451   5.421  0.2278 -0.5026 -0.2055
   22MOL0     C 2800   8.615  10.375   5.534  0.5900 -0.2940  0.2339
   22MOL0     C 2801   8.593  10.436   5.668  0.3717  0.3739  0.3543
   22MOL0     O 2802   8.543  10.352   5.763 -0.5192  0.0286 -0.3614
   22MOL0     C 2803   8.549  10.393   5.895 -0.1659 -0.2963  0.3549
   22MOL0     C 2804   8.450  10.476   5.953  0.2606 -0.7709  0.4436
   22MOL0     C 2805   8.448  10.511   6.088 -0.4395 -0.4918  0.0866
   22MOL0     C 2806   8.539  10.457   6.178  1.0503  0.7650  0.5179
   22MOL0     O 2807   8.538  10.468   6.310 -1.0306 -1.0150 -0.8315
   22MOL0     C 2808   8.411  10.442   6.367  0.5387 -0.2690  0.3049
   22MOL0     C 2809   8.413  10.496   6.508  0.0162 -0.9965  0.8428
   22MOL0     C 2810   8.297  10.442   6.580  0.9951 -0.2470  0.3986
   22MOL0     C 2811   8.309  10.288   6.600 -0.1221 -0.2014 -2.1517
   22MOL0     C 2812   8.249  10.242   6.720 -1.0265 -0.3465 -0.1283
   22MOL0     C 2813   8.220  10.091   6.695 -0.3650 -0.3814 -0.2370
   22MOL0     C 2814   8.182  10.021   6.823 -0.2450  0.0196 -0.4790
   22MOL0     C 2815   8.126   9.887   6.801  0.6561 -0.5099 -0.1734
   22MOL0    Cl 2816   7.975   9.888   6.686  0.3996 -0.2526 -0.5404
   22MOL0     C 2817   8.635  10.369   6.118 -0.0126 -0.5831 -0.0843
   22MOL0     C 2818   8.644  10.340   5.983  0.4444 -0.0520  1.1887
   22MOL0     O 2819   8.616  10.555   5.690  0.0905  0.2468  0.2619
   22MOL0     C 2820   8.641  10.233   5.531 -0.1845  0.6415 -0.3916
   22MOL0     C 2821   8.659  10.176   5.411 -0.9429 -0.0599  0.2953
   22MOL0     N 2822   8.290  10.164   4.744 -0.7644 -0.5107  0.6361
   22MOL0     N 2823   8.289  10.224   4.626 -0.1819 -0.7347 -0.2751
   22MOL0     C 2824   8.274  10.797   5.049 -0.3865 -0.4390 -0.8828
   22MOL0     C 2825   8.145  10.788   4.996 -0.0603 -0.0945 -0.5317
   22MOL0     C 2826   7.821  10.591   4.738 -0.0710 -0.3668  0.4796
   22MOL0     C 2827   7.702  10.549   4.798 -0.0352 -0.5283  0.9917
   22MOL0     C 2828   7.585  10.522   4.717  0.2489 -0.8256 -0.0247
   22MOL0     C 2829   7.589  10.530   4.578  0.2564  0.2161  0.4246
   22MOL0     O 2830   7.480  10.508   4.499  0.4181  0.1213  0.5568
   22MOL0     C 2831   7.355  10.468   4.554  0.4746 -0.1471  0.0736
   22MOL0     C 2832   7.255  10.458   4.444 -0.4786  0.0448  0.5569
   22MOL0     C 2833   7.279  10.334   4.350 -0.1327  0.1455 -0.6158
   22MOL0     C 2834   7.185  10.329   4.230  0.4899  0.3037  0.1515
   22MOL0     C 2835   7.134  10.188   4.205  0.0952  0.0135  0.4217
   22MOL0     C 2836   7.132  10.075   4.177  0.3596  0.7546  0.2616
   22MOL0     C 2837   7.711  10.572   4.525 -0.1463 -0.0892  0.5167
   22MOL0     C 2838   7.830  10.597   4.599 -0.5131 -0.9298 -0.1079
   22MOL0     H 2839   8.072  10.463   5.074 -2.4092  3.0214  1.1564
   22MOL0     H 2840   8.305  10.486   5.174 -0.0712  1.1136  0.8124
   22MOL0     H 2841   8.657  10.707   5.115  0.1574  0.9588  0.0771
   22MOL0     H 2842   8.548  10.839   5.073  0.9159  0.6769  2.8113
   22MOL0     H 2843   8.459  10.653   4.895  0.6454 -2.9260  0.6031
   22MOL0     H 2844   8.608  10.571   4.934  0.2544 -0.2539  0.6703
   22MOL0     H 2845   8.744  10.780   4.856 -0.9168  1.1544 -0.0485
   22MOL0     H 2846   8.586  10.855   4.810  2.2035  2.0889  1.3449
   22MOL0     H 2847   8.712  10.761   4.602 -0.4066 -0.4497 -0.8178
   22MOL0     H 2848   8.719  10.609   4.684  0.3850  0.7373  5.7084
   22MOL0     H 2849   8.457  10.745   4.581  1.1465  0.5282 -1.9878
   22MOL0     H 2850   8.470  10.628   4.698  0.7743 -0.9499 -0.6777
   22MOL0     H 2851   8.600  10.482   4.537 -1.7905 -2.9398 -1.1674
   22MOL0     H 2852   8.589  10.601   4.410  1.0541 -1.0349  0.7898
   22MOL0     H 2853   8.362  10.564   4.373 -1.4602 -2.7233  0.0945
   22MOL0     H 2854   8.407  10.401   4.379 -1.2580  1.1453 -3.2343
   22MOL0     H 2855   8.202  10.434   4.496 -1.9369  1.7243  1.3858
   22MOL0     H 2856   8.287  10.551   4.597  0.4378 -0.8098  1.1046
   22MOL0     H 2857   8.332  10.485   4.810  0.6032 -1.4563  0.3722
   22MOL0     H 2858   8.292  10.111   5.003 -0.6979 -0.2042  0.0236
   22MOL0     H 2859   8.217  10.266   5.044  0.2722  1.5185 -0.1678
   22MOL0     H 2860   8.433  10.229   5.155  0.4495  1.4000  0.1296
   22MOL0     H 2861   8.443  10.374   5.062  3.8949 -0.5373  2.2382
   22MOL0     H 2862   8.545  10.094   4.975 -4.7894  0.1692 -0.4184
   22MOL0     H 2863   8.571  10.239   4.873 -1.0403 -1.0623 -1.1027
   22MOL0     H 2864   8.687  10.363   5.035 -0.1092  0.0743  4.3755
   22MOL0     H 2865   8.778  10.221   4.976  1.4623  0.9323  0.4822
   22MOL0     H 2866   8.630  10.450   5.207 -0.0344 -1.3707 -1.2939
   22MOL0     H 2867   8.600  10.557   5.419  0.5797 -0.3719  1.5677
   22MOL0     H 2868   8.384  10.535   5.890  0.3189 -2.3685 -1.1847
   22MOL0     H 2869   8.375  10.577   6.134 -0.4612 -1.0086  0.8167
   22MOL0     H 2870   8.394  10.334   6.359  1.5367 -0.3492 -0.9183
   22MOL0     H 2871   8.328  10.484   6.309  2.6496 -0.1391 -2.8585
   22MOL0     H 2872   8.420  10.605   6.515 -0.4666 -1.0482  3.0649
   22MOL0     H 2873   8.504  10.456   6.553  2.2375  1.4366 -1.1800
   22MOL0     H 2874   8.199  10.454   6.534  1.2643  0.7551  0.0775
   22MOL0     H 2875   8.283  10.500   6.672 -1.1468  1.9906 -1.2014
   22MOL0     H 2876   8.260  10.243   6.514  0.8161  0.6363 -3.1561
   22MOL0     H 2877   8.418  10.276   6.606 -0.1723  0.1621  0.7651
   22MOL0     H 2878   8.162  10.303   6.747 -1.4121 -0.5108 -0.9917
   22MOL0     H 2879   8.319  10.253   6.803 -2.6236 -0.1533  1.2450
   22MOL0     H 2880   8.305  10.034   6.657 -0.2183  0.2375 -0.8454
   22MOL0     H 2881   8.149  10.085   6.613  0.7423  3.3844 -1.6601
   22MOL0     H 2882   8.270  10.011   6.887  0.0837 -0.4553 -0.9953
   22MOL0     H 2883   8.103  10.077   6.874 -2.0765 -0.4534 -2.5966
   22MOL0     H 2884   8.113   9.840   6.898  2.7205  0.8008  0.8242
   22MOL0     H 2885   8.200   9.831   6.743 -0.7728 -1.9404 -0.6986
   22MOL0     H 2886   8.711  10.338   6.189  0.3859  0.5430  0.0075
   22MOL0     H 2887   8.719  10.274   5.941  0.1526 -0.0993  0.7362
   22MOL0     H 2888   8.637  10.166   5.617  2.9859 -1.5251 -1.7250
   22MOL0     H 2889   8.674  10.069   5.412  0.8984  0.1586 -0.3448
   22MOL0     H 2890   8.329  10.889   5.057  0.4666 -1.0845  3.1821
   22MOL0     H 2891   8.090  10.871   4.953  0.6459  0.9287  0.4717
   22MOL0     H 2892   7.698  10.547   4.907  1.0440 -2.8758  1.0420
   22MOL0     H 2893   7.500  10.493   4.778  0.3101 -2.6157 -0.7268
   22MOL0     H 2894   7.322  10.544   4.626 -2.7282  0.0269 -1.4049
   22MOL0     H 2895   7.351  10.367   4.596 -1.1925  0.0639  0.4974
   22MOL0     H 2896   7.149  10.468   4.469 -0.7584 -0.2761 -0.4576
   22MOL0     H 2897   7.269  10.544   4.378 -1.4258  0.7395  1.2326
   22MOL0     H 2898   7.276  10.241   4.407  1.4807 -0.5569 -1.6122
   22MOL0     H 2899   7.377  10.360   4.308 -0.3132 -0.3853 -1.3842
   22MOL0     H 2900   7.101  10.399   4.235 -0.3571 -0.7679  3.0988
   22MOL0     H 2901   7.231  10.356   4.135 -2.8033  1.8747 -1.1147
   22MOL0     H 2902   7.128   9.970   4.157 -0.2603  0.7530  0.3733
   22MOL0     H 2903   7.712  10.568   4.416  0.9617 -2.2200  0.5555
   22MOL0     H 2904   7.924  10.615   4.547 -0.8858  0.3272 -0.3739
   23MOL0     O 2905   8.594   1.663   6.854 -0.8468  0.5614  0.7181
   23MOL0     C 2906   8.650   1.762   6.905 -1.1259 -0.2214 -0.0681
   23MOL0     O 2907   8.602   1.842   7.015  0.1876  0.0094 -0.0504
   23MOL0     C 2908   8.480   1.799   7.069  0.8752 -0.3146 -0.0097
   23MOL0     C 2909   8.435   1.665   7.086 -0.8230 -0.3831 -0.4439
   23MOL0     C 2910   8.306   1.620   7.130 -0.7391 -0.2593  0.0092
   23MOL0     C 2911   8.213   1.721   7.136 -0.3444  0.7435  0.6387
   23MOL0     O 2912   8.086   1.701   7.173 -0.7625 -0.1839 -0.8991
   23MOL0     C 2913   8.062   1.618   7.289 -0.5292 -0.6788  0.2061
   23MOL0     C 2914   7.959   1.514   7.251  0.3205  1.1951 -0.5966
   23MOL0     C 2915   7.827   1.584   7.222  0.0588 -0.8449 -0.7968
   23MOL0     C 2916   7.778   1.676   7.342 -0.1707  0.1943 -0.4357
   23MOL0     C 2917   7.761   1.596   7.477  0.0445  0.5934  0.0159
   23MOL0     C 2918   7.652   1.497   7.472  0.6283 -0.4280  0.6999
   23MOL0     C 2919   7.665   1.375   7.553  0.2973 -0.3915 -0.7461
   23MOL0     C 2920   7.684   1.406   7.712  0.2404 -0.3696  0.0084
   23MOL0     N 2921   7.570   1.476   7.780 -0.4440  0.6092 -0.5995
   23MOL0     C 2922   7.440   1.446   7.771  0.5820  0.3293 -0.1230
   23MOL0     C 2923   7.378   1.526   7.857 -0.2206 -0.2273 -0.3574
   23MOL0     C 2924   7.233   1.504   7.899  0.0697  0.0046  0.1254
   23MOL0     C 2925   7.221   1.359   7.951 -0.6609 -0.3668  0.1900
   23MOL0     C 2926   7.099   1.343   8.041  0.1443  0.5002  0.9985
   23MOL0     C 2927   7.065   1.192   8.072  0.4162 -0.1162  0.3847
   23MOL0     O 2928   7.160   1.161   8.171  0.1530 -0.4954  0.1404
   23MOL0     C 2929   7.145   1.040   8.243 -0.1180 -0.6262 -0.2962
   23MOL0     C 2930   7.035   0.955   8.229  1.2300  0.9518  0.1859
   23MOL0     C 2931   7.037   0.824   8.296 -0.0617  0.4190  0.1227
   23MOL0     C 2932   7.139   0.780   8.370 -0.9673  0.1668  0.2367
   23MOL0     C 2933   7.142   0.637   8.425  0.2591  0.1960  0.0739
   23MOL0     O 2934   7.026   0.561   8.411 -0.2208 -0.1169  0.3312
   23MOL0     C 2935   7.026   0.444   8.472 -0.4123  1.6637  0.5981
   23MOL0     C 2936   7.102   0.342   8.420 -0.6769  0.0701  0.6766
   23MOL0     C 2937   7.100   0.206   8.467  0.8986  0.4531  0.5742
   23MOL0     C 2938   7.016   0.174   8.575 -0.2965  0.1263 -0.7789
   23MOL0     O 2939   7.021   0.035   8.611  0.1321  0.0336 -0.2009
   23MOL0     C 2940   6.925  -0.017   8.697 -0.0550 -0.0826  0.2682
   23MOL0     C 2941   6.974  -0.155   8.739 -0.7836 -0.5001  0.5641
   23MOL0     C 2942   7.083  -0.161   8.853  1.4171 -0.5047  0.4523
   23MOL0     C 2943   7.025  -0.260   8.955  0.7586  0.2417 -1.2052
   23MOL0     C 2944   7.130  -0.295   9.065  0.2779  0.4246  0.2576
   23MOL0     C 2945   7.183  -0.171   9.130 -1.1916 -0.1683 -0.8388
   23MOL0     C 2946   7.072  -0.103   9.206 -0.0447  0.3236 -0.8076
   23MOL0     C 2947   7.121   0.039   9.260 -0.6432 -0.4139  0.3004
   23MOL0    Cl 2948   7.263   0.032   9.360  0.2106  0.0427  0.1281
   23MOL0     C 2949   6.941   0.283   8.633 -0.2907  0.0397 -0.7719
   23MOL0     C 2950   6.944   0.416   8.583  0.6273 -0.2351  0.2923
   23MOL0     O 2951   7.241   0.604   8.485 -0.2309  0.2757  0.8367
   23MOL0     C 2952   7.241   0.878   8.401  0.3148 -0.2828 -0.5047
   23MOL0     C 2953   7.243   0.999   8.333 -0.1049  0.0819  1.2969
   23MOL0     N 2954   7.467   1.622   7.895 -0.7603  0.2565 -0.2792
   23MOL0     N 2955   7.581   1.578   7.858 -1.2393 -0.1648 -0.2964
   23MOL0     C 2956   8.248   1.861   7.116 -0.3668 -0.1785  0.5860
   23MOL0     C 2957   8.384   1.899   7.094  0.4551  0.1700 -0.3959
   23MOL0     C 2958   8.768   1.812   6.820 -0.5198  0.1332 -0.2553
   23MOL0     C 2959   8.781   1.777   6.685 -0.2180 -0.2936  0.8531
   23MOL0     C 2960   8.896   1.804   6.611 -0.0316  0.8931 -0.0878
   23MOL0     C 2961   8.996   1.877   6.671  0.6958 -0.6471 -0.4530
   23MOL0     O 2962   9.103   1.902   6.592 -0.8761 -0.9375 -0.8554
   23MOL0     C 2963   9.226   1.956   6.640  0.3000 -0.5329 -0.0397
   23MOL0     C 2964   9.215   2.116   6.627  0.0350 -0.4704 -0.8741
   23MOL0     C 2965   9.349   2.182   6.616  0.1802  0.8329  0.2873
   23MOL0     C 2966   9.360   2.302   6.520 -0.6020  0.0550 -0.6083
   23MOL0     C 2967   9.267   2.404   6.552  0.6440 -0.6190  0.9323
   23MOL0     C 2968   9.173   2.478   6.581 -0.4219 -0.6027  0.6388
   23MOL0     C 2969   8.984   1.922   6.807  0.2718  1.3355  0.6154
   23MOL0     C 2970   8.873   1.876   6.876  0.3343  0.8381 -1.0790
   23MOL0     H 2971   8.504   1.581   7.078  0.2463  0.2758  1.2386
   23MOL0     H 2972   8.282   1.518   7.159  2.8714 -1.2199  0.0683
   23MOL0     H 2973   8.028   1.665   7.382  1.5158 -0.4566  0.8873
   23MOL0     H 2974   8.156   1.570   7.319 -0.6165 -1.1397 -0.2415
   23MOL0     H 2975   7.948   1.439   7.330  1.2558 -1.2793 -2.6804
   23MOL0     H 2976   7.996   1.454   7.167 -0.8809  0.0297 -0.3393
   23MOL0     H 2977   7.747   1.512   7.204 -1.2693  0.8221 -1.9107
   23MOL0     H 2978   7.819   1.656   7.140 -2.7940 -0.3575 -0.1827
   23MOL0     H 2979   7.841   1.764   7.360  0.5202 -0.4993  0.6520
   23MOL0     H 2980   7.674   1.707   7.328 -0.0233  0.0486 -2.1302
   23MOL0     H 2981   7.752   1.664   7.562 -0.8610  1.3569 -0.6694
   23MOL0     H 2982   7.855   1.546   7.502  0.7712  1.2483 -1.2600
   23MOL0     H 2983   7.632   1.468   7.369 -0.8160  2.2918  0.1086
   23MOL0     H 2984   7.563   1.549   7.509  1.8813  2.8061 -0.4369
   23MOL0     H 2985   7.575   1.312   7.547 -0.8016  0.8285  1.5325
   23MOL0     H 2986   7.751   1.331   7.503 -0.2843 -3.1338  0.4792
   23MOL0     H 2987   7.772   1.468   7.732 -0.6570  0.5325  1.3360
   23MOL0     H 2988   7.696   1.305   7.754  0.0196 -1.5098 -2.4872
   23MOL0     H 2989   7.394   1.368   7.711  0.7646 -0.2734  0.5136
   23MOL0     H 2990   7.164   1.539   7.822 -0.9451 -2.4793 -0.1916
   23MOL0     H 2991   7.225   1.576   7.980  1.5400 -1.3212  1.5390
   23MOL0     H 2992   7.321   1.343   7.993  0.1152 -0.1428 -1.4860
   23MOL0     H 2993   7.209   1.288   7.868  1.6855 -1.6194  0.8032
   23MOL0     H 2994   7.113   1.397   8.135 -2.5598  0.9616  1.2186
   23MOL0     H 2995   7.014   1.378   7.981  1.0914  2.4859  0.6926
   23MOL0     H 2996   7.084   1.136   7.980  1.6757  2.9869 -1.4256
   23MOL0     H 2997   6.963   1.188   8.111  0.4532 -0.6472  0.4288
   23MOL0     H 2998   6.943   0.988   8.182  0.9703 -3.2352 -2.8205
   23MOL0     H 2999   6.948   0.763   8.293  0.4427 -0.3812  0.8537
   23MOL0     H 3000   7.171   0.338   8.337  1.4715 -2.2219  2.4321
   23MOL0     H 3001   7.167   0.136   8.418 -0.5663 -0.1623 -0.6279
   23MOL0     H 3002   6.827  -0.025   8.648 -2.2245  0.7744  4.0988
   23MOL0     H 3003   6.912   0.041   8.789  0.0898  3.2492 -1.6449
   23MOL0     H 3004   7.032  -0.206   8.661  0.1850 -0.0525  0.9855
   23MOL0     H 3005   6.879  -0.204   8.763 -3.1115  4.2028  2.1107
   23MOL0     H 3006   7.100  -0.058   8.888 -0.0878 -0.3552  0.8405
   23MOL0     H 3007   7.180  -0.190   8.813  0.1145 -0.0399 -3.4831
   23MOL0     H 3008   6.929  -0.221   8.991  2.3826  0.1531  4.0457
   23MOL0     H 3009   6.989  -0.352   8.907  0.1915 -0.1623 -0.0623
   23MOL0     H 3010   7.214  -0.345   9.015  0.0615  1.9227 -1.7256
   23MOL0     H 3011   7.076  -0.363   9.132  0.1496  0.1565 -0.1124
   23MOL0     H 3012   7.227  -0.102   9.057 -0.2997  0.9654  0.7015
   23MOL0     H 3013   7.254  -0.191   9.211 -3.2136  1.6680  1.5538
   23MOL0     H 3014   6.989  -0.085   9.138 -0.4482 -1.3482 -0.7791
   23MOL0     H 3015   7.035  -0.160   9.291  2.0095 -0.5168 -0.4014
   23MOL0     H 3016   7.034   0.087   9.306 -0.4355  0.1164  0.1554
   23MOL0     H 3017   7.147   0.100   9.173 -0.9186 -2.6545 -1.4432
   23MOL0     H 3018   6.881   0.254   8.718  1.1976 -1.5641 -0.2040
   23MOL0     H 3019   6.888   0.504   8.614  2.3682  1.0634 -0.1217
   23MOL0     H 3020   7.328   0.859   8.463  0.8570  1.4781 -0.6554
   23MOL0     H 3021   7.313   1.079   8.358 -3.8087  3.4774  1.8793
   23MOL0     H 3022   8.182   1.947   7.121 -0.4259 -0.2784  2.3497
   23MOL0     H 3023   8.409   2.003   7.076 -0.2912  0.0714 -2.2471
   23MOL0     H 3024   8.691   1.742   6.637 -2.5320  2.0804  3.1387
   23MOL0     H 3025   8.925   1.763   6.515  0.4576 -2.1815  1.2483
   23MOL0     H 3026   9.313   1.913   6.589 -0.6975 -1.0641 -1.3395
   23MOL0     H 3027   9.231   1.923   6.745 -0.2735 -2.1735 -0.5025
   23MOL0     H 3028   9.149   2.135   6.542 -0.2844 -2.8233 -1.1989
   23MOL0     H 3029   9.172   2.164   6.716 -1.0386  0.1978 -1.7230
   23MOL0     H 3030   9.424   2.107   6.586 -1.8161 -2.0219  1.9472
   23MOL0     H 3031   9.389   2.209   6.714  4.3197 -0.2277 -0.8884
   23MOL0     H 3032   9.454   2.355   6.538  0.2150  0.0922 -4.2241
   23MOL0     H 3033   9.353   2.262   6.418 -1.0323 -1.4628 -0.0099
   23MOL0     H 3034   9.102   2.552   6.612  1.5978  0.0400  4.2541
   23MOL0     H 3035   9.064   1.982   6.849 -0.6498  1.5920  2.0781
   23MOL0     H 3036   8.866   1.914   6.977  0.3118  2.0661 -1.5338
   24MOL0     O 3037   8.355  11.101   8.542  0.2889 -0.5205  0.4904
   24MOL0     C 3038   8.301  11.129   8.429 -1.2556  0.9515  0.0056
   24MOL0     O 3039   8.348  11.094   8.306 -0.3392  0.5720 -0.3144
   24MOL0     C 3040   8.476  11.046   8.279  0.2633 -0.7058  0.1821
   24MOL0     C 3041   8.493  11.013   8.140 -0.4997 -0.0486  0.3432
   24MOL0     C 3042   8.620  10.971   8.094 -0.4321 -0.2623 -0.4850
   24MOL0     C 3043   8.724  10.962   8.195  0.1309  0.1823  1.1734
   24MOL0     O 3044   8.845  10.905   8.151 -0.1288  0.0157  0.3671
   24MOL0     C 3045   8.946  10.998   8.108 -0.0327 -0.4508  0.0200
   24MOL0     C 3046   9.043  11.038   8.218 -0.5051 -0.1940 -0.0154
   24MOL0     C 3047   9.076  10.927   8.333 -0.1491  0.2041  0.1995
   24MOL0     C 3048   9.152  10.999   8.441  0.4498 -0.1787  1.1534
   24MOL0     C 3049   9.283  10.920   8.476  1.0898  0.3672  0.1545
   24MOL0     C 3050   9.347  10.998   8.595 -1.2260  1.1525  0.3493
   24MOL0     C 3051   9.414  11.135   8.553 -0.5754  0.3701 -0.0052
   24MOL0     C 3052   9.400  11.243   8.660 -0.7082 -0.9981  0.1012
   24MOL0     N 3053   9.515  11.226   8.759 -0.3548 -0.1391 -0.4128
   24MOL0     C 3054   9.505  11.175   8.891 -0.4573 -0.2581  0.1497
   24MOL0     C 3055   9.629  11.154   8.910 -0.4669 -0.1327 -0.5273
   24MOL0     C 3056   9.677  11.079   9.037  0.0993 -0.5218  0.5920
   24MOL0     C 3057   9.575  11.018   9.124 -0.2163  0.1453  0.0782
   24MOL0     C 3058   9.649  10.925   9.229  0.0103  0.1246 -1.3049
   24MOL0     C 3059   9.548  10.849   9.317  0.6652  0.2923  0.1443
   24MOL0     O 3060   9.610  10.722   9.350 -0.0108 -0.2715 -0.1838
   24MOL0     C 3061   9.523  10.644   9.429 -0.5832  0.3518  0.6566
   24MOL0     C 3062   9.585  10.570   9.528 -0.5361 -1.0093 -0.2595
   24MOL0     C 3063   9.513  10.484   9.603 -0.4774 -1.0217 -0.0708
   24MOL0     C 3064   9.378  10.464   9.586  0.1261  0.9258  0.3640
   24MOL0     C 3065   9.300  10.358   9.652 -0.8413  0.9466  0.5813
   24MOL0     O 3066   9.161  10.374   9.655  0.4547 -0.9448  0.1643
   24MOL0     C 3067   9.078  10.295   9.720 -0.7528  0.8330 -0.6895
   24MOL0     C 3068   8.949  10.289   9.669  0.4802 -0.5881 -0.7193
   24MOL0     C 3069   8.855  10.210   9.729  0.1256  0.5708  0.3338
   24MOL0     C 3070   8.891  10.150   9.844 -0.0826 -0.6304  1.0061
   24MOL0     O 3071   8.785  10.103   9.916  0.2377 -0.2949  0.0257
   24MOL0     C 3072   8.775   9.965   9.933 -0.1731  0.4132 -0.4713
   24MOL0     C 3073   8.770   9.879   9.812 -0.2657 -0.1181  0.5995
   24MOL0     C 3074   8.763   9.728   9.829  0.8720 -0.4693 -0.4142
   24MOL0     C 3075   8.741   9.654   9.701  0.1955  0.2495  0.5887
   24MOL0     C 3076   8.608   9.684   9.614  0.1659  0.1263  0.0028
   24MOL0     C 3077   8.487   9.662   9.694 -0.3288 -0.5059  0.7039
   24MOL0     C 3078   8.469   9.514   9.720 -1.2652  0.0678 -0.0555
   24MOL0     C 3079   8.354   9.492   9.815  0.0270  1.1683 -0.5086
   24MOL0    Cl 3080   8.307   9.327   9.810  0.3758 -0.1783 -0.1795
   24MOL0     C 3081   9.019  10.144   9.901  1.2470  0.0619  1.1886
   24MOL0     C 3082   9.114  10.221   9.837  0.6484  0.7492 -0.5152
   24MOL0     O 3083   9.363  10.261   9.692 -1.1916 -0.2297  0.7452
   24MOL0     C 3084   9.315  10.542   9.493  0.5671  0.3126 -0.2397
   24MOL0     C 3085   9.388  10.629   9.413 -0.3125  0.4089 -0.2139
   24MOL0     N 3086   9.715  11.190   8.809  0.1804  0.2340 -0.8774
   24MOL0     N 3087   9.645  11.237   8.719  0.4482 -1.1810  0.2738
   24MOL0     C 3088   8.710  11.005   8.321 -1.0213  0.4662 -0.5993
   24MOL0     C 3089   8.586  11.041   8.362 -0.3595  0.4264  0.3186
   24MOL0     C 3090   8.161  11.174   8.422 -0.8759 -0.7401 -0.1463
   24MOL0     C 3091   8.082  11.185   8.535 -0.7691  0.3465 -0.2252
   24MOL0     C 3092   7.953  11.246   8.527 -0.2966 -0.3547  0.6512
   24MOL0     C 3093   7.904  11.279   8.394  0.4629  0.0572  0.3977
   24MOL0     O 3094   7.772  11.329   8.380 -0.1521  0.8382  0.0199
   24MOL0     C 3095   7.669  11.304   8.492 -1.3605 -0.6209 -0.2656
   24MOL0     C 3096   7.531  11.344   8.448  0.1982 -0.4038  0.6153
   24MOL0     C 3097   7.502  11.266   8.322  0.2458  0.5294 -0.0988
   24MOL0     C 3098   7.390  11.326   8.237 -0.0480 -0.2375  0.3884
   24MOL0     C 3099   7.422  11.458   8.191 -0.1594  0.0347  0.2407
   24MOL0     C 3100   7.435  11.579   8.180 -0.4180  0.1246  0.1925
   24MOL0     C 3101   7.978  11.257   8.276  0.4717 -0.2775 -0.0454
   24MOL0     C 3102   8.111  11.224   8.298  0.3039 -0.3043  0.2893
   24MOL0     H 3103   8.414  11.026   8.067 -1.2218  2.9836  1.5109
   24MOL0     H 3104   8.636  10.937   7.992 -3.0531 -3.0421 -0.1116
   24MOL0     H 3105   8.899  11.084   8.059 -2.8980 -2.0455 -0.2411
   24MOL0     H 3106   8.993  10.950   8.022 -0.2034  0.3716 -0.5469
   24MOL0     H 3107   9.006  11.130   8.264  1.4133  0.6514 -0.0944
   24MOL0     H 3108   9.140  11.075   8.185 -0.4765 -2.1336 -2.3275
   24MOL0     H 3109   9.145  10.854   8.290 -2.1329 -0.2082 -2.5341
   24MOL0     H 3110   8.980  10.881   8.360 -0.6249 -0.9358 -2.9844
   24MOL0     H 3111   9.184  11.099   8.411 -3.0845  0.7810  0.2128
   24MOL0     H 3112   9.077  11.006   8.520 -3.1142  0.2452 -2.0309
   24MOL0     H 3113   9.350  10.910   8.390 -0.5276 -0.0470 -1.1156
   24MOL0     H 3114   9.246  10.824   8.513  0.3272 -1.3402 -4.3478
   24MOL0     H 3115   9.426  10.942   8.647 -0.5823 -0.0793 -1.8258
   24MOL0     H 3116   9.266  11.023   8.664 -2.3770 -0.2592 -0.4348
   24MOL0     H 3117   9.519  11.125   8.524 -0.1788  3.0609  0.2730
   24MOL0     H 3118   9.365  11.174   8.463 -1.0817 -0.4829 -0.1119
   24MOL0     H 3119   9.308  11.240   8.718  0.0501 -4.8923  1.3540
   24MOL0     H 3120   9.420  11.339   8.610  3.0760  0.2775  3.5568
   24MOL0     H 3121   9.427  11.136   8.955  1.1965 -0.4319  2.1786
   24MOL0     H 3122   9.721  11.152   9.106 -0.0870 -3.5436  4.2447
   24MOL0     H 3123   9.747  11.000   9.008 -0.4475  0.0177 -2.5359
   24MOL0     H 3124   9.503  10.960   9.065  2.0423 -0.9583 -1.7492
   24MOL0     H 3125   9.524  11.097   9.179 -1.3364 -1.9216  2.1914
   24MOL0     H 3126   9.702  10.849   9.173  1.0004 -0.0839 -0.1247
   24MOL0     H 3127   9.720  10.984   9.287  2.1258 -2.9183 -0.5752
   24MOL0     H 3128   9.453  10.838   9.264  0.0854 -0.3831  1.2768
   24MOL0     H 3129   9.531  10.912   9.405  1.8199  1.3396 -0.3429
   24MOL0     H 3130   9.692  10.577   9.544 -0.7989  0.5423  1.2157
   24MOL0     H 3131   9.552  10.448   9.698 -2.0483  0.9614  1.4227
   24MOL0     H 3132   8.924  10.346   9.580 -0.3576  0.7711  0.3461
   24MOL0     H 3133   8.753  10.205   9.693 -0.0977 -0.5959  1.0776
   24MOL0     H 3134   8.685   9.938   9.991  1.3819  1.6410  2.7783
   24MOL0     H 3135   8.863   9.934   9.990 -1.6962 -3.0618  0.2890
   24MOL0     H 3136   8.850   9.900   9.741 -0.8568 -3.4018 -1.1800
   24MOL0     H 3137   8.675   9.907   9.766  0.0191  1.4595  0.9070
   24MOL0     H 3138   8.686   9.703   9.903  0.6328  1.4056  0.0248
   24MOL0     H 3139   8.855   9.688   9.874  0.8646  0.2710  0.2847
   24MOL0     H 3140   8.822   9.681   9.632  0.1453 -1.9450 -0.4398
   24MOL0     H 3141   8.760   9.546   9.709 -2.0709 -0.5796 -2.9502
   24MOL0     H 3142   8.612   9.618   9.527 -0.4630 -1.6458  1.2394
   24MOL0     H 3143   8.615   9.790   9.589  2.6741  0.3910  1.4623
   24MOL0     H 3144   8.405   9.701   9.634  0.7625  0.8929  0.0624
   24MOL0     H 3145   8.492   9.729   9.780 -1.8275  2.1858 -1.1862
   24MOL0     H 3146   8.460   9.470   9.620  0.9772 -1.3342  0.2971
   24MOL0     H 3147   8.558   9.460   9.753 -0.3349 -0.5167 -3.2329
   24MOL0     H 3148   8.262   9.543   9.783 -0.3093 -0.5314 -2.3782
   24MOL0     H 3149   8.378   9.534   9.914 -0.7815  0.7367 -0.1122
   24MOL0     H 3150   9.028  10.079   9.987 -1.2096 -0.1490  1.3483
   24MOL0     H 3151   9.211  10.228   9.885  0.1014  0.6089  0.6418
   24MOL0     H 3152   9.209  10.531   9.473  0.5335 -0.5563  0.3968
   24MOL0     H 3153   9.328  10.685   9.342 -1.3887  1.7498  1.6665
   24MOL0     H 3154   8.787  10.997   8.398 -1.0447 -0.0644 -0.6242
   24MOL0     H 3155   8.581  11.073   8.466  1.7250  0.2652  0.5084
   24MOL0     H 3156   8.126  11.149   8.627 -0.9992  0.8371  0.0788
   24MOL0     H 3157   7.888  11.268   8.611 -0.7936 -0.7774  0.3826
   24MOL0     H 3158   7.699  11.364   8.579  3.2839 -1.7514 -0.8305
   24MOL0     H 3159   7.668  11.201   8.530 -0.5293 -1.1701 -1.6702
   24MOL0     H 3160   7.449  11.355   8.519 -1.1504  0.9609 -1.0955
   24MOL0     H 3161   7.552  11.445   8.413  3.1973 -0.9411  0.5628
   24MOL0     H 3162   7.471  11.165   8.351  1.1609 -0.1407 -1.3666
   24MOL0     H 3163   7.584  11.243   8.254 -0.9884 -1.8599 -0.8853
   24MOL0     H 3164   7.377  11.258   8.153  1.6744 -0.7772  0.5327
   24MOL0     H 3165   7.302  11.333   8.302 -1.3537 -0.4548 -1.3037
   24MOL0     H 3166   7.445  11.680   8.146 -3.0958  0.1568 -0.7099
   24MOL0     H 3167   7.943  11.272   8.175 -1.5583  0.2205  0.6862
   24MOL0     H 3168   8.171  11.216   8.208  0.4943 -0.4520  0.4305
   25MOL0     O 3169   5.248   5.965   2.603 -0.3939  0.3755  0.3330
   25MOL0     C 3170   5.213   6.072   2.554 -0.7040  0.6221 -0.3336
   25MOL0     O 3171   5.097   6.083   2.484 -0.5002 -0.3783  0.4452
   25MOL0     C 3172   5.014   5.974   2.480 -0.0987  0.2001  0.2226
   25MOL0     C 3173   4.904   5.972   2.557 -0.6278 -0.5903  0.1507
   25MOL0     C 3174   4.824   5.855   2.569  0.6517  0.1844 -0.6905
   25MOL0     C 3175   4.859   5.742   2.498  0.7594  0.2280  0.5647
   25MOL0     O 3176   4.762   5.643   2.505  0.5751  0.2686  0.6047
   25MOL0     C 3177   4.800   5.506   2.538  0.2506  0.7259 -1.1011
   25MOL0     C 3178   4.676   5.401   2.525 -0.1080  0.5111 -0.2758
   25MOL0     C 3179   4.624   5.400   2.383 -0.2407 -0.2089 -0.1989
   25MOL0     C 3180   4.504   5.300   2.379 -0.5048 -0.0279 -0.0403
   25MOL0     C 3181   4.386   5.377   2.326 -0.2474 -0.3411  0.5419
   25MOL0     C 3182   4.265   5.297   2.267  0.2086 -0.0131  0.0955
   25MOL0     C 3183   4.294   5.214   2.141 -0.1602  0.2340 -1.0298
   25MOL0     C 3184   4.175   5.126   2.107  0.4417  0.5559 -0.0314
   25MOL0     N 3185   4.161   4.999   2.172 -0.5456 -0.0523  0.6487
   25MOL0     C 3186   4.044   4.957   2.226 -0.4971 -0.4977  0.2974
   25MOL0     C 3187   4.082   4.834   2.267  0.3524  0.4735 -0.1869
   25MOL0     C 3188   4.000   4.736   2.342  0.9360  0.3816  0.1738
   25MOL0     C 3189   3.956   4.634   2.240  0.0887 -0.0412  0.3094
   25MOL0     C 3190   3.850   4.538   2.293 -0.5746 -0.7575 -0.3345
   25MOL0     C 3191   3.810   4.432   2.190  0.2262  1.3831  0.0339
   25MOL0     O 3192   3.719   4.328   2.249  0.4086 -0.8863 -0.7900
   25MOL0     C 3193   3.654   4.249   2.159 -0.6021  0.9083 -0.1037
   25MOL0     C 3194   3.720   4.206   2.043 -0.6772 -0.1546 -0.8109
   25MOL0     C 3195   3.661   4.110   1.955 -0.3859 -0.1416  1.3479
   25MOL0     C 3196   3.528   4.068   1.977  0.1863 -0.1107  0.2147
   25MOL0     C 3197   3.460   3.987   1.883  0.1706  0.9273 -0.1473
   25MOL0     O 3198   3.319   3.978   1.893 -0.3975  0.0617 -0.4790
   25MOL0     C 3199   3.238   3.896   1.811  0.0715  0.2762 -0.7729
   25MOL0     C 3200   3.284   3.785   1.732 -0.3197 -0.1439  0.0750
   25MOL0     C 3201   3.185   3.726   1.646  0.3079 -0.6493 -1.7595
   25MOL0     C 3202   3.059   3.774   1.625  0.3343 -0.1066 -0.1201
   25MOL0     O 3203   2.958   3.718   1.545  0.7474 -0.8187  0.0955
   25MOL0     C 3204   2.999   3.644   1.433 -0.0849  0.0805  0.6150
   25MOL0     C 3205   2.897   3.645   1.328  0.0023 -0.9114 -0.1082
   25MOL0     C 3206   2.855   3.789   1.282 -0.4338  0.6915  1.1305
   25MOL0     C 3207   2.745   3.793   1.178 -0.9533  0.2020  0.8746
   25MOL0     C 3208   2.665   3.923   1.207  0.9963  0.3472  0.0921
   25MOL0     C 3209   2.533   3.932   1.117  0.2019 -0.0770 -0.5475
   25MOL0     C 3210   2.571   3.993   0.976  1.1965 -0.1800 -0.5443
   25MOL0     C 3211   2.453   3.999   0.887  0.6317  0.1018  0.5412
   25MOL0    Cl 3212   2.309   4.091   0.956 -0.3635  0.0129 -0.0608
   25MOL0     C 3213   3.022   3.881   1.703 -0.2789 -0.1669  0.5142
   25MOL0     C 3214   3.104   3.934   1.799 -0.1715 -0.1328  0.1341
   25MOL0     O 3215   3.527   3.918   1.802 -0.2836  0.3747 -0.4738
   25MOL0     C 3216   3.464   4.133   2.089  0.5159 -0.2117 -0.2755
   25MOL0     C 3217   3.529   4.197   2.183  0.0608  0.1842 -0.3355
   25MOL0     N 3218   4.216   4.808   2.238 -1.3256 -0.5895 -0.6701
   25MOL0     N 3219   4.262   4.906   2.187 -0.6456  0.4721  0.6103
   25MOL0     C 3220   4.969   5.736   2.414  0.1914  0.7498  0.6572
   25MOL0     C 3221   5.050   5.849   2.411  1.0702 -0.1669 -0.6317
   25MOL0     C 3222   5.316   6.175   2.554  0.4254  0.0224  0.7098
   25MOL0     C 3223   5.451   6.145   2.576 -0.3968 -0.0805 -0.5188
   25MOL0     C 3224   5.558   6.233   2.583  0.2476 -0.6296  0.4396
   25MOL0     C 3225   5.528   6.369   2.568 -0.0528 -1.0801  0.7839
   25MOL0     O 3226   5.617   6.474   2.586  0.1053  0.4436  0.3895
   25MOL0     C 3227   5.739   6.445   2.659  0.0477 -0.8206 -0.2289
   25MOL0     C 3228   5.785   6.586   2.712 -0.6466  0.4593  0.0078
   25MOL0     C 3229   5.706   6.617   2.847 -0.2116 -0.3944 -0.0629
   25MOL0     C 3230   5.781   6.713   2.942 -0.8882 -0.4210  0.0828
   25MOL0     C 3231   5.709   6.748   3.071  0.0532  1.0901 -0.2914
   25MOL0     C 3232   5.655   6.780   3.180  0.3667  0.5152  0.3259
   25MOL0     C 3233   5.399   6.408   2.548  0.1198 -0.2525  0.4874
   25MOL0     C 3234   5.290   6.315   2.544  0.2933 -0.0801 -0.6706
   25MOL0     H 3235   4.877   6.059   2.615 -2.1436  0.8449 -2.4854
   25MOL0     H 3236   4.730   5.843   2.622  2.1806 -2.1238  1.7082
   25MOL0     H 3237   4.844   5.501   2.638 -1.0607  2.0448 -0.4094
   25MOL0     H 3238   4.877   5.490   2.462  2.8141  0.7230  1.3576
   25MOL0     H 3239   4.600   5.428   2.600  0.5311  1.0171  0.2018
   25MOL0     H 3240   4.693   5.295   2.544 -1.1949  0.4789  0.6430
   25MOL0     H 3241   4.703   5.360   2.319 -0.6663 -2.6712  0.6981
   25MOL0     H 3242   4.599   5.501   2.351 -1.6412 -0.4264  0.1466
   25MOL0     H 3243   4.523   5.216   2.311  0.3751  0.0133  0.1448
   25MOL0     H 3244   4.497   5.254   2.478  0.3135  1.4112  0.7233
   25MOL0     H 3245   4.421   5.446   2.249 -3.4177  1.7751  0.8064
   25MOL0     H 3246   4.351   5.441   2.407  1.0181  3.4846 -1.6603
   25MOL0     H 3247   4.181   5.365   2.250 -0.1363 -0.4635  0.0019
   25MOL0     H 3248   4.213   5.227   2.333 -1.9897 -0.2275 -1.7566
   25MOL0     H 3249   4.327   5.275   2.056  0.7742  2.0312  0.5327
   25MOL0     H 3250   4.380   5.149   2.162  0.3535  1.0362 -0.5998
   25MOL0     H 3251   4.174   5.097   2.001  0.9312 -0.1988  0.1636
   25MOL0     H 3252   4.084   5.184   2.124  1.7224  3.1759 -1.4409
   25MOL0     H 3253   3.950   5.010   2.239 -1.0294 -1.7106  1.6638
   25MOL0     H 3254   3.916   4.789   2.387 -0.2079 -0.4113 -0.9386
   25MOL0     H 3255   4.058   4.680   2.416 -0.0126 -3.4245 -1.7127
   25MOL0     H 3256   4.052   4.581   2.235  1.2025  1.4799  2.8784
   25MOL0     H 3257   3.930   4.664   2.138 -5.1796 -3.2239  0.3783
   25MOL0     H 3258   3.905   4.487   2.373  1.5536  1.0243 -0.5801
   25MOL0     H 3259   3.763   4.598   2.323  0.1427  2.5505 -4.0028
   25MOL0     H 3260   3.906   4.392   2.154 -0.9338 -1.5553 -0.1351
   25MOL0     H 3261   3.772   4.486   2.103 -1.6107 -0.0824 -0.1383
   25MOL0     H 3262   3.820   4.242   2.023 -1.4375  1.3853 -2.0300
   25MOL0     H 3263   3.716   4.088   1.864  0.1459  1.1186  1.3373
   25MOL0     H 3264   3.380   3.737   1.718  0.2664  0.7188  1.0131
   25MOL0     H 3265   3.222   3.643   1.587  1.3490  0.0853 -2.1757
   25MOL0     H 3266   3.014   3.542   1.469 -1.9523 -0.5379 -0.2312
   25MOL0     H 3267   3.089   3.691   1.390 -1.8426  1.2070 -2.1452
   25MOL0     H 3268   2.804   3.595   1.359  0.7465 -1.3569  1.4990
   25MOL0     H 3269   2.943   3.593   1.244 -0.0187 -2.3677  0.7570
   25MOL0     H 3270   2.944   3.838   1.241 -1.9393 -0.1031 -3.6564
   25MOL0     H 3271   2.832   3.855   1.366 -2.1466 -1.8020  2.7556
   25MOL0     H 3272   2.791   3.790   1.079  2.1022 -1.8037  2.1874
   25MOL0     H 3273   2.685   3.702   1.188 -0.8152 -0.2396 -1.6978
   25MOL0     H 3274   2.723   4.014   1.199  0.6389  0.6488  0.8248
   25MOL0     H 3275   2.616   3.914   1.305 -0.3315 -1.4415 -0.6625
   25MOL0     H 3276   2.467   4.005   1.164 -0.2830 -1.5045  1.1162
   25MOL0     H 3277   2.480   3.838   1.099 -0.9637  0.8147 -1.9109
   25MOL0     H 3278   2.614   4.092   0.991  1.7110 -0.4957  0.0835
   25MOL0     H 3279   2.641   3.931   0.920  0.0700 -2.0421  0.0281
   25MOL0     H 3280   2.424   3.894   0.874  3.9670 -0.7404 -1.2402
   25MOL0     H 3281   2.489   4.032   0.789  3.0481  0.2162  1.3950
   25MOL0     H 3282   2.922   3.919   1.688 -1.1881 -2.5853  0.1066
   25MOL0     H 3283   3.076   4.018   1.862 -3.0323 -1.1023  0.3178
   25MOL0     H 3284   3.360   4.117   2.117  0.5231 -0.6834 -0.5105
   25MOL0     H 3285   3.477   4.214   2.277 -1.2394 -1.9886 -0.5985
   25MOL0     H 3286   4.995   5.650   2.353 -1.1334  0.7174  0.1061
   25MOL0     H 3287   5.138   5.850   2.347  0.6128  1.7787 -1.3136
   25MOL0     H 3288   5.486   6.043   2.574  2.0262  0.6694  0.0297
   25MOL0     H 3289   5.653   6.180   2.593  2.2412  1.5541 -4.0599
   25MOL0     H 3290   5.816   6.416   2.587  1.3909 -0.8481  1.1752
   25MOL0     H 3291   5.720   6.377   2.742  0.4704 -0.2942  0.3140
   25MOL0     H 3292   5.889   6.577   2.746 -1.1927  0.8925  1.9593
   25MOL0     H 3293   5.775   6.650   2.624 -2.3655  0.1133 -0.0829
   25MOL0     H 3294   5.694   6.523   2.902 -0.8672 -1.3360 -1.7531
   25MOL0     H 3295   5.606   6.645   2.812 -1.6865 -1.4922  2.9382
   25MOL0     H 3296   5.879   6.669   2.960  0.6811  1.9685 -1.9658
   25MOL0     H 3297   5.782   6.810   2.891 -2.7556  0.9491  2.4158
   25MOL0     H 3298   5.602   6.812   3.267 -0.3076  4.3883 -1.2951
   25MOL0     H 3299   5.384   6.515   2.541 -0.8599 -0.2854  1.7503
   25MOL0     H 3300   5.190   6.355   2.553  0.7607  1.5567 -2.1674
   26MOL0     O 3301   6.523   6.997   5.808  0.6169 -0.5844  0.1739
   26MOL0     C 3302   6.602   7.093   5.807  0.5952  0.3641  0.4110
   26MOL0     O 3303   6.582   7.207   5.736  0.0854  0.1362 -0.3564
   26MOL0     C 3304   6.468   7.226   5.669 -0.7659 -0.5302  0.2646
   26MOL0     C 3305   6.469   7.281   5.542  0.4750 -0.0342 -0.7621
   26MOL0     C 3306   6.349   7.305   5.475 -0.2682  0.5025 -0.7283
   26MOL0     C 3307   6.222   7.265   5.532  0.2105 -0.2437  1.8940
   26MOL0     O 3308   6.113   7.303   5.460  0.9217 -0.6424  0.3203
   26MOL0     C 3309   5.993   7.229   5.485 -0.1042  0.4090  0.2829
   26MOL0     C 3310   5.883   7.288   5.403 -0.1781  0.7417  0.4768
   26MOL0     C 3311   5.817   7.419   5.465 -0.5314 -0.1702  0.0111
   26MOL0     C 3312   5.916   7.538   5.473 -0.4038 -0.4895 -0.4132
   26MOL0     C 3313   5.867   7.686   5.447  0.5735  0.5128 -1.2710
   26MOL0     C 3314   5.756   7.726   5.549  0.4238 -0.7193  0.1225
   26MOL0     C 3315   5.654   7.827   5.494  0.7532  0.2278 -0.9941
   26MOL0     C 3316   5.565   7.884   5.610 -0.3490 -0.1350 -0.3652
   26MOL0     N 3317   5.520   8.031   5.590 -0.9708  1.3875  0.6697
   26MOL0     C 3318   5.527   8.100   5.468 -0.7957  0.9827 -0.1489
   26MOL0     C 3319   5.496   8.225   5.487  0.2307 -1.3524 -0.4283
   26MOL0     C 3320   5.491   8.336   5.380  0.7504 -0.1019  0.5192
   26MOL0     C 3321   5.477   8.270   5.241  0.5468  0.2007 -0.7888
   26MOL0     C 3322   5.467   8.372   5.127  0.2688  0.1949 -0.8741
   26MOL0     C 3323   5.446   8.317   4.984 -0.0590 -0.2510 -0.8650
   26MOL0     O 3324   5.336   8.223   4.973 -0.6912 -0.6979  0.4201
   26MOL0     C 3325   5.288   8.193   4.850  0.1604 -0.2669  0.1095
   26MOL0     C 3326   5.185   8.111   4.839  1.2887 -0.1782  0.4931
   26MOL0     C 3327   5.135   8.075   4.718  0.3218  0.5721 -0.0689
   26MOL0     C 3328   5.176   8.125   4.595  0.1237 -0.4349 -0.8475
   26MOL0     C 3329   5.109   8.091   4.473  0.3258 -0.0926 -0.6833
   26MOL0     O 3330   5.078   8.185   4.377  0.6437 -0.4884 -0.0082
   26MOL0     C 3331   5.046   8.141   4.246  0.2155 -0.3133 -0.2576
   26MOL0     C 3332   5.139   8.096   4.158 -0.2501 -0.5904  0.4569
   26MOL0     C 3333   5.112   8.049   4.031  0.9383  0.6861  0.2593
   26MOL0     C 3334   4.977   8.048   3.992  0.4700 -0.3435 -0.5876
   26MOL0     O 3335   4.921   8.012   3.870 -0.1002 -0.3311 -0.2334
   26MOL0     C 3336   5.012   7.980   3.762 -0.6444  0.2083  0.5584
   26MOL0     C 3337   4.934   7.932   3.646  0.0621 -0.2240 -0.8232
   26MOL0     C 3338   4.819   8.024   3.612 -0.7310 -0.8116  0.0053
   26MOL0     C 3339   4.863   8.149   3.545 -0.0513 -0.2624  0.6228
   26MOL0     C 3340   4.723   8.223   3.511 -0.5934  0.0741  0.1268
   26MOL0     C 3341   4.748   8.374   3.500  0.6075 -0.0119  0.9932
   26MOL0     C 3342   4.626   8.466   3.451 -0.4190  0.3809  0.5418
   26MOL0     C 3343   4.670   8.607   3.403  0.0907  0.0315  0.0924
   26MOL0    Cl 3344   4.527   8.706   3.443  0.1340  0.0321  0.1762
   26MOL0     C 3345   4.875   8.078   4.087 -0.0808 -0.2535  0.7448
   26MOL0     C 3346   4.913   8.134   4.212  0.7136  1.2558  0.9581
   26MOL0     O 3347   5.094   7.972   4.451 -0.8205 -0.0565  0.1231
   26MOL0     C 3348   5.287   8.214   4.601  0.6791  0.9486  0.4604
   26MOL0     C 3349   5.344   8.248   4.721 -0.0609  0.0853  0.7890
   26MOL0     N 3350   5.466   8.238   5.626 -0.9497 -0.6710  0.9671
   26MOL0     N 3351   5.490   8.120   5.683 -0.3517  0.0128 -0.8161
   26MOL0     C 3352   6.224   7.202   5.647  0.4141 -0.8898  1.0006
   26MOL0     C 3353   6.337   7.193   5.723 -0.5381  0.0713 -0.6187
   26MOL0     C 3354   6.706   7.093   5.911 -0.1761  0.1696  0.7954
   26MOL0     C 3355   6.753   6.971   5.968  1.1902 -0.5138  0.0303
   26MOL0     C 3356   6.851   6.975   6.069 -0.2576 -0.2767 -0.3933
   26MOL0     C 3357   6.896   7.101   6.118  0.0812  0.1016  0.4501
   26MOL0     O 3358   6.981   7.093   6.219 -0.3459 -0.3211  0.0403
   26MOL0     C 3359   7.061   7.208   6.252 -0.0653  0.3777  0.0246
   26MOL0     C 3360   7.159   7.169   6.363 -0.5122  0.3808 -0.3825
   26MOL0     C 3361   7.246   7.056   6.315  0.8004  0.4412  0.2356
   26MOL0     C 3362   7.367   7.060   6.405 -1.1766 -0.1490  0.0188
   26MOL0     C 3363   7.462   6.948   6.391  0.6428 -0.2334  0.9157
   26MOL0     C 3364   7.518   6.843   6.375 -0.0478 -0.8585  0.3098
   26MOL0     C 3365   6.837   7.215   6.059  0.2312  0.5244 -0.8909
   26MOL0     C 3366   6.744   7.215   5.960 -0.5968  0.2147 -1.1329
   26MOL0     H 3367   6.562   7.316   5.498  0.9114  1.8935  1.4885
   26MOL0     H 3368   6.336   7.360   5.383  1.0395  0.9865 -0.6464
   26MOL0     H 3369   5.967   7.240   5.590  4.0861 -0.5389  1.6016
   26MOL0     H 3370   5.997   7.124   5.454 -3.0452 -1.9468  6.3265
   26MOL0     H 3371   5.805   7.211   5.399  2.2495 -1.8908  0.2483
   26MOL0     H 3372   5.898   7.296   5.295  1.4823  0.7689  0.6820
   26MOL0     H 3373   5.774   7.403   5.565 -0.3407 -3.1882 -0.2841
   26MOL0     H 3374   5.731   7.433   5.399 -0.9416  0.5503  0.6789
   26MOL0     H 3375   5.966   7.532   5.570 -0.1908 -1.0045 -0.5526
   26MOL0     H 3376   5.993   7.521   5.398 -0.8121  3.8293 -2.0791
   26MOL0     H 3377   5.826   7.700   5.346  0.7107  1.3307 -1.2211
   26MOL0     H 3378   5.949   7.754   5.468 -2.1366  3.2810  1.3622
   26MOL0     H 3379   5.796   7.772   5.640  3.0982  3.9256 -3.0067
   26MOL0     H 3380   5.698   7.638   5.579  2.0342 -2.2234 -0.9273
   26MOL0     H 3381   5.707   7.911   5.447 -0.2623  1.0861 -0.6355
   26MOL0     H 3382   5.598   7.764   5.425 -2.7158  1.8683  0.0953
   26MOL0     H 3383   5.621   7.890   5.704 -1.4807 -1.7989  0.4581
   26MOL0     H 3384   5.477   7.820   5.624  0.0236 -0.4339  0.7185
   26MOL0     H 3385   5.554   8.051   5.376  0.5420  2.0934 -0.3694
   26MOL0     H 3386   5.581   8.399   5.374  0.7680 -0.0396  1.4057
   26MOL0     H 3387   5.418   8.410   5.415  0.0556 -0.6935  0.3455
   26MOL0     H 3388   5.383   8.213   5.238  1.5803 -1.7106  0.6246
   26MOL0     H 3389   5.559   8.204   5.213 -0.1977 -0.3273 -1.7832
   26MOL0     H 3390   5.377   8.429   5.151 -1.1016 -3.0212  2.4974
   26MOL0     H 3391   5.555   8.437   5.125 -0.0014  0.5556 -2.1372
   26MOL0     H 3392   5.536   8.266   4.949  0.7947 -0.3386  1.3293
   26MOL0     H 3393   5.437   8.406   4.921 -2.4292  0.9238  0.9460
   26MOL0     H 3394   5.145   8.076   4.934  1.1780  1.3128  1.0213
   26MOL0     H 3395   5.057   8.000   4.706  0.5597  0.1854  0.7653
   26MOL0     H 3396   5.245   8.090   4.182 -0.5308 -1.8532  1.4927
   26MOL0     H 3397   5.186   8.018   3.959 -1.4903 -1.7625 -1.3764
   26MOL0     H 3398   5.086   7.908   3.799  0.0607  0.2695 -0.6852
   26MOL0     H 3399   5.070   8.066   3.728  0.8420 -1.0432 -0.2035
   26MOL0     H 3400   4.891   7.835   3.671 -1.4573  0.7370  0.4589
   26MOL0     H 3401   5.007   7.911   3.567 -1.3152 -2.8637 -1.5115
   26MOL0     H 3402   4.748   8.048   3.692 -0.4625  1.2683 -0.3121
   26MOL0     H 3403   4.755   7.975   3.538 -1.3802  1.1503 -0.7996
   26MOL0     H 3404   4.927   8.214   3.605  2.2332 -0.7314 -1.1515
   26MOL0     H 3405   4.925   8.126   3.458  1.3610  0.6109  1.3594
   26MOL0     H 3406   4.650   8.199   3.589  0.0868 -2.1235  0.1513
   26MOL0     H 3407   4.695   8.169   3.420  2.8586  1.3094 -1.8191
   26MOL0     H 3408   4.834   8.402   3.438 -1.0632 -0.1120 -1.5260
   26MOL0     H 3409   4.774   8.411   3.600  0.5399  0.0346  0.9933
   26MOL0     H 3410   4.581   8.410   3.368 -0.7203 -1.8763  2.1356
   26MOL0     H 3411   4.558   8.471   3.536 -2.9362  0.0456 -1.3490
   26MOL0     H 3412   4.688   8.604   3.296  0.4731 -1.0418  0.1773
   26MOL0     H 3413   4.758   8.640   3.459 -0.0941 -1.0716  1.0756
   26MOL0     H 3414   4.773   8.074   4.049  0.5779  2.5365 -1.6241
   26MOL0     H 3415   4.834   8.156   4.283 -0.1561 -1.2866  0.8953
   26MOL0     H 3416   5.323   8.265   4.512 -1.4030 -0.1575 -1.1201
   26MOL0     H 3417   5.430   8.313   4.729  1.5174 -1.8594  0.3927
   26MOL0     H 3418   6.126   7.185   5.690 -0.9837  0.5811 -1.3995
   26MOL0     H 3419   6.325   7.158   5.825 -1.3330  1.9232 -0.0517
   26MOL0     H 3420   6.742   6.871   5.929  2.5422 -2.3662  3.8425
   26MOL0     H 3421   6.894   6.888   6.117 -1.3606 -0.9226 -0.5435
   26MOL0     H 3422   6.999   7.290   6.289  1.6421  1.2512  1.0616
   26MOL0     H 3423   7.103   7.248   6.159 -3.9075  1.9760 -1.2436
   26MOL0     H 3424   7.222   7.252   6.395  1.8239 -2.1595  2.1278
   26MOL0     H 3425   7.092   7.133   6.442  0.0662 -1.9747 -0.8840
   26MOL0     H 3426   7.281   7.056   6.211  5.6608 -0.3478  1.6128
   26MOL0     H 3427   7.196   6.962   6.339 -0.3500  0.9826  0.0409
   26MOL0     H 3428   7.410   7.157   6.380 -2.8194  0.8719  0.9835
   26MOL0     H 3429   7.347   7.052   6.512  1.5024  1.4087  0.7417
   26MOL0     H 3430   7.576   6.755   6.360  0.3442 -0.1396 -3.1962
   26MOL0     H 3431   6.868   7.311   6.101 -1.2578  0.8545 -0.4911
   26MOL0     H 3432   6.718   7.310   5.914 -0.9106  0.4182 -0.5407
   27MOL0     O 3433   4.088   0.542   5.806  0.1550 -0.5753  0.1163
   27MOL0     C 3434   3.980   0.533   5.755 -0.5292 -0.3148  0.2991
   27MOL0     O 3435   3.879   0.621   5.758  1.0622 -0.1359  0.5703
   27MOL0     C 3436   3.886   0.721   5.858  0.1276  0.0490 -0.3425
   27MOL0     C 3437   3.836   0.692   5.991 -1.3200  0.1725 -0.4447
   27MOL0     C 3438   3.856   0.784   6.097  0.9906  1.5485  1.3307
   27MOL0     C 3439   3.922   0.903   6.071 -0.3092  0.3084 -0.9526
   27MOL0     O 3440   3.935   0.990   6.175  0.5310  0.2605 -0.1942
   27MOL0     C 3441   3.998   1.118   6.155  0.4947 -0.6571 -0.1823
   27MOL0     C 3442   4.014   1.191   6.287 -0.0588 -0.0776  0.3398
   27MOL0     C 3443   3.888   1.250   6.340  0.4143  0.1337  0.1728
   27MOL0     C 3444   3.917   1.295   6.482 -0.6935  0.4765  0.4954
   27MOL0     C 3445   3.775   1.320   6.538 -0.4965  0.4697  0.5181
   27MOL0     C 3446   3.779   1.381   6.679  0.7394 -1.3806 -0.6934
   27MOL0     C 3447   3.829   1.532   6.678 -0.8732  0.5985  0.5779
   27MOL0     C 3448   3.724   1.617   6.593 -0.3776  0.1128  0.2941
   27MOL0     N 3449   3.748   1.631   6.448 -0.0620  0.0544 -0.4204
   27MOL0     C 3450   3.866   1.646   6.402 -0.1029 -0.7565  1.1647
   27MOL0     C 3451   3.844   1.649   6.272 -0.2760 -0.1787 -0.1343
   27MOL0     C 3452   3.958   1.631   6.176 -1.0517  0.2772 -0.9791
   27MOL0     C 3453   3.942   1.540   6.050  0.3506 -0.5725  0.5041
   27MOL0     C 3454   4.079   1.498   6.003 -0.5130 -0.5177 -0.2510
   27MOL0     C 3455   4.067   1.419   5.874 -0.3386 -0.0061  0.3873
   27MOL0     O 3456   4.164   1.314   5.878 -0.8272 -0.0553 -0.3491
   27MOL0     C 3457   4.169   1.229   5.767 -0.0449 -0.3128  0.1663
   27MOL0     C 3458   4.107   1.256   5.642  0.3260  0.3845 -0.1692
   27MOL0     C 3459   4.130   1.178   5.531  0.1192 -0.4752 -0.4884
   27MOL0     C 3460   4.186   1.052   5.543  0.5252 -0.3681  0.4470
   27MOL0     C 3461   4.203   0.962   5.433  0.2668  0.3632  0.5306
   27MOL0     O 3462   4.259   0.837   5.449 -0.5109  0.2117 -1.5807
   27MOL0     C 3463   4.275   0.753   5.343  0.5608  0.0301  0.9382
   27MOL0     C 3464   4.237   0.627   5.376  0.0263 -0.0548 -0.0868
   27MOL0     C 3465   4.240   0.518   5.285 -1.3089 -0.5891 -0.3000
   27MOL0     C 3466   4.304   0.540   5.160 -0.3507 -0.3440  0.3831
   27MOL0     O 3467   4.337   0.450   5.071 -0.5868 -0.0902 -0.0933
   27MOL0     C 3468   4.398   0.322   5.111 -0.3441 -0.3959  1.2474
   27MOL0     C 3469   4.366   0.221   4.997 -1.0090  0.0455 -0.2039
   27MOL0     C 3470   4.488   0.162   4.927 -1.0099 -0.0591  0.4063
   27MOL0     C 3471   4.457   0.018   4.884  0.3537 -0.6679 -0.2582
   27MOL0     C 3472   4.537  -0.040   4.771 -0.3124 -0.9537 -0.1559
   27MOL0     C 3473   4.535  -0.190   4.766  0.5277  0.1999  0.0140
   27MOL0     C 3474   4.591  -0.264   4.879 -0.1276  0.8883  0.4069
   27MOL0     C 3475   4.596  -0.416   4.857  0.6622  0.3468 -0.2329
   27MOL0    Cl 3476   4.638  -0.509   5.011  0.2451 -0.0635  0.0532
   27MOL0     C 3477   4.344   0.673   5.127 -0.6359 -0.2049 -0.2983
   27MOL0     C 3478   4.326   0.779   5.215 -0.4514  0.1270 -0.3450
   27MOL0     O 3479   4.165   1.003   5.325 -0.1577  0.2033 -0.0201
   27MOL0     C 3480   4.254   1.027   5.656  0.1955 -0.1412 -0.2204
   27MOL0     C 3481   4.250   1.117   5.768 -0.2777  0.4349  0.5950
   27MOL0     N 3482   3.710   1.682   6.250 -0.5406 -0.3177 -0.1411
   27MOL0     N 3483   3.651   1.667   6.361  0.2394 -0.6187 -0.2169
   27MOL0     C 3484   3.954   0.932   5.935 -0.2306  0.2942  0.7361
   27MOL0     C 3485   3.946   0.845   5.828 -0.5543  0.7952  1.2296
   27MOL0     C 3486   3.947   0.416   5.667 -0.6638  0.2798  0.4170
   27MOL0     C 3487   4.053   0.343   5.599  0.6601 -0.1230 -0.5099
   27MOL0     C 3488   4.030   0.230   5.518  0.0102 -0.1196 -0.7733
   27MOL0     C 3489   3.896   0.203   5.499  0.2051  0.1189 -0.7356
   27MOL0     O 3490   3.860   0.094   5.422  0.8655  0.5905 -0.3355
   27MOL0     C 3491   3.745   0.019   5.448 -0.4871 -0.2089  0.3222
   27MOL0     C 3492   3.684  -0.035   5.316 -0.2877 -0.1840  0.6712
   27MOL0     C 3493   3.751  -0.172   5.286  0.2947 -0.9884 -0.3547
   27MOL0     C 3494   3.767  -0.178   5.133 -0.4358 -0.6976 -0.4307
   27MOL0     C 3495   3.854  -0.291   5.096 -0.7309  0.5426 -0.0056
   27MOL0     C 3496   3.926  -0.387   5.077 -0.1853 -0.2266  0.5914
   27MOL0     C 3497   3.789   0.289   5.556  0.2489  0.2850  0.7425
   27MOL0     C 3498   3.813   0.382   5.646  0.4395  0.3982  0.5040
   27MOL0     H 3499   3.800   0.591   6.010  0.2910 -0.3955 -0.2222
   27MOL0     H 3500   3.816   0.763   6.195 -0.0088  1.2017  0.8670
   27MOL0     H 3501   3.952   1.181   6.078 -0.9245  0.6278  1.6323
   27MOL0     H 3502   4.096   1.089   6.118  0.6270  0.6833 -0.9713
   27MOL0     H 3503   4.090   1.269   6.274  1.2643 -1.3057  0.4365
   27MOL0     H 3504   4.057   1.123   6.361 -1.8305  2.1268  3.6603
   27MOL0     H 3505   3.811   1.173   6.335  0.3344  0.2540 -0.4098
   27MOL0     H 3506   3.844   1.328   6.278 -2.6929 -0.1052  1.8824
   27MOL0     H 3507   3.970   1.216   6.536 -1.0308 -0.6418 -0.7381
   27MOL0     H 3508   3.980   1.384   6.472  0.4837 -0.0677  2.5302
   27MOL0     H 3509   3.713   1.229   6.538 -0.9902  0.7478  2.7666
   27MOL0     H 3510   3.733   1.394   6.469  3.5548  0.7594 -1.9528
   27MOL0     H 3511   3.839   1.314   6.742 -0.1421 -2.1555 -0.6344
   27MOL0     H 3512   3.676   1.367   6.715  0.1282 -1.0382 -2.2350
   27MOL0     H 3513   3.823   1.569   6.780 -2.4315  1.9722  0.0446
   27MOL0     H 3514   3.934   1.543   6.649 -0.4557  3.2043  2.6665
   27MOL0     H 3515   3.730   1.719   6.632  3.6740 -1.0344  3.5110
   27MOL0     H 3516   3.620   1.587   6.609 -0.6002 -1.6094 -3.3362
   27MOL0     H 3517   3.966   1.634   6.443  0.0319 -3.2098  0.2799
   27MOL0     H 3518   4.046   1.595   6.229 -1.9621 -1.2743 -0.4648
   27MOL0     H 3519   3.978   1.735   6.148 -4.0571  1.6738  1.4959
   27MOL0     H 3520   3.896   1.596   5.969 -1.7661  0.9742  2.6343
   27MOL0     H 3521   3.863   1.467   6.073 -1.4541  0.3879 -2.1875
   27MOL0     H 3522   4.128   1.593   5.979 -2.7333  0.4941 -1.0568
   27MOL0     H 3523   4.134   1.448   6.084 -2.5534 -0.1834  1.4417
   27MOL0     H 3524   4.097   1.488   5.795  1.5120 -1.8968 -0.6675
   27MOL0     H 3525   3.963   1.385   5.864  0.1002 -1.6518  1.0760
   27MOL0     H 3526   4.064   1.354   5.622  3.9659  1.7031 -2.3684
   27MOL0     H 3527   4.099   1.210   5.431 -1.6917  0.8730  0.4458
   27MOL0     H 3528   4.189   0.610   5.471  2.3135 -0.1640  1.1171
   27MOL0     H 3529   4.217   0.417   5.316 -2.5650 -0.4205 -0.6413
   27MOL0     H 3530   4.361   0.285   5.207  1.6098 -1.4645  1.6411
   27MOL0     H 3531   4.505   0.340   5.126  0.6928 -3.0216 -1.8057
   27MOL0     H 3532   4.308   0.268   4.917  1.9563  2.4708 -1.1018
   27MOL0     H 3533   4.297   0.149   5.043 -2.7234  2.3828  1.1238
   27MOL0     H 3534   4.575   0.164   4.993  0.3578  0.6160 -1.3332
   27MOL0     H 3535   4.510   0.228   4.843 -0.7906  2.2992  2.2301
   27MOL0     H 3536   4.467  -0.044   4.973 -4.0377 -0.6749  0.4870
   27MOL0     H 3537   4.354  -0.004   4.852 -0.4648  1.2234  0.8930
   27MOL0     H 3538   4.645  -0.026   4.783 -0.5496  0.4390  0.5693
   27MOL0     H 3539   4.498  -0.005   4.675  0.3933 -0.9732 -0.4582
   27MOL0     H 3540   4.581  -0.201   4.667  0.0695  0.1868 -0.1988
   27MOL0     H 3541   4.432  -0.223   4.751  0.4918 -0.1916  1.0073
   27MOL0     H 3542   4.694  -0.227   4.884  0.3646  0.1497 -2.2076
   27MOL0     H 3543   4.524  -0.251   4.964 -2.5304 -0.7740 -1.0957
   27MOL0     H 3544   4.666  -0.441   4.777 -1.9348 -2.3554 -1.8885
   27MOL0     H 3545   4.502  -0.445   4.809  2.3011  1.5637 -4.6917
   27MOL0     H 3546   4.403   0.684   5.036  0.7929 -1.7942  0.3747
   27MOL0     H 3547   4.358   0.882   5.200  1.0242  0.7969  5.0160
   27MOL0     H 3548   4.328   0.949   5.667  0.8191  0.3989 -0.4926
   27MOL0     H 3549   4.309   1.090   5.855 -1.6107 -2.7612  0.6394
   27MOL0     H 3550   3.987   1.034   5.920  1.9841 -0.3430  0.9799
   27MOL0     H 3551   3.985   0.864   5.728  2.6698 -1.8765  1.8282
   27MOL0     H 3552   4.158   0.370   5.601  1.1669 -2.0083  0.6376
   27MOL0     H 3553   4.112   0.176   5.472  1.0919  1.1326 -0.3574
   27MOL0     H 3554   3.667   0.070   5.505  0.6131  0.2462  1.4716
   27MOL0     H 3555   3.786  -0.063   5.507  0.1427 -0.0622  0.0906
   27MOL0     H 3556   3.577  -0.056   5.325 -0.0551 -2.3034 -0.9104
   27MOL0     H 3557   3.691   0.041   5.236 -1.9479  0.6836  1.3001
   27MOL0     H 3558   3.685  -0.254   5.317 -1.7703  0.5189 -0.6372
   27MOL0     H 3559   3.852  -0.164   5.328  0.8138  3.5447 -2.0081
   27MOL0     H 3560   3.666  -0.197   5.095 -0.3463 -0.3332 -0.8481
   27MOL0     H 3561   3.816  -0.085   5.104 -0.0174 -0.8078 -0.0988
   27MOL0     H 3562   3.988  -0.473   5.061  1.2326  0.6648  1.1043
   27MOL0     H 3563   3.684   0.277   5.532  0.6057  3.1344 -3.3337
   27MOL0     H 3564   3.729   0.440   5.684  1.2898  2.0956 -0.1011
   28MOL0     O 3565   1.532   1.786   9.474  0.1994 -0.1904  0.0429
   28MOL0     C 3566   1.595   1.748   9.572  0.1215 -0.4493 -0.3436
   28MOL0     O 3567   1.709   1.676   9.566 -0.2507  0.4902 -1.0776
   28MOL0     C 3568   1.761   1.649   9.438 -0.3166 -0.0700  0.0915
   28MOL0     C 3569   1.699   1.550   9.356 -0.0661 -0.6472 -0.1308
   28MOL0     C 3570   1.762   1.516   9.236  1.7225  0.5813  0.4431
   28MOL0     C 3571   1.886   1.562   9.206  0.3785  0.2517 -1.1277
   28MOL0     O 3572   1.957   1.510   9.105  0.7239  0.2352 -0.3165
   28MOL0     C 3573   2.085   1.564   9.073 -0.0332 -0.1462 -0.0277
   28MOL0     C 3574   2.147   1.509   8.936  0.1822  0.4938  0.0180
   28MOL0     C 3575   2.030   1.495   8.830  0.7434 -0.0778  0.0839
   28MOL0     C 3576   2.007   1.634   8.755  0.7471 -0.0107 -0.8541
   28MOL0     C 3577   1.929   1.609   8.638  0.4404  0.4091  1.2374
   28MOL0     C 3578   1.999   1.556   8.519  0.1538 -0.2526 -0.3497
   28MOL0     C 3579   1.910   1.550   8.391 -0.6868  0.0952 -0.0262
   28MOL0     C 3580   1.997   1.498   8.286  0.4416  0.1734  0.1557
   28MOL0     N 3581   1.915   1.478   8.167 -0.4479 -0.2575 -0.4843
   28MOL0     C 3582   1.836   1.374   8.154  0.2825  0.5256 -0.7527
   28MOL0     C 3583   1.783   1.399   8.030  0.1759  0.9744 -0.7378
   28MOL0     C 3584   1.670   1.298   7.982  0.7430  0.3437  0.5304
   28MOL0     C 3585   1.529   1.322   8.057  0.2113  0.8481 -0.4982
   28MOL0     C 3586   1.466   1.452   8.030  0.1226 -0.0670  0.6214
   28MOL0     C 3587   1.440   1.495   7.884  0.4600 -0.2907 -0.0283
   28MOL0     O 3588   1.404   1.632   7.887 -0.2409 -0.1120  0.2747
   28MOL0     C 3589   1.330   1.672   7.786 -0.6883  0.2339  1.0839
   28MOL0     C 3590   1.195   1.660   7.785 -0.2037 -0.6176  0.1248
   28MOL0     C 3591   1.118   1.713   7.678 -0.3083  1.3017 -0.4968
   28MOL0     C 3592   1.175   1.776   7.573 -0.1465  0.2234  0.8077
   28MOL0     C 3593   1.097   1.837   7.460  0.5747 -0.1447  0.3594
   28MOL0     O 3594   1.168   1.876   7.349  0.6369  0.0322  0.2071
   28MOL0     C 3595   1.107   1.923   7.227  0.0224  0.4749  0.0621
   28MOL0     C 3596   1.191   2.009   7.159  0.4988  0.1901 -0.9136
   28MOL0     C 3597   1.146   2.073   7.047 -0.4075 -0.6002 -0.6591
   28MOL0     C 3598   1.012   2.060   6.998 -0.4896  0.9685  0.0832
   28MOL0     O 3599   0.979   2.129   6.881  0.2664  0.5940  0.3322
   28MOL0     C 3600   0.992   2.038   6.766 -0.3624  0.3710 -0.1806
   28MOL0     C 3601   0.882   2.037   6.676 -0.3232 -0.1214  0.3052
   28MOL0     C 3602   0.880   1.916   6.584  0.2971 -0.0833  0.5149
   28MOL0     C 3603   0.895   1.948   6.432  0.3064 -0.8594  0.1400
   28MOL0     C 3604   0.914   1.828   6.351  0.9241 -0.6333 -0.1263
   28MOL0     C 3605   1.051   1.768   6.378 -0.3130  0.6506 -0.8118
   28MOL0     C 3606   1.092   1.671   6.270 -0.3912 -0.0941  0.0317
   28MOL0     C 3607   1.222   1.592   6.301 -0.3069 -0.1605  0.6070
   28MOL0    Cl 3608   1.199   1.466   6.420 -0.1299  0.5349 -0.0060
   28MOL0     C 3609   0.923   1.976   7.069  0.4607 -0.0803 -0.3628
   28MOL0     C 3610   0.974   1.898   7.174 -0.2616  0.6934  0.0609
   28MOL0     O 3611   0.971   1.843   7.474 -0.5048  0.0992  0.4251
   28MOL0     C 3612   1.312   1.791   7.576 -0.4275 -0.1962 -0.0518
   28MOL0     C 3613   1.388   1.732   7.678 -0.4241  0.0070  1.2499
   28MOL0     N 3614   1.826   1.527   7.983 -0.3397  0.9265  0.5225
   28MOL0     N 3615   1.905   1.569   8.072 -0.3353  0.1136 -0.1160
   28MOL0     C 3616   1.945   1.661   9.298 -1.0517 -0.2655 -0.1195
   28MOL0     C 3617   1.883   1.704   9.407  0.2362  0.9540 -1.0136
   28MOL0     C 3618   1.552   1.783   9.711  1.1066  0.4104 -0.4368
   28MOL0     C 3619   1.418   1.801   9.731 -0.9867 -0.3999 -0.3416
   28MOL0     C 3620   1.358   1.840   9.854  0.0622  0.4805 -0.6764
   28MOL0     C 3621   1.435   1.853   9.963  0.4558  0.0541  0.3209
   28MOL0     O 3622   1.388   1.886  10.083  0.3749  0.6287 -0.1146
   28MOL0     C 3623   1.245   1.862  10.112  0.6176 -0.3030 -0.1531
   28MOL0     C 3624   1.158   1.994  10.104 -0.3076 -0.5005  0.1711
   28MOL0     C 3625   1.101   2.025  10.250  0.2520  0.5385  0.0318
   28MOL0     C 3626   0.994   1.914  10.290 -0.2384  0.0182 -0.2515
   28MOL0     C 3627   0.879   1.908  10.202 -0.2123  1.0585 -0.1467
   28MOL0     C 3628   0.783   1.901  10.132 -0.9556 -0.4128 -0.1838
   28MOL0     C 3629   1.570   1.848   9.945  0.1914 -0.2233 -0.9272
   28MOL0     C 3630   1.629   1.811   9.826 -0.3465 -0.0054  0.3591
   28MOL0     H 3631   1.622   1.491   9.403  3.1440 -3.3003  2.3382
   28MOL0     H 3632   1.725   1.430   9.181  1.1879 -1.3420  3.5474
   28MOL0     H 3633   2.154   1.537   9.154  0.5735  0.8846 -0.1844
   28MOL0     H 3634   2.074   1.672   9.075 -0.0201 -0.1345  2.0259
   28MOL0     H 3635   2.210   1.420   8.944  1.0672  0.7777 -2.6562
   28MOL0     H 3636   2.217   1.586   8.901 -3.6655  4.0817 -0.6104
   28MOL0     H 3637   1.941   1.456   8.879 -0.1984  2.5480  0.6623
   28MOL0     H 3638   2.055   1.422   8.752  2.6595 -0.5417  1.0775
   28MOL0     H 3639   1.967   1.701   8.833  2.9783 -0.9909  1.2719
   28MOL0     H 3640   2.104   1.679   8.733  0.3425  1.1812 -0.2946
   28MOL0     H 3641   1.895   1.709   8.610  0.0766  0.2908  1.2429
   28MOL0     H 3642   1.842   1.548   8.664  0.0056  0.3743 -0.2052
   28MOL0     H 3643   2.029   1.453   8.538 -0.1073 -1.0203 -3.6051
   28MOL0     H 3644   2.085   1.618   8.494 -0.6637  0.9609 -0.2585
   28MOL0     H 3645   1.824   1.487   8.416  1.1029 -1.9712  1.2609
   28MOL0     H 3646   1.888   1.655   8.369  4.3581  0.8574 -2.9035
   28MOL0     H 3647   2.033   1.400   8.319  2.0622  1.0322  1.0333
   28MOL0     H 3648   2.082   1.561   8.258  2.5221 -1.9683  1.2591
   28MOL0     H 3649   1.814   1.284   8.211 -5.8215 -0.0110 -3.2216
   28MOL0     H 3650   1.699   1.195   8.002  0.8897  0.7076  2.4039
   28MOL0     H 3651   1.663   1.305   7.873  3.3332  1.4487  0.3616
   28MOL0     H 3652   1.535   1.299   8.164 -1.0487  0.1355 -0.5717
   28MOL0     H 3653   1.462   1.250   8.010  1.4039  0.3322 -1.4903
   28MOL0     H 3654   1.374   1.474   8.086  0.8430 -0.6838  2.1066
   28MOL0     H 3655   1.539   1.526   8.064 -0.6098 -0.0823  2.3557
   28MOL0     H 3656   1.359   1.437   7.840  0.9410 -0.6399 -0.4598
   28MOL0     H 3657   1.525   1.466   7.822  0.1183 -1.2792 -0.0417
   28MOL0     H 3658   1.149   1.607   7.868 -1.2846 -3.2775 -2.0424
   28MOL0     H 3659   1.010   1.704   7.675 -0.2502  0.8330 -2.0121
   28MOL0     H 3660   1.288   2.022   7.205 -1.1922  3.1658  2.3245
   28MOL0     H 3661   1.224   2.120   6.987 -1.0797 -1.9581 -2.7062
   28MOL0     H 3662   0.990   1.936   6.803 -0.9711 -0.3031 -1.9769
   28MOL0     H 3663   1.087   2.052   6.714 -1.0516 -3.6459 -2.9687
   28MOL0     H 3664   0.890   2.137   6.632  3.0214 -0.3809  0.0770
   28MOL0     H 3665   0.794   2.039   6.742 -1.0594  1.6989 -0.6564
   28MOL0     H 3666   0.790   1.859   6.612 -0.9671  1.4475 -0.3114
   28MOL0     H 3667   0.965   1.851   6.609  1.0523  1.1797  1.3094
   28MOL0     H 3668   0.808   2.007   6.400  1.0684 -0.1115 -0.5920
   28MOL0     H 3669   0.983   2.012   6.423 -0.0562 -0.2817  0.5666
   28MOL0     H 3670   0.899   1.833   6.243 -0.8439 -2.7846 -0.0606
   28MOL0     H 3671   0.826   1.767   6.373  1.1364 -0.6974  0.5714
   28MOL0     H 3672   1.046   1.712   6.473 -2.2631  0.8605 -0.7454
   28MOL0     H 3673   1.134   1.838   6.381 -0.3370  0.6899 -1.0875
   28MOL0     H 3674   1.004   1.610   6.247 -1.2287  1.0433  0.1283
   28MOL0     H 3675   1.113   1.730   6.181  1.8963  0.1421  0.6842
   28MOL0     H 3676   1.292   1.659   6.351  0.9548 -0.9394 -0.0420
   28MOL0     H 3677   1.270   1.545   6.214 -1.3426  0.5965 -0.4052
   28MOL0     H 3678   0.825   1.955   7.029  1.0109 -0.5211 -1.5223
   28MOL0     H 3679   0.911   1.820   7.216 -0.2864 -1.5978 -3.7955
   28MOL0     H 3680   1.362   1.857   7.506 -0.6273  0.4860  0.4406
   28MOL0     H 3681   1.496   1.735   7.668 -0.3461  1.1568  2.2451
   28MOL0     H 3682   2.046   1.698   9.282  0.6970 -4.0015  1.0147
   28MOL0     H 3683   1.921   1.787   9.466 -1.1147  2.3768 -2.0397
   28MOL0     H 3684   1.367   1.781   9.637 -0.7024  2.2720 -1.1499
   28MOL0     H 3685   1.250   1.844   9.855 -0.0247 -0.4722  2.0719
   28MOL0     H 3686   1.250   1.824  10.215  2.6103  1.3060  0.4162
   28MOL0     H 3687   1.198   1.783  10.052 -1.3330  1.4520 -1.0230
   28MOL0     H 3688   1.213   2.079  10.063  0.1268 -1.9343 -2.4850
   28MOL0     H 3689   1.075   1.986  10.032 -1.0312  1.0389  0.7950
   28MOL0     H 3690   1.039   2.115  10.256 -4.4150 -2.4153  2.2322
   28MOL0     H 3691   1.190   2.025  10.314 -0.4811 -1.2622  1.1571
   28MOL0     H 3692   1.043   1.816  10.292  0.1502  0.0309 -3.5088
   28MOL0     H 3693   0.960   1.946  10.389  3.6514  3.8424  0.1659
   28MOL0     H 3694   0.695   1.911  10.072  0.5860 -0.1488 -2.5193
   28MOL0     H 3695   1.642   1.882  10.020  3.5031 -0.6200 -3.6762
   28MOL0     H 3696   1.737   1.801   9.824 -0.5267 -2.6696 -0.3914
   29MOL0     O 3697   3.963   5.633   4.843  0.7778 -0.0800 -0.6210
   29MOL0     C 3698   4.072   5.614   4.897  0.4597 -0.1019  0.0711
   29MOL0     O 3699   4.182   5.581   4.828 -0.1827  0.4072 -0.5228
   29MOL0     C 3700   4.158   5.511   4.711 -0.2999  0.1116 -0.7277
   29MOL0     C 3701   4.201   5.567   4.582  0.0295 -0.8219 -0.3417
   29MOL0     C 3702   4.166   5.513   4.463  0.0483  1.2689  0.0465
   29MOL0     C 3703   4.107   5.381   4.464  0.3016 -0.3950  0.1263
   29MOL0     O 3704   4.079   5.320   4.343  0.8620 -0.0631 -0.1530
   29MOL0     C 3705   4.110   5.398   4.215  1.0464 -0.3513  0.2853
   29MOL0     C 3706   4.266   5.413   4.185 -0.2659 -0.7951  0.6449
   29MOL0     C 3707   4.295   5.520   4.083  0.7444 -0.5845 -0.5515
   29MOL0     C 3708   4.436   5.495   4.047 -0.3627 -0.3840 -0.5176
   29MOL0     C 3709   4.479   5.600   3.952  0.8914 -0.2667 -0.2272
   29MOL0     C 3710   4.623   5.591   3.898 -0.1108  0.7048  0.1931
   29MOL0     C 3711   4.633   5.512   3.765  0.8134 -0.1985 -0.0980
   29MOL0     C 3712   4.765   5.507   3.692  0.2629 -0.5049 -0.4522
   29MOL0     N 3713   4.810   5.636   3.632 -0.0807 -0.4979  0.1124
   29MOL0     C 3714   4.723   5.738   3.589 -0.0445  0.3161  0.6677
   29MOL0     C 3715   4.797   5.811   3.509  0.1128 -1.5725  0.2878
   29MOL0     C 3716   4.747   5.940   3.443 -0.3510  0.3821 -0.6054
   29MOL0     C 3717   4.859   6.038   3.410  0.0061  0.8787  0.1872
   29MOL0     C 3718   4.819   6.146   3.305 -0.7377  0.4958 -0.1783
   29MOL0     C 3719   4.717   6.253   3.365  0.3356  0.2231  0.8828
   29MOL0     O 3720   4.752   6.283   3.501  0.5168 -1.1207  0.7650
   29MOL0     C 3721   4.648   6.338   3.571  0.6630  0.4545  0.4776
   29MOL0     C 3722   4.651   6.476   3.601  0.3314 -0.7597  0.4378
   29MOL0     C 3723   4.544   6.528   3.664  0.2053  0.7121  0.2240
   29MOL0     C 3724   4.438   6.450   3.714 -0.2455  0.9722  1.3637
   29MOL0     C 3725   4.327   6.516   3.786  0.2419 -0.4986  0.3572
   29MOL0     O 3726   4.340   6.650   3.810  0.1960 -0.0460 -0.1206
   29MOL0     C 3727   4.238   6.708   3.880  0.2481 -0.1895 -0.9210
   29MOL0     C 3728   4.165   6.659   3.989  0.3399 -0.7559  0.1421
   29MOL0     C 3729   4.064   6.736   4.049  0.2576  0.1998  0.0907
   29MOL0     C 3730   4.039   6.857   3.998  0.1747  0.1279  0.3229
   29MOL0     O 3731   3.945   6.927   4.057 -0.0423  0.0308 -0.5510
   29MOL0     C 3732   3.989   7.045   4.132 -1.0075  0.3275  0.2717
   29MOL0     C 3733   3.851   7.113   4.147 -0.2131 -0.5727 -0.0925
   29MOL0     C 3734   3.877   7.235   4.233 -0.2777  0.2822  0.4767
   29MOL0     C 3735   3.955   7.348   4.159  0.2500  0.3309 -0.4912
   29MOL0     C 3736   3.946   7.487   4.234 -0.1273 -0.2755 -0.3347
   29MOL0     C 3737   4.058   7.581   4.188 -0.0422 -0.8373 -0.1532
   29MOL0     C 3738   4.062   7.616   4.039 -0.9597 -0.2895 -0.6177
   29MOL0     C 3739   4.196   7.682   4.004  0.1579  0.9502 -0.1465
   29MOL0    Cl 3740   4.233   7.839   4.081 -0.3417 -0.0180  0.3979
   29MOL0     C 3741   4.132   6.912   3.902 -0.1174 -0.1858  1.2042
   29MOL0     C 3742   4.226   6.832   3.841 -0.1985  0.0033  0.2149
   29MOL0     O 3743   4.222   6.450   3.793 -0.3694  0.6166  0.0494
   29MOL0     C 3744   4.440   6.313   3.682 -1.4484  0.9363  0.6899
   29MOL0     C 3745   4.542   6.258   3.608  0.3393 -0.1973  0.1842
   29MOL0     N 3746   4.919   5.746   3.484 -0.0822 -0.2390 -0.1884
   29MOL0     N 3747   4.914   5.634   3.550 -0.6817 -0.0532  0.6109
   29MOL0     C 3748   4.061   5.321   4.589 -0.4497  0.1867  0.1103
   29MOL0     C 3749   4.100   5.384   4.710  0.5083 -0.0767  0.7237
   29MOL0     C 3750   4.080   5.617   5.041 -0.3400  0.6648 -0.4989
   29MOL0     C 3751   3.991   5.688   5.109  1.1397  0.0901 -0.0079
   29MOL0     C 3752   3.992   5.704   5.240 -0.1014 -0.8956  0.6134
   29MOL0     C 3753   4.077   5.637   5.324  0.5568 -0.3080 -0.3319
   29MOL0     O 3754   4.059   5.621   5.456  0.9337 -0.0561 -0.5409
   29MOL0     C 3755   3.951   5.687   5.527  0.1925 -0.2688  0.9841
   29MOL0     C 3756   3.835   5.601   5.565  0.4386 -0.2585  0.0812
   29MOL0     C 3757   3.758   5.656   5.683 -0.6950  0.0300  0.2640
   29MOL0     C 3758   3.611   5.610   5.698 -0.7270 -0.1924  1.0414
   29MOL0     C 3759   3.611   5.460   5.736 -0.5575 -0.4337  0.3140
   29MOL0     C 3760   3.594   5.341   5.753  0.9145 -1.3498 -0.4349
   29MOL0     C 3761   4.189   5.575   5.256  0.9382 -0.7263  0.1669
   29MOL0     C 3762   4.183   5.553   5.119 -0.1569 -1.1212  0.3640
   29MOL0     H 3763   4.254   5.661   4.581  3.0579 -2.3461  1.7896
   29MOL0     H 3764   4.180   5.572   4.373 -2.0058 -0.2110 -1.3536
   29MOL0     H 3765   4.061   5.496   4.213 -1.0212 -1.2985  1.0908
   29MOL0     H 3766   4.075   5.353   4.121  1.5390  2.2818 -1.2572
   29MOL0     H 3767   4.292   5.317   4.139 -1.7490 -1.0640  0.3254
   29MOL0     H 3768   4.334   5.422   4.270  1.7973 -0.8219 -0.9302
   29MOL0     H 3769   4.287   5.617   4.132  3.5380 -1.2828  1.5768
   29MOL0     H 3770   4.227   5.505   3.999 -2.8659 -0.6670  2.1634
   29MOL0     H 3771   4.504   5.498   4.132 -0.8158  3.4583 -0.0933
   29MOL0     H 3772   4.448   5.394   4.008 -0.2087 -1.2194  1.5873
   29MOL0     H 3773   4.473   5.694   4.007  2.1013 -1.1014  1.3939
   29MOL0     H 3774   4.405   5.596   3.871  0.6607 -2.9135  0.0253
   29MOL0     H 3775   4.688   5.544   3.973  0.7813  0.7636 -0.5221
   29MOL0     H 3776   4.672   5.688   3.889  1.9347 -0.4354 -2.4415
   29MOL0     H 3777   4.607   5.408   3.785  1.8124 -1.0093 -2.6364
   29MOL0     H 3778   4.553   5.542   3.697  1.1694 -1.0918 -0.9300
   29MOL0     H 3779   4.748   5.435   3.611  0.0285 -1.9620  0.8342
   29MOL0     H 3780   4.844   5.467   3.756  1.5115  0.2397 -1.4648
   29MOL0     H 3781   4.626   5.758   3.633  0.4205 -0.1091  1.9306
   29MOL0     H 3782   4.667   5.987   3.502 -1.6499 -1.3977 -0.8570
   29MOL0     H 3783   4.691   5.915   3.353 -0.5220 -1.1412 -0.1064
   29MOL0     H 3784   4.940   5.978   3.366  0.1978  2.1300 -1.2621
   29MOL0     H 3785   4.899   6.084   3.501  1.1357 -0.4393  0.3911
   29MOL0     H 3786   4.908   6.205   3.282 -0.1868  1.6119  4.0702
   29MOL0     H 3787   4.774   6.102   3.216 -2.3867 -1.6518  1.6185
   29MOL0     H 3788   4.616   6.211   3.365 -0.8809  2.8541 -0.0396
   29MOL0     H 3789   4.708   6.341   3.300  0.5558 -0.3977 -0.0136
   29MOL0     H 3790   4.736   6.538   3.575  0.4953 -0.0323  2.5248
   29MOL0     H 3791   4.560   6.635   3.679  2.3335  0.1443  2.9168
   29MOL0     H 3792   4.178   6.560   4.031 -3.4947 -0.3806  2.8160
   29MOL0     H 3793   4.024   6.686   4.138  0.9681 -2.6249 -1.0504
   29MOL0     H 3794   4.053   7.104   4.065 -2.4010 -0.4256 -1.8191
   29MOL0     H 3795   4.046   7.024   4.223 -2.0424  0.4358  0.9629
   29MOL0     H 3796   3.775   7.049   4.193  0.7544 -2.1725 -0.6330
   29MOL0     H 3797   3.823   7.132   4.043  0.9345  1.7652 -0.0560
   29MOL0     H 3798   3.920   7.194   4.325  2.4086  2.8492  0.5181
   29MOL0     H 3799   3.781   7.275   4.269 -1.6626 -1.1963 -1.3641
   29MOL0     H 3800   4.060   7.319   4.150  0.2841 -0.5548  1.9777
   29MOL0     H 3801   3.922   7.359   4.056 -1.9880 -0.9399  0.0347
   29MOL0     H 3802   3.962   7.466   4.340  1.6714 -2.9777 -1.0334
   29MOL0     H 3803   3.845   7.529   4.234  0.7225  1.8927  0.2268
   29MOL0     H 3804   4.157   7.539   4.207  1.1603  1.6579 -0.5679
   29MOL0     H 3805   4.048   7.675   4.242 -2.2242 -0.1002 -1.6764
   29MOL0     H 3806   4.062   7.520   3.986  2.6023 -1.2476  0.8106
   29MOL0     H 3807   3.986   7.689   4.009 -0.6420  0.2019 -0.2289
   29MOL0     H 3808   4.194   7.692   3.895 -0.6596  2.8277  0.0120
   29MOL0     H 3809   4.261   7.601   4.039 -3.4378 -1.6639  1.0522
   29MOL0     H 3810   4.112   7.008   3.857 -1.5507 -0.8878  0.2639
   29MOL0     H 3811   4.288   6.872   3.762  0.7406 -1.1076  0.3649
   29MOL0     H 3812   4.350   6.259   3.710 -2.6641  2.1123 -0.7948
   29MOL0     H 3813   4.555   6.152   3.589 -0.3850 -0.0841 -1.0600
   29MOL0     H 3814   4.006   5.228   4.591  1.5064 -1.0252 -0.1815
   29MOL0     H 3815   4.056   5.347   4.803 -0.7023  0.3690  0.3552
   29MOL0     H 3816   3.922   5.752   5.055 -0.2678 -0.6780  0.8381
   29MOL0     H 3817   3.899   5.751   5.270 -2.1192 -3.0534 -1.7855
   29MOL0     H 3818   3.910   5.775   5.475 -2.2026 -1.5677  0.5175
   29MOL0     H 3819   3.993   5.722   5.622  0.5460 -2.3883  1.6478
   29MOL0     H 3820   3.772   5.607   5.476 -1.3964  3.3097  1.4064
   29MOL0     H 3821   3.864   5.498   5.588  0.0343 -0.6350 -1.0490
   29MOL0     H 3822   3.759   5.765   5.685 -2.9054  0.1637 -1.8170
   29MOL0     H 3823   3.815   5.622   5.770  1.5274 -0.5164 -1.3020
   29MOL0     H 3824   3.560   5.661   5.780 -0.4249  0.7271  0.6681
   29MOL0     H 3825   3.569   5.640   5.602  0.4682  2.8139  1.3647
   29MOL0     H 3826   3.582   5.237   5.776 -2.2767 -0.4943  2.6882
   29MOL0     H 3827   4.263   5.528   5.320 -0.0404  0.9549  2.6834
   29MOL0     H 3828   4.248   5.483   5.069  0.3592  0.5732 -1.4415
   30MOL0     O 3829   2.840   6.996   8.923  0.0032 -0.6795  0.1593
   30MOL0     C 3830   2.764   7.027   9.019 -0.5817 -0.0741  0.4745
   30MOL0     O 3831   2.620   7.037   9.023 -0.1512  0.6533  0.0080
   30MOL0     C 3832   2.549   7.004   8.917 -0.1682  0.1749  0.9186
   30MOL0     C 3833   2.443   7.083   8.881 -0.9785  0.1939 -0.3642
   30MOL0     C 3834   2.341   7.029   8.797 -0.0166  0.5407  0.4388
   30MOL0     C 3835   2.359   6.898   8.752 -0.1960  0.3136  0.1831
   30MOL0     O 3836   2.286   6.841   8.649 -0.0675 -0.0952  0.3131
   30MOL0     C 3837   2.237   6.924   8.543 -0.1798  0.2332 -0.3214
   30MOL0     C 3838   2.224   6.836   8.419  0.7086 -1.2317  0.1570
   30MOL0     C 3839   2.248   6.920   8.294 -0.4346 -0.3060  0.5639
   30MOL0     C 3840   2.235   6.835   8.176 -0.3730  0.3654 -0.9639
   30MOL0     C 3841   2.243   6.927   8.055 -0.4412  0.7138 -0.1747
   30MOL0     C 3842   2.214   6.877   7.907  0.2990  1.1393 -0.2737
   30MOL0     C 3843   2.306   6.758   7.877 -0.5126  0.5027  0.2777
   30MOL0     C 3844   2.331   6.770   7.726 -0.1185  0.1180 -0.5083
   30MOL0     N 3845   2.400   6.657   7.687  0.2100 -0.7530 -0.1307
   30MOL0     C 3846   2.500   6.655   7.595 -0.1378 -0.2954 -0.1181
   30MOL0     C 3847   2.534   6.525   7.570  0.1568 -0.3815 -0.3001
   30MOL0     C 3848   2.627   6.485   7.459 -0.1786 -0.1725  0.9712
   30MOL0     C 3849   2.568   6.493   7.316 -0.5592 -0.1522  0.0259
   30MOL0     C 3850   2.670   6.520   7.200  1.0565 -0.0775 -0.2572
   30MOL0     C 3851   2.789   6.426   7.199 -0.4319 -0.1488 -0.2738
   30MOL0     O 3852   2.892   6.465   7.105 -0.2366  0.2223  0.6614
   30MOL0     C 3853   2.971   6.571   7.142  0.1252 -0.2618  0.3680
   30MOL0     C 3854   3.074   6.605   7.047 -0.7101  0.9152 -0.4228
   30MOL0     C 3855   3.167   6.710   7.078  0.0636  0.3309 -0.6263
   30MOL0     C 3856   3.165   6.778   7.198  0.2410 -1.0291  0.8105
   30MOL0     C 3857   3.276   6.862   7.231  0.8355 -0.2589  0.6505
   30MOL0     O 3858   3.385   6.870   7.141 -0.6155  0.0597 -0.0316
   30MOL0     C 3859   3.474   6.967   7.165 -0.3960  0.0396  0.7522
   30MOL0     C 3860   3.452   7.101   7.140 -0.0471 -0.3210 -0.4487
   30MOL0     C 3861   3.544   7.208   7.173 -0.1244 -0.3211 -0.2341
   30MOL0     C 3862   3.672   7.169   7.230 -0.0230  1.5523  0.5876
   30MOL0     O 3863   3.778   7.249   7.244  0.0845  0.4527 -0.0056
   30MOL0     C 3864   3.762   7.380   7.300 -0.3975  0.0895  0.0503
   30MOL0     C 3865   3.881   7.463   7.266 -0.0580 -0.5195  0.3501
   30MOL0     C 3866   3.896   7.494   7.111  0.2970 -0.2992  0.4246
   30MOL0     C 3867   3.793   7.592   7.066  0.1309  0.3839 -0.4923
   30MOL0     C 3868   3.850   7.663   6.937  0.5802  0.4024  0.8779
   30MOL0     C 3869   3.783   7.789   6.903 -0.0461 -0.4052 -0.2060
   30MOL0     C 3870   3.651   7.750   6.833  0.3179 -0.0232  0.0638
   30MOL0     C 3871   3.561   7.870   6.785  0.5008 -0.1822  0.7940
   30MOL0    Cl 3872   3.410   7.815   6.701  0.2661  0.0796 -0.0998
   30MOL0     C 3873   3.695   7.035   7.243  1.0887  0.2337 -0.7376
   30MOL0     C 3874   3.607   6.934   7.220  0.1440  0.8888 -0.4661
   30MOL0     O 3875   3.279   6.920   7.340  0.0427 -0.1311 -0.3126
   30MOL0     C 3876   3.063   6.751   7.292  0.6977  0.9479 -0.4086
   30MOL0     C 3877   2.965   6.654   7.264  0.1102 -0.1133 -0.0742
   30MOL0     N 3878   2.451   6.445   7.645  0.8203  0.4685  0.1099
   30MOL0     N 3879   2.361   6.522   7.712  0.5607  0.5728  0.4089
   30MOL0     C 3880   2.468   6.815   8.786  1.2008 -0.7673  0.3990
   30MOL0     C 3881   2.568   6.877   8.862 -0.3827 -1.0682 -0.4195
   30MOL0     C 3882   2.843   7.033   9.149 -0.3996 -0.1563 -0.1031
   30MOL0     C 3883   2.768   7.032   9.271 -0.6894  0.7883 -1.1455
   30MOL0     C 3884   2.836   7.051   9.391 -0.5883 -0.3906  0.2628
   30MOL0     C 3885   2.976   7.057   9.394  0.0567  0.7834 -0.5304
   30MOL0     O 3886   3.033   7.059   9.518 -0.6296  0.2846 -0.7646
   30MOL0     C 3887   3.167   7.092   9.542 -0.0911  0.5546 -0.0717
   30MOL0     C 3888   3.244   6.969   9.567 -0.4377  0.0081 -0.3043
   30MOL0     C 3889   3.292   6.902   9.436 -0.0708  0.6382 -0.7743
   30MOL0     C 3890   3.409   6.799   9.465  0.3320  0.1864  0.4978
   30MOL0     C 3891   3.535   6.872   9.442 -1.3480  0.2952 -0.1415
   30MOL0     C 3892   3.638   6.926   9.404  0.1496 -0.0640  0.5663
   30MOL0     C 3893   3.047   7.061   9.273  0.0083  0.0793 -0.7961
   30MOL0     C 3894   2.982   7.058   9.150 -0.5314 -0.0609 -0.4092
   30MOL0     H 3895   2.438   7.184   8.920 -0.6930 -0.5392  1.7051
   30MOL0     H 3896   2.252   7.086   8.772 -1.0447 -0.9867  0.5123
   30MOL0     H 3897   2.316   6.997   8.520  0.8336 -0.2044  1.5808
   30MOL0     H 3898   2.143   6.970   8.575  0.1552 -0.0038  1.0242
   30MOL0     H 3899   2.133   6.776   8.409 -0.4862  0.4890  0.1923
   30MOL0     H 3900   2.312   6.772   8.431  0.4653 -1.1748  2.9566
   30MOL0     H 3901   2.348   6.962   8.300 -0.6904  0.1245  2.5232
   30MOL0     H 3902   2.172   6.998   8.282 -0.3754 -0.2591  0.5017
   30MOL0     H 3903   2.323   6.772   8.160  0.1559  1.2743 -1.8344
   30MOL0     H 3904   2.150   6.767   8.178 -0.0823  0.0165  0.2542
   30MOL0     H 3905   2.346   6.962   8.046 -0.0221 -0.3565  0.3716
   30MOL0     H 3906   2.171   7.009   8.065  0.9671  1.6883  3.4960
   30MOL0     H 3907   2.213   6.951   7.826 -0.6907  0.2926 -1.0566
   30MOL0     H 3908   2.110   6.844   7.912  0.3599 -0.5768 -5.3111
   30MOL0     H 3909   2.398   6.763   7.934  0.0175 -1.4490 -0.3383
   30MOL0     H 3910   2.245   6.672   7.907 -2.6864  2.9916  3.8631
   30MOL0     H 3911   2.393   6.858   7.705  0.2051  0.9787  3.1805
   30MOL0     H 3912   2.239   6.773   7.667 -1.9169 -0.9470  2.0605
   30MOL0     H 3913   2.540   6.739   7.540 -0.0459 -0.2341  0.0402
   30MOL0     H 3914   2.650   6.382   7.486  2.2705  0.4233  1.4033
   30MOL0     H 3915   2.715   6.549   7.474 -1.2689  1.2419  1.5766
   30MOL0     H 3916   2.493   6.571   7.305 -0.6184 -0.5326 -3.3834
   30MOL0     H 3917   2.517   6.397   7.299  0.3357 -0.8377  1.0346
   30MOL0     H 3918   2.609   6.504   7.110 -0.1253  1.7500  0.1876
   30MOL0     H 3919   2.694   6.627   7.201  3.2282 -0.4675 -1.8002
   30MOL0     H 3920   2.749   6.329   7.170 -0.8000  0.5881 -2.4788
   30MOL0     H 3921   2.843   6.408   7.292 -2.5457  1.7182  1.4338
   30MOL0     H 3922   3.071   6.552   6.953 -0.3793  1.3569 -0.6886
   30MOL0     H 3923   3.247   6.739   7.011 -0.6287  4.8723  0.2285
   30MOL0     H 3924   3.354   7.122   7.099 -0.5356 -2.0144 -0.2132
   30MOL0     H 3925   3.512   7.303   7.131  2.9420  0.5556 -0.8473
   30MOL0     H 3926   3.746   7.366   7.407  0.1142 -1.4241 -0.0558
   30MOL0     H 3927   3.683   7.439   7.251  2.0054  1.7782 -2.1044
   30MOL0     H 3928   3.965   7.402   7.300  1.1287  0.4545 -0.7330
   30MOL0     H 3929   3.892   7.546   7.336 -0.9675 -1.8009  2.1074
   30MOL0     H 3930   3.895   7.397   7.059 -0.5794 -1.1129  1.8847
   30MOL0     H 3931   3.998   7.531   7.091  0.3578 -1.4596 -1.7586
   30MOL0     H 3932   3.693   7.552   7.046 -0.5151  0.7713  1.7484
   30MOL0     H 3933   3.781   7.658   7.152  2.0804  0.1275  0.0233
   30MOL0     H 3934   3.841   7.586   6.860  1.0393 -0.1469  1.3617
   30MOL0     H 3935   3.956   7.685   6.956  0.5769  0.0890  1.2818
   30MOL0     H 3936   3.834   7.866   6.844 -2.8613  2.0180  0.2328
   30MOL0     H 3937   3.753   7.828   7.001  1.5315 -0.7783  0.4594
   30MOL0     H 3938   3.666   7.676   6.755 -0.9381 -1.8442  1.4706
   30MOL0     H 3939   3.583   7.701   6.903 -1.2719  0.3437 -1.1627
   30MOL0     H 3940   3.621   7.912   6.703  0.1516 -2.6936 -0.8570
   30MOL0     H 3941   3.539   7.942   6.865 -1.3284 -2.6088  2.6354
   30MOL0     H 3942   3.800   7.014   7.263  0.3630 -0.8458  2.7102
   30MOL0     H 3943   3.641   6.831   7.222 -1.3978  0.3402 -1.1696
   30MOL0     H 3944   3.068   6.798   7.390  1.5005  0.9393 -0.4367
   30MOL0     H 3945   2.902   6.636   7.350  1.1985 -1.5672  0.4568
   30MOL0     H 3946   2.465   6.713   8.748 -2.1469 -1.2602  1.7220
   30MOL0     H 3947   2.658   6.820   8.884  1.2253  1.4072 -0.1997
   30MOL0     H 3948   2.660   7.027   9.264 -0.8552  3.2766 -1.3232
   30MOL0     H 3949   2.779   7.055   9.483 -0.7225  4.3946  0.1892
   30MOL0     H 3950   3.171   7.153   9.633 -0.8286  1.6174 -0.7257
   30MOL0     H 3951   3.193   7.155   9.456 -1.8030 -1.5585 -2.2551
   30MOL0     H 3952   3.327   7.006   9.628  1.8059  2.3925 -4.3812
   30MOL0     H 3953   3.200   6.898   9.637 -1.1041  0.7668  0.0764
   30MOL0     H 3954   3.321   6.970   9.356 -2.7809 -0.5085 -2.8947
   30MOL0     H 3955   3.210   6.844   9.393  0.8954 -0.8956 -0.6262
   30MOL0     H 3956   3.408   6.757   9.566  0.3479  0.7728  0.7428
   30MOL0     H 3957   3.406   6.723   9.386  1.9012  0.1261  0.4556
   30MOL0     H 3958   3.725   6.975   9.364 -1.1184  0.8636 -1.1961
   30MOL0     H 3959   3.153   7.086   9.268 -0.4227  2.1618 -0.4348
   30MOL0     H 3960   3.022   7.077   9.051 -1.0800  0.9792 -0.4488
   31MOL0     O 3961   5.360   6.854   6.421 -0.4898  0.2680  0.2894
   31MOL0     C 3962   5.242   6.860   6.385 -1.2702 -0.3235  0.0602
   31MOL0     O 3963   5.145   6.776   6.414  0.0917  0.3207 -0.3781
   31MOL0     C 3964   5.169   6.660   6.485  0.5222 -0.5648 -0.8279
   31MOL0     C 3965   5.269   6.639   6.589  0.6857  0.0940  0.9072
   31MOL0     C 3966   5.265   6.523   6.669  0.2842 -0.4687  0.0802
   31MOL0     C 3967   5.182   6.426   6.646 -0.5808  0.0874  0.6087
   31MOL0     O 3968   5.182   6.310   6.721  0.4607  0.3486 -0.5382
   31MOL0     C 3969   5.193   6.333   6.863 -0.1527  0.4758  0.6288
   31MOL0     C 3970   5.091   6.246   6.933  0.0228 -0.4392 -0.1215
   31MOL0     C 3971   5.039   6.297   7.070 -0.4445 -0.4633 -0.6455
   31MOL0     C 3972   4.933   6.196   7.112 -0.2165  0.9233  0.2811
   31MOL0     C 3973   4.900   6.184   7.266  0.5193  0.0214 -0.5800
   31MOL0     C 3974   4.808   6.074   7.292  0.2987 -1.2433  0.3592
   31MOL0     C 3975   4.760   6.059   7.434 -0.2931 -0.3365 -0.0045
   31MOL0     C 3976   4.875   6.024   7.531  0.2240  0.6375  0.3960
   31MOL0     N 3977   4.840   6.026   7.676 -0.9724  1.1331 -0.5613
   31MOL0     C 3978   4.917   5.971   7.783 -0.1155 -0.1727  0.1827
   31MOL0     C 3979   4.852   6.007   7.896 -0.2816 -0.3207 -0.2162
   31MOL0     C 3980   4.885   5.994   8.044  0.1055 -1.2615  0.2546
   31MOL0     C 3981   4.943   5.855   8.066  0.2633  0.4548 -0.4764
   31MOL0     C 3982   4.987   5.829   8.209 -0.6648 -0.1379  0.1696
   31MOL0     C 3983   5.104   5.916   8.252 -0.5067  0.3241 -0.7192
   31MOL0     O 3984   5.148   5.889   8.386  0.7348 -0.8953  0.7050
   31MOL0     C 3985   5.215   5.782   8.430 -0.5914 -0.4041 -1.1309
   31MOL0     C 3986   5.298   5.703   8.350  0.0569 -0.2025 -0.0957
   31MOL0     C 3987   5.362   5.591   8.391  1.2042 -0.4590  0.6843
   31MOL0     C 3988   5.343   5.560   8.529 -0.7229  0.2271 -0.0945
   31MOL0     C 3989   5.419   5.435   8.581 -0.4576  0.9118  0.4231
   31MOL0     O 3990   5.412   5.408   8.713  0.1827 -0.5510 -0.1135
   31MOL0     C 3991   5.483   5.312   8.771  0.7549  0.1178 -0.7459
   31MOL0     C 3992   5.511   5.184   8.714  0.6583 -0.8311 -0.2587
   31MOL0     C 3993   5.572   5.087   8.792  0.1323 -0.2848 -0.2726
   31MOL0     C 3994   5.595   5.101   8.929  1.5032 -1.7177 -0.2344
   31MOL0     O 3995   5.655   4.999   8.991  0.3619  0.8329  0.7439
   31MOL0     C 3996   5.649   4.973   9.131  1.0488  0.0792  0.1755
   31MOL0     C 3997   5.768   4.874   9.158 -0.7906 -0.7151 -0.2201
   31MOL0     C 3998   5.748   4.723   9.134 -0.2306  0.4088 -0.2373
   31MOL0     C 3999   5.873   4.634   9.132  0.3532 -0.9238  0.3387
   31MOL0     C 4000   5.833   4.486   9.146 -0.0602  1.0065 -0.0955
   31MOL0     C 4001   5.961   4.402   9.159  0.2444  0.4102  0.0553
   31MOL0     C 4002   6.081   4.448   9.082 -1.2847  0.1816  0.6469
   31MOL0     C 4003   6.188   4.335   9.100  0.1734  0.1638  0.6979
   31MOL0    Cl 4004   6.357   4.395   9.049 -0.2376  0.4565 -0.0285
   31MOL0     C 4005   5.573   5.233   8.982  0.3944 -0.8251 -0.3107
   31MOL0     C 4006   5.518   5.335   8.903  0.0622 -0.3276  0.1362
   31MOL0     O 4007   5.490   5.378   8.506 -0.1169  0.0354  0.0482
   31MOL0     C 4008   5.270   5.634   8.615 -0.2180  0.3733  0.7518
   31MOL0     C 4009   5.205   5.746   8.570 -0.8565 -0.1011 -0.5243
   31MOL0     N 4010   4.743   6.080   7.857 -0.1466  0.7257 -0.6335
   31MOL0     N 4011   4.733   6.086   7.731 -0.2018  0.0677 -0.0757
   31MOL0     C 4012   5.093   6.430   6.541  0.1962 -0.2972  0.9863
   31MOL0     C 4013   5.080   6.548   6.460 -0.2823  0.0832  0.1247
   31MOL0     C 4014   5.196   6.987   6.322 -0.4465 -0.7797  0.9434
   31MOL0     C 4015   5.056   7.009   6.296  0.6386 -0.3324 -0.0268
   31MOL0     C 4016   5.013   7.134   6.258  0.0736 -0.2300 -0.4543
   31MOL0     C 4017   5.105   7.243   6.227  0.3131  0.1926  0.2894
   31MOL0     O 4018   5.053   7.368   6.186 -0.1660 -0.8850  0.1806
   31MOL0     C 4019   5.067   7.470   6.282 -0.6086 -0.0607 -0.4608
   31MOL0     C 4020   5.201   7.548   6.269  0.0303 -0.0229 -0.8127
   31MOL0     C 4021   5.182   7.695   6.324  0.3050  0.2430  0.8035
   31MOL0     C 4022   5.196   7.699   6.478  0.1932 -0.6086  0.1899
   31MOL0     C 4023   5.219   7.829   6.547 -0.4564  0.2407 -0.5785
   31MOL0     C 4024   5.237   7.943   6.584 -0.4613 -0.6114 -0.4722
   31MOL0     C 4025   5.242   7.215   6.235 -0.6165  0.3862 -0.3676
   31MOL0     C 4026   5.292   7.091   6.288 -0.5468 -0.2760  0.2332
   31MOL0     H 4027   5.334   6.725   6.607  0.1873  0.8024 -0.5452
   31MOL0     H 4028   5.339   6.519   6.748  0.5386 -0.2957 -0.1478
   31MOL0     H 4029   5.171   6.435   6.893 -4.2588 -1.1208  4.1729
   31MOL0     H 4030   5.294   6.313   6.898 -0.8436  0.5036  2.7984
   31MOL0     H 4031   5.139   6.148   6.941  1.9356  0.1982 -2.5271
   31MOL0     H 4032   4.999   6.231   6.876  1.2580  0.7462 -2.5969
   31MOL0     H 4033   4.995   6.396   7.069  1.1886  0.2960 -0.7594
   31MOL0     H 4034   5.122   6.303   7.141 -0.2859 -3.0015 -0.5190
   31MOL0     H 4035   4.841   6.229   7.061 -0.6568  3.0827  2.3175
   31MOL0     H 4036   4.958   6.097   7.073  2.7053  1.9060 -0.5936
   31MOL0     H 4037   4.855   6.275   7.306  0.7813 -0.2831  0.4231
   31MOL0     H 4038   4.993   6.175   7.323  0.0827  0.2682  0.1880
   31MOL0     H 4039   4.841   5.979   7.247 -1.9567 -1.2222 -1.5264
   31MOL0     H 4040   4.715   6.087   7.236 -1.5177 -2.2374  2.9673
   31MOL0     H 4041   4.716   6.153   7.468  3.2426  0.3529  3.4315
   31MOL0     H 4042   4.680   5.985   7.442 -2.7748  2.1124 -0.5074
   31MOL0     H 4043   4.949   6.104   7.522  1.8223 -0.7611  0.6989
   31MOL0     H 4044   4.904   5.924   7.499 -4.0043 -0.2709 -1.2614
   31MOL0     H 4045   5.019   5.937   7.776  0.1714  1.0687 -3.6130
   31MOL0     H 4046   4.794   5.987   8.104 -0.8928 -1.7798 -1.2739
   31MOL0     H 4047   4.935   6.087   8.072 -2.0652  0.5358 -1.5802
   31MOL0     H 4048   5.019   5.824   7.994 -0.6792 -1.7043 -0.6167
   31MOL0     H 4049   4.864   5.783   8.042 -0.5987  0.5366  1.8020
   31MOL0     H 4050   4.898   5.848   8.269 -2.2822  1.1790 -2.4744
   31MOL0     H 4051   5.024   5.727   8.219 -0.4004 -0.2204 -1.4095
   31MOL0     H 4052   5.074   6.021   8.248 -1.3907  0.1481  0.5311
   31MOL0     H 4053   5.187   5.899   8.183 -0.7392 -0.7014 -0.7598
   31MOL0     H 4054   5.304   5.731   8.245 -2.7802  0.4636 -0.1476
   31MOL0     H 4055   5.408   5.532   8.313  0.3826  0.9359 -0.9043
   31MOL0     H 4056   5.488   5.169   8.609 -3.0667 -0.6680  0.4051
   31MOL0     H 4057   5.603   4.990   8.754  1.0276  0.6902 -2.1845
   31MOL0     H 4058   5.558   4.913   9.145  0.7633  0.3568 -0.4782
   31MOL0     H 4059   5.649   5.067   9.186  2.3581  0.5130 -0.5261
   31MOL0     H 4060   5.790   4.879   9.265  1.0885  0.1181 -0.6083
   31MOL0     H 4061   5.854   4.906   9.098 -1.8331 -2.3365 -2.7406
   31MOL0     H 4062   5.700   4.725   9.035 -0.9821  2.3295  0.1115
   31MOL0     H 4063   5.667   4.690   9.201  0.5158  2.9747  2.1548
   31MOL0     H 4064   5.919   4.648   9.034 -1.7601  1.3241 -0.4174
   31MOL0     H 4065   5.931   4.656   9.221  0.8622 -0.1006 -0.1825
   31MOL0     H 4066   5.779   4.444   9.061 -1.4766 -2.7933  2.3757
   31MOL0     H 4067   5.777   4.461   9.237  0.4374  1.2358  0.2799
   31MOL0     H 4068   5.942   4.303   9.115 -0.9256  0.6397  0.0212
   31MOL0     H 4069   5.981   4.383   9.265 -0.4307 -1.4863 -0.1110
   31MOL0     H 4070   6.065   4.471   8.976  2.5721  1.0029  0.1025
   31MOL0     H 4071   6.112   4.535   9.141 -3.2011  0.0157  1.9656
   31MOL0     H 4072   6.158   4.247   9.042  0.9234 -1.5087  2.6936
   31MOL0     H 4073   6.187   4.318   9.209 -1.8014  2.5299  1.1394
   31MOL0     H 4074   5.614   5.268   9.077  0.0353 -2.3908  0.4510
   31MOL0     H 4075   5.497   5.431   8.949 -1.4588  0.1287 -1.4089
   31MOL0     H 4076   5.253   5.608   8.719 -0.8916 -0.6553  0.4033
   31MOL0     H 4077   5.136   5.808   8.625 -1.2669 -0.6733 -0.3826
   31MOL0     H 4078   5.018   6.353   6.525 -2.2383  1.7571  1.8296
   31MOL0     H 4079   4.999   6.555   6.388 -0.6966  0.6863  0.6433
   31MOL0     H 4080   4.983   6.931   6.320 -1.7902  2.0260  0.7223
   31MOL0     H 4081   4.905   7.133   6.255  0.0322 -2.1879 -0.0833
   31MOL0     H 4082   5.043   7.435   6.383  1.0013 -0.4474 -0.1919
   31MOL0     H 4083   4.993   7.549   6.264 -1.7659 -1.1307 -0.5178
   31MOL0     H 4084   5.286   7.512   6.328 -0.4142 -0.8168 -0.6385
   31MOL0     H 4085   5.236   7.559   6.166  3.3177  1.8657  0.3712
   31MOL0     H 4086   5.086   7.734   6.290  0.5512 -0.1317 -0.4037
   31MOL0     H 4087   5.257   7.766   6.288 -0.8500  3.5167  4.3181
   31MOL0     H 4088   5.107   7.649   6.518  0.6871 -0.3467  1.6934
   31MOL0     H 4089   5.265   7.619   6.506 -0.1546 -1.4956 -1.3844
   31MOL0     H 4090   5.247   8.041   6.627 -1.0064  0.3401 -2.4388
   31MOL0     H 4091   5.313   7.292   6.205 -2.0742  1.2362 -1.7273
   31MOL0     H 4092   5.392   7.076   6.329 -0.9402  0.2384  1.4469
   32MOL0     O 4093   1.229  10.563   2.393 -0.2032  0.9172 -0.5848
   32MOL0     C 4094   1.130  10.539   2.465 -0.2915  0.5882 -0.1060
   32MOL0     O 4095   1.136  10.540   2.608 -0.4640 -0.7830  0.6653
   32MOL0     C 4096   1.242  10.567   2.690 -0.2322  0.0014  0.0314
   32MOL0     C 4097   1.198  10.569   2.825 -0.4939  0.8435  0.3999
   32MOL0     C 4098   1.289  10.594   2.932 -0.4171  1.3005  0.4186
   32MOL0     C 4099   1.421  10.635   2.899  1.0899  0.2684  0.1424
   32MOL0     O 4100   1.503  10.679   3.006  0.0398 -0.3290 -0.2296
   32MOL0     C 4101   1.632  10.733   2.974  0.3617 -0.6002  0.0077
   32MOL0     C 4102   1.718  10.762   3.091 -0.1690 -0.1763 -0.0858
   32MOL0     C 4103   1.850  10.834   3.052  1.1515  0.3234  0.6160
   32MOL0     C 4104   1.907  10.910   3.171 -0.4665  0.2396 -0.3718
   32MOL0     C 4105   2.031  10.980   3.119  0.0510 -0.3645 -0.3063
   32MOL0     C 4106   2.110  11.060   3.229  0.9161 -1.0408  0.1924
   32MOL0     C 4107   2.252  11.107   3.204  0.4978  0.1670  0.0099
   32MOL0     C 4108   2.340  11.088   3.342  0.1275 -0.0955 -0.6737
   32MOL0     N 4109   2.480  11.131   3.333  0.0492 -0.2911 -0.0959
   32MOL0     C 4110   2.553  11.081   3.227 -0.3996 -0.5174 -0.0609
   32MOL0     C 4111   2.683  11.105   3.258 -0.2307  1.1067 -0.9228
   32MOL0     C 4112   2.816  11.056   3.188 -0.0212 -0.6099 -1.0078
   32MOL0     C 4113   2.887  11.171   3.105 -0.0404  0.3944 -0.8479
   32MOL0     C 4114   3.034  11.146   3.083 -0.5717 -0.6324  0.6183
   32MOL0     C 4115   3.091  11.269   3.015  0.3199  0.5022 -0.2833
   32MOL0     O 4116   3.029  11.279   2.886  0.1635 -0.4721  0.1943
   32MOL0     C 4117   3.075  11.375   2.802 -0.0454  0.5032 -0.0157
   32MOL0     C 4118   3.116  11.335   2.675  0.1463  0.5303  0.9800
   32MOL0     C 4119   3.162  11.424   2.583  0.4706 -0.4539 -0.4981
   32MOL0     C 4120   3.180  11.559   2.614  0.0906 -0.6405  0.2998
   32MOL0     C 4121   3.233  11.659   2.515  0.7058 -0.6563  0.6674
   32MOL0     O 4122   3.204  11.792   2.533  0.2876  0.0345 -0.0513
   32MOL0     C 4123   3.221  11.881   2.427 -0.6870 -0.2149 -0.3336
   32MOL0     C 4124   3.234  12.015   2.454  1.0090 -0.0071  0.2940
   32MOL0     C 4125   3.238  12.121   2.361  0.2012  0.1146 -0.3500
   32MOL0     C 4126   3.223  12.092   2.220  0.5104  0.5309 -0.7982
   32MOL0     O 4127   3.227  12.204   2.142 -0.3774  0.1161  0.6331
   32MOL0     C 4128   3.208  12.190   1.998 -0.8174  0.1170  0.2656
   32MOL0     C 4129   3.103  12.286   1.953  0.3151  0.4219  0.3714
   32MOL0     C 4130   3.081  12.265   1.800 -0.5791 -0.0577  0.0895
   32MOL0     C 4131   2.948  12.297   1.745  0.0091 -0.1369  0.1087
   32MOL0     C 4132   2.955  12.275   1.592  0.0237 -0.2395  0.1229
   32MOL0     C 4133   2.823  12.302   1.517  0.2640 -0.4401  0.2062
   32MOL0     C 4134   2.856  12.318   1.366 -0.3402 -0.4470  0.2988
   32MOL0     C 4135   2.749  12.420   1.325  0.4656 -0.2002 -0.0413
   32MOL0    Cl 4136   2.763  12.461   1.149  0.1015  0.0477  0.0215
   32MOL0     C 4137   3.210  11.952   2.183  0.6581  0.3982 -0.2714
   32MOL0     C 4138   3.200  11.859   2.289  0.0380  0.1592 -0.9704
   32MOL0     O 4139   3.302  11.610   2.425 -0.2734 -0.2071 -0.1322
   32MOL0     C 4140   3.138  11.605   2.743  0.0628 -0.9200  1.1100
   32MOL0     C 4141   3.074  11.512   2.830 -0.8301  0.1044 -0.2953
   32MOL0     N 4142   2.672  11.181   3.378 -0.3908 -0.9898  0.2658
   32MOL0     N 4143   2.557  11.184   3.428  1.3024 -0.3058 -0.0756
   32MOL0     C 4144   1.457  10.631   2.765 -0.1267  0.3668  0.0757
   32MOL0     C 4145   1.371  10.604   2.662 -0.0016 -0.4781 -0.0315
   32MOL0     C 4146   0.993  10.530   2.405 -0.7691  0.3011 -0.5437
   32MOL0     C 4147   0.906  10.429   2.449  0.7260  0.3481 -0.0661
   32MOL0     C 4148   0.776  10.407   2.387  0.0206 -0.2608 -0.5137
   32MOL0     C 4149   0.736  10.492   2.292  0.3109 -0.7822  0.5786
   32MOL0     O 4150   0.606  10.471   2.250  0.2836 -0.4511  0.3616
   32MOL0     C 4151   0.542  10.570   2.158 -0.1313 -0.2794  0.1016
   32MOL0     C 4152   0.496  10.699   2.237 -0.1346  0.8811  0.1263
   32MOL0     C 4153   0.362  10.753   2.201  0.3580  0.3291  0.0111
   32MOL0     C 4154   0.368  10.800   2.063 -0.4221 -0.3118 -0.4878
   32MOL0     C 4155   0.235  10.826   2.012  0.3790 -0.3144 -0.0241
   32MOL0     C 4156   0.127  10.830   1.965  0.1163 -0.2370  0.0718
   32MOL0     C 4157   0.823  10.588   2.239 -0.1136 -1.6372  0.2811
   32MOL0     C 4158   0.947  10.609   2.302  0.0985  0.2333 -0.3254
   32MOL0     H 4159   1.091  10.550   2.838 -0.4490 -0.6184 -1.0249
   32MOL0     H 4160   1.250  10.625   3.028 -0.9555  0.0375  0.6269
   32MOL0     H 4161   1.622  10.824   2.913  0.6593 -0.6480 -0.1125
   32MOL0     H 4162   1.687  10.657   2.917  5.5318 -0.2927  3.8984
   32MOL0     H 4163   1.742  10.670   3.144  0.8975 -0.6683 -1.3824
   32MOL0     H 4164   1.655  10.810   3.166  1.1657 -3.0172  3.1161
   32MOL0     H 4165   1.836  10.895   2.962  0.5003  2.7680  2.2600
   32MOL0     H 4166   1.912  10.747   3.031 -0.8464 -1.5867  2.1915
   32MOL0     H 4167   1.843  10.981   3.224  0.5613  0.8984  0.0172
   32MOL0     H 4168   1.937  10.847   3.255  4.6648  2.6416 -0.0633
   32MOL0     H 4169   2.006  11.057   3.046 -0.3741  3.5413  3.5306
   32MOL0     H 4170   2.102  10.909   3.076 -1.4934 -0.8890 -2.0964
   32MOL0     H 4171   2.103  11.002   3.321  0.2336  0.7367  1.3213
   32MOL0     H 4172   2.048  11.150   3.243  0.6535 -1.3365  0.9776
   32MOL0     H 4173   2.285  11.040   3.124 -1.0907 -2.7788  1.6457
   32MOL0     H 4174   2.279  11.208   3.173  5.4898 -0.9456 -0.1604
   32MOL0     H 4175   2.339  10.982   3.371 -1.2638  0.5008  1.7005
   32MOL0     H 4176   2.276  11.145   3.410 -3.5218 -3.8658 -0.5098
   32MOL0     H 4177   2.509  11.023   3.145 -2.3905 -1.6842  1.7304
   32MOL0     H 4178   2.789  10.971   3.126  3.0981 -3.3138  1.0055
   32MOL0     H 4179   2.877  11.015   3.269 -1.4387 -0.5513  0.1415
   32MOL0     H 4180   2.877  11.268   3.153  2.5464 -0.1775  1.1145
   32MOL0     H 4181   2.821  11.189   3.020 -4.6149  0.7766  2.4021
   32MOL0     H 4182   3.101  11.117   3.164  0.2110 -0.4526  0.0462
   32MOL0     H 4183   3.045  11.061   3.015 -1.4379 -1.1230  1.0853
   32MOL0     H 4184   3.199  11.256   3.016  0.2442 -0.1218  0.3944
   32MOL0     H 4185   3.071  11.360   3.073 -1.0298  1.1673 -1.7087
   32MOL0     H 4186   3.105  11.231   2.646  3.5354  0.7894 -1.8755
   32MOL0     H 4187   3.198  11.389   2.486  0.2361  0.6728 -1.0086
   32MOL0     H 4188   3.253  12.028   2.560  3.7872 -2.5080  0.2487
   32MOL0     H 4189   3.250  12.218   2.407 -2.8809  0.5838 -0.3473
   32MOL0     H 4190   3.176  12.087   1.983 -0.3901 -0.4255  2.7575
   32MOL0     H 4191   3.303  12.211   1.947 -0.9649 -2.2721 -1.1560
   32MOL0     H 4192   3.136  12.391   1.949 -1.0486  0.8900  0.7668
   32MOL0     H 4193   3.018  12.278   2.021 -1.0614 -2.4461 -1.5183
   32MOL0     H 4194   3.101  12.160   1.778  1.6909  0.5554 -1.0166
   32MOL0     H 4195   3.161  12.316   1.746 -1.3451 -2.1786 -3.4186
   32MOL0     H 4196   2.864  12.233   1.772  0.0558 -0.3922 -0.3448
   32MOL0     H 4197   2.931  12.401   1.775  1.6398 -0.4677  2.4172
   32MOL0     H 4198   2.968  12.169   1.568  1.7240  0.1913 -1.0300
   32MOL0     H 4199   3.030  12.340   1.546 -1.8115  1.7490 -0.2216
   32MOL0     H 4200   2.780  12.392   1.562  0.2974 -0.5329  0.4290
   32MOL0     H 4201   2.752  12.221   1.538  1.3477 -1.5557 -0.2921
   32MOL0     H 4202   2.955  12.353   1.335  0.0583  0.2153  2.2024
   32MOL0     H 4203   2.833  12.223   1.317 -2.3294  0.5332 -0.8284
   32MOL0     H 4204   2.752  12.509   1.388 -0.4349 -1.0945  1.3276
   32MOL0     H 4205   2.654  12.370   1.345  0.3481 -0.4442 -1.1204
   32MOL0     H 4206   3.193  11.914   2.083  0.6095  0.1964 -0.1849
   32MOL0     H 4207   3.173  11.756   2.265  1.6577 -0.2552 -1.1174
   32MOL0     H 4208   3.132  11.711   2.764 -4.6844 -0.2140 -2.2600
   32MOL0     H 4209   3.024  11.541   2.922 -4.1886  2.1164 -2.5305
   32MOL0     H 4210   1.560  10.659   2.748  0.1186 -0.5651 -0.0095
   32MOL0     H 4211   1.399  10.615   2.558 -2.3601 -1.9452 -0.9041
   32MOL0     H 4212   0.938  10.351   2.517 -0.0746 -0.1783 -0.2853
   32MOL0     H 4213   0.723  10.320   2.424  2.6222 -1.3592  0.9403
   32MOL0     H 4214   0.456  10.518   2.113  0.4312 -0.6699 -0.5390
   32MOL0     H 4215   0.602  10.607   2.075  1.1933 -1.0825  0.6628
   32MOL0     H 4216   0.491  10.683   2.345  0.5897 -1.9238 -0.1632
   32MOL0     H 4217   0.568  10.778   2.214 -2.1674  2.1593 -2.3726
   32MOL0     H 4218   0.327  10.826   2.274  1.4766 -1.0259  1.9728
   32MOL0     H 4219   0.287  10.674   2.208  1.9102 -1.3595 -1.2730
   32MOL0     H 4220   0.433  10.887   2.049  1.6795 -1.7910 -0.4332
   32MOL0     H 4221   0.410  10.723   1.997  0.9868  0.6757 -0.7908
   32MOL0     H 4222   0.024  10.833   1.935  0.2780 -1.1280 -0.6100
   32MOL0     H 4223   0.789  10.659   2.165  0.9622 -0.8008  0.5632
   32MOL0     H 4224   1.004  10.689   2.255 -1.1144  0.0485 -2.2122
   33MOL0     O 4225   5.017   6.626  10.235 -0.6446  0.3758 -0.0379
   33MOL0     C 4226   5.086   6.521  10.235 -0.4704  0.4280 -0.1782
   33MOL0     O 4227   5.076   6.419  10.140 -0.7628  0.1391  0.0953
   33MOL0     C 4228   4.988   6.436  10.030 -0.4163  0.4268 -0.3712
   33MOL0     C 4229   4.850   6.427  10.046  0.2223  0.4836  0.4979
   33MOL0     C 4230   4.766   6.445   9.936 -0.5367 -0.1685  0.5767
   33MOL0     C 4231   4.803   6.484   9.812 -1.2602 -0.0587  0.7637
   33MOL0     O 4232   4.708   6.516   9.721 -1.1216 -0.2403  0.1788
   33MOL0     C 4233   4.757   6.603   9.624  0.0764 -0.1166  0.7205
   33MOL0     C 4234   4.635   6.639   9.525 -0.0176 -0.3419 -0.6916
   33MOL0     C 4235   4.585   6.519   9.443 -0.7022  0.5599 -0.2830
   33MOL0     C 4236   4.445   6.537   9.376  0.1128 -1.3116  1.0971
   33MOL0     C 4237   4.404   6.417   9.298  0.3279  0.5468  0.5530
   33MOL0     C 4238   4.258   6.433   9.258 -0.3017 -0.4416 -0.1080
   33MOL0     C 4239   4.152   6.402   9.360 -0.6853  0.4515 -0.6362
   33MOL0     C 4240   4.021   6.423   9.290  0.8766  0.1848  1.4781
   33MOL0     N 4241   3.992   6.311   9.197  0.4974  0.1258  0.0994
   33MOL0     C 4242   4.030   6.295   9.073  0.2804  0.8865 -0.1121
   33MOL0     C 4243   3.978   6.171   9.032 -0.5185 -0.1502 -0.6862
   33MOL0     C 4244   3.983   6.116   8.896  0.6842 -0.0533  0.2965
   33MOL0     C 4245   4.120   6.091   8.832 -0.1741  0.6462 -0.2212
   33MOL0     C 4246   4.104   5.969   8.741  0.0337  0.8115 -0.8433
   33MOL0     C 4247   4.236   5.926   8.682 -0.2214 -0.3212 -0.3822
   33MOL0     O 4248   4.226   5.834   8.574  0.8147 -0.4500 -0.0332
   33MOL0     C 4249   4.178   5.883   8.452  0.3488  0.1902 -0.0714
   33MOL0     C 4250   4.177   5.784   8.350 -0.5841 -0.3058 -0.3449
   33MOL0     C 4251   4.141   5.813   8.220  0.5963 -0.4887 -0.3898
   33MOL0     C 4252   4.096   5.941   8.186 -0.2933 -0.1441  0.3450
   33MOL0     C 4253   4.031   5.966   8.058  0.0022  1.0948  0.0266
   33MOL0     O 4254   4.007   5.850   7.988  0.0938 -0.4670  0.3625
   33MOL0     C 4255   3.915   5.862   7.887  0.1590 -0.2099  0.3906
   33MOL0     C 4256   3.920   5.955   7.784 -0.0351 -0.3381  0.3153
   33MOL0     C 4257   3.829   5.956   7.677  0.4900 -0.3886 -0.2022
   33MOL0     C 4258   3.734   5.851   7.663 -0.9027  0.0126 -0.6854
   33MOL0     O 4259   3.637   5.837   7.569 -0.0521  0.0901 -0.3526
   33MOL0     C 4260   3.634   5.940   7.470  0.9581  0.6596  0.2047
   33MOL0     C 4261   3.509   5.918   7.380  0.0997 -0.3563 -0.2862
   33MOL0     C 4262   3.373   5.925   7.457 -0.2849 -0.9029  0.2558
   33MOL0     C 4263   3.360   6.028   7.572  0.1796  0.0018  0.1063
   33MOL0     C 4264   3.244   5.992   7.672 -0.4443 -0.0519 -0.4513
   33MOL0     C 4265   3.266   6.067   7.803  0.5919 -0.3674  0.2839
   33MOL0     C 4266   3.277   6.215   7.796  1.3426 -0.1150  0.5469
   33MOL0     C 4267   3.337   6.258   7.931  0.6973  0.1069 -0.8773
   33MOL0    Cl 4268   3.354   6.431   7.925 -0.9082 -0.6069  0.5346
   33MOL0     C 4269   3.723   5.764   7.770  0.6726 -0.6978  0.6834
   33MOL0     C 4270   3.813   5.763   7.875 -0.1800 -1.1358  0.7490
   33MOL0     O 4271   3.975   6.072   8.044  1.0532 -0.4750  0.1317
   33MOL0     C 4272   4.074   6.033   8.292 -0.0822 -0.0817  0.9374
   33MOL0     C 4273   4.127   6.013   8.425  0.8532  0.4850  0.4332
   33MOL0     N 4274   3.897   6.128   9.136 -1.0148 -0.0580  0.5644
   33MOL0     N 4275   3.915   6.205   9.240 -0.0874 -0.3506 -0.2518
   33MOL0     C 4276   4.941   6.504   9.798  0.1339 -0.4483  0.8337
   33MOL0     C 4277   5.034   6.488   9.900  0.0805  1.0583 -0.1570
   33MOL0     C 4278   5.202   6.495  10.328 -0.6701  0.5349 -0.0651
   33MOL0     C 4279   5.253   6.363  10.342  0.4389 -0.4434  0.2359
   33MOL0     C 4280   5.352   6.337  10.428 -0.1033 -0.2329  0.4894
   33MOL0     C 4281   5.400   6.435  10.513 -0.4757  0.2816  0.5053
   33MOL0     O 4282   5.503   6.395  10.598 -0.2410 -0.7561  0.9072
   33MOL0     C 4283   5.532   6.473  10.721  0.2856 -0.1918 -0.2578
   33MOL0     C 4284   5.629   6.399  10.813  0.5786  0.2133 -0.9310
   33MOL0     C 4285   5.770   6.386  10.757 -1.1872  0.5859 -0.1115
   33MOL0     C 4286   5.859   6.507  10.750 -1.0856  0.8256 -0.2810
   33MOL0     C 4287   5.895   6.540  10.612  0.1496  0.3709 -0.6240
   33MOL0     C 4288   5.925   6.569  10.495  0.7247  0.0528 -0.5975
   33MOL0     C 4289   5.356   6.562  10.498  0.8514 -0.6426  0.0051
   33MOL0     C 4290   5.262   6.591  10.406 -1.1246  0.5424  0.1203
   33MOL0     H 4291   4.800   6.399  10.138 -0.9838 -1.1752 -0.6116
   33MOL0     H 4292   4.658   6.436   9.947 -0.5650  1.3579  2.0335
   33MOL0     H 4293   4.841   6.559   9.569 -0.2496 -1.1160  1.0113
   33MOL0     H 4294   4.792   6.700   9.662  1.5713 -1.4348  2.8984
   33MOL0     H 4295   4.673   6.719   9.460  0.3650  0.8265  0.9139
   33MOL0     H 4296   4.554   6.682   9.585  0.2016  0.5290 -0.9970
   33MOL0     H 4297   4.588   6.420   9.488  0.2758  0.4470 -0.5551
   33MOL0     H 4298   4.661   6.507   9.364  1.4449  1.8646  1.4703
   33MOL0     H 4299   4.376   6.549   9.460  0.8872  0.4529  1.5190
   33MOL0     H 4300   4.442   6.625   9.313 -0.9404 -2.8997 -1.2122
   33MOL0     H 4301   4.429   6.330   9.360  2.5737  1.1302  0.5444
   33MOL0     H 4302   4.468   6.392   9.212  0.9150 -3.9454  2.0322
   33MOL0     H 4303   4.251   6.363   9.174  5.4488 -0.8961 -0.6181
   33MOL0     H 4304   4.250   6.537   9.225 -0.7026 -0.6433 -0.6589
   33MOL0     H 4305   4.169   6.300   9.396 -1.2474  1.3717  2.5524
   33MOL0     H 4306   4.169   6.480   9.435  1.6913 -0.5678 -0.0211
   33MOL0     H 4307   4.014   6.522   9.243  2.0595 -0.8549 -1.1146
   33MOL0     H 4308   3.943   6.417   9.365 -2.2034  0.0916 -1.4791
   33MOL0     H 4309   4.094   6.359   9.013  1.4399  1.3861  1.5613
   33MOL0     H 4310   3.920   6.180   8.832  3.9053  1.3122 -1.7501
   33MOL0     H 4311   3.932   6.020   8.910 -1.5790  0.9554 -0.4239
   33MOL0     H 4312   4.197   6.072   8.907 -0.6388  2.4143  0.7639
   33MOL0     H 4313   4.139   6.182   8.776 -1.6031  3.0185  2.8452
   33MOL0     H 4314   4.072   5.880   8.794  1.2404  0.3909 -0.7943
   33MOL0     H 4315   4.029   5.997   8.666 -1.8025 -3.8036 -1.0260
   33MOL0     H 4316   4.303   5.885   8.758  2.2985  2.6289 -0.7699
   33MOL0     H 4317   4.297   6.011   8.648 -3.3309  2.6806  0.8989
   33MOL0     H 4318   4.219   5.685   8.365  0.3040  0.2315  0.8419
   33MOL0     H 4319   4.146   5.719   8.166 -1.8058 -0.6574 -0.4103
   33MOL0     H 4320   4.004   6.023   7.782  0.8030 -1.2042  2.3718
   33MOL0     H 4321   3.840   6.029   7.597 -0.8785 -0.5455 -0.5645
   33MOL0     H 4322   3.720   5.944   7.403  2.6340 -2.1950  1.9833
   33MOL0     H 4323   3.629   6.036   7.523 -0.8589  2.4393 -2.8475
   33MOL0     H 4324   3.514   5.821   7.331  0.0085 -0.6450  0.2737
   33MOL0     H 4325   3.512   5.996   7.303 -0.8282 -0.1436 -0.1183
   33MOL0     H 4326   3.351   5.822   7.485  1.0242 -1.6392 -1.2743
   33MOL0     H 4327   3.291   5.947   7.389 -1.5429 -0.7301  1.7805
   33MOL0     H 4328   3.446   6.023   7.641  0.2502 -0.9095 -0.0323
   33MOL0     H 4329   3.349   6.133   7.543  3.5904  0.5979  0.4431
   33MOL0     H 4330   3.249   5.885   7.696  1.2883 -0.0251 -0.5354
   33MOL0     H 4331   3.147   6.026   7.636 -0.9520  0.3147  1.1576
   33MOL0     H 4332   3.357   6.029   7.851  0.3281 -0.6561  0.5583
   33MOL0     H 4333   3.181   6.051   7.870  1.5871 -0.4792  1.5664
   33MOL0     H 4334   3.326   6.254   7.706 -0.0114 -1.9883 -1.0909
   33MOL0     H 4335   3.174   6.252   7.797  1.0424 -0.9189  0.5551
   33MOL0     H 4336   3.435   6.214   7.952 -0.5413 -1.7595  1.5020
   33MOL0     H 4337   3.261   6.232   8.005 -0.3624  0.2790 -1.8837
   33MOL0     H 4338   3.638   5.698   7.755 -0.1107  0.4821 -0.2446
   33MOL0     H 4339   3.795   5.692   7.955 -0.9224 -2.0519 -0.2002
   33MOL0     H 4340   4.029   6.129   8.265  2.3425  0.5318 -1.2591
   33MOL0     H 4341   4.129   6.067   8.519  2.9100 -0.2394  0.8472
   33MOL0     H 4342   4.985   6.538   9.705 -0.5980 -3.0967 -0.6038
   33MOL0     H 4343   5.136   6.518   9.876 -0.2692  1.3888 -1.3012
   33MOL0     H 4344   5.209   6.276  10.294  1.9038 -0.9467 -0.2298
   33MOL0     H 4345   5.390   6.237  10.445 -0.7216  0.0484  4.4227
   33MOL0     H 4346   5.435   6.489  10.769 -0.6904 -1.4742 -1.7065
   33MOL0     H 4347   5.585   6.565  10.692 -1.8215  0.8099 -1.1184
   33MOL0     H 4348   5.639   6.453  10.908  3.8746  1.6777 -1.9494
   33MOL0     H 4349   5.584   6.301  10.830  1.0891 -1.0286 -5.4179
   33MOL0     H 4350   5.760   6.335  10.660  0.3896  1.5324 -0.7992
   33MOL0     H 4351   5.811   6.311  10.826 -3.4328  0.7407  1.4974
   33MOL0     H 4352   5.802   6.586  10.802 -1.1956  0.4664  0.1567
   33MOL0     H 4353   5.951   6.494  10.807 -1.4167  2.6821  0.7780
   33MOL0     H 4354   5.941   6.598  10.393 -1.1287 -1.3645 -1.3547
   33MOL0     H 4355   5.402   6.640  10.558 -0.8404 -1.5518  2.6316
   33MOL0     H 4356   5.240   6.694  10.377  0.9698  0.0229 -4.1454
   34MOL0     O 4357   0.401   9.825   2.079 -0.2539 -0.6140 -0.6177
   34MOL0     C 4358   0.515   9.803   2.043  0.0443  0.4702 -0.4770
   34MOL0     O 4359   0.564   9.816   1.923  0.8333 -0.5040  0.0409
   34MOL0     C 4360   0.490   9.888   1.832  0.2412 -0.6684  0.9296
   34MOL0     C 4361   0.396   9.989   1.858 -0.3029  0.0739 -0.4624
   34MOL0     C 4362   0.338  10.060   1.753 -0.4549 -0.5705 -0.2082
   34MOL0     C 4363   0.367  10.015   1.624  0.2015 -0.3212 -0.0735
   34MOL0     O 4364   0.303  10.085   1.522 -0.8243 -0.1162  0.4496
   34MOL0     C 4365   0.403  10.154   1.439  0.7564 -0.4673  0.3774
   34MOL0     C 4366   0.379  10.095   1.296  0.9222 -0.2482  0.2811
   34MOL0     C 4367   0.459  10.166   1.184  0.3987 -0.8511  0.8434
   34MOL0     C 4368   0.472  10.101   1.047 -0.1865 -0.0620 -0.4834
   34MOL0     C 4369   0.428  10.193   0.928  0.0701  0.2744  0.4070
   34MOL0     C 4370   0.490  10.334   0.909 -0.9809  0.9270  0.4150
   34MOL0     C 4371   0.439  10.402   0.780 -0.3164  0.0615 -1.0481
   34MOL0     C 4372   0.555  10.466   0.711  0.7662  0.1209  0.6102
   34MOL0     N 4373   0.619  10.567   0.792  0.7514 -0.4170  0.3579
   34MOL0     C 4374   0.564  10.671   0.855 -0.2184 -0.0945  0.2460
   34MOL0     C 4375   0.642  10.704   0.956 -0.5978  0.0893  0.5258
   34MOL0     C 4376   0.655  10.826   1.047  0.4465 -0.3945 -0.1869
   34MOL0     C 4377   0.516  10.867   1.101  0.1878 -0.7571 -0.3107
   34MOL0     C 4378   0.509  11.000   1.169 -0.4339 -0.0935  0.8144
   34MOL0     C 4379   0.562  11.133   1.107  0.8320 -0.6617 -0.2254
   34MOL0     O 4380   0.502  11.257   1.168  0.0146  0.4645  0.6279
   34MOL0     C 4381   0.560  11.381   1.128  0.5861  0.7604  1.1321
   34MOL0     C 4382   0.645  11.407   1.014 -0.4359  0.0069  0.3721
   34MOL0     C 4383   0.703  11.537   0.985 -0.3740 -0.0436  1.4859
   34MOL0     C 4384   0.681  11.636   1.082  0.6067 -0.4947  0.5957
   34MOL0     C 4385   0.769  11.754   1.072 -0.4828 -0.6512  0.5703
   34MOL0     O 4386   0.869  11.762   0.980 -1.0952 -0.7746  1.6091
   34MOL0     C 4387   0.977  11.855   0.994  0.0597  0.4001 -0.0072
   34MOL0     C 4388   1.113  11.822   0.992  0.0412 -0.7358  0.1158
   34MOL0     C 4389   1.208  11.926   0.980 -0.5913  0.1038  0.9321
   34MOL0     C 4390   1.178  12.055   0.967 -0.1565  0.4141  0.2529
   34MOL0     O 4391   1.290  12.132   0.980 -0.1692  0.2706 -0.4102
   34MOL0     C 4392   1.269  12.271   0.967 -0.3149 -0.3297 -0.8296
   34MOL0     C 4393   1.408  12.335   0.984 -0.6472 -0.3857  0.6354
   34MOL0     C 4394   1.485  12.328   0.851 -0.3295 -0.5161 -0.4271
   34MOL0     C 4395   1.596  12.437   0.838  0.1073  0.3026  0.3935
   34MOL0     C 4396   1.710  12.428   0.939  0.5140 -0.7158  0.3975
   34MOL0     C 4397   1.786  12.553   0.959 -0.2705 -0.3132  0.0981
   34MOL0     C 4398   1.876  12.566   1.079  0.2200  0.5028 -0.1706
   34MOL0     C 4399   1.926  12.709   1.100  0.2602  0.3913  0.0639
   34MOL0    Cl 4400   1.995  12.713   1.260 -0.2531 -0.8823  0.3401
   34MOL0     C 4401   1.042  12.091   0.953  0.0951 -0.2919 -0.3619
   34MOL0     C 4402   0.939  11.989   0.981 -0.1281 -0.3579 -0.5203
   34MOL0     O 4403   0.750  11.844   1.156  0.0967  0.5000 -0.4514
   34MOL0     C 4404   0.591  11.615   1.188 -0.2805  0.5919 -0.4100
   34MOL0     C 4405   0.525  11.489   1.214  0.3170 -0.6903  0.0681
   34MOL0     N 4406   0.752  10.613   0.954  0.0492 -0.1936  0.5702
   34MOL0     N 4407   0.731  10.530   0.857 -0.6813  0.7195 -0.1020
   34MOL0     C 4408   0.452   9.905   1.598  0.2545 -0.4670  0.8158
   34MOL0     C 4409   0.510   9.838   1.698 -0.1663  0.4774 -0.7732
   34MOL0     C 4410   0.601   9.735   2.139  0.2558 -0.0517 -0.4541
   34MOL0     C 4411   0.550   9.678   2.261  0.3801 -0.0627  0.6701
   34MOL0     C 4412   0.638   9.617   2.359 -1.6752 -0.3008 -0.5540
   34MOL0     C 4413   0.777   9.604   2.328  0.0902 -0.3136  0.4291
   34MOL0     O 4414   0.856   9.561   2.432 -0.5774 -0.4541 -0.4369
   34MOL0     C 4415   0.999   9.555   2.411 -0.5363  0.0397  0.7845
   34MOL0     C 4416   1.079   9.499   2.526  0.6645  0.5937 -0.5189
   34MOL0     C 4417   1.223   9.458   2.478  0.4186 -0.7297 -0.4812
   34MOL0     C 4418   1.238   9.332   2.393 -0.1284  0.0889  0.2485
   34MOL0     C 4419   1.363   9.320   2.318 -1.0503 -0.1079 -0.0650
   34MOL0     C 4420   1.468   9.305   2.265  0.0034  0.4229 -0.1797
   34MOL0     C 4421   0.830   9.651   2.202 -0.4762 -0.5591  0.2039
   34MOL0     C 4422   0.736   9.712   2.114 -0.1464 -0.1516  0.4455
   34MOL0     H 4423   0.379  10.021   1.961  1.5886 -1.8466  0.5509
   34MOL0     H 4424   0.266  10.141   1.758 -1.3221 -1.3436  0.1536
   34MOL0     H 4425   0.507  10.152   1.471  0.0362 -1.9018  2.8664
   34MOL0     H 4426   0.372  10.258   1.423 -1.2785 -0.9005  1.1913
   34MOL0     H 4427   0.273  10.105   1.274  1.2821  1.4085 -0.9146
   34MOL0     H 4428   0.408   9.989   1.291  1.1976 -0.1334 -2.5298
   34MOL0     H 4429   0.561  10.187   1.218 -0.0604  0.4645  1.4749
   34MOL0     H 4430   0.415  10.263   1.158  2.5535  0.2039  0.8832
   34MOL0     H 4431   0.578  10.081   1.027  0.5216  0.1273  2.5989
   34MOL0     H 4432   0.414  10.009   1.042 -0.1281 -0.1490  0.3569
   34MOL0     H 4433   0.321  10.207   0.945  0.0351  0.1504  0.2892
   34MOL0     H 4434   0.428  10.134   0.836  2.0221 -0.5826  0.9152
   34MOL0     H 4435   0.599  10.324   0.915 -0.9607  1.6168  1.3835
   34MOL0     H 4436   0.454  10.386   0.998 -3.9656 -1.2078  0.5785
   34MOL0     H 4437   0.407  10.321   0.714 -0.0956 -1.1142  0.2296
   34MOL0     H 4438   0.369  10.483   0.803  0.3311  0.9437 -2.0784
   34MOL0     H 4439   0.517  10.514   0.620 -2.5923  2.5109  3.0108
   34MOL0     H 4440   0.628  10.390   0.683 -0.6332 -0.5648 -1.4213
   34MOL0     H 4441   0.481  10.728   0.814 -1.2063 -2.4819 -1.3376
   34MOL0     H 4442   0.695  10.912   0.992 -1.8842  0.5415 -0.5342
   34MOL0     H 4443   0.733  10.815   1.124  2.0709  1.8849 -1.3728
   34MOL0     H 4444   0.470  10.793   1.168 -5.5508  1.6411 -0.9785
   34MOL0     H 4445   0.445  10.872   1.017  2.8388 -1.6744 -2.7888
   34MOL0     H 4446   0.402  11.015   1.185 -0.8667 -0.7883 -1.1695
   34MOL0     H 4447   0.552  10.989   1.269  3.6315 -1.1238 -0.8320
   34MOL0     H 4448   0.565  11.134   0.997 -0.6145  0.6701 -0.2938
   34MOL0     H 4449   0.664  11.134   1.144  0.5054 -0.5535  0.6922
   34MOL0     H 4450   0.680  11.341   0.935 -0.1601  2.0920 -1.3323
   34MOL0     H 4451   0.768  11.546   0.899 -3.0502 -2.2613 -0.9620
   34MOL0     H 4452   1.142  11.718   0.987 -4.6137 -2.3667  1.7170
   34MOL0     H 4453   1.312  11.894   0.980 -1.0083 -1.4737 -0.8679
   34MOL0     H 4454   1.199  12.299   1.047  0.0481  0.6785 -0.8436
   34MOL0     H 4455   1.220  12.303   0.874 -0.0365  2.5198 -0.1143
   34MOL0     H 4456   1.464  12.283   1.063  1.8508 -0.0395 -0.8176
   34MOL0     H 4457   1.392  12.437   1.020  1.3895 -0.6786  2.5975
   34MOL0     H 4458   1.420  12.354   0.766 -0.3695  1.1075  0.0699
   34MOL0     H 4459   1.536  12.232   0.836  2.8251  0.7281  1.4986
   34MOL0     H 4460   1.647  12.441   0.741 -1.8940 -2.2746 -0.8823
   34MOL0     H 4461   1.550  12.536   0.846 -0.2727  0.3573 -1.7973
   34MOL0     H 4462   1.785  12.353   0.911  1.8413 -0.8548  3.8848
   34MOL0     H 4463   1.675  12.392   1.036  0.5255 -2.6644 -0.2860
   34MOL0     H 4464   1.719  12.638   0.972 -0.8550 -0.9917  1.9684
   34MOL0     H 4465   1.852  12.564   0.873 -1.5846 -0.9166 -1.0166
   34MOL0     H 4466   1.816  12.530   1.164  0.9968 -2.2660 -0.6833
   34MOL0     H 4467   1.958  12.494   1.081  0.0827  0.3552  0.5615
   34MOL0     H 4468   1.845  12.781   1.093 -0.0291 -0.0040 -0.9196
   34MOL0     H 4469   2.011  12.732   1.035 -1.1435  0.8632 -1.6776
   34MOL0     H 4470   1.006  12.193   0.942 -0.7814 -0.5748 -0.2441
   34MOL0     H 4471   0.839  12.025   1.003  0.3918  1.0764 -0.4105
   34MOL0     H 4472   0.595  11.689   1.268  0.9326  0.6707 -0.5240
   34MOL0     H 4473   0.463  11.482   1.303 -3.0935 -0.8234 -2.1612
   34MOL0     H 4474   0.460   9.862   1.499 -4.4582 -0.3831  0.1781
   34MOL0     H 4475   0.582   9.757   1.689  1.3690  1.6019  0.9437
   34MOL0     H 4476   0.446   9.685   2.289  1.0143  1.0677  2.9497
   34MOL0     H 4477   0.605   9.587   2.458  1.1308  0.0310  0.5819
   34MOL0     H 4478   1.024   9.657   2.380 -1.0634 -0.7186 -2.5007
   34MOL0     H 4479   1.023   9.502   2.318  5.2065  3.0668  0.0726
   34MOL0     H 4480   1.092   9.588   2.589  0.4997  0.6200 -0.5215
   34MOL0     H 4481   1.029   9.421   2.584  1.1850 -0.0155 -0.8805
   34MOL0     H 4482   1.289   9.453   2.565  0.2034 -1.1430 -0.3377
   34MOL0     H 4483   1.260   9.543   2.419 -0.6730  0.9926  1.2272
   34MOL0     H 4484   1.219   9.237   2.444 -1.5183  0.9763  1.4499
   34MOL0     H 4485   1.163   9.329   2.314 -1.7095 -0.9340  1.7248
   34MOL0     H 4486   1.554   9.296   2.203  0.1502 -1.9886  0.2567
   34MOL0     H 4487   0.931   9.635   2.165 -1.0455  1.1948 -2.4006
   34MOL0     H 4488   0.784   9.744   2.022 -2.1538  2.3481  0.1635
   35MOL0     O 4489   6.242   3.595   7.528  0.6836 -0.1388 -0.3719
   35MOL0     C 4490   6.330   3.525   7.479  0.1109  0.2105 -1.0780
   35MOL0     O 4491   6.433   3.561   7.401 -0.1711 -0.4765  0.0425
   35MOL0     C 4492   6.458   3.692   7.388  0.1459 -0.1331  0.0337
   35MOL0     C 4493   6.446   3.753   7.269 -0.0367 -0.2365 -0.4761
   35MOL0     C 4494   6.466   3.890   7.264 -0.0938 -0.3557  0.7316
   35MOL0     C 4495   6.516   3.957   7.373 -0.4721 -0.1134 -0.3889
   35MOL0     O 4496   6.555   4.086   7.331  0.3873  0.1434 -0.7786
   35MOL0     C 4497   6.655   4.159   7.410 -0.8465 -0.3408 -1.0636
   35MOL0     C 4498   6.786   4.077   7.411  0.1159  0.3196 -1.1965
   35MOL0     C 4499   6.880   4.133   7.518 -0.7741  0.3189 -2.0568
   35MOL0     C 4500   6.934   4.277   7.507 -0.5626  0.3295 -0.2324
   35MOL0     C 4501   7.007   4.311   7.369  0.1688  0.5514 -0.2218
   35MOL0     C 4502   7.120   4.221   7.329  0.1380 -0.4057 -0.0302
   35MOL0     C 4503   7.212   4.274   7.208 -0.3491  1.0714 -0.1490
   35MOL0     C 4504   7.337   4.347   7.253 -0.9590 -0.0295  0.1711
   35MOL0     N 4505   7.387   4.439   7.143 -0.6054  0.6581 -0.3449
   35MOL0     C 4506   7.355   4.421   7.011 -0.4500  0.1972  0.4491
   35MOL0     C 4507   7.402   4.535   6.956 -0.0733 -0.0311  1.1969
   35MOL0     C 4508   7.421   4.571   6.812 -0.1652  0.5417 -0.2964
   35MOL0     C 4509   7.530   4.499   6.730  0.2958 -1.6226  0.1446
   35MOL0     C 4510   7.502   4.504   6.572 -0.5431 -0.3854 -0.2945
   35MOL0     C 4511   7.629   4.462   6.487 -0.4038  0.3461 -0.4855
   35MOL0     O 4512   7.697   4.342   6.536  0.6940 -0.0061  0.5256
   35MOL0     C 4513   7.790   4.372   6.638  0.3596  0.7261  0.0531
   35MOL0     C 4514   7.896   4.453   6.625  0.7184 -0.3314 -0.1290
   35MOL0     C 4515   8.001   4.450   6.707 -0.3442 -0.7214 -0.2574
   35MOL0     C 4516   7.997   4.365   6.821  0.2807  0.0725 -0.6073
   35MOL0     C 4517   8.117   4.371   6.911  0.0898 -0.0089 -0.2932
   35MOL0     O 4518   8.187   4.483   6.908  0.1869 -0.6297  0.0464
   35MOL0     C 4519   8.300   4.507   6.974  0.1044 -0.4427 -1.0346
   35MOL0     C 4520   8.319   4.637   7.033 -0.5474  0.0758 -0.0330
   35MOL0     C 4521   8.443   4.674   7.086 -0.0001 -1.2656  0.0286
   35MOL0     C 4522   8.535   4.577   7.115  1.0157  0.0595 -0.0773
   35MOL0     O 4523   8.644   4.585   7.198  0.1742 -0.4208 -0.5888
   35MOL0     C 4524   8.713   4.703   7.220 -0.6921  0.2671  0.0459
   35MOL0     C 4525   8.775   4.695   7.366  1.4390 -0.4016 -0.2932
   35MOL0     C 4526   8.911   4.750   7.356 -0.2838 -0.1492 -0.0808
   35MOL0     C 4527   8.999   4.735   7.493  0.3740 -0.2437  0.3317
   35MOL0     C 4528   8.944   4.817   7.605  0.0071  0.1937  0.0894
   35MOL0     C 4529   9.031   4.795   7.724 -0.7920  0.1888 -0.8054
   35MOL0     C 4530   9.184   4.818   7.696 -0.4467 -0.4370 -0.1143
   35MOL0     C 4531   9.276   4.844   7.827  0.0771 -0.1625 -0.9183
   35MOL0    Cl 4532   9.223   4.993   7.903 -0.4215 -0.0952 -0.3107
   35MOL0     C 4533   8.511   4.447   7.071 -0.4182  0.2280  0.0147
   35MOL0     C 4534   8.398   4.411   6.999  0.8524  0.3523 -0.1265
   35MOL0     O 4535   8.136   4.274   6.992  0.3419 -0.1469 -0.5813
   35MOL0     C 4536   7.885   4.288   6.845 -0.6293  0.5673 -0.0114
   35MOL0     C 4537   7.787   4.290   6.752 -0.2705 -0.0964 -0.6846
   35MOL0     N 4538   7.448   4.617   7.050  0.0473 -0.8623  0.5294
   35MOL0     N 4539   7.430   4.568   7.163 -0.8989 -0.5047  0.4264
   35MOL0     C 4540   6.521   3.898   7.506 -0.2535 -0.6535 -0.4155
   35MOL0     C 4541   6.503   3.759   7.507 -0.1654  0.0224 -0.1293
   35MOL0     C 4542   6.315   3.384   7.507 -0.1637 -0.3361  0.9656
   35MOL0     C 4543   6.426   3.292   7.494  0.3838 -0.5856  0.1923
   35MOL0     C 4544   6.402   3.157   7.519 -0.0269  0.5276 -0.1388
   35MOL0     C 4545   6.267   3.109   7.555  0.3395  0.5160 -0.2200
   35MOL0     O 4546   6.242   2.979   7.597 -0.3200  0.4449  0.1111
   35MOL0     C 4547   6.333   2.877   7.544  0.1410  0.7399  0.9714
   35MOL0     C 4548   6.402   2.823   7.671 -0.0994  0.6280  0.5559
   35MOL0     C 4549   6.467   2.684   7.634 -0.4077  0.5505  0.2911
   35MOL0     C 4550   6.481   2.605   7.766 -0.1060  0.4457 -0.4613
   35MOL0     C 4551   6.479   2.463   7.740  0.8970  0.1896 -0.2212
   35MOL0     C 4552   6.476   2.341   7.747  0.4412  0.1850 -0.7411
   35MOL0     C 4553   6.169   3.207   7.572  0.3389  0.3738 -0.1850
   35MOL0     C 4554   6.196   3.342   7.547  0.6107  0.5687  0.1595
   35MOL0     H 4555   6.404   3.699   7.185  0.6245 -4.4884  1.6321
   35MOL0     H 4556   6.461   3.954   7.176  1.8351 -1.0239  0.0637
   35MOL0     H 4557   6.612   4.164   7.510  0.0012 -0.2659 -0.6930
   35MOL0     H 4558   6.666   4.258   7.365 -0.5489 -0.0819 -0.4267
   35MOL0     H 4559   6.834   4.075   7.313 -0.6565 -1.2814 -1.5842
   35MOL0     H 4560   6.765   3.970   7.426  2.3520 -0.3311 -2.2623
   35MOL0     H 4561   6.957   4.054   7.516  0.1425  1.1338 -0.2803
   35MOL0     H 4562   6.823   4.112   7.608 -0.2107  0.4971 -1.6532
   35MOL0     H 4563   6.872   4.361   7.542  0.8920 -0.4480  5.2096
   35MOL0     H 4564   7.004   4.273   7.591  0.0930  2.1221 -0.6454
   35MOL0     H 4565   7.045   4.414   7.368 -1.7585  1.3082 -0.7615
   35MOL0     H 4566   6.940   4.306   7.283  0.0205  0.8262 -0.1272
   35MOL0     H 4567   7.074   4.125   7.303 -1.1091  0.3082 -0.5184
   35MOL0     H 4568   7.190   4.212   7.413  1.6367 -2.6379 -1.3949
   35MOL0     H 4569   7.242   4.190   7.145  2.7841  1.1253  1.0614
   35MOL0     H 4570   7.155   4.345   7.148  0.3861  1.6934 -0.1284
   35MOL0     H 4571   7.417   4.279   7.283 -1.4583 -0.9678 -0.5668
   35MOL0     H 4572   7.318   4.415   7.336  0.8562 -2.2157  2.5468
   35MOL0     H 4573   7.314   4.331   6.966 -0.9221  0.5574  0.1485
   35MOL0     H 4574   7.416   4.680   6.816 -5.0706  0.4736  2.3640
   35MOL0     H 4575   7.330   4.552   6.754 -0.8947  1.8594  0.3759
   35MOL0     H 4576   7.531   4.394   6.762 -0.3615 -1.4925  0.5952
   35MOL0     H 4577   7.628   4.542   6.756 -0.1640 -2.3773  3.5484
   35MOL0     H 4578   7.415   4.448   6.535  0.0012 -0.3522 -1.6894
   35MOL0     H 4579   7.479   4.609   6.550  2.8240  1.6248  4.2654
   35MOL0     H 4580   7.693   4.551   6.489  0.6109 -0.3052 -2.0677
   35MOL0     H 4581   7.599   4.452   6.382 -1.0702 -0.2858 -0.2427
   35MOL0     H 4582   7.907   4.518   6.538 -0.3430  1.7566  1.2205
   35MOL0     H 4583   8.086   4.513   6.685 -0.1113 -0.8553  0.2397
   35MOL0     H 4584   8.235   4.705   7.024  0.6969  1.6964  0.1705
   35MOL0     H 4585   8.444   4.768   7.139  2.1570 -0.0091 -2.0573
   35MOL0     H 4586   8.651   4.792   7.211  0.3944  1.0056 -0.3102
   35MOL0     H 4587   8.797   4.713   7.151  1.0457 -2.5495  1.5416
   35MOL0     H 4588   8.790   4.589   7.389  0.9056 -0.2405  0.8671
   35MOL0     H 4589   8.697   4.728   7.435 -0.6123 -1.0580 -2.1835
   35MOL0     H 4590   8.888   4.849   7.317 -1.3624  0.2010  1.3949
   35MOL0     H 4591   8.975   4.698   7.284  0.4551 -0.0835  0.5131
   35MOL0     H 4592   8.999   4.629   7.518 -2.2199 -0.5493 -0.6799
   35MOL0     H 4593   9.104   4.759   7.474  0.6679  3.0250  4.5151
   35MOL0     H 4594   8.847   4.784   7.643  0.0629  3.2180  3.4085
   35MOL0     H 4595   8.941   4.924   7.580  1.7910 -0.3023 -2.6583
   35MOL0     H 4596   9.020   4.691   7.757  1.4890  0.6744  1.8210
   35MOL0     H 4597   9.000   4.853   7.811 -0.6551 -0.3306 -0.4078
   35MOL0     H 4598   9.229   4.728   7.654  0.2263  1.2545 -3.3011
   35MOL0     H 4599   9.194   4.896   7.620  2.9271  0.2829  0.9053
   35MOL0     H 4600   9.382   4.842   7.799 -0.1647 -2.7912 -1.9458
   35MOL0     H 4601   9.255   4.768   7.903 -3.3396  2.4967  1.1454
   35MOL0     H 4602   8.579   4.370   7.109 -1.2692 -0.3988  0.3096
   35MOL0     H 4603   8.383   4.304   6.982  1.5618  0.1575  0.4119
   35MOL0     H 4604   7.885   4.234   6.939  3.0087 -1.7673 -1.1290
   35MOL0     H 4605   7.701   4.223   6.753  0.6524 -1.3335  1.0226
   35MOL0     H 4606   6.547   3.954   7.596  1.2063 -4.1783  1.5429
   35MOL0     H 4607   6.501   3.706   7.602 -0.3206 -1.2820 -0.8441
   35MOL0     H 4608   6.523   3.331   7.464  1.0468  0.0454  2.8612
   35MOL0     H 4609   6.485   3.088   7.527 -1.2577 -0.9341  0.5848
   35MOL0     H 4610   6.410   2.911   7.474  0.2085  4.8075  2.7339
   35MOL0     H 4611   6.280   2.794   7.496  1.3222 -0.1155  1.1081
   35MOL0     H 4612   6.486   2.885   7.706 -0.4471  1.3654  0.1184
   35MOL0     H 4613   6.329   2.823   7.752 -0.8459  1.6327 -0.0937
   35MOL0     H 4614   6.563   2.700   7.585 -0.0304 -0.0141  0.8342
   35MOL0     H 4615   6.412   2.629   7.557 -1.0394 -0.2329  1.2730
   35MOL0     H 4616   6.570   2.643   7.816 -0.9861  0.0710  1.5061
   35MOL0     H 4617   6.389   2.623   7.822 -0.9377 -0.6171 -1.4282
   35MOL0     H 4618   6.469   2.235   7.764 -0.0858  0.2640 -0.4483
   35MOL0     H 4619   6.078   3.164   7.612  1.9413 -2.4115  0.7508
   35MOL0     H 4620   6.104   3.398   7.564 -1.5454 -2.5328 -0.3764
   36MOL0     O 4621  11.331   1.266   8.371 -0.9902  0.6062  0.0905
   36MOL0     C 4622  11.292   1.382   8.368 -0.2865  0.7119  0.5634
   36MOL0     O 4623  11.300   1.463   8.252  0.0776 -0.2849 -0.1462
   36MOL0     C 4624  11.305   1.417   8.121 -0.2103  0.6786 -0.3377
   36MOL0     C 4625  11.390   1.484   8.038 -1.0369  0.3638  0.9042
   36MOL0     C 4626  11.425   1.443   7.913  0.7351 -0.0838 -0.3797
   36MOL0     C 4627  11.362   1.330   7.860  0.8964 -0.7579 -0.3679
   36MOL0     O 4628  11.399   1.300   7.729  0.2589 -0.2555 -0.3523
   36MOL0     C 4629  11.306   1.240   7.649  0.2697 -0.4186  0.5215
   36MOL0     C 4630  11.336   1.296   7.514 -0.0778  0.3427  0.8093
   36MOL0     C 4631  11.235   1.266   7.405  0.5899  0.3701 -0.1987
   36MOL0     C 4632  11.263   1.331   7.266 -0.7282  0.0846 -0.1053
   36MOL0     C 4633  11.211   1.477   7.255 -0.1557  0.1009  0.1208
   36MOL0     C 4634  11.246   1.532   7.111  0.0064 -0.9701 -0.4020
   36MOL0     C 4635  11.173   1.459   6.997 -0.2722 -0.1408 -0.1984
   36MOL0     C 4636  11.154   1.553   6.870  0.0634  0.3109  0.2716
   36MOL0     N 4637  11.032   1.643   6.874 -0.4858 -0.5486  0.1221
   36MOL0     C 4638  10.924   1.648   6.964 -0.0578  0.9306  0.0935
   36MOL0     C 4639  10.849   1.755   6.916 -0.1291 -0.3173 -0.2219
   36MOL0     C 4640  10.733   1.817   6.982 -0.0866  0.6324 -0.0475
   36MOL0     C 4641  10.751   1.823   7.131 -0.5470  0.5715 -0.3725
   36MOL0     C 4642  10.672   1.935   7.198  1.5433  0.9193 -0.0073
   36MOL0     C 4643  10.720   1.949   7.351  0.1971 -0.3812 -0.2038
   36MOL0     O 4644  10.675   2.074   7.397  0.0823 -0.4108 -0.7519
   36MOL0     C 4645  10.692   2.113   7.524  1.0404  0.8438  0.2072
   36MOL0     C 4646  10.628   2.228   7.563 -0.0991  0.7995 -0.1106
   36MOL0     C 4647  10.654   2.272   7.698  0.0157  1.0084  0.0399
   36MOL0     C 4648  10.730   2.196   7.791  0.4188 -0.0518  0.1749
   36MOL0     C 4649  10.749   2.239   7.937 -0.5658  0.1404 -0.4931
   36MOL0     O 4650  10.679   2.338   7.978 -0.2379  0.5581  0.1334
   36MOL0     C 4651  10.649   2.374   8.112 -0.0916 -0.2931  0.6420
   36MOL0     C 4652  10.727   2.336   8.222 -0.4747  0.0137 -0.3521
   36MOL0     C 4653  10.701   2.389   8.349 -0.6832 -0.6441  0.1806
   36MOL0     C 4654  10.604   2.488   8.361  0.3897  0.2422 -0.5015
   36MOL0     O 4655  10.581   2.554   8.481 -0.6804  0.2393  0.1535
   36MOL0     C 4656  10.696   2.623   8.534  0.9258  0.5901  0.4379
   36MOL0     C 4657  10.633   2.729   8.624  0.3159  0.6872  0.6194
   36MOL0     C 4658  10.750   2.799   8.696  0.5557 -0.1967  0.6180
   36MOL0     C 4659  10.698   2.882   8.818 -0.7295  0.7697 -0.3926
   36MOL0     C 4660  10.805   2.950   8.909  0.2895  0.5338  0.6194
   36MOL0     C 4661  10.809   2.865   9.038 -0.3515 -0.4244  0.7257
   36MOL0     C 4662  10.926   2.936   9.122  0.0395 -0.8826 -0.4362
   36MOL0     C 4663  10.882   3.056   9.200 -0.4064  0.3141  0.4463
   36MOL0    Cl 4664  11.017   3.138   9.280 -0.3922  0.4781  0.1482
   36MOL0     C 4665  10.523   2.522   8.258  0.2390  0.8470  0.0431
   36MOL0     C 4666  10.548   2.467   8.126  0.1956  0.8308  0.0783
   36MOL0     O 4667  10.811   2.168   8.009 -0.9268  0.2739  0.2230
   36MOL0     C 4668  10.786   2.079   7.753 -0.4011 -0.1373 -0.6883
   36MOL0     C 4669  10.772   2.041   7.622 -1.0262  0.6035  0.5309
   36MOL0     N 4670  10.906   1.802   6.805  0.7381  0.2292 -0.0278
   36MOL0     N 4671  11.010   1.740   6.772  0.1497 -0.7641  0.6934
   36MOL0     C 4672  11.269   1.261   7.936  0.6123  0.9444  0.0993
   36MOL0     C 4673  11.238   1.308   8.071 -0.8757  0.2244 -0.8943
   36MOL0     C 4674  11.250   1.436   8.501 -0.6540 -1.1506 -0.3853
   36MOL0     C 4675  11.262   1.364   8.621 -0.5791  0.1832  0.0284
   36MOL0     C 4676  11.225   1.421   8.745  0.3507 -0.8349  0.3277
   36MOL0     C 4677  11.203   1.558   8.742  0.5795 -0.3640 -0.5558
   36MOL0     O 4678  11.180   1.612   8.871  0.4507  0.1270  0.4834
   36MOL0     C 4679  11.203   1.741   8.903  0.2751 -0.2368  0.3327
   36MOL0     C 4680  11.070   1.833   8.899  0.4359 -0.4156 -0.5119
   36MOL0     C 4681  11.093   1.985   8.907  0.6640  0.9900  0.0572
   36MOL0     C 4682  11.176   2.016   9.033 -0.2186  0.1058 -0.3825
   36MOL0     C 4683  11.203   2.158   9.035  0.4029 -0.4157  0.3197
   36MOL0     C 4684  11.212   2.274   9.017 -0.1265 -1.1046 -0.5795
   36MOL0     C 4685  11.192   1.626   8.623 -0.2523 -0.4607 -0.7338
   36MOL0     C 4686  11.216   1.573   8.503  0.5064  0.2624  0.1469
   36MOL0     H 4687  11.420   1.581   8.075 -1.4071 -0.0114  2.2595
   36MOL0     H 4688  11.481   1.506   7.844 -1.3105  1.4952 -0.7203
   36MOL0     H 4689  11.203   1.253   7.684  0.3658 -0.1603  0.7131
   36MOL0     H 4690  11.327   1.132   7.651  1.0542 -0.2856 -0.2943
   36MOL0     H 4691  11.438   1.266   7.489  0.8383  0.8205  3.6388
   36MOL0     H 4692  11.334   1.404   7.535  1.2688  0.0438  2.7017
   36MOL0     H 4693  11.139   1.313   7.426  1.9745  2.3695  2.1140
   36MOL0     H 4694  11.230   1.158   7.388  2.5285 -0.6322  4.3591
   36MOL0     H 4695  11.368   1.312   7.242 -1.4057 -1.9940 -1.7525
   36MOL0     H 4696  11.211   1.268   7.193  1.5156 -1.2746 -0.6081
   36MOL0     H 4697  11.255   1.538   7.335  0.0725 -1.2662  1.0759
   36MOL0     H 4698  11.102   1.477   7.262 -0.2372  0.6010 -0.9433
   36MOL0     H 4699  11.352   1.538   7.089 -0.1878 -0.5837 -1.2542
   36MOL0     H 4700  11.210   1.635   7.115 -1.3795 -1.4469 -0.0064
   36MOL0     H 4701  11.226   1.369   6.965  0.8029  0.3173  0.2789
   36MOL0     H 4702  11.075   1.447   7.045  0.9908 -1.1758  2.2946
   36MOL0     H 4703  11.132   1.487   6.786 -0.7249  0.0468  0.6795
   36MOL0     H 4704  11.243   1.603   6.831  0.8644  0.4174  2.1539
   36MOL0     H 4705  10.900   1.575   7.041  2.4102 -2.3735 -1.9726
   36MOL0     H 4706  10.651   1.753   6.949  1.6201 -0.4762 -2.4184
   36MOL0     H 4707  10.718   1.913   6.932  0.2670  0.8614  0.2756
   36MOL0     H 4708  10.856   1.848   7.151 -0.6925  2.6072 -1.8229
   36MOL0     H 4709  10.731   1.723   7.168 -1.5729  1.8048  2.7127
   36MOL0     H 4710  10.683   2.028   7.142 -2.1386  0.1664 -2.2774
   36MOL0     H 4711  10.566   1.916   7.185  1.0508 -0.1619  4.1006
   36MOL0     H 4712  10.829   1.953   7.340  0.0089  1.0921 -1.9986
   36MOL0     H 4713  10.694   1.867   7.419  0.1822 -0.0017  0.2532
   36MOL0     H 4714  10.569   2.285   7.492 -0.1556 -0.9690 -1.5649
   36MOL0     H 4715  10.606   2.368   7.714 -4.0012 -0.8804  0.4886
   36MOL0     H 4716  10.806   2.262   8.224 -0.9259 -0.5118  2.4841
   36MOL0     H 4717  10.764   2.360   8.432 -1.1584  0.7508  1.0725
   36MOL0     H 4718  10.760   2.659   8.453 -0.3789 -0.1179 -0.9680
   36MOL0     H 4719  10.753   2.550   8.592  1.1212 -0.8613 -1.4777
   36MOL0     H 4720  10.564   2.678   8.692 -0.4552  2.9141  1.5978
   36MOL0     H 4721  10.573   2.800   8.568  4.4011  2.1876 -2.3859
   36MOL0     H 4722  10.801   2.865   8.625 -1.6036  0.6372 -0.2405
   36MOL0     H 4723  10.818   2.718   8.725  0.7089  0.1972  1.3831
   36MOL0     H 4724  10.620   2.946   8.775 -0.3000 -1.0065 -4.2323
   36MOL0     H 4725  10.636   2.818   8.882  0.0821  0.7108  0.3528
   36MOL0     H 4726  10.797   3.057   8.929  2.0125  0.7974  0.0421
   36MOL0     H 4727  10.894   2.937   8.847 -1.0242  1.2479 -1.5407
   36MOL0     H 4728  10.830   2.764   9.004 -0.2816  0.0114 -0.5647
   36MOL0     H 4729  10.709   2.868   9.084 -0.2830 -1.0893  0.9176
   36MOL0     H 4730  10.963   2.862   9.194  0.2376 -1.6443 -1.3058
   36MOL0     H 4731  11.005   2.973   9.055 -2.5223  3.5705 -1.4007
   36MOL0     H 4732  10.817   3.032   9.285 -2.4402  2.9750 -0.2181
   36MOL0     H 4733  10.828   3.115   9.125  0.4414 -1.1993 -1.4452
   36MOL0     H 4734  10.441   2.592   8.268 -1.7883 -1.5696  1.6212
   36MOL0     H 4735  10.491   2.495   8.038  1.8275 -1.1907 -1.7297
   36MOL0     H 4736  10.845   2.019   7.821 -2.1102 -3.3881 -1.8795
   36MOL0     H 4737  10.824   1.951   7.589 -0.3001  1.5090 -0.8742
   36MOL0     H 4738  11.222   1.169   7.901 -1.6673  0.1711  4.4172
   36MOL0     H 4739  11.169   1.261   8.141  1.2844  1.8558  2.6432
   36MOL0     H 4740  11.272   1.257   8.627 -1.3253 -0.0307 -1.9575
   36MOL0     H 4741  11.220   1.364   8.838  3.0923 -0.6448  0.6750
   36MOL0     H 4742  11.274   1.793   8.838 -1.1670  2.4723  0.7882
   36MOL0     H 4743  11.243   1.732   9.004 -0.5319  0.1013  0.6898
   36MOL0     H 4744  11.013   1.807   8.810 -2.0874  1.8525  0.3013
   36MOL0     H 4745  11.010   1.794   8.981  0.2566 -1.5917 -1.1854
   36MOL0     H 4746  10.996   2.033   8.922 -0.9254 -2.0459  0.2662
   36MOL0     H 4747  11.146   2.015   8.816 -2.2493  1.8121 -1.4760
   36MOL0     H 4748  11.133   1.976   9.125  0.7550  3.3060  1.6312
   36MOL0     H 4749  11.269   1.959   9.025 -1.3314 -1.6603 -1.3667
   36MOL0     H 4750  11.228   2.379   9.000 -4.1347 -0.1766  0.4317
   36MOL0     H 4751  11.175   1.733   8.607  1.0107 -0.4494 -2.1834
   36MOL0     H 4752  11.210   1.631   8.411 -0.5233 -0.2366 -0.1149
   37MOL0     O 4753   2.478   4.311   2.578  0.1965 -0.2043 -1.2940
   37MOL0     C 4754   2.510   4.411   2.646 -0.3457  0.7810  0.0140
   37MOL0     O 4755   2.561   4.411   2.773  0.0688 -0.1103 -0.1852
   37MOL0     C 4756   2.592   4.297   2.847 -0.0164  0.7835  0.4873
   37MOL0     C 4757   2.631   4.323   2.978  0.6135 -0.6404 -0.2110
   37MOL0     C 4758   2.675   4.216   3.062  0.9923  0.6603 -0.5443
   37MOL0     C 4759   2.668   4.086   3.012 -0.0117  0.1462  0.8138
   37MOL0     O 4760   2.710   3.987   3.091 -0.5014 -0.7510  0.1427
   37MOL0     C 4761   2.800   3.881   3.036 -0.7310 -0.8734  0.9254
   37MOL0     C 4762   2.931   3.947   2.974 -0.5629  0.8427  0.3192
   37MOL0     C 4763   3.049   3.838   2.943  0.6137 -1.0158  0.2145
   37MOL0     C 4764   2.988   3.724   2.854  0.3000  0.4232 -0.6020
   37MOL0     C 4765   3.095   3.630   2.802 -0.1114 -0.2638 -1.4586
   37MOL0     C 4766   3.026   3.529   2.713  0.4488 -1.1679 -0.7066
   37MOL0     C 4767   3.131   3.428   2.656  0.2774  0.4988  0.3199
   37MOL0     C 4768   3.175   3.314   2.744 -0.1663  0.9525  0.6053
   37MOL0     N 4769   3.278   3.243   2.665  0.9451  0.2603 -0.1418
   37MOL0     C 4770   3.236   3.161   2.567  1.1047  0.9373 -0.4267
   37MOL0     C 4771   3.357   3.120   2.520  0.2976 -0.8240 -0.7356
   37MOL0     C 4772   3.387   3.032   2.403 -0.1314 -0.5352 -0.7222
   37MOL0     C 4773   3.464   2.904   2.452  0.0386 -0.9077  0.1415
   37MOL0     C 4774   3.375   2.824   2.553 -0.6044  0.2856 -0.1944
   37MOL0     C 4775   3.239   2.775   2.501 -0.3399 -0.5460 -0.4084
   37MOL0     O 4776   3.184   2.710   2.614 -0.6742 -0.3802 -0.1265
   37MOL0     C 4777   3.073   2.636   2.609  0.2991  0.1351 -0.9625
   37MOL0     C 4778   2.976   2.646   2.516  0.2497  0.5773 -0.4008
   37MOL0     C 4779   2.856   2.582   2.522  0.7736 -0.3405  0.2617
   37MOL0     C 4780   2.830   2.488   2.623 -0.9908  0.3617  0.2876
   37MOL0     C 4781   2.694   2.410   2.617  0.4403 -0.4599  1.7332
   37MOL0     O 4782   2.688   2.303   2.706  0.0981 -0.5025 -0.6045
   37MOL0     C 4783   2.582   2.216   2.732  0.0182 -0.3878  0.0642
   37MOL0     C 4784   2.535   2.210   2.865 -0.2353  0.2906 -0.2624
   37MOL0     C 4785   2.427   2.127   2.888  0.1293  0.2089  0.3752
   37MOL0     C 4786   2.374   2.044   2.792  0.2285  0.5894  0.1565
   37MOL0     O 4787   2.276   1.957   2.840 -0.3670 -0.7255  0.0165
   37MOL0     C 4788   2.253   1.841   2.761 -0.4824 -0.1258 -0.4216
   37MOL0     C 4789   2.358   1.733   2.773  0.1295  0.7833 -0.0214
   37MOL0     C 4790   2.322   1.590   2.731  0.2592 -0.7835  0.1875
   37MOL0     C 4791   2.421   1.487   2.778  0.5583 -0.0845 -0.3732
   37MOL0     C 4792   2.402   1.352   2.703  0.8778 -0.0190 -1.0167
   37MOL0     C 4793   2.254   1.301   2.726 -0.2815  0.5847  0.0615
   37MOL0     C 4794   2.224   1.183   2.632 -0.0378 -1.0040 -0.1409
   37MOL0     C 4795   2.090   1.122   2.668 -0.9312 -0.5091 -0.1535
   37MOL0    Cl 4796   2.101   0.980   2.780 -0.3442  0.2624  0.1471
   37MOL0     C 4797   2.422   2.047   2.656 -0.7001  0.0290  0.5966
   37MOL0     C 4798   2.526   2.138   2.635 -0.0553  0.7702 -0.7222
   37MOL0     O 4799   2.603   2.435   2.536 -0.9281 -0.1862  0.0399
   37MOL0     C 4800   2.928   2.465   2.722 -0.1879  0.8762 -0.0912
   37MOL0     C 4801   3.042   2.555   2.716 -0.4507  0.4931  0.0837
   37MOL0     N 4802   3.465   3.180   2.592 -0.6467  0.3481  0.5004
   37MOL0     N 4803   3.415   3.244   2.699 -0.0431  1.7972  0.0954
   37MOL0     C 4804   2.612   4.055   2.890 -0.7708  0.1984  0.5252
   37MOL0     C 4805   2.578   4.162   2.808  0.3631  0.0682  0.9028
   37MOL0     C 4806   2.476   4.541   2.583  0.1217 -0.8497 -1.0493
   37MOL0     C 4807   2.480   4.566   2.448 -0.0424  0.3946  0.2249
   37MOL0     C 4808   2.452   4.686   2.390  0.1638 -0.7293 -0.6696
   37MOL0     C 4809   2.413   4.799   2.469  0.2617 -0.2151  0.3833
   37MOL0     O 4810   2.364   4.918   2.415  1.1704  0.4782  0.4328
   37MOL0     C 4811   2.262   4.903   2.313  0.1158 -0.8595 -0.5871
   37MOL0     C 4812   2.302   4.983   2.194 -0.3083 -0.6876  0.4053
   37MOL0     C 4813   2.184   4.999   2.095 -0.4341 -0.1473 -0.2457
   37MOL0     C 4814   2.233   4.952   1.954 -0.3793 -0.7258  0.9290
   37MOL0     C 4815   2.241   4.808   1.928 -0.3700 -0.0215  0.2064
   37MOL0     C 4816   2.227   4.689   1.920  0.0395 -1.2439 -0.3646
   37MOL0     C 4817   2.409   4.781   2.612 -0.0739 -0.0346 -0.7642
   37MOL0     C 4818   2.439   4.653   2.667  0.2056 -0.7375  0.1818
   37MOL0     H 4819   2.635   4.427   3.009 -0.0411 -0.9716  1.0293
   37MOL0     H 4820   2.719   4.230   3.160  0.4946  1.7444 -0.4595
   37MOL0     H 4821   2.749   3.816   2.964  0.9938  0.1060 -1.2847
   37MOL0     H 4822   2.824   3.819   3.124 -0.6929 -0.8985  0.8970
   37MOL0     H 4823   2.961   4.020   3.050 -0.7657  1.7957 -0.4964
   37MOL0     H 4824   2.912   4.004   2.883  2.2379 -0.9029 -1.4973
   37MOL0     H 4825   3.085   3.794   3.037  1.4675 -1.3204 -0.2424
   37MOL0     H 4826   3.126   3.893   2.888  0.7036 -0.9662  0.3872
   37MOL0     H 4827   2.918   3.665   2.915  0.1193 -1.2008 -2.2957
   37MOL0     H 4828   2.925   3.757   2.771 -0.0489  1.3702  0.0171
   37MOL0     H 4829   3.144   3.591   2.891  2.0365  0.1953 -2.3840
   37MOL0     H 4830   3.170   3.695   2.756  0.6180  0.6263  0.8126
   37MOL0     H 4831   2.978   3.582   2.631 -0.8312 -1.8162 -0.4087
   37MOL0     H 4832   2.952   3.473   2.772  2.2633 -1.2668  1.6322
   37MOL0     H 4833   3.102   3.380   2.562  2.5165  0.9743 -0.6879
   37MOL0     H 4834   3.219   3.488   2.630  0.7086 -0.3141 -0.1451
   37MOL0     H 4835   3.095   3.245   2.774  1.4413 -2.5744 -2.4349
   37MOL0     H 4836   3.220   3.361   2.832 -3.2406  1.7463  1.9020
   37MOL0     H 4837   3.137   3.150   2.525  1.0384  0.0362 -0.0557
   37MOL0     H 4838   3.461   3.088   2.345  1.3440 -2.0122 -0.3629
   37MOL0     H 4839   3.290   3.018   2.355 -1.0960  2.0319  0.2972
   37MOL0     H 4840   3.560   2.930   2.498 -1.2284 -0.8922  2.9998
   37MOL0     H 4841   3.483   2.843   2.364  0.7415 -1.0338  0.3783
   37MOL0     H 4842   3.422   2.734   2.593  0.9790  1.3746  0.4598
   37MOL0     H 4843   3.363   2.878   2.648  2.9101 -1.6927  1.5592
   37MOL0     H 4844   3.244   2.710   2.414  0.2502  0.1767 -0.9306
   37MOL0     H 4845   3.186   2.869   2.482  0.6810 -0.1049 -1.1557
   37MOL0     H 4846   2.984   2.709   2.427  0.6404  0.0938 -0.7128
   37MOL0     H 4847   2.788   2.613   2.443  2.9685  3.2749 -0.4429
   37MOL0     H 4848   2.579   2.266   2.947  0.2004 -0.4190 -0.0059
   37MOL0     H 4849   2.389   2.129   2.989 -4.6443 -3.3409 -0.9854
   37MOL0     H 4850   2.234   1.849   2.654 -0.2565 -3.6403 -0.8298
   37MOL0     H 4851   2.157   1.807   2.802 -1.3334  0.2563 -2.0343
   37MOL0     H 4852   2.394   1.723   2.876  0.5029 -0.5275 -0.2621
   37MOL0     H 4853   2.443   1.764   2.710 -1.2497  2.5766 -1.0903
   37MOL0     H 4854   2.291   1.578   2.627 -0.0117 -0.2561  0.2032
   37MOL0     H 4855   2.224   1.563   2.772 -0.1494 -1.9808 -1.4682
   37MOL0     H 4856   2.523   1.522   2.760 -0.6980  4.2162 -0.1897
   37MOL0     H 4857   2.427   1.478   2.886  0.6106  1.7623 -0.2010
   37MOL0     H 4858   2.482   1.295   2.750  1.7285  4.4804  3.8647
   37MOL0     H 4859   2.417   1.371   2.596 -1.1525  2.8249 -0.9054
   37MOL0     H 4860   2.176   1.372   2.698 -0.0440  0.4777 -0.9003
   37MOL0     H 4861   2.243   1.275   2.832 -0.8104 -0.7520 -0.2898
   37MOL0     H 4862   2.213   1.206   2.526 -2.9499 -1.5255 -0.0432
   37MOL0     H 4863   2.305   1.110   2.643 -0.6001 -1.1977  4.2356
   37MOL0     H 4864   2.032   1.101   2.578  0.6654  1.2589 -1.6831
   37MOL0     H 4865   2.029   1.193   2.725  0.4045  2.6399 -2.3655
   37MOL0     H 4866   2.383   1.998   2.568 -0.4721  1.1575 -0.1642
   37MOL0     H 4867   2.575   2.156   2.539 -0.4247 -1.4671 -1.3923
   37MOL0     H 4868   2.902   2.393   2.798 -0.8680  0.7245 -0.4632
   37MOL0     H 4869   3.112   2.564   2.799 -0.1944 -2.8366  0.3627
   37MOL0     H 4870   2.591   3.952   2.863  0.3920 -0.0257  0.4294
   37MOL0     H 4871   2.553   4.128   2.708  0.0746  2.9044 -0.0607
   37MOL0     H 4872   2.512   4.490   2.378  2.0496 -0.6821  2.1859
   37MOL0     H 4873   2.440   4.685   2.282 -0.0033 -0.0683 -0.6631
   37MOL0     H 4874   2.168   4.948   2.347  0.0371 -0.8571 -0.8094
   37MOL0     H 4875   2.256   4.802   2.270  2.4950  0.5197 -4.7800
   37MOL0     H 4876   2.335   5.085   2.214 -3.1700  0.1986  1.0143
   37MOL0     H 4877   2.387   4.935   2.144 -0.5703  0.7937 -1.5487
   37MOL0     H 4878   2.150   5.102   2.101  0.8416  0.2706  0.0768
   37MOL0     H 4879   2.105   4.930   2.126  1.2429 -0.4031  4.3704
   37MOL0     H 4880   2.167   5.008   1.887 -1.2441  0.5631  2.7681
   37MOL0     H 4881   2.326   5.006   1.936  0.7594 -2.4009  1.5234
   37MOL0     H 4882   2.229   4.583   1.929  1.8440 -1.4108 -2.1365
   37MOL0     H 4883   2.360   4.849   2.680  5.1339  1.5160  2.0162
   37MOL0     H 4884   2.430   4.648   2.774  2.3053  2.3703  0.6572
   38MOL0     O 4885   7.448   5.455   3.455 -0.8915 -0.2116  0.9368
   38MOL0     C 4886   7.543   5.508   3.506 -0.4787 -0.1314  0.2861
   38MOL0     O 4887   7.626   5.445   3.599 -0.1787  0.3370 -0.1449
   38MOL0     C 4888   7.585   5.329   3.661  0.0904 -0.3457  0.1377
   38MOL0     C 4889   7.590   5.320   3.801 -0.5342 -0.6266 -0.1988
   38MOL0     C 4890   7.558   5.202   3.869 -0.4335 -0.4073  0.3966
   38MOL0     C 4891   7.519   5.089   3.800  0.8931  0.3565  0.3268
   38MOL0     O 4892   7.472   4.983   3.873 -0.4399 -0.0234 -0.3207
   38MOL0     C 4893   7.391   4.879   3.810 -0.2042 -0.8233 -0.4379
   38MOL0     C 4894   7.307   4.805   3.903  0.0996  0.3382 -1.7180
   38MOL0     C 4895   7.208   4.893   3.993 -1.4134  0.1436  0.0589
   38MOL0     C 4896   7.113   4.973   3.906 -0.5271 -0.5527 -0.0021
   38MOL0     C 4897   7.163   5.118   3.889 -0.9526  0.3276 -1.1844
   38MOL0     C 4898   7.075   5.191   3.801 -0.3237  0.2807 -0.8456
   38MOL0     C 4899   7.094   5.345   3.815  0.6097 -0.5919  0.6756
   38MOL0     C 4900   7.241   5.390   3.763  0.9459  0.2347 -0.9118
   38MOL0     N 4901   7.278   5.515   3.814 -0.1303 -0.1428  0.7740
   38MOL0     C 4902   7.340   5.560   3.927 -0.2222  0.3107  0.6289
   38MOL0     C 4903   7.378   5.686   3.904 -0.1913  0.0501  0.1898
   38MOL0     C 4904   7.465   5.765   3.999  0.9516  0.0459  0.6021
   38MOL0     C 4905   7.609   5.708   4.008  0.3387 -0.6796  0.1956
   38MOL0     C 4906   7.698   5.768   3.900 -0.4755  0.3017 -0.8660
   38MOL0     C 4907   7.838   5.712   3.885 -1.3461  0.1437 -0.2938
   38MOL0     O 4908   7.905   5.719   4.016 -0.4419 -0.3363  0.0769
   38MOL0     C 4909   7.942   5.847   4.046 -0.0596  0.3997 -0.2874
   38MOL0     C 4910   8.037   5.908   3.961  0.7454 -0.6382 -0.0566
   38MOL0     C 4911   8.077   6.037   3.986  0.3507 -0.4232 -0.1825
   38MOL0     C 4912   8.037   6.115   4.094  0.5545 -0.3458  0.1359
   38MOL0     C 4913   8.080   6.256   4.119 -0.0939  1.1104 -0.4318
   38MOL0     O 4914   8.177   6.300   4.033  0.0549  0.7235  0.1814
   38MOL0     C 4915   8.214   6.430   4.026  1.4091 -0.3778 -0.0612
   38MOL0     C 4916   8.318   6.458   3.936 -0.1639  0.2742 -0.1122
   38MOL0     C 4917   8.373   6.583   3.903  0.0777 -0.2369  0.0279
   38MOL0     C 4918   8.314   6.696   3.965  0.4720  0.8172 -0.4332
   38MOL0     O 4919   8.369   6.818   3.930 -0.4964 -0.8413 -0.1073
   38MOL0     C 4920   8.287   6.932   3.974  0.7076  0.7412 -0.1556
   38MOL0     C 4921   8.357   7.055   3.927  0.3935  0.0351  1.0624
   38MOL0     C 4922   8.366   7.068   3.772  0.9088  0.2564 -0.2321
   38MOL0     C 4923   8.411   7.211   3.732  0.8338 -0.0218  0.4193
   38MOL0     C 4924   8.570   7.219   3.761  0.5270  0.3046 -0.2732
   38MOL0     C 4925   8.660   7.123   3.687 -1.1554 -0.0278 -0.1768
   38MOL0     C 4926   8.651   7.121   3.532 -0.2985  0.5722 -0.2919
   38MOL0     C 4927   8.739   7.021   3.469 -0.0205  0.3928  0.5630
   38MOL0    Cl 4928   8.732   7.043   3.293  0.1026 -0.6929 -0.0718
   38MOL0     C 4929   8.217   6.673   4.067  0.2126 -0.6484 -0.6663
   38MOL0     C 4930   8.160   6.541   4.094 -0.1345 -0.1756 -0.2934
   38MOL0     O 4931   8.029   6.321   4.210  0.0596 -0.9648 -0.0062
   38MOL0     C 4932   7.932   6.058   4.172  0.2236 -0.1211 -0.4209
   38MOL0     C 4933   7.882   5.931   4.137  0.6506 -0.3321  0.2260
   38MOL0     N 4934   7.351   5.719   3.770 -0.5878  0.4112  0.4950
   38MOL0     N 4935   7.296   5.618   3.722 -0.1752  0.1666  0.0062
   38MOL0     C 4936   7.543   5.087   3.655  0.2268  0.4741  0.1328
   38MOL0     C 4937   7.584   5.208   3.587 -0.0455  0.2172 -0.0370
   38MOL0     C 4938   7.576   5.645   3.457  0.3063 -0.2216  0.8048
   38MOL0     C 4939   7.521   5.707   3.347  0.9927 -0.5706  0.3795
   38MOL0     C 4940   7.547   5.835   3.309  0.2457 -0.4794  0.2586
   38MOL0     C 4941   7.647   5.906   3.368  0.0916 -0.0707  0.3419
   38MOL0     O 4942   7.693   6.035   3.331 -0.2334  0.7382  0.2644
   38MOL0     C 4943   7.634   6.114   3.229 -0.0858 -0.0026 -0.4009
   38MOL0     C 4944   7.699   6.251   3.208  0.5381  0.6961  0.0284
   38MOL0     C 4945   7.852   6.239   3.206 -0.7320  0.1640  0.2457
   38MOL0     C 4946   7.928   6.253   3.340 -0.5956  0.1034  0.2926
   38MOL0     C 4947   8.059   6.300   3.311  0.1271 -0.1575  0.1926
   38MOL0     C 4948   8.152   6.373   3.294 -0.3262  0.1171  0.3535
   38MOL0     C 4949   7.720   5.848   3.472 -0.4767  0.2205 -0.4915
   38MOL0     C 4950   7.682   5.717   3.514  0.7578 -0.0097 -0.2577
   38MOL0     H 4951   7.611   5.406   3.863  1.9222  0.7677 -2.7199
   38MOL0     H 4952   7.550   5.199   3.977 -0.8689 -1.2385  0.3502
   38MOL0     H 4953   7.469   4.815   3.769  1.1030 -0.1650  0.9292
   38MOL0     H 4954   7.331   4.921   3.728  1.6216  1.5828 -0.6537
   38MOL0     H 4955   7.365   4.742   3.972  0.9185  1.4673 -1.3498
   38MOL0     H 4956   7.241   4.736   3.849  1.2825 -3.6589  1.4429
   38MOL0     H 4957   7.265   4.964   4.053  2.1203 -1.5140 -1.0373
   38MOL0     H 4958   7.156   4.819   4.054 -0.7471  0.8033  1.4665
   38MOL0     H 4959   7.078   4.927   3.813 -2.8105  2.2472 -0.6879
   38MOL0     H 4960   7.022   4.981   3.967 -1.6649  2.9693 -1.9001
   38MOL0     H 4961   7.264   5.126   3.847 -1.9172 -2.1773 -4.3978
   38MOL0     H 4962   7.157   5.158   3.990  0.9230  0.6851 -1.1689
   38MOL0     H 4963   6.971   5.176   3.829  1.1218 -0.0310  6.0018
   38MOL0     H 4964   7.095   5.164   3.696  1.8048  1.4839 -0.8286
   38MOL0     H 4965   7.026   5.400   3.749  0.9599 -0.2030  0.6341
   38MOL0     H 4966   7.075   5.389   3.913  1.0696  1.3498 -0.0679
   38MOL0     H 4967   7.251   5.386   3.654 -1.4616 -1.1583 -1.1666
   38MOL0     H 4968   7.307   5.308   3.794 -0.3933 -0.4768  0.1890
   38MOL0     H 4969   7.372   5.504   4.014  1.2333 -0.9013 -0.6332
   38MOL0     H 4970   7.426   5.772   4.101  2.5598  2.1234  1.1351
   38MOL0     H 4971   7.471   5.871   3.975  1.8593  0.1487  1.2146
   38MOL0     H 4972   7.602   5.599   4.001  1.5712 -0.6309 -3.7532
   38MOL0     H 4973   7.637   5.747   4.107 -1.5636  1.7674 -0.1453
   38MOL0     H 4974   7.653   5.748   3.802 -0.2315  2.3810 -1.4563
   38MOL0     H 4975   7.702   5.875   3.919 -1.5075  0.0046  1.3324
   38MOL0     H 4976   7.894   5.762   3.805 -0.9768 -2.6183 -1.8890
   38MOL0     H 4977   7.846   5.609   3.848 -0.3383  1.2750 -3.5379
   38MOL0     H 4978   8.072   5.859   3.871  2.2365 -3.3084  1.8140
   38MOL0     H 4979   8.146   6.080   3.914  1.1276  0.4589  1.0393
   38MOL0     H 4980   8.350   6.373   3.876 -0.6037  1.7979 -2.6286
   38MOL0     H 4981   8.447   6.592   3.824 -0.5448  1.4646 -0.4037
   38MOL0     H 4982   8.272   6.940   4.082 -1.7561  1.2865 -0.4869
   38MOL0     H 4983   8.186   6.927   3.933  0.4403 -0.6543  0.5676
   38MOL0     H 4984   8.456   7.059   3.974  0.9130  0.4675 -0.0330
   38MOL0     H 4985   8.309   7.141   3.976  0.1163  0.8410 -0.5703
   38MOL0     H 4986   8.266   7.039   3.737 -0.3375  1.4202  2.1512
   38MOL0     H 4987   8.437   6.993   3.736 -2.0778 -4.4989  2.6430
   38MOL0     H 4988   8.386   7.222   3.626  0.4759 -1.4210  0.3473
   38MOL0     H 4989   8.362   7.286   3.795  0.3857 -0.9397  1.1784
   38MOL0     H 4990   8.606   7.212   3.864 -0.9686 -4.4154  0.1457
   38MOL0     H 4991   8.589   7.316   3.713 -0.6784  0.2353 -0.9334
   38MOL0     H 4992   8.644   7.019   3.719 -2.0418  0.0870 -0.2507
   38MOL0     H 4993   8.762   7.156   3.708 -0.3573 -2.4796  0.1949
   38MOL0     H 4994   8.547   7.098   3.507  0.2435  0.2244 -2.3789
   38MOL0     H 4995   8.688   7.215   3.490 -0.9925  0.8145 -0.3750
   38MOL0     H 4996   8.695   6.927   3.503 -1.2876  0.9161  0.3910
   38MOL0     H 4997   8.845   7.020   3.496 -0.3514 -0.7433  1.9476
   38MOL0     H 4998   8.182   6.758   4.125  5.8371  1.9859 -0.5615
   38MOL0     H 4999   8.069   6.537   4.153 -0.4309  1.4547 -0.5991
   38MOL0     H 5000   7.877   6.122   4.241 -0.3511 -0.9892 -0.0528
   38MOL0     H 5001   7.813   5.891   4.210  2.7647 -2.5000  1.1531
   38MOL0     H 5002   7.542   4.993   3.601  3.6562 -0.4169  1.3476
   38MOL0     H 5003   7.607   5.195   3.482  1.3199 -0.9371  0.3811
   38MOL0     H 5004   7.448   5.655   3.286  1.7679 -0.4376 -0.6806
   38MOL0     H 5005   7.510   5.864   3.212 -0.8053 -2.0533  0.1562
   38MOL0     H 5006   7.534   6.137   3.265 -0.4864 -2.4804  0.2707
   38MOL0     H 5007   7.644   6.051   3.140 -1.8570 -1.3841  0.3286
   38MOL0     H 5008   7.661   6.294   3.115 -0.4507  2.0240  1.0060
   38MOL0     H 5009   7.663   6.307   3.295 -1.6388 -1.6777  0.7693
   38MOL0     H 5010   7.893   6.310   3.134 -2.6482  1.6223  0.5049
   38MOL0     H 5011   7.875   6.141   3.164 -1.5694 -1.1177  2.5840
   38MOL0     H 5012   7.878   6.318   3.412 -0.1794  1.3071 -0.4862
   38MOL0     H 5013   7.931   6.150   3.378 -3.8045 -0.3128 -0.3435
   38MOL0     H 5014   8.245   6.427   3.291 -0.5620  0.5013 -1.4330
   38MOL0     H 5015   7.813   5.897   3.499 -1.0396  1.1142 -0.1613
   38MOL0     H 5016   7.742   5.670   3.592 -3.3387 -3.2724  1.3352
   39MOL0     O 5017   9.545   8.205   8.227 -0.0725 -0.2541 -0.2836
   39MOL0     C 5018   9.491   8.297   8.277 -0.3697 -0.6046  0.4487
   39MOL0     O 5019   9.391   8.288   8.371 -0.0033  0.2417 -0.1695
   39MOL0     C 5020   9.364   8.167   8.414  1.1770  0.1864  0.9772
   39MOL0     C 5021   9.451   8.074   8.467  0.0605  0.1249 -0.5611
   39MOL0     C 5022   9.400   7.956   8.519  0.2240 -0.6205  0.5618
   39MOL0     C 5023   9.263   7.930   8.525  0.1578  0.1755  0.4217
   39MOL0     O 5024   9.217   7.828   8.601  0.9900  0.4150 -0.1753
   39MOL0     C 5025   9.294   7.713   8.650 -0.1536 -0.3188  1.1792
   39MOL0     C 5026   9.194   7.605   8.670 -0.0274  0.5466 -0.2699
   39MOL0     C 5027   9.088   7.637   8.776 -0.8272  0.4461 -0.9589
   39MOL0     C 5028   9.020   7.511   8.817  0.7755  1.3246  0.1082
   39MOL0     C 5029   8.910   7.538   8.919  0.8823  0.3327  0.0028
   39MOL0     C 5030   8.874   7.397   8.985  0.3700 -0.6138  0.2596
   39MOL0     C 5031   8.736   7.418   9.072 -0.8784  0.0423  0.4512
   39MOL0     C 5032   8.701   7.292   9.160  0.0107  0.4184 -0.4381
   39MOL0     N 5033   8.577   7.230   9.102 -0.0799 -1.0894  0.2929
   39MOL0     C 5034   8.580   7.145   8.991  0.1189  0.8417 -0.8474
   39MOL0     C 5035   8.461   7.100   8.976  0.5078 -0.1274  0.7786
   39MOL0     C 5036   8.428   7.011   8.861  0.0683 -0.3036  1.0153
   39MOL0     C 5037   8.293   6.932   8.882 -0.4948 -0.1378 -0.1255
   39MOL0     C 5038   8.259   6.847   8.759  0.8047 -0.5568 -0.1131
   39MOL0     C 5039   8.147   6.745   8.772  0.4646  0.0942 -0.0215
   39MOL0     O 5040   8.128   6.683   8.643  0.5859 -0.4736  0.1310
   39MOL0     C 5041   8.042   6.580   8.659 -0.0653  0.1197  0.0762
   39MOL0     C 5042   8.092   6.450   8.674 -0.5827 -0.1289 -0.3835
   39MOL0     C 5043   8.003   6.345   8.711  0.0647 -0.0674 -0.5034
   39MOL0     C 5044   7.864   6.358   8.731  0.0086 -0.0365  0.2148
   39MOL0     C 5045   7.773   6.259   8.776 -0.2524  0.4119  0.3289
   39MOL0     O 5046   7.803   6.134   8.738 -0.0620 -0.4810  0.3083
   39MOL0     C 5047   7.738   6.014   8.748  0.0487 -0.1528  1.1688
   39MOL0     C 5048   7.608   5.987   8.784 -0.0019  1.0608  0.1643
   39MOL0     C 5049   7.554   5.862   8.754 -0.1670 -0.7023  0.4469
   39MOL0     C 5050   7.636   5.759   8.717 -1.0539  0.8729  0.1063
   39MOL0     O 5051   7.604   5.623   8.696  0.4868 -0.3655  0.1986
   39MOL0     C 5052   7.461   5.591   8.696 -1.0022 -0.1585  0.5831
   39MOL0     C 5053   7.411   5.506   8.822 -0.8443  0.7239  0.2479
   39MOL0     C 5054   7.514   5.385   8.836  0.1694 -0.3210  0.0005
   39MOL0     C 5055   7.517   5.315   8.971 -0.7161  0.6014  0.1830
   39MOL0     C 5056   7.599   5.186   8.957  0.2161 -0.3741 -0.7189
   39MOL0     C 5057   7.601   5.116   9.096 -0.2436 -0.4374 -0.0591
   39MOL0     C 5058   7.710   5.021   9.123  0.5335  0.4018  0.0420
   39MOL0     C 5059   7.691   4.883   9.050 -0.1195  0.2445 -0.1923
   39MOL0    Cl 5060   7.715   4.901   8.872  0.3586  0.0163  0.4374
   39MOL0     C 5061   7.774   5.775   8.696 -0.1208  0.7425  0.1630
   39MOL0     C 5062   7.820   5.905   8.709  0.2487 -0.9662  0.2473
   39MOL0     O 5063   7.665   6.289   8.824  0.2247  0.0639 -0.3259
   39MOL0     C 5064   7.818   6.488   8.702 -0.2015  0.3189 -0.3326
   39MOL0     C 5065   7.901   6.589   8.665 -0.2636 -0.5903  0.0489
   39MOL0     N 5066   8.370   7.167   9.063 -0.4683  0.3631  0.7029
   39MOL0     N 5067   8.443   7.247   9.127 -1.1062 -0.4661 -0.9465
   39MOL0     C 5068   9.179   8.029   8.480 -1.5237 -1.3177 -0.2629
   39MOL0     C 5069   9.225   8.147   8.429  0.6132 -0.4485 -0.5365
   39MOL0     C 5070   9.537   8.427   8.226 -0.6949 -0.3626  0.0303
   39MOL0     C 5071   9.650   8.434   8.135  0.3068 -0.2031 -0.7577
   39MOL0     C 5072   9.699   8.559   8.096  0.8633  0.5894  0.1658
   39MOL0     C 5073   9.641   8.672   8.141 -0.0173 -0.6424 -0.1642
   39MOL0     O 5074   9.680   8.800   8.099  0.3078 -0.4504  0.1016
   39MOL0     C 5075   9.652   8.822   7.972  0.7981 -0.4537  0.3838
   39MOL0     C 5076   9.712   8.955   7.913  0.6975  1.0551  0.4013
   39MOL0     C 5077   9.706   9.075   8.005  0.7263 -0.5941  0.0839
   39MOL0     C 5078   9.742   9.195   7.919 -0.1775 -1.7104 -1.3236
   39MOL0     C 5079   9.782   9.300   8.017  0.7066  0.3848 -0.1259
   39MOL0     C 5080   9.795   9.376   8.112 -0.1221  1.3228 -0.2645
   39MOL0     C 5081   9.523   8.669   8.219 -1.0738 -0.3963 -0.7140
   39MOL0     C 5082   9.471   8.545   8.256 -0.2531 -0.3499  0.2013
   39MOL0     H 5083   9.553   8.112   8.475  1.2458 -3.0960  1.2290
   39MOL0     H 5084   9.472   7.885   8.559 -0.8407 -1.5155  0.9567
   39MOL0     H 5085   9.344   7.735   8.744  0.5364 -1.2022  1.0339
   39MOL0     H 5086   9.373   7.687   8.579  0.3491  1.3407  1.0811
   39MOL0     H 5087   9.245   7.513   8.703  1.0373  1.6285  1.2392
   39MOL0     H 5088   9.151   7.593   8.570 -0.1781  3.4398 -0.6376
   39MOL0     H 5089   9.022   7.713   8.731  0.2323  1.1143 -1.4175
   39MOL0     H 5090   9.117   7.680   8.873  0.2669 -1.6335 -0.3187
   39MOL0     H 5091   8.983   7.461   8.727 -1.2690  1.1838  0.9718
   39MOL0     H 5092   9.086   7.449   8.879 -1.6654  0.9030  2.4748
   39MOL0     H 5093   8.825   7.594   8.879  0.6222  0.4468  0.6928
   39MOL0     H 5094   8.956   7.605   8.993  1.2712  1.0578 -0.8707
   39MOL0     H 5095   8.956   7.361   9.048  3.0278 -0.9379 -3.0761
   39MOL0     H 5096   8.855   7.336   8.896  0.4439  1.7253 -1.4648
   39MOL0     H 5097   8.739   7.507   9.135 -0.5110  0.4694 -0.1679
   39MOL0     H 5098   8.657   7.445   9.001  1.4259  0.0117 -2.3219
   39MOL0     H 5099   8.677   7.327   9.261 -0.8517  1.0767 -0.8589
   39MOL0     H 5100   8.790   7.228   9.164 -0.0765  0.3118 -0.2114
   39MOL0     H 5101   8.664   7.119   8.927 -0.1787 -0.8911 -0.5807
   39MOL0     H 5102   8.507   6.936   8.852  2.0325  1.8031 -0.5659
   39MOL0     H 5103   8.414   7.071   8.771  0.9379 -1.9553 -0.2815
   39MOL0     H 5104   8.214   7.009   8.884  1.7899  2.3530  0.6446
   39MOL0     H 5105   8.298   6.870   8.971 -0.7132  2.0901  1.5357
   39MOL0     H 5106   8.225   6.923   8.688  0.9044 -0.0092  0.4187
   39MOL0     H 5107   8.336   6.781   8.718 -4.2831 -4.1045 -5.6431
   39MOL0     H 5108   8.052   6.785   8.807 -0.8271 -2.6553 -0.1227
   39MOL0     H 5109   8.178   6.663   8.838  1.9421  0.3705 -0.3344
   39MOL0     H 5110   8.199   6.432   8.661  0.3002  1.8685  2.8621
   39MOL0     H 5111   8.038   6.242   8.709 -2.3690 -0.9681  0.2543
   39MOL0     H 5112   7.537   6.059   8.822 -0.0085  0.3838  1.4718
   39MOL0     H 5113   7.448   5.853   8.773  0.1539 -0.4375  2.6269
   39MOL0     H 5114   7.470   5.534   8.603 -1.0860  1.3314 -0.3801
   39MOL0     H 5115   7.389   5.672   8.678 -0.9550 -0.2644 -0.1125
   39MOL0     H 5116   7.309   5.467   8.811 -1.0843  0.5728  2.5375
   39MOL0     H 5117   7.426   5.564   8.914  1.8559 -0.4055  0.6028
   39MOL0     H 5118   7.614   5.425   8.819  0.4258  0.2831  2.6066
   39MOL0     H 5119   7.492   5.308   8.760  0.5608  1.2365 -1.7644
   39MOL0     H 5120   7.574   5.379   9.039  1.4110 -2.6051  1.6557
   39MOL0     H 5121   7.418   5.290   9.010 -0.0382 -1.7686  0.5864
   39MOL0     H 5122   7.703   5.199   8.924  0.1221 -1.8149 -1.6222
   39MOL0     H 5123   7.552   5.114   8.890 -4.4296  0.3209  1.4234
   39MOL0     H 5124   7.505   5.068   9.116 -0.8033  0.0024 -1.5829
   39MOL0     H 5125   7.613   5.197   9.168 -2.7835 -0.6519  0.7128
   39MOL0     H 5126   7.805   5.072   9.101  1.2024 -0.1190  1.6016
   39MOL0     H 5127   7.709   4.991   9.228  1.0407 -1.6289 -0.4839
   39MOL0     H 5128   7.591   4.843   9.069  1.2472 -2.3604  2.2161
   39MOL0     H 5129   7.759   4.803   9.079 -3.8215 -2.6722  1.3985
   39MOL0     H 5130   7.841   5.699   8.656  0.8296  1.4987  0.2923
   39MOL0     H 5131   7.923   5.932   8.687  0.1984 -2.2025 -1.7747
   39MOL0     H 5132   7.721   6.517   8.739 -0.1724 -1.1993  1.0639
   39MOL0     H 5133   7.867   6.691   8.655 -1.1937 -0.8520  0.4354
   39MOL0     H 5134   9.070   8.031   8.486 -1.5969 -2.9626 -0.6562
   39MOL0     H 5135   9.154   8.225   8.407 -1.0585 -1.2053  1.7857
   39MOL0     H 5136   9.707   8.350   8.099 -0.0926 -1.8449  2.1764
   39MOL0     H 5137   9.781   8.560   8.024 -1.5167 -1.5621 -2.8319
   39MOL0     H 5138   9.543   8.812   7.966  0.8034 -0.0415 -0.8534
   39MOL0     H 5139   9.698   8.740   7.916 -1.7635 -2.4158  0.9587
   39MOL0     H 5140   9.820   8.948   7.896  1.5380  4.2072  3.3727
   39MOL0     H 5141   9.660   8.971   7.818 -1.3118 -0.8969  1.0827
   39MOL0     H 5142   9.771   9.060   8.092  0.3655  0.3141  0.5156
   39MOL0     H 5143   9.608   9.086   8.053 -0.6366  1.9421 -2.9322
   39MOL0     H 5144   9.812   9.183   7.836  1.2662  1.9906 -0.8522
   39MOL0     H 5145   9.656   9.242   7.871 -0.5830  1.0903  1.7816
   39MOL0     H 5146   9.811   9.421   8.208 -1.9433 -0.4439  0.9638
   39MOL0     H 5147   9.478   8.768   8.211  1.7529  0.8617 -3.2033
   39MOL0     H 5148   9.382   8.541   8.318 -0.6123  2.7382  0.0285
   40MOL0     O 5149   6.658   9.057   7.677  0.6020 -0.6923 -0.8678
   40MOL0     C 5150   6.690   9.115   7.575  0.7659 -0.8471  0.6771
   40MOL0     O 5151   6.742   9.236   7.578  0.3443 -0.5529  0.0800
   40MOL0     C 5152   6.763   9.307   7.689  0.6515 -0.6442  0.1279
   40MOL0     C 5153   6.883   9.384   7.684 -1.1008  0.1773  0.3661
   40MOL0     C 5154   6.907   9.463   7.795 -0.4528 -0.4030 -0.4717
   40MOL0     C 5155   6.813   9.474   7.906 -0.5544 -0.2296  0.3689
   40MOL0     O 5156   6.856   9.555   8.010  0.1255  0.0660  0.0938
   40MOL0     C 5157   6.774   9.575   8.128 -0.0398 -0.0685  1.1516
   40MOL0     C 5158   6.823   9.695   8.199 -0.8812  0.0233 -0.7678
   40MOL0     C 5159   6.970   9.666   8.241 -0.5637  0.3064 -0.5325
   40MOL0     C 5160   7.014   9.769   8.345  0.2037 -0.4284 -0.3461
   40MOL0     C 5161   7.131   9.717   8.425  0.5675  0.3477  0.0741
   40MOL0     C 5162   7.194   9.824   8.506  0.1489  1.2503  0.2066
   40MOL0     C 5163   7.305   9.763   8.597  0.1820  0.0374  0.1292
   40MOL0     C 5164   7.374   9.870   8.673 -0.3485 -0.4952 -0.4173
   40MOL0     N 5165   7.297   9.922   8.785 -0.3742 -0.0000 -0.3785
   40MOL0     C 5166   7.291   9.870   8.915 -0.7253  0.3403  0.9931
   40MOL0     C 5167   7.243   9.970   8.983  1.7152  1.1862 -0.6087
   40MOL0     C 5168   7.213   9.960   9.135 -0.0972  0.0791 -0.1071
   40MOL0     C 5169   7.080   9.868   9.143  0.2682  0.0004  0.2418
   40MOL0     C 5170   7.111   9.726   9.138 -0.1948 -0.3043  0.4160
   40MOL0     C 5171   7.045   9.645   9.026  0.8764  0.6870 -0.9423
   40MOL0     O 5172   7.069   9.702   8.900 -0.5619  0.5801 -0.9183
   40MOL0     C 5173   6.979   9.663   8.807  1.2118  0.7118 -0.3666
   40MOL0     C 5174   6.857   9.736   8.780  0.7277 -0.3507 -0.1614
   40MOL0     C 5175   6.760   9.687   8.698 -0.8395 -0.3632 -0.9396
   40MOL0     C 5176   6.775   9.571   8.626 -0.4189 -0.3064  0.6499
   40MOL0     C 5177   6.668   9.524   8.543 -0.2239 -0.1131  1.0387
   40MOL0     O 5178   6.538   9.584   8.543  0.3599  0.4701  0.0556
   40MOL0     C 5179   6.434   9.536   8.464 -0.7833 -0.1351 -1.1220
   40MOL0     C 5180   6.321   9.489   8.530  0.3922 -0.5420  0.2950
   40MOL0     C 5181   6.210   9.469   8.454  0.8639 -0.1314  0.5987
   40MOL0     C 5182   6.208   9.504   8.319  0.0921  0.4187  1.0673
   40MOL0     O 5183   6.087   9.506   8.252 -0.5469  0.2132 -0.8441
   40MOL0     C 5184   5.986   9.593   8.299 -0.0970 -0.7529  0.1843
   40MOL0     C 5185   5.934   9.661   8.180  0.8288 -0.1723  1.0328
   40MOL0     C 5186   5.781   9.687   8.187 -0.9453 -0.2924  0.5829
   40MOL0     C 5187   5.713   9.564   8.136 -0.3718 -0.5034 -0.6283
   40MOL0     C 5188   5.563   9.590   8.109 -0.3084 -0.2893 -0.1540
   40MOL0     C 5189   5.481   9.463   8.085  0.5710  0.1589  0.9116
   40MOL0     C 5190   5.417   9.419   8.221 -0.2512  0.1191 -2.0490
   40MOL0     C 5191   5.319   9.518   8.278 -0.6271 -0.2545 -0.3619
   40MOL0    Cl 5192   5.279   9.462   8.438  0.4278 -0.3118 -0.5624
   40MOL0     C 5193   6.332   9.530   8.249  1.5139 -0.0334  0.6110
   40MOL0     C 5194   6.442   9.556   8.323 -0.6223  0.6150 -0.1723
   40MOL0     O 5195   6.693   9.432   8.468  0.7944  0.0528  0.4100
   40MOL0     C 5196   6.894   9.494   8.650  0.5548 -0.3353  0.0201
   40MOL0     C 5197   6.987   9.546   8.742 -0.1948  0.5275  0.7327
   40MOL0     N 5198   7.205  10.076   8.904  1.0531  0.4834  0.0528
   40MOL0     N 5199   7.250  10.046   8.789 -0.0022 -0.5569  0.1724
   40MOL0     C 5200   6.703   9.393   7.911 -0.0191  0.3854 -0.2006
   40MOL0     C 5201   6.677   9.314   7.800  0.4504 -0.1772 -0.0888
   40MOL0     C 5202   6.688   9.061   7.445  0.4274 -0.5653  1.4221
   40MOL0     C 5203   6.674   8.920   7.418  0.2816  0.8482 -0.1722
   40MOL0     C 5204   6.703   8.862   7.296  0.4488 -0.3407  0.5975
   40MOL0     C 5205   6.719   8.947   7.192  0.7848 -0.0715  0.1927
   40MOL0     O 5206   6.716   8.888   7.069  0.2289 -0.7509  0.4623
   40MOL0     C 5207   6.846   8.875   7.026 -1.0115  0.2336 -0.3542
   40MOL0     C 5208   6.903   8.739   7.080 -0.3136 -0.8353  0.1288
   40MOL0     C 5209   7.040   8.709   7.012 -0.7179 -0.1469  0.0105
   40MOL0     C 5210   7.102   8.593   7.083  0.2041  0.4931 -0.9290
   40MOL0     C 5211   7.027   8.475   7.068 -0.3981 -0.0886  0.3586
   40MOL0     C 5212   6.969   8.374   7.063 -0.4022  0.0778  1.5762
   40MOL0     C 5213   6.711   9.087   7.200 -0.5099  0.2193  0.3052
   40MOL0     C 5214   6.697   9.139   7.330  0.0443 -1.5409 -0.2199
   40MOL0     H 5215   6.950   9.375   7.600 -1.6580  0.7403 -0.1468
   40MOL0     H 5216   6.990   9.531   7.814  0.2874 -1.0668 -1.2268
   40MOL0     H 5217   6.759   9.497   8.203 -0.9141  0.8700  1.9865
   40MOL0     H 5218   6.671   9.594   8.095  0.4737  1.7608  0.5123
   40MOL0     H 5219   6.760   9.712   8.287 -2.0206 -2.4190 -1.0132
   40MOL0     H 5220   6.822   9.788   8.143 -3.6985  1.0690  0.7981
   40MOL0     H 5221   7.047   9.667   8.162  0.2812 -1.3839  0.2155
   40MOL0     H 5222   6.971   9.563   8.277 -3.5988 -0.6395 -2.8017
   40MOL0     H 5223   7.051   9.854   8.287 -3.0725  2.0330  0.8727
   40MOL0     H 5224   6.926   9.808   8.396 -0.2281 -0.0301 -1.3679
   40MOL0     H 5225   7.223   9.683   8.374  2.9403  3.0825  2.2055
   40MOL0     H 5226   7.100   9.634   8.489  1.1161  0.3283  0.3190
   40MOL0     H 5227   7.116   9.875   8.563  1.6708  1.3539  2.3220
   40MOL0     H 5228   7.250   9.887   8.437 -0.3065  1.0187 -0.3848
   40MOL0     H 5229   7.253   9.694   8.665 -0.5288 -0.8234 -1.2491
   40MOL0     H 5230   7.374   9.703   8.537 -1.2453 -2.1035  0.5065
   40MOL0     H 5231   7.391   9.946   8.596 -3.2326 -1.9170 -2.6767
   40MOL0     H 5232   7.469   9.828   8.709  0.4952  1.4999 -0.2217
   40MOL0     H 5233   7.337   9.778   8.948  3.3155  1.7420 -0.1230
   40MOL0     H 5234   7.175  10.056   9.170 -2.9000 -1.4693  1.5470
   40MOL0     H 5235   7.301   9.921   9.187  1.6607  0.3758 -2.7200
   40MOL0     H 5236   7.006   9.899   9.069  1.7788  3.1087 -0.1508
   40MOL0     H 5237   7.038   9.895   9.240 -2.0344  1.0341 -0.9801
   40MOL0     H 5238   7.217   9.703   9.147  0.3123  1.9044  0.7230
   40MOL0     H 5239   7.057   9.681   9.221 -1.5985  1.9326  0.8025
   40MOL0     H 5240   6.936   9.635   9.034  1.1541 -4.4234 -0.5202
   40MOL0     H 5241   7.090   9.545   9.029  2.1180  1.1407 -2.9173
   40MOL0     H 5242   6.845   9.832   8.828 -2.2548 -1.5773  1.8356
   40MOL0     H 5243   6.668   9.744   8.688  0.4241  2.2700  1.1881
   40MOL0     H 5244   6.330   9.461   8.634  1.4271 -2.4536 -0.2628
   40MOL0     H 5245   6.117   9.439   8.501  0.0040 -1.0247 -1.5291
   40MOL0     H 5246   6.021   9.663   8.375 -1.9615  0.2971  0.1357
   40MOL0     H 5247   5.909   9.526   8.340  0.2478 -0.9978  0.4452
   40MOL0     H 5248   5.957   9.597   8.094 -2.0438 -1.3413  1.0019
   40MOL0     H 5249   5.985   9.758   8.180  1.0970 -0.3129  1.6479
   40MOL0     H 5250   5.753   9.781   8.138  1.1605  0.1211  0.0641
   40MOL0     H 5251   5.755   9.694   8.293  0.7345  6.7682  1.0141
   40MOL0     H 5252   5.762   9.518   8.049  1.2576 -0.4369  0.2213
   40MOL0     H 5253   5.731   9.496   8.219  0.1645  1.3674  0.8421
   40MOL0     H 5254   5.555   9.658   8.024  3.0198  1.4818  0.7633
   40MOL0     H 5255   5.528   9.648   8.195  0.8451  0.2120 -0.0060
   40MOL0     H 5256   5.545   9.386   8.041  0.3193  1.8180 -2.7178
   40MOL0     H 5257   5.413   9.487   8.003  1.4305  2.1560  0.7343
   40MOL0     H 5258   5.361   9.325   8.225 -1.9779  1.1626  0.9591
   40MOL0     H 5259   5.495   9.412   8.297 -1.6476 -1.8249 -0.6931
   40MOL0     H 5260   5.232   9.511   8.212  0.1763 -0.9763 -1.3744
   40MOL0     H 5261   5.363   9.618   8.281  0.6516 -0.7304 -1.8442
   40MOL0     H 5262   6.332   9.529   8.141 -2.1588  0.0958  0.4891
   40MOL0     H 5263   6.533   9.572   8.266 -0.2047 -3.6889 -1.0667
   40MOL0     H 5264   6.916   9.409   8.587  3.1705 -1.8596  2.7378
   40MOL0     H 5265   7.069   9.477   8.758  0.3518 -0.0709 -3.3973
   40MOL0     H 5266   6.629   9.394   7.991 -3.5980 -2.7162 -3.0585
   40MOL0     H 5267   6.590   9.250   7.810  1.4765 -1.1749  4.8218
   40MOL0     H 5268   6.650   8.853   7.500 -0.3659  0.7548 -0.4310
   40MOL0     H 5269   6.686   8.759   7.264  5.1421  0.0388 -4.3824
   40MOL0     H 5270   6.917   8.949   7.066 -0.6043  0.1368 -0.8902
   40MOL0     H 5271   6.859   8.873   6.917  3.0978 -2.7979 -0.0462
   40MOL0     H 5272   6.916   8.750   7.188  0.3921 -1.6434  0.1351
   40MOL0     H 5273   6.821   8.667   7.066  1.0170 -1.8888 -3.5637
   40MOL0     H 5274   7.108   8.795   7.023  0.7823 -1.1317 -1.0986
   40MOL0     H 5275   7.027   8.683   6.906  2.2660 -2.9860  0.1858
   40MOL0     H 5276   7.203   8.567   7.048 -0.1945 -0.7626 -1.2146
   40MOL0     H 5277   7.117   8.593   7.191 -2.5574 -5.5781 -0.1137
   40MOL0     H 5278   6.905   8.289   7.050  0.1291  0.0652 -1.9700
   40MOL0     H 5279   6.715   9.155   7.115  2.7592  1.8404  1.5985
   40MOL0     H 5280   6.709   9.245   7.346 -0.9142 -1.1838 -1.7618
   41MOL0     O 5281  10.717   4.181   7.193  0.4617 -0.3544  0.4911
   41MOL0     C 5282  10.816   4.240   7.196 -0.4152  0.2943  0.4862
   41MOL0     O 5283  10.855   4.341   7.280  0.3758  0.6773  0.5909
   41MOL0     C 5284  10.766   4.415   7.357  0.2983 -0.3478  0.1433
   41MOL0     C 5285  10.702   4.362   7.467  0.6571 -0.0580 -0.1666
   41MOL0     C 5286  10.608   4.427   7.547 -0.1298 -0.0684 -0.6876
   41MOL0     C 5287  10.589   4.563   7.524  0.2767  0.2665  0.8768
   41MOL0     O 5288  10.507   4.644   7.602  0.3822  1.2672  0.6159
   41MOL0     C 5289  10.392   4.685   7.527  0.0134 -0.3302 -0.1895
   41MOL0     C 5290  10.309   4.573   7.457 -0.4725 -1.0122 -0.5963
   41MOL0     C 5291  10.170   4.620   7.423 -0.0667 -0.3989 -0.3561
   41MOL0     C 5292  10.087   4.496   7.376  0.6244 -0.2447  0.6144
   41MOL0     C 5293   9.945   4.547   7.370  0.2362 -0.4576 -0.2927
   41MOL0     C 5294   9.858   4.457   7.294  1.2020 -0.1975 -0.5872
   41MOL0     C 5295   9.735   4.533   7.236 -0.0560 -0.0923  0.3815
   41MOL0     C 5296   9.623   4.439   7.234 -0.2458 -0.6217  0.5940
   41MOL0     N 5297   9.512   4.505   7.160  0.5459 -1.0220  0.2006
   41MOL0     C 5298   9.493   4.503   7.029  0.2174 -0.3682 -0.1415
   41MOL0     C 5299   9.365   4.536   7.002 -0.8514 -0.5971  0.7986
   41MOL0     C 5300   9.312   4.564   6.867  0.1613 -0.3332  0.4213
   41MOL0     C 5301   9.164   4.564   6.843 -0.0462  0.5629 -0.1402
   41MOL0     C 5302   9.075   4.668   6.919 -0.8772  0.2608  0.3765
   41MOL0     C 5303   8.927   4.645   6.877 -0.2035 -0.4957 -0.1398
   41MOL0     O 5304   8.904   4.730   6.763 -0.0449  0.0896  0.4540
   41MOL0     C 5305   8.772   4.749   6.723 -0.5399  0.0375  0.2466
   41MOL0     C 5306   8.669   4.662   6.752 -0.1389  0.0085 -0.1766
   41MOL0     C 5307   8.529   4.694   6.715 -0.4158  0.7377  0.8112
   41MOL0     C 5308   8.507   4.806   6.648 -0.1449  0.9068 -0.5073
   41MOL0     C 5309   8.362   4.847   6.633  0.2460 -0.1198  0.2120
   41MOL0     O 5310   8.269   4.742   6.660 -0.5533 -0.1702  1.1495
   41MOL0     C 5311   8.140   4.773   6.636 -0.2023  0.1756  0.5030
   41MOL0     C 5312   8.046   4.767   6.740  0.4863  0.2241 -0.2142
   41MOL0     C 5313   7.913   4.795   6.704 -0.5675 -1.1201 -0.0226
   41MOL0     C 5314   7.867   4.831   6.582 -0.2859  0.4272  0.9507
   41MOL0     O 5315   7.734   4.850   6.565  0.7502  0.2096  0.5693
   41MOL0     C 5316   7.690   4.908   6.441  0.2298  0.5515 -0.3435
   41MOL0     C 5317   7.569   4.998   6.461  1.0802  0.7798 -0.8429
   41MOL0     C 5318   7.529   5.056   6.327  0.0922 -0.5976  0.4982
   41MOL0     C 5319   7.397   5.128   6.350  0.2688  0.7684 -0.8697
   41MOL0     C 5320   7.365   5.183   6.211 -0.3921 -0.4192  0.5862
   41MOL0     C 5321   7.279   5.084   6.127  0.3950  0.9504  1.1105
   41MOL0     C 5322   7.134   5.071   6.168  0.2587  0.0577  0.8653
   41MOL0     C 5323   7.075   4.961   6.076 -0.1427  0.6615 -0.5223
   41MOL0    Cl 5324   7.061   5.019   5.905 -0.2470  0.3662  0.1232
   41MOL0     C 5325   7.967   4.842   6.479 -0.2310 -0.3280  0.2200
   41MOL0     C 5326   8.104   4.811   6.505 -0.8805 -0.5576 -0.3095
   41MOL0     O 5327   8.337   4.970   6.621  0.8680 -0.3318  0.8066
   41MOL0     C 5328   8.609   4.885   6.596 -0.5172 -0.8544 -0.4849
   41MOL0     C 5329   8.740   4.858   6.643  0.3047 -0.0084 -0.7001
   41MOL0     N 5330   9.310   4.562   7.122  0.5963  0.5434  0.3334
   41MOL0     N 5331   9.395   4.544   7.216  0.8553 -1.0711 -0.3702
   41MOL0     C 5332  10.651   4.622   7.412  0.8154 -0.1309  0.4803
   41MOL0     C 5333  10.737   4.549   7.329 -0.3917 -0.6357 -0.2398
   41MOL0     C 5334  10.920   4.188   7.105  0.4199 -0.3804  0.5741
   41MOL0     C 5335  11.051   4.245   7.107  0.0992  0.1078  0.4109
   41MOL0     C 5336  11.150   4.193   7.023  0.0392 -0.2445 -0.3713
   41MOL0     C 5337  11.133   4.080   6.944 -0.1320  0.9039  0.4192
   41MOL0     O 5338  11.221   4.011   6.851 -0.1520 -0.1514  0.4479
   41MOL0     C 5339  11.356   4.065   6.836  0.4583  0.9152 -0.0347
   41MOL0     C 5340  11.457   3.954   6.811 -0.8216 -0.1997 -0.1239
   41MOL0     C 5341  11.450   3.862   6.934  0.0689  0.3314  0.0282
   41MOL0     C 5342  11.514   3.724   6.905 -0.9896  0.1592 -0.0384
   41MOL0     C 5343  11.541   3.661   7.040  0.8231 -0.8287 -0.0286
   41MOL0     C 5344  11.561   3.604   7.143  0.2533 -0.1565 -0.3543
   41MOL0     C 5345  10.999   4.024   6.939  0.4603  1.5338 -0.5289
   41MOL0     C 5346  10.898   4.076   7.021 -0.0980 -0.0993 -0.0443
   41MOL0     H 5347  10.724   4.258   7.487  2.0755  0.8567  3.9800
   41MOL0     H 5348  10.558   4.379   7.631 -0.5446 -2.8358 -2.3791
   41MOL0     H 5349  10.416   4.751   7.444 -1.8020 -1.1424 -1.4180
   41MOL0     H 5350  10.328   4.747   7.591  0.0454 -2.0156  1.5837
   41MOL0     H 5351  10.309   4.488   7.526  2.9788  0.2812  1.2573
   41MOL0     H 5352  10.352   4.540   7.362 -3.6686  0.9091 -2.9095
   41MOL0     H 5353  10.181   4.699   7.349 -1.3287 -0.6186 -0.8058
   41MOL0     H 5354  10.111   4.665   7.504 -0.8004  1.5393 -1.8999
   41MOL0     H 5355  10.137   4.473   7.282  2.6090  1.9371  1.0524
   41MOL0     H 5356  10.087   4.417   7.452  0.0052 -1.0569 -0.2144
   41MOL0     H 5357   9.951   4.650   7.333  1.2421  0.4758  2.2247
   41MOL0     H 5358   9.910   4.555   7.473  1.4353 -0.7102  0.1466
   41MOL0     H 5359   9.827   4.387   7.373  2.8079 -0.1294  0.1535
   41MOL0     H 5360   9.921   4.400   7.226  1.3407  0.5691 -1.1117
   41MOL0     H 5361   9.713   4.616   7.304  3.4371 -0.5049  2.2122
   41MOL0     H 5362   9.771   4.573   7.141 -1.7227 -0.3592 -0.4007
   41MOL0     H 5363   9.600   4.408   7.336  3.0044  2.4564  2.5286
   41MOL0     H 5364   9.654   4.354   7.173  2.5251  0.9191 -0.3285
   41MOL0     H 5365   9.558   4.483   6.944 -0.2587  2.5090 -1.2856
   41MOL0     H 5366   9.360   4.493   6.798 -1.5895 -2.2637  1.0732
   41MOL0     H 5367   9.350   4.664   6.842 -3.5608  1.1101 -0.1091
   41MOL0     H 5368   9.126   4.467   6.878 -4.5678  1.7011 -1.2423
   41MOL0     H 5369   9.146   4.575   6.736 -0.8381 -0.5956 -0.1507
   41MOL0     H 5370   9.091   4.656   7.027  0.5686  0.5482  0.2144
   41MOL0     H 5371   9.106   4.767   6.885  1.0714 -0.1548  0.8139
   41MOL0     H 5372   8.861   4.681   6.956 -1.1798  1.6675 -1.8477
   41MOL0     H 5373   8.898   4.542   6.855  1.5886 -0.5173 -2.8484
   41MOL0     H 5374   8.663   4.578   6.821 -0.1830 -0.5255 -0.8083
   41MOL0     H 5375   8.459   4.619   6.748  0.4470 -1.5297 -2.0953
   41MOL0     H 5376   8.075   4.739   6.841 -0.1712  1.5636  0.3646
   41MOL0     H 5377   7.833   4.782   6.776 -0.5298 -0.0872  0.2219
   41MOL0     H 5378   7.653   4.833   6.371  0.4028  0.2850 -0.1520
   41MOL0     H 5379   7.764   4.974   6.395 -2.6770  6.4042  2.1987
   41MOL0     H 5380   7.586   5.076   6.536  2.0440 -2.8959  3.1680
   41MOL0     H 5381   7.484   4.938   6.495  0.4984  1.1650 -1.5768
   41MOL0     H 5382   7.527   4.988   6.241  0.0448  1.7385 -1.4505
   41MOL0     H 5383   7.601   5.133   6.299 -1.5633  0.9965  0.4887
   41MOL0     H 5384   7.332   5.055   6.398  4.2429 -2.2709  0.4729
   41MOL0     H 5385   7.412   5.218   6.411  1.9347 -0.6436  0.9507
   41MOL0     H 5386   7.453   5.209   6.152  0.5032  0.9479  2.4385
   41MOL0     H 5387   7.311   5.275   6.238 -0.6055 -0.6549  0.9730
   41MOL0     H 5388   7.333   4.990   6.138 -0.7794 -0.3289 -2.4373
   41MOL0     H 5389   7.292   5.125   6.026 -0.3415 -1.1941  0.0801
   41MOL0     H 5390   7.121   5.051   6.275  0.2760  2.3664  1.3623
   41MOL0     H 5391   7.092   5.171   6.151  1.4017  0.1799 -1.6847
   41MOL0     H 5392   6.979   4.917   6.103 -1.1951  2.3344 -1.3451
   41MOL0     H 5393   7.143   4.875   6.086  0.8989  1.6945  2.5808
   41MOL0     H 5394   7.929   4.866   6.380 -3.9347  1.3649  1.8537
   41MOL0     H 5395   8.177   4.815   6.425  0.6538 -2.4519  0.9152
   41MOL0     H 5396   8.593   4.979   6.544  5.6435  1.8070  1.4556
   41MOL0     H 5397   8.816   4.924   6.603  1.2157 -0.4624  0.2102
   41MOL0     H 5398  10.651   4.729   7.397  1.2510 -0.2968 -0.8226
   41MOL0     H 5399  10.786   4.596   7.244  1.8521 -2.1309  0.1428
   41MOL0     H 5400  11.085   4.327   7.170  0.1628 -0.5715  1.2704
   41MOL0     H 5401  11.244   4.247   7.031 -0.6263  0.8800  0.1103
   41MOL0     H 5402  11.386   4.130   6.920  2.0873  3.9079 -2.7153
   41MOL0     H 5403  11.357   4.130   6.748  2.4012 -0.0620 -0.7823
   41MOL0     H 5404  11.433   3.894   6.722 -1.4120 -2.6490  1.5985
   41MOL0     H 5405  11.554   4.005   6.814 -1.3795  1.2296 -2.6694
   41MOL0     H 5406  11.351   3.858   6.979  0.2617 -1.7676  0.3692
   41MOL0     H 5407  11.512   3.905   7.012  0.6902  0.6202 -0.6081
   41MOL0     H 5408  11.459   3.652   6.844  2.3320 -1.7299 -1.0671
   41MOL0     H 5409  11.616   3.738   6.868 -0.4344  0.4919  1.5279
   41MOL0     H 5410  11.582   3.561   7.239 -0.1230  0.6537  0.1050
   41MOL0     H 5411  10.978   3.941   6.872 -0.9533  0.2635  1.3510
   41MOL0     H 5412  10.796   4.040   7.022  0.0627 -0.5471  0.1832
   42MOL0     O 5413   5.423   7.756   5.910  0.6235 -0.2731 -0.2374
   42MOL0     C 5414   5.542   7.743   5.948 -0.5894  0.2930  0.3464
   42MOL0     O 5415   5.624   7.820   6.024  0.0241  0.5958  0.7596
   42MOL0     C 5416   5.575   7.936   6.068  0.2849  0.1935 -0.5803
   42MOL0     C 5417   5.560   8.049   5.994 -0.1273 -0.0701 -0.4048
   42MOL0     C 5418   5.492   8.159   6.044  0.2014 -0.3631 -0.1974
   42MOL0     C 5419   5.441   8.164   6.178 -0.4608  0.3090  0.5515
   42MOL0     O 5420   5.372   8.273   6.207 -0.3641 -0.2929 -0.7393
   42MOL0     C 5421   5.284   8.270   6.317  0.2990  0.7583  0.4347
   42MOL0     C 5422   5.281   8.414   6.373 -0.4562  0.0885  0.2280
   42MOL0     C 5423   5.159   8.482   6.320  0.2654 -0.0206  0.3649
   42MOL0     C 5424   5.164   8.630   6.353 -0.0913 -0.7239  0.0334
   42MOL0     C 5425   5.023   8.689   6.344  0.7247 -0.6722 -0.8247
   42MOL0     C 5426   4.988   8.732   6.195  0.1832 -0.0416  1.1605
   42MOL0     C 5427   4.839   8.749   6.183 -1.1482 -0.3749  0.1842
   42MOL0     C 5428   4.803   8.779   6.028  0.2479  0.3282 -1.0550
   42MOL0     N 5429   4.662   8.798   6.010 -1.1538 -0.6176 -0.6243
   42MOL0     C 5430   4.603   8.924   6.047 -0.1086  0.3120  0.1362
   42MOL0     C 5431   4.473   8.909   6.009  0.2161  0.6958 -0.6056
   42MOL0     C 5432   4.368   9.021   6.018  0.7033 -1.5790  0.1678
   42MOL0     C 5433   4.330   9.068   6.162  0.5090 -0.0914  0.3235
   42MOL0     C 5434   4.313   8.948   6.258  0.0084  0.2286  0.8490
   42MOL0     C 5435   4.224   8.977   6.373  0.0942 -0.1283  0.8719
   42MOL0     O 5436   4.213   8.852   6.440  0.0224  0.7823 -0.1874
   42MOL0     C 5437   4.147   8.840   6.557  0.8328 -1.1053 -0.5096
   42MOL0     C 5438   4.093   8.953   6.628 -0.0708 -0.9945 -0.3861
   42MOL0     C 5439   4.021   8.920   6.744  0.5841  0.2714 -0.8115
   42MOL0     C 5440   4.001   8.792   6.796  0.0328 -0.1329 -0.4524
   42MOL0     C 5441   3.903   8.755   6.910  0.5810 -0.5087  0.6570
   42MOL0     O 5442   3.863   8.622   6.916  0.1909 -0.1970  0.4910
   42MOL0     C 5443   3.821   8.557   7.029 -0.6777 -0.1523 -0.3057
   42MOL0     C 5444   3.856   8.601   7.150  0.2987 -0.0522 -0.9455
   42MOL0     C 5445   3.803   8.538   7.268  0.0345  0.0672  0.4865
   42MOL0     C 5446   3.750   8.406   7.265  0.1218 -0.1534  0.4070
   42MOL0     O 5447   3.713   8.337   7.377 -0.3770  0.0714  0.2862
   42MOL0     C 5448   3.618   8.401   7.457 -0.2403  0.0395  0.2203
   42MOL0     C 5449   3.470   8.357   7.431  0.6396 -0.3397 -0.6818
   42MOL0     C 5450   3.416   8.215   7.455  0.0226 -0.0855  0.1738
   42MOL0     C 5451   3.463   8.103   7.357 -0.2686 -1.1414  0.7425
   42MOL0     C 5452   3.404   7.971   7.391  0.4077 -0.1908  0.6864
   42MOL0     C 5453   3.412   7.866   7.274  0.0829  0.3576 -0.1454
   42MOL0     C 5454   3.350   7.733   7.298 -0.5082 -0.1319  0.1313
   42MOL0     C 5455   3.366   7.646   7.175 -0.0521 -1.5660  0.4918
   42MOL0    Cl 5456   3.251   7.684   7.040 -0.4410 -0.5069 -0.0179
   42MOL0     C 5457   3.722   8.354   7.141  0.0632 -0.0525 -0.7027
   42MOL0     C 5458   3.749   8.435   7.026 -0.7747  0.2012 -0.1348
   42MOL0     O 5459   3.868   8.838   6.988 -0.0065  0.1580 -0.0737
   42MOL0     C 5460   4.062   8.686   6.724  1.0657  0.3357  0.3069
   42MOL0     C 5461   4.132   8.714   6.609 -0.8930  0.4463  1.0075
   42MOL0     N 5462   4.461   8.786   5.950  0.3085  0.5733  1.3250
   42MOL0     N 5463   4.570   8.720   5.949  0.4134 -0.6009  0.7595
   42MOL0     C 5464   5.473   8.053   6.261  0.1324  0.4714  0.5706
   42MOL0     C 5465   5.537   7.945   6.205  0.0439 -0.1064 -0.9258
   42MOL0     C 5466   5.596   7.618   5.895  0.3418  0.3170 -0.2607
   42MOL0     C 5467   5.511   7.495   5.894  0.0910 -0.1523  0.2321
   42MOL0     C 5468   5.567   7.374   5.841 -0.2208 -0.6110 -0.5835
   42MOL0     C 5469   5.702   7.364   5.821 -0.3216 -0.0470  1.2562
   42MOL0     O 5470   5.764   7.244   5.784 -0.4945  0.4355  0.7536
   42MOL0     C 5471   5.700   7.113   5.803  0.1302 -0.3223  0.2262
   42MOL0     C 5472   5.750   7.033   5.687 -0.9813 -0.4827  0.1244
   42MOL0     C 5473   5.689   6.894   5.689  0.1787  0.7217  0.8545
   42MOL0     C 5474   5.754   6.825   5.558  1.1605 -0.5003  0.1017
   42MOL0     C 5475   5.675   6.858   5.444 -0.4364  0.5459  0.7695
   42MOL0     C 5476   5.602   6.893   5.364  0.2590 -0.4133  0.1848
   42MOL0     C 5477   5.786   7.477   5.830 -0.2589 -0.0198  0.3432
   42MOL0     C 5478   5.734   7.605   5.868 -0.5668 -1.1225  0.0570
   42MOL0     H 5479   5.605   8.059   5.896  0.4976 -3.3480 -0.5461
   42MOL0     H 5480   5.488   8.241   5.972  4.8370  0.9893  0.7266
   42MOL0     H 5481   5.303   8.198   6.397 -0.4597  0.9949  0.8387
   42MOL0     H 5482   5.183   8.248   6.282 -0.1283  4.2124 -0.8991
   42MOL0     H 5483   5.364   8.473   6.333 -0.2704 -1.4779 -1.8521
   42MOL0     H 5484   5.277   8.392   6.480 -0.6115 -3.5205 -0.3833
   42MOL0     H 5485   5.077   8.430   6.369  2.5932 -1.9731  2.5107
   42MOL0     H 5486   5.141   8.473   6.212 -1.0122  0.9002  0.4853
   42MOL0     H 5487   5.209   8.634   6.452  1.4329 -2.7463 -0.5029
   42MOL0     H 5488   5.229   8.690   6.289 -0.5482  1.4463  1.5079
   42MOL0     H 5489   5.012   8.783   6.400  2.4787 -0.3615 -0.9233
   42MOL0     H 5490   4.957   8.619   6.395  0.5498  0.0178 -0.0670
   42MOL0     H 5491   5.025   8.664   6.117 -0.0799  2.8590 -1.6916
   42MOL0     H 5492   5.038   8.825   6.167  2.3036 -0.8951  1.8749
   42MOL0     H 5493   4.790   8.653   6.202 -0.0251 -0.8963  0.5056
   42MOL0     H 5494   4.798   8.820   6.255  1.8989  1.3327  0.3511
   42MOL0     H 5495   4.848   8.710   5.956  0.4154  1.4838 -2.0886
   42MOL0     H 5496   4.853   8.876   6.016  2.2335 -0.6700 -1.3257
   42MOL0     H 5497   4.645   9.005   6.107  0.3793 -1.5353  2.4308
   42MOL0     H 5498   4.278   8.995   5.961 -0.0354  1.0983 -0.0501
   42MOL0     H 5499   4.420   9.102   5.966 -0.5407 -0.0795  1.1626
   42MOL0     H 5500   4.235   9.122   6.151  0.8678  0.3960 -0.5770
   42MOL0     H 5501   4.416   9.130   6.189 -0.0621 -0.1015  2.2968
   42MOL0     H 5502   4.266   8.864   6.207 -0.3981  1.1838 -0.4182
   42MOL0     H 5503   4.408   8.903   6.288 -1.0572 -1.4073  1.8797
   42MOL0     H 5504   4.128   9.023   6.347  0.4631  0.5674  0.7233
   42MOL0     H 5505   4.270   9.049   6.441 -0.0780  0.5059  0.3333
   42MOL0     H 5506   4.099   9.057   6.598 -1.6930  0.0105  2.3956
   42MOL0     H 5507   3.960   8.996   6.791 -0.3362 -0.7088 -0.4008
   42MOL0     H 5508   3.926   8.680   7.173  2.4702 -1.7384 -1.4460
   42MOL0     H 5509   3.806   8.584   7.367  0.1623  1.0761  0.0181
   42MOL0     H 5510   3.621   8.509   7.436  0.1342  0.0692  0.4103
   42MOL0     H 5511   3.640   8.385   7.563  3.6036 -0.9595 -0.5433
   42MOL0     H 5512   3.450   8.374   7.325  5.7035  1.2487 -1.6629
   42MOL0     H 5513   3.407   8.427   7.487  0.3825  1.2042 -2.7626
   42MOL0     H 5514   3.307   8.225   7.458  0.0273 -0.1822  0.8413
   42MOL0     H 5515   3.458   8.195   7.554 -0.9557 -0.4169  0.5418
   42MOL0     H 5516   3.425   8.135   7.260  1.1504 -2.2207 -0.2213
   42MOL0     H 5517   3.572   8.107   7.359 -0.3032  2.3196  0.3646
   42MOL0     H 5518   3.298   7.990   7.412 -0.4334 -3.4563 -0.0356
   42MOL0     H 5519   3.449   7.936   7.485 -1.0603 -2.5001  0.6227
   42MOL0     H 5520   3.518   7.861   7.248 -0.0106 -0.0140 -0.4771
   42MOL0     H 5521   3.362   7.891   7.180  0.9092  0.0734 -0.6696
   42MOL0     H 5522   3.376   7.694   7.397 -2.2056 -1.0605  0.2610
   42MOL0     H 5523   3.243   7.750   7.314 -0.2332  0.2883  1.7187
   42MOL0     H 5524   3.345   7.541   7.199 -3.7590 -2.2313 -4.0288
   42MOL0     H 5525   3.470   7.650   7.141 -0.3077 -1.1083 -0.2633
   42MOL0     H 5526   3.669   8.260   7.128  2.2716 -1.7286  1.4527
   42MOL0     H 5527   3.706   8.395   6.935  0.6999 -2.8831  0.4126
   42MOL0     H 5528   4.042   8.581   6.746  0.1374 -0.8037 -4.7968
   42MOL0     H 5529   4.172   8.641   6.539 -1.6489 -0.4139  1.4440
   42MOL0     H 5530   5.442   8.055   6.365  1.7257  1.3186  1.0649
   42MOL0     H 5531   5.554   7.861   6.271 -0.8240  0.3377 -0.1171
   42MOL0     H 5532   5.407   7.498   5.927 -0.7626 -2.5124 -1.9664
   42MOL0     H 5533   5.498   7.295   5.813  0.4276 -0.7612 -1.8392
   42MOL0     H 5534   5.592   7.121   5.787  0.6059  0.7892 -3.1736
   42MOL0     H 5535   5.717   7.097   5.910 -1.6318  2.0499  0.9434
   42MOL0     H 5536   5.722   7.091   5.599  3.6731  1.2604 -0.4608
   42MOL0     H 5537   5.857   7.028   5.706 -0.6813 -1.4325 -1.6030
   42MOL0     H 5538   5.580   6.890   5.682  0.3315 -3.4675 -3.5053
   42MOL0     H 5539   5.726   6.838   5.775 -0.5447  1.2176  1.5081
   42MOL0     H 5540   5.855   6.857   5.531 -0.3906  3.0050 -2.2892
   42MOL0     H 5541   5.753   6.716   5.569 -2.4054 -0.4823  1.2692
   42MOL0     H 5542   5.541   6.921   5.280  2.8171  1.6042 -1.0973
   42MOL0     H 5543   5.891   7.465   5.806  0.3831  1.2016  2.3204
   42MOL0     H 5544   5.797   7.687   5.900  1.2844 -3.4307  2.9097
   43MOL0     O 5545   5.685   2.438   0.502 -0.1255  0.3119 -0.1746
   43MOL0     C 5546   5.653   2.326   0.517 -0.4531  0.1308  0.3886
   43MOL0     O 5547   5.553   2.290   0.587  0.6507 -0.3429 -0.0083
   43MOL0     C 5548   5.488   2.383   0.670  0.4212  0.1112 -0.0441
   43MOL0     C 5549   5.515   2.373   0.799  0.6659  0.7256  0.1073
   43MOL0     C 5550   5.467   2.471   0.891 -0.7623  0.5633 -0.0656
   43MOL0     C 5551   5.393   2.580   0.857  0.5822  1.2483  0.6699
   43MOL0     O 5552   5.346   2.655   0.969  0.2807  0.3884 -0.1923
   43MOL0     C 5553   5.327   2.787   0.919  0.0077  1.8104  0.0275
   43MOL0     C 5554   5.361   2.880   1.029 -0.0174 -0.2219  0.6524
   43MOL0     C 5555   5.497   2.853   1.094 -0.3983  0.0690 -0.1462
   43MOL0     C 5556   5.532   2.961   1.185  0.2965  0.1582 -0.4706
   43MOL0     C 5557   5.656   2.910   1.263  0.5225  0.6087 -1.2431
   43MOL0     C 5558   5.731   3.025   1.337 -0.1787 -0.1941  0.5303
   43MOL0     C 5559   5.671   3.090   1.458  0.7279  0.0427 -0.5622
   43MOL0     C 5560   5.636   2.975   1.557  0.7132 -0.4933 -0.0874
   43MOL0     N 5561   5.588   3.010   1.700  0.6303  0.4109  1.0161
   43MOL0     C 5562   5.473   3.079   1.726 -0.4817  0.1262 -0.6553
   43MOL0     C 5563   5.465   3.068   1.855 -0.2645  0.3002  0.2911
   43MOL0     C 5564   5.343   3.117   1.941  0.4718  0.0413  0.4678
   43MOL0     C 5565   5.239   3.015   1.961 -0.2565  0.6861 -0.3266
   43MOL0     C 5566   5.271   2.910   2.063 -0.9043 -0.0960 -0.2102
   43MOL0     C 5567   5.168   2.799   2.070 -0.8366 -0.8558 -0.4046
   43MOL0     O 5568   5.195   2.696   1.976 -0.7395  0.5023 -0.2542
   43MOL0     C 5569   5.094   2.642   1.893  0.1982  0.0490 -0.6266
   43MOL0     C 5570   5.136   2.543   1.806 -0.0950 -0.0715 -1.1592
   43MOL0     C 5571   5.048   2.492   1.716 -0.1997 -0.4615 -0.8138
   43MOL0     C 5572   4.913   2.528   1.710  0.8056  0.2871 -0.5027
   43MOL0     C 5573   4.826   2.477   1.599 -0.5048 -0.0679 -0.4733
   43MOL0     O 5574   4.697   2.519   1.609  0.0082  0.8325 -0.2471
   43MOL0     C 5575   4.615   2.457   1.514 -0.6705 -0.1764  0.0701
   43MOL0     C 5576   4.548   2.549   1.436  0.4475 -0.5326  0.3855
   43MOL0     C 5577   4.478   2.512   1.325 -0.3687 -0.0632  0.6056
   43MOL0     C 5578   4.466   2.376   1.291  0.0321 -0.6999 -0.1804
   43MOL0     O 5579   4.383   2.342   1.181  0.4924 -0.8503  0.3335
   43MOL0     C 5580   4.334   2.204   1.173  0.3854  1.1368  0.2645
   43MOL0     C 5581   4.271   2.186   1.032 -0.6068  0.7052 -0.1936
   43MOL0     C 5582   4.140   2.244   1.017 -0.2890  0.3661 -0.0835
   43MOL0     C 5583   4.098   2.229   0.863 -1.4526 -0.0095  0.8329
   43MOL0     C 5584   3.945   2.227   0.844 -0.0195  0.1580 -1.0202
   43MOL0     C 5585   3.915   2.247   0.688  0.0376 -0.6571 -0.2266
   43MOL0     C 5586   3.768   2.256   0.654 -0.0787 -0.1496 -0.1989
   43MOL0     C 5587   3.739   2.256   0.507 -0.8182 -0.0735  1.1062
   43MOL0    Cl 5588   3.569   2.196   0.479 -0.1469  0.2723  0.0753
   43MOL0     C 5589   4.524   2.278   1.386 -0.0716 -1.7576  0.6050
   43MOL0     C 5590   4.595   2.319   1.500 -0.7401  0.4793 -0.1452
   43MOL0     O 5591   4.864   2.402   1.511  0.0579  0.2725 -0.0454
   43MOL0     C 5592   4.867   2.638   1.793  0.7446 -0.4438  0.7326
   43MOL0     C 5593   4.951   2.680   1.893  0.5818  0.2877  0.2288
   43MOL0     N 5594   5.566   2.988   1.910  0.0846 -0.3402 -0.3704
   43MOL0     N 5595   5.631   2.959   1.813 -0.2642 -0.0333  1.2385
   43MOL0     C 5596   5.350   2.583   0.718  0.7211 -0.3537 -0.2700
   43MOL0     C 5597   5.411   2.495   0.627 -0.4825 -0.3817 -0.5970
   43MOL0     C 5598   5.731   2.215   0.466 -0.2269 -1.1807 -0.6583
   43MOL0     C 5599   5.722   2.092   0.524  0.2044  1.6918  0.3988
   43MOL0     C 5600   5.799   1.987   0.468 -0.5197 -0.4279 -0.5034
   43MOL0     C 5601   5.892   2.012   0.360  0.7929  0.3834 -0.0689
   43MOL0     O 5602   5.973   1.919   0.303 -0.5970  0.5296 -0.1724
   43MOL0     C 5603   6.047   1.932   0.178  0.2293 -0.5356 -0.1737
   43MOL0     C 5604   6.098   1.784   0.154 -0.6108  0.0705 -0.4035
   43MOL0     C 5605   6.239   1.753   0.210 -0.6223  0.5823 -0.6656
   43MOL0     C 5606   6.352   1.843   0.156 -0.4184 -0.4685 -0.3730
   43MOL0     C 5607   6.342   1.835   0.009 -0.5819  0.0161 -0.4906
   43MOL0     C 5608   6.346   1.814  -0.113  0.5840 -0.8456 -0.3047
   43MOL0     C 5609   5.899   2.138   0.315 -0.3667 -0.4112  0.0846
   43MOL0     C 5610   5.821   2.236   0.358  0.2709 -0.0902 -0.0239
   43MOL0     H 5611   5.575   2.288   0.832 -1.5162 -1.3379 -0.9031
   43MOL0     H 5612   5.485   2.443   0.994 -0.9069  0.4524 -0.0688
   43MOL0     H 5613   5.228   2.812   0.880 -0.7169  0.7376  1.1159
   43MOL0     H 5614   5.391   2.815   0.835 -2.8690 -0.2679 -3.1479
   43MOL0     H 5615   5.280   2.867   1.101 -2.3801 -0.7403 -1.9634
   43MOL0     H 5616   5.347   2.987   1.012 -2.1317 -0.3045  1.5837
   43MOL0     H 5617   5.568   2.850   1.011 -0.7089  2.2208 -0.5460
   43MOL0     H 5618   5.487   2.759   1.150  0.3827  0.6876  1.0852
   43MOL0     H 5619   5.568   3.048   1.131 -0.3081 -0.9648 -2.7888
   43MOL0     H 5620   5.460   2.989   1.263  4.3157 -2.5584  4.8719
   43MOL0     H 5621   5.726   2.856   1.198  0.9654  1.3900 -1.4255
   43MOL0     H 5622   5.623   2.832   1.331  0.3182  2.0625  0.3946
   43MOL0     H 5623   5.756   3.099   1.260  1.1390 -2.0790 -0.9592
   43MOL0     H 5624   5.825   2.980   1.371 -0.4461 -3.5896 -2.4779
   43MOL0     H 5625   5.754   3.153   1.492  1.2556 -0.7738 -0.2998
   43MOL0     H 5626   5.586   3.154   1.432  1.7825  0.8216 -2.2537
   43MOL0     H 5627   5.730   2.923   1.575 -0.3322 -2.1173  0.9935
   43MOL0     H 5628   5.561   2.907   1.517  2.0613 -3.0181  1.3889
   43MOL0     H 5629   5.397   3.121   1.661 -1.7963  3.5311  2.6983
   43MOL0     H 5630   5.310   3.210   1.895  5.4630  1.9185  0.0388
   43MOL0     H 5631   5.371   3.146   2.042 -2.9052 -0.9600  1.8269
   43MOL0     H 5632   5.215   2.961   1.869  0.9928 -0.3767 -0.0540
   43MOL0     H 5633   5.147   3.069   1.986 -0.0102  1.1855 -0.4935
   43MOL0     H 5634   5.362   2.854   2.036  0.0602  1.6510 -0.7460
   43MOL0     H 5635   5.295   2.951   2.161 -0.1758 -0.6704 -0.1289
   43MOL0     H 5636   5.076   2.851   2.040  1.3037  4.2959  0.9373
   43MOL0     H 5637   5.159   2.753   2.168 -2.0347 -0.9352 -0.5294
   43MOL0     H 5638   5.239   2.512   1.813  0.4096  1.4439 -1.5297
   43MOL0     H 5639   5.077   2.412   1.649 -1.4227 -1.5255 -0.1346
   43MOL0     H 5640   4.554   2.655   1.460 -2.2378 -0.7660  2.5844
   43MOL0     H 5641   4.438   2.602   1.278 -1.5691  0.1264  1.9488
   43MOL0     H 5642   4.253   2.193   1.246 -0.6087  1.8791 -0.6921
   43MOL0     H 5643   4.421   2.138   1.178 -1.6485 -1.6754  0.6666
   43MOL0     H 5644   4.269   2.078   1.013  1.1568  0.7056 -0.5182
   43MOL0     H 5645   4.345   2.219   0.959  2.5350 -3.7618  0.4940
   43MOL0     H 5646   4.145   2.352   1.037  1.4769  0.0339  1.4443
   43MOL0     H 5647   4.068   2.194   1.083 -0.7522  0.5598 -0.4284
   43MOL0     H 5648   4.150   2.302   0.800  1.4390 -2.1522  0.5331
   43MOL0     H 5649   4.133   2.135   0.820 -1.8614 -0.1193  0.7314
   43MOL0     H 5650   3.896   2.300   0.908 -1.9835 -1.0766 -1.0381
   43MOL0     H 5651   3.898   2.135   0.881 -0.0894 -0.0223 -1.5468
   43MOL0     H 5652   3.947   2.161   0.628 -1.0487 -1.8363  0.8091
   43MOL0     H 5653   3.972   2.333   0.653 -3.2178  2.9333  2.4602
   43MOL0     H 5654   3.713   2.172   0.698 -1.6583 -0.5529 -2.7184
   43MOL0     H 5655   3.717   2.346   0.688 -2.8919 -1.8211  0.3355
   43MOL0     H 5656   3.810   2.188   0.460 -1.7053 -1.5154  1.7771
   43MOL0     H 5657   3.749   2.356   0.465  3.3816 -1.4368 -1.8167
   43MOL0     H 5658   4.496   2.175   1.365 -2.6154 -0.5500 -2.6627
   43MOL0     H 5659   4.626   2.252   1.580 -2.5205 -3.5707 -2.5390
   43MOL0     H 5660   4.770   2.686   1.792  1.7710  1.8102 -1.4278
   43MOL0     H 5661   4.913   2.745   1.971  0.5297  1.2750 -0.6087
   43MOL0     H 5662   5.279   2.654   0.677  0.7820  1.0211  1.8658
   43MOL0     H 5663   5.388   2.486   0.521 -1.7380  0.3694 -0.4113
   43MOL0     H 5664   5.664   2.064   0.611  0.0006  2.8430  0.6424
   43MOL0     H 5665   5.784   1.884   0.500  2.4535 -0.5562  0.8411
   43MOL0     H 5666   6.127   2.005   0.194 -0.2242  0.2851 -1.4698
   43MOL0     H 5667   5.992   1.970   0.091 -0.5532 -2.5735 -0.6110
   43MOL0     H 5668   6.025   1.711   0.190 -1.5795  0.9636 -0.4879
   43MOL0     H 5669   6.080   1.760   0.048 -1.7321 -0.0379 -0.2025
   43MOL0     H 5670   6.267   1.653   0.176 -0.7026  0.9417 -1.8266
   43MOL0     H 5671   6.217   1.767   0.316 -0.6112 -0.8680 -0.4526
   43MOL0     H 5672   6.344   1.942   0.202  1.6520  0.1028 -1.1009
   43MOL0     H 5673   6.452   1.804   0.178  1.0708  2.7723 -0.8087
   43MOL0     H 5674   6.337   1.810  -0.220 -2.2844  2.7473 -0.3926
   43MOL0     H 5675   5.961   2.164   0.230 -1.4234 -1.6005 -1.1051
   43MOL0     H 5676   5.829   2.337   0.319  2.5109 -0.1002  0.2555
   44MOL0     O 5677   8.028   0.677   3.011  0.4007 -0.4673 -0.1895
   44MOL0     C 5678   8.130   0.737   2.991  1.1500 -0.6388  0.9446
   44MOL0     O 5679   8.140   0.872   2.954 -0.2570  0.2185  0.4706
   44MOL0     C 5680   8.025   0.949   2.933  0.7713 -0.2363 -0.1586
   44MOL0     C 5681   8.001   1.064   3.007 -0.6637  0.1022 -0.1813
   44MOL0     C 5682   7.888   1.139   2.972  0.8559  0.6695 -0.0530
   44MOL0     C 5683   7.791   1.097   2.876  0.0102  0.9418  1.0651
   44MOL0     O 5684   7.674   1.159   2.833 -0.1412  0.9462 -0.3881
   44MOL0     C 5685   7.615   1.240   2.941  0.0542  0.2502  0.5684
   44MOL0     C 5686   7.486   1.292   2.885 -0.7404  0.8108 -0.4776
   44MOL0     C 5687   7.405   1.372   2.991 -0.0925  0.0556 -0.0794
   44MOL0     C 5688   7.286   1.437   2.933 -0.4302 -0.6320 -0.1870
   44MOL0     C 5689   7.225   1.527   3.040 -0.0534 -0.5578  0.2448
   44MOL0     C 5690   7.084   1.587   3.023 -0.4248  0.0029 -0.1305
   44MOL0     C 5691   7.047   1.679   3.146 -0.6920  0.5814  0.4053
   44MOL0     C 5692   6.908   1.735   3.151  0.1081  0.2065 -0.5224
   44MOL0     N 5693   6.894   1.818   3.034  0.3885  0.0418  0.5505
   44MOL0     C 5694   6.823   1.790   2.919  0.2989  0.3012 -0.3088
   44MOL0     C 5695   6.848   1.900   2.844 -0.1531 -0.3257 -0.2364
   44MOL0     C 5696   6.782   1.937   2.713  1.1013 -0.3820 -2.1548
   44MOL0     C 5697   6.641   2.017   2.734 -0.1804 -0.3792  0.5363
   44MOL0     C 5698   6.525   1.930   2.693  0.3792  0.5157 -0.0805
   44MOL0     C 5699   6.388   1.993   2.718  0.4135  0.3065 -0.7798
   44MOL0     O 5700   6.298   1.904   2.643 -0.4579  0.4931  0.1058
   44MOL0     C 5701   6.164   1.912   2.669 -0.3995 -0.5849 -0.8994
   44MOL0     C 5702   6.083   1.902   2.553 -0.1965 -1.0328 -0.0907
   44MOL0     C 5703   5.943   1.911   2.554 -0.0060  0.4622 -0.5432
   44MOL0     C 5704   5.884   1.919   2.688  0.0368  0.0601  0.4460
   44MOL0     C 5705   5.739   1.940   2.701 -0.0185 -0.8849 -0.7972
   44MOL0     O 5706   5.694   1.933   2.830 -0.2259  0.1041 -0.3049
   44MOL0     C 5707   5.557   1.926   2.849  0.3620 -0.4910  0.2124
   44MOL0     C 5708   5.494   1.805   2.840 -0.4892  0.6143  0.5944
   44MOL0     C 5709   5.373   1.784   2.895  0.7023 -0.6839  0.1698
   44MOL0     C 5710   5.305   1.888   2.955  0.8123 -0.2457  0.6925
   44MOL0     O 5711   5.187   1.859   3.010  0.5234  0.5811  0.7025
   44MOL0     C 5712   5.095   1.962   3.029 -0.9343 -0.1649 -0.5481
   44MOL0     C 5713   4.946   1.920   3.051  0.4273 -0.1498  0.6225
   44MOL0     C 5714   4.913   1.840   3.183 -0.3814  0.1798 -0.2957
   44MOL0     C 5715   4.919   1.927   3.316 -0.1169 -0.4225  0.2534
   44MOL0     C 5716   4.813   2.036   3.330 -0.5856  1.6967 -0.3010
   44MOL0     C 5717   4.811   2.111   3.465 -0.6281 -0.6063 -0.4204
   44MOL0     C 5718   4.810   2.016   3.588 -0.5946  0.7644  0.3544
   44MOL0     C 5719   4.792   2.111   3.715  0.4609  0.6620  0.5957
   44MOL0    Cl 5720   4.942   2.208   3.732  0.5769 -0.4021  0.1611
   44MOL0     C 5721   5.368   2.010   2.967  0.3581 -1.0112 -0.3935
   44MOL0     C 5722   5.499   2.032   2.919 -0.3254 -0.2972  0.5508
   44MOL0     O 5723   5.674   1.956   2.601 -0.3279  0.0835 -0.2330
   44MOL0     C 5724   5.966   1.924   2.801 -1.0613  0.1570  0.0323
   44MOL0     C 5725   6.109   1.916   2.794 -0.6443 -0.4056  0.7640
   44MOL0     N 5726   6.925   1.993   2.916  0.3758 -0.6684  0.0371
   44MOL0     N 5727   6.942   1.946   3.033 -0.4747 -0.0107 -0.3270
   44MOL0     C 5728   7.817   0.983   2.800  0.3615  0.6630  0.3260
   44MOL0     C 5729   7.931   0.910   2.838 -1.6445 -0.8975 -0.0246
   44MOL0     C 5730   8.254   0.666   2.996 -0.2778  0.8560 -0.5855
   44MOL0     C 5731   8.249   0.532   3.027  0.1168  0.2537  0.9403
   44MOL0     C 5732   8.366   0.471   3.064 -0.7747 -0.4830 -0.6810
   44MOL0     C 5733   8.496   0.524   3.079  0.8108 -0.7196  0.8248
   44MOL0     O 5734   8.619   0.466   3.110 -0.1780 -0.5460 -1.3768
   44MOL0     C 5735   8.669   0.375   3.014  0.5023  0.0657 -0.0523
   44MOL0     C 5736   8.790   0.453   2.960  0.1484  0.3593 -0.5456
   44MOL0     C 5737   8.851   0.380   2.841 -0.2030 -0.5724 -0.4800
   44MOL0     C 5738   9.004   0.375   2.849  0.1107 -0.6353 -0.1084
   44MOL0     C 5739   9.066   0.513   2.824  1.1858  0.1770  0.8579
   44MOL0     C 5740   9.126   0.613   2.812 -0.2957  0.2432  1.1765
   44MOL0     C 5741   8.500   0.662   3.051  0.8482  0.0138 -0.2457
   44MOL0     C 5742   8.382   0.733   3.007 -0.1312  0.5026  0.4080
   44MOL0     H 5743   8.070   1.075   3.090 -0.9644  1.3306 -0.0828
   44MOL0     H 5744   7.878   1.225   3.037  0.6307  1.5961 -1.2742
   44MOL0     H 5745   7.664   1.331   2.977  0.1062  1.6416 -2.6285
   44MOL0     H 5746   7.611   1.176   3.029 -0.0280  1.6364  1.6001
   44MOL0     H 5747   7.428   1.208   2.845  0.5607 -1.2126  1.5863
   44MOL0     H 5748   7.514   1.361   2.806  2.3289  0.5913  0.3071
   44MOL0     H 5749   7.486   1.441   3.018  0.1992  1.0218 -3.1056
   44MOL0     H 5750   7.366   1.292   3.056 -2.1235 -0.4746 -1.8445
   44MOL0     H 5751   7.323   1.496   2.848  3.4480  2.1498  3.0764
   44MOL0     H 5752   7.211   1.359   2.918  2.7314 -3.4645 -2.8806
   44MOL0     H 5753   7.299   1.606   3.055  2.9789 -3.2672  0.5371
   44MOL0     H 5754   7.232   1.471   3.133  2.3985 -2.3586 -0.9086
   44MOL0     H 5755   7.009   1.508   3.018 -0.5721  0.1564 -0.3816
   44MOL0     H 5756   7.080   1.643   2.929 -0.4543  0.7158  0.2857
   44MOL0     H 5757   7.055   1.615   3.235  1.4219  2.0178  1.3336
   44MOL0     H 5758   7.119   1.761   3.147  1.7537 -1.4722  0.1722
   44MOL0     H 5759   6.896   1.788   3.246 -0.5979 -0.7619 -0.0523
   44MOL0     H 5760   6.838   1.650   3.152  0.9554 -0.5200  0.6716
   44MOL0     H 5761   6.775   1.700   2.882 -1.1941  0.8328  0.2494
   44MOL0     H 5762   6.761   1.845   2.658 -3.6727 -2.0997  1.6981
   44MOL0     H 5763   6.842   2.008   2.656  1.0153  0.7762 -0.8593
   44MOL0     H 5764   6.648   2.112   2.681 -0.4796 -0.5595  0.1660
   44MOL0     H 5765   6.637   2.043   2.840 -3.2616  1.7030  0.0321
   44MOL0     H 5766   6.522   1.918   2.584 -2.4134 -0.0989  0.0082
   44MOL0     H 5767   6.529   1.832   2.741 -3.0108 -0.3602 -1.3244
   44MOL0     H 5768   6.391   2.097   2.684 -2.6684  0.2637 -1.4336
   44MOL0     H 5769   6.363   1.996   2.825  0.3873 -2.3325 -0.6476
   44MOL0     H 5770   6.137   1.911   2.460  0.3871  0.4744  0.3521
   44MOL0     H 5771   5.882   1.903   2.465  1.6016 -0.5293 -1.6024
   44MOL0     H 5772   5.547   1.722   2.794 -3.6037 -1.8222  1.0037
   44MOL0     H 5773   5.327   1.685   2.892  2.0726 -1.3497  0.4471
   44MOL0     H 5774   5.103   2.028   2.942 -0.5225 -1.0086 -1.1624
   44MOL0     H 5775   5.126   2.019   3.117  0.3048  0.2557 -1.2356
   44MOL0     H 5776   4.911   1.864   2.964 -1.3359  1.8785 -0.0726
   44MOL0     H 5777   4.894   2.017   3.048  2.7538  1.2516  1.9238
   44MOL0     H 5778   4.974   1.752   3.205  1.9474  2.4356  3.3316
   44MOL0     H 5779   4.806   1.816   3.181 -0.5143  0.4778  1.4734
   44MOL0     H 5780   4.924   1.857   3.400 -0.1848  1.2568  1.7091
   44MOL0     H 5781   5.020   1.967   3.324  0.3227 -0.2068 -4.0449
   44MOL0     H 5782   4.710   2.000   3.320  0.2015 -1.0535  0.8843
   44MOL0     H 5783   4.845   2.113   3.258  2.9211  1.6754  1.0351
   44MOL0     H 5784   4.728   2.182   3.467 -1.5902 -1.6840 -0.9999
   44MOL0     H 5785   4.906   2.165   3.473 -0.0997 -1.4894 -0.6286
   44MOL0     H 5786   4.727   1.946   3.573  0.2692 -0.0481 -0.8273
   44MOL0     H 5787   4.906   1.963   3.594 -0.0136  1.5663 -1.1470
   44MOL0     H 5788   4.777   2.059   3.810 -2.8126 -1.2457 -0.7730
   44MOL0     H 5789   4.700   2.168   3.698 -0.0163 -0.1153  0.5263
   44MOL0     H 5790   5.342   2.093   3.032  2.8560  0.3528 -1.0174
   44MOL0     H 5791   5.555   2.122   2.939  0.8082 -0.8438 -0.0943
   44MOL0     H 5792   5.935   1.915   2.904 -1.3753  2.1011  0.1471
   44MOL0     H 5793   6.172   1.910   2.883 -0.6919 -1.3385  0.7406
   44MOL0     H 5794   7.748   0.955   2.721 -1.3032  0.7802  1.6727
   44MOL0     H 5795   7.951   0.821   2.778  0.5858 -1.2233  1.1065
   44MOL0     H 5796   8.150   0.487   3.025  0.3382 -0.2151 -1.1998
   44MOL0     H 5797   8.359   0.363   3.073 -0.3965 -0.7555 -2.9468
   44MOL0     H 5798   8.598   0.351   2.934 -0.5629 -0.4008  1.0012
   44MOL0     H 5799   8.695   0.276   3.052  0.9442  0.3574  0.4081
   44MOL0     H 5800   8.767   0.556   2.932  1.8626  0.3611 -2.1962
   44MOL0     H 5801   8.857   0.456   3.047 -0.5160  1.5315 -0.0549
   44MOL0     H 5802   8.830   0.444   2.756  0.5606  1.8322  1.0342
   44MOL0     H 5803   8.813   0.279   2.823 -0.4474 -0.6359  0.3516
   44MOL0     H 5804   9.032   0.351   2.952  3.2130  0.5332 -0.5642
   44MOL0     H 5805   9.045   0.300   2.780 -1.0848 -0.8242 -0.6423
   44MOL0     H 5806   9.171   0.710   2.806 -4.8544  2.5637 -3.2733
   44MOL0     H 5807   8.596   0.706   3.074  0.5063  0.2910  0.6907
   44MOL0     H 5808   8.379   0.841   3.000 -0.6145  0.8552  4.0975
   45MOL0     O 5809   6.696   2.213   6.013  0.0625 -0.1010 -0.7882
   45MOL0     C 5810   6.787   2.131   5.995  0.2603  0.7984  0.6623
   45MOL0     O 5811   6.871   2.087   6.091 -0.0316  0.5677  0.0130
   45MOL0     C 5812   6.862   2.119   6.218 -0.5896 -0.7732 -0.9703
   45MOL0     C 5813   6.865   2.249   6.265  0.1315 -0.5988 -0.0534
   45MOL0     C 5814   6.871   2.277   6.396  0.8443 -0.3104 -0.9143
   45MOL0     C 5815   6.880   2.167   6.490 -0.5911  0.5785  0.3284
   45MOL0     O 5816   6.873   2.187   6.629 -0.9332 -0.3009 -1.3617
   45MOL0     C 5817   6.961   2.285   6.674 -0.7796  0.4766  0.1142
   45MOL0     C 5818   6.987   2.261   6.819  0.1495 -0.2992  0.0694
   45MOL0     C 5819   7.047   2.389   6.889  0.2537  0.3079 -0.6955
   45MOL0     C 5820   7.111   2.353   7.010  0.3082 -0.7432 -0.2374
   45MOL0     C 5821   7.174   2.460   7.096  0.3659 -0.1247  0.1008
   45MOL0     C 5822   7.081   2.568   7.152  0.3280 -0.8647  0.0555
   45MOL0     C 5823   7.141   2.653   7.266  0.6452 -0.3886 -0.0483
   45MOL0     C 5824   7.264   2.715   7.238  0.5752 -0.4177  0.3558
   45MOL0     N 5825   7.301   2.830   7.319 -0.3142  0.8533 -0.8855
   45MOL0     C 5826   7.272   2.854   7.451 -0.2367  0.8397 -0.0879
   45MOL0     C 5827   7.307   2.983   7.479 -0.2975  0.1191 -0.6007
   45MOL0     C 5828   7.264   3.057   7.600 -0.5507 -0.1172 -0.2046
   45MOL0     C 5829   7.358   3.025   7.719  0.5887  0.6702  0.2931
   45MOL0     C 5830   7.296   3.057   7.850  0.2004  0.3044  0.2977
   45MOL0     C 5831   7.145   3.088   7.858 -0.4750  0.0263 -0.1500
   45MOL0     O 5832   7.123   3.218   7.806  0.4193  0.3864 -0.2206
   45MOL0     C 5833   7.175   3.330   7.875  0.2020  0.5386 -0.1688
   45MOL0     C 5834   7.152   3.344   8.002 -0.6511  0.4881  0.1762
   45MOL0     C 5835   7.213   3.452   8.076  0.3074 -0.4721 -0.5874
   45MOL0     C 5836   7.301   3.536   8.011 -0.1204  0.3575 -0.0673
   45MOL0     C 5837   7.376   3.637   8.097  0.4095  0.4655  0.0454
   45MOL0     O 5838   7.496   3.684   8.052 -1.7381  0.4883  0.0302
   45MOL0     C 5839   7.566   3.761   8.144 -0.4586  0.2324  0.5459
   45MOL0     C 5840   7.676   3.717   8.212 -0.4544  1.0986  0.8824
   45MOL0     C 5841   7.727   3.794   8.316  1.6272  0.7699 -0.4572
   45MOL0     C 5842   7.672   3.915   8.341  1.0249  0.2751 -0.4825
   45MOL0     O 5843   7.731   3.967   8.457  0.8969  0.7908  0.7942
   45MOL0     C 5844   7.700   4.088   8.512  0.8075 -0.5699 -1.4079
   45MOL0     C 5845   7.770   4.111   8.641  0.6608 -1.0602 -0.0878
   45MOL0     C 5846   7.922   4.097   8.623 -0.4851 -0.5031 -0.2500
   45MOL0     C 5847   7.963   4.199   8.522  0.1195 -0.9124 -0.6502
   45MOL0     C 5848   8.106   4.252   8.555  0.4254 -0.4270  0.0851
   45MOL0     C 5849   8.217   4.146   8.553 -0.3877 -0.3402 -0.1044
   45MOL0     C 5850   8.354   4.210   8.582  0.5406 -1.3439  0.3626
   45MOL0     C 5851   8.454   4.098   8.589 -0.3674  0.0078 -0.2301
   45MOL0    Cl 5852   8.461   4.013   8.750 -0.0902  0.5198  0.2869
   45MOL0     C 5853   7.560   3.961   8.278 -0.8440  0.6369  0.2681
   45MOL0     C 5854   7.511   3.887   8.168 -0.3405 -0.8781  0.1144
   45MOL0     O 5855   7.336   3.659   8.215  0.7685  0.6359  0.9826
   45MOL0     C 5856   7.333   3.516   7.878 -0.3339 -0.5531  0.6218
   45MOL0     C 5857   7.269   3.412   7.812 -0.1866  0.7038  0.0749
   45MOL0     N 5858   7.366   3.036   7.360  0.0226  0.5101 -0.2230
   45MOL0     N 5859   7.365   2.937   7.269  0.3259 -0.1731 -0.2104
   45MOL0     C 5860   6.871   2.031   6.448  0.9079 -0.7622  0.6168
   45MOL0     C 5861   6.858   2.015   6.308  0.2040  0.4994  0.4100
   45MOL0     C 5862   6.799   2.090   5.848  0.4524  0.2261  0.5326
   45MOL0     C 5863   6.729   2.167   5.749  1.1053 -0.8932  0.2682
   45MOL0     C 5864   6.750   2.135   5.617  1.1884 -1.2811  0.3056
   45MOL0     C 5865   6.837   2.024   5.578 -0.4698 -0.0585 -0.4946
   45MOL0     O 5866   6.862   1.985   5.443  1.6997  0.1932 -0.0350
   45MOL0     C 5867   6.733   1.965   5.379  0.3395 -0.6755  0.0306
   45MOL0     C 5868   6.706   1.814   5.365 -0.2181 -0.3066  0.2598
   45MOL0     C 5869   6.805   1.719   5.298 -0.4040  0.0147 -1.0746
   45MOL0     C 5870   6.930   1.710   5.374 -1.7746 -0.4496 -0.0411
   45MOL0     C 5871   6.997   1.606   5.297  0.1713 -0.2036  0.0247
   45MOL0     C 5872   7.069   1.525   5.239  0.1913 -0.8210 -0.2192
   45MOL0     C 5873   6.900   1.952   5.678  0.0196  0.2795 -0.5493
   45MOL0     C 5874   6.873   1.976   5.814 -0.4122 -0.3039  0.7210
   45MOL0     H 5875   6.868   2.334   6.198 -5.4129 -1.1170 -1.4522
   45MOL0     H 5876   6.875   2.376   6.441  0.3367 -0.6628 -0.0624
   45MOL0     H 5877   6.909   2.381   6.664 -2.1954  0.0966  2.9279
   45MOL0     H 5878   7.055   2.291   6.618 -1.2942  0.2120 -0.7932
   45MOL0     H 5879   7.061   2.181   6.819  1.1081  0.5395 -1.0221
   45MOL0     H 5880   6.898   2.230   6.874  2.0224 -1.1466  2.8097
   45MOL0     H 5881   6.965   2.460   6.906  1.1273  1.3564 -0.7451
   45MOL0     H 5882   7.131   2.436   6.836 -0.1596 -0.2264 -1.8653
   45MOL0     H 5883   7.027   2.304   7.059 -1.5346  1.6236 -0.8370
   45MOL0     H 5884   7.188   2.275   7.002 -0.7904 -1.9500  0.5088
   45MOL0     H 5885   7.268   2.492   7.050  0.8127  0.0273  1.0947
   45MOL0     H 5886   7.207   2.421   7.193 -2.1446 -1.5837  0.4553
   45MOL0     H 5887   6.985   2.524   7.180  0.9031 -1.7553  0.7127
   45MOL0     H 5888   7.066   2.639   7.071  1.9175  1.3374  1.5923
   45MOL0     H 5889   7.053   2.714   7.287  1.4335  0.5048  0.7562
   45MOL0     H 5890   7.162   2.590   7.352 -0.2831  0.3929  0.7640
   45MOL0     H 5891   7.260   2.765   7.141  1.0053  1.5070  1.2865
   45MOL0     H 5892   7.347   2.644   7.247  2.2668  1.6241  2.1825
   45MOL0     H 5893   7.228   2.780   7.517  0.5713  0.9657  0.6067
   45MOL0     H 5894   7.173   3.003   7.628  1.4691 -3.3319  0.6620
   45MOL0     H 5895   7.258   3.164   7.574 -1.1132 -0.2194 -0.5002
   45MOL0     H 5896   7.449   3.084   7.711 -0.1403  1.6826 -0.9316
   45MOL0     H 5897   7.387   2.920   7.713  1.0596  0.6674  1.9932
   45MOL0     H 5898   7.309   2.972   7.918  0.0606  1.1795  1.4668
   45MOL0     H 5899   7.344   3.140   7.902 -1.4057  0.9982  0.7447
   45MOL0     H 5900   7.122   3.087   7.965  4.2435 -2.7373  1.1388
   45MOL0     H 5901   7.097   3.010   7.799  0.4685  1.8183 -3.5868
   45MOL0     H 5902   7.077   3.282   8.050  1.0447 -1.3771  0.5558
   45MOL0     H 5903   7.172   3.454   8.176 -1.1337 -1.7675 -1.0959
   45MOL0     H 5904   7.704   3.612   8.203  3.7211  2.1274 -0.5230
   45MOL0     H 5905   7.808   3.753   8.375  0.0582 -1.4887  0.3037
   45MOL0     H 5906   7.593   4.086   8.539  0.9726 -1.1565 -0.7505
   45MOL0     H 5907   7.731   4.166   8.442  1.3216 -0.9047 -1.5602
   45MOL0     H 5908   7.725   4.047   8.717  2.7439 -0.0064  2.1638
   45MOL0     H 5909   7.754   4.214   8.674 -0.4371 -1.2364 -0.0188
   45MOL0     H 5910   7.967   3.999   8.600  2.6730  1.0184 -1.2328
   45MOL0     H 5911   7.963   4.127   8.720 -0.0392 -1.2018 -0.2118
   45MOL0     H 5912   7.979   4.149   8.426 -0.7670  0.0638 -1.3185
   45MOL0     H 5913   7.895   4.284   8.516  2.6567  1.3834  0.8741
   45MOL0     H 5914   8.108   4.322   8.639  0.7647  1.1833 -1.2167
   45MOL0     H 5915   8.136   4.310   8.468  0.7068 -1.0776 -0.2590
   45MOL0     H 5916   8.222   4.104   8.452  3.0690  0.4719 -0.4116
   45MOL0     H 5917   8.204   4.067   8.628  0.8530  1.4800  2.1859
   45MOL0     H 5918   8.364   4.272   8.493 -3.3227 -2.8733 -1.3522
   45MOL0     H 5919   8.353   4.269   8.674 -1.1125 -0.3111 -0.2659
   45MOL0     H 5920   8.548   4.150   8.565  0.4007 -0.8635  0.8440
   45MOL0     H 5921   8.427   4.018   8.519 -0.1584 -1.2748  1.1248
   45MOL0     H 5922   7.514   4.055   8.307  0.2432  1.3040 -0.1057
   45MOL0     H 5923   7.425   3.928   8.116 -0.8128  2.5327  3.2230
   45MOL0     H 5924   7.405   3.583   7.833 -0.8452 -0.4822 -0.0961
   45MOL0     H 5925   7.281   3.402   7.705 -0.5427  1.7366 -0.0733
   45MOL0     H 5926   6.863   1.948   6.517 -2.3103  0.5021  1.9452
   45MOL0     H 5927   6.832   1.914   6.277  3.0693 -0.0020 -0.7243
   45MOL0     H 5928   6.668   2.253   5.775  0.0035 -1.9053  1.1724
   45MOL0     H 5929   6.695   2.195   5.545  1.2875 -1.4633  0.0747
   45MOL0     H 5930   6.731   2.020   5.284 -1.8435  1.7255  1.3325
   45MOL0     H 5931   6.646   2.003   5.433 -2.8854 -2.4011 -3.4809
   45MOL0     H 5932   6.667   1.787   5.463  0.1809 -0.0089  0.5042
   45MOL0     H 5933   6.618   1.810   5.301  0.4742  0.3028 -0.7683
   45MOL0     H 5934   6.817   1.745   5.193  0.7057 -2.3412 -1.5769
   45MOL0     H 5935   6.756   1.621   5.300  0.2039 -0.3467  2.4927
   45MOL0     H 5936   6.992   1.799   5.362 -0.2851 -1.6444 -1.6724
   45MOL0     H 5937   6.914   1.677   5.477  0.3996  0.1409  0.5272
   45MOL0     H 5938   7.132   1.445   5.204  0.9294 -1.9136  3.2297
   45MOL0     H 5939   6.972   1.883   5.635 -0.1116  0.0066 -0.3357
   45MOL0     H 5940   6.920   1.911   5.886  1.5126  2.4533  2.0971
   46MOL0     O 5941   4.484   0.102  10.265  0.4580  0.2375  0.3252
   46MOL0     C 5942   4.392   0.020  10.266 -0.1675 -0.1414  0.0123
   46MOL0     O 5943   4.403  -0.116  10.250  1.2636 -0.4814  0.4277
   46MOL0     C 5944   4.523  -0.175  10.225 -1.0371  0.8941  0.7297
   46MOL0     C 5945   4.595  -0.208  10.331 -0.2834  0.1996 -0.4464
   46MOL0     C 5946   4.727  -0.266  10.316  1.1963 -0.2876 -1.0254
   46MOL0     C 5947   4.783  -0.280  10.195  0.0817  0.1366  0.7799
   46MOL0     O 5948   4.909  -0.330  10.188  0.4935  0.2284  0.1426
   46MOL0     C 5949   4.985  -0.297  10.068 -1.1000 -0.2228  0.0205
   46MOL0     C 5950   5.131  -0.260  10.102 -0.4196 -0.7533 -0.6189
   46MOL0     C 5951   5.139  -0.169  10.226  0.5452 -0.3922 -0.3154
   46MOL0     C 5952   5.294  -0.166  10.271 -0.3530 -0.7648  0.2847
   46MOL0     C 5953   5.314  -0.205  10.426 -0.4083  0.2350  0.5836
   46MOL0     C 5954   5.366  -0.091  10.507 -0.8240  0.3178 -0.6442
   46MOL0     C 5955   5.372  -0.118  10.662 -0.4001  0.3972  0.5187
   46MOL0     C 5956   5.476  -0.228  10.708  0.0842  0.1850  0.4379
   46MOL0     N 5957   5.455  -0.217  10.856  0.8527  0.2413  0.7924
   46MOL0     C 5958   5.527  -0.152  10.953 -0.7438  0.0863  1.0443
   46MOL0     C 5959   5.445  -0.160  11.062 -0.2119 -0.1445  0.6053
   46MOL0     C 5960   5.469  -0.085  11.188  0.2164 -0.7128  1.1374
   46MOL0     C 5961   5.427   0.064  11.145  0.7436 -0.0876  0.6567
   46MOL0     C 5962   5.427   0.173  11.255  0.4815  0.2988  0.1523
   46MOL0     C 5963   5.563   0.239  11.254 -0.8977  0.1153 -0.3929
   46MOL0     O 5964   5.565   0.356  11.323 -0.0401  0.0521  0.0953
   46MOL0     C 5965   5.676   0.445  11.319 -0.0509  1.0440  0.7259
   46MOL0     C 5966   5.667   0.568  11.386 -0.3410 -0.6973 -0.4936
   46MOL0     C 5967   5.769   0.662  11.373 -0.3532  0.0558 -0.1044
   46MOL0     C 5968   5.876   0.647  11.278  0.3145 -0.0458 -0.2399
   46MOL0     C 5969   5.967   0.757  11.250 -0.6480 -0.6433  0.2929
   46MOL0     O 5970   5.976   0.788  11.115 -0.0849 -0.2949 -0.7456
   46MOL0     C 5971   6.062   0.876  11.056  0.2314 -0.4501  0.8309
   46MOL0     C 5972   6.079   0.870  10.913  0.9917 -1.1086 -1.0004
   46MOL0     C 5973   6.187   0.939  10.850  0.1929  0.7267 -0.4425
   46MOL0     C 5974   6.265   1.025  10.914 -0.1772  0.0293 -0.4566
   46MOL0     O 5975   6.351   1.103  10.836  0.2264 -0.7881  0.5424
   46MOL0     C 5976   6.410   1.221  10.888  0.8961 -0.0947 -0.6072
   46MOL0     C 5977   6.532   1.264  10.792  1.5396  1.0870 -0.5031
   46MOL0     C 5978   6.482   1.297  10.654 -0.2699 -0.1632 -0.1195
   46MOL0     C 5979   6.592   1.281  10.540  0.0809 -0.6060 -0.5042
   46MOL0     C 5980   6.535   1.328  10.400  0.1710  1.0039 -0.3371
   46MOL0     C 5981   6.529   1.470  10.375 -0.6133 -0.4060  1.0551
   46MOL0     C 5982   6.429   1.497  10.265  0.8566  0.5482  0.5328
   46MOL0     C 5983   6.440   1.640  10.208  0.2554  0.4775 -0.0200
   46MOL0    Cl 5984   6.323   1.679  10.082 -0.0377  0.0107 -0.8163
   46MOL0     C 5985   6.249   1.051  11.053 -0.3059  0.2171  0.7673
   46MOL0     C 5986   6.154   0.965  11.122 -0.3714 -1.2655  0.3315
   46MOL0     O 5987   6.023   0.822  11.344 -0.4823  0.3100  0.6966
   46MOL0     C 5988   5.891   0.521  11.219  0.3185  0.2179  1.0413
   46MOL0     C 5989   5.789   0.421  11.237  0.5751 -0.3188 -0.4668
   46MOL0     N 5990   5.339  -0.245  11.038  1.0588  0.1726 -0.9709
   46MOL0     N 5991   5.354  -0.283  10.916 -0.0991 -0.0981  0.0687
   46MOL0     C 5992   4.711  -0.241  10.087  0.0236  0.3410  0.5638
   46MOL0     C 5993   4.583  -0.182  10.096  1.1888 -0.2868  0.2383
   46MOL0     C 5994   4.251   0.068  10.257 -0.7154 -0.3940 -0.7036
   46MOL0     C 5995   4.229   0.195  10.203 -0.1644  0.1093  0.1927
   46MOL0     C 5996   4.096   0.236  10.217 -0.4810  0.0220  0.9382
   46MOL0     C 5997   3.988   0.149  10.258  0.6840  0.1569  0.6664
   46MOL0     O 5998   3.853   0.186  10.251  0.7278 -0.4548  0.2823
   46MOL0     C 5999   3.820   0.327  10.229  0.4675  0.0997 -0.7524
   46MOL0     C 6000   3.704   0.371  10.327  0.2087  0.6429  0.4353
   46MOL0     C 6001   3.573   0.357  10.253 -0.2253  0.7032 -0.2101
   46MOL0     C 6002   3.446   0.387  10.339 -0.4834 -0.1616 -0.6145
   46MOL0     C 6003   3.416   0.268  10.425 -1.3368  0.2506 -0.0539
   46MOL0     C 6004   3.392   0.174  10.498 -0.4661  0.7248  0.0912
   46MOL0     C 6005   4.017   0.025  10.305  0.9608  0.1838  0.2657
   46MOL0     C 6006   4.145  -0.014  10.305  0.5587  1.1477  1.0219
   46MOL0     H 6007   4.563  -0.209  10.434  2.1863 -2.8198  0.4702
   46MOL0     H 6008   4.775  -0.303  10.406  1.7251  0.6199 -0.9246
   46MOL0     H 6009   4.964  -0.203  10.015  4.0487  3.7822  3.9537
   46MOL0     H 6010   4.976  -0.379   9.996 -3.7453  0.4992 -0.5900
   46MOL0     H 6011   5.192  -0.218  10.022  1.2281 -0.9077  0.5050
   46MOL0     H 6012   5.176  -0.354  10.137 -0.3728 -2.2464 -4.2594
   46MOL0     H 6013   5.082  -0.218  10.306 -0.0359  0.1239 -0.4101
   46MOL0     H 6014   5.092  -0.076  10.195  1.7743 -0.0329 -1.1988
   46MOL0     H 6015   5.356  -0.231  10.209 -1.4892 -1.8733  0.2702
   46MOL0     H 6016   5.325  -0.062  10.256  2.2397 -1.2591  1.7513
   46MOL0     H 6017   5.385  -0.288  10.429  0.0732  0.6732  2.3895
   46MOL0     H 6018   5.226  -0.249  10.475 -2.0117  0.7955 -1.6449
   46MOL0     H 6019   5.319   0.006  10.488  0.4430  1.2874  0.9359
   46MOL0     H 6020   5.474  -0.084  10.492  0.0813 -4.1020  2.0526
   46MOL0     H 6021   5.408  -0.022  10.701  2.1443 -0.9255  1.6531
   46MOL0     H 6022   5.275  -0.143  10.707 -0.4092  0.4948  0.5544
   46MOL0     H 6023   5.580  -0.204  10.685 -0.0948  0.0170 -0.5977
   46MOL0     H 6024   5.452  -0.317  10.649 -1.6966  0.7423  0.2477
   46MOL0     H 6025   5.623  -0.101  10.950  0.2489 -1.7333 -1.1619
   46MOL0     H 6026   5.575  -0.092  11.212  0.0554  0.2910  2.2318
   46MOL0     H 6027   5.416  -0.135  11.270  0.0003  0.1222  1.5180
   46MOL0     H 6028   5.324   0.057  11.108  0.9538  0.1334  0.0342
   46MOL0     H 6029   5.486   0.099  11.060 -2.0395 -1.7883 -2.1699
   46MOL0     H 6030   5.360   0.258  11.242 -0.0040  0.2686  2.1457
   46MOL0     H 6031   5.415   0.134  11.357  1.4546  0.9552  0.5327
   46MOL0     H 6032   5.607   0.259  11.155  0.7109  3.0656  0.7834
   46MOL0     H 6033   5.634   0.167  11.297 -2.6249 -1.7661 -0.5542
   46MOL0     H 6034   5.576   0.583  11.444 -0.3098 -1.8986 -0.0987
   46MOL0     H 6035   5.744   0.752  11.428  1.1155 -1.2839  3.0039
   46MOL0     H 6036   6.007   0.808  10.860 -1.5741 -0.5088  1.5308
   46MOL0     H 6037   6.206   0.930  10.744 -2.2910  0.2267 -0.9161
   46MOL0     H 6038   6.463   1.210  10.983 -0.6972 -3.2702  0.0514
   46MOL0     H 6039   6.329   1.295  10.891  2.0132  1.7928 -6.2048
   46MOL0     H 6040   6.606   1.184  10.789 -1.4036 -1.8175 -2.8793
   46MOL0     H 6041   6.582   1.351  10.837  1.8071  0.9856 -0.6009
   46MOL0     H 6042   6.432   1.394  10.653  0.7375  0.4562 -3.3904
   46MOL0     H 6043   6.407   1.225  10.622  0.7762 -1.6797  0.6774
   46MOL0     H 6044   6.682   1.339  10.560 -0.9606  1.0537 -0.4789
   46MOL0     H 6045   6.617   1.174  10.544  1.0546 -0.3647  1.4928
   46MOL0     H 6046   6.439   1.279  10.379  0.3764  1.2217 -1.8747
   46MOL0     H 6047   6.607   1.278  10.335 -0.7424  1.4056 -1.6952
   46MOL0     H 6048   6.630   1.501  10.347 -0.1924 -2.0488  0.6583
   46MOL0     H 6049   6.495   1.519  10.467  1.8682  3.3020  0.2023
   46MOL0     H 6050   6.446   1.420  10.189  0.5996  0.8104  0.2026
   46MOL0     H 6051   6.328   1.476  10.302  0.5561  0.6384 -0.2097
   46MOL0     H 6052   6.540   1.651  10.165  1.4956 -3.4874  1.4059
   46MOL0     H 6053   6.427   1.714  10.287  1.9985 -1.5318  2.3101
   46MOL0     H 6054   6.316   1.115  11.108 -0.7304  1.2939  0.0746
   46MOL0     H 6055   6.146   0.969  11.230 -2.9041 -0.2907  0.1600
   46MOL0     H 6056   5.972   0.502  11.149  0.5986  4.8026 -0.1734
   46MOL0     H 6057   5.803   0.327  11.184 -0.2099 -1.0149  0.5263
   46MOL0     H 6058   4.757  -0.237   9.989 -1.2097 -2.8315 -0.2684
   46MOL0     H 6059   4.532  -0.137  10.011  0.4971 -0.4925  0.5312
   46MOL0     H 6060   4.309   0.258  10.167 -1.2006  1.1947 -0.2573
   46MOL0     H 6061   4.089   0.340  10.187  2.4641 -0.1284 -0.5413
   46MOL0     H 6062   3.796   0.343  10.124 -0.5071 -0.9023 -0.7030
   46MOL0     H 6063   3.903   0.392  10.259 -0.4232  0.2135  1.7459
   46MOL0     H 6064   3.712   0.325  10.426 -0.9511  1.6369  1.0261
   46MOL0     H 6065   3.720   0.479  10.339  2.8345  0.3916 -0.3215
   46MOL0     H 6066   3.566   0.252  10.223 -1.3206  1.3941 -2.6243
   46MOL0     H 6067   3.570   0.416  10.161 -1.4248 -0.0232 -0.6622
   46MOL0     H 6068   3.460   0.476  10.401  2.0440  0.6967 -2.2447
   46MOL0     H 6069   3.365   0.400  10.267  2.8562 -0.4989 -4.8890
   46MOL0     H 6070   3.360   0.099  10.568 -1.0127  0.3227 -0.5675
   46MOL0     H 6071   3.937  -0.047  10.322  0.3988  0.7402 -0.0070
   46MOL0     H 6072   4.170  -0.114  10.339 -1.1296  0.5927  0.7029
   47MOL0     O 6073   8.288   6.003   9.488 -0.7923 -0.6568 -0.6803
   47MOL0     C 6074   8.396   5.971   9.449 -0.0338 -1.1101 -0.0029
   47MOL0     O 6075   8.516   6.033   9.473 -0.0718 -0.6597  1.1150
   47MOL0     C 6076   8.505   6.152   9.543 -0.0842  0.0907  0.5818
   47MOL0     C 6077   8.418   6.262   9.508 -0.0502  0.9175  0.0912
   47MOL0     C 6078   8.409   6.381   9.582  0.5112 -0.0162 -0.1646
   47MOL0     C 6079   8.484   6.393   9.695  0.0438  0.3427 -0.3263
   47MOL0     O 6080   8.463   6.514   9.770 -0.2660  0.2511  0.1603
   47MOL0     C 6081   8.353   6.516   9.861  0.4775 -0.3591 -0.5625
   47MOL0     C 6082   8.306   6.662   9.891 -0.2942  0.2262 -0.6415
   47MOL0     C 6083   8.413   6.760   9.961  0.8825  0.3897  0.4861
   47MOL0     C 6084   8.474   6.678  10.072 -0.3006 -0.3077 -0.4335
   47MOL0     C 6085   8.534   6.766  10.178  0.2667  0.1189 -0.0633
   47MOL0     C 6086   8.436   6.844  10.264  0.7821 -0.0763 -0.7232
   47MOL0     C 6087   8.512   6.922  10.364  0.3795 -0.7901 -0.7430
   47MOL0     C 6088   8.419   7.012  10.447 -0.3937 -0.5393  0.0744
   47MOL0     N 6089   8.390   7.143  10.377 -0.7507 -0.2528 -0.0769
   47MOL0     C 6090   8.311   7.158  10.272  0.5933 -0.5512 -0.7170
   47MOL0     C 6091   8.304   7.290  10.248 -0.5698 -0.4010 -0.1830
   47MOL0     C 6092   8.229   7.354  10.136  0.4086 -0.1744  0.4439
   47MOL0     C 6093   8.268   7.500  10.134 -0.2112 -0.9603  0.7653
   47MOL0     C 6094   8.241   7.556   9.998 -0.1935  0.2170  0.9091
   47MOL0     C 6095   8.350   7.547   9.884 -0.2500 -0.2994 -0.3987
   47MOL0     O 6096   8.463   7.625   9.901 -1.0205 -0.9266  1.1027
   47MOL0     C 6097   8.529   7.657   9.783  0.3428  0.3739  0.6881
   47MOL0     C 6098   8.549   7.791   9.734 -0.4743 -0.3256  0.2352
   47MOL0     C 6099   8.640   7.814   9.627 -0.4459  0.3701  0.7314
   47MOL0     C 6100   8.693   7.703   9.564  0.1845  0.5337 -0.5815
   47MOL0     C 6101   8.778   7.729   9.449  0.6611  0.1984  1.0118
   47MOL0     O 6102   8.873   7.829   9.460 -0.0349  0.2650 -0.2810
   47MOL0     C 6103   8.965   7.866   9.359  0.2511 -0.1914  1.0031
   47MOL0     C 6104   8.933   7.846   9.221 -1.0216  0.9149 -1.1865
   47MOL0     C 6105   9.023   7.895   9.118 -0.0662  0.7190  0.6421
   47MOL0     C 6106   9.141   7.971   9.155  0.9659 -0.2926  0.1092
   47MOL0     O 6107   9.218   8.034   9.061  0.0927 -0.3350 -0.5478
   47MOL0     C 6108   9.194   8.010   8.921 -0.4031 -0.4720  0.1427
   47MOL0     C 6109   9.286   8.103   8.836  0.0806  0.8950 -0.4341
   47MOL0     C 6110   9.432   8.095   8.878  0.1082  0.7388 -1.0328
   47MOL0     C 6111   9.514   8.218   8.841 -0.7584  0.9460 -0.3044
   47MOL0     C 6112   9.518   8.320   8.947  0.5326 -0.3061 -0.0144
   47MOL0     C 6113   9.600   8.441   8.909 -0.2492  0.7481 -0.3381
   47MOL0     C 6114   9.661   8.516   9.029 -0.2552 -0.7654  0.4171
   47MOL0     C 6115   9.763   8.625   8.974 -0.5738  1.0076 -0.4401
   47MOL0    Cl 6116   9.817   8.740   9.100  0.2698 -0.0632 -0.1513
   47MOL0     C 6117   9.161   7.984   9.291  0.3969  0.0224 -0.8393
   47MOL0     C 6118   9.079   7.932   9.389 -0.0356 -0.0507  0.6098
   47MOL0     O 6119   8.771   7.651   9.355  0.5297  0.2724 -0.3493
   47MOL0     C 6120   8.663   7.574   9.603  0.7530 -1.0229  0.1002
   47MOL0     C 6121   8.587   7.545   9.717  0.2220 -0.7008  0.1803
   47MOL0     N 6122   8.384   7.351  10.351  0.1489 -0.2585  1.0246
   47MOL0     N 6123   8.421   7.262  10.432 -0.2337 -0.2664 -0.9195
   47MOL0     C 6124   8.578   6.298   9.725 -0.4221  0.0011  0.5687
   47MOL0     C 6125   8.577   6.176   9.653 -0.4162  0.1071 -0.2988
   47MOL0     C 6126   8.410   5.864   9.352 -0.0797  0.2715  0.1823
   47MOL0     C 6127   8.527   5.785   9.350  0.7026  1.0105  0.3019
   47MOL0     C 6128   8.547   5.677   9.261 -0.3778 -0.2185 -0.2671
   47MOL0     C 6129   8.443   5.652   9.172 -0.1508  0.0859  0.7057
   47MOL0     O 6130   8.476   5.548   9.088  0.0798 -0.6448  0.6116
   47MOL0     C 6131   8.385   5.527   8.975  1.2320  0.1299  0.4949
   47MOL0     C 6132   8.443   5.416   8.885  0.0172 -0.6151  0.8789
   47MOL0     C 6133   8.361   5.381   8.760 -0.7461 -0.5513  0.0056
   47MOL0     C 6134   8.235   5.313   8.788 -0.1526  0.7230 -0.7420
   47MOL0     C 6135   8.127   5.413   8.804 -0.1831  0.4413  0.2489
   47MOL0     C 6136   8.028   5.485   8.819 -0.9304 -0.1630  0.0775
   47MOL0     C 6137   8.329   5.737   9.160  0.5650  0.4251 -0.5151
   47MOL0     C 6138   8.314   5.842   9.251  0.6480 -0.5931 -0.5823
   47MOL0     H 6139   8.367   6.266   9.413 -2.5454 -0.4911  1.2759
   47MOL0     H 6140   8.339   6.460   9.558 -2.2688 -2.1124  0.5255
   47MOL0     H 6141   8.364   6.454   9.950 -1.9444 -0.6758 -0.4201
   47MOL0     H 6142   8.277   6.453   9.814  0.4076 -1.0652  0.4622
   47MOL0     H 6143   8.217   6.659   9.956 -2.3966  2.8936 -3.1207
   47MOL0     H 6144   8.266   6.716   9.805 -2.0704  0.4901  0.2906
   47MOL0     H 6145   8.370   6.858   9.984 -2.7551 -0.5464 -1.4802
   47MOL0     H 6146   8.501   6.773   9.897  1.5130  1.5137  1.5455
   47MOL0     H 6147   8.401   6.617  10.126 -0.5616  1.1527  0.9512
   47MOL0     H 6148   8.551   6.609  10.038  1.2564  0.6752  0.9655
   47MOL0     H 6149   8.590   6.845  10.126 -0.5819  1.2230  0.6512
   47MOL0     H 6150   8.613   6.709  10.228  0.8978  0.8398 -0.2115
   47MOL0     H 6151   8.377   6.767  10.314  1.5445 -0.5774 -0.5758
   47MOL0     H 6152   8.371   6.905  10.200 -0.4176 -1.0334 -0.4610
   47MOL0     H 6153   8.571   6.850  10.421  0.1704  0.4712  1.1586
   47MOL0     H 6154   8.570   6.996  10.309 -2.4396  0.3402 -2.4363
   47MOL0     H 6155   8.456   7.015  10.550  0.0042  3.7261 -0.0162
   47MOL0     H 6156   8.323   6.960  10.456 -3.1716  3.6631 -1.9593
   47MOL0     H 6157   8.258   7.085  10.212 -1.9630  0.4110  0.2133
   47MOL0     H 6158   8.122   7.339  10.150  0.0061  2.0569 -0.0286
   47MOL0     H 6159   8.261   7.308  10.042  1.0443  0.5721  0.2817
   47MOL0     H 6160   8.378   7.502  10.141  0.1333 -0.0422 -2.9234
   47MOL0     H 6161   8.217   7.545  10.219 -2.0662 -1.8013  0.1310
   47MOL0     H 6162   8.151   7.511   9.955  2.6630 -3.2584 -2.0339
   47MOL0     H 6163   8.217   7.662  10.014  0.2431  0.1764  1.8561
   47MOL0     H 6164   8.298   7.564   9.790 -0.0347  2.0511 -0.1504
   47MOL0     H 6165   8.381   7.442   9.878  0.8148  0.0319 -0.9178
   47MOL0     H 6166   8.512   7.874   9.793 -0.5053  0.3987 -0.7753
   47MOL0     H 6167   8.672   7.915   9.603  2.9003 -0.9588 -1.1233
   47MOL0     H 6168   8.839   7.799   9.195 -0.5763 -0.6697 -0.1218
   47MOL0     H 6169   8.994   7.876   9.015  0.7832  3.3756 -0.1788
   47MOL0     H 6170   9.090   8.030   8.895 -0.0879  3.3930  1.1678
   47MOL0     H 6171   9.223   7.908   8.894 -3.1750 -0.6417 -2.8329
   47MOL0     H 6172   9.238   8.200   8.845  0.3874  1.2856 -2.4842
   47MOL0     H 6173   9.278   8.084   8.728 -0.6438 -0.0094 -0.2388
   47MOL0     H 6174   9.482   8.010   8.832  3.7275  1.0832  1.7179
   47MOL0     H 6175   9.445   8.077   8.986  0.5767 -2.0793 -1.4876
   47MOL0     H 6176   9.618   8.186   8.830 -1.7429 -2.9236  0.2801
   47MOL0     H 6177   9.479   8.253   8.743  1.4991  0.0300 -1.5200
   47MOL0     H 6178   9.568   8.273   9.032  1.5997 -0.5367 -0.7526
   47MOL0     H 6179   9.416   8.345   8.977  1.5022  3.2696  0.8018
   47MOL0     H 6180   9.537   8.515   8.857 -2.3724 -0.0291  0.9875
   47MOL0     H 6181   9.677   8.407   8.839  0.2325  1.9883 -0.4423
   47MOL0     H 6182   9.593   8.566   9.098  3.2097  3.2462  1.2962
   47MOL0     H 6183   9.716   8.445   9.091  0.9836  2.1352  2.8831
   47MOL0     H 6184   9.720   8.681   8.890  1.4208  1.5994 -1.1212
   47MOL0     H 6185   9.858   8.579   8.947  0.4924  2.8551  0.0413
   47MOL0     H 6186   9.241   8.045   9.334 -0.9044 -0.3518  2.3941
   47MOL0     H 6187   9.096   7.930   9.496  0.2564 -2.3382  0.5626
   47MOL0     H 6188   8.707   7.498   9.539 -0.1941 -0.9310 -0.6770
   47MOL0     H 6189   8.568   7.446   9.757  0.7080 -0.6902  0.4336
   47MOL0     H 6190   8.644   6.324   9.807 -0.5615  3.6331 -0.3005
   47MOL0     H 6191   8.656   6.107   9.679 -0.6013 -0.1995 -0.5490
   47MOL0     H 6192   8.608   5.790   9.422  1.9837 -0.3491 -0.9750
   47MOL0     H 6193   8.630   5.609   9.261 -0.9138 -0.8840  0.3012
   47MOL0     H 6194   8.369   5.616   8.914  1.8493  0.3346  0.6310
   47MOL0     H 6195   8.287   5.494   9.012 -1.5167  3.3854 -3.0121
   47MOL0     H 6196   8.544   5.444   8.856 -0.3660 -2.0425 -2.1513
   47MOL0     H 6197   8.457   5.325   8.945 -0.7798 -1.7784 -0.6147
   47MOL0     H 6198   8.421   5.316   8.697  1.7464  1.2344  0.4170
   47MOL0     H 6199   8.353   5.477   8.709 -0.6263 -0.2937  0.4612
   47MOL0     H 6200   8.213   5.234   8.715  3.6756 -1.5202  0.2200
   47MOL0     H 6201   8.247   5.257   8.882  0.9596  1.3163 -0.5098
   47MOL0     H 6202   7.950   5.555   8.840  0.5837  1.3823  0.7820
   47MOL0     H 6203   8.257   5.723   9.080  1.5519 -2.0019 -1.0754
   47MOL0     H 6204   8.230   5.910   9.244 -0.3564 -1.6171  0.9396
   48MOL0     O 6205  10.080   9.831   6.988  0.3531 -0.2172  0.0410
   48MOL0     C 6206  10.129   9.911   7.072 -0.6039  0.6327  0.2211
   48MOL0     O 6207  10.195  10.021   7.045 -0.4816 -0.8933  1.2840
   48MOL0     C 6208  10.225  10.043   6.909 -0.2999 -0.3567 -0.1332
   48MOL0     C 6209  10.339   9.988   6.852 -0.5188 -0.6300  0.1005
   48MOL0     C 6210  10.385  10.041   6.729  0.4425 -0.0421 -0.2552
   48MOL0     C 6211  10.312  10.129   6.653 -0.4129 -0.5079 -0.1658
   48MOL0     O 6212  10.357  10.153   6.525 -0.3085  0.4706  0.2960
   48MOL0     C 6213  10.316  10.274   6.448  1.0614  0.5329 -0.6929
   48MOL0     C 6214  10.385  10.295   6.316  0.9484 -0.1776 -0.7582
   48MOL0     C 6215  10.529  10.284   6.334  0.2628 -0.0555  1.1765
   48MOL0     C 6216  10.592  10.384   6.433  0.0976  1.8210 -0.1928
   48MOL0     C 6217  10.749  10.381   6.441 -0.0243 -0.3493 -0.1867
   48MOL0     C 6218  10.798  10.244   6.472 -0.6798 -0.6450 -0.2781
   48MOL0     C 6219  10.952  10.245   6.483  0.5526 -0.6619 -0.1784
   48MOL0     C 6220  11.011  10.244   6.625  0.2127  0.2750 -0.2600
   48MOL0     N 6221  10.969  10.125   6.689 -0.5580 -0.3567 -0.8741
   48MOL0     C 6222  10.884  10.117   6.801 -0.6799  0.4270  0.4151
   48MOL0     C 6223  10.881   9.989   6.841  0.7944 -1.1407 -0.1395
   48MOL0     C 6224  10.807   9.936   6.970 -0.9649 -0.8377 -0.7799
   48MOL0     C 6225  10.880   9.968   7.103  0.2258  0.8274  0.0936
   48MOL0     C 6226  10.784   9.928   7.210  0.0096 -0.7844 -0.4319
   48MOL0     C 6227  10.846   9.923   7.354  0.3026  0.2786  0.6603
   48MOL0     O 6228  10.952   9.826   7.349 -0.5796  0.2355  0.3762
   48MOL0     C 6229  10.989   9.757   7.461 -0.3054  0.8576 -0.3627
   48MOL0     C 6230  10.905   9.679   7.541  0.2541  0.1475 -0.0252
   48MOL0     C 6231  10.946   9.591   7.647 -0.2765  0.4464 -0.8274
   48MOL0     C 6232  11.084   9.591   7.668 -0.3780  0.7030 -1.0605
   48MOL0     C 6233  11.139   9.522   7.795 -0.1015 -0.1727  0.0453
   48MOL0     O 6234  11.065   9.536   7.910 -0.3153  1.2278 -0.3557
   48MOL0     C 6235  11.141   9.502   8.019  0.2425  0.1725 -0.5937
   48MOL0     C 6236  11.168   9.603   8.110  0.0654 -0.3477 -0.8325
   48MOL0     C 6237  11.236   9.574   8.227 -0.7917 -0.4942  0.7697
   48MOL0     C 6238  11.281   9.451   8.261 -0.7260  0.5579  0.8196
   48MOL0     O 6239  11.339   9.437   8.382 -0.5981 -0.1208  0.4690
   48MOL0     C 6240  11.366   9.303   8.430 -0.5000 -0.3628 -0.1416
   48MOL0     C 6241  11.402   9.300   8.577 -0.0791 -1.0788 -0.1055
   48MOL0     C 6242  11.529   9.388   8.609  0.3284 -0.1062 -0.5522
   48MOL0     C 6243  11.561   9.396   8.757 -0.2937 -0.0878 -0.1006
   48MOL0     C 6244  11.471   9.494   8.827  0.7586  0.0807 -0.2619
   48MOL0     C 6245  11.500   9.507   8.969 -0.4202 -0.3545  0.1504
   48MOL0     C 6246  11.648   9.569   8.983  0.0127  0.2816 -0.7433
   48MOL0     C 6247  11.662   9.669   9.095  0.1419  0.3377 -0.5180
   48MOL0    Cl 6248  11.697   9.578   9.246 -0.1894  0.1243 -0.1534
   48MOL0     C 6249  11.259   9.353   8.167  0.0963 -0.9364 -0.1996
   48MOL0     C 6250  11.185   9.374   8.048 -0.2584  0.5303  0.8899
   48MOL0     O 6251  11.232   9.446   7.778 -0.0062 -0.5100 -0.1053
   48MOL0     C 6252  11.174   9.659   7.590 -0.7968  0.6044 -0.9227
   48MOL0     C 6253  11.126   9.737   7.485  0.2999 -0.3367  0.4436
   48MOL0     N 6254  10.955   9.920   6.754 -0.2048  0.1072  0.3254
   48MOL0     N 6255  11.007   9.996   6.661  0.5284  1.2407  0.1844
   48MOL0     C 6256  10.190  10.185   6.712  0.1769  0.3636  0.6529
   48MOL0     C 6257  10.159  10.145   6.841 -0.1983 -0.8203  0.5546
   48MOL0     C 6258  10.080   9.880   7.204 -0.2924 -0.0424  0.5033
   48MOL0     C 6259  10.152   9.909   7.323 -0.3296 -0.5416 -0.6631
   48MOL0     C 6260  10.121   9.865   7.450 -0.2891 -0.2925 -0.4150
   48MOL0     C 6261   9.998   9.799   7.476 -0.5261 -0.2720 -0.1894
   48MOL0     O 6262   9.944   9.753   7.594  0.1869 -0.8261 -1.2694
   48MOL0     C 6263   9.969   9.612   7.621  0.5047 -0.0869 -0.2347
   48MOL0     C 6264   9.843   9.536   7.587 -1.0262 -0.7887 -0.4583
   48MOL0     C 6265   9.866   9.384   7.587  0.3167  0.2051 -0.5353
   48MOL0     C 6266   9.748   9.321   7.505 -0.7217  0.0331 -0.2697
   48MOL0     C 6267   9.763   9.175   7.512 -0.2462  0.4837  0.2975
   48MOL0     C 6268   9.785   9.054   7.528  0.1368 -0.1388 -0.1026
   48MOL0     C 6269   9.920   9.787   7.364  0.0602 -0.0911  0.4758
   48MOL0     C 6270   9.955   9.826   7.233  0.9784  0.4155 -1.0211
   48MOL0     H 6271  10.395   9.911   6.905 -0.9754 -1.8478 -1.1479
   48MOL0     H 6272  10.484  10.011   6.695  1.4436 -1.7243  3.5600
   48MOL0     H 6273  10.328  10.362   6.511 -3.0954  0.9096 -0.1834
   48MOL0     H 6274  10.210  10.264   6.426  0.9561 -0.7664  0.3154
   48MOL0     H 6275  10.362  10.390   6.266  2.8688  1.0974  0.6217
   48MOL0     H 6276  10.353  10.220   6.244  2.1562 -0.1665 -1.3279
   48MOL0     H 6277  10.579  10.290   6.237 -0.2431 -2.2244  0.7193
   48MOL0     H 6278  10.548  10.183   6.374  3.2718  0.1434  0.4679
   48MOL0     H 6279  10.565  10.484   6.398  1.6538  1.8798 -1.3273
   48MOL0     H 6280  10.550  10.366   6.532  1.3713  2.6088  0.5133
   48MOL0     H 6281  10.781  10.454   6.515  2.5700  1.0029 -2.4725
   48MOL0     H 6282  10.772  10.424   6.343 -0.2151 -0.2791 -0.2016
   48MOL0     H 6283  10.761  10.176   6.395 -4.0426  0.2353  0.3885
   48MOL0     H 6284  10.757  10.217   6.569 -3.7546  0.1771 -1.2248
   48MOL0     H 6285  10.996  10.159   6.431  0.0001 -1.2566  0.3267
   48MOL0     H 6286  10.990  10.334   6.432 -0.7437 -0.7035 -1.2515
   48MOL0     H 6287  10.991  10.337   6.678  0.1724  0.3602 -0.4237
   48MOL0     H 6288  11.119  10.228   6.619  0.2075 -0.1007  0.6254
   48MOL0     H 6289  10.844  10.205   6.851  0.5407  3.0803 -2.8983
   48MOL0     H 6290  10.815   9.827   6.975  0.7849 -0.6934  2.1633
   48MOL0     H 6291  10.707   9.980   6.978  0.2884  1.8547  2.9673
   48MOL0     H 6292  10.919  10.070   7.112  2.9145 -0.0612 -0.6857
   48MOL0     H 6293  10.969   9.905   7.098  0.4306  1.0183  1.0283
   48MOL0     H 6294  10.692   9.987   7.207 -1.1221 -2.4873 -0.8970
   48MOL0     H 6295  10.751   9.824   7.200 -1.7294 -0.5789  2.0954
   48MOL0     H 6296  10.768   9.900   7.428 -1.0163 -2.4189 -1.3893
   48MOL0     H 6297  10.871  10.026   7.381 -0.8228  0.9200 -0.6149
   48MOL0     H 6298  10.800   9.701   7.524 -0.0466 -1.0076  0.3097
   48MOL0     H 6299  10.869   9.541   7.705 -0.1995  1.5781  0.3035
   48MOL0     H 6300  11.144   9.707   8.094 -1.4012 -0.1761  1.9223
   48MOL0     H 6301  11.257   9.660   8.290 -1.0194  0.7167 -0.7483
   48MOL0     H 6302  11.443   9.262   8.363  1.0843 -0.4886  1.6823
   48MOL0     H 6303  11.273   9.246   8.422 -1.4585  1.0983  0.3189
   48MOL0     H 6304  11.423   9.201   8.619  0.0310 -0.2430  1.9607
   48MOL0     H 6305  11.322   9.353   8.631 -0.2470 -1.4291 -0.0094
   48MOL0     H 6306  11.527   9.481   8.552  0.7102 -1.1907 -2.4260
   48MOL0     H 6307  11.620   9.346   8.567  1.5965  1.0656  0.9208
   48MOL0     H 6308  11.549   9.296   8.800  2.0296 -0.3206  0.1279
   48MOL0     H 6309  11.666   9.419   8.777 -0.9060  2.5257  0.5597
   48MOL0     H 6310  11.375   9.442   8.824  0.9010 -0.2558  0.6067
   48MOL0     H 6311  11.463   9.588   8.772 -1.6406  0.0883  0.0079
   48MOL0     H 6312  11.502   9.407   9.013  1.6118 -1.2716 -1.7900
   48MOL0     H 6313  11.415   9.556   9.017 -2.1533 -1.4644 -1.6184
   48MOL0     H 6314  11.727   9.493   8.987 -0.1266  0.0370 -2.1186
   48MOL0     H 6315  11.680   9.625   8.894  0.7516  4.3873  1.8111
   48MOL0     H 6316  11.570   9.727   9.107 -1.1261 -1.8079  0.7069
   48MOL0     H 6317  11.750   9.731   9.074  0.4216 -0.1486 -0.8116
   48MOL0     H 6318  11.301   9.256   8.189  3.0514  0.2021 -0.4211
   48MOL0     H 6319  11.154   9.293   7.983 -0.7922 -1.1684  3.1148
   48MOL0     H 6320  11.281   9.652   7.601 -0.9906  0.2060  1.2029
   48MOL0     H 6321  11.186   9.796   7.416  1.5921  2.1188  3.4367
   48MOL0     H 6322  10.126  10.250   6.653 -1.8134 -1.0237  1.1639
   48MOL0     H 6323  10.073  10.200   6.878 -1.0884 -0.3692 -1.9848
   48MOL0     H 6324  10.237   9.975   7.312 -2.1623  1.5628 -4.2089
   48MOL0     H 6325  10.174   9.871   7.544 -0.3314  3.0319 -0.5114
   48MOL0     H 6326   9.996   9.593   7.725  1.9981  0.7099 -0.4450
   48MOL0     H 6327  10.054   9.584   7.558  1.0378  0.8588  0.0571
   48MOL0     H 6328   9.766   9.562   7.661  0.9409  0.1462  1.3696
   48MOL0     H 6329   9.823   9.572   7.486 -1.0175 -0.6954 -0.4261
   48MOL0     H 6330   9.859   9.335   7.685  2.4396 -2.7758 -1.7231
   48MOL0     H 6331   9.961   9.372   7.535  1.7879 -1.5895  2.3343
   48MOL0     H 6332   9.647   9.341   7.543 -0.9167 -1.3665 -0.0034
   48MOL0     H 6333   9.738   9.356   7.402  0.2426 -0.8922 -0.6890
   48MOL0     H 6334   9.819   8.954   7.545  1.0323 -0.2273 -2.1650
   48MOL0     H 6335   9.816   9.756   7.375 -0.1126  0.3100  0.0276
   48MOL0     H 6336   9.867   9.819   7.168 -0.1324  0.5960  0.4175
   49MOL0     O 6337  10.494   5.752   6.711 -0.4101  0.5827  0.7977
   49MOL0     C 6338  10.406   5.811   6.777  0.0048  1.2183  0.4321
   49MOL0     O 6339  10.308   5.890   6.723 -0.5598  0.0655 -0.1396
   49MOL0     C 6340  10.332   5.945   6.599 -0.2228 -0.1237 -0.0298
   49MOL0     C 6341  10.218   5.975   6.529 -0.7440  0.3130 -0.1765
   49MOL0     C 6342  10.215   6.035   6.407  0.2709  0.0246 -0.1290
   49MOL0     C 6343  10.339   6.050   6.347  0.1678  0.3789  0.0304
   49MOL0     O 6344  10.343   6.106   6.223  0.6687  0.2143  0.2664
   49MOL0     C 6345  10.350   6.030   6.105 -0.3035  0.1633 -0.9328
   49MOL0     C 6346  10.288   6.117   6.005 -0.2765  0.4667  0.2269
   49MOL0     C 6347  10.141   6.157   6.020  0.3380 -0.5695 -0.1978
   49MOL0     C 6348  10.081   6.203   5.895 -0.0200 -0.1040  0.2011
   49MOL0     C 6349   9.958   6.295   5.912 -0.5462 -0.2730 -0.6403
   49MOL0     C 6350   9.901   6.330   5.775  0.2088 -0.1375 -0.3027
   49MOL0     C 6351   9.786   6.429   5.764 -0.1185  0.5699  0.3902
   49MOL0     C 6352   9.660   6.378   5.835 -0.2895 -0.5014  0.5662
   49MOL0     N 6353   9.552   6.465   5.818  0.6307 -0.0115  0.0224
   49MOL0     C 6354   9.509   6.531   5.705  0.1193  1.3000 -0.5971
   49MOL0     C 6355   9.389   6.579   5.746 -0.2337 -0.3319 -0.6355
   49MOL0     C 6356   9.277   6.631   5.654  0.1891  0.4019 -0.1824
   49MOL0     C 6357   9.211   6.756   5.727 -0.0674  0.2884 -0.0029
   49MOL0     C 6358   9.089   6.812   5.652 -1.5298  0.3753  0.0294
   49MOL0     C 6359   9.045   6.939   5.719 -0.5543  1.0066  0.9889
   49MOL0     O 6360   9.134   7.053   5.710 -0.2755  0.0621 -0.1160
   49MOL0     C 6361   9.143   7.120   5.831  0.3871  0.2156 -0.1341
   49MOL0     C 6362   9.224   7.072   5.942 -1.4381  0.2129 -0.1732
   49MOL0     C 6363   9.245   7.157   6.055 -0.1833  0.0058  0.5248
   49MOL0     C 6364   9.192   7.288   6.050  0.7788  0.6554  0.7403
   49MOL0     C 6365   9.208   7.364   6.174  0.5284 -0.0947  0.2092
   49MOL0     O 6366   9.321   7.343   6.245  0.6745  0.9312 -0.4843
   49MOL0     C 6367   9.347   7.420   6.354 -0.3573  0.6149  0.8066
   49MOL0     C 6368   9.355   7.353   6.474  0.3709 -0.0261  0.1462
   49MOL0     C 6369   9.420   7.427   6.581  0.2298  0.6406 -0.3405
   49MOL0     C 6370   9.488   7.548   6.556  0.9874 -0.7221 -0.5725
   49MOL0     O 6371   9.569   7.599   6.654  0.2351  0.0569  0.0826
   49MOL0     C 6372   9.704   7.586   6.622 -0.2884 -0.2111 -0.7632
   49MOL0     C 6373   9.780   7.486   6.709  0.3162 -0.4916 -0.0986
   49MOL0     C 6374   9.775   7.508   6.857  0.3921  0.8466  0.9773
   49MOL0     C 6375   9.846   7.635   6.903 -0.3238 -0.0432  0.7113
   49MOL0     C 6376   9.854   7.650   7.057  0.7212  0.2812  0.4184
   49MOL0     C 6377   9.938   7.768   7.089 -0.1076 -0.0871  0.7395
   49MOL0     C 6378   9.952   7.768   7.236  0.5051 -0.7605 -0.1218
   49MOL0     C 6379  10.037   7.888   7.282  0.5471  0.7900 -0.2343
   49MOL0    Cl 6380  10.034   7.884   7.473 -0.2777 -0.1448 -0.0873
   49MOL0     C 6381   9.471   7.618   6.438  0.5250 -0.1324  0.4897
   49MOL0     C 6382   9.402   7.553   6.339  0.6859 -0.7137 -0.4009
   49MOL0     O 6383   9.120   7.445   6.211 -0.6180 -0.2442 -0.2495
   49MOL0     C 6384   9.124   7.337   5.930  0.6801  0.0699 -0.2629
   49MOL0     C 6385   9.110   7.252   5.826 -0.0516  0.5129 -0.4529
   49MOL0     N 6386   9.367   6.545   5.872 -0.7952 -0.6408  0.4723
   49MOL0     N 6387   9.468   6.485   5.921 -0.5311 -0.5353 -0.7284
   49MOL0     C 6388  10.453   6.020   6.407 -1.1453 -0.4576  0.5272
   49MOL0     C 6389  10.456   5.965   6.527 -0.4867 -0.3922 -1.0447
   49MOL0     C 6390  10.392   5.761   6.919  0.3458 -0.5654 -1.2038
   49MOL0     C 6391  10.486   5.682   6.975 -0.1063  0.4218  0.0130
   49MOL0     C 6392  10.479   5.636   7.109 -0.4416 -0.0209  0.0134
   49MOL0     C 6393  10.379   5.677   7.199 -0.1772  0.0144  0.8099
   49MOL0     O 6394  10.392   5.633   7.332  0.5648 -0.0183 -0.2292
   49MOL0     C 6395  10.323   5.711   7.421  0.7180 -0.0926 -0.2231
   49MOL0     C 6396  10.331   5.634   7.549  0.0835 -0.3317  0.2811
   49MOL0     C 6397  10.293   5.719   7.666 -0.7320 -0.7725  0.5067
   49MOL0     C 6398  10.318   5.656   7.807 -0.1230 -0.3002  0.1121
   49MOL0     C 6399  10.451   5.715   7.852  0.5061 -0.1903  0.0026
   49MOL0     C 6400  10.570   5.760   7.866 -0.0007 -0.0380  0.8939
   49MOL0     C 6401  10.273   5.753   7.136  0.2867 -0.3129  0.4022
   49MOL0     C 6402  10.272   5.788   7.003  0.4840 -0.1576 -0.5232
   49MOL0     H 6403  10.125   5.968   6.584 -1.1999  0.9041 -0.8581
   49MOL0     H 6404  10.121   6.060   6.358 -0.8155 -3.2083  0.1028
   49MOL0     H 6405  10.302   5.932   6.119  0.4085 -0.3488 -1.9427
   49MOL0     H 6406  10.452   6.016   6.069  0.2402  2.4276 -0.4089
   49MOL0     H 6407  10.301   6.075   5.905  2.9967  0.5495  0.4899
   49MOL0     H 6408  10.336   6.215   5.998 -2.3627  1.4034 -2.2124
   49MOL0     H 6409  10.139   6.231   6.101  0.2748 -1.1796  0.3646
   49MOL0     H 6410  10.082   6.074   6.061 -1.0036  0.7139  0.5655
   49MOL0     H 6411  10.158   6.252   5.835  0.3083 -1.2868 -0.3810
   49MOL0     H 6412  10.058   6.110   5.842  4.1373 -0.7437 -0.8213
   49MOL0     H 6413   9.993   6.382   5.969 -0.0094  0.4755 -2.0588
   49MOL0     H 6414   9.889   6.254   5.987  1.3307  1.1460  2.0559
   49MOL0     H 6415   9.865   6.230   5.748  1.9167 -1.8480  3.1425
   49MOL0     H 6416   9.978   6.370   5.709 -0.3102  1.7760  0.1977
   49MOL0     H 6417   9.815   6.523   5.812 -1.5138 -0.4314  3.4462
   49MOL0     H 6418   9.776   6.448   5.657  2.2462 -0.6689 -0.1124
   49MOL0     H 6419   9.689   6.378   5.941  2.4409  1.2526 -0.0619
   49MOL0     H 6420   9.631   6.280   5.798  0.0161 -1.0303  1.6759
   49MOL0     H 6421   9.557   6.540   5.608 -0.6161 -1.7652 -1.3599
   49MOL0     H 6422   9.201   6.552   5.657  1.1943 -0.5669  1.6379
   49MOL0     H 6423   9.310   6.653   5.553  1.1620 -0.2898 -0.0341
   49MOL0     H 6424   9.279   6.842   5.722  0.2671  0.0224 -4.2152
   49MOL0     H 6425   9.186   6.723   5.828 -1.9638 -3.9488 -1.6619
   49MOL0     H 6426   9.115   6.832   5.548 -1.8618  3.3065  0.4178
   49MOL0     H 6427   9.006   6.741   5.648 -0.9248 -0.3657  0.1853
   49MOL0     H 6428   9.016   6.910   5.820  3.4680 -4.3803  1.0327
   49MOL0     H 6429   8.954   6.971   5.666 -0.8098  1.6175  1.7670
   49MOL0     H 6430   9.258   6.970   5.956 -0.6441  0.7983  3.1383
   49MOL0     H 6431   9.307   7.124   6.137  0.3374 -2.1418 -0.6539
   49MOL0     H 6432   9.319   7.250   6.482  1.1464 -0.2490  0.9003
   49MOL0     H 6433   9.425   7.370   6.673 -1.2696 -1.0348 -1.2344
   49MOL0     H 6434   9.763   7.678   6.630  1.7981 -1.5254 -0.1313
   49MOL0     H 6435   9.713   7.555   6.518 -0.0917  0.8891 -1.0854
   49MOL0     H 6436   9.885   7.481   6.680  0.3811  2.4442 -0.7359
   49MOL0     H 6437   9.723   7.394   6.695 -2.2282  0.3803  3.2236
   49MOL0     H 6438   9.821   7.427   6.913 -2.4561  0.0772  2.4129
   49MOL0     H 6439   9.671   7.512   6.892 -0.0574 -0.8192 -0.0791
   49MOL0     H 6440   9.947   7.642   6.862 -0.2350  2.7197  1.2201
   49MOL0     H 6441   9.793   7.716   6.854 -0.0568  0.1284  0.7026
   49MOL0     H 6442   9.900   7.558   7.093 -1.1892 -1.3628 -1.1609
   49MOL0     H 6443   9.755   7.667   7.099 -1.0761 -3.5545 -1.8437
   49MOL0     H 6444   9.884   7.855   7.049 -0.7733 -1.2544 -1.0287
   49MOL0     H 6445  10.032   7.753   7.035 -0.8958 -0.1118 -0.6810
   49MOL0     H 6446   9.855   7.782   7.284  0.9192  3.3235 -0.1611
   49MOL0     H 6447   9.991   7.674   7.276  1.6541  0.1576  0.9937
   49MOL0     H 6448  10.001   7.982   7.238 -1.3674  0.0820 -0.2790
   49MOL0     H 6449  10.143   7.882   7.256  0.7073 -0.4314  0.6244
   49MOL0     H 6450   9.516   7.715   6.416  0.5943 -0.5933 -1.6197
   49MOL0     H 6451   9.390   7.586   6.237  1.3688 -2.1078 -0.9561
   49MOL0     H 6452   9.084   7.437   5.932 -2.6100 -1.0987 -1.5789
   49MOL0     H 6453   9.065   7.291   5.736  4.8995  0.9871 -3.0663
   49MOL0     H 6454  10.555   6.047   6.381 -0.2827  1.6014  5.1268
   49MOL0     H 6455  10.548   5.945   6.582 -0.9952  2.4233  1.0110
   49MOL0     H 6456  10.577   5.653   6.923  0.8094  1.7723  0.7952
   49MOL0     H 6457  10.557   5.575   7.154 -2.2304 -3.9317 -1.8084
   49MOL0     H 6458  10.221   5.737   7.391  0.7951 -3.0854 -3.5999
   49MOL0     H 6459  10.374   5.806   7.443  1.8374 -0.9193  0.8677
   49MOL0     H 6460  10.252   5.558   7.547  0.3660 -0.6409  0.7382
   49MOL0     H 6461  10.430   5.587   7.554 -0.3348 -1.0983  1.8094
   49MOL0     H 6462  10.184   5.725   7.660 -1.1528 -3.1184  3.4726
   49MOL0     H 6463  10.350   5.810   7.648  1.6043 -2.1559  0.4587
   49MOL0     H 6464  10.238   5.692   7.871 -0.6711 -3.0041  1.0984
   49MOL0     H 6465  10.311   5.547   7.810  0.9392 -0.4083 -0.8099
   49MOL0     H 6466  10.671   5.792   7.880  0.1749  0.3350 -1.0023
   49MOL0     H 6467  10.187   5.792   7.189 -0.3835 -0.4987 -0.5172
   49MOL0     H 6468  10.186   5.840   6.961  0.4865  2.2130  2.1129
   50MOL0     O 6469   7.076   9.451  11.089  0.4732 -0.0334  0.0450
   50MOL0     C 6470   7.008   9.449  11.193 -0.0725 -0.1782  0.8285
   50MOL0     O 6471   7.051   9.491  11.314 -0.5434 -1.4373  0.0237
   50MOL0     C 6472   7.189   9.504  11.330 -0.0276  0.0044 -0.0984
   50MOL0     C 6473   7.275   9.396  11.302  0.3827  0.6453 -0.3474
   50MOL0     C 6474   7.413   9.419  11.325 -0.4611 -1.0827 -0.3000
   50MOL0     C 6475   7.469   9.545  11.367  0.2868 -0.1844 -0.8773
   50MOL0     O 6476   7.598   9.574  11.401 -0.1332 -0.4234  0.0642
   50MOL0     C 6477   7.701   9.474  11.391 -0.6187 -0.3468  1.1183
   50MOL0     C 6478   7.841   9.529  11.404  0.1999 -0.2974 -1.0172
   50MOL0     C 6479   7.938   9.427  11.349  0.4874  0.5035 -0.4472
   50MOL0     C 6480   7.964   9.323  11.456 -0.4630  0.4348  0.9063
   50MOL0     C 6481   8.068   9.369  11.551 -0.5266  0.3447 -0.2019
   50MOL0     C 6482   8.088   9.263  11.665  0.9501 -0.2986  0.1472
   50MOL0     C 6483   8.164   9.325  11.775 -0.8888 -0.2085 -0.5187
   50MOL0     C 6484   8.267   9.242  11.854  0.2552  1.0871 -1.0705
   50MOL0     N 6485   8.398   9.212  11.788  0.5976  0.2381 -0.0975
   50MOL0     C 6486   8.482   9.305  11.729  0.2220  0.2248  0.1058
   50MOL0     C 6487   8.584   9.231  11.688 -1.2245 -0.0362 -0.3623
   50MOL0     C 6488   8.716   9.278  11.632 -0.0587 -0.3789 -0.9977
   50MOL0     C 6489   8.755   9.242  11.487 -0.4181 -0.3831 -0.4677
   50MOL0     C 6490   8.692   9.344  11.387 -1.3613  0.3824  0.1371
   50MOL0     C 6491   8.541   9.340  11.379 -0.3614 -0.3087  0.5333
   50MOL0     O 6492   8.503   9.343  11.245 -0.2182 -0.5914 -0.8807
   50MOL0     C 6493   8.475   9.471  11.202  0.6195  0.9200 -0.0899
   50MOL0     C 6494   8.577   9.542  11.149  0.4616 -0.6488  0.3608
   50MOL0     C 6495   8.559   9.671  11.123  0.5324  0.1931  0.0721
   50MOL0     C 6496   8.431   9.740  11.157 -0.1676  0.5910  0.7466
   50MOL0     C 6497   8.415   9.895  11.151 -0.9078  0.2656 -0.2723
   50MOL0     O 6498   8.314   9.947  11.227  0.5844  0.0012 -0.7144
   50MOL0     C 6499   8.292  10.076  11.212 -0.2739 -0.1491 -0.9740
   50MOL0     C 6500   8.319  10.175  11.310 -0.0985  0.7582  0.2197
   50MOL0     C 6501   8.272  10.313  11.298  0.0888  0.3092  0.3246
   50MOL0     C 6502   8.210  10.358  11.177 -0.5766  0.8799  0.0583
   50MOL0     O 6503   8.172  10.484  11.172 -0.9239  0.3702  0.0700
   50MOL0     C 6504   8.090  10.533  11.065  0.5508  0.3760 -0.1198
   50MOL0     C 6505   8.038  10.668  11.084 -0.6924 -0.9886 -0.9600
   50MOL0     C 6506   8.147  10.789  11.074  0.0026  0.4305  0.1013
   50MOL0     C 6507   8.094  10.931  11.059  0.3832 -0.4740 -1.4514
   50MOL0     C 6508   8.169  11.046  11.142  0.1457  0.0046 -0.0960
   50MOL0     C 6509   8.131  11.175  11.075 -0.5303  0.1372  0.2796
   50MOL0     C 6510   8.214  11.207  10.956 -0.2973  0.2860  0.9775
   50MOL0     C 6511   8.139  11.275  10.847  0.7885  0.1831 -0.3884
   50MOL0    Cl 6512   8.101  11.437  10.890  0.1949  0.1875  0.1204
   50MOL0     C 6513   8.205  10.258  11.072 -0.6408 -0.1253 -0.5153
   50MOL0     C 6514   8.240  10.125  11.091 -0.9704 -0.1619  0.6996
   50MOL0     O 6515   8.504   9.962  11.100 -0.0342 -0.0550 -0.0306
   50MOL0     C 6516   8.322   9.658  11.187  0.1231 -0.1018  0.2854
   50MOL0     C 6517   8.351   9.530  11.220  0.5308 -0.0083  0.6008
   50MOL0     N 6518   8.564   9.095  11.720 -0.0885 -0.8993 -0.1221
   50MOL0     N 6519   8.448   9.081  11.773  0.2714 -0.3295  0.0711
   50MOL0     C 6520   7.373   9.649  11.380 -0.8365  0.0596  0.1393
   50MOL0     C 6521   7.239   9.630  11.358 -0.3952  0.0944 -0.0615
   50MOL0     C 6522   6.869   9.419  11.165  0.3306  0.1851  0.7781
   50MOL0     C 6523   6.832   9.402  11.024  0.3887  0.8287 -0.9731
   50MOL0     C 6524   6.692   9.407  11.001  0.2212 -0.5114 -0.3280
   50MOL0     C 6525   6.598   9.409  11.098  0.4728  0.4575 -0.0557
   50MOL0     O 6526   6.466   9.426  11.082 -0.1276  0.3725 -0.3309
   50MOL0     C 6527   6.395   9.427  10.957  0.0081 -0.4346  0.2288
   50MOL0     C 6528   6.256   9.474  10.968  0.7481  0.0601  0.3926
   50MOL0     C 6529   6.219   9.495  10.822  0.9891  1.2218 -0.3557
   50MOL0     C 6530   6.075   9.556  10.833  0.2903  0.6154  0.2176
   50MOL0     C 6531   6.029   9.591  10.692  0.9666 -0.0961  0.6154
   50MOL0     C 6532   6.014   9.602  10.573  0.8825  0.0166 -0.2934
   50MOL0     C 6533   6.636   9.411  11.235  0.2426  0.2850  0.7997
   50MOL0     C 6534   6.773   9.420  11.264  0.4582 -0.3106 -0.0040
   50MOL0     H 6535   7.251   9.295  11.268  1.5585  1.1144 -2.8406
   50MOL0     H 6536   7.474   9.330  11.309 -1.3187 -1.8717  0.6726
   50MOL0     H 6537   7.685   9.436  11.289 -0.3165  2.8436 -0.2608
   50MOL0     H 6538   7.680   9.388  11.455 -2.2671 -2.5500 -2.0790
   50MOL0     H 6539   7.860   9.550  11.509 -0.5377  0.7766 -1.0781
   50MOL0     H 6540   7.844   9.624  11.348 -3.2700  2.8559  3.4639
   50MOL0     H 6541   8.030   9.476  11.314  2.0690 -1.5411  0.6047
   50MOL0     H 6542   7.900   9.391  11.254  0.2148  1.2481 -0.6283
   50MOL0     H 6543   7.873   9.302  11.514 -1.9697  1.9212 -0.8060
   50MOL0     H 6544   8.002   9.233  11.407  0.5951  1.4508 -0.2247
   50MOL0     H 6545   8.055   9.472  11.586  0.6871  0.3816  0.1872
   50MOL0     H 6546   8.164   9.377  11.500 -0.9763 -1.9032 -1.5070
   50MOL0     H 6547   8.145   9.176  11.630  0.6104 -1.3953  2.1730
   50MOL0     H 6548   7.993   9.226  11.703  0.4716  1.3042  0.5923
   50MOL0     H 6549   8.216   9.413  11.736 -3.6351 -0.2930 -5.0128
   50MOL0     H 6550   8.094   9.364  11.850 -1.3065 -1.8292 -0.0275
   50MOL0     H 6551   8.221   9.148  11.885  1.5331  1.3307  1.8834
   50MOL0     H 6552   8.289   9.289  11.950  2.2339  0.8986 -1.3824
   50MOL0     H 6553   8.459   9.408  11.705  0.3837  0.3246  0.3731
   50MOL0     H 6554   8.781   9.211  11.689  2.6638  0.2777 -3.1199
   50MOL0     H 6555   8.733   9.381  11.663 -2.6031  0.1881 -1.2651
   50MOL0     H 6556   8.738   9.136  11.466  0.9235 -1.3173  2.6014
   50MOL0     H 6557   8.864   9.243  11.482 -0.2291 -0.2155  2.1239
   50MOL0     H 6558   8.723   9.445  11.415  0.8502  0.1171 -1.1308
   50MOL0     H 6559   8.741   9.325  11.290 -0.9658  0.0754  0.3920
   50MOL0     H 6560   8.485   9.407  11.444 -0.8704 -1.4073  1.2641
   50MOL0     H 6561   8.499   9.243  11.409  1.2831 -1.0659  0.5086
   50MOL0     H 6562   8.674   9.495  11.141  1.4141  1.4996 -2.4414
   50MOL0     H 6563   8.641   9.739  11.102  0.9467  0.9173  3.4334
   50MOL0     H 6564   8.364  10.155  11.406 -1.3872 -2.3386  0.2806
   50MOL0     H 6565   8.277  10.377  11.385 -3.6171 -0.6215  1.4156
   50MOL0     H 6566   8.002  10.468  11.058  1.4299 -0.8927  0.0822
   50MOL0     H 6567   8.149  10.538  10.973 -0.6757  1.5764 -0.8743
   50MOL0     H 6568   7.981  10.676  11.178 -0.8112 -2.1596 -0.9158
   50MOL0     H 6569   7.961  10.682  11.008  0.9024 -5.0046 -3.6602
   50MOL0     H 6570   8.205  10.778  10.982  1.1682 -0.0684  0.8574
   50MOL0     H 6571   8.213  10.776  11.161  1.3882  0.3994 -0.9186
   50MOL0     H 6572   8.093  10.951  10.951  2.4264 -2.6803 -1.9692
   50MOL0     H 6573   7.989  10.937  11.090  0.9332  0.4072  0.3777
   50MOL0     H 6574   8.278  11.034  11.138  0.4434  1.9662  0.6321
   50MOL0     H 6575   8.139  11.038  11.247  0.3917  0.0316 -0.0221
   50MOL0     H 6576   8.124  11.259  11.145 -0.1840 -2.1217  3.2263
   50MOL0     H 6577   8.030  11.170  11.034 -0.2200  1.2030 -0.6708
   50MOL0     H 6578   8.304  11.257  10.992  2.7676 -2.7744 -1.7132
   50MOL0     H 6579   8.258  11.118  10.910  1.4354  2.0448 -0.9636
   50MOL0     H 6580   8.049  11.217  10.822  0.0401  0.5462  1.3596
   50MOL0     H 6581   8.204  11.287  10.760  2.3876  3.5455  1.1166
   50MOL0     H 6582   8.173  10.283  10.971 -0.5068  0.8625 -0.3285
   50MOL0     H 6583   8.211  10.060  11.010  1.4784  2.0944 -2.2120
   50MOL0     H 6584   8.224   9.699  11.207 -1.8987 -4.1539 -0.4650
   50MOL0     H 6585   8.271   9.482  11.275  1.1765  2.0350  3.5726
   50MOL0     H 6586   7.417   9.748  11.392 -0.1467  0.0175 -1.6188
   50MOL0     H 6587   7.177   9.719  11.348  1.0729  1.3401  1.3458
   50MOL0     H 6588   6.897   9.420  10.939  2.3739  1.6605  0.6410
   50MOL0     H 6589   6.658   9.398  10.899 -1.4702  1.8946 -0.0416
   50MOL0     H 6590   6.403   9.334  10.901  2.6951  1.6592 -3.2251
   50MOL0     H 6591   6.444   9.497  10.889 -2.5855  0.2921 -1.0066
   50MOL0     H 6592   6.183   9.412  11.020 -0.9043  2.4707  1.1198
   50MOL0     H 6593   6.252   9.573  11.015  5.0750 -0.1517  1.6411
   50MOL0     H 6594   6.218   9.402  10.764  1.0967 -0.6139  2.4142
   50MOL0     H 6595   6.282   9.571  10.775  3.2037 -0.0873  0.3556
   50MOL0     H 6596   6.005   9.484  10.874 -1.8961  2.7402  0.4307
   50MOL0     H 6597   6.077   9.641  10.902  2.5994 -0.7680  1.9973
   50MOL0     H 6598   5.991   9.606  10.469 -1.9572  2.3239  0.3047
   50MOL0     H 6599   6.564   9.388  11.314 -2.0357  0.4671 -1.1011
   50MOL0     H 6600   6.798   9.412  11.369  2.0988 -0.5953 -0.3978
   51MOL0     O 6601  10.139   1.699  10.167 -0.3282 -0.1452  0.2845
   51MOL0     C 6602  10.073   1.658  10.260  0.2625  1.0639 -0.8069
   51MOL0     O 6603  10.117   1.642  10.384  0.8940  0.2791 -0.4631
   51MOL0     C 6604  10.222   1.722  10.425  0.1305  0.0462 -0.6032
   51MOL0     C 6605  10.313   1.661  10.528  1.3274 -0.5856  0.2163
   51MOL0     C 6606  10.422   1.740  10.591  0.5867  0.3709 -0.0910
   51MOL0     C 6607  10.436   1.876  10.549 -0.3195  0.9627  0.2418
   51MOL0     O 6608  10.538   1.947  10.617 -0.3055  0.7051 -0.3357
   51MOL0     C 6609  10.567   2.090  10.606 -0.1808 -0.2223  0.0547
   51MOL0     C 6610  10.712   2.112  10.628 -0.4944 -0.2055  0.4332
   51MOL0     C 6611  10.751   2.259  10.644 -0.4759 -0.5667  0.1564
   51MOL0     C 6612  10.686   2.339  10.752 -0.0773  0.2230 -1.1996
   51MOL0     C 6613  10.762   2.482  10.748 -0.2074  0.4599  0.6073
   51MOL0     C 6614  10.718   2.606  10.843 -0.1655 -0.5332  0.9446
   51MOL0     C 6615  10.682   2.557  10.988  0.7089 -0.3074 -0.2861
   51MOL0     C 6616  10.797   2.511  11.075 -0.3313 -0.4634  0.5335
   51MOL0     N 6617  10.747   2.451  11.200 -0.8490  0.7062 -0.0173
   51MOL0     C 6618  10.678   2.336  11.220 -0.1752 -0.3586 -0.0178
   51MOL0     C 6619  10.622   2.341  11.343  0.0698 -1.0214  0.6033
   51MOL0     C 6620  10.531   2.234  11.403  0.2664 -0.4442 -0.0813
   51MOL0     C 6621  10.558   2.206  11.554 -0.1929  0.0316 -0.5247
   51MOL0     C 6622  10.697   2.142  11.590 -0.8153  0.1543  0.5360
   51MOL0     C 6623  10.739   2.015  11.525 -0.0354  0.5689  0.3795
   51MOL0     O 6624  10.872   1.972  11.555  0.0886 -0.2350 -0.9113
   51MOL0     C 6625  10.899   1.917  11.674 -1.0516 -0.2944 -0.6137
   51MOL0     C 6626  10.803   1.874  11.767 -0.4077  0.2638  0.2572
   51MOL0     C 6627  10.850   1.834  11.896 -0.5661 -1.0902 -0.1182
   51MOL0     C 6628  10.985   1.819  11.925  0.4812  0.6568 -0.2003
   51MOL0     C 6629  11.050   1.745  12.042  0.8268 -0.8273 -0.1296
   51MOL0     O 6630  10.981   1.642  12.098  0.3326  0.5541 -0.1196
   51MOL0     C 6631  11.020   1.566  12.204  0.7747  0.0761  0.2719
   51MOL0     C 6632  11.150   1.549  12.253  0.5221  0.5277 -0.0198
   51MOL0     C 6633  11.152   1.488  12.374 -0.1985  0.8034 -0.1069
   51MOL0     C 6634  11.044   1.421  12.439 -0.1362  0.0134  0.8013
   51MOL0     O 6635  11.061   1.344  12.555  1.1267  0.2874 -0.5818
   51MOL0     C 6636  10.960   1.279  12.631  0.2009 -0.9846  1.0574
   51MOL0     C 6637  11.013   1.152  12.700  0.2617  0.6531  0.2855
   51MOL0     C 6638  11.096   1.188  12.829  0.1570 -0.2719 -0.2057
   51MOL0     C 6639  11.113   1.069  12.927  0.0420  1.2553  0.2071
   51MOL0     C 6640  11.200   1.123  13.047 -1.1434 -0.5826 -0.4910
   51MOL0     C 6641  11.237   1.010  13.142  0.2979  0.5566  0.6739
   51MOL0     C 6642  11.317   1.051  13.269 -0.3419 -0.2844  0.8478
   51MOL0     C 6643  11.245   1.155  13.362  0.2180 -0.1835  0.6705
   51MOL0    Cl 6644  11.339   1.197  13.511  0.0551 -0.3250  0.0429
   51MOL0     C 6645  10.919   1.447  12.385  0.1193  0.8607 -0.7157
   51MOL0     C 6646  10.905   1.510  12.266  0.3676  0.2073  0.2866
   51MOL0     O 6647  11.156   1.791  12.082  0.0950  0.4965 -0.3900
   51MOL0     C 6648  11.076   1.861  11.825 -0.2966 -0.1486 -0.2422
   51MOL0     C 6649  11.034   1.907  11.699  0.0976 -1.2501 -0.3015
   51MOL0     N 6650  10.659   2.472  11.391 -0.5644  0.7443  0.2585
   51MOL0     N 6651  10.725   2.532  11.303  0.2404  0.3553  0.2237
   51MOL0     C 6652  10.365   1.940  10.447  0.1495  0.6266  0.1374
   51MOL0     C 6653  10.258   1.855  10.385  0.7249  0.5000 -0.8028
   51MOL0     C 6654   9.958   1.575  10.208  1.3224 -0.8236 -0.1358
   51MOL0     C 6655   9.884   1.616  10.101  0.8348 -0.6718 -0.2669
   51MOL0     C 6656   9.788   1.531  10.039  0.3602 -0.6950 -0.1794
   51MOL0     C 6657   9.743   1.403  10.090 -0.6132 -0.0001  0.0245
   51MOL0     O 6658   9.632   1.324  10.030 -0.1122 -1.0730  0.2874
   51MOL0     C 6659   9.600   1.197  10.077 -0.2028 -0.1326  0.1532
   51MOL0     C 6660   9.447   1.177  10.049 -1.3770  0.1955 -0.8557
   51MOL0     C 6661   9.364   1.275  10.126  0.0519 -0.8649 -0.7353
   51MOL0     C 6662   9.416   1.329  10.268 -1.2034  0.5844  0.4023
   51MOL0     C 6663   9.309   1.397  10.344 -0.4536  0.7276  0.1708
   51MOL0     C 6664   9.216   1.443  10.403 -0.0801 -0.6204 -0.5180
   51MOL0     C 6665   9.824   1.369  10.199 -0.2026 -0.0279 -0.7910
   51MOL0     C 6666   9.924   1.451  10.260 -0.5005 -0.3481  0.5274
   51MOL0     H 6667  10.288   1.562  10.566  2.6129 -1.3602 -0.8309
   51MOL0     H 6668  10.487   1.690  10.662 -2.8809 -1.2598  2.2148
   51MOL0     H 6669  10.514   2.140  10.687 -0.7561  0.5160 -0.7576
   51MOL0     H 6670  10.541   2.129  10.507 -0.0052 -0.7739 -0.2133
   51MOL0     H 6671  10.776   2.074  10.548 -1.1234 -0.9420  0.2636
   51MOL0     H 6672  10.740   2.057  10.718  0.2436  1.8183  1.4822
   51MOL0     H 6673  10.746   2.316  10.551 -2.1453 -0.2839  0.3968
   51MOL0     H 6674  10.852   2.248  10.684 -1.4701 -0.5378  2.9266
   51MOL0     H 6675  10.580   2.348  10.729 -0.0123  1.4012 -1.1030
   51MOL0     H 6676  10.707   2.299  10.851  0.2139  1.7978 -0.6042
   51MOL0     H 6677  10.765   2.520  10.645  3.0461 -2.6818 -0.6773
   51MOL0     H 6678  10.864   2.453  10.773 -0.4241  0.2004  1.1964
   51MOL0     H 6679  10.634   2.663  10.801  1.1674  0.6855 -0.1959
   51MOL0     H 6680  10.800   2.679  10.843 -2.2770  2.1430 -2.3053
   51MOL0     H 6681  10.641   2.644  11.039 -3.2451 -2.0626 -0.0829
   51MOL0     H 6682  10.596   2.489  10.981 -1.0810  1.8581 -0.4072
   51MOL0     H 6683  10.871   2.589  11.096  1.4772 -2.1028  0.5577
   51MOL0     H 6684  10.838   2.429  11.015  2.3668  1.9602 -1.1858
   51MOL0     H 6685  10.674   2.249  11.156 -2.6638  0.0973 -0.5753
   51MOL0     H 6686  10.538   2.140  11.349  0.3568  0.7837 -2.2944
   51MOL0     H 6687  10.433   2.280  11.390  0.2287 -0.2282  0.8822
   51MOL0     H 6688  10.477   2.141  11.590 -0.0582 -0.8416 -1.7464
   51MOL0     H 6689  10.549   2.300  11.610 -0.3184  0.7259 -1.6743
   51MOL0     H 6690  10.776   2.218  11.580 -1.5030  0.5990 -2.2737
   51MOL0     H 6691  10.700   2.121  11.698 -0.0926 -0.3668  0.4217
   51MOL0     H 6692  10.732   2.033  11.418  1.5408  0.2737  0.2045
   51MOL0     H 6693  10.669   1.934  11.545 -1.7975  1.9471  0.0656
   51MOL0     H 6694  10.697   1.872  11.746 -0.7031  0.4513  1.6327
   51MOL0     H 6695  10.771   1.803  11.964  0.0983  0.9947  1.7325
   51MOL0     H 6696  11.238   1.576  12.196 -0.1122 -0.9652 -1.8272
   51MOL0     H 6697  11.250   1.481  12.422 -0.9838 -4.1828  1.4186
   51MOL0     H 6698  10.871   1.252  12.574  0.3143  0.8244 -0.0536
   51MOL0     H 6699  10.926   1.357  12.700 -0.0299  1.4954 -1.6631
   51MOL0     H 6700  11.078   1.100  12.628  1.3049  1.1192  0.8720
   51MOL0     H 6701  10.922   1.102  12.733  0.0642 -2.1402 -3.7381
   51MOL0     H 6702  11.047   1.266  12.888  0.3077 -0.4209  0.1196
   51MOL0     H 6703  11.184   1.240  12.791 -0.7504 -1.9947 -5.4319
   51MOL0     H 6704  11.025   1.016  12.967  1.3887  0.5759  2.4476
   51MOL0     H 6705  11.175   0.996  12.875  0.0455  1.3288  0.1085
   51MOL0     H 6706  11.145   1.189  13.115 -2.0369 -1.4569 -0.3348
   51MOL0     H 6707  11.297   1.168  13.024 -0.9933 -0.3820  0.5022
   51MOL0     H 6708  11.295   0.935  13.086 -1.5018  0.7449 -1.6011
   51MOL0     H 6709  11.142   0.971  13.179  1.0757 -1.5597  0.6090
   51MOL0     H 6710  11.341   0.957  13.320  0.8115 -1.4223 -1.6427
   51MOL0     H 6711  11.409   1.102  13.239 -0.4649  1.1010  2.6042
   51MOL0     H 6712  11.148   1.110  13.387 -1.7980  0.5652 -4.5785
   51MOL0     H 6713  11.228   1.240  13.295  2.5362 -0.3682 -0.2381
   51MOL0     H 6714  10.825   1.416  12.428  0.7425  0.3922  0.3294
   51MOL0     H 6715  10.804   1.522  12.230  0.3679  2.0394  0.7741
   51MOL0     H 6716  11.181   1.840  11.838 -0.4563 -0.0098  1.6018
   51MOL0     H 6717  11.105   1.957  11.634 -0.6010 -0.2270 -0.2945
   51MOL0     H 6718  10.380   2.044  10.422  0.5434  1.0423  1.9420
   51MOL0     H 6719  10.192   1.908  10.317 -2.8738 -1.8973  0.4830
   51MOL0     H 6720   9.893   1.717  10.064  0.0239 -0.3381  0.4168
   51MOL0     H 6721   9.744   1.568   9.947  2.2057  0.3313 -0.7099
   51MOL0     H 6722   9.612   1.179  10.184  1.1346 -1.7090 -0.2157
   51MOL0     H 6723   9.668   1.131  10.021 -1.1185 -1.2360  0.2960
   51MOL0     H 6724   9.413   1.182   9.945 -0.3091 -1.2779 -1.3010
   51MOL0     H 6725   9.414   1.078  10.081 -0.7594  0.2994  0.1506
   51MOL0     H 6726   9.262   1.238  10.139 -0.0679 -0.0564  0.8335
   51MOL0     H 6727   9.340   1.365  10.068 -2.5321 -1.3950 -0.6289
   51MOL0     H 6728   9.459   1.249  10.329  1.9072  2.7634  1.3016
   51MOL0     H 6729   9.503   1.394  10.252 -2.2418  2.9330  3.3707
   51MOL0     H 6730   9.145   1.498  10.462  1.2299  1.3387 -0.6656
   51MOL0     H 6731   9.798   1.279  10.255  0.3146  0.8261  0.9043
   51MOL0     H 6732   9.988   1.431  10.344  0.7699 -0.0232 -0.3409
   52MOL0     O 6733   5.301   5.443   4.679  0.4538 -0.3053 -0.4051
   52MOL0     C 6734   5.305   5.356   4.770  1.5188 -0.7868 -0.0480
   52MOL0     O 6735   5.210   5.259   4.787  0.1700  0.0657 -0.3146
   52MOL0     C 6736   5.126   5.252   4.681 -0.2891 -1.4235  0.2575
   52MOL0     C 6737   5.160   5.186   4.563  0.3022  0.0100 -1.7185
   52MOL0     C 6738   5.075   5.177   4.452 -0.1812  0.0888  0.5404
   52MOL0     C 6739   4.954   5.248   4.439 -0.2803 -0.2157  0.2515
   52MOL0     O 6740   4.877   5.250   4.321 -0.0156 -0.4187 -0.5989
   52MOL0     C 6741   4.877   5.386   4.272  0.1313  0.8189 -0.3167
   52MOL0     C 6742   4.996   5.428   4.181  0.1473  0.6716 -0.1383
   52MOL0     C 6743   4.970   5.552   4.101  0.2596  0.5546 -0.4215
   52MOL0     C 6744   5.088   5.594   4.017  0.2000 -0.8528  0.6344
   52MOL0     C 6745   5.063   5.737   3.954  0.1023 -0.1836  0.3613
   52MOL0     C 6746   5.157   5.760   3.840  0.7421 -0.0176  0.1778
   52MOL0     C 6747   5.100   5.878   3.753 -0.1639 -0.1936  0.6462
   52MOL0     C 6748   5.178   5.915   3.630  0.4572 -0.3928  0.3558
   52MOL0     N 6749   5.321   5.969   3.650 -0.5100  0.1976  0.2892
   52MOL0     C 6750   5.372   6.099   3.651  0.8266  0.5368  0.4243
   52MOL0     C 6751   5.504   6.082   3.674  0.7572  0.3199  0.4326
   52MOL0     C 6752   5.602   6.189   3.654 -0.2539 -0.1683  0.0580
   52MOL0     C 6753   5.725   6.159   3.749 -0.7098  0.3340 -0.2904
   52MOL0     C 6754   5.837   6.260   3.715 -0.0589 -1.1262  0.1629
   52MOL0     C 6755   5.937   6.265   3.819 -0.8987 -0.9758 -0.2201
   52MOL0     O 6756   6.004   6.143   3.844 -0.0769 -0.0104 -0.3923
   52MOL0     C 6757   6.095   6.097   3.752 -0.6376 -0.1974  0.9984
   52MOL0     C 6758   6.113   5.961   3.768  0.5888 -0.0642 -0.7256
   52MOL0     C 6759   6.180   5.886   3.680 -0.3027 -0.1259 -0.2777
   52MOL0     C 6760   6.255   5.955   3.577  0.2113 -0.9526 -0.7024
   52MOL0     C 6761   6.332   5.885   3.486  0.3364 -0.8328  1.0356
   52MOL0     O 6762   6.343   5.752   3.509  0.1180  0.2072  0.4301
   52MOL0     C 6763   6.388   5.665   3.404 -0.6266  0.2981  0.0189
   52MOL0     C 6764   6.453   5.551   3.446  0.4329 -0.6489 -0.4714
   52MOL0     C 6765   6.495   5.458   3.344  0.2684 -0.0899 -0.6879
   52MOL0     C 6766   6.472   5.477   3.208  0.4718  0.0930 -1.1134
   52MOL0     O 6767   6.505   5.392   3.108 -0.7136 -0.3133  0.7476
   52MOL0     C 6768   6.644   5.366   3.104 -0.7496  0.1014 -0.0227
   52MOL0     C 6769   6.671   5.247   3.003 -0.0532  0.2245  0.3694
   52MOL0     C 6770   6.820   5.239   2.966  0.6821 -0.6324 -0.0075
   52MOL0     C 6771   6.834   5.139   2.854  0.4396 -0.2733 -0.1330
   52MOL0     C 6772   6.982   5.146   2.807  0.0794 -0.1790  0.0458
   52MOL0     C 6773   6.997   5.064   2.677 -0.7383 -0.0547 -0.1698
   52MOL0     C 6774   7.015   4.911   2.719  0.4260 -0.3971 -0.0242
   52MOL0     C 6775   7.070   4.841   2.584 -0.0646 -1.4567 -0.2430
   52MOL0    Cl 6776   6.972   4.884   2.434 -0.4402 -0.0973 -0.0148
   52MOL0     C 6777   6.391   5.584   3.169  0.7017  0.1899 -0.8700
   52MOL0     C 6778   6.340   5.674   3.271  0.3352  0.0376 -0.3635
   52MOL0     O 6779   6.374   5.944   3.386 -0.1907  0.0195 -0.3838
   52MOL0     C 6780   6.246   6.094   3.568 -0.6085 -0.9615 -1.4600
   52MOL0     C 6781   6.162   6.169   3.654 -0.5530 -0.0950 -0.0571
   52MOL0     N 6782   5.534   5.948   3.706 -0.4752  0.2528 -0.1197
   52MOL0     N 6783   5.424   5.884   3.687 -0.0196  0.1435 -0.1409
   52MOL0     C 6784   4.913   5.311   4.558 -0.4167 -0.3171  0.2206
   52MOL0     C 6785   4.998   5.317   4.679  1.4419 -0.7913  0.2961
   52MOL0     C 6786   5.426   5.347   4.857 -0.8747  0.6994  0.2618
   52MOL0     C 6787   5.530   5.448   4.860 -0.2433  0.3015 -0.2845
   52MOL0     C 6788   5.642   5.433   4.936 -0.0147  0.9493 -0.0775
   52MOL0     C 6789   5.654   5.328   5.023  0.4638  0.0414 -0.6770
   52MOL0     O 6790   5.768   5.331   5.098 -0.3310  0.3675 -0.0480
   52MOL0     C 6791   5.784   5.238   5.208  0.0819  0.8276 -1.0994
   52MOL0     C 6792   5.891   5.272   5.307 -0.3876  0.0582 -0.6485
   52MOL0     C 6793   6.027   5.286   5.233 -1.2143 -0.8959 -0.6565
   52MOL0     C 6794   6.150   5.298   5.333 -0.4408 -0.8368 -0.2598
   52MOL0     C 6795   6.130   5.416   5.421  0.6175  0.7203 -1.3994
   52MOL0     C 6796   6.141   5.513   5.492 -0.5111 -0.1462 -0.5209
   52MOL0     C 6797   5.560   5.222   5.022  0.0588 -0.4240 -0.3600
   52MOL0     C 6798   5.449   5.233   4.938 -0.2891  0.2877 -0.5653
   52MOL0     H 6799   5.256   5.134   4.555 -0.3162 -1.2579 -1.1846
   52MOL0     H 6800   5.110   5.110   4.375 -5.3651  0.2385 -2.3830
   52MOL0     H 6801   4.875   5.465   4.348  2.5098  2.0763 -1.4331
   52MOL0     H 6802   4.778   5.392   4.227  0.4154 -3.8671 -2.1184
   52MOL0     H 6803   5.030   5.346   4.118  2.8650 -0.1652  2.1794
   52MOL0     H 6804   5.071   5.437   4.260 -2.2636  0.1205  2.3843
   52MOL0     H 6805   4.939   5.622   4.179 -0.1764  1.7677 -1.6542
   52MOL0     H 6806   4.885   5.537   4.035  0.2873  0.3381 -0.4099
   52MOL0     H 6807   5.185   5.598   4.067  0.1565  0.1852  0.6739
   52MOL0     H 6808   5.101   5.524   3.934  0.2969  0.6305 -0.6786
   52MOL0     H 6809   5.078   5.809   4.034  0.8509  2.7688 -2.2587
   52MOL0     H 6810   4.960   5.730   3.916  0.3737 -1.7365 -0.1667
   52MOL0     H 6811   5.153   5.667   3.783 -2.0738 -1.1855  2.0894
   52MOL0     H 6812   5.263   5.783   3.858  0.3697  6.2119 -2.9212
   52MOL0     H 6813   4.993   5.864   3.738 -0.0565  0.4379 -0.9184
   52MOL0     H 6814   5.108   5.964   3.820  0.3923 -0.2311  0.6325
   52MOL0     H 6815   5.117   5.988   3.577  3.1432  2.8980  1.4444
   52MOL0     H 6816   5.173   5.821   3.575 -1.3316  0.6949 -1.4740
   52MOL0     H 6817   5.321   6.185   3.608 -0.7124 -0.7516 -0.4632
   52MOL0     H 6818   5.554   6.284   3.676 -2.6437 -1.3577  0.3208
   52MOL0     H 6819   5.634   6.194   3.550 -3.2300  2.0805 -0.8807
   52MOL0     H 6820   5.762   6.056   3.747  0.7157  0.7634  1.5930
   52MOL0     H 6821   5.687   6.170   3.851 -2.8501  3.0338 -1.2506
   52MOL0     H 6822   5.892   6.243   3.622 -1.9232 -0.8122 -1.0450
   52MOL0     H 6823   5.787   6.357   3.706 -3.0985 -2.1516  3.4938
   52MOL0     H 6824   5.892   6.294   3.915  3.3939  0.9304  1.4898
   52MOL0     H 6825   6.001   6.351   3.799 -0.4113 -1.2307  0.2208
   52MOL0     H 6826   6.067   5.906   3.850 -0.5985  2.5674  0.4771
   52MOL0     H 6827   6.180   5.778   3.690  1.8364 -0.1646 -0.2137
   52MOL0     H 6828   6.480   5.541   3.550  0.9513  0.6241 -0.4682
   52MOL0     H 6829   6.533   5.362   3.378 -2.1483 -0.1545  2.2263
   52MOL0     H 6830   6.678   5.333   3.202 -0.6908 -3.5469 -1.1296
   52MOL0     H 6831   6.712   5.443   3.064 -0.0965  0.7543  2.2019
   52MOL0     H 6832   6.613   5.275   2.914  1.0468 -1.6842 -1.0238
   52MOL0     H 6833   6.639   5.152   3.047 -0.3092 -0.2914 -0.8888
   52MOL0     H 6834   6.877   5.207   3.053  1.7211  1.1352  0.0152
   52MOL0     H 6835   6.857   5.337   2.935  1.4698 -1.5466 -2.1793
   52MOL0     H 6836   6.802   5.039   2.883  1.3223 -0.6203 -0.3020
   52MOL0     H 6837   6.772   5.173   2.771 -0.0108  2.1761  1.1188
   52MOL0     H 6838   7.055   5.110   2.880  2.8582  0.0574 -2.4238
   52MOL0     H 6839   7.006   5.252   2.799 -0.9173  0.0781  0.3172
   52MOL0     H 6840   7.088   5.086   2.620 -1.7922  1.2348 -1.4376
   52MOL0     H 6841   6.912   5.085   2.611 -2.0243  0.5934  1.5978
   52MOL0     H 6842   7.092   4.900   2.796 -1.8289  1.5941  2.7538
   52MOL0     H 6843   6.926   4.855   2.751  0.6128  0.6952  2.6330
   52MOL0     H 6844   7.071   4.731   2.586  2.2113 -1.4755  1.6511
   52MOL0     H 6845   7.167   4.883   2.556 -1.3982  0.2636 -2.5162
   52MOL0     H 6846   6.381   5.596   3.061 -1.3228  1.2168 -0.6159
   52MOL0     H 6847   6.258   5.737   3.238 -1.1776 -2.5472 -1.9478
   52MOL0     H 6848   6.285   6.160   3.491 -0.9814  1.9800  0.6630
   52MOL0     H 6849   6.143   6.274   3.632 -0.0626  0.2491  1.0833
   52MOL0     H 6850   4.814   5.354   4.559 -0.7845 -1.1648  0.4549
   52MOL0     H 6851   4.958   5.372   4.763 -0.6451 -1.6478 -0.0846
   52MOL0     H 6852   5.531   5.535   4.797  0.7653 -0.5292 -1.4702
   52MOL0     H 6853   5.727   5.500   4.929  1.7489 -0.6560  3.4807
   52MOL0     H 6854   5.796   5.138   5.165 -1.4813  0.7580 -1.4238
   52MOL0     H 6855   5.691   5.234   5.265 -1.7281 -1.8253 -3.8677
   52MOL0     H 6856   5.861   5.364   5.358 -1.4691 -1.3490  1.4237
   52MOL0     H 6857   5.893   5.200   5.390  0.2542 -1.3983 -1.8706
   52MOL0     H 6858   6.017   5.371   5.164 -0.7891  0.4765  0.9289
   52MOL0     H 6859   6.055   5.203   5.167  0.0235 -0.8056 -0.2658
   52MOL0     H 6860   6.152   5.209   5.397 -2.0575 -1.5576 -1.1506
   52MOL0     H 6861   6.239   5.295   5.270 -2.1925  0.2183 -2.9659
   52MOL0     H 6862   6.166   5.591   5.561 -4.4478 -3.3687  5.4573
   52MOL0     H 6863   5.563   5.136   5.089  0.4769  0.2086  0.4462
   52MOL0     H 6864   5.368   5.166   4.963 -1.7048  1.9883 -0.3707
   53MOL0     O 6865   5.952   0.658   3.988 -0.5626 -0.3925  0.6683
   53MOL0     C 6866   6.007   0.603   4.081 -0.2892 -0.6208  0.1700
   53MOL0     O 6867   6.079   0.489   4.078  1.0262  0.7065 -0.3216
   53MOL0     C 6868   6.082   0.409   3.969  0.2167 -0.9015  0.1972
   53MOL0     C 6869   6.185   0.429   3.883 -0.6364 -0.5801  0.4091
   53MOL0     C 6870   6.190   0.353   3.764 -0.7429 -0.3031  0.2009
   53MOL0     C 6871   6.085   0.271   3.735 -0.7922  1.0481  1.2041
   53MOL0     O 6872   6.091   0.203   3.614  0.0276  0.0752  0.1171
   53MOL0     C 6873   5.986   0.232   3.524  0.4428  0.1379 -0.2777
   53MOL0     C 6874   6.043   0.188   3.388 -1.3267 -0.1272  0.5465
   53MOL0     C 6875   5.944   0.228   3.280  0.2596  0.1584 -0.2548
   53MOL0     C 6876   5.998   0.243   3.146 -0.0223 -0.2418  0.1777
   53MOL0     C 6877   5.894   0.270   3.039 -0.1339  0.0612  0.7277
   53MOL0     C 6878   5.964   0.254   2.908 -0.4035 -0.3159  0.8742
   53MOL0     C 6879   5.862   0.281   2.794  0.0207 -0.6945 -0.3010
   53MOL0     C 6880   5.919   0.246   2.651 -0.0606  0.8090  1.6112
   53MOL0     N 6881   5.972   0.103   2.639 -0.3442  0.1732  0.2305
   53MOL0     C 6882   6.104   0.078   2.660  0.3270 -0.2850  0.9543
   53MOL0     C 6883   6.113  -0.053   2.677 -0.2571  0.1386  0.1840
   53MOL0     C 6884   6.234  -0.131   2.705 -0.4726  0.4127 -0.8555
   53MOL0     C 6885   6.330  -0.075   2.805  0.2084  0.6299 -0.3909
   53MOL0     C 6886   6.278  -0.083   2.945 -1.0102  0.2060 -0.0402
   53MOL0     C 6887   6.357   0.010   3.048  0.3967 -0.7734  0.4340
   53MOL0     O 6888   6.337   0.145   3.005  0.2932  0.2082 -0.7978
   53MOL0     C 6889   6.367   0.242   3.096 -0.4555  0.2480 -1.6071
   53MOL0     C 6890   6.347   0.369   3.057 -0.3849 -0.1305  0.5789
   53MOL0     C 6891   6.356   0.478   3.146 -0.1317  0.9553  0.4915
   53MOL0     C 6892   6.404   0.454   3.277  0.3156  0.4025  0.2545
   53MOL0     C 6893   6.407   0.563   3.370 -0.2621 -0.0739 -0.2409
   53MOL0     O 6894   6.408   0.686   3.308 -0.0459 -0.5475  0.3331
   53MOL0     C 6895   6.399   0.802   3.378 -0.4952  0.3551 -0.4024
   53MOL0     C 6896   6.318   0.893   3.323 -0.3643  0.1781  0.5378
   53MOL0     C 6897   6.287   1.015   3.396  0.0572 -0.5047  0.2801
   53MOL0     C 6898   6.348   1.035   3.525 -0.6040  0.6057  0.0142
   53MOL0     O 6899   6.305   1.142   3.590 -0.3165  0.4078 -0.1387
   53MOL0     C 6900   6.405   1.227   3.645  0.1136 -0.7225 -1.4469
   53MOL0     C 6901   6.369   1.375   3.644 -0.0492  0.2266 -0.7474
   53MOL0     C 6902   6.311   1.426   3.516  1.2081  0.5583 -0.3613
   53MOL0     C 6903   6.419   1.417   3.414 -0.1846 -0.2046  0.6792
   53MOL0     C 6904   6.380   1.444   3.262 -0.6668  0.0692 -0.6572
   53MOL0     C 6905   6.335   1.590   3.234 -0.1594 -0.1871  0.4217
   53MOL0     C 6906   6.446   1.698   3.211 -0.5413  0.1440  0.6724
   53MOL0     C 6907   6.411   1.822   3.126  0.2907 -0.5961  0.1574
   53MOL0    Cl 6908   6.552   1.919   3.064 -0.6126  0.3099  0.0241
   53MOL0     C 6909   6.431   0.938   3.580 -0.3775 -0.3302  0.2465
   53MOL0     C 6910   6.466   0.832   3.510 -0.5385  0.1031 -0.3236
   53MOL0     O 6911   6.416   0.547   3.494  0.5215  0.2691  0.2322
   53MOL0     C 6912   6.435   0.323   3.314 -0.5540  0.2398  0.7804
   53MOL0     C 6913   6.415   0.212   3.236  0.2000  0.5652 -0.7389
   53MOL0     N 6914   5.992  -0.106   2.656 -0.1646 -0.3867 -0.0258
   53MOL0     N 6915   5.906  -0.011   2.649 -0.5740 -0.5111  0.1921
   53MOL0     C 6916   5.975   0.260   3.812 -0.6519 -0.7083 -1.1730
   53MOL0     C 6917   5.978   0.324   3.940  0.8299  0.1739  0.0624
   53MOL0     C 6918   5.992   0.669   4.212 -0.5442 -0.5318 -0.2322
   53MOL0     C 6919   6.029   0.605   4.329 -0.3675  0.2442 -0.1049
   53MOL0     C 6920   6.002   0.669   4.450  1.6059 -0.1861  0.0622
   53MOL0     C 6921   5.944   0.800   4.456  0.0303 -0.0760 -1.1008
   53MOL0     O 6922   5.925   0.851   4.576  0.1505  0.1363 -0.6222
   53MOL0     C 6923   5.858   0.979   4.598 -0.0022 -0.2879 -0.2734
   53MOL0     C 6924   5.704   0.981   4.563  0.7152  0.7597  0.4867
   53MOL0     C 6925   5.629   0.885   4.667 -0.0125 -0.6691  0.1540
   53MOL0     C 6926   5.493   0.828   4.598 -0.0705  0.0628  0.3033
   53MOL0     C 6927   5.529   0.717   4.503 -0.2119  0.3090 -0.4555
   53MOL0     C 6928   5.552   0.628   4.414  0.1127  0.2328 -0.9096
   53MOL0     C 6929   5.915   0.865   4.332 -0.5826  0.7423 -0.9081
   53MOL0     C 6930   5.938   0.792   4.220  0.8178 -0.1663 -0.3019
   53MOL0     H 6931   6.261   0.504   3.901  0.8120 -1.5430 -1.3953
   53MOL0     H 6932   6.274   0.363   3.695  1.3716  1.2521  2.7862
   53MOL0     H 6933   5.967   0.339   3.524  1.0808  0.2564  0.3488
   53MOL0     H 6934   5.898   0.170   3.543 -0.8361  1.4523 -1.6486
   53MOL0     H 6935   6.067   0.081   3.389  1.7513  0.2948 -3.3740
   53MOL0     H 6936   6.138   0.234   3.359 -0.3912 -2.4615 -0.3550
   53MOL0     H 6937   5.897   0.325   3.300 -2.2173 -0.8340 -0.8556
   53MOL0     H 6938   5.872   0.145   3.277  1.2086 -0.6744 -0.4035
   53MOL0     H 6939   6.075   0.321   3.137 -0.0628 -0.4147 -2.9407
   53MOL0     H 6940   6.041   0.149   3.110 -1.4693 -0.8165 -0.1028
   53MOL0     H 6941   5.836   0.362   3.028 -2.2808 -1.4614 -2.1843
   53MOL0     H 6942   5.819   0.191   3.050  0.7397 -0.9117 -0.0416
   53MOL0     H 6943   6.005   0.155   2.887 -0.0721  0.4210 -2.5781
   53MOL0     H 6944   6.051   0.316   2.884 -0.1012 -1.1972 -0.4747
   53MOL0     H 6945   5.776   0.215   2.812 -1.5237  1.2016 -0.4253
   53MOL0     H 6946   5.825   0.383   2.809 -0.8041 -1.3153  2.4516
   53MOL0     H 6947   6.001   0.311   2.621  0.0852  0.2882  0.8548
   53MOL0     H 6948   5.833   0.271   2.588  1.3725  4.8647  0.9946
   53MOL0     H 6949   6.189   0.144   2.672 -1.2804  1.5013  3.5991
   53MOL0     H 6950   6.291  -0.131   2.611  0.7065 -0.9457 -0.1679
   53MOL0     H 6951   6.206  -0.235   2.726  2.1533 -0.6507 -2.2094
   53MOL0     H 6952   6.347   0.031   2.781 -1.2483  1.0156  0.1331
   53MOL0     H 6953   6.432  -0.112   2.794  0.4650  1.8178 -2.6671
   53MOL0     H 6954   6.172  -0.055   2.946 -0.5624  2.0344  1.4202
   53MOL0     H 6955   6.290  -0.184   2.986  0.4386  0.0233 -0.8671
   53MOL0     H 6956   6.465  -0.006   3.040  0.3575 -0.8730  0.0605
   53MOL0     H 6957   6.327  -0.014   3.150 -1.8428 -0.4701 -0.0921
   53MOL0     H 6958   6.320   0.398   2.956 -2.0853 -1.0786  0.7334
   53MOL0     H 6959   6.318   0.578   3.128 -1.7084  0.7350  2.2847
   53MOL0     H 6960   6.266   0.862   3.232  0.2843  2.7368 -0.8149
   53MOL0     H 6961   6.213   1.086   3.363  3.0286  3.5884  1.6092
   53MOL0     H 6962   6.500   1.221   3.590  3.2366  1.2730  3.0916
   53MOL0     H 6963   6.417   1.215   3.753 -0.8751 -0.5336 -1.3096
   53MOL0     H 6964   6.445   1.439   3.688 -1.7722  0.2487  2.4948
   53MOL0     H 6965   6.285   1.390   3.713 -1.7089 -1.7261 -2.2042
   53MOL0     H 6966   6.269   1.526   3.528 -0.7278 -0.5175  2.9321
   53MOL0     H 6967   6.230   1.367   3.472  0.6950  0.9374  0.0561
   53MOL0     H 6968   6.509   1.468   3.449  1.5809 -2.2789 -0.5339
   53MOL0     H 6969   6.448   1.311   3.414 -2.0053 -0.7375  0.1498
   53MOL0     H 6970   6.304   1.368   3.243 -1.6540  1.0114 -0.5411
   53MOL0     H 6971   6.460   1.425   3.190  1.3847  0.8337  1.2812
   53MOL0     H 6972   6.257   1.637   3.295 -0.6704  2.5599 -2.1602
   53MOL0     H 6973   6.285   1.577   3.138 -1.0193 -1.4294  1.0130
   53MOL0     H 6974   6.492   1.729   3.305  1.2984  0.5651 -0.3117
   53MOL0     H 6975   6.525   1.645   3.157  1.4222  1.2034  2.3453
   53MOL0     H 6976   6.342   1.893   3.173 -0.4554 -2.4008  1.8915
   53MOL0     H 6977   6.361   1.782   3.037 -2.9801 -0.1156  1.6065
   53MOL0     H 6978   6.470   0.950   3.680 -3.4560 -0.7190  1.5999
   53MOL0     H 6979   6.535   0.759   3.552 -2.0189 -1.6927 -0.8431
   53MOL0     H 6980   6.478   0.307   3.413 -1.1152  3.1503  1.5960
   53MOL0     H 6981   6.429   0.106   3.255  2.1057  0.0121 -4.2448
   53MOL0     H 6982   5.899   0.198   3.765  1.0473  0.1961 -5.6222
   53MOL0     H 6983   5.895   0.313   4.008 -0.5348 -0.4311 -1.6290
   53MOL0     H 6984   6.082   0.511   4.338  0.4344  0.4610 -2.1179
   53MOL0     H 6985   6.038   0.616   4.538  1.8260  4.2581  2.9786
   53MOL0     H 6986   5.905   1.059   4.540  0.1428  1.0089  1.5215
   53MOL0     H 6987   5.867   1.003   4.705  4.9172 -0.4345 -0.4059
   53MOL0     H 6988   5.655   1.079   4.572 -4.6838 -1.6114  1.3240
   53MOL0     H 6989   5.695   0.949   4.459 -0.6019 -1.2274  1.1493
   53MOL0     H 6990   5.594   0.951   4.747 -2.0744 -0.4660 -0.8246
   53MOL0     H 6991   5.697   0.811   4.710  2.8197  1.1821 -0.8805
   53MOL0     H 6992   5.426   0.790   4.675 -1.9276  4.2747  1.0451
   53MOL0     H 6993   5.426   0.900   4.549  0.2572  1.5865  1.9954
   53MOL0     H 6994   5.576   0.556   4.337 -1.4177  0.6293 -1.8083
   53MOL0     H 6995   5.897   0.972   4.326 -1.3521  0.6733 -0.0364
   53MOL0     H 6996   5.922   0.839   4.123 -0.8400 -1.0161 -0.4737
   54MOL0     O 6997   4.677   3.768   5.041 -0.1355  0.2792 -0.3340
   54MOL0     C 6998   4.557   3.783   5.005 -0.3699  0.6585  0.3563
   54MOL0     O 6999   4.450   3.755   5.086 -0.8664 -0.4875 -0.7332
   54MOL0     C 7000   4.482   3.696   5.202 -0.5337  0.1455 -0.3581
   54MOL0     C 7001   4.475   3.785   5.309  0.0819 -0.6791  0.1876
   54MOL0     C 7002   4.494   3.746   5.435  0.1546  0.5730  0.5717
   54MOL0     C 7003   4.501   3.610   5.466 -0.0971  0.0657  0.4726
   54MOL0     O 7004   4.508   3.570   5.599  0.6016  0.3253 -0.0283
   54MOL0     C 7005   4.636   3.549   5.656  0.3257  0.7710  0.4411
   54MOL0     C 7006   4.636   3.473   5.787 -0.8443 -0.3783  0.0472
   54MOL0     C 7007   4.573   3.561   5.910  0.5508  0.1070  0.7274
   54MOL0     C 7008   4.572   3.478   6.043  0.3146 -0.6898  0.2668
   54MOL0     C 7009   4.524   3.555   6.165 -0.0834 -0.5169  0.0766
   54MOL0     C 7010   4.522   3.702   6.154 -0.2233 -0.7608  0.1462
   54MOL0     C 7011   4.455   3.774   6.272 -0.3232 -0.4123  0.2865
   54MOL0     C 7012   4.501   3.759   6.423 -0.0023 -0.2603  0.5875
   54MOL0     N 7013   4.492   3.877   6.507  0.1297  0.5411  0.3874
   54MOL0     C 7014   4.394   3.909   6.601  0.4824 -0.1316  0.2667
   54MOL0     C 7015   4.451   4.023   6.653 -0.5804  1.1445  0.1381
   54MOL0     C 7016   4.388   4.088   6.765  0.0438 -0.2493 -0.3784
   54MOL0     C 7017   4.425   4.039   6.907  0.2838 -0.1527  0.1998
   54MOL0     C 7018   4.302   3.973   6.989 -0.1131 -0.7949 -0.0842
   54MOL0     C 7019   4.190   4.083   7.001  0.1824  0.8762  1.1590
   54MOL0     O 7020   4.242   4.195   7.066 -0.4440 -0.1851 -0.5732
   54MOL0     C 7021   4.179   4.216   7.190  0.4224  0.9841 -0.0560
   54MOL0     C 7022   4.033   4.233   7.201 -0.1767  0.6702 -0.0965
   54MOL0     C 7023   3.985   4.255   7.332 -0.5001  0.1141  0.6383
   54MOL0     C 7024   4.070   4.252   7.447 -0.2952 -0.9544  0.4903
   54MOL0     C 7025   4.007   4.257   7.583 -0.7497 -0.6668 -0.5431
   54MOL0     O 7026   4.074   4.223   7.696 -0.1337 -0.5798  0.2482
   54MOL0     C 7027   4.007   4.253   7.820 -0.7443 -0.1002 -0.6952
   54MOL0     C 7028   3.912   4.162   7.869  0.5079 -0.0816 -0.7350
   54MOL0     C 7029   3.854   4.188   7.997 -0.3115 -0.4970  0.6877
   54MOL0     C 7030   3.889   4.303   8.070  0.4363  0.0676 -0.5003
   54MOL0     O 7031   3.815   4.319   8.184  0.5434  0.2345  0.0146
   54MOL0     C 7032   3.873   4.398   8.291 -0.0269  0.3195  0.1344
   54MOL0     C 7033   3.796   4.361   8.417 -0.8395 -0.2476 -0.3200
   54MOL0     C 7034   3.828   4.222   8.469 -0.3679 -0.3187  0.1093
   54MOL0     C 7035   3.751   4.184   8.592  0.1345 -0.3696 -0.2453
   54MOL0     C 7036   3.795   4.039   8.637  0.0014 -0.0620 -1.0025
   54MOL0     C 7037   3.722   3.928   8.581  0.4181  0.1130  0.0201
   54MOL0     C 7038   3.583   3.883   8.636  1.4074  0.0435  0.9534
   54MOL0     C 7039   3.547   3.737   8.614  0.0451  0.4666  0.0898
   54MOL0    Cl 7040   3.675   3.622   8.660 -0.3162  0.1990  0.0623
   54MOL0     C 7041   3.985   4.390   8.018 -0.1174  0.5532  0.1234
   54MOL0     C 7042   4.040   4.366   7.897 -0.1795 -0.0369  0.8601
   54MOL0     O 7043   3.888   4.291   7.585 -0.6540  0.2943  0.0393
   54MOL0     C 7044   4.211   4.234   7.434 -0.0983  0.0066  0.0112
   54MOL0     C 7045   4.257   4.214   7.304  0.9576 -0.2671  0.0566
   54MOL0     N 7046   4.563   4.065   6.588 -0.5208 -0.0186 -0.0101
   54MOL0     N 7047   4.577   3.988   6.494 -0.4334  0.3428  0.0283
   54MOL0     C 7048   4.521   3.512   5.365 -0.1569  0.4091  0.0023
   54MOL0     C 7049   4.492   3.551   5.231  0.1160  0.2401 -0.0597
   54MOL0     C 7050   4.527   3.817   4.870  0.1433  0.4993 -0.1587
   54MOL0     C 7051   4.634   3.840   4.784 -0.3925 -0.5005  0.0878
   54MOL0     C 7052   4.615   3.875   4.653  0.5679  0.4128  0.2982
   54MOL0     C 7053   4.489   3.893   4.599 -0.3459 -0.0293 -0.7186
   54MOL0     O 7054   4.459   3.933   4.466 -0.2173  0.4963  0.2274
   54MOL0     C 7055   4.390   4.061   4.463 -0.5513 -0.3006  0.5276
   54MOL0     C 7056   4.434   4.161   4.345 -0.9917  0.8532  0.6463
   54MOL0     C 7057   4.324   4.141   4.233  0.6331 -0.3730  0.3388
   54MOL0     C 7058   4.365   4.190   4.091  0.6185  0.3772  0.2800
   54MOL0     C 7059   4.412   4.326   4.081 -0.1607  0.0370  0.3076
   54MOL0     C 7060   4.440   4.445   4.072  0.3607  0.3051  0.1096
   54MOL0     C 7061   4.385   3.873   4.695  0.0124  0.4100  0.3544
   54MOL0     C 7062   4.397   3.831   4.820 -0.3633 -0.4431 -0.2421
   54MOL0     H 7063   4.457   3.888   5.278 -0.2480 -0.8425 -0.1677
   54MOL0     H 7064   4.494   3.806   5.525 -0.7861  0.9045  0.3607
   54MOL0     H 7065   4.674   3.651   5.663  2.2795  0.1691 -0.7699
   54MOL0     H 7066   4.695   3.493   5.583  0.4641 -0.5301  1.5026
   54MOL0     H 7067   4.740   3.457   5.815 -0.5615  0.3734 -0.5431
   54MOL0     H 7068   4.578   3.380   5.783 -2.9889  0.6694  2.8326
   54MOL0     H 7069   4.467   3.582   5.890  0.7661 -0.6581 -1.6035
   54MOL0     H 7070   4.626   3.656   5.918 -1.8576  1.3767  3.5997
   54MOL0     H 7071   4.512   3.386   6.046 -0.1710 -0.3580  2.5442
   54MOL0     H 7072   4.676   3.444   6.052  0.6885 -0.0875 -1.4322
   54MOL0     H 7073   4.584   3.521   6.250 -2.4896  0.2949  2.2447
   54MOL0     H 7074   4.423   3.515   6.177 -0.3415 -0.5711 -1.9186
   54MOL0     H 7075   4.460   3.720   6.066 -1.9826 -1.5999  1.1510
   54MOL0     H 7076   4.624   3.736   6.134 -0.0409 -2.2407 -1.6873
   54MOL0     H 7077   4.482   3.877   6.246  0.7209 -0.7067  0.1434
   54MOL0     H 7078   4.347   3.758   6.265 -0.2912 -0.0026 -2.3531
   54MOL0     H 7079   4.603   3.719   6.427  1.5120  2.9261 -1.8385
   54MOL0     H 7080   4.428   3.686   6.462 -0.0221 -1.0058 -0.7755
   54MOL0     H 7081   4.302   3.860   6.629  0.3647 -1.1666 -1.7328
   54MOL0     H 7082   4.283   4.060   6.750 -0.1355 -0.3538  0.9266
   54MOL0     H 7083   4.405   4.196   6.760 -1.1281 -0.0993 -1.8185
   54MOL0     H 7084   4.481   4.114   6.964  0.9968 -1.6489  1.5490
   54MOL0     H 7085   4.506   3.967   6.894 -0.8191 -1.0539 -2.3410
   54MOL0     H 7086   4.257   3.895   6.927  0.6499  0.2276 -2.0201
   54MOL0     H 7087   4.327   3.932   7.088 -4.4801  0.0159  1.5769
   54MOL0     H 7088   4.105   4.027   7.042  1.8059 -0.8417  2.3800
   54MOL0     H 7089   4.155   4.116   6.903 -2.0844 -0.6328  1.3850
   54MOL0     H 7090   3.975   4.232   7.109 -2.7434 -0.6792  1.4278
   54MOL0     H 7091   3.881   4.285   7.342 -0.9511 -1.9698  3.4596
   54MOL0     H 7092   3.885   4.073   7.813 -1.9234 -0.9632  1.6456
   54MOL0     H 7093   3.783   4.114   8.033 -1.1068  0.0317  0.2165
   54MOL0     H 7094   3.867   4.504   8.263  1.1264  0.2717 -0.3518
   54MOL0     H 7095   3.980   4.379   8.303  0.4540  3.1140  0.9171
   54MOL0     H 7096   3.690   4.357   8.387 -1.2965 -0.9655  1.2599
   54MOL0     H 7097   3.811   4.433   8.497  2.8722 -0.1659 -0.9476
   54MOL0     H 7098   3.931   4.228   8.504 -0.0830 -1.2999 -0.5326
   54MOL0     H 7099   3.808   4.142   8.397  1.1634 -0.6201 -0.0100
   54MOL0     H 7100   3.759   4.258   8.672 -2.3562 -0.0313 -0.2239
   54MOL0     H 7101   3.645   4.190   8.566  0.1646 -3.5140 -1.6360
   54MOL0     H 7102   3.786   4.024   8.745  0.2701  1.0861 -0.8093
   54MOL0     H 7103   3.900   4.019   8.613 -0.3671 -2.7221 -0.6175
   54MOL0     H 7104   3.788   3.843   8.603  0.1125  0.3078  1.8875
   54MOL0     H 7105   3.715   3.952   8.475 -1.9386  0.7813  0.2749
   54MOL0     H 7106   3.579   3.912   8.741 -0.2651  3.8053  0.0396
   54MOL0     H 7107   3.502   3.934   8.582  1.3886  0.0406  0.9803
   54MOL0     H 7108   3.539   3.731   8.505 -2.4482  2.2398  0.0959
   54MOL0     H 7109   3.450   3.701   8.651  0.2644 -2.4578 -1.8304
   54MOL0     H 7110   4.024   4.473   8.076 -1.2758 -1.9646  5.0450
   54MOL0     H 7111   4.126   4.423   7.862  2.1710 -2.2178  2.6464
   54MOL0     H 7112   4.277   4.234   7.520 -1.7230 -3.2815  1.4323
   54MOL0     H 7113   4.364   4.206   7.286  0.9304 -4.2526  0.7683
   54MOL0     H 7114   4.550   3.410   5.383 -2.7786 -0.1590  1.6531
   54MOL0     H 7115   4.485   3.486   5.144  1.7326  1.4744 -1.1814
   54MOL0     H 7116   4.732   3.816   4.824 -0.5468  0.3799  1.0377
   54MOL0     H 7117   4.701   3.892   4.589 -0.2379  1.5596 -0.5246
   54MOL0     H 7118   4.424   4.119   4.549 -2.8133  2.0458 -0.0120
   54MOL0     H 7119   4.280   4.064   4.465 -0.5310  0.6233  0.8644
   54MOL0     H 7120   4.443   4.263   4.383 -1.9162  1.7430 -1.3820
   54MOL0     H 7121   4.536   4.127   4.325 -0.0779  2.9857  1.3303
   54MOL0     H 7122   4.241   4.200   4.275  2.9281  1.5417  2.4788
   54MOL0     H 7123   4.291   4.038   4.217  0.3243 -0.0045 -1.6292
   54MOL0     H 7124   4.445   4.126   4.053  0.4457  1.6896 -2.5617
   54MOL0     H 7125   4.288   4.195   4.014 -1.1841  2.7176  2.0803
   54MOL0     H 7126   4.437   4.551   4.056  0.8454  0.0639 -1.7343
   54MOL0     H 7127   4.284   3.878   4.653  0.4245 -1.6640 -1.1006
   54MOL0     H 7128   4.303   3.828   4.875 -0.6844  4.7907  0.0056
   55MOL0     O 7129   6.908   3.062  10.788 -0.1154 -0.5752  0.5117
   55MOL0     C 7130   6.941   3.025  10.673  1.2861 -1.2030  0.5955
   55MOL0     O 7131   6.925   2.910  10.614 -0.2141 -0.2118  0.4390
   55MOL0     C 7132   6.889   2.800  10.692  0.4100 -0.8846  0.4932
   55MOL0     C 7133   6.977   2.695  10.688  0.2740 -0.2795 -0.0050
   55MOL0     C 7134   6.947   2.569  10.756 -1.0317  1.0268  0.9483
   55MOL0     C 7135   6.823   2.555  10.817 -0.1821  0.7668  0.2327
   55MOL0     O 7136   6.799   2.447  10.897 -0.1756 -0.7699  0.1896
   55MOL0     C 7137   6.887   2.407  11.004  0.3300  0.6424  0.3514
   55MOL0     C 7138   6.791   2.369  11.124 -0.1157  0.5871 -0.9701
   55MOL0     C 7139   6.759   2.485  11.228 -0.6119 -0.1053  0.1087
   55MOL0     C 7140   6.889   2.516  11.311  1.0583 -0.1553  0.3279
   55MOL0     C 7141   6.868   2.642  11.403  0.1112  0.3636  0.4324
   55MOL0     C 7142   6.979   2.659  11.510 -0.2372  0.7285 -0.1218
   55MOL0     C 7143   7.127   2.640  11.461 -0.4711 -1.0727  0.0332
   55MOL0     C 7144   7.216   2.628  11.581 -0.0371  0.3236 -0.5078
   55MOL0     N 7145   7.357   2.611  11.531  0.5619  0.8024  0.3848
   55MOL0     C 7146   7.425   2.493  11.516 -0.5027 -0.0738  0.8041
   55MOL0     C 7147   7.562   2.520  11.505 -0.2361 -0.1288 -0.0211
   55MOL0     C 7148   7.659   2.411  11.472 -0.4819  0.3737  0.6757
   55MOL0     C 7149   7.766   2.384  11.580 -0.7516 -0.4143  0.3606
   55MOL0     C 7150   7.705   2.330  11.701  0.5041  0.1517  0.6118
   55MOL0     C 7151   7.819   2.326  11.805 -0.0276 -1.2181 -0.1834
   55MOL0     O 7152   7.899   2.206  11.783  0.7022  0.5025  0.0344
   55MOL0     C 7153   7.853   2.085  11.838 -0.7416 -1.0521 -0.2588
   55MOL0     C 7154   7.753   2.069  11.930 -0.4520  0.1461  0.2584
   55MOL0     C 7155   7.727   1.947  11.984  0.2591  0.1077 -0.1042
   55MOL0     C 7156   7.783   1.828  11.932  0.4318  0.3507  0.0663
   55MOL0     C 7157   7.742   1.696  11.984  0.9545 -1.0112 -0.4745
   55MOL0     O 7158   7.817   1.595  11.958 -1.5076  1.1369  1.2518
   55MOL0     C 7159   7.803   1.474  12.021 -0.3878  0.3193  0.3316
   55MOL0     C 7160   7.915   1.389  11.991  0.6520 -0.0160  0.2675
   55MOL0     C 7161   7.920   1.257  12.062 -0.0215 -1.1847 -0.2450
   55MOL0     C 7162   7.812   1.220  12.152  0.0590 -0.3902  0.3499
   55MOL0     O 7163   7.824   1.112  12.228  0.4477  0.1257 -0.2430
   55MOL0     C 7164   7.897   1.129  12.358  0.9880 -0.1018 -0.0137
   55MOL0     C 7165   7.860   1.025  12.462  0.1395  0.1967 -0.7730
   55MOL0     C 7166   7.711   1.033  12.501  0.6099 -1.1053 -0.5248
   55MOL0     C 7167   7.652   0.912  12.585 -0.7360  0.5641 -0.7389
   55MOL0     C 7168   7.747   0.872  12.693 -0.2079  0.6986 -0.1151
   55MOL0     C 7169   7.700   0.746  12.755 -0.4397  0.5902 -1.1210
   55MOL0     C 7170   7.758   0.717  12.900 -0.3093  0.4146 -0.0160
   55MOL0     C 7171   7.710   0.584  12.967 -1.1087  0.3834  0.3076
   55MOL0    Cl 7172   7.762   0.444  12.870 -0.2124  0.0078 -0.5845
   55MOL0     C 7173   7.697   1.302  12.172 -0.7357 -0.5757  0.2577
   55MOL0     C 7174   7.701   1.426  12.108  1.0212  0.0456 -0.1252
   55MOL0     O 7175   7.631   1.694  12.036  0.3539  0.1125 -0.7533
   55MOL0     C 7176   7.888   1.839  11.845  0.0760 -0.4155  0.5137
   55MOL0     C 7177   7.928   1.970  11.801  0.8554 -0.0959  0.2265
   55MOL0     N 7178   7.565   2.666  11.517  1.0688  0.2031  0.9901
   55MOL0     N 7179   7.441   2.719  11.531 -0.6694  0.1649  0.1727
   55MOL0     C 7180   6.734   2.656  10.813  0.3675 -0.0915 -0.5339
   55MOL0     C 7181   6.769   2.779  10.756 -0.2142 -0.2991 -0.2042
   55MOL0     C 7182   7.014   3.130  10.597  0.1722  1.1452  0.0975
   55MOL0     C 7183   7.040   3.114  10.461  0.6131 -0.2914  0.7293
   55MOL0     C 7184   7.108   3.208  10.382 -0.2027 -0.1675 -0.8346
   55MOL0     C 7185   7.153   3.322  10.448 -0.3762  0.5337  0.5024
   55MOL0     O 7186   7.229   3.407  10.369 -0.1326 -0.4049  0.8774
   55MOL0     C 7187   7.340   3.474  10.428  0.3351  0.4676  0.0334
   55MOL0     C 7188   7.423   3.505  10.309 -0.3788 -0.3752 -0.1562
   55MOL0     C 7189   7.543   3.577  10.350  0.0314 -1.2146 -0.3340
   55MOL0     C 7190   7.610   3.652  10.240  0.4308 -1.2527 -0.5656
   55MOL0     C 7191   7.722   3.583  10.173 -0.5785  0.4910 -0.3041
   55MOL0     C 7192   7.821   3.520  10.138 -0.0076  0.2410 -0.3439
   55MOL0     C 7193   7.142   3.330  10.590 -0.2605  0.5057 -0.1613
   55MOL0     C 7194   7.071   3.236  10.665 -0.0446  0.0532  0.0354
   55MOL0     H 7195   7.076   2.717  10.650 -0.5264 -1.2436 -2.8671
   55MOL0     H 7196   7.011   2.482  10.753 -0.2967  1.5808  0.0416
   55MOL0     H 7197   6.963   2.477  11.037  2.1875 -1.0846 -0.0637
   55MOL0     H 7198   6.952   2.324  10.976  1.3955  1.3319  0.7316
   55MOL0     H 7199   6.842   2.303  11.195 -2.3950 -1.1818 -0.8663
   55MOL0     H 7200   6.699   2.325  11.084  0.5574 -1.7536 -0.1280
   55MOL0     H 7201   6.677   2.454  11.293  1.5383  1.1813  3.6924
   55MOL0     H 7202   6.712   2.571  11.179 -1.3479 -0.5893 -0.0429
   55MOL0     H 7203   6.897   2.428  11.375 -1.4294  0.9515  2.3892
   55MOL0     H 7204   6.972   2.550  11.249 -0.5085  3.2892 -0.1468
   55MOL0     H 7205   6.770   2.625  11.448  1.1035 -1.6765  1.9660
   55MOL0     H 7206   6.872   2.725  11.331  3.1946  0.2079  0.2995
   55MOL0     H 7207   6.957   2.582  11.585  1.1735  1.0342  0.6411
   55MOL0     H 7208   6.971   2.757  11.558 -0.2707  0.6303  0.0761
   55MOL0     H 7209   7.136   2.552  11.397  1.8709 -0.7143 -0.2305
   55MOL0     H 7210   7.161   2.728  11.404 -1.1815  0.4190  1.8088
   55MOL0     H 7211   7.181   2.555  11.655  1.8255  1.9755  2.1698
   55MOL0     H 7212   7.196   2.721  11.635  1.8351 -0.2657  1.3144
   55MOL0     H 7213   7.377   2.399  11.493 -0.6256  0.3230 -0.6712
   55MOL0     H 7214   7.705   2.436  11.376  1.2439 -0.6077  1.1988
   55MOL0     H 7215   7.604   2.317  11.459  1.8064 -1.4390  3.0924
   55MOL0     H 7216   7.809   2.483  11.598 -1.8788  0.3344 -0.8705
   55MOL0     H 7217   7.844   2.321  11.539 -0.8450  0.9796 -2.1621
   55MOL0     H 7218   7.623   2.386  11.747  2.0097  0.8562  2.5818
   55MOL0     H 7219   7.671   2.227  11.683 -0.9213  0.7933 -0.5042
   55MOL0     H 7220   7.777   2.338  11.905 -2.0670 -0.2595 -1.0975
   55MOL0     H 7221   7.885   2.411  11.787 -2.0106  0.3630 -0.3426
   55MOL0     H 7222   7.701   2.158  11.964 -2.3539 -0.5225 -0.7363
   55MOL0     H 7223   7.646   1.962  12.054  1.1089  1.5712  0.6301
   55MOL0     H 7224   7.988   1.439  11.928  0.0290  2.0643  1.1233
   55MOL0     H 7225   8.008   1.194  12.051 -1.6457 -3.7071  0.3797
   55MOL0     H 7226   7.890   1.228  12.405 -2.7246  0.2418 -0.9785
   55MOL0     H 7227   8.005   1.119  12.349  0.8571 -0.8581 -0.8936
   55MOL0     H 7228   7.926   1.034  12.548 -0.3447  2.1353 -0.5575
   55MOL0     H 7229   7.889   0.925  12.426  3.3063  0.1789  1.4602
   55MOL0     H 7230   7.656   1.038  12.407  1.3566 -1.9316 -1.0191
   55MOL0     H 7231   7.691   1.125  12.557  0.7260 -1.9823  1.0243
   55MOL0     H 7232   7.554   0.937  12.625  1.0339  2.2138  3.1043
   55MOL0     H 7233   7.629   0.831  12.516 -0.7771  1.3002 -1.5979
   55MOL0     H 7234   7.760   0.957  12.761 -0.6151  2.3851 -2.0287
   55MOL0     H 7235   7.847   0.856  12.652 -0.2007 -0.3087  0.2595
   55MOL0     H 7236   7.744   0.669  12.692  2.3061  2.3814 -1.5848
   55MOL0     H 7237   7.591   0.745  12.757 -0.4941 -0.1434  2.2411
   55MOL0     H 7238   7.867   0.731  12.904 -0.0526 -1.3771  0.0561
   55MOL0     H 7239   7.715   0.801  12.956  1.8986  2.0404 -0.5878
   55MOL0     H 7240   7.602   0.591  12.976 -1.0967  0.9485  0.0405
   55MOL0     H 7241   7.746   0.579  13.070  1.2182 -0.8224 -0.4743
   55MOL0     H 7242   7.621   1.273  12.244 -0.1310 -2.1710  0.2925
   55MOL0     H 7243   7.624   1.493  12.146  1.7391 -0.5199  2.5266
   55MOL0     H 7244   7.953   1.758  11.814 -1.3031 -0.7257 -1.7900
   55MOL0     H 7245   8.012   1.981  11.733 -0.2264  3.0353 -0.8047
   55MOL0     H 7246   6.639   2.646  10.865  0.2422 -0.0014 -0.7435
   55MOL0     H 7247   6.701   2.862  10.737 -0.8766  0.0895  3.2824
   55MOL0     H 7248   7.013   3.028  10.399  3.0888 -1.6922  1.4411
   55MOL0     H 7249   7.125   3.209  10.275  0.7368  0.4694 -0.6890
   55MOL0     H 7250   7.392   3.410  10.500  0.2734 -2.0097 -1.9828
   55MOL0     H 7251   7.301   3.568  10.468 -2.0193  0.3165 -1.6725
   55MOL0     H 7252   7.451   3.412  10.257  2.1836  0.1586  0.1569
   55MOL0     H 7253   7.367   3.559  10.232  1.8050 -0.7828 -2.1371
   55MOL0     H 7254   7.621   3.513  10.391  2.0042  0.5798 -1.0699
   55MOL0     H 7255   7.509   3.654  10.421  0.8435 -0.0583 -1.1714
   55MOL0     H 7256   7.545   3.691  10.161  1.8498  0.9342 -0.7401
   55MOL0     H 7257   7.666   3.738  10.279  0.1516 -2.0343  1.6870
   55MOL0     H 7258   7.919   3.479  10.125 -1.1425 -2.1132 -2.1130
   55MOL0     H 7259   7.196   3.404  10.649  1.9488 -1.0282 -0.1120
   55MOL0     H 7260   7.059   3.246  10.772  0.8368  1.9047 -0.0104
   56MOL0     O 7261   0.175   5.015   4.140  0.5881  0.0563 -0.0568
   56MOL0     C 7262   0.062   4.980   4.094 -0.9653  0.6484 -0.2668
   56MOL0     O 7263   0.042   4.923   3.975 -0.2267  0.4201  0.4290
   56MOL0     C 7264   0.159   4.883   3.911  0.0787 -0.4047 -0.3737
   56MOL0     C 7265   0.240   4.987   3.856  0.0192  0.2835  0.1008
   56MOL0     C 7266   0.356   4.959   3.788  0.2343 -0.1308  1.0345
   56MOL0     C 7267   0.391   4.823   3.776  1.2009  0.0073 -0.4229
   56MOL0     O 7268   0.507   4.790   3.710  0.1378 -0.1794  0.4665
   56MOL0     C 7269   0.563   4.662   3.720 -0.6845 -0.2268  0.1997
   56MOL0     C 7270   0.612   4.627   3.854 -0.0904 -0.8716  0.0845
   56MOL0     C 7271   0.652   4.474   3.856  0.6188 -0.7922 -0.8690
   56MOL0     C 7272   0.580   4.393   3.964  0.6368 -1.1362  0.3281
   56MOL0     C 7273   0.429   4.363   3.948 -0.8994 -1.5501 -0.0228
   56MOL0     C 7274   0.387   4.246   4.038  0.0126  0.2654  0.0411
   56MOL0     C 7275   0.230   4.211   4.031  0.1968  1.5573 -0.7088
   56MOL0     C 7276   0.158   4.317   4.104 -0.1088 -0.3024 -0.5387
   56MOL0     N 7277   0.037   4.268   4.163  0.2994 -0.0061 -0.3969
   56MOL0     C 7278  -0.086   4.246   4.106 -0.9844  0.4498 -0.8766
   56MOL0     C 7279  -0.160   4.198   4.206 -0.3145 -0.6724 -0.2150
   56MOL0     C 7280  -0.308   4.179   4.192  0.3791  0.6706 -0.4368
   56MOL0     C 7281  -0.337   4.031   4.169 -0.0212 -0.2896 -0.5989
   56MOL0     C 7282  -0.299   3.931   4.281 -0.3048  0.3961 -0.3482
   56MOL0     C 7283  -0.404   3.947   4.396  0.1551 -0.2445  0.4029
   56MOL0     O 7284  -0.529   3.898   4.348  0.4552  0.6906  0.7070
   56MOL0     C 7285  -0.624   3.883   4.448  0.3161  0.3181  0.9024
   56MOL0     C 7286  -0.670   3.998   4.515 -0.2978  0.1857  0.3727
   56MOL0     C 7287  -0.766   3.987   4.604  0.2162  0.0425 -1.1000
   56MOL0     C 7288  -0.834   3.863   4.624 -0.1796 -0.6777  0.0269
   56MOL0     C 7289  -0.961   3.853   4.704  0.8110 -0.2974 -0.3515
   56MOL0     O 7290  -1.043   3.753   4.688  0.4593  0.1798  0.1945
   56MOL0     C 7291  -1.165   3.760   4.759 -0.6915  0.5451  1.1451
   56MOL0     C 7292  -1.280   3.779   4.685  0.2002  0.7996 -0.0737
   56MOL0     C 7293  -1.403   3.775   4.753 -0.2913 -0.5357  1.0124
   56MOL0     C 7294  -1.409   3.758   4.894 -0.1297  0.0859  0.3125
   56MOL0     O 7295  -1.523   3.758   4.968  0.3776  0.1556 -0.1653
   56MOL0     C 7296  -1.652   3.799   4.914  0.1220  1.4362 -0.0662
   56MOL0     C 7297  -1.746   3.773   5.022  0.3835  0.5037  0.3016
   56MOL0     C 7298  -1.891   3.799   4.976  0.3468  0.5168 -0.3928
   56MOL0     C 7299  -1.976   3.737   5.086  0.2833  0.5367  0.0709
   56MOL0     C 7300  -1.961   3.782   5.222 -0.1498  0.2780 -0.2017
   56MOL0     C 7301  -2.077   3.716   5.305 -0.1470  0.1344  0.3010
   56MOL0     C 7302  -2.073   3.760   5.455 -0.1328  0.1190 -0.1120
   56MOL0     C 7303  -2.069   3.909   5.485 -0.0928 -0.6327  1.1576
   56MOL0    Cl 7304  -2.180   3.943   5.620 -0.2479  0.0137  0.1910
   56MOL0     C 7305  -1.288   3.753   4.967  0.0943  0.3338  0.3430
   56MOL0     C 7306  -1.168   3.762   4.904 -0.3207  0.0398 -0.4662
   56MOL0     O 7307  -0.981   3.951   4.780  0.4568  0.2900  0.2311
   56MOL0     C 7308  -0.791   3.745   4.550 -0.3324 -0.8042  0.1409
   56MOL0     C 7309  -0.677   3.759   4.464  0.0133 -0.1093 -0.3860
   56MOL0     N 7310  -0.088   4.185   4.321  1.0471 -0.3727 -0.0227
   56MOL0     N 7311   0.034   4.232   4.298 -0.5365  0.2186  0.6732
   56MOL0     C 7312   0.307   4.718   3.824  0.1670 -0.6577 -0.4428
   56MOL0     C 7313   0.195   4.751   3.899  0.5663  0.7216 -0.6583
   56MOL0     C 7314  -0.063   4.997   4.176 -0.3273  0.3736  0.0296
   56MOL0     C 7315  -0.185   4.926   4.146  0.2758  0.6329 -0.1250
   56MOL0     C 7316  -0.289   4.914   4.246 -0.3836 -0.2716  1.1002
   56MOL0     C 7317  -0.267   4.975   4.370 -0.0861  0.3452 -0.3874
   56MOL0     O 7318  -0.377   4.945   4.459  0.3434  0.8143  0.7633
   56MOL0     C 7319  -0.478   5.050   4.469 -0.3548  0.3657 -0.6775
   56MOL0     C 7320  -0.613   4.979   4.468  0.6022  0.5887 -0.1150
   56MOL0     C 7321  -0.641   4.911   4.335 -0.6211  0.2109 -0.3900
   56MOL0     C 7322  -0.650   4.986   4.211  0.2929  0.8893 -0.2533
   56MOL0     C 7323  -0.750   5.092   4.219 -0.8882 -0.1696  1.0069
   56MOL0     C 7324  -0.820   5.184   4.224  0.0977 -0.8248 -0.2799
   56MOL0     C 7325  -0.153   5.047   4.405 -0.0577 -0.5133  0.0802
   56MOL0     C 7326  -0.044   5.052   4.312 -0.8092  0.3035  0.0263
   56MOL0     H 7327   0.195   5.086   3.853  2.1151  1.2870 -2.9134
   56MOL0     H 7328   0.423   5.031   3.742 -2.2261  0.3272 -2.1765
   56MOL0     H 7329   0.649   4.653   3.652  2.5514  0.8220  3.8336
   56MOL0     H 7330   0.486   4.591   3.688 -0.6507  0.0108 -0.4435
   56MOL0     H 7331   0.541   4.648   3.934  0.3956 -1.9141  0.8008
   56MOL0     H 7332   0.708   4.676   3.873 -0.1616 -0.9889  0.7682
   56MOL0     H 7333   0.761   4.470   3.869  0.4412  0.5483  1.5748
   56MOL0     H 7334   0.628   4.412   3.769  2.5735 -1.5459 -0.9290
   56MOL0     H 7335   0.627   4.295   3.953 -1.1311 -2.2050  1.6826
   56MOL0     H 7336   0.605   4.442   4.059  2.2084  2.5002 -1.7818
   56MOL0     H 7337   0.423   4.328   3.844  2.4834  1.1576 -1.3613
   56MOL0     H 7338   0.364   4.447   3.972  0.0410 -0.5072 -0.9682
   56MOL0     H 7339   0.411   4.265   4.143 -2.5544  3.3839  0.2134
   56MOL0     H 7340   0.437   4.157   4.001 -0.6334 -0.2727  0.4363
   56MOL0     H 7341   0.200   4.203   3.927  1.5374 -0.2491 -0.9989
   56MOL0     H 7342   0.207   4.114   4.076  4.0392 -1.3198 -4.2478
   56MOL0     H 7343   0.131   4.397   4.035 -2.9389 -0.6107  0.0868
   56MOL0     H 7344   0.227   4.350   4.182  0.5772 -1.2472 -0.7308
   56MOL0     H 7345  -0.119   4.263   4.004  1.9832 -2.2774 -2.4928
   56MOL0     H 7346  -0.340   4.238   4.106 -0.7728  1.9581  0.8206
   56MOL0     H 7347  -0.357   4.229   4.276  0.0845  1.3257 -0.9852
   56MOL0     H 7348  -0.267   4.010   4.088  1.2305 -1.9905  0.8354
   56MOL0     H 7349  -0.442   4.021   4.142 -0.5733  1.6165  0.6562
   56MOL0     H 7350  -0.313   3.831   4.238 -2.9599  1.5571 -2.4478
   56MOL0     H 7351  -0.199   3.942   4.323 -0.0570 -3.1546  0.3289
   56MOL0     H 7352  -0.418   4.049   4.433 -1.8088  0.4719 -2.0285
   56MOL0     H 7353  -0.365   3.895   4.483  1.3010  1.4351  0.9412
   56MOL0     H 7354  -0.633   4.099   4.501 -0.5595  0.0763 -1.3766
   56MOL0     H 7355  -0.807   4.072   4.658  0.1574 -2.0157  2.4372
   56MOL0     H 7356  -1.263   3.788   4.578 -0.7787 -2.5164 -0.6263
   56MOL0     H 7357  -1.486   3.796   4.687  0.7790  0.3931 -0.1046
   56MOL0     H 7358  -1.682   3.730   4.835  1.9679  3.1398 -2.4216
   56MOL0     H 7359  -1.662   3.906   4.896  1.0142  1.3173 -1.4703
   56MOL0     H 7360  -1.708   3.843   5.097 -0.3133  1.0762  0.1277
   56MOL0     H 7361  -1.742   3.671   5.060  3.1275 -1.4529 -4.4228
   56MOL0     H 7362  -1.908   3.753   4.879 -4.1066  2.2571 -0.6838
   56MOL0     H 7363  -1.908   3.907   4.967  0.9180  0.5773 -0.7706
   56MOL0     H 7364  -2.078   3.764   5.059  0.5769  1.1640 -0.4397
   56MOL0     H 7365  -1.962   3.629   5.077  3.8093  0.8986 -0.6519
   56MOL0     H 7366  -1.974   3.890   5.226 -2.2675  0.0333  2.2247
   56MOL0     H 7367  -1.866   3.751   5.267  0.7568  2.2168 -0.7110
   56MOL0     H 7368  -2.075   3.607   5.317  0.0464  0.4342  4.3477
   56MOL0     H 7369  -2.175   3.738   5.263 -1.4645  2.3184  4.0046
   56MOL0     H 7370  -2.162   3.720   5.503  2.4848 -3.0869  2.6192
   56MOL0     H 7371  -1.997   3.709   5.515 -2.4340  2.2818  5.2584
   56MOL0     H 7372  -2.099   3.965   5.396  1.4019 -2.5767 -0.6691
   56MOL0     H 7373  -1.970   3.952   5.501  0.9916 -1.2901 -2.8472
   56MOL0     H 7374  -1.285   3.753   5.076  0.4803  0.0612  0.3360
   56MOL0     H 7375  -1.073   3.772   4.954  0.0991 -0.0790 -1.2233
   56MOL0     H 7376  -0.823   3.642   4.567  3.1080 -1.9926  0.2382
   56MOL0     H 7377  -0.634   3.669   4.423 -0.6175  0.0587 -1.4357
   56MOL0     H 7378   0.325   4.613   3.806 -2.2915 -1.3658  0.7306
   56MOL0     H 7379   0.127   4.672   3.929 -0.6444  1.3667 -1.6103
   56MOL0     H 7380  -0.188   4.866   4.055  1.1918 -1.7246  1.2982
   56MOL0     H 7381  -0.367   4.843   4.223 -0.5676 -0.3495  1.9248
   56MOL0     H 7382  -0.473   5.116   4.382  0.2508  1.3137  0.0684
   56MOL0     H 7383  -0.458   5.103   4.562  3.4025 -3.1830  0.8006
   56MOL0     H 7384  -0.628   4.908   4.550 -1.5529 -0.2099 -1.1232
   56MOL0     H 7385  -0.695   5.050   4.484 -0.4688 -0.0635 -2.3668
   56MOL0     H 7386  -0.729   4.847   4.349  0.3070 -1.4167 -1.5963
   56MOL0     H 7387  -0.560   4.841   4.314 -0.3698  0.9294 -1.8932
   56MOL0     H 7388  -0.553   5.030   4.187  0.4231  0.6203 -0.2227
   56MOL0     H 7389  -0.682   4.918   4.131 -2.4528  1.4256  0.2819
   56MOL0     H 7390  -0.870   5.279   4.233  1.8655  0.0143  1.1160
   56MOL0     H 7391  -0.134   5.089   4.504  1.3441 -1.0830  0.0876
   56MOL0     H 7392   0.043   5.112   4.339 -1.5310  1.1086  0.6281
   57MOL0     O 7393   2.679   2.545  11.294  0.1194 -0.3247  0.1373
   57MOL0     C 7394   2.652   2.519  11.178 -0.1165 -0.6165  0.1175
   57MOL0     O 7395   2.602   2.614  11.087  0.2371  0.2460 -0.5893
   57MOL0     C 7396   2.593   2.751  11.119 -0.8314  1.1685 -0.2142
   57MOL0     C 7397   2.675   2.825  11.205  0.1729 -0.1663 -0.1069
   57MOL0     C 7398   2.674   2.960  11.204  0.1412 -0.3482  0.7266
   57MOL0     C 7399   2.597   3.028  11.106 -1.0654 -0.4981  0.2991
   57MOL0     O 7400   2.610   3.164  11.095 -1.5486  0.1653  0.2284
   57MOL0     C 7401   2.565   3.231  10.977 -0.0084 -0.8955  0.4162
   57MOL0     C 7402   2.558   3.375  11.011 -0.7144  0.1752 -0.0789
   57MOL0     C 7403   2.495   3.467  10.898  0.6166  1.1542 -0.6048
   57MOL0     C 7404   2.470   3.603  10.944  0.3335  0.5771  0.0803
   57MOL0     C 7405   2.524   3.712  10.839 -0.3882 -0.0326  0.1952
   57MOL0     C 7406   2.481   3.693  10.695  0.6346  0.0112 -0.0703
   57MOL0     C 7407   2.520   3.811  10.613 -0.7969 -0.3048 -0.4934
   57MOL0     C 7408   2.463   3.800  10.468 -0.5195 -0.3570 -0.4093
   57MOL0     N 7409   2.396   3.925  10.417  0.6989  0.0129 -0.5278
   57MOL0     C 7410   2.435   3.995  10.311 -0.3009 -0.6921 -0.6487
   57MOL0     C 7411   2.342   4.100  10.308 -0.5840 -0.3324  1.0636
   57MOL0     C 7412   2.342   4.214  10.208  0.2583 -0.3163  1.1351
   57MOL0     C 7413   2.459   4.298  10.202  0.3598 -0.2375  0.0507
   57MOL0     C 7414   2.516   4.346  10.327  0.3241 -0.2361 -0.9184
   57MOL0     C 7415   2.423   4.444  10.389 -0.3790  0.6326 -0.1125
   57MOL0     O 7416   2.484   4.489  10.519 -0.0014  0.6793  0.4140
   57MOL0     C 7417   2.435   4.434  10.639 -0.7151  0.2033 -0.0480
   57MOL0     C 7418   2.460   4.503  10.758 -0.2817 -0.2903 -0.4298
   57MOL0     C 7419   2.429   4.456  10.886 -0.6509 -0.0668  0.0871
   57MOL0     C 7420   2.390   4.321  10.900  0.5616 -0.3295  0.5252
   57MOL0     C 7421   2.361   4.264  11.033 -0.1427  0.2311 -1.0688
   57MOL0     O 7422   2.320   4.142  11.036  0.6155  0.3576 -0.6736
   57MOL0     C 7423   2.251   4.091  11.152 -0.5155  0.8804 -0.1388
   57MOL0     C 7424   2.126   4.123  11.181 -0.3019  0.0467  0.2905
   57MOL0     C 7425   2.066   4.085  11.305  0.7608 -0.3734  0.8458
   57MOL0     C 7426   2.140   4.028  11.400 -0.4466  0.4311 -0.1558
   57MOL0     O 7427   2.075   3.990  11.512 -0.3432  0.9031  0.3864
   57MOL0     C 7428   2.037   3.848  11.510 -0.3971  0.9494  1.1773
   57MOL0     C 7429   1.940   3.830  11.620 -0.5642 -0.1570 -0.2331
   57MOL0     C 7430   1.892   3.694  11.670 -0.2645 -1.0442 -0.6817
   57MOL0     C 7431   1.822   3.709  11.803  0.4174  0.1045 -0.0834
   57MOL0     C 7432   1.706   3.606  11.840 -0.5687 -0.6677  0.5272
   57MOL0     C 7433   1.764   3.458  11.836 -0.8429 -0.9974  0.4609
   57MOL0     C 7434   1.876   3.426  11.935  0.1653 -0.4403  0.3831
   57MOL0     C 7435   1.825   3.448  12.079  0.0315  0.8031  0.3881
   57MOL0    Cl 7436   1.686   3.343  12.128 -0.2142  0.1669  0.0270
   57MOL0     C 7437   2.276   4.009  11.376 -1.3179 -1.0043 -0.2002
   57MOL0     C 7438   2.338   4.042  11.254 -0.1671 -0.2596 -0.8112
   57MOL0     O 7439   2.374   4.339  11.129  0.7357 -0.0190 -0.4220
   57MOL0     C 7440   2.372   4.245  10.781 -0.3187 -0.0545 -0.0189
   57MOL0     C 7441   2.386   4.303  10.662  0.4013  0.7289  0.0869
   57MOL0     N 7442   2.262   4.092  10.412  0.5437 -0.2212  0.1050
   57MOL0     N 7443   2.292   3.990  10.472 -0.4707  0.6270  0.5317
   57MOL0     C 7444   2.500   2.953  11.032 -1.2886  0.5549 -0.5228
   57MOL0     C 7445   2.504   2.816  11.036  0.6345 -0.6657 -0.8473
   57MOL0     C 7446   2.664   2.379  11.146  0.1477  0.4340  0.2204
   57MOL0     C 7447   2.682   2.289  11.248 -0.5610  0.6611 -0.0005
   57MOL0     C 7448   2.704   2.154  11.205  1.4049  0.0788 -0.5277
   57MOL0     C 7449   2.686   2.114  11.073  0.4173 -0.1767  0.4686
   57MOL0     O 7450   2.724   1.989  11.045 -0.0805 -0.3069  1.2310
   57MOL0     C 7451   2.647   1.884  10.989 -0.3921 -0.0429  0.8144
   57MOL0     C 7452   2.570   1.797  11.090  1.0199  0.3605 -0.2796
   57MOL0     C 7453   2.545   1.655  11.037  0.3501  0.9512 -0.9074
   57MOL0     C 7454   2.488   1.647  10.893  0.5360  0.7297 -0.3029
   57MOL0     C 7455   2.362   1.574  10.898  1.1052  0.2577 -0.5855
   57MOL0     C 7456   2.249   1.535  10.923 -0.1857  0.1644 -0.4687
   57MOL0     C 7457   2.664   2.213  10.982  0.6251 -0.0327 -0.1664
   57MOL0     C 7458   2.655   2.346  11.017 -0.3565  0.8395 -0.6168
   57MOL0     H 7459   2.739   2.774  11.277 -0.5612 -0.9309  0.0089
   57MOL0     H 7460   2.750   3.005  11.267 -0.4719  0.6627  0.7807
   57MOL0     H 7461   2.467   3.196  10.943  0.8053 -1.5424 -1.4117
   57MOL0     H 7462   2.634   3.217  10.893  0.0892 -0.8865  0.4943
   57MOL0     H 7463   2.661   3.409  11.022 -0.0126 -1.0615 -2.3633
   57MOL0     H 7464   2.511   3.386  11.110  0.7718  0.9719  0.5720
   57MOL0     H 7465   2.402   3.413  10.877  1.0977 -0.0864  0.2998
   57MOL0     H 7466   2.561   3.469  10.811 -0.9466 -1.3295 -1.9765
   57MOL0     H 7467   2.364   3.608  10.971  0.2546 -2.5763  0.7642
   57MOL0     H 7468   2.525   3.623  11.036  2.1608  3.9356 -1.5452
   57MOL0     H 7469   2.632   3.729  10.838 -0.6988  2.3065 -0.2959
   57MOL0     H 7470   2.501   3.809  10.884  2.5083 -0.0418  1.9285
   57MOL0     H 7471   2.372   3.689  10.682  0.5284  2.6332 -0.5624
   57MOL0     H 7472   2.533   3.609  10.650  0.7889 -1.1057  2.0468
   57MOL0     H 7473   2.474   3.902  10.653  0.6397 -1.0905  3.3609
   57MOL0     H 7474   2.629   3.811  10.602 -0.5847  0.9823  1.1762
   57MOL0     H 7475   2.384   3.727  10.484  0.8126 -1.6184  0.7111
   57MOL0     H 7476   2.535   3.751  10.402  1.3159  0.0316  1.2226
   57MOL0     H 7477   2.509   3.983  10.232  0.9356  0.9379  0.1989
   57MOL0     H 7478   2.254   4.276  10.228  0.7602  0.8915 -0.2831
   57MOL0     H 7479   2.315   4.177  10.109  1.1232 -0.7925  1.0700
   57MOL0     H 7480   2.436   4.387  10.141 -0.2886  0.3952  1.1867
   57MOL0     H 7481   2.545   4.241  10.167  0.2815 -0.6216  0.4833
   57MOL0     H 7482   2.533   4.267  10.401  0.8765 -0.3294 -1.1392
   57MOL0     H 7483   2.606   4.401  10.297 -2.0913  3.1922 -2.5124
   57MOL0     H 7484   2.322   4.405  10.400  0.2392 -0.7671  0.8542
   57MOL0     H 7485   2.419   4.538  10.333 -0.7676  1.2378  0.8871
   57MOL0     H 7486   2.496   4.605  10.749  0.2698 -0.5733 -1.6261
   57MOL0     H 7487   2.437   4.513  10.978  0.7390  2.0229 -1.2294
   57MOL0     H 7488   2.071   4.159  11.094  1.8905 -0.3672 -1.3448
   57MOL0     H 7489   1.962   4.113  11.321  0.7658  0.9873 -1.0817
   57MOL0     H 7490   2.126   3.786  11.519  0.2122  1.5465 -0.2782
   57MOL0     H 7491   1.988   3.825  11.414 -0.3750  0.7378  1.2163
   57MOL0     H 7492   1.854   3.891  11.592  0.9983  0.7651 -3.5795
   57MOL0     H 7493   1.993   3.889  11.696 -1.3300  1.4010 -0.8690
   57MOL0     H 7494   1.971   3.618  11.678  1.5091  0.8412  0.9677
   57MOL0     H 7495   1.821   3.653  11.597  1.4056 -3.5175 -1.0740
   57MOL0     H 7496   1.903   3.718  11.876 -0.8846 -1.4410  1.6855
   57MOL0     H 7497   1.770   3.803  11.826  3.5457  1.9289  0.0134
   57MOL0     H 7498   1.638   3.623  11.756 -1.0316 -0.4452  0.9421
   57MOL0     H 7499   1.652   3.628  11.932 -2.3773  0.0876 -0.6767
   57MOL0     H 7500   1.810   3.445  11.738 -0.3036 -0.1494  0.5864
   57MOL0     H 7501   1.681   3.390  11.856 -1.4286 -0.9294 -1.5623
   57MOL0     H 7502   1.894   3.319  11.921  0.8378 -0.3941  0.8299
   57MOL0     H 7503   1.963   3.491  11.923 -0.9559  1.0190 -0.1331
   57MOL0     H 7504   1.805   3.553  12.098 -0.8122  0.5926  0.7134
   57MOL0     H 7505   1.908   3.411  12.140  2.2577  3.4693 -0.8472
   57MOL0     H 7506   2.349   3.976  11.448  0.9932 -0.8266 -2.3438
   57MOL0     H 7507   2.446   4.038  11.256 -0.0874  1.0422 -1.4859
   57MOL0     H 7508   2.327   4.148  10.800 -1.6931  1.1545  3.7690
   57MOL0     H 7509   2.373   4.229  10.584  0.7122  0.6809  0.0793
   57MOL0     H 7510   2.433   2.995  10.957 -2.0434  1.7541  0.7739
   57MOL0     H 7511   2.434   2.769  10.967 -2.0803  0.4367  1.0272
   57MOL0     H 7512   2.700   2.329  11.347  0.5480  0.3764 -0.0690
   57MOL0     H 7513   2.716   2.084  11.288 -0.0536 -0.9105 -1.0950
   57MOL0     H 7514   2.703   1.809  10.933 -0.2093 -0.3357  1.3822
   57MOL0     H 7515   2.570   1.919  10.920  1.4650 -0.6607 -1.7045
   57MOL0     H 7516   2.639   1.768  11.169  2.7368 -5.0689 -3.2075
   57MOL0     H 7517   2.475   1.830  11.134  3.1346  2.7606  2.9309
   57MOL0     H 7518   2.496   1.606  11.122  2.0892  1.6520  0.5633
   57MOL0     H 7519   2.640   1.602  11.029 -0.7172 -1.2960  0.2035
   57MOL0     H 7520   2.468   1.746  10.851 -2.4132 -0.2640 -1.4982
   57MOL0     H 7521   2.560   1.601  10.825 -1.5329 -1.6460 -1.0431
   57MOL0     H 7522   2.150   1.499  10.942  0.1041  0.2701  1.4543
   57MOL0     H 7523   2.650   2.179  10.879 -0.7353  0.2319 -0.0978
   57MOL0     H 7524   2.645   2.425  10.943 -0.9728 -1.1663 -2.7971
   58MOL0     O 7525  10.238   9.862   3.779 -0.2374 -0.6403 -0.1494
   58MOL0     C 7526  10.337   9.800   3.828 -0.2321 -0.2391  0.3045
   58MOL0     O 7527  10.454   9.862   3.867 -0.2832 -0.3666 -0.0079
   58MOL0     C 7528  10.480   9.991   3.818 -0.2965 -0.0287 -0.8666
   58MOL0     C 7529  10.593  10.049   3.894  0.2759 -0.3909  1.1063
   58MOL0     C 7530  10.636  10.180   3.862 -0.4685 -0.6588 -0.1951
   58MOL0     C 7531  10.594  10.243   3.747  1.2059 -0.2781  0.3762
   58MOL0     O 7532  10.650  10.366   3.723 -0.2856  0.3391 -0.1127
   58MOL0     C 7533  10.670  10.412   3.594 -0.1069  1.1325 -0.5547
   58MOL0     C 7534  10.788  10.517   3.596  0.1031  1.5178  0.2288
   58MOL0     C 7535  10.735  10.662   3.630 -0.3560 -0.3564 -0.2916
   58MOL0     C 7536  10.692  10.674   3.779  0.0851  0.6854 -0.7674
   58MOL0     C 7537  10.752  10.799   3.831 -0.2156  0.9067 -0.1126
   58MOL0     C 7538  10.729  10.812   3.989  0.0491 -0.0410  0.6068
   58MOL0     C 7539  10.825  10.926   4.041  0.3299 -0.2127  0.9248
   58MOL0     C 7540  10.802  10.975   4.189  0.2771  0.3038  0.4064
   58MOL0     N 7541  10.850  11.114   4.229  0.0783 -0.0054  0.3388
   58MOL0     C 7542  10.969  11.169   4.194  0.1250  0.4315 -0.5198
   58MOL0     C 7543  10.952  11.289   4.243  0.4199  0.0319  0.0906
   58MOL0     C 7544  11.048  11.398   4.237  0.0937 -0.5620 -0.1261
   58MOL0     C 7545  11.083  11.460   4.376  1.7155 -0.1766 -0.2935
   58MOL0     C 7546  11.201  11.392   4.449  0.4175 -0.4082  0.1097
   58MOL0     C 7547  11.227  11.466   4.583  0.3139 -0.8374 -0.1132
   58MOL0     O 7548  11.310  11.576   4.538 -0.4495 -0.2665 -0.8204
   58MOL0     C 7549  11.324  11.683   4.623  0.5558  0.7369 -0.8366
   58MOL0     C 7550  11.301  11.678   4.764  0.3051  0.9322  0.0675
   58MOL0     C 7551  11.299  11.796   4.849 -0.5465  0.4675 -0.0514
   58MOL0     C 7552  11.312  11.920   4.792 -0.2409 -0.0131  0.1469
   58MOL0     C 7553  11.301  12.042   4.887  0.8690  0.1171  0.1798
   58MOL0     O 7554  11.216  12.141   4.841 -0.1002  0.6830  0.1558
   58MOL0     C 7555  11.150  12.232   4.914 -0.3644 -0.0136 -0.2905
   58MOL0     C 7556  11.125  12.363   4.857  0.0418  0.5388  0.3453
   58MOL0     C 7557  11.050  12.461   4.919  0.6075 -0.4975  0.7234
   58MOL0     C 7558  11.010  12.437   5.053 -0.4920  0.0899  0.5410
   58MOL0     O 7559  10.928  12.527   5.117  0.2156  0.9214 -0.5115
   58MOL0     C 7560  10.846  12.617   5.033 -0.4542 -0.0383  0.1246
   58MOL0     C 7561  10.744  12.691   5.112 -1.4671  0.4823  0.5280
   58MOL0     C 7562  10.641  12.593   5.156 -0.3996 -0.2831  0.1386
   58MOL0     C 7563  10.562  12.643   5.264  0.0490 -0.2526 -0.0593
   58MOL0     C 7564  10.456  12.738   5.210  0.1354 -1.0545  0.1262
   58MOL0     C 7565  10.356  12.782   5.312 -0.0239  0.3289  0.2598
   58MOL0     C 7566  10.284  12.675   5.400  0.6245  0.7315  0.6552
   58MOL0     C 7567  10.157  12.739   5.468 -0.2936  0.3497  0.8153
   58MOL0    Cl 7568  10.056  12.840   5.361  0.0225 -0.1291 -0.4180
   58MOL0     C 7569  11.030  12.310   5.104 -0.2041 -0.3830 -0.7426
   58MOL0     C 7570  11.097  12.207   5.041  0.4727 -0.2304  0.7216
   58MOL0     O 7571  11.352  12.049   4.993 -0.4834  0.5618  0.4419
   58MOL0     C 7572  11.330  11.923   4.651 -0.1918 -0.4800 -0.4736
   58MOL0     C 7573  11.336  11.813   4.570  0.1355 -0.3850  0.2593
   58MOL0     N 7574  10.826  11.302   4.307  1.0642  0.4279 -0.3358
   58MOL0     N 7575  10.762  11.193   4.293  0.6334 -1.0097 -0.5716
   58MOL0     C 7576  10.485  10.194   3.683  0.3023  0.2990  0.6062
   58MOL0     C 7577  10.423  10.072   3.718  0.0762  0.4916  0.1003
   58MOL0     C 7578  10.309   9.655   3.853  0.5229  0.1556  1.1126
   58MOL0     C 7579  10.391   9.559   3.920 -0.4600  0.1373  0.3222
   58MOL0     C 7580  10.342   9.422   3.939 -0.3926 -1.3701 -0.8537
   58MOL0     C 7581  10.220   9.378   3.902 -0.8654  0.0720 -0.3256
   58MOL0     O 7582  10.191   9.245   3.928 -0.5310 -0.2950 -0.2763
   58MOL0     C 7583  10.120   9.178   3.834  0.3117  0.7461 -0.0075
   58MOL0     C 7584   9.968   9.181   3.867 -0.3494  0.3110 -0.6567
   58MOL0     C 7585   9.950   9.078   3.980 -0.2058  0.3056  0.3222
   58MOL0     C 7586   9.981   8.926   3.923 -0.5072 -0.8833  0.3286
   58MOL0     C 7587   9.901   8.891   3.807  0.6049  0.0450  0.0404
   58MOL0     C 7588   9.840   8.853   3.707 -0.9572  0.6333 -0.0248
   58MOL0     C 7589  10.137   9.468   3.836  0.7728 -0.1233  0.1728
   58MOL0     C 7590  10.187   9.595   3.805  0.2716 -0.4073  0.4147
   58MOL0     H 7591  10.623  10.000   3.987  0.3423 -1.7536  0.3918
   58MOL0     H 7592  10.716  10.224   3.920 -1.5797 -0.6860  1.4289
   58MOL0     H 7593  10.574  10.444   3.555  0.3264  3.3135  0.0527
   58MOL0     H 7594  10.711  10.322   3.547 -2.0443 -1.5271  2.3773
   58MOL0     H 7595  10.831  10.523   3.496  1.8547  3.1973  1.0124
   58MOL0     H 7596  10.860  10.488   3.674 -2.4278 -0.5379  1.9531
   58MOL0     H 7597  10.655  10.706   3.569  1.0342  1.3165 -0.9850
   58MOL0     H 7598  10.825  10.722   3.614 -0.6680  0.0959 -0.4000
   58MOL0     H 7599  10.584  10.679   3.797 -0.1784 -0.3382 -1.9557
   58MOL0     H 7600  10.733  10.585   3.830  1.2235  1.1954 -0.7657
   58MOL0     H 7601  10.722  10.891   3.780 -0.9316  0.5803 -0.2955
   58MOL0     H 7602  10.860  10.789   3.817  0.1003  3.0012  0.5267
   58MOL0     H 7603  10.757  10.718   4.037  0.2250  0.0882  0.7641
   58MOL0     H 7604  10.625  10.837   4.012 -0.9407  0.1812 -3.4331
   58MOL0     H 7605  10.929  10.896   4.028 -0.1020 -1.3913  0.0140
   58MOL0     H 7606  10.818  11.014   3.976  1.3269 -0.1736  0.8501
   58MOL0     H 7607  10.839  10.899   4.258 -4.8302 -2.4667  0.5608
   58MOL0     H 7608  10.693  10.984   4.197 -0.1269 -0.2060 -2.9658
   58MOL0     H 7609  11.048  11.116   4.143 -0.1638  0.7328 -1.2973
   58MOL0     H 7610  11.009  11.478   4.173  2.3413 -0.4244 -1.4529
   58MOL0     H 7611  11.141  11.366   4.189 -1.8521 -3.1571 -2.5351
   58MOL0     H 7612  10.994  11.456   4.439 -0.7598  0.2556 -3.4677
   58MOL0     H 7613  11.116  11.562   4.352  2.5520 -0.3218  0.2063
   58MOL0     H 7614  11.179  11.286   4.463  0.7081 -0.2680  1.8152
   58MOL0     H 7615  11.289  11.398   4.385  2.1296  0.5339  2.3940
   58MOL0     H 7616  11.276  11.402   4.656  1.6680 -0.6915 -0.8727
   58MOL0     H 7617  11.134  11.500   4.630  0.8054 -1.8618  1.6923
   58MOL0     H 7618  11.293  11.583   4.817 -0.9623  2.4606  2.8179
   58MOL0     H 7619  11.292  11.774   4.955  1.8014  2.2556  0.5549
   58MOL0     H 7620  11.152  12.371   4.752 -2.9028 -1.2297 -0.6525
   58MOL0     H 7621  11.026  12.551   4.864 -2.5933 -1.1149  0.8984
   58MOL0     H 7622  10.796  12.570   4.948  1.2426  1.0126 -1.5452
   58MOL0     H 7623  10.917  12.686   4.986  3.4711 -3.5129  0.3565
   58MOL0     H 7624  10.695  12.762   5.045 -1.8344  0.9889  1.3305
   58MOL0     H 7625  10.785  12.758   5.188 -0.9824  1.1534 -0.3079
   58MOL0     H 7626  10.688  12.498   5.181  1.6479 -0.3275 -3.2726
   58MOL0     H 7627  10.578  12.560   5.072 -1.1153 -1.2265  1.0148
   58MOL0     H 7628  10.514  12.552   5.300  1.8315 -1.5066 -0.7199
   58MOL0     H 7629  10.627  12.684   5.341  2.4721 -0.5052 -1.8406
   58MOL0     H 7630  10.407  12.686   5.127  0.7428 -1.3709 -0.0385
   58MOL0     H 7631  10.496  12.832   5.172 -2.2739 -0.4009 -1.0034
   58MOL0     H 7632  10.290  12.850   5.258  1.5453  1.6799 -0.0462
   58MOL0     H 7633  10.418  12.843   5.379 -0.1353  0.1638  0.5115
   58MOL0     H 7634  10.255  12.590   5.338 -0.5239  0.2950  1.7414
   58MOL0     H 7635  10.351  12.651   5.483 -1.8951  0.9553  2.9039
   58MOL0     H 7636  10.198  12.798   5.550  0.5724 -1.2820  1.6102
   58MOL0     H 7637  10.097  12.658   5.511  0.3081 -0.9386 -0.6695
   58MOL0     H 7638  10.972  12.277   5.190  1.3792 -1.8509 -0.1742
   58MOL0     H 7639  11.089  12.102   5.069  1.9917 -1.2554 -2.2349
   58MOL0     H 7640  11.350  12.020   4.606  0.9847  0.8502  2.6441
   58MOL0     H 7641  11.357  11.819   4.463 -1.9952  1.6051 -0.1136
   58MOL0     H 7642  10.442  10.258   3.606 -1.2659 -0.2305  1.0139
   58MOL0     H 7643  10.328  10.041   3.675 -1.2259 -0.5790  3.4120
   58MOL0     H 7644  10.484   9.586   3.969 -1.2221  1.0113  1.3648
   58MOL0     H 7645  10.403   9.352   3.994 -0.5917 -1.8653 -1.2606
   58MOL0     H 7646  10.162   9.077   3.839  0.0469  0.6811  1.4749
   58MOL0     H 7647  10.135   9.224   3.736 -0.6931  0.5485 -0.2592
   58MOL0     H 7648   9.939   9.284   3.885  1.5526  0.6833  0.5690
   58MOL0     H 7649   9.917   9.144   3.777  1.1903  1.0510 -1.8779
   58MOL0     H 7650   9.845   9.083   4.009 -0.6615  2.7836 -1.3959
   58MOL0     H 7651  10.007   9.092   4.072  1.2978  0.8694 -0.6481
   58MOL0     H 7652  10.085   8.899   3.901  0.4034  0.9386  2.1075
   58MOL0     H 7653   9.963   8.848   3.998 -0.3994 -0.5241  0.7309
   58MOL0     H 7654   9.808   8.803   3.618  1.4352 -2.4553  0.6938
   58MOL0     H 7655  10.048   9.443   3.779  0.4037  3.9023 -1.3812
   58MOL0     H 7656  10.128   9.665   3.747  2.4350  2.3851  1.3998
   59MOL0     O 7657   4.150   2.342   2.832 -0.2328  0.1843 -0.1469
   59MOL0     C 7658   4.134   2.449   2.895  0.3770  0.0297 -0.0443
   59MOL0     O 7659   4.200   2.565   2.860  0.0064 -0.6424 -0.3806
   59MOL0     C 7660   4.300   2.577   2.759  0.1987  0.1977  0.7860
   59MOL0     C 7661   4.425   2.629   2.792  0.0397 -1.0294  0.0382
   59MOL0     C 7662   4.520   2.636   2.694  0.3578  0.2333 -0.5675
   59MOL0     C 7663   4.513   2.570   2.570  0.0560 -0.2634 -0.0924
   59MOL0     O 7664   4.618   2.581   2.469 -0.0800 -0.8021  0.1518
   59MOL0     C 7665   4.674   2.458   2.414  0.5729 -0.1149 -0.1590
   59MOL0     C 7666   4.766   2.468   2.297 -0.3372 -0.3066  0.5290
   59MOL0     C 7667   4.801   2.331   2.232 -0.2386  0.3382  0.2724
   59MOL0     C 7668   4.948   2.320   2.181 -0.4723  0.4751 -0.7063
   59MOL0     C 7669   4.974   2.173   2.150  0.1538  0.1289 -0.4803
   59MOL0     C 7670   5.112   2.147   2.097 -0.2744 -0.1739 -0.0821
   59MOL0     C 7671   5.147   1.997   2.115  0.3851 -0.2236 -0.0511
   59MOL0     C 7672   5.266   1.960   2.029  0.1763 -0.3792  0.4636
   59MOL0     N 7673   5.382   2.038   2.071 -0.4841  1.2624  0.5810
   59MOL0     C 7674   5.459   2.022   2.187  0.3219 -0.5829  0.5787
   59MOL0     C 7675   5.574   2.086   2.152 -1.3853  0.3932  0.1888
   59MOL0     C 7676   5.708   2.077   2.224 -0.4985  0.0653 -0.5729
   59MOL0     C 7677   5.824   2.107   2.121  0.2215  0.3807  0.2108
   59MOL0     C 7678   5.963   2.069   2.178 -0.4482 -0.6348  0.5506
   59MOL0     C 7679   6.000   1.926   2.159 -0.4327 -0.7106 -0.2821
   59MOL0     O 7680   6.131   1.887   2.209  0.2459  0.3503 -0.0848
   59MOL0     C 7681   6.164   1.761   2.191  0.6748  0.2185  0.2159
   59MOL0     C 7682   6.299   1.736   2.221  0.0753 -0.3939 -0.7336
   59MOL0     C 7683   6.342   1.610   2.237  0.2479  0.0135  0.6021
   59MOL0     C 7684   6.252   1.502   2.205  0.6164 -0.3503  0.1674
   59MOL0     C 7685   6.300   1.366   2.186  0.0066 -0.5930 -0.0513
   59MOL0     O 7686   6.437   1.356   2.160 -0.3587 -0.2957  0.3779
   59MOL0     C 7687   6.482   1.231   2.118 -0.5005 -0.0353 -0.2355
   59MOL0     C 7688   6.446   1.183   1.991 -0.5320  0.2855  0.7694
   59MOL0     C 7689   6.490   1.063   1.944  0.0746 -0.0188  0.4337
   59MOL0     C 7690   6.571   0.981   2.025  0.0913 -0.5050  0.8784
   59MOL0     O 7691   6.638   0.876   1.972 -0.6077  0.7111  0.1638
   59MOL0     C 7692   6.577   0.753   1.941  0.2568 -0.0494 -0.7487
   59MOL0     C 7693   6.684   0.651   1.899 -0.3631 -0.6640 -0.5305
   59MOL0     C 7694   6.804   0.623   1.994  0.3122  0.2225 -0.3833
   59MOL0     C 7695   6.885   0.514   1.925 -0.0944 -0.0421 -0.9978
   59MOL0     C 7696   7.017   0.527   1.999 -0.2553  0.5137  1.2685
   59MOL0     C 7697   7.142   0.477   1.910  0.0573  0.0446  0.1573
   59MOL0     C 7698   7.162   0.583   1.795 -0.2691  0.1320  0.3840
   59MOL0     C 7699   7.306   0.558   1.754  0.8927  1.2174  0.0813
   59MOL0    Cl 7700   7.329   0.666   1.620  0.2083 -0.2997  0.2310
   59MOL0     C 7701   6.610   1.031   2.149  0.1456 -0.2745  0.3512
   59MOL0     C 7702   6.559   1.156   2.201 -0.3764  0.8461  0.1923
   59MOL0     O 7703   6.224   1.273   2.206  0.4347  0.0662  0.2426
   59MOL0     C 7704   6.120   1.530   2.159  0.0612  0.7660 -0.4610
   59MOL0     C 7705   6.078   1.663   2.149  0.4370  0.6128 -1.1193
   59MOL0     N 7706   5.552   2.149   2.037  0.5658  0.1428  0.0708
   59MOL0     N 7707   5.443   2.119   1.984 -0.0195 -0.4247 -0.1382
   59MOL0     C 7708   4.397   2.500   2.539  0.4707 -0.0491 -0.0875
   59MOL0     C 7709   4.295   2.503   2.638  0.0420  0.2294  0.1917
   59MOL0     C 7710   4.049   2.442   3.021  0.2770  0.6726 -0.1749
   59MOL0     C 7711   3.929   2.518   3.044  0.4166 -0.1346 -0.2945
   59MOL0     C 7712   3.846   2.482   3.143  1.0088 -0.1251  0.1340
   59MOL0     C 7713   3.875   2.367   3.228  0.8304  0.3505 -1.0058
   59MOL0     O 7714   3.792   2.324   3.340 -0.8347  0.4941 -0.2107
   59MOL0     C 7715   3.680   2.399   3.381 -0.2755  0.7855 -0.1946
   59MOL0     C 7716   3.590   2.312   3.476 -1.0180  0.1621  0.5581
   59MOL0     C 7717   3.476   2.236   3.404  0.4407 -0.6984  1.0802
   59MOL0     C 7718   3.383   2.163   3.509  1.5529 -0.3103 -0.4758
   59MOL0     C 7719   3.298   2.262   3.577 -0.1371 -0.1779 -0.7202
   59MOL0     C 7720   3.218   2.351   3.608 -0.1533  0.4306  0.2816
   59MOL0     C 7721   3.998   2.294   3.205 -0.0591 -0.5121  0.2916
   59MOL0     C 7722   4.069   2.322   3.092 -0.3998 -0.5175 -0.7826
   59MOL0     H 7723   4.456   2.684   2.881  1.6675 -2.1609  0.2208
   59MOL0     H 7724   4.612   2.692   2.709  2.1327 -2.5112 -0.5790
   59MOL0     H 7725   4.595   2.388   2.384  1.6960 -0.7753 -1.7294
   59MOL0     H 7726   4.726   2.413   2.499  1.3316  3.2644  1.3380
   59MOL0     H 7727   4.864   2.505   2.330 -1.2814  1.1475  1.8620
   59MOL0     H 7728   4.724   2.517   2.210 -0.4684 -3.0569 -1.0680
   59MOL0     H 7729   4.728   2.304   2.155 -0.3002  2.0347 -0.3265
   59MOL0     H 7730   4.782   2.258   2.311  1.1655 -1.9635 -1.4009
   59MOL0     H 7731   4.964   2.374   2.088  2.3259 -1.3514 -1.4064
   59MOL0     H 7732   5.011   2.362   2.260 -1.5494 -1.3334  1.2539
   59MOL0     H 7733   4.906   2.142   2.071  3.4725 -1.1301 -3.1112
   59MOL0     H 7734   4.949   2.107   2.234 -3.8864  1.2088 -0.6554
   59MOL0     H 7735   5.186   2.217   2.138  1.6688 -0.8110 -2.2750
   59MOL0     H 7736   5.127   2.163   1.989  3.7386  1.2612  0.5105
   59MOL0     H 7737   5.182   1.990   2.218  2.4623  3.6929 -0.2703
   59MOL0     H 7738   5.062   1.930   2.100  1.2233 -1.6487  1.2718
   59MOL0     H 7739   5.238   1.989   1.927  2.2154  1.9938  0.4736
   59MOL0     H 7740   5.295   1.855   2.028  1.9086  0.0575 -0.6139
   59MOL0     H 7741   5.450   1.965   2.279 -0.5566  1.1603  1.6297
   59MOL0     H 7742   5.720   1.988   2.287 -2.3742 -1.1034 -1.7462
   59MOL0     H 7743   5.703   2.156   2.300 -0.5868  0.5815 -1.1078
   59MOL0     H 7744   5.823   2.212   2.090 -0.1713  0.7654  1.4772
   59MOL0     H 7745   5.806   2.043   2.034  0.7116 -2.0720  1.8408
   59MOL0     H 7746   6.043   2.129   2.134 -0.4921 -2.6279 -2.6464
   59MOL0     H 7747   5.948   2.103   2.280  0.5744  0.6824  0.2861
   59MOL0     H 7748   5.996   1.893   2.055  0.2839 -1.0012 -0.2178
   59MOL0     H 7749   5.918   1.873   2.209  0.0969 -1.8272 -0.5654
   59MOL0     H 7750   6.358   1.818   2.262 -3.7642  1.3258  1.9250
   59MOL0     H 7751   6.439   1.602   2.285  0.2529  2.4131  1.1264
   59MOL0     H 7752   6.391   1.247   1.922  0.4950 -0.5427 -0.8950
   59MOL0     H 7753   6.473   1.056   1.837  1.9684  3.6368 -0.2640
   59MOL0     H 7754   6.506   0.750   1.857 -0.7864 -3.3117  0.0919
   59MOL0     H 7755   6.527   0.721   2.032  0.6151  0.9205 -0.1991
   59MOL0     H 7756   6.733   0.695   1.812  2.3120 -1.5926  0.4093
   59MOL0     H 7757   6.630   0.559   1.873 -1.4965  0.0448 -0.7619
   59MOL0     H 7758   6.765   0.592   2.091 -1.9241  0.6630 -1.0771
   59MOL0     H 7759   6.860   0.716   2.002 -1.3497  1.2554 -0.2499
   59MOL0     H 7760   6.837   0.417   1.936 -2.9404  0.9414 -3.3576
   59MOL0     H 7761   6.911   0.533   1.820  0.7540  2.9176 -0.3642
   59MOL0     H 7762   7.000   0.471   2.091 -2.9357 -1.8542 -0.5030
   59MOL0     H 7763   7.046   0.628   2.028  1.8218  0.2418  0.2845
   59MOL0     H 7764   7.136   0.376   1.870  0.8033 -0.1751  0.5834
   59MOL0     H 7765   7.232   0.469   1.971  0.2401 -2.5840 -0.3459
   59MOL0     H 7766   7.087   0.577   1.716 -0.4007  1.6337  0.3689
   59MOL0     H 7767   7.167   0.683   1.839  0.8921  1.0115 -1.6288
   59MOL0     H 7768   7.318   0.456   1.716 -0.1947  1.3733 -0.7393
   59MOL0     H 7769   7.385   0.572   1.829 -0.8384  0.5444  2.1127
   59MOL0     H 7770   6.691   0.980   2.201  0.4772  0.9518  1.0742
   59MOL0     H 7771   6.593   1.189   2.298  1.9663 -0.8988  0.0450
   59MOL0     H 7772   6.040   1.458   2.145  1.7962 -1.4552  0.4608
   59MOL0     H 7773   5.977   1.678   2.113  0.8878 -0.2023 -2.8272
   59MOL0     H 7774   4.395   2.453   2.441  2.9811  2.8381 -1.7013
   59MOL0     H 7775   4.209   2.440   2.619 -0.6483  1.1445  0.1675
   59MOL0     H 7776   3.912   2.605   2.982 -0.9936 -2.7002 -3.8883
   59MOL0     H 7777   3.763   2.550   3.151  1.7645  1.0329 -1.3644
   59MOL0     H 7778   3.624   2.437   3.295  0.4695 -0.1881 -1.1265
   59MOL0     H 7779   3.697   2.485   3.447  0.2635  1.2533 -0.9375
   59MOL0     H 7780   3.657   2.243   3.527 -2.6502  0.5202  3.3973
   59MOL0     H 7781   3.539   2.387   3.538 -1.3930  1.5737 -1.3281
   59MOL0     H 7782   3.515   2.167   3.329  0.2777  0.2607  0.0888
   59MOL0     H 7783   3.419   2.312   3.350  2.8900  0.1211 -0.5162
   59MOL0     H 7784   3.310   2.095   3.464  0.5536  0.8854 -0.7122
   59MOL0     H 7785   3.445   2.117   3.587  1.9921 -1.2939 -1.3766
   59MOL0     H 7786   3.144   2.420   3.643 -2.8894 -1.5951 -1.0397
   59MOL0     H 7787   4.033   2.213   3.268  1.2657  0.3666  0.7234
   59MOL0     H 7788   4.138   2.243   3.065 -0.2092 -0.5771 -0.1355
   60MOL0     O 7789   0.671   8.807   4.678 -0.8153  0.6365  0.3366
   60MOL0     C 7790   0.707   8.817   4.560 -0.2400  0.6631  0.1382
   60MOL0     O 7791   0.790   8.908   4.503  0.3467  0.0072  0.3580
   60MOL0     C 7792   0.856   8.991   4.591 -0.6231 -0.5766  0.2899
   60MOL0     C 7793   0.835   9.131   4.593  0.4294  0.2260 -0.9795
   60MOL0     C 7794   0.886   9.213   4.684 -0.7378 -0.1994  1.2772
   60MOL0     C 7795   0.977   9.167   4.783  1.8333 -0.7102  1.0882
   60MOL0     O 7796   1.058   9.236   4.865 -0.5874 -0.4405 -0.1205
   60MOL0     C 7797   1.104   9.356   4.830  0.2544  1.0843  0.4699
   60MOL0     C 7798   1.223   9.413   4.915  0.4689  0.4926  0.1377
   60MOL0     C 7799   1.218   9.397   5.060  0.4141 -0.4915  0.4428
   60MOL0     C 7800   1.328   9.465   5.139 -0.4991  0.1885 -0.4363
   60MOL0     C 7801   1.353   9.412   5.282  0.5388  0.3629 -0.9335
   60MOL0     C 7802   1.242   9.457   5.371  0.5704  0.5658 -0.3823
   60MOL0     C 7803   1.255   9.375   5.506  0.5701 -0.3882 -0.4384
   60MOL0     C 7804   1.118   9.348   5.558 -0.0738 -0.0393  1.0916
   60MOL0     N 7805   1.129   9.297   5.698 -0.9339  0.4322  0.2982
   60MOL0     C 7806   1.069   9.360   5.807 -0.4134  0.6254  0.3775
   60MOL0     C 7807   1.100   9.283   5.909  0.1401  0.1283 -1.2520
   60MOL0     C 7808   1.053   9.302   6.049  0.4148  0.2820 -0.1513
   60MOL0     C 7809   0.905   9.280   6.077 -0.0508 -0.1931  0.0262
   60MOL0     C 7810   0.868   9.136   6.098  0.2146  0.0419  0.4040
   60MOL0     C 7811   0.717   9.112   6.077 -0.0669  0.8576  0.2548
   60MOL0     O 7812   0.698   8.965   6.068  0.5296 -0.2696 -0.4357
   60MOL0     C 7813   0.623   8.918   5.961 -0.1228  0.1223  0.3068
   60MOL0     C 7814   0.538   8.990   5.876  0.3311 -0.0955 -0.1962
   60MOL0     C 7815   0.472   8.921   5.764 -1.1026  0.0311  0.0156
   60MOL0     C 7816   0.491   8.781   5.744 -0.7104 -0.8343 -0.7826
   60MOL0     C 7817   0.430   8.712   5.629  0.0074 -0.2864 -1.1145
   60MOL0     O 7818   0.329   8.785   5.567 -0.1045 -0.0061  0.5881
   60MOL0     C 7819   0.272   8.730   5.457 -0.1232 -0.0251  0.1343
   60MOL0     C 7820   0.229   8.595   5.451  0.3409  0.2781  0.7229
   60MOL0     C 7821   0.154   8.560   5.338  0.1724 -0.2124  0.4910
   60MOL0     C 7822   0.142   8.646   5.225  0.1570 -0.3997  0.6212
   60MOL0     O 7823   0.057   8.611   5.120 -0.4028  0.0394  0.3774
   60MOL0     C 7824   0.056   8.667   4.993  0.8929 -1.3017  0.7545
   60MOL0     C 7825  -0.078   8.618   4.937 -0.2038  0.3959  0.4912
   60MOL0     C 7826  -0.108   8.655   4.792 -0.1284 -0.0892  1.3986
   60MOL0     C 7827  -0.006   8.597   4.693 -0.4627 -0.2197  0.7055
   60MOL0     C 7828  -0.026   8.663   4.550  0.9124  0.3692  0.1448
   60MOL0     C 7829   0.051   8.589   4.443  0.0505  0.3648  0.2264
   60MOL0     C 7830   0.198   8.627   4.444 -1.3379 -0.4045  1.1044
   60MOL0     C 7831   0.269   8.537   4.338 -0.2913 -0.8188 -0.6136
   60MOL0    Cl 7832   0.259   8.631   4.191  0.3222 -0.1878 -0.2167
   60MOL0     C 7833   0.202   8.774   5.227  0.2365 -0.5487 -0.1881
   60MOL0     C 7834   0.251   8.816   5.351  0.4818 -0.3542 -0.1882
   60MOL0     O 7835   0.462   8.592   5.607 -0.2771  0.2217 -0.0793
   60MOL0     C 7836   0.570   8.716   5.840  0.0326 -0.0510 -0.5788
   60MOL0     C 7837   0.638   8.782   5.941 -0.9687  0.4251  1.1274
   60MOL0     N 7838   1.180   9.178   5.872  0.8578 -0.5033 -0.8768
   60MOL0     N 7839   1.206   9.190   5.748 -0.3203 -0.2560  1.5602
   60MOL0     C 7840   0.992   9.029   4.783 -0.0223  1.0061 -0.2694
   60MOL0     C 7841   0.938   8.938   4.687  0.1073 -0.4396  0.7418
   60MOL0     C 7842   0.671   8.700   4.474 -0.2910 -0.1371  0.9793
   60MOL0     C 7843   0.686   8.702   4.329 -0.8448  0.3267  0.3065
   60MOL0     C 7844   0.672   8.586   4.243  0.2565  0.1615 -0.0758
   60MOL0     C 7845   0.641   8.462   4.308  0.0366 -0.7054  0.2162
   60MOL0     O 7846   0.633   8.346   4.232  0.2331 -0.1118  0.8592
   60MOL0     C 7847   0.641   8.341   4.085 -0.3622 -0.2023 -0.4057
   60MOL0     C 7848   0.524   8.404   4.020  0.4292  0.0259  0.0961
   60MOL0     C 7849   0.406   8.294   4.020 -0.7170 -0.0676 -0.0488
   60MOL0     C 7850   0.277   8.335   3.952 -0.6547 -0.0847  0.0611
   60MOL0     C 7851   0.167   8.236   3.961  0.0069 -0.4284 -0.2631
   60MOL0     C 7852   0.086   8.147   3.961  0.1314 -0.7074  0.0646
   60MOL0     C 7853   0.617   8.460   4.444  0.3906  0.8462  0.2662
   60MOL0     C 7854   0.638   8.572   4.526 -0.3068 -0.3773  0.0791
   60MOL0     H 7855   0.776   9.158   4.506  3.1215  0.6292 -2.8078
   60MOL0     H 7856   0.862   9.318   4.670  2.1288  0.4158  0.0787
   60MOL0     H 7857   1.026   9.433   4.824  1.0350  1.8457 -0.2697
   60MOL0     H 7858   1.138   9.333   4.728  0.5240 -0.1992  0.8302
   60MOL0     H 7859   1.238   9.519   4.892  1.0037  0.7060  1.4211
   60MOL0     H 7860   1.307   9.357   4.873  0.3746  1.9600 -2.1963
   60MOL0     H 7861   1.212   9.291   5.082 -0.2747 -2.3575 -6.3702
   60MOL0     H 7862   1.126   9.437   5.103 -1.9202 -6.1365  1.4309
   60MOL0     H 7863   1.417   9.453   5.075 -1.0502  2.0480 -1.6394
   60MOL0     H 7864   1.318   9.573   5.130  3.2895  0.9126  1.6591
   60MOL0     H 7865   1.450   9.441   5.325  0.0278  1.6472 -0.6076
   60MOL0     H 7866   1.360   9.303   5.268 -2.9574 -0.1391  0.1955
   60MOL0     H 7867   1.153   9.424   5.317  2.7594  0.1692 -4.1072
   60MOL0     H 7868   1.251   9.566   5.379  1.1017  0.4072  1.5817
   60MOL0     H 7869   1.300   9.276   5.495  0.3307 -0.2182 -4.4319
   60MOL0     H 7870   1.314   9.427   5.582  0.0960 -0.2930 -0.1309
   60MOL0     H 7871   1.079   9.275   5.486  2.4794  0.6841 -1.1994
   60MOL0     H 7872   1.051   9.434   5.548 -0.6409 -0.5663  0.1821
   60MOL0     H 7873   1.004   9.446   5.809  1.2509  1.9292  0.1007
   60MOL0     H 7874   1.070   9.404   6.082  1.3187  0.5188 -1.2933
   60MOL0     H 7875   1.107   9.229   6.110 -2.2726  0.9933  3.4032
   60MOL0     H 7876   0.840   9.310   5.995  1.9076  1.9621 -0.8456
   60MOL0     H 7877   0.885   9.339   6.167  0.6208 -2.6421  1.9018
   60MOL0     H 7878   0.931   9.076   6.031  0.3328 -1.6872  1.9709
   60MOL0     H 7879   0.904   9.112   6.198  3.4668 -0.1683 -0.6970
   60MOL0     H 7880   0.669   9.179   6.005 -3.4259  0.2912  1.7864
   60MOL0     H 7881   0.676   9.152   6.170 -0.3540  1.4027 -0.1000
   60MOL0     H 7882   0.509   9.093   5.897  0.1800  0.1644 -1.6196
   60MOL0     H 7883   0.399   8.971   5.701 -1.3347 -1.5339 -1.0126
   60MOL0     H 7884   0.238   8.521   5.530  0.4065 -0.8194 -0.2886
   60MOL0     H 7885   0.096   8.470   5.322 -3.1307  1.4047  2.3850
   60MOL0     H 7886   0.142   8.640   4.932  0.5478 -1.0428  0.1434
   60MOL0     H 7887   0.046   8.776   4.986  1.3482 -1.3818 -2.4388
   60MOL0     H 7888  -0.164   8.648   4.997 -1.3002  2.8611 -2.1186
   60MOL0     H 7889  -0.083   8.508   4.939  2.4237  0.1360 -1.7702
   60MOL0     H 7890  -0.124   8.762   4.776 -4.9213 -0.9599 -1.4918
   60MOL0     H 7891  -0.202   8.610   4.760  0.6330 -0.4581 -0.3927
   60MOL0     H 7892   0.099   8.618   4.716 -0.2705 -1.4294  1.0255
   60MOL0     H 7893  -0.015   8.488   4.695 -1.3879 -0.1735  3.4696
   60MOL0     H 7894   0.013   8.765   4.549 -0.5430  0.9893  1.8352
   60MOL0     H 7895  -0.130   8.648   4.521  0.0090  2.5736  2.0294
   60MOL0     H 7896  -0.002   8.606   4.349  2.4322  1.1666 -1.0668
   60MOL0     H 7897   0.066   8.484   4.470  0.3970  0.6409  1.1965
   60MOL0     H 7898   0.204   8.732   4.414 -2.6448 -0.0012  2.1622
   60MOL0     H 7899   0.237   8.615   4.545 -1.7335  1.4428  1.5174
   60MOL0     H 7900   0.223   8.438   4.329 -2.5340  0.0725  0.2887
   60MOL0     H 7901   0.376   8.539   4.362 -0.3114  1.5458 -0.4727
   60MOL0     H 7902   0.200   8.848   5.148 -0.9227 -1.2724 -0.8777
   60MOL0     H 7903   0.271   8.920   5.373 -2.4203  0.0645  0.8870
   60MOL0     H 7904   0.580   8.612   5.812  0.6703  0.0672 -0.8010
   60MOL0     H 7905   0.713   8.737   6.004 -0.4456  3.3682  2.7782
   60MOL0     H 7906   1.063   8.989   4.854 -1.4614 -2.1948 -0.4943
   60MOL0     H 7907   0.958   8.831   4.689  2.9798 -0.0381 -1.3380
   60MOL0     H 7908   0.732   8.789   4.284 -0.6701  0.4323  0.6861
   60MOL0     H 7909   0.706   8.586   4.140  2.3785  1.0855  0.5609
   60MOL0     H 7910   0.674   8.241   4.055  2.4477 -0.0920  1.8319
   60MOL0     H 7911   0.732   8.394   4.056  0.4784 -1.4759 -0.2054
   60MOL0     H 7912   0.487   8.493   4.071  1.1529  0.0670  0.5600
   60MOL0     H 7913   0.548   8.425   3.915  1.5418  0.9638  0.5108
   60MOL0     H 7914   0.381   8.267   4.123 -0.6390  0.4044  0.0959
   60MOL0     H 7915   0.443   8.200   3.978  0.8034  0.0602  0.9413
   60MOL0     H 7916   0.252   8.426   4.007 -0.9297 -0.0205 -0.1706
   60MOL0     H 7917   0.289   8.355   3.845  1.1210 -1.3818 -0.0373
   60MOL0     H 7918   0.006   8.077   3.965  0.6777 -1.4469 -1.2811
   60MOL0     H 7919   0.600   8.365   4.494 -0.7621  1.0504  0.2827
   60MOL0     H 7920   0.632   8.567   4.634  1.0522  0.2913  0.2075
   61MOL0     O 7921  10.686   7.675  10.976 -0.1956  0.0594  0.4309
   61MOL0     C 7922  10.617   7.746  11.041 -0.4804  0.2976  0.1979
   61MOL0     O 7923  10.644   7.876  11.065  0.4074 -0.4345  0.2587
   61MOL0     C 7924  10.768   7.933  11.041  1.1207  0.1466  0.0212
   61MOL0     C 7925  10.833   7.997  11.148  0.0893  0.1161  1.0416
   61MOL0     C 7926  10.949   8.061  11.114 -0.9525 -0.2915  0.3554
   61MOL0     C 7927  10.999   8.075  10.985 -0.6035 -0.1631 -0.3785
   61MOL0     O 7928  11.109   8.158  10.989 -0.0587  0.8032  0.0402
   61MOL0     C 7929  11.165   8.209  10.868  0.0553  0.0771 -1.6479
   61MOL0     C 7930  11.288   8.297  10.889 -0.1902  0.0612 -0.2989
   61MOL0     C 7931  11.328   8.312  11.027 -0.2643 -0.3047 -0.2186
   61MOL0     C 7932  11.432   8.415  11.058 -0.3776  1.0839 -0.3156
   61MOL0     C 7933  11.573   8.376  11.002  0.5820 -0.2297 -0.1846
   61MOL0     C 7934  11.626   8.256  11.095 -0.3443  1.5901  0.4204
   61MOL0     C 7935  11.764   8.206  11.044  0.4291  0.2559 -0.4811
   61MOL0     C 7936  11.806   8.081  11.129 -0.3515  0.0689 -0.8749
   61MOL0     N 7937  11.950   8.064  11.144 -0.0275  0.0404  0.5051
   61MOL0     C 7938  12.027   8.083  11.257  0.5936  0.0122  0.8576
   61MOL0     C 7939  12.151   8.061  11.199 -0.3130 -0.3475  1.0497
   61MOL0     C 7940  12.296   8.071  11.271  0.4077 -0.5099  0.1937
   61MOL0     C 7941  12.343   8.217  11.290 -0.3524 -0.0374  0.3905
   61MOL0     C 7942  12.284   8.292  11.409  0.8696 -0.4068 -0.2596
   61MOL0     C 7943  12.210   8.421  11.369 -0.6567 -0.2200  0.3488
   61MOL0     O 7944  12.092   8.390  11.290  0.0159 -0.5625 -0.7096
   61MOL0     C 7945  12.036   8.491  11.219  0.3000  0.4047  0.1420
   61MOL0     C 7946  11.904   8.519  11.242  0.2839  0.0930 -1.0845
   61MOL0     C 7947  11.833   8.609  11.161  0.7318 -0.2882  0.8345
   61MOL0     C 7948  11.902   8.679  11.057  0.7278 -0.0886 -0.4450
   61MOL0     C 7949  11.833   8.790  10.990  0.5268 -0.1395  0.7195
   61MOL0     O 7950  11.702   8.812  11.011 -0.0141 -0.2940  0.1666
   61MOL0     C 7951  11.643   8.926  10.962 -0.2094 -0.5015  0.1916
   61MOL0     C 7952  11.561   8.915  10.849 -0.1936 -0.2741 -0.9372
   61MOL0     C 7953  11.486   9.023  10.806  0.3877 -0.5504  0.2264
   61MOL0     C 7954  11.504   9.148  10.872 -0.5924 -0.1314  0.8776
   61MOL0     O 7955  11.446   9.266  10.819  0.0693  0.2315  0.5855
   61MOL0     C 7956  11.308   9.254  10.848  0.3332  0.4183 -0.5012
   61MOL0     C 7957  11.228   9.257  10.723  0.1194 -0.3861 -0.5818
   61MOL0     C 7958  11.228   9.403  10.669 -0.0752  0.3378 -0.8851
   61MOL0     C 7959  11.134   9.419  10.558 -0.4321 -0.5950  0.1206
   61MOL0     C 7960  11.207   9.389  10.424 -0.3165  0.0090 -0.5077
   61MOL0     C 7961  11.102   9.389  10.314 -0.2811 -0.2219  0.0720
   61MOL0     C 7962  11.179   9.438  10.191  0.0180  0.9456 -0.2975
   61MOL0     C 7963  11.098   9.435  10.067  0.1880  0.1102 -0.4058
   61MOL0    Cl 7964  11.023   9.277  10.066  0.5397  0.3249  0.1273
   61MOL0     C 7965  11.599   9.156  10.976  0.1148 -0.1029  0.2943
   61MOL0     C 7966  11.666   9.048  11.017  0.6857  0.5977  1.4146
   61MOL0     O 7967  11.907   8.868  10.924  0.6399  0.6905  0.6576
   61MOL0     C 7968  12.035   8.642  11.025  0.3262  1.1447 -0.2241
   61MOL0     C 7969  12.098   8.547  11.107  0.1406  0.8393  0.1361
   61MOL0     N 7970  12.143   7.993  11.082 -0.7895 -0.0086  0.2074
   61MOL0     N 7971  12.020   8.000  11.048 -0.2996  0.1713  0.2384
   61MOL0     C 7972  10.926   8.014  10.879 -0.5665  0.3941 -0.3311
   61MOL0     C 7973  10.816   7.933  10.909 -0.5498 -0.2474 -0.5258
   61MOL0     C 7974  10.492   7.682  11.104 -0.3842 -0.2936  0.6929
   61MOL0     C 7975  10.380   7.757  11.133  0.1458 -0.1143  0.2089
   61MOL0     C 7976  10.264   7.704  11.183  0.0046  0.7265  0.9522
   61MOL0     C 7977  10.247   7.569  11.199  0.0982 -0.3366 -0.1842
   61MOL0     O 7978  10.125   7.543  11.262  0.0729 -0.3738  0.2387
   61MOL0     C 7979  10.059   7.425  11.220  0.9830  0.8030  0.2083
   61MOL0     C 7980   9.928   7.409  11.285 -0.1296 -0.3867 -1.4706
   61MOL0     C 7981   9.876   7.263  11.306  0.1538 -0.1459 -0.1258
   61MOL0     C 7982   9.746   7.261  11.373 -0.2208  0.1453 -0.6933
   61MOL0     C 7983   9.637   7.314  11.289  0.4571  0.3338  1.1217
   61MOL0     C 7984   9.550   7.322  11.208 -0.7641 -0.3443 -0.2520
   61MOL0     C 7985  10.347   7.484  11.162 -0.1150 -0.7364  0.8663
   61MOL0     C 7986  10.479   7.534  11.122  0.2572  0.3394 -0.0498
   61MOL0     H 7987  10.798   7.994  11.251  1.9996  0.3683  1.7265
   61MOL0     H 7988  10.992   8.106  11.203 -0.0170 -4.1576  2.0690
   61MOL0     H 7989  11.091   8.272  10.818  2.1539  2.0441 -2.4702
   61MOL0     H 7990  11.187   8.130  10.795  0.0376 -0.9198 -0.6173
   61MOL0     H 7991  11.262   8.395  10.849 -2.7439 -0.7435 -0.7827
   61MOL0     H 7992  11.375   8.259  10.833 -0.8709 -1.6751 -0.2405
   61MOL0     H 7993  11.357   8.223  11.084 -0.5146  0.8993  1.8599
   61MOL0     H 7994  11.235   8.346  11.074  0.5121  0.4663  0.7994
   61MOL0     H 7995  11.394   8.514  11.031  0.6655  2.0787  1.6020
   61MOL0     H 7996  11.437   8.418  11.167  0.9327 -1.9700 -0.2016
   61MOL0     H 7997  11.645   8.459  11.006 -0.9303  1.1732 -0.8762
   61MOL0     H 7998  11.566   8.343  10.898 -2.9324  2.4436 -1.0002
   61MOL0     H 7999  11.556   8.173  11.088  3.9239 -2.6781  2.5775
   61MOL0     H 8000  11.645   8.281  11.200  4.3436 -1.5771  0.6339
   61MOL0     H 8001  11.767   8.189  10.936 -1.9558  2.3337 -0.9767
   61MOL0     H 8002  11.828   8.293  11.061 -2.9300  2.1285  4.7717
   61MOL0     H 8003  11.766   7.996  11.074 -3.4122  0.9893 -0.2430
   61MOL0     H 8004  11.759   8.082  11.227 -0.8889  2.2402 -1.1117
   61MOL0     H 8005  12.009   8.128  11.354  1.7439  1.2763  0.5227
   61MOL0     H 8006  12.370   8.018  11.210  3.1809  1.9381  1.1709
   61MOL0     H 8007  12.299   8.027  11.371  1.5175 -0.8988 -0.0026
   61MOL0     H 8008  12.339   8.263  11.190 -0.2657 -0.3535  0.2407
   61MOL0     H 8009  12.450   8.208  11.310  0.1713 -1.3128 -2.4294
   61MOL0     H 8010  12.209   8.238  11.468 -1.2697  3.7197  1.1377
   61MOL0     H 8011  12.361   8.308  11.485 -1.6140 -1.3711  2.6804
   61MOL0     H 8012  12.270   8.493  11.313 -2.3559  1.2886  0.3970
   61MOL0     H 8013  12.179   8.470  11.462 -1.2895 -1.6837  0.9401
   61MOL0     H 8014  11.856   8.465  11.322  0.3863 -0.0105 -1.0931
   61MOL0     H 8015  11.727   8.623  11.179  0.1146 -0.0894 -2.4762
   61MOL0     H 8016  11.536   8.816  10.810 -0.9627 -0.4528 -0.0194
   61MOL0     H 8017  11.416   9.009  10.723  0.0886 -3.4180  0.8421
   61MOL0     H 8018  11.280   9.331  10.920 -2.3298  1.7395 -2.7820
   61MOL0     H 8019  11.278   9.161  10.898 -0.8387  0.5676 -0.9121
   61MOL0     H 8020  11.129   9.217  10.746  0.5511 -0.9402  0.3861
   61MOL0     H 8021  11.272   9.190  10.649 -1.0267  0.8742 -2.4703
   61MOL0     H 8022  11.325   9.442  10.636 -0.8509  1.3212 -2.0905
   61MOL0     H 8023  11.191   9.462  10.753  0.5556  2.7657 -2.2240
   61MOL0     H 8024  11.045   9.357  10.572  0.1202 -1.1703  1.2338
   61MOL0     H 8025  11.093   9.521  10.554 -0.7522 -0.7535 -0.7021
   61MOL0     H 8026  11.267   9.297  10.430  1.9443  1.0344 -4.1949
   61MOL0     H 8027  11.274   9.473  10.405 -0.0900 -0.2061 -0.6712
   61MOL0     H 8028  11.028   9.465  10.340  1.9119  1.7373  0.9521
   61MOL0     H 8029  11.048   9.294  10.316 -2.3366  0.9065  1.0946
   61MOL0     H 8030  11.226   9.535  10.211  1.9515 -0.1106  0.5719
   61MOL0     H 8031  11.257   9.365  10.170 -1.3607 -0.8525  0.5552
   61MOL0     H 8032  11.157   9.469   9.980 -0.6375  5.1861  0.7264
   61MOL0     H 8033  11.013   9.503  10.067  0.0275 -0.0253 -2.4833
   61MOL0     H 8034  11.604   9.258  11.013  2.7589  0.1440 -0.5445
   61MOL0     H 8035  11.746   9.055  11.091  3.3112 -0.8949 -1.0707
   61MOL0     H 8036  12.099   8.673  10.944 -2.0083  1.7110 -1.9465
   61MOL0     H 8037  12.201   8.525  11.078 -0.2462 -0.4429 -0.3330
   61MOL0     H 8038  10.952   8.034  10.776  3.2586  2.1820  0.7937
   61MOL0     H 8039  10.778   7.854  10.845 -1.2784 -2.3157  2.2537
   61MOL0     H 8040  10.402   7.863  11.133  2.7762 -0.5782  1.5696
   61MOL0     H 8041  10.187   7.771  11.222 -1.3303 -0.9201  1.2602
   61MOL0     H 8042  10.117   7.333  11.231 -1.4352 -0.9627 -0.8510
   61MOL0     H 8043  10.041   7.418  11.112  1.7427 -0.3442  0.1256
   61MOL0     H 8044   9.936   7.465  11.379 -0.5325  3.2661 -3.4288
   61MOL0     H 8045   9.853   7.473  11.238  0.8485  2.4515  0.5328
   61MOL0     H 8046   9.955   7.217  11.366 -0.6464  2.1395  2.9265
   61MOL0     H 8047   9.865   7.215  11.208  1.4846 -3.0171  0.9806
   61MOL0     H 8048   9.722   7.161  11.412 -1.8482  0.2301 -1.4091
   61MOL0     H 8049   9.762   7.332  11.455 -1.6248  1.0487 -1.1708
   61MOL0     H 8050   9.482   7.325  11.125 -0.4563 -1.2914 -0.5530
   61MOL0     H 8051  10.333   7.377  11.166  4.0007 -1.4114  2.3795
   61MOL0     H 8052  10.560   7.462  11.110  0.3581  0.6521 -1.3232
   62MOL0     O 8053   8.552   1.562   4.814  0.5154  0.8468 -0.0585
   62MOL0     C 8054   8.645   1.486   4.781 -0.0564  0.0946 -1.5059
   62MOL0     O 8055   8.728   1.499   4.666  0.0183 -0.1966 -1.3707
   62MOL0     C 8056   8.665   1.550   4.557 -0.5584  0.3341 -0.8584
   62MOL0     C 8057   8.698   1.669   4.500 -0.1780  0.3966 -0.5293
   62MOL0     C 8058   8.612   1.717   4.392  0.0517  0.4082  0.3466
   62MOL0     C 8059   8.523   1.631   4.326 -0.0820 -0.1523 -0.4212
   62MOL0     O 8060   8.465   1.679   4.215  0.0652 -0.6082 -0.5633
   62MOL0     C 8061   8.474   1.585   4.104  0.2047  1.2656 -0.5124
   62MOL0     C 8062   8.409   1.640   3.975 -0.1948 -0.0784 -0.1642
   62MOL0     C 8063   8.275   1.708   3.988  0.3585  0.0492 -0.1047
   62MOL0     C 8064   8.226   1.749   3.856  1.0100 -0.8811 -0.4453
   62MOL0     C 8065   8.139   1.886   3.864 -0.4985  1.0322  0.1782
   62MOL0     C 8066   8.209   2.009   3.890  0.6078 -0.8056 -1.7102
   62MOL0     C 8067   8.298   2.050   3.764 -0.7427  0.2917  0.4746
   62MOL0     C 8068   8.236   2.118   3.644  0.1193  0.0614  0.7041
   62MOL0     N 8069   8.279   2.077   3.507  0.0114 -0.2129  0.0505
   62MOL0     C 8070   8.223   1.963   3.456 -0.4244  0.1816 -0.2477
   62MOL0     C 8071   8.252   1.970   3.322 -0.2656  0.3634 -0.5595
   62MOL0     C 8072   8.233   1.858   3.226  0.4580  0.3091 -0.6441
   62MOL0     C 8073   8.366   1.838   3.144 -0.2722 -0.8443 -0.3283
   62MOL0     C 8074   8.493   1.807   3.225  0.1171  0.1825 -0.9258
   62MOL0     C 8075   8.488   1.664   3.268 -0.2379 -0.3120 -0.6039
   62MOL0     O 8076   8.422   1.650   3.396  0.3794  0.7708  0.3886
   62MOL0     C 8077   8.459   1.547   3.479  0.2583  0.0120  0.3008
   62MOL0     C 8078   8.369   1.539   3.590  0.4930 -0.6227  0.3956
   62MOL0     C 8079   8.393   1.436   3.676 -0.4382  0.3654  0.2855
   62MOL0     C 8080   8.512   1.360   3.685 -0.6056  0.1911  1.2724
   62MOL0     C 8081   8.544   1.275   3.797  0.0856 -0.3577 -0.2383
   62MOL0     O 8082   8.442   1.280   3.895 -0.2108 -0.3897 -0.4469
   62MOL0     C 8083   8.458   1.239   4.026 -0.3649 -0.7122 -0.1480
   62MOL0     C 8084   8.341   1.202   4.089  0.1805 -0.8389 -0.2003
   62MOL0     C 8085   8.343   1.176   4.227  0.0580 -0.8779 -0.0726
   62MOL0     C 8086   8.461   1.169   4.304  0.4129 -0.3494  0.4515
   62MOL0     O 8087   8.453   1.130   4.440  0.6833 -0.2753  0.1596
   62MOL0     C 8088   8.534   1.010   4.463 -0.3449 -0.7859  0.5426
   62MOL0     C 8089   8.508   0.979   4.614 -0.6844  0.3010  0.0450
   62MOL0     C 8090   8.546   0.831   4.659 -0.0257 -0.0339 -0.1246
   62MOL0     C 8091   8.444   0.727   4.608  0.2012  0.6725  0.5035
   62MOL0     C 8092   8.471   0.585   4.654 -0.2578 -0.3051 -0.1320
   62MOL0     C 8093   8.364   0.490   4.597  1.0836  0.6629 -0.2973
   62MOL0     C 8094   8.397   0.355   4.659 -0.0214  0.1582 -0.0966
   62MOL0     C 8095   8.290   0.247   4.632 -0.6964  0.9692  0.2058
   62MOL0    Cl 8096   8.326   0.096   4.717 -0.1178 -0.2725  0.1166
   62MOL0     C 8097   8.584   1.194   4.241  0.8014 -0.6254  0.4619
   62MOL0     C 8098   8.579   1.242   4.102  0.0263 -0.5308  0.5192
   62MOL0     O 8099   8.658   1.228   3.821  0.2545 -0.2408 -0.8515
   62MOL0     C 8100   8.592   1.362   3.571 -0.7057 -1.1901  0.5270
   62MOL0     C 8101   8.564   1.447   3.466  0.4432 -0.9813  1.2434
   62MOL0     N 8102   8.336   2.088   3.306  1.0256  1.0980  0.1209
   62MOL0     N 8103   8.318   2.166   3.411 -0.6056  0.2008 -0.1443
   62MOL0     C 8104   8.505   1.509   4.383 -0.2717  0.4448  0.1853
   62MOL0     C 8105   8.576   1.467   4.496  0.1611 -0.0020  0.0792
   62MOL0     C 8106   8.667   1.365   4.874 -0.2266  0.2342  0.5989
   62MOL0     C 8107   8.767   1.270   4.842 -0.4393 -0.1079 -0.0637
   62MOL0     C 8108   8.771   1.144   4.906 -0.1877  0.4300 -0.6486
   62MOL0     C 8109   8.692   1.123   5.023 -0.0412 -0.0560  0.1695
   62MOL0     O 8110   8.692   1.007   5.092  0.1226 -0.2278 -1.0761
   62MOL0     C 8111   8.779   0.905   5.057  0.2578  0.7303  0.5536
   62MOL0     C 8112   8.724   0.788   5.139  0.8048  0.7473 -0.2090
   62MOL0     C 8113   8.810   0.664   5.135 -0.7622 -0.1324  0.9449
   62MOL0     C 8114   8.779   0.571   5.252  0.1119  0.1718 -0.1500
   62MOL0     C 8115   8.639   0.532   5.235 -0.1404  0.0392  0.6545
   62MOL0     C 8116   8.517   0.503   5.229 -0.6794  0.4266 -0.1584
   62MOL0     C 8117   8.594   1.217   5.056  0.8660  0.2878  0.1092
   62MOL0     C 8118   8.586   1.343   4.983 -0.2897  1.1781 -1.0913
   62MOL0     H 8119   8.773   1.729   4.549 -0.7489 -1.4865  2.9581
   62MOL0     H 8120   8.632   1.819   4.362 -0.8069  0.8742  1.3276
   62MOL0     H 8121   8.425   1.489   4.122  1.5781  0.8531  1.3381
   62MOL0     H 8122   8.579   1.554   4.099  0.6817  2.3465  1.5543
   62MOL0     H 8123   8.408   1.558   3.903 -1.6892  0.1064 -0.3987
   62MOL0     H 8124   8.475   1.717   3.934  0.7387 -0.2241  0.9931
   62MOL0     H 8125   8.290   1.800   4.045  1.0324  1.6033 -2.6439
   62MOL0     H 8126   8.205   1.647   4.044 -0.9326 -0.0181 -1.7158
   62MOL0     H 8127   8.300   1.765   3.777  0.4791  3.7928 -0.2930
   62MOL0     H 8128   8.170   1.667   3.811  2.9466 -2.1427 -0.6660
   62MOL0     H 8129   8.054   1.871   3.931 -1.2331 -1.2379 -1.1434
   62MOL0     H 8130   8.085   1.899   3.770 -2.0242  0.2443  0.8901
   62MOL0     H 8131   8.258   2.008   3.988 -2.6384  0.7300  0.0979
   62MOL0     H 8132   8.135   2.089   3.901  2.2229  0.3854  2.6002
   62MOL0     H 8133   8.363   2.126   3.810 -1.5310  1.8525 -0.8591
   62MOL0     H 8134   8.365   1.968   3.739 -1.2854 -0.2445  0.7538
   62MOL0     H 8135   8.231   2.227   3.658  0.5995 -0.0050  1.4666
   62MOL0     H 8136   8.132   2.085   3.647  0.2101 -0.5502 -1.5546
   62MOL0     H 8137   8.160   1.887   3.501  0.7458 -1.2225 -0.9011
   62MOL0     H 8138   8.143   1.871   3.166 -1.0140 -2.6333  0.7627
   62MOL0     H 8139   8.218   1.765   3.280  0.6057  0.0976 -0.9662
   62MOL0     H 8140   8.383   1.926   3.081  2.6672  0.3113  1.8393
   62MOL0     H 8141   8.349   1.753   3.078 -0.6974 -1.8789  1.0861
   62MOL0     H 8142   8.572   1.817   3.150  0.6006 -0.5673 -0.5307
   62MOL0     H 8143   8.522   1.874   3.307  1.5105 -1.0531 -0.3692
   62MOL0     H 8144   8.596   1.643   3.271 -0.1369  0.3212  0.8816
   62MOL0     H 8145   8.458   1.601   3.184  2.5354 -0.7695 -1.3613
   62MOL0     H 8146   8.282   1.604   3.595 -0.2224 -1.4633 -0.8731
   62MOL0     H 8147   8.326   1.430   3.761  0.7331 -0.4632  1.2035
   62MOL0     H 8148   8.248   1.205   4.034  1.4940  0.9752 -2.5325
   62MOL0     H 8149   8.245   1.160   4.271  0.8963 -0.4255  2.0774
   62MOL0     H 8150   8.642   1.013   4.444 -0.6721 -0.7067 -1.5609
   62MOL0     H 8151   8.492   0.927   4.406  0.7962 -0.9729 -0.0538
   62MOL0     H 8152   8.405   1.006   4.640 -0.4056  1.2512  0.1894
   62MOL0     H 8153   8.573   1.049   4.666  0.6543 -1.6539  1.1142
   62MOL0     H 8154   8.537   0.824   4.768 -0.9998  0.5051 -0.1539
   62MOL0     H 8155   8.650   0.819   4.628  0.3481 -1.5339  1.5304
   62MOL0     H 8156   8.345   0.748   4.648 -0.3999 -2.2067  0.7282
   62MOL0     H 8157   8.439   0.716   4.500 -5.0425 -1.0757  0.6410
   62MOL0     H 8158   8.464   0.579   4.763  1.1777  1.5231  0.1176
   62MOL0     H 8159   8.572   0.559   4.624 -0.0433  1.3110 -0.9062
   62MOL0     H 8160   8.359   0.490   4.487  0.3126 -0.3120 -0.2666
   62MOL0     H 8161   8.260   0.507   4.626  0.6591 -2.6021  0.4972
   62MOL0     H 8162   8.490   0.320   4.614  0.1022 -3.2447  2.3545
   62MOL0     H 8163   8.412   0.357   4.767  4.8409 -2.8125 -0.4264
   62MOL0     H 8164   8.284   0.209   4.529 -0.7076 -3.3677  1.6024
   62MOL0     H 8165   8.196   0.288   4.669 -0.4801  1.5533  0.1320
   62MOL0     H 8166   8.675   1.198   4.299  1.1029  3.9507 -0.0167
   62MOL0     H 8167   8.670   1.283   4.059 -0.5633 -1.9308 -2.2786
   62MOL0     H 8168   8.683   1.303   3.558  0.3817  0.4656  0.2893
   62MOL0     H 8169   8.629   1.443   3.379 -0.3770 -1.9490  0.6588
   62MOL0     H 8170   8.434   1.435   4.348  0.8032 -0.3478 -0.3584
   62MOL0     H 8171   8.551   1.366   4.528 -2.8808  0.1814 -1.4390
   62MOL0     H 8172   8.827   1.281   4.753 -0.9316  2.6432 -0.1459
   62MOL0     H 8173   8.838   1.069   4.865  0.0179  0.9588 -1.3126
   62MOL0     H 8174   8.881   0.938   5.081  0.0322  1.3673  0.6644
   62MOL0     H 8175   8.783   0.883   4.950  0.1293  0.4891  0.5982
   62MOL0     H 8176   8.712   0.824   5.241 -1.1440 -2.1624  0.7233
   62MOL0     H 8177   8.617   0.775   5.119  0.7120  1.0419  0.0800
   62MOL0     H 8178   8.915   0.693   5.133 -0.5882 -0.3285 -3.4921
   62MOL0     H 8179   8.785   0.623   5.037 -1.2634  2.4511 -0.1110
   62MOL0     H 8180   8.844   0.483   5.258  0.5865  0.6435  3.5284
   62MOL0     H 8181   8.804   0.635   5.337  0.6605  5.2989 -3.6872
   62MOL0     H 8182   8.414   0.475   5.229 -0.2484 -1.2713 -1.1018
   62MOL0     H 8183   8.517   1.187   5.127 -0.3863 -0.8643 -1.6466
   62MOL0     H 8184   8.511   1.413   5.019  0.9511  1.0919  1.9509
   63MOL0     O 8185  11.398   6.459   8.759 -0.2033  0.0063  0.5612
   63MOL0     C 8186  11.297   6.438   8.817  0.5995  0.6165 -0.3884
   63MOL0     O 8187  11.249   6.514   8.922 -0.2402 -0.4275  0.1340
   63MOL0     C 8188  11.314   6.607   8.992 -0.5988  0.2027  0.2048
   63MOL0     C 8189  11.384   6.582   9.110  0.2974  0.7351 -0.9720
   63MOL0     C 8190  11.451   6.685   9.171 -0.2938 -0.7844 -0.0094
   63MOL0     C 8191  11.451   6.820   9.128 -0.4151  0.0674  0.6017
   63MOL0     O 8192  11.518   6.911   9.203 -0.0139  0.0522 -0.4386
   63MOL0     C 8193  11.458   7.042   9.195 -0.1337 -0.1650 -0.5970
   63MOL0     C 8194  11.365   7.069   9.307  1.0872 -0.0786  0.2459
   63MOL0     C 8195  11.281   7.206   9.288 -0.0258  0.2518  0.8371
   63MOL0     C 8196  11.378   7.332   9.296 -0.0975 -0.6135 -0.0433
   63MOL0     C 8197  11.318   7.472   9.284 -0.2971 -0.2019 -0.4144
   63MOL0     C 8198  11.197   7.517   9.383  0.1432 -0.3401 -0.9778
   63MOL0     C 8199  11.231   7.463   9.525 -0.0200 -0.5449  0.0485
   63MOL0     C 8200  11.355   7.518   9.599 -0.9630  0.7094  0.0207
   63MOL0     N 8201  11.344   7.661   9.615  0.4478  0.3471 -0.0416
   63MOL0     C 8202  11.235   7.737   9.667  0.0987  0.9478  0.5490
   63MOL0     C 8203  11.285   7.866   9.681 -0.5155 -0.3258  0.3757
   63MOL0     C 8204  11.198   7.973   9.728 -0.0736  0.1039 -0.7282
   63MOL0     C 8205  11.127   8.045   9.618  0.2433  0.4367 -0.1734
   63MOL0     C 8206  11.022   7.958   9.538 -0.3238  0.5426 -0.3657
   63MOL0     C 8207  10.923   8.046   9.469  0.1951 -0.2109 -0.0294
   63MOL0     O 8208  10.831   7.963   9.394 -0.6408  0.3844  0.4660
   63MOL0     C 8209  10.883   7.889   9.289  0.5747 -0.3143 -0.2715
   63MOL0     C 8210  10.866   7.746   9.281 -0.2356  0.4111 -0.1834
   63MOL0     C 8211  10.945   7.678   9.190 -0.1667  0.1848 -0.3312
   63MOL0     C 8212  11.039   7.741   9.106 -0.6708 -0.8917 -0.0413
   63MOL0     C 8213  11.102   7.654   9.010  1.4854  0.0668 -0.6712
   63MOL0     O 8214  11.066   7.524   9.005 -0.0487 -0.4191  0.0680
   63MOL0     C 8215  11.129   7.428   8.938  0.2206 -0.0918  0.5382
   63MOL0     C 8216  11.194   7.443   8.816  0.3463 -0.1548  0.2882
   63MOL0     C 8217  11.268   7.339   8.757  0.2264  0.0706  0.1417
   63MOL0     C 8218  11.250   7.210   8.810 -0.6101 -0.4778  0.0149
   63MOL0     O 8219  11.309   7.104   8.745 -0.6890 -0.9207  0.1050
   63MOL0     C 8220  11.379   7.121   8.617  0.1787  1.0874 -0.3568
   63MOL0     C 8221  11.405   6.977   8.563 -0.0113  0.3902 -0.0908
   63MOL0     C 8222  11.281   6.904   8.516 -0.4743 -0.4814  0.1064
   63MOL0     C 8223  11.326   6.778   8.421 -0.4525 -0.7721  0.2438
   63MOL0     C 8224  11.211   6.720   8.342  0.1501  0.3190  0.0572
   63MOL0     C 8225  11.110   6.644   8.439 -0.4200 -0.2776  0.2040
   63MOL0     C 8226  11.017   6.547   8.368  0.4074  0.2105 -0.2226
   63MOL0     C 8227  10.895   6.522   8.456 -0.4683  0.0528 -0.2224
   63MOL0    Cl 8228  10.775   6.441   8.354 -0.0745 -0.2428  0.1102
   63MOL0     C 8229  11.164   7.187   8.907  0.1494  0.0186 -0.5145
   63MOL0     C 8230  11.103   7.300   8.974  0.1961 -0.0818  0.8419
   63MOL0     O 8231  11.185   7.708   8.941  0.2783  0.4140 -0.1432
   63MOL0     C 8232  11.041   7.876   9.107  0.0255  0.7277  0.0264
   63MOL0     C 8233  10.959   7.946   9.191 -0.0906 -0.7857 -0.1789
   63MOL0     N 8234  11.415   7.868   9.635 -0.5467  0.6231  0.0181
   63MOL0     N 8235  11.449   7.744   9.587 -1.0252 -0.9558  0.1866
   63MOL0     C 8236  11.373   6.846   9.009  0.0600  0.1518  0.3822
   63MOL0     C 8237  11.310   6.740   8.938  0.6553 -0.1621  0.3785
   63MOL0     C 8238  11.200   6.337   8.758  0.6289  0.2100 -0.2743
   63MOL0     C 8239  11.067   6.321   8.814 -0.7342 -0.0015  0.0558
   63MOL0     C 8240  10.981   6.232   8.764  0.6979 -0.0011  0.5442
   63MOL0     C 8241  11.011   6.144   8.652  0.3512  1.3569 -0.5536
   63MOL0     O 8242  10.922   6.051   8.609  0.0474 -0.1173  0.0869
   63MOL0     C 8243  10.958   5.957   8.499  0.0095 -0.1095 -0.1606
   63MOL0     C 8244  10.835   5.857   8.478 -0.2653 -0.4678  1.5532
   63MOL0     C 8245  10.786   5.807   8.616 -0.6228 -0.3951 -0.6657
   63MOL0     C 8246  10.733   5.669   8.618  0.4552  0.0575  0.4935
   63MOL0     C 8247  10.676   5.637   8.750 -0.2613  0.4914  0.4782
   63MOL0     C 8248  10.631   5.601   8.850  0.2651  0.4030 -0.6291
   63MOL0     C 8249  11.141   6.151   8.601 -0.1891  0.3710 -0.3028
   63MOL0     C 8250  11.231   6.245   8.653  0.1194  0.0549 -0.8792
   63MOL0     H 8251  11.398   6.489   9.164  3.5270  3.2472  3.1471
   63MOL0     H 8252  11.504   6.666   9.264 -0.4609 -0.5368  0.1376
   63MOL0     H 8253  11.405   7.081   9.108  1.1837  2.4822 -0.3268
   63MOL0     H 8254  11.538   7.115   9.214 -1.0545  0.8667 -0.5674
   63MOL0     H 8255  11.411   7.067   9.407 -1.8948 -0.3374  1.7238
   63MOL0     H 8256  11.288   6.991   9.305 -1.8283  2.5815  0.4524
   63MOL0     H 8257  11.198   7.218   9.359 -1.1481  1.9809 -0.6891
   63MOL0     H 8258  11.238   7.210   9.188 -0.2752 -0.0912  0.9281
   63MOL0     H 8259  11.438   7.332   9.387 -0.1052  0.0109 -0.0378
   63MOL0     H 8260  11.450   7.316   9.215  1.4580 -1.5129  1.4466
   63MOL0     H 8261  11.294   7.487   9.179  0.9739  3.2598 -0.3238
   63MOL0     H 8262  11.388   7.549   9.317 -2.7915  1.8364  0.4784
   63MOL0     H 8263  11.098   7.483   9.351 -1.9281 -0.2010  4.3241
   63MOL0     H 8264  11.181   7.625   9.378 -2.1079 -0.5380  0.6641
   63MOL0     H 8265  11.145   7.484   9.590  0.4659  2.9269 -0.2583
   63MOL0     H 8266  11.227   7.354   9.515 -0.1236 -0.6067  0.6946
   63MOL0     H 8267  11.448   7.491   9.548 -1.9130  0.7298 -1.8079
   63MOL0     H 8268  11.362   7.468   9.696  2.8432 -0.9539 -0.9180
   63MOL0     H 8269  11.137   7.699   9.691  1.1454 -2.5930 -0.1590
   63MOL0     H 8270  11.260   8.042   9.787  0.6231 -1.6698  0.7105
   63MOL0     H 8271  11.123   7.938   9.800  0.0801 -0.4626 -0.8364
   63MOL0     H 8272  11.202   8.086   9.549  2.0167  0.2396  1.5400
   63MOL0     H 8273  11.075   8.133   9.657  0.9013  1.2322 -1.0158
   63MOL0     H 8274  11.061   7.899   9.454  0.4137  4.1551 -2.7782
   63MOL0     H 8275  10.978   7.889   9.611  3.3422 -0.8769  0.7215
   63MOL0     H 8276  10.971   8.108   9.393 -0.8703  0.5646 -0.0972
   63MOL0     H 8277  10.884   8.110   9.548  3.1347  2.1923 -0.3603
   63MOL0     H 8278  10.783   7.709   9.340 -2.0700  1.2920 -2.0837
   63MOL0     H 8279  10.933   7.570   9.190 -0.8744  0.2336  1.6109
   63MOL0     H 8280  11.195   7.545   8.778 -2.7983 -0.1424 -0.0742
   63MOL0     H 8281  11.328   7.360   8.670  1.1924 -3.7438 -0.2882
   63MOL0     H 8282  11.469   7.180   8.638  1.8133 -1.0590 -0.9838
   63MOL0     H 8283  11.329   7.171   8.534 -2.4702 -1.4059 -0.4403
   63MOL0     H 8284  11.450   6.910   8.636  0.5807  1.4039  0.5050
   63MOL0     H 8285  11.478   6.990   8.481  3.1892  1.8472  2.7288
   63MOL0     H 8286  11.230   6.971   8.445  1.6241 -1.1883 -2.2275
   63MOL0     H 8287  11.212   6.876   8.596 -2.4501  3.1894 -0.0657
   63MOL0     H 8288  11.389   6.820   8.342  3.5475 -1.8846  2.5648
   63MOL0     H 8289  11.386   6.707   8.479 -0.8578 -0.4965  1.0191
   63MOL0     H 8290  11.255   6.654   8.266 -1.8115 -3.6458  2.0874
   63MOL0     H 8291  11.145   6.795   8.298 -0.7573  0.1053  1.0149
   63MOL0     H 8292  11.053   6.715   8.499 -0.5719 -2.0594  2.2855
   63MOL0     H 8293  11.166   6.584   8.511  0.7532  0.3138 -0.1857
   63MOL0     H 8294  10.989   6.589   8.271 -3.1046 -2.1923 -0.4149
   63MOL0     H 8295  11.063   6.449   8.351 -1.9046 -0.8819 -0.5538
   63MOL0     H 8296  10.865   6.622   8.490  0.0803  0.9271 -2.1467
   63MOL0     H 8297  10.922   6.459   8.541  0.9367  0.9409  0.0294
   63MOL0     H 8298  11.149   7.085   8.941 -0.6680  0.2571 -0.1210
   63MOL0     H 8299  11.025   7.269   9.043 -1.4161 -1.8383 -1.6185
   63MOL0     H 8300  11.098   7.933   9.034  1.1077  1.3654  1.3072
   63MOL0     H 8301  10.953   8.054   9.186  2.3746 -0.4452  2.0980
   63MOL0     H 8302  11.373   6.946   8.967 -1.6694 -0.3123 -0.8235
   63MOL0     H 8303  11.268   6.749   8.838 -1.4510 -0.2635  1.1992
   63MOL0     H 8304  11.052   6.369   8.911  2.0430 -0.3596  0.7523
   63MOL0     H 8305  10.888   6.208   8.813  0.6087  0.1620  0.4524
   63MOL0     H 8306  11.053   5.906   8.517  0.3109  1.1863  2.3420
   63MOL0     H 8307  10.970   6.019   8.409 -1.3259  1.4342  0.6775
   63MOL0     H 8308  10.748   5.909   8.436  1.7279  2.7383  1.0354
   63MOL0     H 8309  10.867   5.777   8.410  0.2943 -0.9406  2.3494
   63MOL0     H 8310  10.701   5.871   8.642 -2.6281 -2.6293 -1.3449
   63MOL0     H 8311  10.865   5.804   8.692 -0.7050 -0.3596 -0.5783
   63MOL0     H 8312  10.664   5.648   8.535  0.2608 -0.1873  0.7131
   63MOL0     H 8313  10.810   5.597   8.590 -2.0695 -2.3831 -0.7838
   63MOL0     H 8314  10.607   5.580   8.953 -1.9503 -1.2355 -1.3935
   63MOL0     H 8315  11.177   6.088   8.520 -0.1286  0.7987 -0.6068
   63MOL0     H 8316  11.333   6.264   8.623  0.7633 -0.9230  0.5982
   64MOL0     O 8317   6.223   4.178  11.208 -0.3346  0.0618 -0.1095
   64MOL0     C 8318   6.114   4.229  11.186 -0.3224  0.9945  0.7953
   64MOL0     O 8319   6.003   4.152  11.181  0.4132  0.6280  0.4894
   64MOL0     C 8320   6.018   4.015  11.179  0.0292 -0.0509  0.8635
   64MOL0     C 8321   5.983   3.953  11.062  0.3439  0.3945  1.1127
   64MOL0     C 8322   5.986   3.807  11.052  0.2502 -0.0621 -0.4710
   64MOL0     C 8323   6.019   3.727  11.159  0.1266 -0.2567 -0.1557
   64MOL0     O 8324   6.044   3.598  11.131  0.1698 -0.6040 -0.5130
   64MOL0     C 8325   6.160   3.535  11.184  0.7214 -0.5056  0.1169
   64MOL0     C 8326   6.224   3.448  11.079  0.9163  0.3373 -0.2936
   64MOL0     C 8327   6.360   3.400  11.131 -0.1658 -0.0668 -0.4492
   64MOL0     C 8328   6.455   3.357  11.020  1.1073  0.1163 -0.2202
   64MOL0     C 8329   6.583   3.323  11.085 -0.7304 -0.5579 -0.1176
   64MOL0     C 8330   6.688   3.281  10.979  0.0856  0.3675  0.0785
   64MOL0     C 8331   6.826   3.252  11.044  0.4936  0.1932 -0.3075
   64MOL0     C 8332   6.831   3.119  11.114  0.0582 -0.2331  0.4077
   64MOL0     N 8333   6.966   3.085  11.172 -0.3333  0.2542  0.7975
   64MOL0     C 8334   7.057   3.027  11.088 -0.7251 -0.5430 -0.0257
   64MOL0     C 8335   7.152   2.983  11.172 -0.8728  0.2204 -0.5370
   64MOL0     C 8336   7.267   2.899  11.114 -0.4969 -0.5752 -1.3400
   64MOL0     C 8337   7.390   2.905  11.198 -0.6156  0.7701 -0.0295
   64MOL0     C 8338   7.520   2.890  11.120  0.1003  1.0358  0.3967
   64MOL0     C 8339   7.639   2.965  11.194 -0.4651 -0.1203 -0.6226
   64MOL0     O 8340   7.763   2.952  11.135 -0.2764 -0.9245  0.0276
   64MOL0     C 8341   7.857   2.877  11.207 -0.5596  0.5829 -0.4177
   64MOL0     C 8342   7.816   2.758  11.274 -0.0433 -0.2038  0.3806
   64MOL0     C 8343   7.910   2.675  11.329  0.1147 -0.2924  1.5657
   64MOL0     C 8344   8.053   2.703  11.331  0.4811 -0.0235 -0.2863
   64MOL0     C 8345   8.142   2.615  11.402 -0.4622  0.3564  0.2071
   64MOL0     O 8346   8.102   2.485  11.432 -0.0899 -0.1251 -0.2489
   64MOL0     C 8347   8.185   2.406  11.501 -0.3579  0.8866  0.4315
   64MOL0     C 8348   8.210   2.279  11.447 -0.3075 -0.1608 -0.3474
   64MOL0     C 8349   8.273   2.180  11.517 -0.1059  0.1586  0.2802
   64MOL0     C 8350   8.308   2.203  11.651 -0.6055 -0.0647  0.5814
   64MOL0     O 8351   8.360   2.097  11.718 -0.3417 -1.1508 -0.5405
   64MOL0     C 8352   8.347   2.086  11.859  0.5530 -0.8378  0.6155
   64MOL0     C 8353   8.394   1.953  11.923 -0.0327 -0.0951  0.1879
   64MOL0     C 8354   8.281   1.867  11.973  0.3021  0.2590 -0.3305
   64MOL0     C 8355   8.341   1.728  12.007 -0.0517 -0.1055  0.3860
   64MOL0     C 8356   8.238   1.634  12.072  0.4662 -0.4181 -0.2227
   64MOL0     C 8357   8.313   1.521  12.130 -0.3694  0.8474 -0.1475
   64MOL0     C 8358   8.217   1.429  12.204  0.3090 -0.7049  1.0535
   64MOL0     C 8359   8.293   1.311  12.263  1.0182 -0.5626 -0.6375
   64MOL0    Cl 8360   8.335   1.194  12.150  0.2420  0.2920 -0.0379
   64MOL0     C 8361   8.292   2.328  11.706  0.5122 -0.0257  0.3918
   64MOL0     C 8362   8.228   2.429  11.635  0.2807  0.3465 -0.4988
   64MOL0     O 8363   8.252   2.663  11.431  0.1878 -0.1249  0.8259
   64MOL0     C 8364   8.092   2.827  11.264 -0.5190  0.4717  0.0946
   64MOL0     C 8365   7.995   2.905  11.200 -1.0686  1.1713 -0.3748
   64MOL0     N 8366   7.131   3.026  11.301 -0.4158 -0.5221  0.6958
   64MOL0     N 8367   7.022   3.090  11.294 -0.7422 -0.1208 -0.4119
   64MOL0     C 8368   6.044   3.798  11.285  0.1312 -0.5330  0.7614
   64MOL0     C 8369   6.042   3.934  11.290 -0.1872  0.3425 -0.3955
   64MOL0     C 8370   6.101   4.378  11.196 -0.2204 -0.1366 -0.4800
   64MOL0     C 8371   5.982   4.441  11.174 -0.1935  0.1496  0.4747
   64MOL0     C 8372   5.952   4.576  11.216  0.7746 -0.0084  0.3728
   64MOL0     C 8373   6.059   4.659  11.256  0.4247  0.5812 -0.3773
   64MOL0     O 8374   6.025   4.793  11.264 -0.0114  0.2811 -0.3499
   64MOL0     C 8375   6.129   4.880  11.218  0.0933  0.3622  0.2938
   64MOL0     C 8376   6.188   4.990  11.311  0.6779  0.0561 -0.3634
   64MOL0     C 8377   6.080   5.077  11.381 -0.4710 -0.2676 -0.3840
   64MOL0     C 8378   6.130   5.129  11.515 -1.6243  0.1732 -0.4777
   64MOL0     C 8379   6.052   5.235  11.581 -0.0604  0.7490  0.9067
   64MOL0     C 8380   5.996   5.334  11.623  0.4075  0.1501  0.6809
   64MOL0     C 8381   6.189   4.594  11.270  0.0157 -0.0525 -0.1235
   64MOL0     C 8382   6.212   4.454  11.246 -0.6717  0.0607 -0.1849
   64MOL0     H 8383   5.959   4.019  10.980  0.2335 -0.4628  0.4428
   64MOL0     H 8384   5.966   3.762  10.955 -1.0582  3.1068 -1.8301
   64MOL0     H 8385   6.119   3.468  11.261 -2.2529 -0.4571 -1.2957
   64MOL0     H 8386   6.228   3.596  11.244  2.1294 -2.1408  0.2794
   64MOL0     H 8387   6.227   3.511  10.990  0.0737  2.1234  0.9030
   64MOL0     H 8388   6.158   3.362  11.062 -0.7351  0.8957  2.7075
   64MOL0     H 8389   6.352   3.316  11.201  1.7023  0.4848  0.4785
   64MOL0     H 8390   6.414   3.475  11.190 -2.8075  0.9662  0.8350
   64MOL0     H 8391   6.434   3.271  10.955  0.0063  2.0096 -2.4924
   64MOL0     H 8392   6.459   3.447  10.958  2.0163  0.1399 -0.1378
   64MOL0     H 8393   6.576   3.242  11.158 -0.1056  0.6440  1.3305
   64MOL0     H 8394   6.614   3.411  11.142  0.6418 -1.3186  0.3422
   64MOL0     H 8395   6.698   3.350  10.894  0.2168 -1.3054 -1.3215
   64MOL0     H 8396   6.643   3.194  10.931 -0.2442 -1.0830  2.8380
   64MOL0     H 8397   6.892   3.253  10.958 -0.2461  0.5445 -0.8790
   64MOL0     H 8398   6.851   3.332  11.115  0.7639 -0.7882  0.7505
   64MOL0     H 8399   6.807   3.045  11.037  0.0083 -0.3774  0.5637
   64MOL0     H 8400   6.751   3.113  11.188 -0.5026  2.2410  0.1094
   64MOL0     H 8401   7.048   3.013  10.980  1.5900  2.2610 -0.7030
   64MOL0     H 8402   7.303   2.944  11.021  1.6144  0.7036  0.0215
   64MOL0     H 8403   7.242   2.795  11.092 -1.8831 -0.2553 -1.3796
   64MOL0     H 8404   7.382   2.832  11.278 -2.2307 -0.0234 -0.8666
   64MOL0     H 8405   7.387   3.001  11.251 -3.0197 -0.4437  2.2467
   64MOL0     H 8406   7.528   2.782  11.103 -0.4772  1.2883 -1.7935
   64MOL0     H 8407   7.512   2.927  11.018  0.4705 -4.0782 -1.7983
   64MOL0     H 8408   7.637   2.933  11.298 -0.7483 -0.4363 -0.7249
   64MOL0     H 8409   7.606   3.070  11.193  0.0395  0.0380 -1.5012
   64MOL0     H 8410   7.717   2.716  11.284  1.6017 -4.6757  0.2046
   64MOL0     H 8411   7.873   2.586  11.379 -0.7955 -1.3269 -0.8198
   64MOL0     H 8412   8.171   2.262  11.348 -1.1025  1.2621 -0.3057
   64MOL0     H 8413   8.296   2.087  11.465  2.0393  1.2956 -0.9583
   64MOL0     H 8414   8.240   2.101  11.872  0.5331  1.0367 -1.2119
   64MOL0     H 8415   8.394   2.170  11.911  0.8445 -0.0365 -0.8880
   64MOL0     H 8416   8.444   1.971  12.018 -3.6636  0.6176  2.1347
   64MOL0     H 8417   8.461   1.894  11.859 -2.4079 -2.9795  0.1557
   64MOL0     H 8418   8.206   1.861  11.894 -0.9887  1.0285  0.8006
   64MOL0     H 8419   8.234   1.910  12.061 -3.0979  0.4750 -2.1055
   64MOL0     H 8420   8.364   1.688  11.908  1.4418  3.8629 -1.0443
   64MOL0     H 8421   8.431   1.735  12.069 -0.5128  3.6313  0.8287
   64MOL0     H 8422   8.167   1.601  11.996  0.5885 -0.0569 -0.4997
   64MOL0     H 8423   8.176   1.683  12.147 -1.4832 -0.5608 -1.6682
   64MOL0     H 8424   8.383   1.567  12.201  1.3890 -0.6542 -0.8207
   64MOL0     H 8425   8.371   1.470  12.052 -0.8028  0.9770 -0.5590
   64MOL0     H 8426   8.152   1.485  12.271 -1.5546  0.7061 -1.7650
   64MOL0     H 8427   8.148   1.392  12.128  0.3245 -2.2587  1.7520
   64MOL0     H 8428   8.227   1.255  12.331  1.6517 -1.3994 -0.6969
   64MOL0     H 8429   8.380   1.346  12.320 -1.0290  1.8789  1.2272
   64MOL0     H 8430   8.318   2.356  11.807  1.6326 -1.1524  0.4398
   64MOL0     H 8431   8.205   2.523  11.685  1.8618  0.8700 -0.6993
   64MOL0     H 8432   8.196   2.857  11.272 -0.4186 -0.2510  2.1744
   64MOL0     H 8433   8.030   2.988  11.139 -0.7061  1.3275  0.0457
   64MOL0     H 8434   6.054   3.742  11.378 -0.6362 -0.9982  0.5736
   64MOL0     H 8435   6.070   3.977  11.386  1.6559 -2.7432  0.6074
   64MOL0     H 8436   5.906   4.374  11.136  0.9905  0.6859 -3.2235
   64MOL0     H 8437   5.849   4.610  11.211  0.2392 -1.5941 -0.1608
   64MOL0     H 8438   6.093   4.947  11.139 -1.0124 -0.1498  0.3506
   64MOL0     H 8439   6.218   4.828  11.181  1.0206  2.6612 -0.9191
   64MOL0     H 8440   6.246   4.942  11.392 -3.3373 -2.1976  1.4830
   64MOL0     H 8441   6.250   5.058  11.253 -0.2643  0.2350 -1.1793
   64MOL0     H 8442   5.988   5.020  11.397 -0.2886  0.1230  2.4748
   64MOL0     H 8443   6.052   5.167  11.324 -1.6256  0.1165  0.7391
   64MOL0     H 8444   6.146   5.040  11.578  2.1726 -0.2737 -1.8424
   64MOL0     H 8445   6.223   5.184  11.499 -2.5062  1.4712 -1.3156
   64MOL0     H 8446   5.952   5.428  11.651 -0.5620  0.1544 -0.7357
   64MOL0     H 8447   6.271   4.652  11.311 -0.3623  0.6058 -0.2740
   64MOL0     H 8448   6.312   4.413  11.257 -0.2182  0.2236 -3.0140
   65MOL0     O 8449   7.770   0.748   8.991 -0.3955  1.0899 -0.8727
   65MOL0     C 8450   7.672   0.807   9.023  0.3291 -0.1078  0.0638
   65MOL0     O 8451   7.646   0.842   9.152 -0.1253  0.5839  0.4172
   65MOL0     C 8452   7.677   0.771   9.268 -0.6248 -0.7618  0.4322
   65MOL0     C 8453   7.625   0.826   9.380 -0.0904 -0.1083  0.1973
   65MOL0     C 8454   7.636   0.776   9.513  0.8679  0.5130  0.8107
   65MOL0     C 8455   7.712   0.666   9.535 -0.6706 -0.6514  0.0084
   65MOL0     O 8456   7.749   0.625   9.660 -0.4872  0.3394 -0.2149
   65MOL0     C 8457   7.662   0.629   9.777  0.2900  0.6558  0.1151
   65MOL0     C 8458   7.741   0.599   9.906  0.9700 -0.0647  1.4286
   65MOL0     C 8459   7.697   0.667  10.041 -0.1423 -0.7804  0.3143
   65MOL0     C 8460   7.720   0.822  10.042  0.9304  0.4211  0.2424
   65MOL0     C 8461   7.880   0.853  10.039  0.8462 -0.4757  0.8636
   65MOL0     C 8462   7.898   1.004  10.021  0.7741  0.0649  0.4481
   65MOL0     C 8463   8.044   1.050  10.025 -0.5839  0.2113 -0.7547
   65MOL0     C 8464   8.139   0.972   9.944  0.0048 -0.8855  0.1735
   65MOL0     N 8465   8.270   1.045   9.925  0.6807 -0.1985 -0.1551
   65MOL0     C 8466   8.398   1.009   9.979  0.8642 -0.2944 -0.2717
   65MOL0     C 8467   8.493   1.067   9.906  0.0858  0.8494  0.3386
   65MOL0     C 8468   8.644   1.057   9.929  0.9701 -0.1297  0.3746
   65MOL0     C 8469   8.732   0.987   9.814 -0.1785 -1.3913  0.3704
   65MOL0     C 8470   8.742   1.076   9.697 -0.0377  0.3197  0.7251
   65MOL0     C 8471   8.831   1.207   9.716 -0.2087  0.5027 -0.3183
   65MOL0     O 8472   8.951   1.180   9.785 -0.0845  0.0211 -0.3880
   65MOL0     C 8473   9.056   1.105   9.737 -0.2720 -0.9253 -0.0315
   65MOL0     C 8474   9.072   1.093   9.601  0.0847  1.0921 -0.3104
   65MOL0     C 8475   9.192   1.032   9.557 -0.4797  0.4612 -0.4961
   65MOL0     C 8476   9.285   0.979   9.649  1.3104  0.2824 -0.5339
   65MOL0     C 8477   9.407   0.910   9.601  0.6362 -0.3555 -0.6224
   65MOL0     O 8478   9.521   0.919   9.679  0.2544 -0.6237  0.2327
   65MOL0     C 8479   9.641   0.858   9.640  0.5739  0.0024  0.0439
   65MOL0     C 8480   9.755   0.925   9.691 -0.8109 -0.2738  0.0191
   65MOL0     C 8481   9.885   0.866   9.684 -0.0962  0.1232 -0.6811
   65MOL0     C 8482   9.910   0.747   9.617 -1.0563 -0.3347 -0.0124
   65MOL0     O 8483  10.031   0.683   9.598 -0.6967  0.6729  0.2157
   65MOL0     C 8484  10.152   0.746   9.627 -0.9501  0.0843 -1.0018
   65MOL0     C 8485  10.190   0.711   9.774  0.5206  0.0930  0.9665
   65MOL0     C 8486  10.319   0.772   9.820 -0.3649 -0.7738  0.1532
   65MOL0     C 8487  10.334   0.759   9.975  0.1028  0.4273  1.0606
   65MOL0     C 8488  10.442   0.856  10.015  1.0166 -0.7026 -0.3270
   65MOL0     C 8489  10.519   0.817  10.142 -0.4439  0.5099  0.0591
   65MOL0     C 8490  10.455   0.872  10.267  0.4271 -0.0213 -0.6758
   65MOL0     C 8491  10.512   0.808  10.389  0.3174 -0.6242 -0.6251
   65MOL0    Cl 8492  10.469   0.913  10.536  0.0704  0.4875 -0.2532
   65MOL0     C 8493   9.799   0.686   9.562  0.4215 -0.2038  0.2819
   65MOL0     C 8494   9.663   0.738   9.573  0.2861 -1.3212  0.5884
   65MOL0     O 8495   9.405   0.866   9.488 -0.0642  0.7126  0.3099
   65MOL0     C 8496   9.260   0.999   9.784 -0.0224 -0.4818  0.5849
   65MOL0     C 8497   9.143   1.045   9.823  0.4649  1.1280  0.4448
   65MOL0     N 8498   8.424   1.147   9.816 -0.3773  0.2543 -0.6946
   65MOL0     N 8499   8.292   1.125   9.821 -0.4928  1.0396  0.4094
   65MOL0     C 8500   7.772   0.608   9.414  0.4572 -1.1899 -0.9262
   65MOL0     C 8501   7.752   0.660   9.288 -0.1503  0.4186  0.7341
   65MOL0     C 8502   7.558   0.819   8.929 -0.1846  0.4773 -0.5853
   65MOL0     C 8503   7.488   0.942   8.935  1.0652 -0.6147 -0.2396
   65MOL0     C 8504   7.368   0.958   8.856 -0.5631  0.7609 -0.8972
   65MOL0     C 8505   7.320   0.858   8.771 -0.7695 -0.5748 -0.6041
   65MOL0     O 8506   7.194   0.851   8.706  0.2870 -0.2355 -0.4253
   65MOL0     C 8507   7.085   0.925   8.765 -0.5005  1.7435 -0.2154
   65MOL0     C 8508   6.956   0.903   8.684  0.2040 -0.4949 -0.6081
   65MOL0     C 8509   6.900   0.760   8.699  0.3892 -0.8235 -0.0662
   65MOL0     C 8510   6.743   0.758   8.707 -0.6588 -0.1369  0.6338
   65MOL0     C 8511   6.702   0.787   8.845 -0.8060  0.6594  0.1394
   65MOL0     C 8512   6.665   0.807   8.957  0.0077  1.0750  0.1824
   65MOL0     C 8513   7.392   0.743   8.756 -0.2305  0.3045  0.1683
   65MOL0     C 8514   7.516   0.728   8.833  0.2602  0.7548  0.1541
   65MOL0     H 8515   7.575   0.917   9.347  1.4684  0.7306  0.0209
   65MOL0     H 8516   7.598   0.833   9.596 -3.2434  0.4740 -0.8231
   65MOL0     H 8517   7.583   0.555   9.761 -0.8697  1.2628  2.5211
   65MOL0     H 8518   7.619   0.730   9.775  1.1768  1.0270 -1.1495
   65MOL0     H 8519   7.849   0.618   9.910  1.3935 -2.1723  1.2251
   65MOL0     H 8520   7.726   0.492   9.923  0.8707 -0.0958  1.1499
   65MOL0     H 8521   7.751   0.623  10.125  1.5703  0.1462 -0.2618
   65MOL0     H 8522   7.589   0.647  10.048 -0.1739 -2.0285 -2.3012
   65MOL0     H 8523   7.668   0.879   9.964 -1.2770 -1.9258 -0.1056
   65MOL0     H 8524   7.681   0.867  10.134  1.8818 -0.2930  1.0186
   65MOL0     H 8525   7.929   0.803   9.955  1.7999  1.1268  0.4061
   65MOL0     H 8526   7.931   0.821  10.130 -0.8655 -1.2075  1.5991
   65MOL0     H 8527   7.843   1.043  10.107  1.2861 -1.8675  1.7374
   65MOL0     H 8528   7.854   1.034   9.926  2.6585  1.5409 -0.0210
   65MOL0     H 8529   8.043   1.155   9.993  1.7286  0.2488 -0.8938
   65MOL0     H 8530   8.082   1.052  10.128 -0.9902 -0.0362 -0.5976
   65MOL0     H 8531   8.089   0.939   9.852 -0.8780 -3.1660  1.3981
   65MOL0     H 8532   8.160   0.880   9.998  1.5542 -1.1456 -0.7978
   65MOL0     H 8533   8.415   0.958  10.073 -1.1431  3.5073  2.4285
   65MOL0     H 8534   8.663   0.989  10.013 -0.0239 -2.2933 -1.0737
   65MOL0     H 8535   8.691   1.152   9.956  2.9508 -0.6239 -1.1478
   65MOL0     H 8536   8.686   0.890   9.793 -2.4299 -0.3734  0.3358
   65MOL0     H 8537   8.831   0.956   9.849  1.5275  0.7489 -2.1480
   65MOL0     H 8538   8.794   1.010   9.628  0.4928 -0.0142  1.4306
   65MOL0     H 8539   8.647   1.105   9.650 -0.3068  2.0378  2.1926
   65MOL0     H 8540   8.772   1.268   9.785  1.5174  2.7078 -0.6702
   65MOL0     H 8541   8.841   1.270   9.627 -1.3386  0.0964 -0.7595
   65MOL0     H 8542   9.002   1.115   9.521  0.1001 -0.7609 -0.8945
   65MOL0     H 8543   9.222   1.027   9.452 -2.4698 -0.8770 -1.0578
   65MOL0     H 8544   9.748   1.029   9.723  1.4714  0.3161 -1.1835
   65MOL0     H 8545   9.964   0.928   9.725 -1.3975 -1.4479  5.0666
   65MOL0     H 8546  10.134   0.854   9.617  1.8875  1.3710  4.0579
   65MOL0     H 8547  10.232   0.716   9.558 -0.8494 -2.6969  0.2110
   65MOL0     H 8548  10.199   0.603   9.784 -0.2183 -0.2058 -1.0492
   65MOL0     H 8549  10.109   0.751   9.836  0.4398 -0.5578  1.2910
   65MOL0     H 8550  10.320   0.875   9.783  0.0286 -1.5916 -2.2736
   65MOL0     H 8551  10.412   0.728   9.785 -0.6946  0.3146 -2.2594
   65MOL0     H 8552  10.245   0.788  10.031 -2.0261 -3.0674 -0.1743
   65MOL0     H 8553  10.358   0.656  10.001 -0.3187  0.6151  2.2119
   65MOL0     H 8554  10.405   0.958  10.026  3.4261  0.1033  1.1924
   65MOL0     H 8555  10.517   0.867   9.936 -0.2448  2.8298 -1.2183
   65MOL0     H 8556  10.624   0.842  10.127 -0.4216 -0.7545 -2.3084
   65MOL0     H 8557  10.509   0.710  10.159 -2.9134  0.5149 -0.9102
   65MOL0     H 8558  10.476   0.979  10.266  0.4371 -0.0112 -0.0475
   65MOL0     H 8559  10.346   0.869  10.263  0.4162 -0.4661 -0.2057
   65MOL0     H 8560  10.620   0.812  10.374  0.4146 -3.9939 -1.6622
   65MOL0     H 8561  10.481   0.703  10.395  1.3314 -1.2193 -4.0384
   65MOL0     H 8562   9.819   0.599   9.501 -0.3066  1.2439 -2.1399
   65MOL0     H 8563   9.587   0.684   9.519 -0.9528 -1.1356  2.0766
   65MOL0     H 8564   9.329   0.962   9.859 -1.4634 -3.3780  0.6105
   65MOL0     H 8565   9.132   1.063   9.929  0.2535  0.8533  0.4710
   65MOL0     H 8566   7.835   0.520   9.408 -2.7068 -3.7395  0.2073
   65MOL0     H 8567   7.802   0.617   9.202 -0.5925 -0.2388  0.8050
   65MOL0     H 8568   7.497   1.022   9.009 -3.7923 -1.8426  2.0817
   65MOL0     H 8569   7.304   1.045   8.858  1.1314  2.0815 -1.2165
   65MOL0     H 8570   7.116   1.029   8.782 -2.0575  2.5798 -2.1497
   65MOL0     H 8571   7.073   0.876   8.862  0.5143  0.8620 -0.5153
   65MOL0     H 8572   6.887   0.978   8.724  0.4701 -0.5043 -0.1310
   65MOL0     H 8573   6.978   0.934   8.582  2.6011  1.4873  0.4145
   65MOL0     H 8574   6.942   0.715   8.790 -0.1312 -1.4909 -0.1486
   65MOL0     H 8575   6.929   0.696   8.615  0.5350  2.0489 -2.3384
   65MOL0     H 8576   6.704   0.838   8.643 -1.1140 -0.5264  0.4231
   65MOL0     H 8577   6.700   0.659   8.692 -1.1081  0.3516 -1.6253
   65MOL0     H 8578   6.628   0.795   9.057 -0.9034 -5.7473 -0.4626
   65MOL0     H 8579   7.362   0.662   8.689  0.4431 -0.8963  1.2847
   65MOL0     H 8580   7.578   0.641   8.813  2.1368  2.4011 -1.7221
   66MOL0     O 8581   7.599  10.323   1.509  0.7408  0.0612 -0.1177
   66MOL0     C 8582   7.643  10.421   1.566 -0.4103 -0.6126 -0.4172
   66MOL0     O 8583   7.720  10.415   1.673  0.0482 -0.5837  0.3977
   66MOL0     C 8584   7.729  10.294   1.733 -0.5634 -0.3480  0.4101
   66MOL0     C 8585   7.798  10.183   1.684  0.3277  0.4955 -0.0506
   66MOL0     C 8586   7.803  10.056   1.758  0.2202  0.5629 -0.0238
   66MOL0     C 8587   7.734  10.053   1.881 -0.6039 -0.4343  0.0011
   66MOL0     O 8588   7.712   9.930   1.944  0.2880 -0.2918 -0.2463
   66MOL0     C 8589   7.587   9.931   2.017 -0.2941  0.9905 -0.0904
   66MOL0     C 8590   7.579   9.780   2.048  0.2612 -0.9420 -0.5848
   66MOL0     C 8591   7.431   9.757   2.089 -0.6718  0.5703 -0.7964
   66MOL0     C 8592   7.399   9.605   2.060 -0.1378 -0.2254  0.0360
   66MOL0     C 8593   7.250   9.564   2.049  0.4281 -0.6444 -0.0882
   66MOL0     C 8594   7.176   9.623   2.174  0.0456 -0.6694 -0.0023
   66MOL0     C 8595   7.040   9.551   2.202 -0.5014  0.3388  0.4514
   66MOL0     C 8596   6.995   9.566   2.345 -0.1687 -0.3681 -0.7055
   66MOL0     N 8597   6.858   9.535   2.355 -0.5195  0.1944  0.1254
   66MOL0     C 8598   6.796   9.429   2.294 -0.0484 -0.0898  0.3740
   66MOL0     C 8599   6.666   9.447   2.335  0.1752 -0.2356 -0.9646
   66MOL0     C 8600   6.557   9.349   2.322 -0.2564 -0.2869  0.3722
   66MOL0     C 8601   6.499   9.333   2.458  0.3926  0.3392 -0.3170
   66MOL0     C 8602   6.415   9.207   2.493  0.1650 -0.4111  0.1472
   66MOL0     C 8603   6.375   9.197   2.634  0.4896 -0.2175 -0.0988
   66MOL0     O 8604   6.273   9.104   2.667 -0.5849 -0.1575 -0.0376
   66MOL0     C 8605   6.162   9.101   2.599 -0.4094  1.0452  0.1545
   66MOL0     C 8606   6.108   8.973   2.583 -0.2767  0.0078 -0.7010
   66MOL0     C 8607   5.998   8.951   2.499  0.0667  0.3686  1.5682
   66MOL0     C 8608   5.936   9.060   2.425  0.5546  0.3240 -0.7948
   66MOL0     C 8609   5.813   9.042   2.338  0.2413  0.5647  0.4055
   66MOL0     O 8610   5.773   8.911   2.319  0.2603 -0.6253 -0.3760
   66MOL0     C 8611   5.672   8.880   2.229 -0.3557 -0.5417  0.6793
   66MOL0     C 8612   5.666   8.916   2.095 -0.7920 -0.3171 -0.0016
   66MOL0     C 8613   5.563   8.872   2.012  0.4582 -1.5333  0.9276
   66MOL0     C 8614   5.454   8.798   2.061 -0.4102 -0.2528 -0.3771
   66MOL0     O 8615   5.353   8.778   1.973  0.4903  0.8277 -0.6737
   66MOL0     C 8616   5.215   8.779   2.036  0.4204  0.0700  0.6705
   66MOL0     C 8617   5.109   8.788   1.934 -0.4553  0.4549  0.5511
   66MOL0     C 8618   4.972   8.793   1.999  0.1747  1.3548 -0.3087
   66MOL0     C 8619   4.849   8.780   1.906 -0.6943 -0.2475  0.0706
   66MOL0     C 8620   4.718   8.799   1.992  0.5693 -1.4795 -0.9511
   66MOL0     C 8621   4.593   8.770   1.903  0.2763  0.4782  0.5665
   66MOL0     C 8622   4.454   8.807   1.967  0.1717 -0.2868  0.3003
   66MOL0     C 8623   4.330   8.760   1.878 -1.3085  0.1419  0.0358
   66MOL0    Cl 8624   4.179   8.829   1.932  0.1956 -0.7673 -0.1176
   66MOL0     C 8625   5.461   8.764   2.196  1.1348 -0.4287 -0.8734
   66MOL0     C 8626   5.570   8.806   2.284  0.8103  0.6769  0.5817
   66MOL0     O 8627   5.766   9.142   2.283  0.3139  0.1785 -0.3617
   66MOL0     C 8628   5.979   9.192   2.452 -0.0784 -0.7640 -0.0125
   66MOL0     C 8629   6.100   9.211   2.529 -0.3394 -0.0669  0.7657
   66MOL0     N 8630   6.653   9.571   2.399 -0.1462  0.6551 -0.6196
   66MOL0     N 8631   6.769   9.614   2.420  0.1513  0.8584 -0.7059
   66MOL0     C 8632   7.686  10.173   1.940 -0.5545  0.7794 -0.5898
   66MOL0     C 8633   7.683  10.293   1.861 -0.7167  0.2687 -1.2048
   66MOL0     C 8634   7.620  10.553   1.504  0.6266 -0.5741  0.4876
   66MOL0     C 8635   7.525  10.570   1.401  0.4309 -1.6878 -0.7221
   66MOL0     C 8636   7.511  10.693   1.333 -0.0290 -0.1564 -0.2346
   66MOL0     C 8637   7.587  10.806   1.368  0.0370 -0.1755 -0.3092
   66MOL0     O 8638   7.588  10.933   1.305  0.2440 -0.3143  0.4810
   66MOL0     C 8639   7.519  10.942   1.185 -0.6748  0.6262  1.0956
   66MOL0     C 8640   7.375  10.949   1.213 -0.3258 -1.0454 -0.3918
   66MOL0     C 8641   7.274  10.967   1.094 -0.6273  0.1312 -0.2967
   66MOL0     C 8642   7.135  10.905   1.108 -0.6687  0.6200 -0.9160
   66MOL0     C 8643   7.140  10.762   1.123  0.6840 -0.5700  1.2968
   66MOL0     C 8644   7.137  10.641   1.155  0.0856  0.1767  1.1607
   66MOL0     C 8645   7.667  10.790   1.482 -0.3076  0.3749  0.1672
   66MOL0     C 8646   7.685  10.670   1.548 -0.6201  0.0256 -0.4552
   66MOL0     H 8647   7.831  10.176   1.580  1.6090  2.1180  0.2006
   66MOL0     H 8648   7.852   9.963   1.734 -0.0294  0.0339  1.4542
   66MOL0     H 8649   7.495   9.963   1.966 -0.3177 -1.2191 -1.6081
   66MOL0     H 8650   7.605   9.989   2.108 -1.3334 -3.0265  2.9686
   66MOL0     H 8651   7.652   9.753   2.125 -0.5964 -0.2899  0.4686
   66MOL0     H 8652   7.596   9.722   1.956 -1.1618 -0.4964 -1.1521
   66MOL0     H 8653   7.364   9.813   2.023 -0.0625 -1.7075 -3.5948
   66MOL0     H 8654   7.414   9.773   2.195 -0.4872  0.1221 -0.6996
   66MOL0     H 8655   7.456   9.575   1.972  0.8333  2.6650 -0.4341
   66MOL0     H 8656   7.443   9.549   2.143 -1.3619 -0.6061  0.4578
   66MOL0     H 8657   7.248   9.455   2.040 -0.5990 -0.8634  2.1969
   66MOL0     H 8658   7.204   9.606   1.960 -0.3385  2.4284  1.6016
   66MOL0     H 8659   7.147   9.728   2.161  0.1306 -0.9433 -3.3944
   66MOL0     H 8660   7.232   9.624   2.268  0.8783  1.0588 -0.4601
   66MOL0     H 8661   6.963   9.595   2.139  0.7115  2.6822  0.5103
   66MOL0     H 8662   7.051   9.446   2.174  1.5115  1.3067 -2.8625
   66MOL0     H 8663   6.991   9.673   2.368 -0.3780 -0.5156 -0.0340
   66MOL0     H 8664   7.059   9.505   2.410  0.2715  1.2076  0.4020
   66MOL0     H 8665   6.839   9.341   2.246 -0.6452  0.2213 -0.7700
   66MOL0     H 8666   6.599   9.253   2.293 -0.1468  0.3850 -1.8732
   66MOL0     H 8667   6.490   9.379   2.240 -3.2244 -0.9873  2.3684
   66MOL0     H 8668   6.438   9.421   2.482  3.6214  2.8434 -0.5652
   66MOL0     H 8669   6.579   9.333   2.533  0.0192 -0.2380  0.0833
   66MOL0     H 8670   6.332   9.207   2.422  0.1405  2.1226  0.0887
   66MOL0     H 8671   6.469   9.115   2.470 -0.4145 -0.5651 -0.6187
   66MOL0     H 8672   6.339   9.294   2.670  0.6547  0.1559 -0.9220
   66MOL0     H 8673   6.462   9.186   2.698  1.8917  1.3803 -1.6231
   66MOL0     H 8674   6.143   8.887   2.639  1.0393  0.9593 -0.0127
   66MOL0     H 8675   5.971   8.848   2.480 -3.1914  1.1425  1.3738
   66MOL0     H 8676   5.758   8.965   2.067 -0.3836 -1.4643 -0.7394
   66MOL0     H 8677   5.554   8.920   1.915 -0.1297 -0.3206  1.5666
   66MOL0     H 8678   5.200   8.870   2.094  3.0791  0.7054  0.5094
   66MOL0     H 8679   5.203   8.692   2.101 -0.0443  0.4914  1.1557
   66MOL0     H 8680   5.117   8.695   1.877 -0.0302  1.0768 -0.4477
   66MOL0     H 8681   5.126   8.867   1.860 -2.9976  0.9313  0.3909
   66MOL0     H 8682   4.961   8.880   2.064  0.4902  1.7867 -0.8259
   66MOL0     H 8683   4.958   8.703   2.060 -1.2671  2.1739  0.6078
   66MOL0     H 8684   4.853   8.868   1.840 -2.5526 -0.2872 -0.1335
   66MOL0     H 8685   4.839   8.692   1.843 -0.3014  1.0366 -1.8898
   66MOL0     H 8686   4.716   8.905   2.019  1.5310 -1.1824 -1.9714
   66MOL0     H 8687   4.719   8.723   2.070  2.8886 -3.4705 -2.7850
   66MOL0     H 8688   4.598   8.669   1.860 -0.1504  2.5229 -5.1099
   66MOL0     H 8689   4.593   8.837   1.817  0.0221  2.0437  1.7439
   66MOL0     H 8690   4.443   8.762   2.066 -1.3305  0.4391  0.4893
   66MOL0     H 8691   4.445   8.912   1.998  0.4622 -0.1104 -0.1973
   66MOL0     H 8692   4.326   8.653   1.896 -0.4264 -0.2611 -1.9581
   66MOL0     H 8693   4.352   8.778   1.773  3.0021 -0.3689  0.6778
   66MOL0     H 8694   5.385   8.708   2.249  0.1984  2.9931  1.7532
   66MOL0     H 8695   5.570   8.779   2.389 -1.1791  0.1670  0.4966
   66MOL0     H 8696   5.925   9.277   2.411 -0.1388  0.3918  2.2642
   66MOL0     H 8697   6.120   9.313   2.560 -3.8283  0.0041  3.3371
   66MOL0     H 8698   7.632  10.182   2.034 -2.4241  1.4885 -1.6756
   66MOL0     H 8699   7.638  10.385   1.896 -1.3716 -0.0270 -1.2474
   66MOL0     H 8700   7.458  10.491   1.368 -3.2212  0.9219 -0.1527
   66MOL0     H 8701   7.446  10.696   1.246  0.0121  2.4780 -0.2541
   66MOL0     H 8702   7.541  10.852   1.126  1.4459  2.1161 -0.5474
   66MOL0     H 8703   7.549  11.023   1.118  1.1745 -1.6197 -1.0281
   66MOL0     H 8704   7.350  10.876   1.291  3.4329  0.2199  2.2419
   66MOL0     H 8705   7.368  11.043   1.269 -1.7695 -1.2935 -0.1075
   66MOL0     H 8706   7.329  10.930   1.007  2.0917  3.4788 -0.2182
   66MOL0     H 8707   7.239  11.069   1.073 -0.5150 -0.5627 -4.6593
   66MOL0     H 8708   7.090  10.947   1.199 -0.5564  0.9911 -1.0281
   66MOL0     H 8709   7.082  10.923   1.014 -1.5611  0.7567 -0.4001
   66MOL0     H 8710   7.114  10.541   1.185  1.7014 -1.5361 -2.6058
   66MOL0     H 8711   7.721  10.881   1.506  2.0717 -1.0382  0.5001
   66MOL0     H 8712   7.746  10.673   1.638  1.1524 -2.0568 -1.4798
   67MOL0     O 8713   7.494   5.515   4.239  0.2423 -0.0247  0.0024
   67MOL0     C 8714   7.482   5.481   4.354  0.8614  1.1465 -0.2162
   67MOL0     O 8715   7.569   5.488   4.456 -0.5803  0.5809  0.1819
   67MOL0     C 8716   7.694   5.537   4.438 -0.5932 -0.7292  0.4429
   67MOL0     C 8717   7.766   5.561   4.551 -0.0236 -0.8219 -0.2293
   67MOL0     C 8718   7.903   5.596   4.557  0.1658  0.0151  0.7389
   67MOL0     C 8719   7.962   5.626   4.438 -0.5905  0.6687 -0.5169
   67MOL0     O 8720   8.092   5.648   4.467  0.2522 -0.4698 -0.5108
   67MOL0     C 8721   8.141   5.759   4.400 -0.5982 -0.6736  0.5399
   67MOL0     C 8722   8.286   5.800   4.443 -0.1113  0.6115 -0.7013
   67MOL0     C 8723   8.312   5.953   4.420  0.6413  0.0758 -1.0713
   67MOL0     C 8724   8.464   5.975   4.432  0.5993  0.0638 -0.2267
   67MOL0     C 8725   8.506   6.114   4.389 -0.0064  0.9045  0.5447
   67MOL0     C 8726   8.646   6.155   4.434 -0.6868  0.2494  0.2988
   67MOL0     C 8727   8.681   6.146   4.576 -0.2221 -0.4415 -0.1103
   67MOL0     C 8728   8.798   6.243   4.595  0.1332  0.6509  0.1771
   67MOL0     N 8729   8.928   6.187   4.543  0.0988  0.2639 -0.1389
   67MOL0     C 8730   9.013   6.092   4.608  0.8904 -0.5304 -0.1718
   67MOL0     C 8731   9.135   6.112   4.548  0.7232  0.3956 -0.3208
   67MOL0     C 8732   9.262   6.045   4.586 -0.2933  0.0294 -0.4206
   67MOL0     C 8733   9.332   5.966   4.477 -0.8405 -0.0994  0.0293
   67MOL0     C 8734   9.361   6.027   4.343 -0.9737 -0.7993 -0.1256
   67MOL0     C 8735   9.283   5.972   4.225 -0.1746 -0.3639 -0.0319
   67MOL0     O 8736   9.311   5.833   4.231  0.1387 -0.5003  0.2165
   67MOL0     C 8737   9.227   5.754   4.156  0.3624  0.5823 -0.1014
   67MOL0     C 8738   9.137   5.806   4.049  0.0563 -0.3686  1.0502
   67MOL0     C 8739   9.064   5.715   3.976 -0.4527  0.6906  0.1974
   67MOL0     C 8740   9.067   5.572   4.007 -0.9657 -0.4119  0.4237
   67MOL0     C 8741   8.979   5.480   3.937  0.9768 -0.8263 -0.3291
   67MOL0     O 8742   8.922   5.533   3.824  0.5631  0.5525 -0.6562
   67MOL0     C 8743   8.826   5.464   3.756  0.4259 -0.7812  0.5913
   67MOL0     C 8744   8.716   5.420   3.824 -1.2308  0.3890  0.3943
   67MOL0     C 8745   8.620   5.339   3.755  0.2485 -0.4675  0.6007
   67MOL0     C 8746   8.631   5.320   3.622 -0.4766 -0.9594 -0.1022
   67MOL0     O 8747   8.535   5.250   3.557 -0.2756 -0.1678 -0.3309
   67MOL0     C 8748   8.471   5.135   3.622 -1.0129  0.3613  0.0489
   67MOL0     C 8749   8.394   5.052   3.524  0.0489  0.3679  0.2595
   67MOL0     C 8750   8.488   4.968   3.431 -0.1935  1.0185  0.4027
   67MOL0     C 8751   8.570   5.054   3.331 -0.7025 -0.6019 -0.5542
   67MOL0     C 8752   8.677   4.979   3.258 -0.1787  0.5573  0.2790
   67MOL0     C 8753   8.618   4.870   3.162  0.5364  0.0113  0.3602
   67MOL0     C 8754   8.730   4.792   3.093  0.0387  0.3940  0.0290
   67MOL0     C 8755   8.808   4.862   2.980 -0.2239  0.4097  0.3163
   67MOL0    Cl 8756   8.713   4.858   2.832  0.0241 -0.4466 -0.0573
   67MOL0     C 8757   8.750   5.368   3.551 -0.7648 -0.7417 -0.6227
   67MOL0     C 8758   8.850   5.444   3.620  0.8944 -0.4373  0.9966
   67MOL0     O 8759   8.963   5.363   3.983 -0.0717 -0.4909  0.2289
   67MOL0     C 8760   9.135   5.532   4.120 -0.3080 -0.2032 -0.4568
   67MOL0     C 8761   9.217   5.621   4.193 -0.2265 -0.3358 -0.2295
   67MOL0     N 8762   9.122   6.194   4.431 -0.0589 -0.4140 -0.3650
   67MOL0     N 8763   8.997   6.221   4.428  0.0037 -0.5308  0.1653
   67MOL0     C 8764   7.901   5.591   4.310 -0.5590  0.1630 -0.1875
   67MOL0     C 8765   7.770   5.535   4.315  0.8214 -0.0954  1.0017
   67MOL0     C 8766   7.347   5.438   4.387 -0.8639  0.9225 -0.6128
   67MOL0     C 8767   7.257   5.393   4.286  0.1071 -0.8218  0.4637
   67MOL0     C 8768   7.137   5.333   4.334 -0.9509 -0.3666  0.6353
   67MOL0     C 8769   7.104   5.320   4.470  1.2688 -0.9456 -0.7175
   67MOL0     O 8770   6.978   5.260   4.497 -0.2506 -0.5536 -0.1651
   67MOL0     C 8771   6.935   5.246   4.626  0.1848  0.3708  0.3529
   67MOL0     C 8772   6.790   5.199   4.632  0.4369  0.0751 -0.7240
   67MOL0     C 8773   6.723   5.255   4.760  0.5546  0.8899  0.4449
   67MOL0     C 8774   6.587   5.182   4.776  0.8081 -0.4416  0.4940
   67MOL0     C 8775   6.542   5.196   4.923 -0.0465  0.2004  0.5945
   67MOL0     C 8776   6.507   5.211   5.040 -0.0553 -0.2400 -0.1184
   67MOL0     C 8777   7.188   5.376   4.570  0.4642  0.7596  0.3095
   67MOL0     C 8778   7.304   5.424   4.516 -0.3089  0.2210  0.0888
   67MOL0     H 8779   7.715   5.544   4.646  0.8502 -1.2975  0.1633
   67MOL0     H 8780   7.947   5.602   4.656 -1.9107  0.0615  1.7229
   67MOL0     H 8781   8.078   5.846   4.421  2.8247  2.9668 -2.6965
   67MOL0     H 8782   8.145   5.730   4.295  3.7838 -2.3765  0.9354
   67MOL0     H 8783   8.361   5.735   4.398 -0.7114 -2.2516  2.1037
   67MOL0     H 8784   8.299   5.782   4.550 -1.9212  0.2633 -0.5098
   67MOL0     H 8785   8.264   6.024   4.489  0.2596 -0.4089 -0.8259
   67MOL0     H 8786   8.276   5.984   4.322 -3.0791 -1.5755 -0.4162
   67MOL0     H 8787   8.493   5.960   4.537 -0.7548 -0.7759  0.0516
   67MOL0     H 8788   8.524   5.902   4.377 -0.3428 -2.7903  2.2471
   67MOL0     H 8789   8.431   6.187   4.421 -0.3857 -0.1123  2.0608
   67MOL0     H 8790   8.505   6.108   4.279  1.8561 -1.7558  0.5896
   67MOL0     H 8791   8.659   6.258   4.397  2.0598  1.3444  3.7503
   67MOL0     H 8792   8.721   6.095   4.383 -1.1971  1.1485 -1.6193
   67MOL0     H 8793   8.595   6.174   4.638 -0.6568 -0.6471 -0.6138
   67MOL0     H 8794   8.705   6.041   4.593 -0.3086 -0.6790 -1.3355
   67MOL0     H 8795   8.811   6.251   4.703 -1.3989 -0.9503  0.5217
   67MOL0     H 8796   8.786   6.342   4.550 -0.1505 -0.1762 -1.6745
   67MOL0     H 8797   8.989   6.027   4.691  1.2352 -0.5186 -0.0614
   67MOL0     H 8798   9.238   5.981   4.671 -1.7525 -0.8911 -1.4563
   67MOL0     H 8799   9.332   6.127   4.604  2.2229 -2.6292  3.2605
   67MOL0     H 8800   9.277   5.871   4.472 -0.8088 -0.1948  1.1734
   67MOL0     H 8801   9.428   5.937   4.521 -1.2827  0.0265  1.1205
   67MOL0     H 8802   9.342   6.134   4.352 -0.2009 -0.6864  0.2647
   67MOL0     H 8803   9.468   6.012   4.326 -0.5383  1.7547  0.0045
   67MOL0     H 8804   9.310   6.020   4.131 -0.0332 -2.6698 -1.2238
   67MOL0     H 8805   9.176   5.993   4.233 -0.3293 -0.6389 -1.2600
   67MOL0     H 8806   9.131   5.908   4.012 -0.5339 -1.0732 -0.9495
   67MOL0     H 8807   8.993   5.739   3.898 -3.3395  1.6110  2.8655
   67MOL0     H 8808   8.700   5.438   3.929 -0.6283 -0.3352  0.6201
   67MOL0     H 8809   8.543   5.289   3.813  0.7126 -1.7324  0.1505
   67MOL0     H 8810   8.406   5.162   3.706 -0.3962 -1.8875  1.3398
   67MOL0     H 8811   8.555   5.081   3.668 -2.3713 -0.2522  1.9624
   67MOL0     H 8812   8.325   5.108   3.461  1.6246 -1.9700 -3.9563
   67MOL0     H 8813   8.341   4.979   3.587  0.4219  2.1641  2.8374
   67MOL0     H 8814   8.431   4.891   3.380  2.4002 -1.2257  0.6729
   67MOL0     H 8815   8.566   4.918   3.489 -1.8520 -1.5397  0.5845
   67MOL0     H 8816   8.503   5.111   3.266 -4.5662 -3.6822  0.3641
   67MOL0     H 8817   8.630   5.122   3.392 -1.4050 -0.2482 -0.2576
   67MOL0     H 8818   8.742   4.926   3.328 -0.1100 -1.1238 -0.9984
   67MOL0     H 8819   8.745   5.049   3.210 -1.2276  1.4881  0.1155
   67MOL0     H 8820   8.559   4.917   3.082  0.3699  2.2508  1.7062
   67MOL0     H 8821   8.565   4.794   3.218  1.4929 -1.6976 -0.9539
   67MOL0     H 8822   8.803   4.765   3.170 -0.1297 -3.5708 -0.9985
   67MOL0     H 8823   8.676   4.706   3.053  0.0156 -0.6930  2.2455
   67MOL0     H 8824   8.897   4.802   2.961 -0.5843  0.1422 -0.5617
   67MOL0     H 8825   8.841   4.964   3.003  0.4570  0.4417 -0.7612
   67MOL0     H 8826   8.765   5.342   3.447 -0.6758 -0.8652 -0.5789
   67MOL0     H 8827   8.947   5.466   3.576 -0.7957  1.2159 -2.2290
   67MOL0     H 8828   9.135   5.430   4.158  3.6489  0.4871  1.9921
   67MOL0     H 8829   9.267   5.581   4.281  0.7778  1.6155  0.1317
   67MOL0     H 8830   7.951   5.592   4.214 -1.2941 -2.4646 -0.6614
   67MOL0     H 8831   7.718   5.515   4.222 -1.4672  3.1815  1.4237
   67MOL0     H 8832   7.277   5.400   4.180 -2.6326 -0.4984 -0.0809
   67MOL0     H 8833   7.069   5.301   4.256  0.0305  3.6546 -2.2051
   67MOL0     H 8834   6.934   5.350   4.658 -1.3730  1.2583 -2.2306
   67MOL0     H 8835   7.018   5.189   4.669 -0.2255  0.1205  0.8034
   67MOL0     H 8836   6.732   5.235   4.546 -0.7539 -0.7487 -0.2901
   67MOL0     H 8837   6.776   5.091   4.631  0.1311  0.0221  1.8865
   67MOL0     H 8838   6.719   5.365   4.760  2.7148  1.0655 -2.1143
   67MOL0     H 8839   6.772   5.221   4.852 -0.2300  0.5394  0.7455
   67MOL0     H 8840   6.501   5.230   4.729 -0.8387 -1.6095  2.1979
   67MOL0     H 8841   6.591   5.084   4.728  2.5439  0.2140 -0.8218
   67MOL0     H 8842   6.464   5.222   5.138 -1.0222  0.7006 -0.6306
   67MOL0     H 8843   7.175   5.377   4.677  2.4628  2.6070  0.5922
   67MOL0     H 8844   7.372   5.458   4.594 -0.9069 -0.2904  0.8467
   68MOL0     O 8845   6.827   3.929   1.337  0.4684 -0.5185 -0.0006
   68MOL0     C 8846   6.720   3.971   1.299 -0.4227 -0.9207 -0.7510
   68MOL0     O 8847   6.643   3.908   1.207 -0.8982 -0.1194  0.2418
   68MOL0     C 8848   6.672   3.799   1.132  0.6778  0.7483  0.1507
   68MOL0     C 8849   6.652   3.813   0.986 -0.6978 -0.7282 -0.0427
   68MOL0     C 8850   6.669   3.707   0.890  0.5533  0.0113 -0.3689
   68MOL0     C 8851   6.700   3.585   0.942 -0.1747 -0.0551  0.0516
   68MOL0     O 8852   6.689   3.482   0.850 -0.5324  0.2867  0.0166
   68MOL0     C 8853   6.676   3.346   0.889 -0.9416 -0.1844  0.5071
   68MOL0     C 8854   6.553   3.277   0.827 -0.1624 -0.0506 -1.4530
   68MOL0     C 8855   6.518   3.142   0.892 -0.0811 -0.3241  0.9202
   68MOL0     C 8856   6.509   3.145   1.051 -0.2955 -0.3533  0.1896
   68MOL0     C 8857   6.423   3.031   1.111 -0.3885 -0.0551 -0.8029
   68MOL0     C 8858   6.478   2.890   1.080  1.1878 -0.7527 -0.6037
   68MOL0     C 8859   6.617   2.861   1.147 -0.4762  0.0021 -0.5016
   68MOL0     C 8860   6.679   2.738   1.076 -0.5430  0.6890  0.1245
   68MOL0     N 8861   6.615   2.608   1.099  0.5511 -0.5955 -0.2097
   68MOL0     C 8862   6.526   2.557   1.003 -0.1710  0.6541 -0.3553
   68MOL0     C 8863   6.506   2.435   1.054  0.2871 -0.2071  0.4640
   68MOL0     C 8864   6.400   2.343   1.000 -0.7766  0.7223 -0.6551
   68MOL0     C 8865   6.440   2.189   1.001  0.6215  0.3372 -0.5061
   68MOL0     C 8866   6.311   2.123   0.950 -0.2487  0.0223  0.1769
   68MOL0     C 8867   6.312   1.968   0.963 -0.3792  0.5124 -0.5950
   68MOL0     O 8868   6.218   1.910   0.877 -0.8838  0.0671 -0.6531
   68MOL0     C 8869   6.089   1.909   0.910 -1.0492 -0.8211 -1.3855
   68MOL0     C 8870   6.009   1.849   0.812  0.1661  0.3790 -0.2491
   68MOL0     C 8871   5.871   1.841   0.829 -0.2807  0.2563 -1.3595
   68MOL0     C 8872   5.804   1.904   0.936 -1.2456 -0.1966 -0.2535
   68MOL0     C 8873   5.653   1.930   0.923 -0.6483  0.0953  1.1790
   68MOL0     O 8874   5.599   1.882   0.812 -0.5669  0.5590  0.0439
   68MOL0     C 8875   5.464   1.885   0.795  0.2523  0.0481 -0.0027
   68MOL0     C 8876   5.386   1.764   0.801  0.0809  0.4124 -0.6981
   68MOL0     C 8877   5.248   1.778   0.785 -0.1258  0.1603 -0.5697
   68MOL0     C 8878   5.194   1.893   0.720  0.0086  0.6285 -0.5016
   68MOL0     O 8879   5.060   1.925   0.689 -0.4919  0.7701  0.1130
   68MOL0     C 8880   4.964   1.828   0.732 -0.2354 -0.9585 -0.4997
   68MOL0     C 8881   4.821   1.846   0.672  0.6226  1.1046  0.3242
   68MOL0     C 8882   4.810   1.804   0.527 -0.0801 -0.2615 -0.3583
   68MOL0     C 8883   4.896   1.879   0.437 -0.2090  1.3296 -0.3414
   68MOL0     C 8884   4.842   1.868   0.287 -0.0812  0.3915  0.3797
   68MOL0     C 8885   4.939   1.944   0.206  0.2367  0.0915  0.4519
   68MOL0     C 8886   4.888   1.928   0.056  0.0257 -0.7618 -0.0724
   68MOL0     C 8887   4.982   2.002  -0.036  0.3207 -0.1652 -0.1398
   68MOL0    Cl 8888   5.156   1.945  -0.019  0.0235 -0.0506 -0.0512
   68MOL0     C 8889   5.285   1.996   0.680 -0.1663  0.4445  0.2647
   68MOL0     C 8890   5.414   1.998   0.730  0.0696 -0.4649  1.0348
   68MOL0     O 8891   5.593   2.004   0.996  0.9391 -0.5174  0.6048
   68MOL0     C 8892   5.884   1.971   1.029  0.1894 -0.6109  0.2481
   68MOL0     C 8893   6.023   1.978   1.017  0.7926 -0.2412 -0.4897
   68MOL0     N 8894   6.567   2.423   1.179 -0.1382 -0.3863 -0.1883
   68MOL0     N 8895   6.630   2.527   1.209  0.4366  0.5482 -0.3517
   68MOL0     C 8896   6.732   3.573   1.084 -0.6793  0.4519  0.0390
   68MOL0     C 8897   6.715   3.675   1.175 -0.6134 -0.1893  1.3210
   68MOL0     C 8898   6.673   4.098   1.356  0.1796  0.3023  0.1259
   68MOL0     C 8899   6.742   4.170   1.450  0.2972 -0.8176 -0.2349
   68MOL0     C 8900   6.679   4.271   1.529 -0.5953  0.0865  0.6463
   68MOL0     C 8901   6.547   4.311   1.501 -0.1705  0.2024  0.1098
   68MOL0     O 8902   6.489   4.426   1.560 -0.3511  0.0707  1.0703
   68MOL0     C 8903   6.486   4.440   1.697  0.6126  0.9021 -0.6370
   68MOL0     C 8904   6.514   4.587   1.733  0.7780  0.6444 -0.5853
   68MOL0     C 8905   6.502   4.608   1.885  0.0927  0.2377 -0.1414
   68MOL0     C 8906   6.627   4.559   1.962 -0.1375  0.0215  0.5058
   68MOL0     C 8907   6.736   4.665   1.965 -0.2095  0.3267  0.0352
   68MOL0     C 8908   6.819   4.749   1.940  1.2251  0.3497  0.8851
   68MOL0     C 8909   6.481   4.252   1.395  0.5979 -0.3680  0.4345
   68MOL0     C 8910   6.538   4.148   1.332  0.5673  0.6114 -0.2555
   68MOL0     H 8911   6.622   3.909   0.946  1.1678  0.0569  0.3245
   68MOL0     H 8912   6.648   3.730   0.786  1.6371 -0.3845 -0.6891
   68MOL0     H 8913   6.691   3.335   0.997  0.5898  2.3909  0.6321
   68MOL0     H 8914   6.762   3.295   0.845 -0.7052  0.8717 -0.2844
   68MOL0     H 8915   6.578   3.250   0.724  0.4295 -2.5588 -0.7205
   68MOL0     H 8916   6.469   3.347   0.838 -0.6435 -0.4054 -2.6737
   68MOL0     H 8917   6.608   3.081   0.877  0.4503 -0.2453  3.2527
   68MOL0     H 8918   6.422   3.111   0.853  1.4716 -1.2004 -2.5441
   68MOL0     H 8919   6.611   3.141   1.091  1.0644  1.3547 -2.7599
   68MOL0     H 8920   6.470   3.242   1.084  2.7250  1.4279 -1.0439
   68MOL0     H 8921   6.321   3.033   1.072  0.0529  1.0395 -1.9841
   68MOL0     H 8922   6.418   3.047   1.219 -6.1743  0.2306 -0.7809
   68MOL0     H 8923   6.483   2.877   0.971  1.5810 -0.8039 -0.5816
   68MOL0     H 8924   6.401   2.819   1.110  1.7896 -1.2064 -0.1051
   68MOL0     H 8925   6.687   2.943   1.130  0.5642 -0.9680 -1.0767
   68MOL0     H 8926   6.625   2.831   1.252  0.6530 -1.0665 -0.8681
   68MOL0     H 8927   6.779   2.729   1.120 -1.1697 -4.4877  1.0871
   68MOL0     H 8928   6.697   2.761   0.971  1.8037 -2.2274 -0.2439
   68MOL0     H 8929   6.485   2.600   0.913  0.9294 -1.9666 -2.2266
   68MOL0     H 8930   6.381   2.378   0.898 -1.8319  3.5568  0.4229
   68MOL0     H 8931   6.311   2.354   1.062 -1.1217  1.1349 -1.2270
   68MOL0     H 8932   6.457   2.180   1.109 -3.4015  0.1372  0.2727
   68MOL0     H 8933   6.531   2.158   0.948  0.3244 -0.5620 -0.5083
   68MOL0     H 8934   6.224   2.160   1.005 -1.9034 -0.3592 -2.0654
   68MOL0     H 8935   6.296   2.149   0.845  2.6362 -1.4328 -0.7099
   68MOL0     H 8936   6.299   1.933   1.066 -0.5764 -0.2604 -0.8772
   68MOL0     H 8937   6.414   1.945   0.931  0.8502  3.0833  1.0520
   68MOL0     H 8938   6.054   1.782   0.740  2.0089  1.7474 -0.4459
   68MOL0     H 8939   5.819   1.787   0.750 -0.5474 -0.6714 -0.5624
   68MOL0     H 8940   5.446   1.679   0.829  0.3474  0.8188  0.0125
   68MOL0     H 8941   5.183   1.695   0.812  2.9370 -1.9564  0.9968
   68MOL0     H 8942   4.954   1.833   0.841  0.9833 -1.9180 -0.3208
   68MOL0     H 8943   4.993   1.725   0.712 -3.0128 -1.8099 -0.6472
   68MOL0     H 8944   4.778   1.944   0.696  1.2350  0.8662  2.6573
   68MOL0     H 8945   4.749   1.784   0.725  0.3737  2.7609  2.0338
   68MOL0     H 8946   4.708   1.834   0.502  0.4630 -0.6469 -3.4126
   68MOL0     H 8947   4.807   1.695   0.521 -2.0118 -0.2917  0.2860
   68MOL0     H 8948   4.905   1.985   0.463 -0.4400  0.9246  1.5793
   68MOL0     H 8949   4.995   1.837   0.456 -0.4316 -0.3784 -2.6299
   68MOL0     H 8950   4.747   1.921   0.271  0.9039  2.0910 -0.1761
   68MOL0     H 8951   4.840   1.762   0.260 -0.3225  0.6463 -0.6550
   68MOL0     H 8952   5.038   1.898   0.209 -1.0533 -2.9175  1.3224
   68MOL0     H 8953   4.946   2.053   0.216  1.0491  0.1561 -0.6922
   68MOL0     H 8954   4.878   1.824   0.026 -0.6676  0.0486 -3.0023
   68MOL0     H 8955   4.787   1.968   0.047  0.4215  1.5920  3.5489
   68MOL0     H 8956   4.985   2.108  -0.011 -0.1151  0.0308 -0.8831
   68MOL0     H 8957   4.946   1.985  -0.138 -1.3819  2.5479 -0.0892
   68MOL0     H 8958   5.261   2.088   0.629  1.2463 -0.3394 -1.9426
   68MOL0     H 8959   5.472   2.088   0.711  0.1579 -0.3868  1.6252
   68MOL0     H 8960   5.828   2.013   1.113 -2.3781 -1.0268 -1.1478
   68MOL0     H 8961   6.066   2.033   1.099 -1.3808 -0.2399  0.7325
   68MOL0     H 8962   6.767   3.480   1.128 -0.2468  0.1917 -0.8300
   68MOL0     H 8963   6.745   3.644   1.274  2.0326 -1.4983  0.2264
   68MOL0     H 8964   6.843   4.150   1.485  0.0449  0.4593  1.3510
   68MOL0     H 8965   6.736   4.336   1.594  1.7653  0.0946 -1.2739
   68MOL0     H 8966   6.556   4.373   1.749 -2.6457 -1.1532  1.4130
   68MOL0     H 8967   6.389   4.400   1.726 -0.2098  2.9040 -0.4912
   68MOL0     H 8968   6.610   4.623   1.695  0.4107  2.0837 -0.2245
   68MOL0     H 8969   6.431   4.644   1.690 -0.4442 -1.6489 -1.4106
   68MOL0     H 8970   6.409   4.562   1.922 -0.7241  2.6994  1.0669
   68MOL0     H 8971   6.488   4.712   1.916 -0.9697  0.2394 -0.5822
   68MOL0     H 8972   6.596   4.548   2.066  1.5535  0.6586  1.1124
   68MOL0     H 8973   6.664   4.462   1.929  2.5253  1.1506 -0.1522
   68MOL0     H 8974   6.892   4.818   1.904  1.1942 -0.7014 -1.3600
   68MOL0     H 8975   6.392   4.313   1.381  1.9107  1.8500  1.3182
   68MOL0     H 8976   6.479   4.095   1.258  1.8291  0.0035 -0.8472
   69MOL0     O 8977   4.134   1.380   0.166  0.0944 -0.2278  0.3199
   69MOL0     C 8978   4.149   1.272   0.107  1.1831  0.3002 -0.2613
   69MOL0     O 8979   4.222   1.164   0.140 -0.1649 -0.3099 -0.6601
   69MOL0     C 8980   4.288   1.170   0.264 -0.7479  1.3949  0.2255
   69MOL0     C 8981   4.319   1.036   0.310  0.2824 -0.4923  0.1052
   69MOL0     C 8982   4.362   1.012   0.443  0.5628 -0.3313  0.5563
   69MOL0     C 8983   4.379   1.122   0.533 -0.9988  0.8201  0.3298
   69MOL0     O 8984   4.420   1.097   0.661  0.3040  0.0101  0.1857
   69MOL0     C 8985   4.426   1.205   0.754 -1.1326  0.4525  0.0692
   69MOL0     C 8986   4.459   1.139   0.890 -0.0393 -0.0427 -0.4611
   69MOL0     C 8987   4.593   1.046   0.869  0.7623  0.1948  0.1694
   69MOL0     C 8988   4.625   0.996   1.006  0.5134 -0.0122 -0.0041
   69MOL0     C 8989   4.542   0.874   1.046 -0.2009  0.0281  0.5490
   69MOL0     C 8990   4.572   0.865   1.198 -0.0757  0.4689  0.8662
   69MOL0     C 8991   4.487   0.756   1.268  0.2807 -0.4382  0.9330
   69MOL0     C 8992   4.505   0.614   1.218  0.3252  0.2093 -1.0157
   69MOL0     N 8993   4.442   0.504   1.296  0.6395  0.0190  0.5922
   69MOL0     C 8994   4.518   0.419   1.368  0.5220  0.0888 -0.0783
   69MOL0     C 8995   4.438   0.343   1.444 -1.0638 -0.5251 -1.7310
   69MOL0     C 8996   4.472   0.235   1.529 -0.3293  0.1793  0.5292
   69MOL0     C 8997   4.409   0.104   1.497  0.3964  0.8677 -0.5656
   69MOL0     C 8998   4.438  -0.004   1.605  0.1052 -1.3061  0.4379
   69MOL0     C 8999   4.575  -0.081   1.595  0.2620  0.1456 -0.3118
   69MOL0     O 9000   4.584  -0.168   1.710  0.5749  0.2201 -0.2592
   69MOL0     C 9001   4.679  -0.272   1.721  0.9482  0.5302 -0.0891
   69MOL0     C 9002   4.805  -0.290   1.655  0.8148 -0.3793  0.2110
   69MOL0     C 9003   4.897  -0.388   1.694 -0.0888 -0.1765 -0.8332
   69MOL0     C 9004   4.864  -0.485   1.795  0.3909  0.5087  0.3367
   69MOL0     C 9005   4.953  -0.595   1.835  0.2946  0.2557 -0.8201
   69MOL0     O 9006   4.907  -0.688   1.932 -0.0902 -0.1720  0.2046
   69MOL0     C 9007   4.972  -0.807   1.942 -0.2198  1.6768 -0.0294
   69MOL0     C 9008   4.947  -0.911   1.864  0.1127 -0.0501 -0.5444
   69MOL0     C 9009   4.981  -1.041   1.894 -0.2712  0.8241  0.1668
   69MOL0     C 9010   5.049  -1.067   2.018 -0.4279 -0.0355 -0.5854
   69MOL0     O 9011   5.106  -1.193   2.052 -0.9044 -0.0199  0.0383
   69MOL0     C 9012   5.192  -1.250   1.957  0.7695  0.7506 -1.0866
   69MOL0     C 9013   5.210  -1.402   1.986  0.4144  0.2388 -0.1701
   69MOL0     C 9014   5.096  -1.480   1.915  0.0140  0.4302  0.2630
   69MOL0     C 9015   5.116  -1.633   1.934 -0.1181 -0.4130  0.0209
   69MOL0     C 9016   5.025  -1.702   2.030  0.8989 -0.1789 -0.3251
   69MOL0     C 9017   5.061  -1.693   2.178 -0.1002  0.0464  0.2935
   69MOL0     C 9018   4.970  -1.783   2.253 -0.0058  0.0180  0.7006
   69MOL0     C 9019   5.041  -1.849   2.372  0.7285 -0.1357 -0.5316
   69MOL0    Cl 9020   5.055  -1.718   2.498 -0.3355 -0.1505  0.1111
   69MOL0     C 9021   5.078  -0.964   2.099  0.2697 -0.1871 -0.0400
   69MOL0     C 9022   5.032  -0.839   2.063 -0.3304  0.1609 -0.3801
   69MOL0     O 9023   5.054  -0.608   1.769  0.8160 -0.4642 -0.2580
   69MOL0     C 9024   4.740  -0.470   1.857 -0.0381  0.5941 -0.1092
   69MOL0     C 9025   4.651  -0.364   1.827 -0.2844 -0.2341 -0.6300
   69MOL0     N 9026   4.309   0.391   1.420 -0.3943  0.8593 -0.4240
   69MOL0     N 9027   4.313   0.496   1.337  0.2233  0.6848 -0.8228
   69MOL0     C 9028   4.365   1.252   0.479  0.5003 -1.0746  0.6680
   69MOL0     C 9029   4.331   1.276   0.343  0.6817 -0.4860 -0.4119
   69MOL0     C 9030   4.044   1.251   0.001 -0.5977  0.1875  0.5674
   69MOL0     C 9031   4.057   1.146  -0.094 -0.0432 -0.1230 -0.3815
   69MOL0     C 9032   3.963   1.137  -0.195 -0.2522  0.3125 -0.2905
   69MOL0     C 9033   3.850   1.216  -0.203 -1.2275 -0.1579  0.1608
   69MOL0     O 9034   3.754   1.214  -0.304 -0.5364 -1.5727 -0.3786
   69MOL0     C 9035   3.744   1.101  -0.389  0.8483  1.0546 -0.2215
   69MOL0     C 9036   3.658   1.126  -0.514 -0.1550  0.2997 -0.0381
   69MOL0     C 9037   3.510   1.136  -0.485  0.8850 -0.6382 -0.5408
   69MOL0     C 9038   3.428   1.192  -0.602  0.2762 -0.5634  0.1146
   69MOL0     C 9039   3.431   1.343  -0.605  0.5094 -0.2097 -0.6097
   69MOL0     C 9040   3.438   1.468  -0.618  0.0948 -1.0205 -0.2689
   69MOL0     C 9041   3.838   1.317  -0.105  0.1730 -0.2934 -0.7095
   69MOL0     C 9042   3.938   1.337  -0.011  0.1644 -0.1791  0.5266
   69MOL0     H 9043   4.302   0.942   0.260 -1.7795  0.5436 -1.2853
   69MOL0     H 9044   4.364   0.910   0.480 -1.2932 -0.0513  1.5491
   69MOL0     H 9045   4.330   1.259   0.759 -0.7378  1.3298 -1.3457
   69MOL0     H 9046   4.503   1.279   0.731  0.0385 -0.0667  2.0944
   69MOL0     H 9047   4.367   1.086   0.915 -1.0967  1.0716 -1.7911
   69MOL0     H 9048   4.482   1.212   0.968 -0.1018  2.0030 -2.2611
   69MOL0     H 9049   4.671   1.114   0.833  0.2979 -0.0480 -1.3727
   69MOL0     H 9050   4.582   0.968   0.793  0.0969 -1.1041  1.5421
   69MOL0     H 9051   4.726   0.954   0.994  0.7759  1.3637 -4.2396
   69MOL0     H 9052   4.628   1.078   1.078 -0.9670  1.3539 -1.4154
   69MOL0     H 9053   4.569   0.781   0.995 -2.5109 -1.0854  1.2083
   69MOL0     H 9054   4.439   0.884   1.012  0.6814  1.2842 -2.0565
   69MOL0     H 9055   4.553   0.952   1.261 -2.5961  1.2387 -0.8052
   69MOL0     H 9056   4.676   0.833   1.205  0.0078 -0.1808 -2.0577
   69MOL0     H 9057   4.504   0.748   1.375  1.4658 -2.6500  0.6413
   69MOL0     H 9058   4.382   0.777   1.245 -0.0795 -3.9540 -1.4689
   69MOL0     H 9059   4.612   0.597   1.209  0.6049  2.1210 -1.7948
   69MOL0     H 9060   4.460   0.615   1.118 -1.8827  3.5598 -0.1404
   69MOL0     H 9061   4.626   0.418   1.354  0.5015  2.2713 -0.6841
   69MOL0     H 9062   4.464   0.269   1.633 -2.5046 -0.6572  0.6853
   69MOL0     H 9063   4.578   0.222   1.505 -0.5907  1.6850 -1.6908
   69MOL0     H 9064   4.438   0.078   1.395 -3.8767  2.3605 -2.4228
   69MOL0     H 9065   4.304   0.133   1.494  0.6258  1.9875  0.8197
   69MOL0     H 9066   4.422   0.049   1.699 -1.0166  0.7933 -0.8539
   69MOL0     H 9067   4.354  -0.074   1.596 -2.7989  1.9169  0.1333
   69MOL0     H 9068   4.658  -0.010   1.604  0.2573  0.3947 -2.0273
   69MOL0     H 9069   4.598  -0.138   1.505  1.4743  1.8860 -1.1719
   69MOL0     H 9070   4.829  -0.219   1.576 -3.2062  0.4265 -0.4809
   69MOL0     H 9071   4.998  -0.384   1.655 -0.1641  0.2231 -0.9980
   69MOL0     H 9072   4.898  -0.904   1.767  2.0195  1.2334 -1.4905
   69MOL0     H 9073   4.965  -1.115   1.816 -0.6093  0.9270  0.1331
   69MOL0     H 9074   5.289  -1.199   1.958  1.3066 -0.2263 -0.2291
   69MOL0     H 9075   5.144  -1.240   1.860 -3.0675 -0.4955  0.4822
   69MOL0     H 9076   5.208  -1.426   2.093 -0.6862 -1.2626 -0.4854
   69MOL0     H 9077   5.309  -1.429   1.949  0.9432  3.8933 -1.8604
   69MOL0     H 9078   5.107  -1.469   1.807  2.2852 -1.9116  0.1609
   69MOL0     H 9079   4.996  -1.452   1.949  0.1078 -0.3893  1.2536
   69MOL0     H 9080   5.094  -1.684   1.839  0.4283 -0.2397 -0.2019
   69MOL0     H 9081   5.219  -1.663   1.957 -0.7856 -0.3811  3.7043
   69MOL0     H 9082   5.004  -1.805   2.000 -0.4212  0.1001 -0.4379
   69MOL0     H 9083   4.926  -1.655   2.029 -0.2888 -2.2439  3.2018
   69MOL0     H 9084   5.047  -1.592   2.218  0.3910 -0.6718  2.4150
   69MOL0     H 9085   5.169  -1.709   2.188 -0.3481 -1.2036  1.0839
   69MOL0     H 9086   4.877  -1.730   2.276  2.0099  3.1382  2.3755
   69MOL0     H 9087   4.957  -1.866   2.183  1.3032  0.0978  0.3447
   69MOL0     H 9088   5.132  -1.895   2.334  1.9502  1.2588  0.5712
   69MOL0     H 9089   4.994  -1.931   2.425  1.0551 -1.0835 -1.6709
   69MOL0     H 9090   5.124  -0.974   2.197  1.7421  4.1690 -0.0848
   69MOL0     H 9091   5.036  -0.753   2.129 -0.1780 -0.9992  1.1656
   69MOL0     H 9092   4.714  -0.543   1.933 -0.4988  1.6503  0.7808
   69MOL0     H 9093   4.567  -0.344   1.892 -1.4495 -1.1230 -1.8122
   69MOL0     H 9094   4.372   1.345   0.534 -1.3890 -0.7691  0.4656
   69MOL0     H 9095   4.318   1.377   0.306 -1.6076 -1.1179 -1.5328
   69MOL0     H 9096   4.135   1.070  -0.093 -0.6220 -0.7630 -1.7686
   69MOL0     H 9097   3.977   1.067  -0.276  1.3927 -0.8438  0.9250
   69MOL0     H 9098   3.716   1.004  -0.348 -0.4225  2.1271  1.6171
   69MOL0     H 9099   3.843   1.075  -0.428  0.6661 -1.1710  0.6435
   69MOL0     H 9100   3.700   1.214  -0.565  1.9801 -0.2026  0.7652
   69MOL0     H 9101   3.675   1.041  -0.582 -0.1643 -1.7308  2.3754
   69MOL0     H 9102   3.490   1.205  -0.403 -1.5689 -1.7529 -0.1132
   69MOL0     H 9103   3.460   1.040  -0.467 -0.6663 -0.1473 -2.0376
   69MOL0     H 9104   3.461   1.154  -0.700 -3.0948 -0.4632 -1.1701
   69MOL0     H 9105   3.324   1.170  -0.577  1.3508 -1.9505  4.0513
   69MOL0     H 9106   3.431   1.573  -0.638 -0.5503 -0.7378  1.2510
   69MOL0     H 9107   3.764   1.395  -0.115  0.3183 -0.4444 -3.6404
   69MOL0     H 9108   3.922   1.411   0.066 -1.4687 -0.3454  0.3710
   70MOL0     O 9109   7.707   5.149   3.095  0.3882  0.8589  0.3003
   70MOL0     C 9110   7.730   5.236   3.009 -0.5370  0.3072 -0.5964
   70MOL0     O 9111   7.641   5.329   2.966 -0.7917 -0.1785  0.5220
   70MOL0     C 9112   7.514   5.314   3.022  0.0448 -1.0086 -0.5893
   70MOL0     C 9113   7.488   5.316   3.165  0.2772 -0.3650 -0.5040
   70MOL0     C 9114   7.354   5.294   3.217  0.0244  0.5885  0.0912
   70MOL0     C 9115   7.258   5.260   3.124  0.1843 -0.0574 -0.2073
   70MOL0     O 9116   7.130   5.242   3.155  0.0736  0.7499 -0.3768
   70MOL0     C 9117   7.083   5.311   3.276  0.1096  0.7908  0.9900
   70MOL0     C 9118   7.071   5.450   3.262  0.5116 -0.4563  0.2917
   70MOL0     C 9119   7.019   5.508   3.401 -0.4321 -0.9267  0.1417
   70MOL0     C 9120   6.956   5.645   3.385 -0.8385 -0.4046  0.6844
   70MOL0     C 9121   6.800   5.640   3.363  0.3198  0.6202  0.0635
   70MOL0     C 9122   6.741   5.782   3.349 -0.1469 -0.4740 -0.9247
   70MOL0     C 9123   6.752   5.814   3.197  0.0840 -1.0189 -0.2027
   70MOL0     C 9124   6.687   5.949   3.167  0.4152 -0.2837  0.9298
   70MOL0     N 9125   6.739   6.056   3.247  1.0198  0.2678  0.3104
   70MOL0     C 9126   6.668   6.101   3.347  0.6380  0.7766  0.0856
   70MOL0     C 9127   6.730   6.212   3.396 -0.4210 -0.0326 -0.7658
   70MOL0     C 9128   6.703   6.310   3.508 -0.1604 -0.6488  0.1905
   70MOL0     C 9129   6.682   6.236   3.641  0.0761 -0.0533 -1.4290
   70MOL0     C 9130   6.689   6.335   3.749  0.0528 -1.3503 -0.7117
   70MOL0     C 9131   6.725   6.269   3.890 -0.1467 -0.5671 -0.2288
   70MOL0     O 9132   6.733   6.360   4.005 -0.2992  0.8803  0.1952
   70MOL0     C 9133   6.642   6.340   4.098 -0.3857 -1.1618  0.1219
   70MOL0     C 9134   6.595   6.463   4.154  0.3713 -0.2828  0.5035
   70MOL0     C 9135   6.513   6.458   4.267  0.2178  0.3163  0.1598
   70MOL0     C 9136   6.466   6.339   4.318 -0.8933  0.2515 -0.1675
   70MOL0     C 9137   6.365   6.331   4.428 -0.2692  0.0886 -0.3671
   70MOL0     O 9138   6.333   6.200   4.478 -0.3401  0.7202 -0.4379
   70MOL0     C 9139   6.239   6.180   4.568 -0.7950 -0.3300 -0.1069
   70MOL0     C 9140   6.273   6.094   4.680  0.8227  0.3228  0.2189
   70MOL0     C 9141   6.165   6.064   4.768 -0.2716  0.9499  0.5699
   70MOL0     C 9142   6.039   6.114   4.746 -0.3315  0.8705  0.8764
   70MOL0     O 9143   5.943   6.102   4.847 -1.1429 -0.2780 -0.2662
   70MOL0     C 9144   5.896   6.223   4.901 -0.5768  0.0410  0.2247
   70MOL0     C 9145   5.969   6.233   5.033  0.2604  0.4437  0.1330
   70MOL0     C 9146   5.906   6.324   5.133  0.1688 -0.4615  0.2788
   70MOL0     C 9147   5.909   6.481   5.098  0.0786  0.0607  0.4745
   70MOL0     C 9148   6.050   6.538   5.088 -0.1435  0.5636 -0.6671
   70MOL0     C 9149   6.053   6.688   5.078  0.5062 -0.0811  1.0547
   70MOL0     C 9150   5.986   6.759   5.197  0.1504 -0.6833 -0.8261
   70MOL0     C 9151   6.032   6.912   5.186  0.4480  0.9608 -0.2096
   70MOL0    Cl 9152   5.973   6.996   5.033 -0.4731 -0.1484  0.1711
   70MOL0     C 9153   6.007   6.188   4.632 -0.6161  0.4235  0.2883
   70MOL0     C 9154   6.110   6.225   4.543 -0.3258  0.2467 -0.6445
   70MOL0     O 9155   6.321   6.434   4.467  0.4226 -0.5307  0.5828
   70MOL0     C 9156   6.522   6.220   4.265  0.6407 -0.4500  0.0092
   70MOL0     C 9157   6.611   6.215   4.154  0.6932 -0.1904 -0.7508
   70MOL0     N 9158   6.841   6.227   3.324  0.1123 -0.8360  0.1721
   70MOL0     N 9159   6.852   6.138   3.236  0.4055 -0.4877  0.4826
   70MOL0     C 9160   7.291   5.255   2.987  1.0288  0.3563 -0.5052
   70MOL0     C 9161   7.413   5.281   2.939 -0.9232  0.2504  0.1375
   70MOL0     C 9162   7.866   5.236   2.946  0.0672 -0.8183  0.9899
   70MOL0     C 9163   7.891   5.288   2.820  0.2063  0.5045  1.3441
   70MOL0     C 9164   8.027   5.287   2.766  0.9534 -0.8158  0.1783
   70MOL0     C 9165   8.133   5.220   2.836  0.3249 -0.3952  0.1261
   70MOL0     O 9166   8.263   5.217   2.790  0.3204 -0.1495  0.1130
   70MOL0     C 9167   8.299   5.271   2.666  0.0601  0.0115  0.5611
   70MOL0     C 9168   8.453   5.266   2.662 -0.7627 -0.8754  0.3032
   70MOL0     C 9169   8.508   5.312   2.528  0.0894 -0.1905 -0.2843
   70MOL0     C 9170   8.653   5.258   2.505  1.0067  0.1261  0.5694
   70MOL0     C 9171   8.736   5.261   2.622 -0.0984 -0.2177 -0.3162
   70MOL0     C 9172   8.816   5.258   2.712  0.0116  0.0498 -0.3305
   70MOL0     C 9173   8.104   5.178   2.959 -0.4815 -0.1833  0.0846
   70MOL0     C 9174   7.982   5.189   3.012 -0.0148 -0.5697 -0.3838
   70MOL0     H 9175   7.570   5.321   3.237  0.5686  1.0054 -0.9078
   70MOL0     H 9176   7.337   5.287   3.324 -0.9682 -1.2399 -0.1404
   70MOL0     H 9177   7.133   5.273   3.366  2.4839 -1.1609 -1.0032
   70MOL0     H 9178   6.984   5.272   3.301 -0.9286  2.2411 -0.6580
   70MOL0     H 9179   7.012   5.466   3.172  0.2014  2.9857  0.9734
   70MOL0     H 9180   7.170   5.492   3.246  0.5273 -0.7345 -0.3631
   70MOL0     H 9181   7.103   5.517   3.472  1.3515  3.5695 -2.0914
   70MOL0     H 9182   6.956   5.439   3.457 -0.1950  0.3897  2.1436
   70MOL0     H 9183   6.980   5.714   3.467  1.7398  0.3547 -0.5959
   70MOL0     H 9184   7.010   5.692   3.303 -3.5177  3.6026  0.9661
   70MOL0     H 9185   6.749   5.602   3.452  0.4798  2.1735  0.8576
   70MOL0     H 9186   6.770   5.575   3.281 -1.9565  0.7807  0.7192
   70MOL0     H 9187   6.784   5.858   3.415 -0.3856 -0.0851 -1.2146
   70MOL0     H 9188   6.634   5.769   3.370 -0.5516  1.0485 -1.9225
   70MOL0     H 9189   6.854   5.825   3.160  0.1708 -0.3588  0.2218
   70MOL0     H 9190   6.713   5.736   3.132  2.7200 -1.3389 -1.5102
   70MOL0     H 9191   6.579   5.940   3.180  0.7929 -2.2588  3.7041
   70MOL0     H 9192   6.707   5.980   3.064  1.9466 -1.4377  0.8390
   70MOL0     H 9193   6.574   6.058   3.381  0.0370  1.6013 -0.5041
   70MOL0     H 9194   6.633   6.388   3.479  0.5603  1.3618  3.4144
   70MOL0     H 9195   6.797   6.366   3.515 -0.0956 -0.8545  1.1051
   70MOL0     H 9196   6.772   6.177   3.660 -0.7396 -0.9478 -0.1107
   70MOL0     H 9197   6.592   6.173   3.633  0.3099 -0.2685 -2.6363
   70MOL0     H 9198   6.760   6.414   3.721 -0.9482 -0.2957 -0.3848
   70MOL0     H 9199   6.598   6.385   3.783  1.9512  3.7227 -2.1103
   70MOL0     H 9200   6.826   6.228   3.882 -0.3250 -0.6646 -3.9536
   70MOL0     H 9201   6.647   6.192   3.890 -0.8638  0.0668 -2.4893
   70MOL0     H 9202   6.604   6.563   4.113 -2.6585  0.2171  0.8373
   70MOL0     H 9203   6.489   6.544   4.329  0.1245 -1.0227  2.0754
   70MOL0     H 9204   6.376   6.075   4.709  1.0929 -0.0854 -0.9599
   70MOL0     H 9205   6.176   6.000   4.855  1.9955  2.2608  1.3347
   70MOL0     H 9206   5.787   6.224   4.917 -1.1514 -0.1707 -2.9638
   70MOL0     H 9207   5.917   6.312   4.842  1.1018 -1.4535 -1.5885
   70MOL0     H 9208   6.074   6.259   5.021  1.1021 -2.0211  1.5207
   70MOL0     H 9209   5.966   6.134   5.079  1.7938  1.2769  2.2179
   70MOL0     H 9210   5.955   6.318   5.231 -0.0089  1.3216  0.5041
   70MOL0     H 9211   5.801   6.298   5.147 -0.3726  0.9385 -0.9039
   70MOL0     H 9212   5.840   6.495   5.014 -0.4174 -0.6626  0.7546
   70MOL0     H 9213   5.858   6.534   5.179  0.4764 -0.2727  0.9435
   70MOL0     H 9214   6.104   6.484   5.010  1.3311 -2.0974  1.9925
   70MOL0     H 9215   6.097   6.502   5.180  0.1232 -1.1329 -1.4374
   70MOL0     H 9216   5.993   6.709   4.989  0.7040  1.7769  1.3327
   70MOL0     H 9217   6.155   6.729   5.080  2.0389 -3.4977  0.8202
   70MOL0     H 9218   5.876   6.757   5.196  0.1001  0.7911 -0.2162
   70MOL0     H 9219   6.022   6.722   5.293 -0.9985  1.9857  0.7470
   70MOL0     H 9220   6.141   6.912   5.184  0.7613  1.4349  4.5939
   70MOL0     H 9221   5.993   6.966   5.273 -3.9029  0.4058 -1.5488
   70MOL0     H 9222   5.911   6.236   4.613  0.6681  1.6328 -4.0722
   70MOL0     H 9223   6.095   6.285   4.454 -2.3471 -0.9568 -1.1844
   70MOL0     H 9224   6.490   6.122   4.297 -0.4847 -0.2145 -0.3464
   70MOL0     H 9225   6.658   6.126   4.113  0.4597 -0.8961  0.4867
   70MOL0     H 9226   7.215   5.232   2.912  0.2551 -1.2881  0.7401
   70MOL0     H 9227   7.418   5.259   2.833 -0.5313 -0.1883  0.2436
   70MOL0     H 9228   7.813   5.345   2.770  1.7687  2.4015  0.9455
   70MOL0     H 9229   8.050   5.343   2.676 -1.3601 -0.1960 -0.0683
   70MOL0     H 9230   8.259   5.373   2.662 -2.2215 -0.6535  3.1576
   70MOL0     H 9231   8.260   5.208   2.585  3.7928  0.6922 -2.0120
   70MOL0     H 9232   8.501   5.329   2.738  1.1250 -1.6527 -0.1795
   70MOL0     H 9233   8.495   5.165   2.671  3.7932  0.5344 -1.6921
   70MOL0     H 9234   8.496   5.419   2.509 -4.3477 -0.1895  1.1917
   70MOL0     H 9235   8.448   5.269   2.447  0.8689 -0.4713 -0.7229
   70MOL0     H 9236   8.644   5.153   2.474  1.6064  0.4707 -0.8500
   70MOL0     H 9237   8.710   5.316   2.432 -1.5053  0.5242 -1.2298
   70MOL0     H 9238   8.900   5.266   2.778 -0.3459  2.7683 -0.1018
   70MOL0     H 9239   8.185   5.134   3.017  1.5498  3.2948  0.1390
   70MOL0     H 9240   7.972   5.152   3.114  0.1897 -1.1232 -0.5563
   71MOL0     O 9241   7.699   8.883   8.867  0.6786 -0.1824 -0.6443
   71MOL0     C 9242   7.596   8.887   8.932  0.3518 -0.5096 -0.7088
   71MOL0     O 9243   7.584   8.951   9.051 -0.2094 -1.0255 -0.3237
   71MOL0     C 9244   7.685   8.950   9.143  0.6203 -1.0075  0.1614
   71MOL0     C 9245   7.791   8.857   9.153  0.3665 -0.1537  0.7846
   71MOL0     C 9246   7.873   8.855   9.267 -0.0466  0.0797  0.4672
   71MOL0     C 9247   7.856   8.935   9.383 -0.3316 -0.1179 -0.1997
   71MOL0     O 9248   7.920   8.920   9.506 -0.0966  0.0233 -0.4622
   71MOL0     C 9249   8.034   9.003   9.523  0.3643  0.5439 -0.0524
   71MOL0     C 9250   8.101   8.935   9.646  0.0239 -0.0933 -1.1719
   71MOL0     C 9251   8.241   8.995   9.701 -0.2945  0.4389  0.0832
   71MOL0     C 9252   8.347   8.969   9.593 -0.1578  1.0700  0.0815
   71MOL0     C 9253   8.454   9.077   9.591  0.0259 -0.0885  0.1840
   71MOL0     C 9254   8.541   9.074   9.721  0.7435 -0.6672  0.1188
   71MOL0     C 9255   8.659   9.180   9.729  0.7422 -0.3201 -0.0136
   71MOL0     C 9256   8.692   9.229   9.869 -0.4305 -0.1805 -0.1401
   71MOL0     N 9257   8.840   9.247   9.882  1.0000  0.9621  0.1488
   71MOL0     C 9258   8.938   9.156   9.895  0.2807 -0.1790  0.5980
   71MOL0     C 9259   9.051   9.222   9.921  0.8254 -1.0336  0.7200
   71MOL0     C 9260   9.180   9.159   9.951 -0.2677  1.1715  0.0590
   71MOL0     C 9261   9.231   9.092   9.821 -0.2471 -0.9006  0.3020
   71MOL0     C 9262   9.379   9.143   9.788 -0.0195 -0.3733  0.7420
   71MOL0     C 9263   9.471   9.062   9.684  0.7810 -0.8938 -0.3150
   71MOL0     O 9264   9.573   9.161   9.647 -0.4108 -0.0142  0.5794
   71MOL0     C 9265   9.665   9.128   9.547  0.1733 -0.1463 -0.7487
   71MOL0     C 9266   9.748   9.235   9.515 -0.2950 -0.3708 -0.4403
   71MOL0     C 9267   9.855   9.213   9.425  0.3104 -0.4509  0.3880
   71MOL0     C 9268   9.872   9.090   9.363  0.7062  0.0889  0.7136
   71MOL0     C 9269   9.988   9.055   9.286 -0.0802  0.2315 -0.0482
   71MOL0     O 9270   9.987   8.936   9.211  0.5904 -0.0805  0.2331
   71MOL0     C 9271  10.090   8.936   9.124 -0.5867 -0.3495  0.1866
   71MOL0     C 9272  10.218   8.929   9.179 -0.1291 -0.0866  0.0600
   71MOL0     C 9273  10.331   8.942   9.095  0.0566 -0.1883 -0.3239
   71MOL0     C 9274  10.319   8.953   8.955  0.0047 -0.2709  0.8227
   71MOL0     O 9275  10.428   8.959   8.875 -0.4047  0.0667 -0.1150
   71MOL0     C 9276  10.540   9.039   8.913  0.7663 -0.4040 -1.1868
   71MOL0     C 9277  10.664   8.961   8.960  0.6435 -0.0697 -0.5499
   71MOL0     C 9278  10.723   8.906   8.830 -0.4073  0.2155 -0.1094
   71MOL0     C 9279  10.872   8.865   8.853 -1.2036  0.1050 -0.6186
   71MOL0     C 9280  10.894   8.731   8.935 -0.1281  0.2875 -1.0371
   71MOL0     C 9281  11.038   8.695   8.970 -0.3221  0.2980 -1.2984
   71MOL0     C 9282  11.131   8.668   8.855 -0.0915  0.3633  0.4785
   71MOL0     C 9283  11.095   8.541   8.768  0.0691  0.2277 -0.9271
   71MOL0    Cl 9284  11.195   8.565   8.616 -0.6006 -0.7982  0.3815
   71MOL0     C 9285  10.191   8.943   8.895 -0.2448 -0.2437  0.3153
   71MOL0     C 9286  10.074   8.935   8.977 -0.3984  0.3323 -0.5243
   71MOL0     O 9287  10.080   9.143   9.286 -0.6524 -0.9647 -0.6792
   71MOL0     C 9288   9.777   8.987   9.380 -0.7657 -0.1108  0.6231
   71MOL0     C 9289   9.675   9.016   9.477 -0.4025  1.0773 -0.3109
   71MOL0     N 9290   9.022   9.358   9.902 -0.7797 -0.3378 -0.4934
   71MOL0     N 9291   8.904   9.371   9.868  0.7182 -0.3674 -0.4457
   71MOL0     C 9292   7.749   9.020   9.370 -0.3679  0.6913 -0.3815
   71MOL0     C 9293   7.671   9.030   9.252  0.9265  1.0628  0.2046
   71MOL0     C 9294   7.470   8.820   8.885 -1.2424  0.9684  0.1588
   71MOL0     C 9295   7.445   8.782   8.753 -0.0797  0.4966  0.2554
   71MOL0     C 9296   7.327   8.720   8.701 -1.0643  1.5437  0.1190
   71MOL0     C 9297   7.225   8.685   8.798  0.2209 -0.5522  0.6081
   71MOL0     O 9298   7.107   8.623   8.755 -0.2422  0.0076  0.0436
   71MOL0     C 9299   7.008   8.575   8.847  0.1437  0.4784 -0.5494
   71MOL0     C 9300   6.893   8.517   8.769 -0.3301 -0.0362 -0.5709
   71MOL0     C 9301   6.794   8.629   8.716 -0.5500  0.4015  0.0037
   71MOL0     C 9302   6.689   8.666   8.826  0.2464 -0.1828  0.3802
   71MOL0     C 9303   6.745   8.761   8.924 -0.5521  0.0278 -0.9826
   71MOL0     C 9304   6.795   8.860   8.990  0.9393 -0.0187 -0.8955
   71MOL0     C 9305   7.255   8.715   8.932  0.6343 -0.4194  0.3365
   71MOL0     C 9306   7.363   8.796   8.973 -0.7961 -0.2930 -0.4194
   71MOL0     H 9307   7.806   8.780   9.078  1.4504  0.4785  0.3299
   71MOL0     H 9308   7.942   8.776   9.291  1.8014  1.4052 -0.2665
   71MOL0     H 9309   8.013   9.108   9.543  1.2629  0.4747  1.4129
   71MOL0     H 9310   8.092   9.006   9.431 -2.6790  1.5190 -2.0980
   71MOL0     H 9311   8.115   8.828   9.631 -0.2434  0.1008 -3.0282
   71MOL0     H 9312   8.030   8.961   9.725  0.5914 -0.8880 -0.3843
   71MOL0     H 9313   8.276   8.946   9.792 -0.4063 -1.2288 -0.7318
   71MOL0     H 9314   8.221   9.101   9.719 -1.3196  0.4804 -1.1103
   71MOL0     H 9315   8.400   8.876   9.613 -0.5221  0.3730 -1.9804
   71MOL0     H 9316   8.305   8.952   9.494 -0.3825  0.5658  0.2622
   71MOL0     H 9317   8.416   9.178   9.571 -3.1339 -0.3721  3.5333
   71MOL0     H 9318   8.521   9.060   9.507  0.0660 -2.9013  0.6953
   71MOL0     H 9319   8.569   8.972   9.745 -4.3923 -2.6008 -0.8387
   71MOL0     H 9320   8.461   9.096   9.792  0.0783  1.0623 -1.0793
   71MOL0     H 9321   8.742   9.128   9.682 -0.8456 -1.1625 -2.0453
   71MOL0     H 9322   8.617   9.268   9.678  0.5359  1.8923  3.6504
   71MOL0     H 9323   8.640   9.162   9.938 -5.0753 -0.0578 -3.0307
   71MOL0     H 9324   8.645   9.326   9.893  1.9661  1.0159  0.0552
   71MOL0     H 9325   8.930   9.048   9.888  1.4256 -0.2420  0.0590
   71MOL0     H 9326   9.179   9.080  10.027 -3.3587 -0.5160 -1.5184
   71MOL0     H 9327   9.241   9.245   9.982 -1.1116  1.3349  1.3381
   71MOL0     H 9328   9.175   9.119   9.731  3.2370  2.5393 -1.1235
   71MOL0     H 9329   9.243   8.985   9.841 -0.9652 -1.1150 -0.3918
   71MOL0     H 9330   9.379   9.248   9.755 -1.9068 -0.1826  1.2103
   71MOL0     H 9331   9.435   9.140   9.881  0.1303 -4.0065  0.6517
   71MOL0     H 9332   9.415   9.047   9.592  1.0966  2.3145 -1.1551
   71MOL0     H 9333   9.503   8.976   9.744  1.0097 -1.0366 -0.6437
   71MOL0     H 9334   9.730   9.336   9.550 -1.7313 -1.1429  1.2154
   71MOL0     H 9335   9.918   9.301   9.416 -1.2376  0.4998 -2.8966
   71MOL0     H 9336  10.228   8.932   9.287  0.1038 -3.2798  0.2298
   71MOL0     H 9337  10.425   8.934   9.147 -0.7837  1.1746  1.5050
   71MOL0     H 9338  10.512   9.102   8.998  1.0656 -1.9179  0.0809
   71MOL0     H 9339  10.564   9.103   8.827  1.3362  0.9298 -0.0738
   71MOL0     H 9340  10.633   8.882   9.030 -3.5043  2.8911  1.3711
   71MOL0     H 9341  10.740   9.022   9.008  0.0297 -1.4689  2.4641
   71MOL0     H 9342  10.718   8.989   8.759  1.8626  2.1647  1.8074
   71MOL0     H 9343  10.663   8.824   8.790  0.0119 -0.7641  1.2290
   71MOL0     H 9344  10.930   8.860   8.760  0.6673 -0.4437  0.5289
   71MOL0     H 9345  10.921   8.934   8.922  1.0511 -2.9249  1.0310
   71MOL0     H 9346  10.849   8.644   8.887 -1.9805 -1.1565  2.8389
   71MOL0     H 9347  10.838   8.734   9.029 -0.2624 -1.8020 -1.0017
   71MOL0     H 9348  11.038   8.610   9.038 -2.4406  0.9537 -0.3948
   71MOL0     H 9349  11.077   8.781   9.025  1.9544 -2.9082  2.6619
   71MOL0     H 9350  11.133   8.752   8.785 -1.3897 -2.6329 -3.5202
   71MOL0     H 9351  11.231   8.663   8.899  0.8653 -0.1081 -1.6419
   71MOL0     H 9352  10.989   8.534   8.743  0.5448 -2.5404 -2.5427
   71MOL0     H 9353  11.121   8.449   8.821  4.4167  0.5033 -2.1879
   71MOL0     H 9354  10.183   8.934   8.787 -1.6923 -0.1640  0.3894
   71MOL0     H 9355   9.982   8.931   8.919  0.2438  0.8347 -1.6086
   71MOL0     H 9356   9.781   8.886   9.341 -1.4428 -0.2644  0.9389
   71MOL0     H 9357   9.613   8.930   9.504  1.1258  0.1341  0.3742
   71MOL0     H 9358   7.726   9.074   9.462 -0.5450 -1.0859  0.6729
   71MOL0     H 9359   7.597   9.109   9.246  1.6206  1.6785 -0.4891
   71MOL0     H 9360   7.523   8.799   8.679 -2.4101 -0.9075 -2.7088
   71MOL0     H 9361   7.342   8.686   8.599 -0.3955 -4.5259  1.8703
   71MOL0     H 9362   6.969   8.649   8.918  1.7894  0.9027 -0.0626
   71MOL0     H 9363   7.041   8.490   8.908  2.7787  1.6992 -0.1369
   71MOL0     H 9364   6.936   8.451   8.694  1.8868  1.5768 -0.8136
   71MOL0     H 9365   6.834   8.451   8.834 -1.3487 -1.5378 -2.9000
   71MOL0     H 9366   6.737   8.590   8.630 -1.1713 -0.7030  0.8892
   71MOL0     H 9367   6.841   8.722   8.682 -0.8409  1.0291  1.2901
   71MOL0     H 9368   6.601   8.710   8.777 -0.6686 -1.1701  1.1018
   71MOL0     H 9369   6.662   8.579   8.886  0.4618  0.2716  1.1500
   71MOL0     H 9370   6.861   8.924   9.045  1.7444 -0.5300 -1.2354
   71MOL0     H 9371   7.183   8.692   9.009 -0.6718  2.1872  0.0017
   71MOL0     H 9372   7.373   8.832   9.075  1.7575 -2.0747  0.0719
   72MOL0     O 9373  10.371   6.495   9.305  0.0838  0.5854 -0.0546
   72MOL0     C 9374  10.282   6.567   9.356  0.1064 -0.0135  0.2914
   72MOL0     O 9375  10.172   6.615   9.287  0.3557  0.4419  0.6760
   72MOL0     C 9376  10.126   6.548   9.172  0.2389 -0.8497 -0.2676
   72MOL0     C 9377  10.042   6.627   9.085  0.4420 -1.0518 -0.1909
   72MOL0     C 9378   9.978   6.571   8.981  1.0804  0.1731  0.8189
   72MOL0     C 9379  10.004   6.433   8.950 -0.1522  1.5777 -0.5394
   72MOL0     O 9380   9.937   6.378   8.842 -0.0886  0.1368  0.5524
   72MOL0     C 9381   9.826   6.293   8.884 -0.1453  0.0508 -0.0331
   72MOL0     C 9382   9.842   6.143   8.829  0.7005  0.7600 -1.0048
   72MOL0     C 9383   9.715   6.053   8.853  0.7604  0.5370  0.1647
   72MOL0     C 9384   9.665   6.071   8.998  0.8276 -0.7904 -0.5068
   72MOL0     C 9385   9.763   6.041   9.107  0.1741 -0.6490 -0.0834
   72MOL0     C 9386   9.706   6.085   9.251 -0.3573 -0.0292  0.7245
   72MOL0     C 9387   9.726   6.234   9.275  0.6356  0.3116  1.4441
   72MOL0     C 9388   9.676   6.266   9.412 -0.1630 -0.3777  0.3301
   72MOL0     N 9389   9.722   6.395   9.470  0.1291  0.1010  0.0435
   72MOL0     C 9390   9.837   6.411   9.539  0.9776  0.0835  0.2156
   72MOL0     C 9391   9.835   6.542   9.578 -0.5450  0.5647  0.1626
   72MOL0     C 9392   9.925   6.596   9.685 -0.3459  0.4192  0.3731
   72MOL0     C 9393   9.851   6.631   9.824  0.6526  0.4622  0.0097
   72MOL0     C 9394   9.949   6.683   9.926  0.0463 -0.3770 -0.5615
   72MOL0     C 9395   9.892   6.717  10.063 -0.0896 -0.1387  0.5789
   72MOL0     O 9396   9.868   6.602  10.136  0.1105  0.2070 -0.4109
   72MOL0     C 9397   9.770   6.607  10.236 -0.3766 -0.1038 -0.7275
   72MOL0     C 9398   9.724   6.727  10.292  0.6421  0.6154  0.3239
   72MOL0     C 9399   9.625   6.716  10.393 -0.7708 -1.2605 -0.3404
   72MOL0     C 9400   9.587   6.594  10.446  0.1743  0.4617  0.5889
   72MOL0     C 9401   9.486   6.583  10.563 -0.3447 -0.3747 -0.9320
   72MOL0     O 9402   9.446   6.464  10.598 -0.0733 -0.4116  0.5593
   72MOL0     C 9403   9.359   6.451  10.696  0.2162  0.7513  0.5723
   72MOL0     C 9404   9.386   6.469  10.829 -0.3723 -0.4192 -0.1360
   72MOL0     C 9405   9.282   6.477  10.927 -0.3884 -0.0176 -0.4558
   72MOL0     C 9406   9.156   6.449  10.894 -0.9542 -0.2316 -0.7286
   72MOL0     O 9407   9.073   6.462  11.004 -0.0864  0.1647  0.8444
   72MOL0     C 9408   8.946   6.406  10.989 -0.1248  0.4566  0.2692
   72MOL0     C 9409   8.892   6.369  11.131 -0.4173 -0.4592  0.8498
   72MOL0     C 9410   8.850   6.502  11.201 -0.4513 -0.2007  1.3199
   72MOL0     C 9411   8.819   6.474  11.344 -0.1312  0.0744 -0.8209
   72MOL0     C 9412   8.687   6.407  11.361 -0.4598 -0.2426 -0.1617
   72MOL0     C 9413   8.680   6.400  11.514  0.0687  0.3020  0.1633
   72MOL0     C 9414   8.807   6.387  11.590 -0.1965  0.5431  0.5224
   72MOL0     C 9415   8.782   6.377  11.744 -0.5370  0.2452  0.8576
   72MOL0    Cl 9416   8.697   6.225  11.792 -0.1144  0.1631 -0.6439
   72MOL0     C 9417   9.129   6.418  10.762  0.4537 -0.0650 -0.1976
   72MOL0     C 9418   9.221   6.416  10.662 -0.7344  0.1128  0.6388
   72MOL0     O 9419   9.451   6.687  10.618 -0.4413  0.8108 -0.1763
   72MOL0     C 9420   9.626   6.483  10.371 -0.1731 -0.6747  0.5891
   72MOL0     C 9421   9.715   6.485  10.261 -0.3431  0.5863  0.1357
   72MOL0     N 9422   9.723   6.598   9.512 -0.5610  0.1435 -0.0172
   72MOL0     N 9423   9.654   6.508   9.457  0.2179 -0.4994  0.8000
   72MOL0     C 9424  10.101   6.362   9.026  0.2378  0.4126  0.0840
   72MOL0     C 9425  10.160   6.417   9.140 -0.0588 -0.2330  0.7208
   72MOL0     C 9426  10.304   6.620   9.492  0.0968 -0.2252 -0.2672
   72MOL0     C 9427  10.414   6.581   9.572 -1.3937 -0.5752  0.1369
   72MOL0     C 9428  10.436   6.635   9.702  0.2697  0.5661  0.0966
   72MOL0     C 9429  10.357   6.735   9.750  0.3796 -0.4752  0.7105
   72MOL0     O 9430  10.386   6.789   9.874 -0.7910  0.1618 -0.2509
   72MOL0     C 9431  10.294   6.884   9.931 -0.8102 -0.1032  0.4157
   72MOL0     C 9432  10.339   6.948  10.065  0.1706 -0.3250  0.6733
   72MOL0     C 9433  10.218   6.980  10.146  0.1142 -0.0048 -0.1180
   72MOL0     C 9434  10.265   7.059  10.269 -0.5508 -0.4481 -0.5065
   72MOL0     C 9435  10.334   6.978  10.377 -0.3519 -0.0764 -0.8364
   72MOL0     C 9436  10.366   6.890  10.456  0.5251  0.1502 -0.5001
   72MOL0     C 9437  10.249   6.776   9.674 -0.6860 -0.0764 -0.8524
   72MOL0     C 9438  10.226   6.722   9.554  0.2862  0.0024  0.2139
   72MOL0     H 9439  10.027   6.731   9.112 -0.6130 -1.3953  0.6461
   72MOL0     H 9440   9.914   6.613   8.904  0.2666 -0.2422  1.2560
   72MOL0     H 9441   9.734   6.343   8.851  0.6646 -0.8676 -4.1739
   72MOL0     H 9442   9.820   6.293   8.993  0.6655 -1.1304  0.0273
   72MOL0     H 9443   9.938   6.098   8.857  0.9368  0.4272 -2.2759
   72MOL0     H 9444   9.850   6.156   8.720  0.8221  4.1206 -0.6745
   72MOL0     H 9445   9.746   5.951   8.831  2.3558  1.2826 -1.2436
   72MOL0     H 9446   9.636   6.081   8.783 -1.8123 -2.2490  1.7150
   72MOL0     H 9447   9.621   6.169   9.015  0.2105 -0.5518 -3.0744
   72MOL0     H 9448   9.583   6.002   9.022  2.2541 -2.0460  1.0744
   72MOL0     H 9449   9.846   6.109   9.084 -1.3041  1.5693  0.7882
   72MOL0     H 9450   9.800   5.938   9.110  0.1547 -0.6690 -0.4884
   72MOL0     H 9451   9.764   6.041   9.332 -0.0649  0.6101  0.8680
   72MOL0     H 9452   9.602   6.053   9.252  0.2350 -2.1586  0.3376
   72MOL0     H 9453   9.831   6.265   9.265  0.8126 -0.7393 -0.2165
   72MOL0     H 9454   9.676   6.297   9.201 -0.4904  0.4086  2.2649
   72MOL0     H 9455   9.712   6.192   9.484  2.4527  0.3654 -0.0830
   72MOL0     H 9456   9.568   6.254   9.403 -0.1077 -2.5297  1.7578
   72MOL0     H 9457   9.903   6.332   9.575 -0.1816 -0.5393  1.0552
   72MOL0     H 9458   9.950   6.699   9.657  0.3684 -0.2200 -1.5127
   72MOL0     H 9459  10.014   6.533   9.698 -1.2544 -0.7910  1.0052
   72MOL0     H 9460   9.797   6.546   9.867  0.6298  0.5990  0.2573
   72MOL0     H 9461   9.772   6.702   9.799 -0.1800  0.0480  1.3606
   72MOL0     H 9462  10.023   6.604   9.942 -0.0903 -0.6083 -1.0487
   72MOL0     H 9463   9.986   6.777   9.884  0.0088  0.7523  1.7910
   72MOL0     H 9464   9.805   6.782  10.050 -0.7085 -1.0060  0.3223
   72MOL0     H 9465   9.963   6.789  10.106  0.2940  1.1134 -1.9203
   72MOL0     H 9466   9.783   6.815  10.270  0.2332  1.1606  1.3628
   72MOL0     H 9467   9.599   6.807  10.445  4.4829  1.3411 -1.5800
   72MOL0     H 9468   9.491   6.485  10.849  0.4197 -2.2119 -2.3987
   72MOL0     H 9469   9.313   6.499  11.029 -2.4306  3.6667 -0.4785
   72MOL0     H 9470   8.958   6.311  10.936  3.6436  0.2821  1.1793
   72MOL0     H 9471   8.875   6.475  10.941 -0.2635  0.4017  0.3933
   72MOL0     H 9472   8.975   6.318  11.182  3.1908 -0.6281 -4.3469
   72MOL0     H 9473   8.808   6.300  11.124  0.6282 -1.6714 -0.5478
   72MOL0     H 9474   8.764   6.553  11.157  0.9216  2.8672  1.9423
   72MOL0     H 9475   8.933   6.572  11.197  1.1260 -2.0291 -1.6003
   72MOL0     H 9476   8.904   6.410  11.369 -1.7724 -1.0461  2.5386
   72MOL0     H 9477   8.818   6.565  11.404  1.9775 -0.0068 -0.5911
   72MOL0     H 9478   8.689   6.303  11.325 -1.2180 -0.0852 -0.6848
   72MOL0     H 9479   8.601   6.459  11.318 -0.1090  0.1044 -0.4589
   72MOL0     H 9480   8.606   6.321  11.533 -1.4195  1.8370  1.0738
   72MOL0     H 9481   8.642   6.497  11.547 -0.6113 -0.1044  0.6173
   72MOL0     H 9482   8.858   6.298  11.554 -2.6898 -0.9041  0.3727
   72MOL0     H 9483   8.861   6.483  11.582 -1.8866  1.3921 -1.5595
   72MOL0     H 9484   8.735   6.469  11.777 -2.5172 -1.0761  1.9316
   72MOL0     H 9485   8.882   6.385  11.788 -0.2530  1.9336 -0.0336
   72MOL0     H 9486   9.027   6.390  10.737  0.2002 -4.6585  4.2502
   72MOL0     H 9487   9.210   6.388  10.558 -1.3949  0.7109  0.5423
   72MOL0     H 9488   9.569   6.391  10.384 -3.0348  0.2166 -3.4483
   72MOL0     H 9489   9.753   6.406  10.197  1.9475  2.5776 -1.1305
   72MOL0     H 9490  10.133   6.260   9.007 -3.8306 -0.7060 -1.7159
   72MOL0     H 9491  10.220   6.359   9.209 -0.8992  0.5025  2.1176
   72MOL0     H 9492  10.465   6.490   9.540 -0.0558  0.4860 -0.8521
   72MOL0     H 9493  10.512   6.599   9.771 -0.9684 -1.0881  0.6554
   72MOL0     H 9494  10.200   6.832   9.948  1.1107 -3.2209  2.4519
   72MOL0     H 9495  10.285   6.962   9.854 -0.4757 -2.6456 -2.3636
   72MOL0     H 9496  10.409   6.884  10.120  2.9959  2.9689  1.2323
   72MOL0     H 9497  10.396   7.036  10.035 -1.0078 -0.4970 -2.4292
   72MOL0     H 9498  10.157   6.890  10.158 -0.7789  0.4623 -0.9941
   72MOL0     H 9499  10.151   7.053  10.100 -1.2176  0.3280  2.2004
   72MOL0     H 9500  10.323   7.149  10.245 -0.8473  0.3279  1.5073
   72MOL0     H 9501  10.178   7.099  10.321  0.3519  0.1943  0.5742
   72MOL0     H 9502  10.366   6.814  10.531 -2.9346 -0.8299 -1.2970
   72MOL0     H 9503  10.181   6.855   9.707  2.0124  3.0764 -2.2766
   72MOL0     H 9504  10.139   6.755   9.500 -0.2425  0.5376  1.3552
   73MOL0     O 9505   6.527   6.025  10.935  0.3761 -0.3383  0.3092
   73MOL0     C 9506   6.524   6.008  11.057  0.7785  0.1577 -0.1021
   73MOL0     O 9507   6.572   5.899  11.123 -0.0752 -0.3399 -0.3900
   73MOL0     C 9508   6.647   5.801  11.060  0.1738 -0.6461  0.7696
   73MOL0     C 9509   6.596   5.685  11.000  0.0490  0.4193 -0.2667
   73MOL0     C 9510   6.673   5.592  10.935 -0.5366  0.9971  0.0160
   73MOL0     C 9511   6.809   5.621  10.925  0.5054  0.3195  0.3797
   73MOL0     O 9512   6.878   5.533  10.842 -0.4104  0.2624 -0.3346
   73MOL0     C 9513   7.023   5.541  10.828 -0.1621  0.6133  0.0334
   73MOL0     C 9514   7.062   5.409  10.749  0.9297 -0.2629 -0.1381
   73MOL0     C 9515   7.212   5.379  10.739  0.6458  0.4128 -0.3823
   73MOL0     C 9516   7.233   5.235  10.683 -0.0799  0.1541 -0.1095
   73MOL0     C 9517   7.388   5.217  10.696 -0.4396 -0.4837  0.3408
   73MOL0     C 9518   7.430   5.077  10.660  0.3276  0.2058 -0.4413
   73MOL0     C 9519   7.576   5.063  10.625 -0.5634  0.6627  0.4979
   73MOL0     C 9520   7.687   5.105  10.724  0.5110  0.2267 -0.0935
   73MOL0     N 9521   7.820   5.090  10.674  0.2027 -0.1436 -0.3960
   73MOL0     C 9522   7.906   4.995  10.714  0.3211  0.5344  0.5314
   73MOL0     C 9523   8.009   5.009  10.630 -0.9923  1.0669  0.0944
   73MOL0     C 9524   8.133   4.922  10.594  0.1611 -0.9490  0.6142
   73MOL0     C 9525   8.259   4.986  10.635 -0.4986 -0.2086 -0.1204
   73MOL0     C 9526   8.374   4.893  10.593  0.3292  0.0374 -0.1892
   73MOL0     C 9527   8.501   4.938  10.663 -0.8365  1.2967  1.8594
   73MOL0     O 9528   8.606   4.840  10.617  0.5364 -0.1341 -0.1016
   73MOL0     C 9529   8.727   4.833  10.675 -0.4212 -0.0793 -0.5451
   73MOL0     C 9530   8.804   4.740  10.615 -0.1663  0.3255 -0.4891
   73MOL0     C 9531   8.936   4.725  10.659  0.5549 -0.0115  0.0387
   73MOL0     C 9532   8.989   4.811  10.756  0.7301 -0.2974  0.8528
   73MOL0     C 9533   9.130   4.805  10.794 -0.1900  0.4158 -0.8866
   73MOL0     O 9534   9.194   4.703  10.738  0.0220  0.3678  0.2846
   73MOL0     C 9535   9.326   4.677  10.762  0.4322  0.1776 -0.0275
   73MOL0     C 9536   9.364   4.547  10.760 -0.4018  0.6202 -0.4875
   73MOL0     C 9537   9.495   4.511  10.792 -0.5196  1.0077 -0.6736
   73MOL0     C 9538   9.604   4.596  10.803 -0.4752 -0.0600  0.4738
   73MOL0     O 9539   9.735   4.545  10.829  0.5698 -0.1088  0.7062
   73MOL0     C 9540   9.840   4.575  10.730  0.9679  0.1507 -0.7741
   73MOL0     C 9541   9.981   4.602  10.799 -0.1974 -1.1319 -0.0321
   73MOL0     C 9542  10.109   4.643  10.709  0.8004  0.4925 -0.7278
   73MOL0     C 9543  10.233   4.650  10.797  0.1594  0.1797 -0.2067
   73MOL0     C 9544  10.347   4.670  10.710 -0.3290  0.2160 -1.3009
   73MOL0     C 9545  10.357   4.800  10.644 -1.1512 -0.7388 -0.5243
   73MOL0     C 9546  10.503   4.826  10.611  0.0098 -0.4268  0.7383
   73MOL0     C 9547  10.535   4.960  10.542 -0.0764 -0.5618  0.5667
   73MOL0    Cl 9548  10.403   5.024  10.445  0.0169  0.0263  0.0467
   73MOL0     C 9549   9.560   4.738  10.802  0.6825 -0.1880  0.6696
   73MOL0     C 9550   9.425   4.775  10.779  0.3221 -0.6743  0.0534
   73MOL0     O 9551   9.172   4.880  10.882 -0.1761 -0.0942  0.4097
   73MOL0     C 9552   8.903   4.909  10.817 -0.0378 -0.4048  0.7462
   73MOL0     C 9553   8.773   4.912  10.779 -1.0287 -0.0926 -0.2871
   73MOL0     N 9554   7.988   5.114  10.542  0.2744  0.1315 -0.3495
   73MOL0     N 9555   7.866   5.160  10.569 -0.0578 -0.4947 -0.3437
   73MOL0     C 9556   6.869   5.731  10.989  0.5489  0.0927  0.0498
   73MOL0     C 9557   6.782   5.818  11.049  1.0475 -0.0927 -0.6004
   73MOL0     C 9558   6.464   6.118  11.134 -0.1511 -0.1318 -0.8615
   73MOL0     C 9559   6.375   6.092  11.235 -0.2498  0.2021  0.7200
   73MOL0     C 9560   6.306   6.198  11.300 -0.1459 -0.1248  0.0867
   73MOL0     C 9561   6.336   6.329  11.282  0.3655 -0.5324  0.0821
   73MOL0     O 9562   6.259   6.430  11.338 -0.7731  0.1440  0.0325
   73MOL0     C 9563   6.246   6.429  11.479  0.2925  1.4331 -0.2345
   73MOL0     C 9564   6.240   6.565  11.549 -0.1197 -0.8793  0.2437
   73MOL0     C 9565   6.362   6.654  11.503 -0.0162  0.2852 -0.2686
   73MOL0     C 9566   6.489   6.590  11.568 -0.3768 -0.4043 -0.2091
   73MOL0     C 9567   6.589   6.687  11.608  0.1228 -0.5648  0.4947
   73MOL0     C 9568   6.652   6.786  11.645 -1.0127  0.1013 -0.3804
   73MOL0     C 9569   6.432   6.354  11.189 -0.0564 -0.5807 -0.8546
   73MOL0     C 9570   6.491   6.255  11.101  0.3525 -0.1827 -0.4061
   73MOL0     H 9571   6.490   5.668  11.010  0.0954 -1.1443 -1.9326
   73MOL0     H 9572   6.634   5.500  10.894  0.7589  1.2144 -1.8440
   73MOL0     H 9573   7.073   5.526  10.925 -1.7850 -4.6438  0.3329
   73MOL0     H 9574   7.065   5.634  10.788  3.5059 -0.4673  0.9242
   73MOL0     H 9575   7.006   5.424  10.656  2.6611  2.9408 -0.8273
   73MOL0     H 9576   7.006   5.328  10.797 -0.0971  0.2891 -0.3776
   73MOL0     H 9577   7.255   5.386  10.839  1.0774 -1.4763 -0.3852
   73MOL0     H 9578   7.263   5.434  10.659  3.4194 -0.0951  0.9207
   73MOL0     H 9579   7.178   5.170  10.752 -0.6263  1.8411  1.0927
   73MOL0     H 9580   7.198   5.230  10.579 -1.4412 -2.5539  0.3664
   73MOL0     H 9581   7.425   5.239  10.796  0.6414 -0.6572 -0.0046
   73MOL0     H 9582   7.438   5.285  10.626  0.0969  1.9089  2.8523
   73MOL0     H 9583   7.370   5.060  10.569 -1.4042  4.2631 -0.2461
   73MOL0     H 9584   7.392   4.999  10.726  2.5225  1.8629  3.0803
   73MOL0     H 9585   7.594   4.957  10.605  0.9487  0.6891  1.4996
   73MOL0     H 9586   7.591   5.126  10.537 -2.5083 -2.0248 -1.9520
   73MOL0     H 9587   7.676   5.045  10.814  2.3681  3.2741  2.3843
   73MOL0     H 9588   7.679   5.208  10.761 -0.8169  0.0656  0.1425
   73MOL0     H 9589   7.895   4.906  10.775 -1.2726  1.0595  1.0650
   73MOL0     H 9590   8.129   4.911  10.485  0.8358  0.6043  0.4044
   73MOL0     H 9591   8.129   4.816  10.623  0.9852 -1.9679 -2.5900
   73MOL0     H 9592   8.257   4.998  10.744  2.1503 -2.6477  0.3233
   73MOL0     H 9593   8.286   5.079  10.583 -0.5047 -0.6723 -0.9656
   73MOL0     H 9594   8.337   4.798  10.634 -0.2579  1.0208  1.6309
   73MOL0     H 9595   8.377   4.886  10.483 -2.0008 -1.8856 -0.2230
   73MOL0     H 9596   8.500   4.938  10.773  2.9036  1.4138  2.0047
   73MOL0     H 9597   8.522   5.039  10.627  0.0455  1.3200  2.4079
   73MOL0     H 9598   8.778   4.682  10.528  0.6447  0.8858 -1.1161
   73MOL0     H 9599   8.996   4.646  10.617  0.4561 -0.3767  0.5764
   73MOL0     H 9600   9.294   4.464  10.754 -0.9753  1.0071  0.5540
   73MOL0     H 9601   9.527   4.408  10.789 -0.6624  0.9580 -0.5042
   73MOL0     H 9602   9.807   4.672  10.693 -0.9686 -0.2299 -0.1797
   73MOL0     H 9603   9.849   4.505  10.646  3.7578  0.2822 -0.6959
   73MOL0     H 9604  10.009   4.514  10.857  0.6301 -0.3117  0.8410
   73MOL0     H 9605   9.953   4.684  10.866 -1.1796 -0.4103 -1.2767
   73MOL0     H 9606  10.075   4.741  10.674  0.9049 -0.6928 -4.6583
   73MOL0     H 9607  10.111   4.571  10.627 -4.2405 -0.3329 -0.4465
   73MOL0     H 9608  10.229   4.735  10.866  1.9469 -0.0791  0.2617
   73MOL0     H 9609  10.263   4.558  10.849  0.0757 -0.8222 -1.8592
   73MOL0     H 9610  10.343   4.590  10.636  0.7283 -3.5369  2.3280
   73MOL0     H 9611  10.439   4.655  10.767 -0.7475  1.3064 -0.3001
   73MOL0     H 9612  10.336   4.874  10.721  3.1154  1.5667 -1.2616
   73MOL0     H 9613  10.296   4.815  10.555  0.0382  2.3416 -0.9378
   73MOL0     H 9614  10.555   4.821  10.708 -0.2847  2.1974  1.1177
   73MOL0     H 9615  10.529   4.748  10.540 -1.8372  0.9549 -1.5736
   73MOL0     H 9616  10.623   4.951  10.478 -1.1228 -2.8686 -0.6977
   73MOL0     H 9617  10.553   5.036  10.619  2.4334 -0.4692 -0.0479
   73MOL0     H 9618   9.629   4.819  10.820  0.6387  0.4894 -1.8050
   73MOL0     H 9619   9.398   4.880  10.777  1.5684 -0.3459 -0.4195
   73MOL0     H 9620   8.939   4.987  10.884 -0.4571  1.4050 -1.0356
   73MOL0     H 9621   8.716   4.987  10.834  0.0039 -1.8917  3.5604
   73MOL0     H 9622   6.976   5.747  10.987  1.1004 -2.8478 -3.0914
   73MOL0     H 9623   6.819   5.913  11.088  0.3036 -0.9275  2.3646
   73MOL0     H 9624   6.356   5.991  11.272  0.7903 -0.4403 -0.4288
   73MOL0     H 9625   6.226   6.168  11.368 -1.4022 -0.2746 -1.3986
   73MOL0     H 9626   6.325   6.366  11.522 -2.5635 -2.6418 -0.4088
   73MOL0     H 9627   6.147   6.390  11.502  0.1803  1.5542 -0.5077
   73MOL0     H 9628   6.151   6.605  11.499 -0.9886 -1.7574  1.0384
   73MOL0     H 9629   6.224   6.565  11.657 -0.5404 -1.0547  0.1844
   73MOL0     H 9630   6.343   6.759  11.526 -2.5679 -0.0475 -0.5571
   73MOL0     H 9631   6.366   6.638  11.395 -0.0054 -1.5718 -0.0279
   73MOL0     H 9632   6.472   6.535  11.661  3.3935 -0.1223  0.7932
   73MOL0     H 9633   6.537   6.521  11.499 -1.6395 -0.1202 -1.4140
   73MOL0     H 9634   6.708   6.875  11.666  0.2830 -0.1877 -2.3307
   73MOL0     H 9635   6.467   6.455  11.174 -1.1347  0.4008  2.3423
   73MOL0     H 9636   6.560   6.274  11.020  0.7068 -1.7399 -0.4992
   74MOL0     O 9637   9.993   6.297   0.203 -0.4210  0.1472  0.3040
   74MOL0     C 9638  10.016   6.180   0.184  0.8286  0.2320  0.1537
   74MOL0     O 9639  10.133   6.127   0.122 -0.3438  0.7056 -0.3308
   74MOL0     C 9640  10.223   6.219   0.081  0.5145  0.6923  0.6615
   74MOL0     C 9641  10.302   6.286   0.177  1.0421  0.1263  1.3832
   74MOL0     C 9642  10.386   6.387   0.136  1.1516  0.5503  0.1163
   74MOL0     C 9643  10.401   6.427   0.001 -0.2371 -0.5480  0.2118
   74MOL0     O 9644  10.502   6.523  -0.018 -0.6895  0.2381 -0.0542
   74MOL0     C 9645  10.575   6.502  -0.142  0.2026 -0.2060  0.0528
   74MOL0     C 9646  10.689   6.615  -0.153  0.2410 -0.8123  0.5103
   74MOL0     C 9647  10.610   6.741  -0.180  0.1235 -0.8219  0.4285
   74MOL0     C 9648  10.693   6.867  -0.158 -0.4929  0.2574 -1.1523
   74MOL0     C 9649  10.791   6.900  -0.268 -0.5872 -0.0222 -0.2448
   74MOL0     C 9650  10.940   6.852  -0.237 -0.1951  0.2728  0.0322
   74MOL0     C 9651  11.046   6.912  -0.330 -1.1641  0.8268 -0.2041
   74MOL0     C 9652  11.025   6.888  -0.480  1.0436  0.2742 -0.7412
   74MOL0     N 9653  11.141   6.939  -0.561 -0.0724  0.6950  0.1246
   74MOL0     C 9654  11.232   6.874  -0.651  0.2421 -0.2638  0.4717
   74MOL0     C 9655  11.288   6.981  -0.721 -0.6553  0.7028  0.3997
   74MOL0     C 9656  11.400   6.985  -0.822 -0.4677  0.9896  0.4505
   74MOL0     C 9657  11.465   6.852  -0.857 -0.2048  0.4172 -0.8201
   74MOL0     C 9658  11.596   6.879  -0.931  0.2168  0.2906 -0.3767
   74MOL0     C 9659  11.689   6.745  -0.949  0.8990 -0.6095 -1.4860
   74MOL0     O 9660  11.824   6.783  -0.935 -0.1788  0.5543  0.0242
   74MOL0     C 9661  11.910   6.675  -0.924  0.0506  0.5039  0.8850
   74MOL0     C 9662  12.024   6.703  -0.996 -0.9863 -0.5604 -0.3366
   74MOL0     C 9663  12.126   6.613  -1.004  0.0983  0.8989 -0.1368
   74MOL0     C 9664  12.120   6.482  -0.952 -0.2158 -0.1594 -0.1825
   74MOL0     C 9665  12.218   6.380  -0.972  0.4244  0.5073  0.7293
   74MOL0     O 9666  12.322   6.422  -1.045  0.7724 -0.5125  0.4357
   74MOL0     C 9667  12.418   6.331  -1.070 -0.3094  1.0834 -0.0466
   74MOL0     C 9668  12.549   6.346  -1.033 -0.7552 -0.2687 -0.0138
   74MOL0     C 9669  12.645   6.247  -1.063  0.1398 -0.3331  0.2363
   74MOL0     C 9670  12.601   6.129  -1.124  0.6924  0.1129 -0.4810
   74MOL0     O 9671  12.680   6.028  -1.150  0.1132  0.3000  0.7415
   74MOL0     C 9672  12.782   5.983  -1.055  0.8619 -0.1478  0.1666
   74MOL0     C 9673  12.817   5.833  -1.061  0.0763 -1.3966 -0.0870
   74MOL0     C 9674  12.685   5.761  -1.058  0.2954  0.1229 -0.8469
   74MOL0     C 9675  12.689   5.613  -1.121 -0.6770 -0.5225  0.2413
   74MOL0     C 9676  12.581   5.511  -1.076  0.3021 -0.6916  0.1659
   74MOL0     C 9677  12.436   5.571  -1.111  0.1090  0.7055  0.9074
   74MOL0     C 9678  12.341   5.458  -1.069 -0.5676 -0.2938  0.4544
   74MOL0     C 9679  12.231   5.435  -1.173  0.0429  0.9347  1.3922
   74MOL0    Cl 9680  12.143   5.589  -1.215 -0.2242  0.1764 -0.1044
   74MOL0     C 9681  12.467   6.111  -1.160 -0.2602  0.3196  0.0398
   74MOL0     C 9682  12.380   6.220  -1.140 -0.1588 -0.4824 -0.3914
   74MOL0     O 9683  12.208   6.262  -0.934 -0.4671  0.4188 -0.1987
   74MOL0     C 9684  12.001   6.464  -0.879 -0.7159  0.0880 -0.6357
   74MOL0     C 9685  11.898   6.557  -0.862 -0.5528  0.4750  1.0089
   74MOL0     N 9686  11.231   7.095  -0.687 -0.1443  0.3132 -0.5517
   74MOL0     N 9687  11.143   7.068  -0.600  0.7617  0.4858 -0.0725
   74MOL0     C 9688  10.317   6.363  -0.092 -0.2715  0.3061  0.0322
   74MOL0     C 9689  10.241   6.251  -0.057  0.4890 -1.7938  0.0864
   74MOL0     C 9690   9.909   6.094   0.238  0.0833 -0.2991  0.0222
   74MOL0     C 9691   9.949   5.970   0.294  0.3663  0.5365  0.0763
   74MOL0     C 9692   9.861   5.891   0.356 -0.1779 -0.1733  0.2437
   74MOL0     C 9693   9.728   5.927   0.369  0.0521  0.2872 -0.7724
   74MOL0     O 9694   9.643   5.861   0.463  0.2538  0.3383  0.2287
   74MOL0     C 9695   9.678   5.728   0.497  0.4142  0.5760 -0.4035
   74MOL0     C 9696   9.552   5.631   0.545  0.8029 -0.0255 -0.1802
   74MOL0     C 9697   9.478   5.597   0.419  0.4171  0.9065 -0.4867
   74MOL0     C 9698   9.339   5.555   0.456 -0.2830 -0.2092  0.0681
   74MOL0     C 9699   9.257   5.515   0.343  0.0262 -0.2070  0.3894
   74MOL0     C 9700   9.199   5.451   0.261  0.9718  0.9362 -0.1852
   74MOL0     C 9701   9.686   6.050   0.321 -0.2698  0.1424  0.3484
   74MOL0     C 9702   9.774   6.128   0.255  0.5434 -0.6159  0.1015
   74MOL0     H 9703  10.277   6.274   0.282 -2.0362  1.8873  0.9517
   74MOL0     H 9704  10.447   6.433   0.213  0.9543  1.1918 -0.1076
   74MOL0     H 9705  10.519   6.484  -0.235  0.7328 -1.9467  0.0221
   74MOL0     H 9706  10.628   6.408  -0.124  0.4353  0.3567  2.5973
   74MOL0     H 9707  10.762   6.590  -0.231  1.1411 -0.3474  1.1893
   74MOL0     H 9708  10.746   6.617  -0.060 -1.5311 -4.9756  1.9408
   74MOL0     H 9709  10.518   6.751  -0.122  0.1440 -2.2469  0.7412
   74MOL0     H 9710  10.582   6.743  -0.285 -1.0768 -1.1220  0.7347
   74MOL0     H 9711  10.622   6.946  -0.129  2.2936  1.0553  5.2872
   74MOL0     H 9712  10.747   6.857  -0.063  0.1819  1.3344 -1.4073
   74MOL0     H 9713  10.798   7.008  -0.284  0.3632 -0.0446 -0.0510
   74MOL0     H 9714  10.771   6.853  -0.364  0.2233 -0.9003  0.0014
   74MOL0     H 9715  10.938   6.743  -0.240  2.1708  0.1880 -0.8367
   74MOL0     H 9716  10.970   6.877  -0.134  1.2074  1.5797 -0.6443
   74MOL0     H 9717  11.069   7.019  -0.332  2.0976  0.3113 -4.4503
   74MOL0     H 9718  11.142   6.861  -0.319 -0.3367  1.0033 -4.7251
   74MOL0     H 9719  10.946   6.962  -0.498  1.4269  0.3887 -2.0536
   74MOL0     H 9720  10.994   6.786  -0.503 -0.9027  0.7926 -0.6296
   74MOL0     H 9721  11.257   6.768  -0.656  0.1351 -0.3771  1.9557
   74MOL0     H 9722  11.471   7.062  -0.791 -2.3553  2.0315  2.5530
   74MOL0     H 9723  11.351   7.015  -0.915  1.3822 -2.6549 -1.9172
   74MOL0     H 9724  11.397   6.799  -0.925 -2.3000  2.2950 -0.2968
   74MOL0     H 9725  11.490   6.788  -0.772 -2.9946  3.5140  2.6712
   74MOL0     H 9726  11.567   6.917  -1.030 -2.6180 -2.7582 -0.8698
   74MOL0     H 9727  11.653   6.963  -0.890  1.8137 -0.3100 -1.2651
   74MOL0     H 9728  11.667   6.702  -1.047 -3.8259  1.1687 -1.4811
   74MOL0     H 9729  11.663   6.675  -0.869  1.6328 -0.8450 -1.4452
   74MOL0     H 9730  12.024   6.791  -1.059 -0.7087 -2.0830 -2.6068
   74MOL0     H 9731  12.211   6.636  -1.068  4.2328 -0.3231  4.3769
   74MOL0     H 9732  12.586   6.423  -0.966  1.6025 -2.7163  1.6995
   74MOL0     H 9733  12.750   6.251  -1.037  0.2193 -0.7141 -0.0199
   74MOL0     H 9734  12.740   6.006  -0.957 -2.2993  0.7675 -1.2653
   74MOL0     H 9735  12.868   6.049  -1.067 -1.7079  3.3439 -0.7246
   74MOL0     H 9736  12.877   5.803  -0.975  0.7959 -1.1074 -0.4796
   74MOL0     H 9737  12.871   5.809  -1.153 -0.2512 -0.3406 -0.5764
   74MOL0     H 9738  12.607   5.809  -1.118 -0.3258 -2.5924 -2.3868
   74MOL0     H 9739  12.639   5.762  -0.958  2.0081  3.0213  0.0338
   74MOL0     H 9740  12.671   5.619  -1.229  2.3955 -3.1968 -0.5835
   74MOL0     H 9741  12.790   5.573  -1.113 -0.7505 -1.0771 -1.1898
   74MOL0     H 9742  12.583   5.499  -0.967 -0.5931  1.4445  0.4747
   74MOL0     H 9743  12.597   5.410  -1.114  0.2012  0.2545 -2.6166
   74MOL0     H 9744  12.425   5.600  -1.216 -0.1477  2.6240  1.4263
   74MOL0     H 9745  12.404   5.661  -1.058  0.0808  1.1787  0.1056
   74MOL0     H 9746  12.401   5.367  -1.074  3.8096  2.3210 -0.7090
   74MOL0     H 9747  12.301   5.452  -0.968  1.5345  0.0472  1.3645
   74MOL0     H 9748  12.161   5.358  -1.140  1.0776 -1.2716 -1.2047
   74MOL0     H 9749  12.280   5.396  -1.262 -1.2755 -1.6133  1.6987
   74MOL0     H 9750  12.446   6.017  -1.209  2.6915 -0.0917 -0.6229
   74MOL0     H 9751  12.279   6.215  -1.178  0.7976 -1.1485 -3.0648
   74MOL0     H 9752  11.979   6.372  -0.825  0.7803  0.4127  0.5930
   74MOL0     H 9753  11.813   6.530  -0.800  0.4924 -0.6180  2.0130
   74MOL0     H 9754  10.318   6.399  -0.194  2.5969  3.0769  0.8797
   74MOL0     H 9755  10.179   6.195  -0.127  1.1124 -2.6076  0.1749
   74MOL0     H 9756  10.053   5.938   0.294 -0.2259 -1.6280  1.0818
   74MOL0     H 9757   9.895   5.807   0.415 -1.3142 -0.2600  0.8108
   74MOL0     H 9758   9.758   5.738   0.570  0.9945 -1.4620 -0.7154
   74MOL0     H 9759   9.719   5.683   0.406  0.1794 -4.0442  1.5187
   74MOL0     H 9760   9.599   5.542   0.588  1.2131 -0.0103 -0.5978
   74MOL0     H 9761   9.487   5.690   0.610  0.3352  0.3175 -0.9499
   74MOL0     H 9762   9.533   5.522   0.361 -1.3143  0.2246 -1.2909
   74MOL0     H 9763   9.479   5.690   0.362  0.4380  0.0224 -1.9705
   74MOL0     H 9764   9.345   5.465   0.519 -1.2615 -0.0032  0.4822
   74MOL0     H 9765   9.281   5.632   0.507 -1.0359 -2.1225  2.3028
   74MOL0     H 9766   9.166   5.389   0.180 -1.4778  0.5623  1.0168
   74MOL0     H 9767   9.583   6.085   0.328 -0.2866 -0.1586  2.0000
   74MOL0     H 9768   9.738   6.226   0.225  1.8561 -0.2731 -0.4277
   75MOL0     O 9769   6.447   9.899   3.195  0.0464 -0.2652 -0.0138
   75MOL0     C 9770   6.333   9.899   3.230  0.7685 -0.1846 -0.2179
   75MOL0     O 9771   6.286   9.872   3.355  0.4835  0.7211 -0.2127
   75MOL0     C 9772   6.387   9.815   3.433  0.6019  0.9823 -0.1427
   75MOL0     C 9773   6.427   9.684   3.411 -0.0192  0.3695 -0.0862
   75MOL0     C 9774   6.527   9.627   3.493  0.0953 -1.1299 -0.0133
   75MOL0     C 9775   6.579   9.695   3.599  0.9815 -0.1362 -0.3689
   75MOL0     O 9776   6.669   9.638   3.681 -0.8455  0.5539 -0.3832
   75MOL0     C 9777   6.811   9.678   3.646  0.4149  0.6172 -0.5793
   75MOL0     C 9778   6.881   9.725   3.776  0.6978  0.3261 -0.5913
   75MOL0     C 9779   6.895   9.868   3.801  0.0806 -0.1644  0.6358
   75MOL0     C 9780   6.982   9.940   3.709 -0.2638 -0.0416 -0.5160
   75MOL0     C 9781   7.011  10.079   3.765  0.0331  0.1105 -0.1530
   75MOL0     C 9782   7.144  10.121   3.702 -0.1228  0.8366  0.1877
   75MOL0     C 9783   7.195  10.258   3.756  0.3050 -0.1729 -1.0941
   75MOL0     C 9784   7.094  10.369   3.719 -0.6890  0.2255  0.9712
   75MOL0     N 9785   7.121  10.498   3.795  0.4715 -0.0908 -0.1636
   75MOL0     C 9786   7.204  10.596   3.760 -0.5545 -0.8622 -0.2914
   75MOL0     C 9787   7.205  10.682   3.865 -0.0488  0.2596  0.5850
   75MOL0     C 9788   7.281  10.812   3.881  0.4100  0.9759 -0.0483
   75MOL0     C 9789   7.294  10.859   4.033 -0.0139 -0.1466 -0.2240
   75MOL0     C 9790   7.390  10.764   4.105 -0.9709  0.2750 -0.1921
   75MOL0     C 9791   7.406  10.798   4.251  0.8737  0.6683 -0.0685
   75MOL0     O 9792   7.464  10.924   4.252  0.3536 -0.0313  0.1495
   75MOL0     C 9793   7.553  10.951   4.354  0.2560  0.1486 -0.3023
   75MOL0     C 9794   7.671  11.029   4.322  0.2202  0.0091 -0.4762
   75MOL0     C 9795   7.785  11.019   4.414 -0.6214 -0.4912  0.3634
   75MOL0     C 9796   7.783  10.949   4.531 -0.0493 -0.2459  0.0024
   75MOL0     C 9797   7.900  10.965   4.625 -1.0101 -0.2607  0.2312
   75MOL0     O 9798   8.015  11.028   4.581  0.3366  0.1691 -0.0222
   75MOL0     C 9799   8.126  11.036   4.652  0.0309  0.0810 -1.0091
   75MOL0     C 9800   8.151  11.140   4.742 -0.4815 -0.4994 -1.1751
   75MOL0     C 9801   8.257  11.142   4.827 -0.0801 -0.4986 -0.4136
   75MOL0     C 9802   8.355  11.044   4.818  0.3763  0.4586 -0.1577
   75MOL0     O 9803   8.467  11.043   4.903  0.2681 -0.3465 -0.1108
   75MOL0     C 9804   8.498  11.168   4.966 -0.2506 -0.2968 -0.4327
   75MOL0     C 9805   8.628  11.171   5.056 -0.1397  0.0482 -0.1682
   75MOL0     C 9806   8.749  11.162   4.956 -0.1658 -0.2391 -0.1096
   75MOL0     C 9807   8.879  11.187   5.035 -0.3783 -0.3277 -0.4624
   75MOL0     C 9808   8.991  11.232   4.942 -0.5260 -0.2921 -0.2905
   75MOL0     C 9809   9.016  11.113   4.839 -0.4804 -0.2149 -0.3908
   75MOL0     C 9810   9.125  11.170   4.740 -1.1646 -0.3479 -0.3619
   75MOL0     C 9811   9.213  11.053   4.686  0.5346 -0.9757 -0.0985
   75MOL0    Cl 9812   9.146  10.965   4.545  0.2246  0.0468  0.0570
   75MOL0     C 9813   8.323  10.931   4.743  0.0052  0.4199 -0.1720
   75MOL0     C 9814   8.212  10.932   4.662  1.2032  0.0221  0.3209
   75MOL0     O 9815   7.893  10.918   4.742 -0.2316 -0.0412 -0.2897
   75MOL0     C 9816   7.665  10.894   4.571 -0.0870 -0.1596 -0.4946
   75MOL0     C 9817   7.557  10.879   4.486  1.1358  0.3713  0.5398
   75MOL0     N 9818   7.116  10.634   3.967 -0.6786  0.8066 -0.2087
   75MOL0     N 9819   7.071  10.515   3.926  0.7159  0.9030  0.1918
   75MOL0     C 9820   6.531   9.823   3.634 -0.5117  1.1975  0.0043
   75MOL0     C 9821   6.444   9.885   3.550  0.2691 -0.5960  0.0381
   75MOL0     C 9822   6.231   9.922   3.124 -0.7270 -0.6676 -0.0215
   75MOL0     C 9823   6.108   9.853   3.131  0.8084 -0.3727 -0.0889
   75MOL0     C 9824   6.008   9.884   3.044 -0.3380 -0.8482 -0.4109
   75MOL0     C 9825   6.035   9.969   2.937 -0.7934 -0.4124  0.3691
   75MOL0     O 9826   5.931   9.986   2.849  0.2099  0.1760  0.1602
   75MOL0     C 9827   5.967  10.007   2.711 -0.0002  0.6540  0.5428
   75MOL0     C 9828   5.978  10.154   2.670  0.1882  0.2201  1.1184
   75MOL0     C 9829   5.984  10.161   2.516 -0.0188 -0.5504  0.8863
   75MOL0     C 9830   5.996  10.311   2.471 -0.8519  0.0865  0.5505
   75MOL0     C 9831   5.867  10.376   2.460 -0.5160  0.3623  0.3744
   75MOL0     C 9832   5.768  10.438   2.451  1.1993 -0.4513  0.2377
   75MOL0     C 9833   6.166  10.020   2.911  0.5154  0.8852 -0.1246
   75MOL0     C 9834   6.264  10.003   3.003 -0.1122 -0.2765  0.1649
   75MOL0     H 9835   6.389   9.624   3.328 -3.0939  0.8100  0.8713
   75MOL0     H 9836   6.559   9.528   3.465  1.2627 -0.6104 -0.6022
   75MOL0     H 9837   6.811   9.761   3.576  1.3219  0.4091 -0.8349
   75MOL0     H 9838   6.862   9.596   3.595 -2.2800 -1.1511 -0.6404
   75MOL0     H 9839   6.977   9.674   3.761 -0.3624 -0.9361 -4.6600
   75MOL0     H 9840   6.835   9.680   3.865 -0.6756 -0.1885 -1.5159
   75MOL0     H 9841   6.927   9.892   3.903  2.5310  2.6357 -0.6355
   75MOL0     H 9842   6.799   9.918   3.785  0.5619  0.1409 -1.7071
   75MOL0     H 9843   7.080   9.891   3.702 -0.4031 -0.7252  1.5803
   75MOL0     H 9844   6.948   9.944   3.605  1.2879  1.2445 -1.0283
   75MOL0     H 9845   7.006  10.087   3.874 -5.3032  2.8118 -0.2594
   75MOL0     H 9846   6.928  10.144   3.736 -2.1623 -1.5664  1.9182
   75MOL0     H 9847   7.144  10.116   3.593  1.7439  1.6540  0.1093
   75MOL0     H 9848   7.217  10.043   3.725  0.0927  0.9601 -0.0617
   75MOL0     H 9849   7.194  10.247   3.865 -3.0025 -0.7609 -1.0766
   75MOL0     H 9850   7.293  10.282   3.715  0.2168  0.5286 -0.9119
   75MOL0     H 9851   6.997  10.336   3.758 -0.7545 -1.8466 -0.7413
   75MOL0     H 9852   7.101  10.389   3.612  1.1927 -3.9546  0.1184
   75MOL0     H 9853   7.267  10.596   3.671 -0.7797 -2.0279 -0.4636
   75MOL0     H 9854   7.235  10.889   3.818  1.5362  1.0831 -0.7705
   75MOL0     H 9855   7.383  10.804   3.843 -0.2655 -3.0564 -1.5287
   75MOL0     H 9856   7.197  10.863   4.082  0.4694  1.4348  0.7055
   75MOL0     H 9857   7.318  10.966   4.043 -1.0214  0.0059  0.8295
   75MOL0     H 9858   7.340  10.667   4.096 -0.9280  0.3027 -0.7775
   75MOL0     H 9859   7.487  10.768   4.054 -0.1285  3.3871  1.4093
   75MOL0     H 9860   7.462  10.721   4.307 -1.4884  0.6703  2.4949
   75MOL0     H 9861   7.304  10.804   4.290  0.6302 -5.5755  1.3569
   75MOL0     H 9862   7.692  11.083   4.231  1.2228  2.1640  0.9498
   75MOL0     H 9863   7.878  11.071   4.390 -2.1694  1.9374 -0.8794
   75MOL0     H 9864   8.059  11.198   4.750 -0.5572 -0.8308  0.7868
   75MOL0     H 9865   8.258  11.221   4.901 -1.8284 -3.5922  3.2786
   75MOL0     H 9866   8.419  11.183   5.040 -1.8181 -2.1602 -1.6244
   75MOL0     H 9867   8.497  11.248   4.892  0.6325  1.4473  1.3466
   75MOL0     H 9868   8.627  11.090   5.130 -1.7370  0.1924  0.0164
   75MOL0     H 9869   8.622  11.267   5.109 -2.7048 -2.2352  4.2355
   75MOL0     H 9870   8.743  11.243   4.883 -0.2949  0.8778  1.1123
   75MOL0     H 9871   8.759  11.064   4.908  2.0147 -1.3022  2.2597
   75MOL0     H 9872   8.865  11.260   5.115  0.0067 -0.5910 -0.1546
   75MOL0     H 9873   8.909  11.092   5.080  1.4779 -0.6693 -2.2602
   75MOL0     H 9874   9.092  11.243   4.982  1.6685 -0.2735 -5.1161
   75MOL0     H 9875   8.969  11.324   4.886  0.5127  0.4411  0.4616
   75MOL0     H 9876   8.925  11.085   4.785 -0.4989 -0.3623 -0.2864
   75MOL0     H 9877   9.042  11.025   4.900  3.4678  1.0767  0.1080
   75MOL0     H 9878   9.080  11.229   4.660 -1.1553 -1.6089 -1.3229
   75MOL0     H 9879   9.182  11.243   4.799 -2.5508 -0.4556  1.1895
   75MOL0     H 9880   9.235  10.989   4.772 -2.6578 -2.2526 -0.1181
   75MOL0     H 9881   9.312  11.086   4.653  0.5667  0.1754  1.0666
   75MOL0     H 9882   8.380  10.838   4.744  2.4080  1.8100  1.1748
   75MOL0     H 9883   8.197  10.847   4.596 -3.2636  1.8322 -1.4248
   75MOL0     H 9884   7.667  10.851   4.670 -2.9831  0.5970 -0.0179
   75MOL0     H 9885   7.473  10.820   4.519  1.2010  0.1647  0.3410
   75MOL0     H 9886   6.580   9.883   3.710  2.2695 -0.0179 -0.6755
   75MOL0     H 9887   6.411   9.985   3.574  1.9920 -0.3200  1.4093
   75MOL0     H 9888   6.101   9.786   3.215  1.7050 -0.3492  0.0202
   75MOL0     H 9889   5.917   9.827   3.058 -0.3818 -0.9442 -1.0516
   75MOL0     H 9890   5.890   9.957   2.652  1.3493  1.0923 -1.7384
   75MOL0     H 9891   6.055   9.946   2.687  0.9882  0.3362  4.3485
   75MOL0     H 9892   5.891  10.215   2.699  0.4557  2.1839 -1.7442
   75MOL0     H 9893   6.071  10.195   2.710  2.4586 -0.5933 -2.7729
   75MOL0     H 9894   5.919  10.101   2.451 -0.1914  2.3117 -1.8083
   75MOL0     H 9895   6.082  10.118   2.492  0.6993  1.1030  0.7174
   75MOL0     H 9896   6.066  10.361   2.539 -1.4675 -0.1818  1.4038
   75MOL0     H 9897   6.039  10.313   2.370  1.9350 -1.8649  1.5743
   75MOL0     H 9898   5.679  10.497   2.448  2.1103  0.9481 -0.7232
   75MOL0     H 9899   6.190  10.073   2.819 -0.6151  1.0815 -0.3132
   75MOL0     H 9900   6.356  10.060   3.002 -1.0757  1.4988  2.5585
   76MOL0     O 9901  10.527   7.368   4.093  0.5509 -0.6418  0.0849
   76MOL0     C 9902  10.580   7.330   4.203 -0.8284 -0.5431 -0.1044
   76MOL0     O 9903  10.515   7.287   4.310  0.3473  0.5616 -0.3629
   76MOL0     C 9904  10.387   7.251   4.297  0.5221  0.7356  0.0785
   76MOL0     C 9905  10.279   7.331   4.271  1.1465  0.1161 -0.4426
   76MOL0     C 9906  10.155   7.266   4.263  0.2213  0.3317 -0.1000
   76MOL0     C 9907  10.127   7.134   4.299 -0.7943  0.2350  0.3812
   76MOL0     O 9908   9.990   7.096   4.300 -0.2139 -0.4161 -0.0953
   76MOL0     C 9909   9.966   6.956   4.311  0.6180  0.0720 -0.3530
   76MOL0     C 9910   9.813   6.956   4.322 -0.1614  1.0576  0.0598
   76MOL0     C 9911   9.761   7.004   4.458  0.1573  0.3101  0.0739
   76MOL0     C 9912   9.610   7.030   4.451  0.1477 -0.0398 -0.3320
   76MOL0     C 9913   9.564   7.116   4.569 -0.0568  0.7338  0.4463
   76MOL0     C 9914   9.421   7.092   4.582 -0.7817  0.1108  0.8187
   76MOL0     C 9915   9.340   7.207   4.650 -1.9395  0.4121 -0.1163
   76MOL0     C 9916   9.183   7.194   4.634  0.5717 -0.0844 -0.2471
   76MOL0     N 9917   9.135   7.062   4.678 -0.2252 -0.4089  0.4762
   76MOL0     C 9918   9.003   7.025   4.667  0.9689  0.5484  0.4232
   76MOL0     C 9919   8.974   6.927   4.755 -0.4797 -0.7935  0.4021
   76MOL0     C 9920   8.844   6.849   4.776 -0.2852 -0.6916  0.5036
   76MOL0     C 9921   8.737   6.950   4.831  0.6388 -0.6052  0.5731
   76MOL0     C 9922   8.619   6.875   4.894  0.0900  0.0587 -1.0213
   76MOL0     C 9923   8.510   6.972   4.958 -0.3084  0.1821  0.5415
   76MOL0     O 9924   8.380   6.920   4.989  0.0633  0.3726 -0.0204
   76MOL0     C 9925   8.294   6.887   4.885 -0.1926 -0.0341 -0.5032
   76MOL0     C 9926   8.174   6.820   4.909 -0.3832  0.7514 -0.7190
   76MOL0     C 9927   8.091   6.770   4.817 -0.1597  0.0534  0.1996
   76MOL0     C 9928   8.118   6.789   4.680  0.7917  0.3219  0.8690
   76MOL0     C 9929   8.014   6.747   4.568 -0.5537 -0.6322 -0.6910
   76MOL0     O 9930   8.013   6.819   4.453 -0.1645 -0.1650  0.2121
   76MOL0     C 9931   7.926   6.795   4.350 -0.6697 -0.1106 -0.2665
   76MOL0     C 9932   7.850   6.682   4.321 -0.0852  0.2062 -0.3642
   76MOL0     C 9933   7.759   6.679   4.212  0.6236  1.1207 -0.2190
   76MOL0     C 9934   7.739   6.784   4.127 -0.5016 -0.8356  0.4053
   76MOL0     O 9935   7.650   6.766   4.025 -0.5961  0.4075  0.0884
   76MOL0     C 9936   7.671   6.863   3.913 -0.6646 -0.3116 -0.3444
   76MOL0     C 9937   7.697   6.769   3.786 -0.1582 -0.0145 -0.6904
   76MOL0     C 9938   7.819   6.670   3.795  0.1324  0.6114 -1.1979
   76MOL0     C 9939   7.822   6.587   3.671  0.4613  0.4572 -0.3452
   76MOL0     C 9940   7.958   6.518   3.665  1.0262  1.0672  0.3500
   76MOL0     C 9941   8.061   6.577   3.561  0.3502 -0.3039  0.2746
   76MOL0     C 9942   8.152   6.685   3.617  0.7339 -0.2945 -0.1964
   76MOL0     C 9943   8.291   6.683   3.538  0.6842  0.3683  0.8936
   76MOL0    Cl 9944   8.402   6.559   3.591 -0.1853 -0.2358 -0.1631
   76MOL0     C 9945   7.808   6.901   4.157 -0.6057  0.0129 -0.2216
   76MOL0     C 9946   7.899   6.901   4.268 -1.2125 -0.0696 -0.3389
   76MOL0     O 9947   7.925   6.681   4.607  0.6534  0.2404 -0.5254
   76MOL0     C 9948   8.237   6.859   4.644 -0.7234  0.2169 -0.0553
   76MOL0     C 9949   8.320   6.900   4.753 -0.0212 -0.8269 -0.4477
   76MOL0     N 9950   9.096   6.905   4.815  0.1530  0.3253 -0.2870
   76MOL0     N 9951   9.182   6.991   4.783  0.1575  0.5603  0.2004
   76MOL0     C 9952  10.242   7.061   4.333 -0.1587  0.5377  1.6033
   76MOL0     C 9953  10.369   7.116   4.331  0.1270  0.4318  0.4658
   76MOL0     C 9954  10.730   7.362   4.230  0.5326 -0.0748  0.6300
   76MOL0     C 9955  10.814   7.423   4.135 -1.1831 -0.5013  0.2428
   76MOL0     C 9956  10.955   7.432   4.162 -1.0878  1.0631 -0.3244
   76MOL0     C 9957  11.001   7.370   4.277 -0.9416 -0.1466  0.3358
   76MOL0     O 9958  11.135   7.377   4.305 -0.8269 -0.9751 -0.8838
   76MOL0     C 9959  11.197   7.291   4.408 -0.9797  0.0645  0.4757
   76MOL0     C 9960  11.353   7.304   4.411 -0.2965  0.6107  0.1257
   76MOL0     C 9961  11.406   7.217   4.522 -0.7955  0.6194 -0.3099
   76MOL0     C 9962  11.528   7.153   4.475  0.6148 -0.7129  0.5318
   76MOL0     C 9963  11.578   7.063   4.584  0.0035 -0.2855 -0.3200
   76MOL0     C 9964  11.601   6.986   4.670 -0.2375  0.6411  0.1704
   76MOL0     C 9965  10.911   7.315   4.369 -0.8239  0.3484  0.1440
   76MOL0     C 9966  10.780   7.307   4.348 -0.2972 -0.4449 -0.5897
   76MOL0     H 9967  10.288   7.439   4.264 -0.1128  0.2451 -0.2299
   76MOL0     H 9968  10.075   7.334   4.236  1.1714  0.9594 -1.4612
   76MOL0     H 9969  10.008   6.896   4.392  1.0629  0.7927 -0.0404
   76MOL0     H 9970  10.003   6.906   4.221  0.3030  1.1042 -1.0764
   76MOL0     H 9971   9.776   6.853   4.314  2.0126  0.3488 -2.0761
   76MOL0     H 9972   9.781   7.024   4.244  0.0708  0.7304 -0.3234
   76MOL0     H 9973   9.812   7.099   4.476  1.9129  1.4687 -7.3586
   76MOL0     H 9974   9.770   6.919   4.526 -0.0723 -1.9030 -2.4714
   76MOL0     H 9975   9.576   7.075   4.357 -2.1432 -4.0352 -1.6264
   76MOL0     H 9976   9.564   6.932   4.459  1.1252 -0.4548  0.3471
   76MOL0     H 9977   9.586   7.222   4.555 -0.2399  1.1691  3.0291
   76MOL0     H 9978   9.615   7.088   4.662 -2.0976 -0.0034  1.3982
   76MOL0     H 9979   9.389   6.994   4.620  1.1296 -1.1361 -0.5792
   76MOL0     H 9980   9.377   7.097   4.482 -0.9509 -0.7886  0.8367
   76MOL0     H 9981   9.357   7.198   4.757 -1.2934  0.5370 -0.2043
   76MOL0     H 9982   9.374   7.302   4.608 -0.0135 -0.0691  0.2350
   76MOL0     H 9983   9.161   7.214   4.528  3.6779 -1.3219 -1.2526
   76MOL0     H 9984   9.147   7.280   4.691  1.3470  1.0358 -1.3913
   76MOL0     H 9985   8.934   7.065   4.593  1.8712  0.5461 -0.4355
   76MOL0     H 9986   8.857   6.766   4.845 -0.2227 -0.2983  0.9648
   76MOL0     H 9987   8.803   6.818   4.679 -0.4336  0.1306  0.2898
   76MOL0     H 9988   8.691   7.024   4.765  0.9474 -1.1732 -0.3026
   76MOL0     H 9989   8.776   7.010   4.913 -1.5021  1.4203  0.2116
   76MOL0     H 9990   8.569   6.808   4.823 -0.6152  0.2629 -0.7291
   76MOL0     H 9991   8.652   6.801   4.968 -0.6284  0.8363  0.1078
   76MOL0     H 9992   8.502   7.059   4.892 -2.6711 -0.8408 -0.6456
   76MOL0     H 9993   8.544   7.018   5.052 -2.8778 -0.9336  2.1222
   76MOL0     H 9994   8.150   6.805   5.013 -1.2878  0.4741 -0.9574
   76MOL0     H 9995   7.993   6.732   4.843 -0.6171  1.3324  0.3614
   76MOL0     H 9996   7.872   6.586   4.367 -2.7789 -0.9322 -1.2202
   76MOL0     H 9997   7.696   6.592   4.201  1.4397  0.3419  0.9429
   76MOL0     H 9998   7.751   6.937   3.900 -1.1084  0.0235 -1.2688
   76MOL0     H 9999   7.585   6.930   3.910 -0.8628 -0.5939 -1.7472
   76MOL0     H10000   7.701   6.835   3.699 -0.5648  0.5508 -0.2934
   76MOL0     H10001   7.610   6.703   3.774 -0.5316  0.0415  1.3097
   76MOL0     H10002   7.809   6.607   3.884 -0.9300 -0.1788 -1.8353
   76MOL0     H10003   7.911   6.723   3.817 -1.5139  2.4834  1.8954
   76MOL0     H10004   7.741   6.514   3.684  1.4248 -0.8403 -1.3356
   76MOL0     H10005   7.813   6.638   3.575 -3.0222  1.3340  0.3129
   76MOL0     H10006   7.932   6.420   3.624  0.1769  0.7108  1.6561
   76MOL0     H10007   8.011   6.507   3.761  0.1322  2.9643  1.1131
   76MOL0     H10008   8.016   6.613   3.468  1.5916 -0.0323 -0.2491
   76MOL0     H10009   8.122   6.490   3.534 -1.0029 -1.0897 -0.3333
   76MOL0     H10010   8.103   6.780   3.596  0.5622 -0.2428  0.4131
   76MOL0     H10011   8.174   6.683   3.724  0.4053  3.4641  0.0757
   76MOL0     H10012   8.327   6.786   3.548  0.7132  0.5771 -1.0301
   76MOL0     H10013   8.274   6.665   3.432 -0.3301 -2.8150  1.5020
   76MOL0     H10014   7.786   6.994   4.105 -3.3513  0.0490  0.8233
   76MOL0     H10015   7.959   6.988   4.293 -2.0659  0.3321  0.3390
   76MOL0     H10016   8.243   6.896   4.542 -1.6629  1.5123  0.3313
   76MOL0     H10017   8.416   6.943   4.726  0.9560 -2.3738  0.4541
   76MOL0     H10018  10.233   6.954   4.352 -2.1681  0.5468  0.8581
   76MOL0     H10019  10.455   7.057   4.362 -0.0521  0.4937  1.0954
   76MOL0     H10020  10.769   7.465   4.046 -2.2185 -2.6069 -0.2957
   76MOL0     H10021  11.017   7.490   4.095  1.5559  0.7971  1.7409
   76MOL0     H10022  11.160   7.190   4.388 -5.4230  1.7616 -1.0849
   76MOL0     H10023  11.158   7.324   4.504  0.4200  0.5335  0.9040
   76MOL0     H10024  11.405   7.287   4.317 -1.2604  0.1206 -0.3342
   76MOL0     H10025  11.376   7.408   4.434 -1.0946  1.1403 -1.3830
   76MOL0     H10026  11.344   7.129   4.541  2.0740 -1.0891  2.1988
   76MOL0     H10027  11.428   7.270   4.615  0.3374 -1.2177  0.5458
   76MOL0     H10028  11.514   7.093   4.384  3.5406  1.5774 -1.6702
   76MOL0     H10029  11.607   7.222   4.442  0.0575 -1.0235 -1.6194
   76MOL0     H10030  11.613   6.904   4.739 -0.4928 -0.2301 -0.8035
   76MOL0     H10031  10.938   7.265   4.462  0.1262 -3.2232 -1.8401
   76MOL0     H10032  10.721   7.262   4.427  0.1696 -0.1352 -0.0621
   77MOL0     O10033   1.507   5.175  10.902 -0.0175 -0.4264  0.2520
   77MOL0     C10034   1.590   5.238  10.956  0.0064 -0.7292  0.0075
   77MOL0     O10035   1.727   5.213  10.948 -0.0953 -0.2898 -0.3855
   77MOL0     C10036   1.749   5.113  10.856  0.1354  0.6852 -0.3570
   77MOL0     C10037   1.698   4.986  10.854  0.0643  0.8466 -1.4890
   77MOL0     C10038   1.743   4.884  10.763 -0.5346  0.2465  0.2468
   77MOL0     C10039   1.816   4.927  10.651  0.0071  0.9513  0.0685
   77MOL0     O10040   1.866   4.839  10.554 -0.9103 -0.4199 -0.6037
   77MOL0     C10041   1.837   4.694  10.587 -0.2754 -0.0358  0.3092
   77MOL0     C10042   1.932   4.624  10.483  0.9345 -0.0736 -0.0700
   77MOL0     C10043   1.884   4.487  10.444  0.0004  0.1376  0.6610
   77MOL0     C10044   1.974   4.437  10.342  0.0933  0.6774  0.2002
   77MOL0     C10045   1.928   4.310  10.266 -0.1784  0.0190 -0.2485
   77MOL0     C10046   1.885   4.189  10.348 -1.0191  0.2159 -0.5693
   77MOL0     C10047   1.857   4.073  10.253  0.1223  0.1229 -0.4930
   77MOL0     C10048   1.717   4.047  10.205  0.7028  0.3379  0.3225
   77MOL0     N10049   1.712   3.921  10.122 -0.0953  0.0608 -0.6679
   77MOL0     C10050   1.642   3.808  10.136 -0.3378  0.4177  0.6097
   77MOL0     C10051   1.692   3.730  10.034  0.1150  1.2813 -1.4082
   77MOL0     C10052   1.649   3.590  10.005  0.1752  0.0182 -0.5292
   77MOL0     C10053   1.523   3.576   9.928 -0.5190 -0.0409  0.0584
   77MOL0     C10054   1.547   3.648   9.797 -0.0269  0.0459 -0.3388
   77MOL0     C10055   1.647   3.572   9.708  0.7240  0.1998 -0.9045
   77MOL0     O10056   1.616   3.435   9.689 -0.5555  0.6861  0.4434
   77MOL0     C10057   1.715   3.355   9.633 -0.2583  0.5705 -0.0746
   77MOL0     C10058   1.837   3.400   9.571 -0.3342 -0.3665  0.2608
   77MOL0     C10059   1.923   3.310   9.513  0.1059 -0.0935  0.2014
   77MOL0     C10060   1.887   3.180   9.496  0.3601  0.0233  0.4042
   77MOL0     C10061   1.970   3.086   9.424 -0.1573  1.1740 -0.0714
   77MOL0     O10062   2.066   3.136   9.340 -0.8143 -0.3992 -0.4697
   77MOL0     C10063   2.173   3.057   9.302  0.7582  0.4370  0.2673
   77MOL0     C10064   2.284   3.128   9.253  0.6337  0.7053  0.4692
   77MOL0     C10065   2.399   3.061   9.206  0.0330  0.3507 -0.2226
   77MOL0     C10066   2.398   2.918   9.200  0.8148 -1.0139 -0.1315
   77MOL0     O10067   2.484   2.835   9.128 -0.9239  0.2699  0.6981
   77MOL0     C10068   2.600   2.898   9.068  0.6722  0.0753 -0.8257
   77MOL0     C10069   2.696   2.785   9.039 -1.3441  0.5941  0.8987
   77MOL0     C10070   2.720   2.703   9.157  0.4867 -0.7381  0.4174
   77MOL0     C10071   2.836   2.608   9.142 -0.6421 -0.5409 -0.2468
   77MOL0     C10072   2.849   2.527   9.018 -0.3824  0.3926  0.9303
   77MOL0     C10073   2.958   2.412   9.042  0.7561  0.3169 -0.4594
   77MOL0     C10074   2.911   2.307   9.148  0.3677  0.8647  0.5552
   77MOL0     C10075   3.037   2.217   9.179 -0.4490  0.3387  0.5872
   77MOL0    Cl10076   3.048   2.098   9.039  0.0031  0.5902 -0.8455
   77MOL0     C10077   2.287   2.853   9.246 -0.7717  0.1219 -0.1035
   77MOL0     C10078   2.176   2.917   9.298  0.1587  0.6013  0.3415
   77MOL0     O10079   1.950   2.971   9.462 -0.9162  0.6642  1.1273
   77MOL0     C10080   1.769   3.136   9.555 -0.2427  0.6856 -0.6938
   77MOL0     C10081   1.684   3.216   9.626  0.3881 -1.0462  0.3644
   77MOL0     N10082   1.767   3.809   9.952 -0.4429 -1.3602 -0.0507
   77MOL0     N10083   1.765   3.931   9.999 -0.3759  0.2324 -0.8303
   77MOL0     C10084   1.860   5.059  10.651 -0.5189 -0.3163 -0.6249
   77MOL0     C10085   1.831   5.152  10.755  0.3839  1.0025  0.3920
   77MOL0     C10086   1.541   5.352  11.039  0.9347 -0.7421 -0.0318
   77MOL0     C10087   1.403   5.361  11.082 -0.2190 -0.0674  0.4074
   77MOL0     C10088   1.368   5.487  11.141  0.8865  0.6127  0.0810
   77MOL0     C10089   1.462   5.578  11.191  0.6553  1.2580 -0.5848
   77MOL0     O10090   1.400   5.684  11.253  0.0692 -0.8415  0.1148
   77MOL0     C10091   1.466   5.758  11.359 -0.4635  0.9004 -0.0119
   77MOL0     C10092   1.429   5.712  11.500  0.0709 -0.1166 -0.0798
   77MOL0     C10093   1.282   5.744  11.534 -0.2975  0.4604  0.5635
   77MOL0     C10094   1.183   5.639  11.480  0.9651 -0.2453 -0.0711
   77MOL0     C10095   1.044   5.674  11.532  0.6070  1.0218  0.4609
   77MOL0     C10096   0.932   5.701  11.556 -0.2655 -0.3944  0.4723
   77MOL0     C10097   1.603   5.552  11.175  0.2161  0.1976  0.8779
   77MOL0     C10098   1.633   5.438  11.091  0.2262  0.3647 -0.5272
   77MOL0     H10099   1.645   4.955  10.943 -0.6506  1.8202 -1.5649
   77MOL0     H10100   1.711   4.782  10.782 -2.8211  1.1534  1.8223
   77MOL0     H10101   1.736   4.658  10.566 -0.0454  0.3597 -1.6644
   77MOL0     H10102   1.872   4.667  10.687 -0.5766 -0.8047  0.2169
   77MOL0     H10103   2.025   4.601  10.536 -0.1971 -1.8945  1.2936
   77MOL0     H10104   1.944   4.691  10.397 -0.0328 -1.8654 -1.6850
   77MOL0     H10105   1.788   4.506  10.394 -0.1037  1.1168  1.1975
   77MOL0     H10106   1.875   4.415  10.526  1.1004 -1.3318 -0.4717
   77MOL0     H10107   2.006   4.520  10.278  1.2590  1.7193  2.0331
   77MOL0     H10108   2.068   4.404  10.387  0.4603  0.7443 -0.5187
   77MOL0     H10109   1.996   4.269  10.191 -0.4924 -0.3187 -0.3574
   77MOL0     H10110   1.844   4.343  10.203  0.7667 -2.6545 -3.1814
   77MOL0     H10111   1.814   4.199  10.431  2.7999 -1.7253  3.3409
   77MOL0     H10112   1.969   4.162  10.413  0.2795  2.7471 -1.0384
   77MOL0     H10113   1.923   4.060  10.167  1.1441  2.1774 -0.0892
   77MOL0     H10114   1.892   3.988  10.312 -1.7901 -0.7876 -0.6137
   77MOL0     H10115   1.699   4.139  10.149  1.4452  1.5674  2.0353
   77MOL0     H10116   1.642   4.046  10.284 -0.1435 -0.2148 -0.4580
   77MOL0     H10117   1.565   3.785  10.209  0.0052  0.4563  0.9893
   77MOL0     H10118   1.630   3.528  10.094 -2.1069 -1.1526 -1.7456
   77MOL0     H10119   1.725   3.531   9.953 -0.4659 -1.6190  0.2782
   77MOL0     H10120   1.438   3.631   9.970  0.1834 -0.1152  1.6479
   77MOL0     H10121   1.496   3.475   9.895  0.5201 -0.6130  0.8852
   77MOL0     H10122   1.463   3.667   9.730 -1.6493  3.7527  2.3858
   77MOL0     H10123   1.584   3.750   9.812  1.3116 -0.2674 -1.3227
   77MOL0     H10124   1.746   3.591   9.749 -0.8711  3.7265  1.8848
   77MOL0     H10125   1.648   3.617   9.609 -3.7698  0.2314 -1.1779
   77MOL0     H10126   1.860   3.506   9.580 -3.4038  0.4358 -0.1101
   77MOL0     H10127   2.015   3.355   9.480  0.3187 -1.3853 -1.0359
   77MOL0     H10128   2.282   3.236   9.261  2.1474  0.7902 -0.0657
   77MOL0     H10129   2.475   3.124   9.163 -0.2723  2.5646  2.1919
   77MOL0     H10130   2.651   2.977   9.124 -1.5894  2.2613 -1.6501
   77MOL0     H10131   2.563   2.938   8.973 -4.1213 -3.4096 -0.8132
   77MOL0     H10132   2.787   2.828   8.997 -1.1782 -0.6233 -0.0483
   77MOL0     H10133   2.645   2.717   8.970 -1.4537  0.4855  1.0861
   77MOL0     H10134   2.635   2.636   9.163 -2.4822  2.6654  0.0303
   77MOL0     H10135   2.740   2.765   9.245  1.4318 -1.4140  0.6944
   77MOL0     H10136   2.927   2.667   9.155 -0.9373 -0.0073 -0.5423
   77MOL0     H10137   2.834   2.546   9.231  0.3834 -0.6384 -0.2793
   77MOL0     H10138   2.890   2.582   8.933 -1.5997  1.1703  0.8229
   77MOL0     H10139   2.756   2.474   8.994  0.9774 -1.3812 -0.6985
   77MOL0     H10140   3.046   2.466   9.077  0.3468  0.4467  0.3998
   77MOL0     H10141   2.989   2.368   8.947  2.5895  2.3509 -0.8776
   77MOL0     H10142   2.888   2.352   9.245 -1.0193 -1.7750  1.5523
   77MOL0     H10143   2.822   2.257   9.109  3.0499 -2.6732 -1.6056
   77MOL0     H10144   3.028   2.156   9.269  1.9860  0.0058  0.6764
   77MOL0     H10145   3.134   2.266   9.186  0.6942 -1.4029 -1.7104
   77MOL0     H10146   2.300   2.747   9.232  0.8919  0.1123  1.1975
   77MOL0     H10147   2.091   2.853   9.323  0.5236 -0.1179 -0.2018
   77MOL0     H10148   1.730   3.035   9.556 -0.7872  0.8226  2.8952
   77MOL0     H10149   1.589   3.178   9.662 -0.5136  1.1258  0.4709
   77MOL0     H10150   1.922   5.076  10.563 -1.7923  2.0011 -1.1414
   77MOL0     H10151   1.867   5.254  10.751  1.2690  0.6606 -1.8273
   77MOL0     H10152   1.330   5.286  11.054 -0.0516  0.8673 -3.1024
   77MOL0     H10153   1.265   5.513  11.162  0.1181  0.7849 -3.4499
   77MOL0     H10154   1.443   5.865  11.356 -3.0235  0.4260  0.1308
   77MOL0     H10155   1.572   5.735  11.351 -0.9771 -2.1570  0.6878
   77MOL0     H10156   1.451   5.605  11.512  0.9361 -0.0525 -0.9867
   77MOL0     H10157   1.500   5.766  11.563 -0.1884  1.1615 -0.8506
   77MOL0     H10158   1.244   5.841  11.501  2.5639  0.0600 -5.0925
   77MOL0     H10159   1.280   5.738  11.643 -4.8601  2.3702  0.7739
   77MOL0     H10160   1.175   5.643  11.371 -2.2559 -1.1095  0.0251
   77MOL0     H10161   1.206   5.534  11.501  2.2258 -0.2893 -1.5838
   77MOL0     H10162   0.840   5.740  11.594  0.4421 -0.1637  2.0178
   77MOL0     H10163   1.682   5.618  11.210  1.3797 -1.0196  0.6095
   77MOL0     H10164   1.740   5.431  11.070 -0.2683 -0.4427 -3.1529
   78MOL0     O10165   0.478   8.242   8.296 -0.6268  0.5771  0.1941
   78MOL0     C10166   0.355   8.251   8.299  0.3114  0.1325  0.2452
   78MOL0     O10167   0.296   8.368   8.332 -0.2390  0.7886 -0.3217
   78MOL0     C10168   0.373   8.470   8.371  0.6387  0.3921  0.6444
   78MOL0     C10169   0.431   8.473   8.504 -0.5899 -0.2292 -0.1391
   78MOL0     C10170   0.510   8.583   8.547  0.0018  0.0837  0.1400
   78MOL0     C10171   0.537   8.689   8.459  0.0058  0.5163  0.1231
   78MOL0     O10172   0.628   8.795   8.474 -0.0747  1.0940 -0.6637
   78MOL0     C10173   0.650   8.845   8.606  0.2430 -0.3354 -0.3271
   78MOL0     C10174   0.756   8.954   8.596 -0.6193 -0.8581  0.0869
   78MOL0     C10175   0.780   9.020   8.733  0.9888  0.4110  0.0018
   78MOL0     C10176   0.817   9.164   8.718  0.1393 -1.0221  0.6212
   78MOL0     C10177   0.867   9.213   8.852  0.2777 -0.4018 -0.4364
   78MOL0     C10178   0.915   9.361   8.852  1.1042  0.1390  0.6877
   78MOL0     C10179   1.036   9.398   8.761  0.9703  0.5040 -1.0940
   78MOL0     C10180   1.173   9.323   8.799 -0.6378  0.0450 -0.0330
   78MOL0     N10181   1.257   9.384   8.903 -0.1678 -0.8333  0.2455
   78MOL0     C10182   1.236   9.349   9.032  0.3074 -0.4750  0.7635
   78MOL0     C10183   1.302   9.441   9.113  0.1617 -0.5508  0.9057
   78MOL0     C10184   1.313   9.454   9.254  0.2405 -0.7792 -0.9672
   78MOL0     C10185   1.175   9.511   9.303 -0.6481  0.7311  1.0054
   78MOL0     C10186   1.179   9.555   9.449  0.3564 -0.1559 -0.9670
   78MOL0     C10187   1.045   9.583   9.502  0.6978 -0.4564 -0.2923
   78MOL0     O10188   0.990   9.689   9.423  0.1737 -0.6402 -0.2690
   78MOL0     C10189   0.850   9.713   9.424  1.1510 -0.6039  1.2972
   78MOL0     C10190   0.749   9.636   9.491  0.0816  0.0326  0.0395
   78MOL0     C10191   0.610   9.682   9.499  0.5148 -1.2998  0.1876
   78MOL0     C10192   0.570   9.802   9.432  0.5663 -0.0522 -0.4185
   78MOL0     C10193   0.431   9.839   9.413  0.7157 -0.2432 -0.8080
   78MOL0     O10194   0.403   9.889   9.288  0.2513  0.3432 -0.1976
   78MOL0     C10195   0.280   9.941   9.259  0.6294  0.4470  0.3449
   78MOL0     C10196   0.278  10.013   9.138  0.6806  1.2172 -0.4982
   78MOL0     C10197   0.167  10.085   9.084  1.1163 -0.2775 -0.5381
   78MOL0     C10198   0.038  10.073   9.157  0.3698 -0.7459 -0.6000
   78MOL0     O10199  -0.086  10.108   9.114 -0.2288 -0.8261 -0.0588
   78MOL0     C10200  -0.101  10.205   9.003 -0.0340 -1.0760  0.0352
   78MOL0     C10201  -0.228  10.169   8.926 -0.6022 -1.1815  0.6492
   78MOL0     C10202  -0.199  10.083   8.803 -0.2670  0.8927 -1.3079
   78MOL0     C10203  -0.317  10.020   8.748 -0.8163  0.3313  0.0428
   78MOL0     C10204  -0.439  10.112   8.735 -0.0663  0.5927  0.5011
   78MOL0     C10205  -0.428  10.223   8.641 -0.5400 -0.0322 -0.7197
   78MOL0     C10206  -0.556  10.307   8.633  0.2618 -0.8563 -0.0438
   78MOL0     C10207  -0.534  10.440   8.584  0.4672 -0.5453 -0.2939
   78MOL0    Cl10208  -0.430  10.420   8.442  0.1305 -0.0841  0.8460
   78MOL0     C10209   0.037  10.007   9.281  0.1541 -0.8960  0.2547
   78MOL0     C10210   0.164   9.944   9.333  0.4921 -0.1440  0.3624
   78MOL0     O10211   0.358   9.824   9.509 -0.1728  0.4959  0.3696
   78MOL0     C10212   0.678   9.870   9.365 -0.4772 -0.3811 -0.9075
   78MOL0     C10213   0.804   9.821   9.345 -1.4315 -0.2291 -0.5417
   78MOL0     N10214   1.356   9.524   9.028 -0.5394  0.2258 -0.5767
   78MOL0     N10215   1.336   9.498   8.906 -0.1171  0.4179  0.4219
   78MOL0     C10216   0.466   8.694   8.335  1.4602 -0.0319 -0.3519
   78MOL0     C10217   0.393   8.581   8.293  0.6744  0.6237  0.2950
   78MOL0     C10218   0.270   8.139   8.242 -0.1223 -0.0791  0.6867
   78MOL0     C10219   0.318   8.004   8.236  0.4896 -0.4391  0.3185
   78MOL0     C10220   0.248   7.901   8.167  0.1113 -0.4435 -0.5501
   78MOL0     C10221   0.118   7.934   8.127 -0.4617  0.8750  0.2642
   78MOL0     O10222   0.039   7.836   8.067 -0.5033  0.0678 -0.1706
   78MOL0     C10223  -0.074   7.872   7.990  0.4456  0.0036  0.5790
   78MOL0     C10224  -0.137   7.735   7.933 -0.8189 -0.8259 -0.1396
   78MOL0     C10225  -0.282   7.740   7.884  0.2885  0.5392 -0.6090
   78MOL0     C10226  -0.319   7.837   7.772  0.0445 -0.3517  0.3417
   78MOL0     C10227  -0.223   7.827   7.656 -0.8281  0.4854 -0.2637
   78MOL0     C10228  -0.143   7.834   7.558 -0.4405  0.9925 -0.7063
   78MOL0     C10229   0.075   8.068   8.130 -0.4536  0.1711  0.5110
   78MOL0     C10230   0.151   8.170   8.178 -0.0131  0.1314  0.2818
   78MOL0     H10231   0.416   8.386   8.568  0.4241 -0.4157 -0.1362
   78MOL0     H10232   0.561   8.584   8.643  1.2349  1.6109 -0.4759
   78MOL0     H10233   0.678   8.768   8.678 -1.3708  1.7916  2.8129
   78MOL0     H10234   0.557   8.883   8.649  2.2637  0.5969  3.7926
   78MOL0     H10235   0.719   9.034   8.530 -0.2542  2.3188  3.4393
   78MOL0     H10236   0.854   8.917   8.565 -0.0455 -0.5257  1.4484
   78MOL0     H10237   0.842   8.949   8.788 -0.9914 -2.8935 -1.7104
   78MOL0     H10238   0.686   9.028   8.789  1.8829  3.4523  1.2978
   78MOL0     H10239   0.900   9.172   8.647  1.1235 -0.8668  1.7504
   78MOL0     H10240   0.732   9.225   8.686  1.0382  0.8756  1.7272
   78MOL0     H10241   0.951   9.152   8.886  0.3594 -1.0022 -1.6418
   78MOL0     H10242   0.787   9.209   8.927  0.7997  3.4702  0.5665
   78MOL0     H10243   0.950   9.382   8.954  2.0485 -0.8104  0.5757
   78MOL0     H10244   0.828   9.419   8.819  1.2802  0.0216  0.0048
   78MOL0     H10245   1.008   9.369   8.659 -1.8890  0.8638 -0.4794
   78MOL0     H10246   1.058   9.505   8.756 -1.5173  1.0162 -3.2915
   78MOL0     H10247   1.235   9.321   8.708 -0.5995 -1.3258  0.0045
   78MOL0     H10248   1.170   9.215   8.815  0.8899  0.2491  1.9903
   78MOL0     H10249   1.171   9.267   9.060 -1.1424 -0.3685 -1.8852
   78MOL0     H10250   1.394   9.514   9.295  1.9076 -1.4633 -3.0858
   78MOL0     H10251   1.323   9.356   9.303 -2.1818 -2.3422 -3.2717
   78MOL0     H10252   1.113   9.421   9.300  0.3376  0.0300 -2.3164
   78MOL0     H10253   1.146   9.597   9.242  0.3116  0.4494  0.1441
   78MOL0     H10254   1.230   9.479   9.510 -2.2060 -0.5901  0.8012
   78MOL0     H10255   1.229   9.649   9.471 -1.8205  0.8741 -0.1878
   78MOL0     H10256   1.057   9.631   9.599  2.8426  0.2848 -0.8854
   78MOL0     H10257   0.980   9.497   9.522  2.2025 -1.0699  2.3605
   78MOL0     H10258   0.762   9.546   9.550 -0.5950 -1.5517 -2.0924
   78MOL0     H10259   0.537   9.622   9.552 -0.2127  1.2815  2.3756
   78MOL0     H10260   0.371  10.006   9.083 -0.7639  1.6914 -3.2104
   78MOL0     H10261   0.174  10.139   8.990  3.1936 -2.7619 -1.9240
   78MOL0     H10262  -0.012  10.217   8.941  1.0170 -0.1182  1.6718
   78MOL0     H10263  -0.119  10.301   9.052  2.0624 -0.9479  0.6271
   78MOL0     H10264  -0.289  10.250   8.887 -2.3861 -3.9552 -2.9158
   78MOL0     H10265  -0.298  10.114   8.990 -0.9806 -1.5423 -0.0719
   78MOL0     H10266  -0.142   9.993   8.825 -1.4474  0.0418 -1.6251
   78MOL0     H10267  -0.137  10.146   8.739 -0.7791  2.1992 -0.5567
   78MOL0     H10268  -0.288   9.975   8.653 -1.0298 -1.3446  0.7287
   78MOL0     H10269  -0.361   9.935   8.801  0.6299  1.0359  2.5069
   78MOL0     H10270  -0.473  10.146   8.833 -0.0569 -0.5287  0.8994
   78MOL0     H10271  -0.519  10.052   8.692 -0.5666 -0.6964  3.0648
   78MOL0     H10272  -0.416  10.180   8.541 -4.1228  2.9684 -2.6982
   78MOL0     H10273  -0.337  10.280   8.662 -0.2843 -1.0811  1.3267
   78MOL0     H10274  -0.615  10.265   8.551  4.0444 -2.3181 -2.2523
   78MOL0     H10275  -0.610  10.306   8.728  0.0737  2.7586  0.0415
   78MOL0     H10276  -0.473  10.496   8.656 -1.2048 -0.5750  1.2206
   78MOL0     H10277  -0.635  10.473   8.556 -0.4701 -3.1528 -0.2622
   78MOL0     H10278  -0.053   9.983   9.336 -1.7143 -4.9728 -3.8755
   78MOL0     H10279   0.153   9.892   9.428 -0.3578 -1.1606 -0.2673
   78MOL0     H10280   0.652   9.960   9.311  0.8667  1.4577  1.3655
   78MOL0     H10281   0.891   9.866   9.299 -0.3816 -0.7569  0.8633
   78MOL0     H10282   0.490   8.779   8.272 -0.8971 -0.9981 -2.7602
   78MOL0     H10283   0.347   8.576   8.195  2.5348 -0.6061 -0.5785
   78MOL0     H10284   0.408   7.969   8.286 -2.2238 -2.5396  4.2911
   78MOL0     H10285   0.294   7.808   8.136 -3.2689 -2.0708 -1.1218
   78MOL0     H10286  -0.063   7.941   7.906  1.3229  3.1770  3.0705
   78MOL0     H10287  -0.155   7.911   8.052 -0.1960 -0.9188  0.3356
   78MOL0     H10288  -0.065   7.713   7.854  0.6203  2.9020 -0.0722
   78MOL0     H10289  -0.127   7.652   8.004 -3.8741 -1.4980 -0.3432
   78MOL0     H10290  -0.350   7.760   7.967 -1.3531  3.5471 -2.4784
   78MOL0     H10291  -0.312   7.641   7.849  1.9347 -0.2295  0.0390
   78MOL0     H10292  -0.419   7.807   7.740 -1.0500  1.8783  1.4539
   78MOL0     H10293  -0.321   7.940   7.810  0.3077  0.0769 -0.7831
   78MOL0     H10294  -0.104   7.842   7.459  1.8978 -1.7634 -0.1417
   78MOL0     H10295  -0.020   8.098   8.087 -1.1465  2.2468  3.2582
   78MOL0     H10296   0.106   8.269   8.176 -4.4489 -1.6493 -2.2179
   79MOL0     O10297   0.358  11.012  10.979  0.2803  0.5551 -0.7124
   79MOL0     C10298   0.246  11.042  10.945  0.1555  0.0089  0.9235
   79MOL0     O10299   0.197  11.032  10.819  0.6606 -0.0339  0.0433
   79MOL0     C10300   0.262  10.964  10.715  1.2150  0.2508 -1.0514
   79MOL0     C10301   0.255  11.003  10.584  0.2775 -0.8221  0.7445
   79MOL0     C10302   0.331  10.942  10.482 -0.4593 -0.8256  0.2942
   79MOL0     C10303   0.432  10.848  10.517 -0.0834  0.4915  0.1503
   79MOL0     O10304   0.512  10.785  10.427  0.4795 -0.2730 -0.2977
   79MOL0     C10305   0.605  10.851  10.344 -0.4904 -0.9682 -0.0272
   79MOL0     C10306   0.715  10.766  10.279  0.6982  0.5657 -0.3783
   79MOL0     C10307   0.776  10.655  10.370 -0.1927 -0.6008  0.5822
   79MOL0     C10308   0.901  10.609  10.302 -0.4819 -0.1049 -0.5125
   79MOL0     C10309   0.986  10.506  10.391  0.0011  0.3305  0.2630
   79MOL0     C10310   1.072  10.415  10.291  0.4491 -0.4376  0.5049
   79MOL0     C10311   1.193  10.497  10.241  0.0789  0.3528 -0.6911
   79MOL0     C10312   1.286  10.394  10.181 -0.0640  0.2102 -0.3588
   79MOL0     N10313   1.411  10.472  10.150  0.0688  0.5599 -0.1984
   79MOL0     C10314   1.537  10.449  10.194 -0.8352 -0.7422 -0.5621
   79MOL0     C10315   1.616  10.537  10.127 -0.2468  1.4125  0.3445
   79MOL0     C10316   1.758  10.541  10.122  0.9096  0.0296 -0.6183
   79MOL0     C10317   1.830  10.504  10.248 -0.3447 -0.2082  0.8346
   79MOL0     C10318   1.976  10.567  10.252  0.4289  0.1765 -0.1575
   79MOL0     C10319   2.071  10.519  10.142 -0.3677 -0.1019 -0.1846
   79MOL0     O10320   2.077  10.379  10.133  0.6199  0.0522  0.0139
   79MOL0     C10321   2.158  10.336  10.029 -0.2238  0.1148 -1.2680
   79MOL0     C10322   2.269  10.262  10.066  1.0012 -0.1742  0.2206
   79MOL0     C10323   2.366  10.198   9.980  0.2093 -0.3114  0.2690
   79MOL0     C10324   2.336  10.213   9.838 -0.4908  0.5229  0.0721
   79MOL0     C10325   2.430  10.147   9.736  0.0108  0.8602  0.8461
   79MOL0     O10326   2.421  10.181   9.598  0.0291 -1.0443  0.6357
   79MOL0     C10327   2.476  10.100   9.504 -0.8660 -0.4126 -0.1133
   79MOL0     C10328   2.547  10.178   9.412  0.2639 -1.0514  0.2378
   79MOL0     C10329   2.591  10.115   9.284 -0.2877 -0.7825 -0.9676
   79MOL0     C10330   2.565   9.981   9.268 -0.5938 -0.6480  0.3458
   79MOL0     O10331   2.600   9.931   9.143 -0.3913 -0.7196 -0.9525
   79MOL0     C10332   2.639   9.800   9.113 -0.9678 -0.6840 -0.3173
   79MOL0     C10333   2.710   9.798   8.977 -0.9436  0.2260 -0.7826
   79MOL0     C10334   2.770   9.666   8.933 -0.4452  0.9796  0.0145
   79MOL0     C10335   2.869   9.693   8.810 -0.0283 -0.4548  0.1196
   79MOL0     C10336   2.887   9.573   8.732 -0.0927 -0.1260  0.2269
   79MOL0     C10337   2.964   9.580   8.593 -0.4190 -0.2749 -0.3050
   79MOL0     C10338   3.080   9.677   8.608 -0.3362 -0.0206 -0.1959
   79MOL0     C10339   3.172   9.687   8.500  0.0888  0.1055 -0.7305
   79MOL0    Cl10340   3.137   9.806   8.381  0.0708  0.0327  0.0098
   79MOL0     C10341   2.497   9.906   9.363 -0.1792 -0.7234 -0.7609
   79MOL0     C10342   2.445   9.963   9.482  0.2674  0.6962  0.4246
   79MOL0     O10343   2.499  10.056   9.781  0.5327 -0.3090 -0.1609
   79MOL0     C10344   2.231  10.295   9.795  1.1976  0.0742  0.5859
   79MOL0     C10345   2.148  10.361   9.895 -0.1294  0.1458 -0.3425
   79MOL0     N10346   1.541  10.610  10.038  0.3438  0.4165  0.0321
   79MOL0     N10347   1.424  10.570  10.059  0.0463 -0.0243  0.3514
   79MOL0     C10348   0.429  10.791  10.650  0.1679 -1.4380  0.3278
   79MOL0     C10349   0.344  10.857  10.741 -0.4632  0.1601 -0.7484
   79MOL0     C10350   0.163  11.108  11.055 -1.0090  0.8420 -1.0032
   79MOL0     C10351   0.217  11.123  11.183  0.0617 -0.3986 -0.2788
   79MOL0     C10352   0.133  11.171  11.284  0.0030 -0.3577 -0.4906
   79MOL0     C10353   0.003  11.216  11.256 -0.7160  0.7269 -0.0405
   79MOL0     O10354  -0.077  11.258  11.356  0.0996  0.5071 -0.0942
   79MOL0     C10355  -0.220  11.246  11.344 -0.7813 -0.5850  0.4367
   79MOL0     C10356  -0.273  11.324  11.464  0.3641  0.2528 -0.1279
   79MOL0     C10357  -0.256  11.476  11.454 -0.1740 -0.5219  0.1312
   79MOL0     C10358  -0.351  11.548  11.533  1.0577 -0.2892 -0.7467
   79MOL0     C10359  -0.342  11.510  11.673 -0.1556  0.5125  0.4304
   79MOL0     C10360  -0.326  11.489  11.793 -0.3920  0.5352  0.7098
   79MOL0     C10361  -0.045  11.210  11.118 -1.1169  0.4395  0.1894
   79MOL0     C10362   0.038  11.158  11.025 -0.2699 -0.9936 -0.6080
   79MOL0     H10363   0.205  11.094  10.553  1.7310 -0.5566 -1.0350
   79MOL0     H10364   0.324  10.969  10.377 -4.6713  1.3043  0.9281
   79MOL0     H10365   0.660  10.922  10.407 -2.3437  1.0724 -0.5969
   79MOL0     H10366   0.558  10.904  10.260 -0.0033 -3.3406 -1.9171
   79MOL0     H10367   0.791  10.837  10.245  0.8974  1.2549  1.3841
   79MOL0     H10368   0.672  10.714  10.193  0.2261 -1.2372  0.8752
   79MOL0     H10369   0.712  10.571  10.400 -1.8068  0.7629  1.0949
   79MOL0     H10370   0.812  10.709  10.457  0.3137  1.2392 -0.7094
   79MOL0     H10371   0.873  10.593  10.198  1.1782  2.1181 -1.3919
   79MOL0     H10372   0.972  10.692  10.294 -3.8972  3.7293  3.4525
   79MOL0     H10373   0.922  10.444  10.455  4.3171 -3.4965  1.3479
   79MOL0     H10374   1.049  10.564  10.458 -0.6700  0.4954  0.7558
   79MOL0     H10375   1.010  10.383  10.206 -0.6419 -0.8360  1.4333
   79MOL0     H10376   1.113  10.333  10.349 -2.7486 -0.7922  2.5127
   79MOL0     H10377   1.153  10.561  10.162 -2.8881 -1.1294 -0.5312
   79MOL0     H10378   1.235  10.551  10.326 -2.2825  2.2653 -0.6523
   79MOL0     H10379   1.240  10.352  10.091  0.4535 -1.5480  0.1548
   79MOL0     H10380   1.300  10.306  10.245  0.9381  0.1144 -0.6825
   79MOL0     H10381   1.592  10.374  10.251  1.7663 -0.4561 -2.5118
   79MOL0     H10382   1.793  10.641  10.092 -0.6999  0.9166  0.3547
   79MOL0     H10383   1.782  10.463  10.049  0.2480 -4.8322  3.7799
   79MOL0     H10384   1.847  10.396  10.255  0.0208 -0.1099  1.6538
   79MOL0     H10385   1.777  10.535  10.338 -0.1443 -1.1888  1.3058
   79MOL0     H10386   1.965  10.676  10.255 -0.5748  0.0776  1.6831
   79MOL0     H10387   2.026  10.539  10.345  0.0732  0.1850  0.0409
   79MOL0     H10388   2.172  10.555  10.164  0.4280 -0.7718 -2.4251
   79MOL0     H10389   2.046  10.563  10.045  1.3193  0.0243 -0.6023
   79MOL0     H10390   2.278  10.239  10.172  2.0347  4.2275  1.2794
   79MOL0     H10391   2.450  10.147  10.026  1.3096  1.1218 -0.0525
   79MOL0     H10392   2.562  10.283   9.432  2.1670 -1.7450  2.9525
   79MOL0     H10393   2.624  10.179   9.203  0.1395  1.4587  0.8572
   79MOL0     H10394   2.547   9.743   9.121 -1.4102  0.2898  3.6037
   79MOL0     H10395   2.716   9.771   9.186 -0.4031  1.0359 -0.1886
   79MOL0     H10396   2.795   9.866   8.975 -1.8893  1.4378 -2.3970
   79MOL0     H10397   2.636   9.830   8.903  0.0127  0.0219 -1.8527
   79MOL0     H10398   2.693   9.593   8.904 -1.6447  1.4665  1.8227
   79MOL0     H10399   2.817   9.631   9.025 -0.6216  1.1427  0.1663
   79MOL0     H10400   2.838   9.781   8.753  3.1786  1.5879  1.2515
   79MOL0     H10401   2.967   9.726   8.846 -0.0931 -0.5167  0.3562
   79MOL0     H10402   2.791   9.534   8.698  1.1572 -2.5683 -0.7387
   79MOL0     H10403   2.941   9.498   8.791  0.0284  0.8248  1.3613
   79MOL0     H10404   2.905   9.607   8.505 -0.4766  1.9316  0.3598
   79MOL0     H10405   3.004   9.478   8.583  0.4036  0.2292 -2.7687
   79MOL0     H10406   3.037   9.777   8.620  2.4867  1.3019 -0.3071
   79MOL0     H10407   3.135   9.653   8.700 -1.3120  0.8559  0.6473
   79MOL0     H10408   3.183   9.582   8.472  1.3172 -0.5909  2.0634
   79MOL0     H10409   3.273   9.712   8.532 -0.1019 -0.5628  0.4219
   79MOL0     H10410   2.477   9.804   9.333  2.4292 -0.0570 -5.7830
   79MOL0     H10411   2.385   9.910   9.555 -0.9041  0.5107 -0.6267
   79MOL0     H10412   2.203  10.293   9.690 -0.1272 -0.8393  0.9296
   79MOL0     H10413   2.077  10.431   9.851 -3.1889 -1.3170  1.8559
   79MOL0     H10414   0.512  10.728  10.679  0.6900 -0.7403  0.3697
   79MOL0     H10415   0.376  10.820  10.838 -0.2837 -1.4616 -1.3911
   79MOL0     H10416   0.320  11.094  11.200 -1.3846 -4.5407  3.4963
   79MOL0     H10417   0.176  11.166  11.383 -1.5113  2.3275  0.3930
   79MOL0     H10418  -0.252  11.141  11.336 -0.1136 -0.6133 -3.5377
   79MOL0     H10419  -0.262  11.300  11.260 -0.4015 -3.5084 -1.7944
   79MOL0     H10420  -0.375  11.285  11.470  0.7572 -0.7527  0.3616
   79MOL0     H10421  -0.212  11.277  11.543  0.4523 -0.7878 -0.7899
   79MOL0     H10422  -0.285  11.500  11.351  0.6412  0.4304  0.1115
   79MOL0     H10423  -0.154  11.510  11.473 -0.3737  0.6902 -0.8642
   79MOL0     H10424  -0.344  11.657  11.521  1.7810 -0.4534 -1.9673
   79MOL0     H10425  -0.453  11.522  11.501 -0.4865 -0.8163  3.8465
   79MOL0     H10426  -0.310  11.465  11.897  0.4975 -3.2830 -0.1795
   79MOL0     H10427  -0.142  11.253  11.096 -1.0125  0.9010  0.6014
   79MOL0     H10428   0.013  11.149  10.919 -0.6594 -2.0724 -0.4428
   80MOL0     O10429   3.985   8.067   0.875 -1.0455  0.4369  0.0833
   80MOL0     C10430   4.088   8.003   0.844  0.1203  0.1764 -0.9120
   80MOL0     O10431   4.165   7.937   0.938  0.5357  0.4602  0.8975
   80MOL0     C10432   4.142   7.944   1.075  0.4685 -0.8288 -0.6606
   80MOL0     C10433   4.024   7.899   1.131  0.6239 -0.7303 -0.3145
   80MOL0     C10434   4.009   7.916   1.273  0.0139  1.0545  0.7605
   80MOL0     C10435   4.115   7.950   1.357 -0.6270 -0.5477  0.9027
   80MOL0     O10436   4.078   7.960   1.489 -0.2970  0.3431 -0.4782
   80MOL0     C10437   4.176   8.024   1.572 -0.1418 -0.0695 -0.0775
   80MOL0     C10438   4.104   8.109   1.672  0.5524 -0.3180 -0.4867
   80MOL0     C10439   4.191   8.124   1.801 -1.1308 -0.0958 -0.1266
   80MOL0     C10440   4.122   8.219   1.904 -0.2583 -0.1751  0.0506
   80MOL0     C10441   4.226   8.285   2.001  0.0284  0.3090  0.8037
   80MOL0     C10442   4.153   8.359   2.122  0.4295  0.3416  0.3419
   80MOL0     C10443   4.255   8.424   2.227 -0.3705  1.4174  0.3515
   80MOL0     C10444   4.184   8.475   2.350  0.0337  1.3135 -0.5451
   80MOL0     N10445   4.102   8.590   2.314 -0.3865 -1.0263  0.4562
   80MOL0     C10446   3.970   8.610   2.339  1.1162 -0.5182  0.7158
   80MOL0     C10447   3.938   8.729   2.282  0.2144 -0.2720  0.0996
   80MOL0     C10448   3.803   8.798   2.282  0.8021  0.0880 -0.8501
   80MOL0     C10449   3.781   8.882   2.158  0.0310  0.5620  0.3265
   80MOL0     C10450   3.786   8.796   2.036 -0.4274  0.6290 -0.9737
   80MOL0     C10451   3.716   8.854   1.910 -0.2673  0.8689  0.2499
   80MOL0     O10452   3.574   8.863   1.916  0.3994  0.5708 -0.1908
   80MOL0     C10453   3.519   8.945   1.818 -0.3768  1.2551  1.4853
   80MOL0     C10454   3.585   8.978   1.703 -0.4613 -0.0757  1.7011
   80MOL0     C10455   3.530   9.067   1.617  0.3649  0.0380 -0.1487
   80MOL0     C10456   3.400   9.125   1.631 -0.8273  0.7856 -0.6537
   80MOL0     C10457   3.343   9.209   1.534 -0.6687 -1.3883 -0.5773
   80MOL0     O10458   3.220   9.250   1.558 -0.0260 -0.1748 -0.5351
   80MOL0     C10459   3.163   9.362   1.497 -0.2676 -0.0072 -0.4396
   80MOL0     C10460   3.178   9.483   1.556  0.3849  0.7654  0.3537
   80MOL0     C10461   3.106   9.588   1.495 -0.6263 -0.0957 -0.1880
   80MOL0     C10462   3.048   9.571   1.368  1.1140 -0.7216  0.1802
   80MOL0     O10463   3.000   9.686   1.310 -0.4419  0.5939 -0.0574
   80MOL0     C10464   2.927   9.669   1.183 -0.2462 -0.2651  0.3652
   80MOL0     C10465   2.887   9.802   1.127  0.2895 -0.5560  0.3578
   80MOL0     C10466   2.993   9.864   1.028  0.0484  0.1370 -0.6162
   80MOL0     C10467   2.948  10.002   0.999  0.2863 -0.5422 -0.1086
   80MOL0     C10468   3.048  10.090   0.920  0.0800 -0.0703  0.4339
   80MOL0     C10469   3.097  10.033   0.779 -0.3553  0.4584 -0.9117
   80MOL0     C10470   3.176  10.133   0.697 -0.0430  0.4199  0.7172
   80MOL0     C10471   3.094  10.221   0.610  0.6227 -0.8039 -0.2578
   80MOL0    Cl10472   3.004  10.127   0.509  0.3453  0.0727 -0.2781
   80MOL0     C10473   3.044   9.446   1.302 -0.2420 -0.1138 -0.0099
   80MOL0     C10474   3.098   9.336   1.382 -0.1086  0.3581  0.7269
   80MOL0     O10475   3.403   9.228   1.428 -0.4884  0.0987 -0.6829
   80MOL0     C10476   3.337   9.086   1.749  0.0132 -0.2423 -0.3610
   80MOL0     C10477   3.392   8.993   1.828 -0.4451 -0.9334 -0.0878
   80MOL0     N10478   4.059   8.790   2.234  0.2134  0.4630  0.8725
   80MOL0     N10479   4.152   8.709   2.269  0.3318 -0.3920 -0.5031
   80MOL0     C10480   4.244   7.984   1.296  0.3865 -0.1997  0.6839
   80MOL0     C10481   4.252   7.977   1.157  0.1887  0.1442  0.0490
   80MOL0     C10482   4.127   8.006   0.705 -0.4466  0.6832  0.3536
   80MOL0     C10483   4.038   8.029   0.593  0.3689 -0.0395 -0.5570
   80MOL0     C10484   4.080   8.022   0.461  0.1793 -0.0977 -0.0062
   80MOL0     C10485   4.218   7.987   0.440  0.3292 -0.3739 -0.0518
   80MOL0     O10486   4.276   7.985   0.316  0.0461 -0.7830  0.6830
   80MOL0     C10487   4.367   8.095   0.285  0.1277 -0.2633  0.0006
   80MOL0     C10488   4.428   8.070   0.150  0.8721 -0.5387 -0.0236
   80MOL0     C10489   4.590   8.071   0.154  1.0233  0.6295  0.0888
   80MOL0     C10490   4.647   7.931   0.182 -0.5176 -0.4252 -0.1737
   80MOL0     C10491   4.775   7.941   0.249  0.8431 -0.0690 -0.3009
   80MOL0     C10492   4.875   7.966   0.310 -0.4581 -0.7721  0.0972
   80MOL0     C10493   4.306   7.959   0.539 -0.3788 -0.5252 -0.5547
   80MOL0     C10494   4.263   7.968   0.673  0.4649  0.5112 -0.0626
   80MOL0     H10495   3.945   7.883   1.059 -0.0352  4.3219 -1.0362
   80MOL0     H10496   3.911   7.889   1.311  0.4046 -0.8490  0.5083
   80MOL0     H10497   4.254   8.077   1.517 -2.1800  1.3473 -1.7151
   80MOL0     H10498   4.221   7.935   1.618 -1.4528 -0.5472  0.3221
   80MOL0     H10499   4.009   8.058   1.689 -0.1769  1.8199  2.9122
   80MOL0     H10500   4.086   8.210   1.632  0.7826  0.2378  0.7432
   80MOL0     H10501   4.291   8.158   1.772 -1.1042  1.6101  1.7471
   80MOL0     H10502   4.211   8.025   1.843 -0.1701 -0.6797 -1.8782
   80MOL0     H10503   4.068   8.298   1.852 -0.0685 -1.9556 -3.0789
   80MOL0     H10504   4.051   8.160   1.963 -2.0798  1.7429 -0.1205
   80MOL0     H10505   4.291   8.357   1.949 -1.6777  0.5580 -1.1032
   80MOL0     H10506   4.294   8.207   2.037 -1.1116 -3.4860 -4.1363
   80MOL0     H10507   4.082   8.290   2.169 -0.2546 -0.3045 -1.5832
   80MOL0     H10508   4.104   8.443   2.072  2.1215  0.4037 -1.3203
   80MOL0     H10509   4.322   8.343   2.254  0.3167  0.9590 -2.4058
   80MOL0     H10510   4.311   8.502   2.173  2.2178 -1.1910 -1.0139
   80MOL0     H10511   4.254   8.499   2.430 -3.0748  0.2656  2.7188
   80MOL0     H10512   4.117   8.393   2.378  0.1050  1.0935 -1.0073
   80MOL0     H10513   3.906   8.540   2.391  0.6125 -0.7948 -0.2504
   80MOL0     H10514   3.806   8.876   2.359 -1.8916  0.2234 -0.7866
   80MOL0     H10515   3.715   8.733   2.290  0.7743 -0.5792 -4.6925
   80MOL0     H10516   3.854   8.963   2.164 -0.2097  0.6543  2.9874
   80MOL0     H10517   3.682   8.924   2.176 -0.8270 -0.3231 -1.9484
   80MOL0     H10518   3.892   8.777   2.018  0.0259  2.1809 -0.1972
   80MOL0     H10519   3.742   8.698   2.057  1.1462 -0.0012 -0.5128
   80MOL0     H10520   3.735   8.785   1.827 -0.3031  1.9822 -0.7174
   80MOL0     H10521   3.766   8.946   1.879  0.4126 -0.2061 -2.1093
   80MOL0     H10522   3.675   8.931   1.665 -2.1811 -1.8155 -0.4748
   80MOL0     H10523   3.595   9.096   1.535  2.7302 -1.8544  0.9275
   80MOL0     H10524   3.226   9.506   1.651  2.9188 -2.8261  0.1519
   80MOL0     H10525   3.096   9.683   1.545 -3.2592  1.0162 -2.5475
   80MOL0     H10526   2.845   9.599   1.202  2.2922 -3.3656  0.7583
   80MOL0     H10527   2.988   9.620   1.106  1.0892  0.2126  1.0903
   80MOL0     H10528   2.878   9.879   1.204  0.6577 -0.7381  0.5836
   80MOL0     H10529   2.790   9.778   1.082  1.8912 -2.3164 -2.4920
   80MOL0     H10530   2.991   9.810   0.934  0.4460 -0.8499 -0.0712
   80MOL0     H10531   3.097   9.871   1.062 -0.6040  0.9667  1.3548
   80MOL0     H10532   2.863   9.981   0.933 -0.5822 -1.4255  1.2477
   80MOL0     H10533   2.926  10.062   1.088  2.2321  0.8565 -0.5045
   80MOL0     H10534   3.137  10.100   0.983 -1.0625 -0.2783  2.1377
   80MOL0     H10535   3.005  10.190   0.911  0.0828 -0.1723 -1.0620
   80MOL0     H10536   3.015   9.989   0.722  0.0184 -0.3974 -0.7902
   80MOL0     H10537   3.167   9.950   0.788 -0.0225  0.7911 -0.3311
   80MOL0     H10538   3.242  10.199   0.754  1.9392 -0.0662 -0.9011
   80MOL0     H10539   3.243  10.076   0.632 -0.8775 -0.8177  0.9102
   80MOL0     H10540   3.159  10.287   0.554 -2.3808  1.9103 -0.8303
   80MOL0     H10541   3.027  10.275   0.678 -0.1566  0.1094 -1.7126
   80MOL0     H10542   3.009   9.431   1.201  3.6386  2.3058 -1.9512
   80MOL0     H10543   3.105   9.233   1.347 -2.4696 -0.5516  2.6885
   80MOL0     H10544   3.243   9.125   1.787  0.1286  1.5239 -1.7632
   80MOL0     H10545   3.350   8.954   1.920  1.4713 -1.1259  0.7498
   80MOL0     H10546   4.337   7.995   1.350  0.3327 -2.3902  1.3191
   80MOL0     H10547   4.340   8.003   1.099 -1.2512  2.2892 -1.2921
   80MOL0     H10548   3.936   8.054   0.618 -0.0541 -0.8218 -1.4596
   80MOL0     H10549   4.018   8.058   0.379  2.3649  1.7318 -0.9658
   80MOL0     H10550   4.452   8.099   0.354  0.6657 -2.7217 -0.4261
   80MOL0     H10551   4.313   8.190   0.286 -0.5778 -0.6605  0.1042
   80MOL0     H10552   4.400   7.970   0.116 -0.5858 -0.3305  0.4919
   80MOL0     H10553   4.377   8.137   0.080 -2.6449 -0.4045  2.3878
   80MOL0     H10554   4.632   8.142   0.225 -0.2171 -0.3136  1.8278
   80MOL0     H10555   4.622   8.104   0.054 -0.7507  0.1707 -0.6695
   80MOL0     H10556   4.579   7.881   0.252 -1.3477  2.2606  1.0979
   80MOL0     H10557   4.664   7.874   0.091  1.1688 -2.4585  1.3316
   80MOL0     H10558   4.957   7.981   0.377  1.1312 -2.6042 -1.3111
   80MOL0     H10559   4.406   7.931   0.506  0.0156 -1.9227  1.6051
   80MOL0     H10560   4.330   7.939   0.753  0.1157 -0.1163  0.0035
   81MOL0     O10561   3.469   4.505   2.550  0.2269 -1.1862  0.5801
   81MOL0     C10562   3.570   4.451   2.596 -0.1279 -0.2553  0.3920
   81MOL0     O10563   3.576   4.312   2.614  0.1013  0.8949  0.1112
   81MOL0     C10564   3.466   4.229   2.604  1.0483  0.6692  0.1265
   81MOL0     C10565   3.479   4.110   2.536 -1.0156  0.7865 -0.0755
   81MOL0     C10566   3.368   4.035   2.512 -0.1549  0.0961 -0.3620
   81MOL0     C10567   3.243   4.066   2.563  0.2307 -0.2266  0.3442
   81MOL0     O10568   3.128   3.988   2.557 -0.1969  0.2363  0.9374
   81MOL0     C10569   3.145   3.855   2.515 -0.6380  0.3838  0.2508
   81MOL0     C10570   3.090   3.855   2.375  0.3037 -0.6784 -0.0333
   81MOL0     C10571   3.022   3.720   2.347 -0.2080 -0.6047 -0.3449
   81MOL0     C10572   2.986   3.714   2.197  0.9865 -0.3326 -0.0547
   81MOL0     C10573   2.920   3.579   2.169  0.9134  0.2062  0.3461
   81MOL0     C10574   2.772   3.577   2.203 -0.3702  0.5349  0.4693
   81MOL0     C10575   2.666   3.640   2.103  0.0046 -0.4187 -0.1031
   81MOL0     C10576   2.681   3.611   1.956 -1.1282 -0.7159 -0.2708
   81MOL0     N10577   2.654   3.475   1.921 -0.8735  0.2683  0.5838
   81MOL0     C10578   2.735   3.367   1.898  0.6684 -0.4742 -0.1852
   81MOL0     C10579   2.647   3.269   1.864 -0.9255  0.2227  0.3008
   81MOL0     C10580   2.707   3.144   1.810 -0.6490 -0.2534  0.0680
   81MOL0     C10581   2.670   3.118   1.664 -0.3771 -0.4655  0.0516
   81MOL0     C10582   2.768   3.195   1.571 -0.7421 -0.2671 -0.3556
   81MOL0     C10583   2.735   3.160   1.435 -0.2881 -0.7982 -0.3516
   81MOL0     O10584   2.828   3.222   1.350  0.4207 -0.6007 -0.1756
   81MOL0     C10585   2.839   3.178   1.217  0.2690  0.7071 -0.0393
   81MOL0     C10586   2.769   3.070   1.153  0.9219  0.6293  0.2859
   81MOL0     C10587   2.787   3.045   1.015  0.3213  0.6412  0.0534
   81MOL0     C10588   2.889   3.107   0.938 -0.3533 -0.4321  0.2793
   81MOL0     C10589   2.934   3.042   0.816  1.3943 -0.3921 -0.5893
   81MOL0     O10590   3.058   3.062   0.779  0.4036 -0.5970 -0.0350
   81MOL0     C10591   3.123   2.998   0.674 -0.1504  0.3228  0.7927
   81MOL0     C10592   3.076   2.886   0.602  0.5598 -0.1258  0.7943
   81MOL0     C10593   3.157   2.828   0.499  0.6014 -0.5720 -0.3430
   81MOL0     C10594   3.269   2.895   0.450 -0.3101 -0.4304  0.0471
   81MOL0     O10595   3.346   2.855   0.341  0.3587 -0.0065  1.4051
   81MOL0     C10596   3.410   2.730   0.325 -0.2357  0.2000 -0.2817
   81MOL0     C10597   3.558   2.743   0.362  0.3646 -0.0121  0.2236
   81MOL0     C10598   3.582   2.747   0.513  0.3044 -0.6517 -0.2734
   81MOL0     C10599   3.556   2.612   0.580  0.1583  0.3656 -0.0505
   81MOL0     C10600   3.555   2.608   0.731  0.0114 -0.0001  0.3726
   81MOL0     C10601   3.699   2.653   0.770  0.3198 -0.2732 -0.0882
   81MOL0     C10602   3.738   2.595   0.906  0.4048  0.8280  0.8124
   81MOL0     C10603   3.885   2.604   0.925 -0.7173 -0.5981 -0.2937
   81MOL0    Cl10604   3.941   2.570   1.087 -0.2345  0.5798  0.3678
   81MOL0     C10605   3.309   3.012   0.518 -1.6485 -0.0464 -0.2900
   81MOL0     C10606   3.238   3.066   0.627  1.5252 -0.1317  0.1459
   81MOL0     O10607   2.849   2.973   0.759 -0.5107 -0.0632 -0.4698
   81MOL0     C10608   2.964   3.206   1.000 -0.3612  0.4342 -0.6162
   81MOL0     C10609   2.931   3.246   1.137  0.0419 -0.3638  0.0367
   81MOL0     N10610   2.518   3.316   1.866  0.7688 -0.2256  0.8863
   81MOL0     N10611   2.524   3.444   1.889 -0.1558  0.1307 -0.3355
   81MOL0     C10612   3.231   4.185   2.637  0.4673  0.1489 -0.2770
   81MOL0     C10613   3.342   4.266   2.654 -0.1470 -0.3063  1.1033
   81MOL0     C10614   3.697   4.522   2.631 -0.2716 -1.4595  0.6993
   81MOL0     C10615   3.813   4.447   2.655  0.8519  0.5124  0.5376
   81MOL0     C10616   3.928   4.504   2.703  0.2093 -0.1768  0.1864
   81MOL0     C10617   3.933   4.633   2.754 -0.6043  0.1645  1.0581
   81MOL0     O10618   4.054   4.690   2.804 -0.2669  0.7024  0.0503
   81MOL0     C10619   4.051   4.807   2.885  0.5443 -0.1611 -0.6156
   81MOL0     C10620   4.192   4.847   2.947  1.0684 -0.4712 -0.9328
   81MOL0     C10621   4.243   4.744   3.057 -0.9079 -0.2932 -0.4840
   81MOL0     C10622   4.172   4.767   3.188  0.5539  0.1950 -0.1101
   81MOL0     C10623   4.196   4.645   3.263  0.2912 -0.1892 -0.6232
   81MOL0     C10624   4.223   4.542   3.322  1.0317  0.4926  0.0505
   81MOL0     C10625   3.808   4.717   2.732  0.3372  0.5558 -0.1719
   81MOL0     C10626   3.690   4.659   2.674 -0.6526  1.2673  0.7300
   81MOL0     H10627   3.578   4.090   2.498 -0.9148  0.9034  0.1232
   81MOL0     H10628   3.377   3.951   2.444 -1.0192 -1.5991  1.5233
   81MOL0     H10629   3.086   3.786   2.577 -2.4351 -1.6388 -3.3635
   81MOL0     H10630   3.246   3.814   2.510 -1.0573 -0.4809 -2.5155
   81MOL0     H10631   3.166   3.880   2.300 -0.7809  1.7232 -0.4490
   81MOL0     H10632   3.011   3.931   2.367 -0.9420 -2.0375 -1.1763
   81MOL0     H10633   2.932   3.698   2.404  1.1616 -4.6568  0.6024
   81MOL0     H10634   3.102   3.647   2.363  0.5986  0.6659  1.7916
   81MOL0     H10635   2.928   3.804   2.174  0.6037 -1.2005 -2.9245
   81MOL0     H10636   3.076   3.718   2.134  0.1559  0.3856 -1.2312
   81MOL0     H10637   2.966   3.511   2.241 -0.2663  1.3510  2.2781
   81MOL0     H10638   2.941   3.546   2.067  3.5288  3.7753 -0.4688
   81MOL0     H10639   2.755   3.635   2.294 -0.4375  1.5814 -0.1956
   81MOL0     H10640   2.735   3.476   2.224 -1.8078  0.7533 -0.8422
   81MOL0     H10641   2.570   3.603   2.138  0.6091 -1.6128  0.3570
   81MOL0     H10642   2.659   3.747   2.127 -2.0246 -0.6846  0.6730
   81MOL0     H10643   2.779   3.628   1.911 -0.6068  0.1570  1.1253
   81MOL0     H10644   2.614   3.663   1.887 -0.7113 -1.6743 -1.4307
   81MOL0     H10645   2.837   3.356   1.861  0.8765 -1.7555  0.7073
   81MOL0     H10646   2.656   3.065   1.866  2.2610 -2.5117 -0.1756
   81MOL0     H10647   2.816   3.142   1.824  0.2620  0.1676 -5.1265
   81MOL0     H10648   2.574   3.160   1.634  0.2764 -0.5298 -2.2904
   81MOL0     H10649   2.671   3.011   1.644  0.5551 -0.4741  0.1023
   81MOL0     H10650   2.757   3.301   1.592 -1.2266 -0.5096  0.7144
   81MOL0     H10651   2.871   3.168   1.595 -0.6924 -1.1010 -1.4103
   81MOL0     H10652   2.637   3.186   1.394  1.2660  3.1692 -2.0420
   81MOL0     H10653   2.758   3.053   1.428 -2.3865 -1.2452 -1.0858
   81MOL0     H10654   2.697   3.014   1.211  0.2601  1.3250  0.1409
   81MOL0     H10655   2.736   2.962   0.969  1.2742  0.4798 -0.7410
   81MOL0     H10656   2.997   2.829   0.650 -1.1721  1.5741  0.0899
   81MOL0     H10657   3.127   2.735   0.452  0.3061 -1.5841  1.7258
   81MOL0     H10658   3.399   2.701   0.220 -0.0554 -3.0158  0.4767
   81MOL0     H10659   3.370   2.652   0.391  0.7808  0.0052  0.1299
   81MOL0     H10660   3.616   2.825   0.318 -0.1162 -0.2978 -0.9821
   81MOL0     H10661   3.607   2.653   0.326  2.3037  0.4679  1.5525
   81MOL0     H10662   3.526   2.823   0.569 -0.0869 -0.7848 -0.4789
   81MOL0     H10663   3.688   2.768   0.528  0.9182 -2.3404 -1.9598
   81MOL0     H10664   3.463   2.566   0.545  1.3499 -0.4661 -2.3708
   81MOL0     H10665   3.638   2.550   0.543 -1.8855 -1.8015 -1.2626
   81MOL0     H10666   3.521   2.510   0.766 -3.4174  1.5190  1.7749
   81MOL0     H10667   3.477   2.679   0.759  1.1160  1.3052  0.2582
   81MOL0     H10668   3.704   2.762   0.771 -0.5182 -0.2217  0.6295
   81MOL0     H10669   3.779   2.623   0.702  2.9974  0.6548  2.4616
   81MOL0     H10670   3.683   2.641   0.989 -0.3077  2.4426 -0.5130
   81MOL0     H10671   3.704   2.491   0.896  1.9953  0.1888  1.5640
   81MOL0     H10672   3.916   2.703   0.891 -2.0845  0.9167  2.4948
   81MOL0     H10673   3.939   2.536   0.860 -1.1644  0.0713 -1.3961
   81MOL0     H10674   3.401   3.059   0.486 -0.8837 -0.9834  0.5099
   81MOL0     H10675   3.258   3.161   0.676 -0.5769  0.2623  0.3372
   81MOL0     H10676   3.034   3.271   0.949 -1.1974  0.7999 -1.3194
   81MOL0     H10677   2.988   3.325   1.184  0.1907 -2.2127  3.2031
   81MOL0     H10678   3.132   4.211   2.673 -0.5713 -0.7774 -2.3057
   81MOL0     H10679   3.332   4.360   2.707  2.8128 -0.1600  1.6071
   81MOL0     H10680   3.806   4.339   2.640  0.3340  0.9360 -3.4823
   81MOL0     H10681   4.015   4.439   2.708 -0.0341 -0.4751  0.5611
   81MOL0     H10682   3.982   4.790   2.969  2.9956  1.0297  1.8239
   81MOL0     H10683   3.999   4.887   2.831 -0.7942 -0.2730  0.4504
   81MOL0     H10684   4.260   4.870   2.865  1.4220 -2.5819 -1.3026
   81MOL0     H10685   4.190   4.951   2.979  1.2040 -0.4772 -0.9038
   81MOL0     H10686   4.349   4.754   3.081 -1.0121 -0.7408  0.1890
   81MOL0     H10687   4.224   4.641   3.028  0.4696 -0.9538  0.8135
   81MOL0     H10688   4.214   4.856   3.235 -1.0191 -0.7526  3.4346
   81MOL0     H10689   4.065   4.781   3.174  0.5590  4.3236  2.4540
   81MOL0     H10690   4.225   4.454   3.384 -1.3479 -1.7173 -2.6740
   81MOL0     H10691   3.810   4.824   2.750 -1.9809  0.3687  1.7168
   81MOL0     H10692   3.599   4.715   2.652 -1.4196 -0.9850 -2.6242
   82MOL0     O10693   6.532   5.190   6.729 -0.2640  0.4702  1.0618
   82MOL0     C10694   6.640   5.241   6.745 -0.8180 -0.4801  0.3443
   82MOL0     O10695   6.749   5.174   6.795  0.2727  0.2847  0.8995
   82MOL0     C10696   6.755   5.034   6.806 -0.6314 -0.3186  0.2005
   82MOL0     C10697   6.674   4.939   6.749 -0.5017  0.8349  0.3419
   82MOL0     C10698   6.688   4.800   6.792  0.3894  0.3469 -0.5696
   82MOL0     C10699   6.777   4.763   6.894  0.4107 -0.5743 -0.1705
   82MOL0     O10700   6.770   4.632   6.930 -0.3783 -0.1254  0.3589
   82MOL0     C10701   6.799   4.604   7.068  0.7941  0.0444  0.1505
   82MOL0     C10702   6.716   4.489   7.125 -0.8626 -0.3662 -0.2740
   82MOL0     C10703   6.562   4.504   7.100  0.4350 -0.0668 -0.0061
   82MOL0     C10704   6.481   4.425   7.196 -0.4450  0.0583 -0.2762
   82MOL0     C10705   6.334   4.472   7.206 -0.3391  0.3921 -0.5790
   82MOL0     C10706   6.249   4.469   7.071 -0.4580  0.4167 -0.2649
   82MOL0     C10707   6.120   4.550   7.067  0.7963 -0.0932 -0.1338
   82MOL0     C10708   6.053   4.568   6.927  0.3074 -0.0224  0.4989
   82MOL0     N10709   6.131   4.650   6.833 -0.4293  0.2632 -0.1422
   82MOL0     C10710   6.131   4.788   6.833  0.0731 -0.0253  0.6593
   82MOL0     C10711   6.223   4.814   6.744 -1.4362 -0.3181 -0.0921
   82MOL0     C10712   6.253   4.960   6.708 -0.3262  0.7493 -0.5500
   82MOL0     C10713   6.154   5.016   6.612  0.7353 -0.1527 -0.2818
   82MOL0     C10714   6.198   5.152   6.567  0.3513 -1.3104  0.5042
   82MOL0     C10715   6.099   5.223   6.481  0.1237 -0.4778 -0.7401
   82MOL0     O10716   6.147   5.360   6.483 -0.1738 -0.4193 -0.5247
   82MOL0     C10717   6.079   5.463   6.420  0.2427  1.9272 -0.0445
   82MOL0     C10718   5.951   5.439   6.361 -0.9352 -0.2480  0.5211
   82MOL0     C10719   5.880   5.551   6.309  0.2722  0.9265 -0.9360
   82MOL0     C10720   5.943   5.676   6.299  0.5990 -1.1431  0.1839
   82MOL0     C10721   5.875   5.793   6.245 -0.1386 -0.8788  0.7029
   82MOL0     O10722   5.751   5.779   6.186  0.0977  0.1710 -0.6720
   82MOL0     C10723   5.685   5.873   6.130  0.9917  0.4305 -0.2085
   82MOL0     C10724   5.566   5.830   6.067 -0.3678  0.2252 -0.0065
   82MOL0     C10725   5.480   5.918   5.993  1.7808  0.5395 -0.7499
   82MOL0     C10726   5.508   6.058   6.004  0.7606  0.1289  0.0956
   82MOL0     O10727   5.435   6.156   5.952  0.1617 -0.4578  0.1418
   82MOL0     C10728   5.431   6.157   5.804 -0.9316  0.6963  0.1263
   82MOL0     C10729   5.335   6.056   5.743 -0.0743  0.3361  1.1061
   82MOL0     C10730   5.196   6.049   5.819 -0.3138 -0.1258 -0.6818
   82MOL0     C10731   5.126   5.913   5.789  0.5172 -0.4945  0.3713
   82MOL0     C10732   5.077   5.912   5.638  0.3313 -0.3172  0.3660
   82MOL0     C10733   5.057   5.772   5.587 -0.5376  0.5294  0.2962
   82MOL0     C10734   4.985   5.778   5.456 -0.2573 -0.4428  0.2316
   82MOL0     C10735   4.990   5.651   5.375  0.9904  0.8493 -0.7535
   82MOL0    Cl10736   4.947   5.499   5.454  0.0381  0.1917 -0.6717
   82MOL0     C10737   5.612   6.095   6.082  0.8470 -0.3698  0.8676
   82MOL0     C10738   5.697   6.011   6.138 -0.3482 -0.2908 -0.0447
   82MOL0     O10739   5.940   5.898   6.248 -0.4639 -0.6313 -0.2730
   82MOL0     C10740   6.071   5.701   6.357 -0.9468  0.0114  0.5917
   82MOL0     C10741   6.141   5.591   6.413 -0.0337  0.3967  0.0091
   82MOL0     N10742   6.279   4.694   6.689  0.4347 -0.1192 -0.2069
   82MOL0     N10743   6.203   4.600   6.735  0.0564 -0.4857 -0.2692
   82MOL0     C10744   6.863   4.866   6.939 -1.0024 -0.6760  0.2575
   82MOL0     C10745   6.853   4.998   6.892  0.5844 -0.0540  0.3173
   82MOL0     C10746   6.657   5.393   6.722  0.0360  0.1586 -0.7741
   82MOL0     C10747   6.575   5.463   6.635 -0.3733 -0.1462  0.6807
   82MOL0     C10748   6.613   5.598   6.610  0.0753  0.4078 -0.8422
   82MOL0     C10749   6.723   5.665   6.657 -0.6354  0.3187 -0.7371
   82MOL0     O10750   6.744   5.796   6.617  0.3943  0.5887 -0.1190
   82MOL0     C10751   6.857   5.873   6.687 -0.1650 -1.4730 -0.2581
   82MOL0     C10752   6.991   5.861   6.606  1.0273  1.0627  0.1331
   82MOL0     C10753   7.111   5.917   6.685 -0.4389 -0.0791 -0.7181
   82MOL0     C10754   7.121   6.070   6.707 -0.5252 -0.4057  0.1224
   82MOL0     C10755   7.071   6.152   6.597  0.1052  0.6846  0.2860
   82MOL0     C10756   7.020   6.226   6.512  0.2294 -0.0705 -0.5372
   82MOL0     C10757   6.788   5.595   6.761  1.5375 -1.3342  0.6116
   82MOL0     C10758   6.766   5.461   6.778  0.0009  0.5469 -0.5990
   82MOL0     H10759   6.599   4.959   6.673  1.6679 -2.7987 -3.1920
   82MOL0     H10760   6.623   4.718   6.761 -0.4256  0.0721  1.7158
   82MOL0     H10761   6.766   4.688   7.131  0.5711 -0.1694  0.3197
   82MOL0     H10762   6.905   4.587   7.089  1.0197 -1.3116 -1.8579
   82MOL0     H10763   6.736   4.493   7.233  1.3861 -0.8124 -0.6239
   82MOL0     H10764   6.760   4.395   7.091  1.1441  0.2486  0.5024
   82MOL0     H10765   6.535   4.474   6.998 -0.8440  1.1991 -0.0692
   82MOL0     H10766   6.532   4.609   7.104 -2.2392 -0.8114  2.3112
   82MOL0     H10767   6.487   4.322   7.159  1.9729  0.4688 -1.2919
   82MOL0     H10768   6.521   4.432   7.297  1.1855 -1.3234 -0.7802
   82MOL0     H10769   6.335   4.579   7.233 -0.7947  0.5093 -1.0205
   82MOL0     H10770   6.273   4.414   7.276  0.4147  2.1244  1.6648
   82MOL0     H10771   6.233   4.362   7.054  3.2755 -0.4442  0.7496
   82MOL0     H10772   6.315   4.497   6.988 -0.6202  0.8950 -0.2412
   82MOL0     H10773   6.045   4.502   7.130 -1.4098 -2.1872 -4.0023
   82MOL0     H10774   6.143   4.654   7.093 -1.2062  0.9268 -2.1233
   82MOL0     H10775   5.953   4.606   6.948  0.5673  0.6633  0.5309
   82MOL0     H10776   6.033   4.470   6.881 -2.2098 -0.2635  1.8934
   82MOL0     H10777   6.074   4.858   6.894  0.2161 -1.0775  2.0541
   82MOL0     H10778   6.357   4.955   6.675 -0.0134  3.4264 -0.2060
   82MOL0     H10779   6.262   5.026   6.794  3.2376 -1.6917  1.1613
   82MOL0     H10780   6.056   5.032   6.657  2.1341 -0.8027  3.3609
   82MOL0     H10781   6.145   4.943   6.531 -3.9049  0.1293 -0.3034
   82MOL0     H10782   6.207   5.209   6.660  0.0095 -1.8933  0.9078
   82MOL0     H10783   6.295   5.146   6.517  0.2106  3.0821 -0.7223
   82MOL0     H10784   5.996   5.226   6.515 -0.3559 -1.7193 -2.0148
   82MOL0     H10785   6.098   5.195   6.375 -0.8520 -1.0958 -0.5657
   82MOL0     H10786   5.906   5.340   6.367  0.4889 -1.0974 -1.7433
   82MOL0     H10787   5.787   5.522   6.263  0.9428 -2.5956 -0.3513
   82MOL0     H10788   5.535   5.726   6.070 -0.2184  0.1971  0.7735
   82MOL0     H10789   5.394   5.881   5.939  2.7825 -2.1862 -0.6297
   82MOL0     H10790   5.527   6.156   5.751 -0.7325 -1.6832  0.3979
   82MOL0     H10791   5.392   6.254   5.772 -1.5010  0.2810 -0.4627
   82MOL0     H10792   5.385   5.959   5.744 -2.4059 -0.9612  1.6434
   82MOL0     H10793   5.313   6.091   5.642 -0.5156  0.1990  1.1499
   82MOL0     H10794   5.124   6.129   5.798 -1.0941 -0.0809  1.8877
   82MOL0     H10795   5.217   6.060   5.925  2.0449  0.2732 -1.1166
   82MOL0     H10796   5.209   5.843   5.803  3.7161  2.1800 -3.0145
   82MOL0     H10797   5.043   5.890   5.855 -0.5727 -0.0049 -0.7847
   82MOL0     H10798   5.151   5.956   5.569  1.7668 -1.1189  1.3600
   82MOL0     H10799   4.987   5.972   5.622  0.1695 -0.6838 -0.1146
   82MOL0     H10800   5.003   5.713   5.662  2.0536 -0.6934  1.3644
   82MOL0     H10801   5.155   5.734   5.557 -1.3216 -1.2856 -0.0874
   82MOL0     H10802   4.878   5.788   5.480  0.2155 -1.1167  2.8458
   82MOL0     H10803   5.019   5.861   5.393  2.5562 -2.9003 -1.7068
   82MOL0     H10804   5.090   5.648   5.331  0.5279 -0.2210 -1.7788
   82MOL0     H10805   4.925   5.655   5.287  0.0381  0.8317 -0.0669
   82MOL0     H10806   5.634   6.201   6.088  5.0525 -1.1074  1.3802
   82MOL0     H10807   5.784   6.057   6.182  1.5828 -1.6012 -2.2717
   82MOL0     H10808   6.124   5.795   6.348 -1.7291  0.4636  0.6255
   82MOL0     H10809   6.240   5.606   6.456  0.4936 -0.0614 -1.0109
   82MOL0     H10810   6.950   4.844   6.998 -1.3282 -0.5762  0.7806
   82MOL0     H10811   6.906   5.089   6.919  0.5891  0.3134 -0.8528
   82MOL0     H10812   6.481   5.425   6.596 -1.0063  0.8174  1.2330
   82MOL0     H10813   6.547   5.655   6.545  1.0655 -0.2079 -2.4688
   82MOL0     H10814   6.861   5.842   6.792 -0.9582 -0.3122  0.1356
   82MOL0     H10815   6.840   5.981   6.685 -0.6419 -1.5346  0.2221
   82MOL0     H10816   7.011   5.757   6.577 -1.0242  0.1994  1.6041
   82MOL0     H10817   6.977   5.916   6.512 -3.5201  0.3750  0.1704
   82MOL0     H10818   7.197   5.899   6.620 -2.2580 -0.9872 -3.0080
   82MOL0     H10819   7.129   5.862   6.778  2.7943 -0.7075 -1.5693
   82MOL0     H10820   7.058   6.102   6.790 -1.1384  4.4036 -1.8837
   82MOL0     H10821   7.225   6.102   6.722 -0.5134  1.1473 -2.6852
   82MOL0     H10822   6.965   6.285   6.441 -3.7165 -1.4510  1.0629
   82MOL0     H10823   6.865   5.644   6.820  2.0925 -0.0654 -1.0579
   82MOL0     H10824   6.834   5.407   6.844 -0.7195 -1.4151 -1.3829
   83MOL0     O10825  10.900   6.505   1.282 -0.2100 -0.1915  0.1360
   83MOL0     C10826  10.869   6.567   1.380 -0.6916 -0.8982 -0.3255
   83MOL0     O10827  10.834   6.511   1.499  0.0110  0.1995 -1.0625
   83MOL0     C10828  10.817   6.378   1.523 -0.5690 -0.1142  0.1126
   83MOL0     C10829  10.818   6.332   1.660 -0.7052  0.1124 -0.1658
   83MOL0     C10830  10.802   6.196   1.686 -0.0560 -0.0573 -0.2886
   83MOL0     C10831  10.808   6.097   1.594  0.8099  0.4127  0.0147
   83MOL0     O10832  10.795   5.969   1.631 -0.8103  0.2718  0.6965
   83MOL0     C10833  10.685   5.940   1.716 -1.0564  0.3405  0.2278
   83MOL0     C10834  10.649   5.788   1.715 -1.0621 -0.6905  0.7059
   83MOL0     C10835  10.506   5.766   1.757 -1.1760 -0.2987  0.7589
   83MOL0     C10836  10.445   5.627   1.726  0.3034 -1.0094  0.1205
   83MOL0     C10837  10.301   5.623   1.763 -0.2418 -0.8116 -0.5850
   83MOL0     C10838  10.245   5.480   1.756  0.1791  0.1164  0.7521
   83MOL0     C10839  10.095   5.477   1.747 -0.4238 -0.1752  0.7018
   83MOL0     C10840  10.031   5.567   1.639  0.5066 -0.1491 -0.1095
   83MOL0     N10841   9.899   5.529   1.583  0.9888 -0.1987  0.2134
   83MOL0     C10842   9.799   5.519   1.669 -0.9041  0.0462  0.3750
   83MOL0     C10843   9.690   5.470   1.593 -0.3814  0.0723  0.6500
   83MOL0     C10844   9.556   5.407   1.646  0.6616 -0.2965 -0.6118
   83MOL0     C10845   9.441   5.398   1.550  0.9017 -0.5844  0.7150
   83MOL0     C10846   9.456   5.294   1.440 -0.0530 -0.1518 -0.2373
   83MOL0     C10847   9.325   5.276   1.368 -0.6125  0.6856  0.7086
   83MOL0     O10848   9.329   5.137   1.354  0.3269  0.5173  0.6289
   83MOL0     C10849   9.228   5.078   1.282  0.4782  0.9794 -0.0597
   83MOL0     C10850   9.264   4.954   1.221 -0.6792 -0.0622 -0.5097
   83MOL0     C10851   9.183   4.893   1.127 -0.1460 -0.2418  1.2345
   83MOL0     C10852   9.060   4.946   1.087  1.5071  0.0743  0.1137
   83MOL0     C10853   8.977   4.874   0.986  0.5518 -0.2472 -1.2233
   83MOL0     O10854   9.032   4.754   0.929 -0.2899 -0.5147 -0.3308
   83MOL0     C10855   8.972   4.688   0.818 -0.7361 -0.1072  0.0225
   83MOL0     C10856   8.860   4.719   0.742  0.6301  0.1528 -1.0893
   83MOL0     C10857   8.813   4.642   0.633 -0.0605  0.5918  1.0547
   83MOL0     C10858   8.898   4.533   0.587  0.2152 -1.2235  0.0373
   83MOL0     O10859   8.858   4.457   0.482 -0.7082 -0.8140 -0.0560
   83MOL0     C10860   8.830   4.322   0.507 -0.9445 -0.1992 -0.3684
   83MOL0     C10861   8.856   4.220   0.383  0.5472 -0.2820  0.6701
   83MOL0     C10862   8.846   4.069   0.401  0.8777  0.6240 -0.0175
   83MOL0     C10863   8.697   4.019   0.399  0.6820 -1.8346  1.0525
   83MOL0     C10864   8.682   3.882   0.447 -0.3027 -0.9406  0.0472
   83MOL0     C10865   8.668   3.866   0.599 -0.2156 -0.0280 -0.4385
   83MOL0     C10866   8.617   3.729   0.656 -0.1675 -0.1690 -1.3304
   83MOL0     C10867   8.709   3.614   0.645  0.2790  0.1135 -1.1175
   83MOL0    Cl10868   8.855   3.634   0.741 -0.2373  0.3129 -0.0184
   83MOL0     C10869   9.014   4.506   0.657  0.0118 -0.8841  0.2730
   83MOL0     C10870   9.053   4.583   0.768 -0.0063 -0.8455  0.2340
   83MOL0     O10871   8.870   4.924   0.956  0.5714 -0.5690 -0.0071
   83MOL0     C10872   9.011   5.057   1.155 -0.4530 -1.1905  0.7262
   83MOL0     C10873   9.097   5.124   1.247 -0.4179 -1.1078 -0.6912
   83MOL0     N10874   9.734   5.474   1.464 -0.0141 -0.6656  1.1205
   83MOL0     N10875   9.854   5.513   1.458 -0.0664  0.7764 -0.8606
   83MOL0     C10876  10.808   6.139   1.455 -0.9774 -0.3343 -0.4631
   83MOL0     C10877  10.821   6.277   1.422  0.6945  1.0754  0.4120
   83MOL0     C10878  10.875   6.715   1.370  0.6719 -0.3470 -0.3914
   83MOL0     C10879  10.789   6.795   1.460 -0.6233  0.4402  0.3847
   83MOL0     C10880  10.809   6.933   1.435  0.7905 -0.4091  0.2940
   83MOL0     C10881  10.877   6.990   1.329 -0.5035 -0.4326  0.2155
   83MOL0     O10882  10.869   7.123   1.287 -0.1789  0.3901  0.7118
   83MOL0     C10883  10.785   7.225   1.353 -0.4251  0.0914  0.0555
   83MOL0     C10884  10.870   7.279   1.471 -0.6907  0.1778  0.8871
   83MOL0     C10885  10.934   7.422   1.436 -0.0028  0.8699  0.5367
   83MOL0     C10886  11.024   7.457   1.554  0.2776  0.3569 -0.2137
   83MOL0     C10887  11.099   7.581   1.519  0.0674 -0.6031 -0.0350
   83MOL0     C10888  11.166   7.678   1.482 -0.8230 -0.2085  0.4351
   83MOL0     C10889  10.962   6.908   1.257 -0.3778  0.7882 -0.8540
   83MOL0     C10890  10.958   6.778   1.264  0.1804  0.1064 -0.0274
   83MOL0     H10891  10.804   6.389   1.752 -3.8988  1.4656 -1.3289
   83MOL0     H10892  10.796   6.164   1.790 -2.2415 -2.7625 -1.1482
   83MOL0     H10893  10.596   5.996   1.685 -1.0899  0.1672  0.0147
   83MOL0     H10894  10.712   5.967   1.819  2.3765  0.5126 -0.5842
   83MOL0     H10895  10.722   5.724   1.764 -0.0376 -2.4197 -2.7636
   83MOL0     H10896  10.653   5.759   1.609  2.3303 -0.9356  0.8117
   83MOL0     H10897  10.448   5.851   1.719  0.7035 -0.4457 -2.8300
   83MOL0     H10898  10.503   5.777   1.866  0.7593 -2.3329  1.0721
   83MOL0     H10899  10.449   5.614   1.617  0.9717  0.7307 -0.0969
   83MOL0     H10900  10.515   5.558   1.773 -0.7541 -2.9263 -0.9831
   83MOL0     H10901  10.248   5.698   1.704  0.8316 -0.7103 -1.4477
   83MOL0     H10902  10.290   5.645   1.870  1.1203 -2.6715  0.0072
   83MOL0     H10903  10.287   5.408   1.827 -0.0724  0.1962  0.9836
   83MOL0     H10904  10.277   5.435   1.662  3.2859  2.0351  0.7443
   83MOL0     H10905  10.067   5.377   1.712  5.4761 -0.6946 -4.1007
   83MOL0     H10906  10.044   5.497   1.842 -0.0712  2.4181  0.4144
   83MOL0     H10907  10.099   5.589   1.557 -0.1212  4.9044  0.4184
   83MOL0     H10908  10.015   5.666   1.683  1.8881  1.0250 -2.1062
   83MOL0     H10909   9.798   5.541   1.775 -0.6366  0.7247  0.2430
   83MOL0     H10910   9.515   5.464   1.730 -1.2332 -1.0755 -0.9624
   83MOL0     H10911   9.581   5.310   1.690 -0.3013  0.0808  0.8214
   83MOL0     H10912   9.429   5.488   1.489 -1.7718 -0.3530  1.4428
   83MOL0     H10913   9.351   5.394   1.612  1.0006 -0.6325  0.8533
   83MOL0     H10914   9.532   5.308   1.363 -1.8381 -0.4420 -2.1461
   83MOL0     H10915   9.471   5.199   1.493  0.0245  0.4741  0.8742
   83MOL0     H10916   9.333   5.325   1.270  1.2501 -0.0595  0.4608
   83MOL0     H10917   9.238   5.306   1.427 -1.8109 -0.7754 -0.2395
   83MOL0     H10918   9.360   4.913   1.251  0.1492  0.9152 -1.7246
   83MOL0     H10919   9.222   4.805   1.076  1.0796  0.0905  1.5598
   83MOL0     H10920   8.805   4.800   0.789  1.8875  0.6663 -0.4604
   83MOL0     H10921   8.718   4.655   0.582 -1.0909 -1.5024  2.2915
   83MOL0     H10922   8.726   4.322   0.541  0.2711 -1.2802  4.0625
   83MOL0     H10923   8.895   4.283   0.587 -3.3631  0.6969  2.2130
   83MOL0     H10924   8.955   4.246   0.344 -0.2715 -0.1786 -1.4140
   83MOL0     H10925   8.782   4.246   0.308  1.1958 -2.7798 -0.9687
   83MOL0     H10926   8.881   4.032   0.497 -1.7972 -0.8836  0.4642
   83MOL0     H10927   8.901   4.016   0.322  2.8033  1.9951  0.3276
   83MOL0     H10928   8.646   4.093   0.461 -1.2286  0.3016 -2.7191
   83MOL0     H10929   8.667   4.046   0.298 -3.0398 -2.5926  1.8172
   83MOL0     H10930   8.754   3.815   0.399 -1.1520 -1.7631 -0.0993
   83MOL0     H10931   8.584   3.849   0.410 -0.9728  1.0279 -0.0857
   83MOL0     H10932   8.590   3.939   0.624 -1.0131  0.4610 -3.8957
   83MOL0     H10933   8.761   3.901   0.645 -0.8536  1.6219 -0.3419
   83MOL0     H10934   8.586   3.745   0.759 -0.3233 -1.7752 -1.1058
   83MOL0     H10935   8.522   3.718   0.602 -0.7345 -0.5155 -0.2945
   83MOL0     H10936   8.742   3.602   0.541  0.9700  0.0478 -0.8957
   83MOL0     H10937   8.673   3.517   0.680  5.3358 -1.0684  1.8514
   83MOL0     H10938   9.073   4.426   0.613  0.9040 -0.7864  1.2447
   83MOL0     H10939   9.150   4.572   0.815 -1.1541 -0.1091  2.9209
   83MOL0     H10940   8.911   5.093   1.133  0.0829 -1.3634 -2.4722
   83MOL0     H10941   9.061   5.212   1.300  1.2701 -1.2490  0.8098
   83MOL0     H10942  10.817   6.065   1.377 -0.5522  0.7482 -1.4725
   83MOL0     H10943  10.807   6.305   1.318 -0.9741  1.5369  0.7414
   83MOL0     H10944  10.723   6.745   1.529  1.4600 -2.0000  0.7500
   83MOL0     H10945  10.739   6.989   1.496 -1.2913 -4.4563  2.0662
   83MOL0     H10946  10.684   7.196   1.383 -0.7528  0.7588 -0.3618
   83MOL0     H10947  10.777   7.306   1.280  4.5183 -0.8491 -1.9329
   83MOL0     H10948  10.803   7.290   1.556  1.7063  0.9662  2.8062
   83MOL0     H10949  10.947   7.208   1.502 -0.1120 -0.9158 -2.6271
   83MOL0     H10950  10.864   7.504   1.419  1.2941  1.7950 -0.6140
   83MOL0     H10951  11.010   7.421   1.356 -0.1521  2.0437  0.3539
   83MOL0     H10952  10.963   7.472   1.644  0.7167  0.1039  0.1281
   83MOL0     H10953  11.096   7.377   1.574 -0.1853  0.1543  0.7212
   83MOL0     H10954  11.233   7.756   1.450  0.5518 -1.9359 -1.1224
   83MOL0     H10955  11.022   6.966   1.187  3.2576  0.7759  1.9727
   83MOL0     H10956  11.015   6.712   1.199 -1.3295 -1.9060  0.5969
   84MOL0     O10957   9.594   1.353  11.195  0.4137  0.0912 -0.3002
   84MOL0     C10958   9.501   1.280  11.156 -0.2342  0.2604  0.0057
   84MOL0     O10959   9.366   1.297  11.188  0.1046 -0.7854 -0.5467
   84MOL0     C10960   9.327   1.404  11.269  0.3684 -0.2959  1.0845
   84MOL0     C10961   9.362   1.403  11.406  0.4250  0.0237  1.0430
   84MOL0     C10962   9.318   1.510  11.482 -0.0132 -0.5868  0.1262
   84MOL0     C10963   9.220   1.603  11.425 -1.0380 -0.1887 -0.0795
   84MOL0     O10964   9.161   1.699  11.508  0.6824  0.1911  0.5216
   84MOL0     C10965   9.239   1.775  11.599 -0.0844  0.0116 -0.6436
   84MOL0     C10966   9.152   1.893  11.660  0.1983 -0.8514  0.5086
   84MOL0     C10967   9.223   1.966  11.772 -0.2747  0.1831  1.0459
   84MOL0     C10968   9.126   2.086  11.805 -0.0210 -0.0340 -0.0278
   84MOL0     C10969   9.165   2.155  11.938  0.2190  0.6585  0.2520
   84MOL0     C10970   9.109   2.300  11.963 -0.3733  0.5370  0.9896
   84MOL0     C10971   8.965   2.297  12.017 -0.4430 -1.2807  0.7353
   84MOL0     C10972   8.864   2.298  11.895 -0.7187  0.8213 -0.7240
   84MOL0     N10973   8.727   2.295  11.943  0.6678 -0.9727 -0.1448
   84MOL0     C10974   8.642   2.403  11.963  0.0913  1.2419 -1.0668
   84MOL0     C10975   8.563   2.371  12.069 -0.7827 -0.8189  1.0411
   84MOL0     C10976   8.466   2.465  12.135  1.0106  0.2747  0.5365
   84MOL0     C10977   8.342   2.407  12.203  0.3263  1.1459  0.5791
   84MOL0     C10978   8.218   2.388  12.123  0.3268  0.9563  0.1611
   84MOL0     C10979   8.150   2.517  12.075  0.1490  0.0421 -1.2104
   84MOL0     O10980   8.074   2.573  12.198  0.4525  0.3889 -0.1712
   84MOL0     C10981   8.034   2.705  12.201 -0.0386 -0.4146 -0.0888
   84MOL0     C10982   8.037   2.770  12.323 -0.6461 -0.7469 -1.1546
   84MOL0     C10983   7.986   2.898  12.332  0.3399 -0.4234  0.2337
   84MOL0     C10984   7.931   2.966  12.220 -0.8166 -0.5420  0.1565
   84MOL0     C10985   7.876   3.102  12.241  0.1636 -0.7717 -0.5346
   84MOL0     O10986   7.813   3.159  12.126 -0.1132  0.0104 -0.5122
   84MOL0     C10987   7.757   3.286  12.123  0.7217  0.3600 -0.6040
   84MOL0     C10988   7.782   3.386  12.206 -0.1848  0.2088 -0.1974
   84MOL0     C10989   7.717   3.510  12.193 -0.7291  0.0846 -0.3880
   84MOL0     C10990   7.623   3.524  12.095  0.8271 -0.2855  0.1828
   84MOL0     O10991   7.556   3.640  12.096  0.0071  0.3385 -0.2050
   84MOL0     C10992   7.614   3.722  12.003 -0.2049  0.6029  0.4952
   84MOL0     C10993   7.607   3.866  12.042  1.4281  0.0625  0.0099
   84MOL0     C10994   7.699   3.906  12.153 -0.4191  0.3079 -0.2031
   84MOL0     C10995   7.710   4.062  12.148 -0.2585  0.4755 -0.0967
   84MOL0     C10996   7.793   4.115  12.276  0.0692  0.2519  0.1620
   84MOL0     C10997   7.944   4.111  12.231 -0.3003 -0.3635  0.3897
   84MOL0     C10998   8.051   4.158  12.329 -0.6411 -0.2229  0.3803
   84MOL0     C10999   8.048   4.305  12.370  0.0561  0.0372  0.8261
   84MOL0    Cl11000   8.199   4.360  12.435 -0.0180  0.0837 -0.3896
   84MOL0     C11001   7.591   3.418  12.005 -0.5251 -0.6492  0.7286
   84MOL0     C11002   7.661   3.297  12.027 -1.7814  0.3618 -0.1429
   84MOL0     O11003   7.873   3.153  12.353 -0.3452 -0.1989  0.3438
   84MOL0     C11004   7.956   2.904  12.094 -0.1142  0.3008 -0.6608
   84MOL0     C11005   8.000   2.774  12.086  0.1730  0.1485  1.3572
   84MOL0     N11006   8.595   2.230  12.090  0.4495  0.0265 -0.4091
   84MOL0     N11007   8.677   2.182  12.012 -0.9860  0.3860  0.0396
   84MOL0     C11008   9.169   1.586  11.288 -0.0466 -0.4381  0.3192
   84MOL0     C11009   9.230   1.487  11.212  0.0460  0.2602  0.4952
   84MOL0     C11010   9.551   1.166  11.068  0.1642  0.1597 -0.5220
   84MOL0     C11011   9.453   1.060  11.035 -0.0995  0.1194 -0.8483
   84MOL0     C11012   9.481   0.953  10.954  0.3604 -0.9144 -0.1117
   84MOL0     C11013   9.611   0.948  10.901  0.1917 -0.2948 -1.4578
   84MOL0     O11014   9.662   0.848  10.828 -0.5261  0.2212 -0.0035
   84MOL0     C11015   9.590   0.720  10.809 -0.5688 -0.4161 -0.6021
   84MOL0     C11016   9.677   0.594  10.759  0.1273 -0.0647  0.1702
   84MOL0     C11017   9.785   0.627  10.656 -0.2327  0.0534  0.0154
   84MOL0     C11018   9.745   0.686  10.520  0.3398  0.4155 -0.4391
   84MOL0     C11019   9.678   0.579  10.442  0.7947  0.6558 -0.2817
   84MOL0     C11020   9.624   0.492  10.379 -0.3136 -0.5647  0.5851
   84MOL0     C11021   9.711   1.054  10.927 -0.2350 -0.1460 -0.0629
   84MOL0     C11022   9.676   1.165  11.011  0.5412 -0.0472 -0.0494
   84MOL0     H11023   9.433   1.326  11.435 -1.6529 -2.1049  0.7598
   84MOL0     H11024   9.349   1.519  11.585  1.0500 -2.5221  0.0264
   84MOL0     H11025   9.327   1.811  11.544 -0.3944 -0.9588 -1.8198
   84MOL0     H11026   9.278   1.718  11.683 -0.0902  0.9671  0.0243
   84MOL0     H11027   9.060   1.853  11.704 -0.1236 -0.8314 -0.1390
   84MOL0     H11028   9.120   1.956  11.577 -0.2368 -1.4546  0.2118
   84MOL0     H11029   9.317   2.002  11.728  1.3406 -4.7887 -0.2600
   84MOL0     H11030   9.244   1.897  11.854  0.0662 -0.8772  0.0883
   84MOL0     H11031   9.130   2.163  11.728  2.7223 -1.1716 -1.1502
   84MOL0     H11032   9.020   2.058  11.809  0.6918 -3.1980 -0.3923
   84MOL0     H11033   9.274   2.152  11.948  0.3775  0.9664 -1.1589
   84MOL0     H11034   9.121   2.082  12.008 -1.3061 -0.1444 -1.4677
   84MOL0     H11035   9.115   2.359  11.871 -1.6464 -1.3298 -0.3735
   84MOL0     H11036   9.169   2.353  12.037 -0.6253  0.1785  1.4583
   84MOL0     H11037   8.939   2.212  12.081 -0.3779  0.3208  2.9978
   84MOL0     H11038   8.951   2.388  12.076 -0.8295  0.2792 -1.6320
   84MOL0     H11039   8.865   2.218  11.820  0.0498  0.0386  0.0944
   84MOL0     H11040   8.897   2.388  11.841 -2.3009  1.9691  0.1538
   84MOL0     H11041   8.658   2.500  11.916 -3.5378  1.2566 -2.6265
   84MOL0     H11042   8.451   2.545  12.062  1.2151  0.9558  1.2213
   84MOL0     H11043   8.521   2.516  12.215 -1.3140  0.5860  2.0526
   84MOL0     H11044   8.327   2.475  12.287  3.7332  2.4386  0.3125
   84MOL0     H11045   8.374   2.309  12.239 -1.3898 -0.1149 -1.1149
   84MOL0     H11046   8.241   2.328  12.034 -0.6480 -0.3358  0.7472
   84MOL0     H11047   8.151   2.332  12.189  2.5659 -0.3441  1.4538
   84MOL0     H11048   8.083   2.494  11.992  1.1983  1.6536 -2.5667
   84MOL0     H11049   8.225   2.587  12.037  1.3947 -1.0990 -0.9712
   84MOL0     H11050   8.064   2.717  12.414 -3.6994  3.2739  2.5332
   84MOL0     H11051   7.970   2.949  12.427 -1.9561 -1.6817  0.5951
   84MOL0     H11052   7.863   3.378  12.279  1.2016  0.7827 -1.6323
   84MOL0     H11053   7.757   3.596  12.245  0.8973 -3.0743  4.2972
   84MOL0     H11054   7.566   3.704  11.906  0.7417 -1.1228  0.3279
   84MOL0     H11055   7.716   3.690  11.981  0.0484  0.0953  2.2535
   84MOL0     H11056   7.511   3.900  12.083  1.7841 -1.1502  2.0030
   84MOL0     H11057   7.644   3.905  11.947 -0.3669 -1.9684 -1.6061
   84MOL0     H11058   7.800   3.863  12.146  0.2085  1.5774  0.6689
   84MOL0     H11059   7.660   3.867  12.247 -0.1369 -2.3043 -1.0720
   84MOL0     H11060   7.752   4.086  12.050  0.5151  2.0789  0.5861
   84MOL0     H11061   7.609   4.103  12.151 -1.1919 -1.7011 -0.0215
   84MOL0     H11062   7.774   4.048  12.361 -0.4743 -0.2441 -0.3350
   84MOL0     H11063   7.768   4.220  12.292  0.4251  0.3729 -0.0727
   84MOL0     H11064   7.951   4.168  12.138  1.0456 -1.8242 -0.4563
   84MOL0     H11065   7.966   4.012  12.192 -0.8962  1.2373 -4.7676
   84MOL0     H11066   8.056   4.099  12.421 -1.2156 -2.3144 -0.8712
   84MOL0     H11067   8.140   4.139  12.268 -0.1807 -0.6769  1.1891
   84MOL0     H11068   7.978   4.329  12.450  1.3294  1.3524  1.5989
   84MOL0     H11069   8.023   4.364  12.281 -1.8298 -2.2671 -0.2926
   84MOL0     H11070   7.516   3.427  11.927 -0.1383  0.5594  0.4731
   84MOL0     H11071   7.648   3.210  11.964  1.0483  1.3566 -2.2975
   84MOL0     H11072   7.924   2.960  12.006 -3.2469 -0.4897 -0.1540
   84MOL0     H11073   8.022   2.731  11.989  0.7838 -1.3474  2.1265
   84MOL0     H11074   9.098   1.646  11.232  2.6174  1.0202 -1.7138
   84MOL0     H11075   9.196   1.487  11.109  2.2048 -3.4051 -0.3913
   84MOL0     H11076   9.360   1.043  11.089  0.0820 -1.9839 -1.1404
   84MOL0     H11077   9.417   0.867  10.939  2.1227 -1.8751 -2.6786
   84MOL0     H11078   9.510   0.731  10.735  0.7556 -2.7839 -2.5821
   84MOL0     H11079   9.560   0.691  10.910  2.1569  1.1736  0.7817
   84MOL0     H11080   9.726   0.569  10.853 -1.3983  2.3720  1.7166
   84MOL0     H11081   9.618   0.508  10.726 -0.5876  1.0026 -1.4876
   84MOL0     H11082   9.834   0.532  10.634 -3.1242 -1.2867 -1.0424
   84MOL0     H11083   9.853   0.697  10.705  0.7352 -0.4191 -0.6205
   84MOL0     H11084   9.673   0.769  10.523 -1.5217 -0.9755 -2.8626
   84MOL0     H11085   9.834   0.720  10.467  0.0503  0.1630 -1.1026
   84MOL0     H11086   9.579   0.434  10.302  1.7960 -1.3299 -0.1429
   84MOL0     H11087   9.817   1.041  10.905 -0.0513  2.6339 -1.1266
   84MOL0     H11088   9.736   1.255  11.007 -0.4835  0.6102 -2.0866
   85MOL0     O11089   4.813   9.471   5.178  0.2730  0.6178  0.4027
   85MOL0     C11090   4.805   9.435   5.297 -0.3353 -0.4799  0.1173
   85MOL0     O11091   4.823   9.306   5.346 -0.5330 -0.6034  0.0678
   85MOL0     C11092   4.849   9.194   5.284 -0.7582  0.0805 -0.3130
   85MOL0     C11093   4.858   9.083   5.367 -0.9036 -0.0345  0.0122
   85MOL0     C11094   4.919   8.964   5.316  0.0430  0.1605 -0.7183
   85MOL0     C11095   4.940   8.942   5.178  0.4131 -0.4232 -0.2401
   85MOL0     O11096   5.007   8.830   5.134 -0.7193  0.0248 -0.1659
   85MOL0     C11097   5.139   8.818   5.192 -0.4813  0.2159  0.3737
   85MOL0     C11098   5.242   8.776   5.090  0.0850  0.3278 -0.9147
   85MOL0     C11099   5.371   8.734   5.165 -0.0468 -0.3713 -0.8627
   85MOL0     C11100   5.440   8.845   5.246 -0.2581 -0.0485 -0.2963
   85MOL0     C11101   5.576   8.810   5.308  0.2728 -0.1508  0.2700
   85MOL0     C11102   5.568   8.779   5.459  0.2047 -0.1492  0.3049
   85MOL0     C11103   5.686   8.684   5.500  0.1750 -0.8109 -0.1108
   85MOL0     C11104   5.823   8.751   5.526  0.2984 -0.3257  0.1165
   85MOL0     N11105   5.828   8.844   5.636  0.6495 -1.1626 -0.1146
   85MOL0     C11106   5.815   8.984   5.636  0.0971  1.0302  0.1088
   85MOL0     C11107   5.783   9.019   5.762  0.1249 -0.3844 -0.6413
   85MOL0     C11108   5.755   9.160   5.809 -0.3521  0.1728 -0.4928
   85MOL0     C11109   5.888   9.246   5.818 -0.2084  0.2136  0.5188
   85MOL0     C11110   5.955   9.214   5.958 -0.3800  0.2227  0.4640
   85MOL0     C11111   6.079   9.313   5.987 -1.1682  0.0216 -0.3027
   85MOL0     O11112   6.187   9.309   5.885  0.2076  0.1018 -0.0976
   85MOL0     C11113   6.215   9.180   5.854 -0.1706 -0.5490 -0.9294
   85MOL0     C11114   6.274   9.162   5.726  0.9222 -0.1318 -1.3074
   85MOL0     C11115   6.288   9.030   5.674 -0.1256 -0.8543 -0.7669
   85MOL0     C11116   6.288   8.912   5.759  0.1244 -0.7505 -0.7088
   85MOL0     C11117   6.318   8.785   5.710  0.1771  0.3138 -0.0523
   85MOL0     O11118   6.312   8.681   5.787  0.2760  1.0888 -0.4812
   85MOL0     C11119   6.388   8.567   5.769  0.3450  0.6282  0.3965
   85MOL0     C11120   6.532   8.568   5.761 -0.5743  0.8538  0.2465
   85MOL0     C11121   6.610   8.448   5.744  0.1435 -1.3133  1.3552
   85MOL0     C11122   6.551   8.328   5.722  0.0499 -1.1255  0.2385
   85MOL0     O11123   6.625   8.223   5.688  0.5522  0.7358  0.2776
   85MOL0     C11124   6.638   8.109   5.764  0.3088  0.6835 -0.4828
   85MOL0     C11125   6.775   8.041   5.730  0.2421  0.2266 -0.1943
   85MOL0     C11126   6.886   8.149   5.706 -0.1540  0.4918  0.1068
   85MOL0     C11127   6.905   8.243   5.815 -0.3657  0.4355  0.9122
   85MOL0     C11128   7.037   8.323   5.802  0.2631 -0.4031  0.1257
   85MOL0     C11129   7.082   8.384   5.929  0.5166 -0.3125 -0.1380
   85MOL0     C11130   7.207   8.469   5.912 -0.1847  0.0922 -0.5474
   85MOL0     C11131   7.243   8.568   6.019 -0.0620  0.9721 -0.4403
   85MOL0    Cl11132   7.250   8.501   6.183 -0.2848 -0.0478 -0.1056
   85MOL0     C11133   6.412   8.330   5.722 -0.2055 -0.3456  1.1894
   85MOL0     C11134   6.329   8.445   5.736 -0.3995 -0.0435 -0.4806
   85MOL0     O11135   6.337   8.775   5.590  0.1914 -0.4490  0.6570
   85MOL0     C11136   6.239   8.935   5.889  0.4897 -1.2385 -0.7699
   85MOL0     C11137   6.209   9.065   5.940  0.7045 -0.5081  0.1827
   85MOL0     N11138   5.787   8.905   5.842  0.3550  0.6441 -0.0800
   85MOL0     N11139   5.813   8.805   5.762 -0.3569 -0.2292  0.0997
   85MOL0     C11140   4.908   9.045   5.096  0.2630  0.0307  1.0377
   85MOL0     C11141   4.876   9.169   5.149 -1.0519  0.6711  0.7892
   85MOL0     C11142   4.764   9.540   5.390  0.5141  0.6679  0.6723
   85MOL0     C11143   4.731   9.671   5.346  0.0191 -0.1054  0.7446
   85MOL0     C11144   4.702   9.778   5.429  0.7285 -0.2294  1.1204
   85MOL0     C11145   4.720   9.761   5.567  0.3785  0.1337 -0.3759
   85MOL0     O11146   4.702   9.869   5.650  0.1651 -0.2657 -1.3452
   85MOL0     C11147   4.654   9.854   5.785 -0.7463  0.3767  0.2785
   85MOL0     C11148   4.594   9.976   5.838  0.4755 -0.1288 -0.7625
   85MOL0     C11149   4.447  10.007   5.784  0.5497  0.0808  0.5394
   85MOL0     C11150   4.416  10.153   5.795  0.8173  0.8785  0.2178
   85MOL0     C11151   4.512  10.227   5.723 -0.1358 -0.0174 -0.0944
   85MOL0     C11152   4.587  10.261   5.640  0.3592 -0.2879  1.1865
   85MOL0     C11153   4.733   9.631   5.613  0.3517  0.0898  0.9180
   85MOL0     C11154   4.756   9.520   5.532  0.3559 -0.7751  0.3347
   85MOL0     H11155   4.831   9.117   5.466  1.0368  3.2446 -0.4383
   85MOL0     H11156   4.940   8.878   5.379  0.7784  1.8769  1.5018
   85MOL0     H11157   5.142   8.745   5.273  1.9852 -0.2022  0.0038
   85MOL0     H11158   5.178   8.914   5.224  1.8441  0.2645 -2.2098
   85MOL0     H11159   5.269   8.858   5.023  5.1420 -0.9223 -0.7500
   85MOL0     H11160   5.206   8.685   5.041  1.4506 -0.8744  0.2371
   85MOL0     H11161   5.442   8.702   5.088  1.9133 -1.1322  1.1634
   85MOL0     H11162   5.351   8.658   5.241  2.3506  0.2397  0.4903
   85MOL0     H11163   5.439   8.931   5.179  0.5393  0.4659  0.3421
   85MOL0     H11164   5.378   8.888   5.326  1.2222  5.0567 -1.5503
   85MOL0     H11165   5.649   8.891   5.300  1.0258 -0.9950 -1.9349
   85MOL0     H11166   5.612   8.734   5.238  2.3851 -0.7047  1.8537
   85MOL0     H11167   5.476   8.722   5.472  0.3352 -0.2953  0.6225
   85MOL0     H11168   5.567   8.875   5.513  0.7519  0.5165 -0.8197
   85MOL0     H11169   5.664   8.653   5.602  3.9837  2.3869  1.9809
   85MOL0     H11170   5.711   8.604   5.430  0.4905  0.4993 -1.5532
   85MOL0     H11171   5.862   8.813   5.444 -0.8939  0.4204  0.1019
   85MOL0     H11172   5.888   8.667   5.551  2.4149  1.5005  1.1493
   85MOL0     H11173   5.821   9.048   5.548 -1.0536  4.1284  2.0932
   85MOL0     H11174   5.711   9.143   5.908  1.9546  1.2476  0.7833
   85MOL0     H11175   5.675   9.207   5.751  0.5582  1.1039 -1.0182
   85MOL0     H11176   5.856   9.350   5.808 -2.1593 -0.1283  2.4478
   85MOL0     H11177   5.957   9.201   5.745 -0.4432 -0.5073  0.7377
   85MOL0     H11178   5.881   9.232   6.037  0.3461 -0.9272  1.4461
   85MOL0     H11179   5.976   9.107   5.963 -0.8965  0.0490 -0.7384
   85MOL0     H11180   6.124   9.297   6.085  1.5884  3.1851 -0.8795
   85MOL0     H11181   6.040   9.415   5.996 -1.6714 -0.1141 -0.8520
   85MOL0     H11182   6.301   9.241   5.657 -2.1516  1.7698 -0.5170
   85MOL0     H11183   6.310   9.009   5.570 -0.7726  0.6973 -1.2364
   85MOL0     H11184   6.578   8.666   5.768  0.1112  0.9951 -3.8067
   85MOL0     H11185   6.718   8.450   5.741  0.1358  0.7909  1.0085
   85MOL0     H11186   6.562   8.047   5.715 -0.4311 -2.1712  3.7013
   85MOL0     H11187   6.604   8.115   5.868  2.7620  0.2209  0.4138
   85MOL0     H11188   6.765   7.981   5.639 -0.8634  0.0890  0.0011
   85MOL0     H11189   6.810   7.972   5.807  0.9233 -0.2995 -0.9650
   85MOL0     H11190   6.863   8.199   5.611  2.9438 -0.5264 -1.3090
   85MOL0     H11191   6.982   8.101   5.683 -0.2410  0.3617  0.0086
   85MOL0     H11192   6.818   8.304   5.841  0.6392  1.3853  2.2038
   85MOL0     H11193   6.920   8.173   5.898  1.0063  0.2204  0.5021
   85MOL0     H11194   7.013   8.401   5.728 -3.6552  0.6713  2.2386
   85MOL0     H11195   7.111   8.250   5.769  1.6101  0.7156  0.6035
   85MOL0     H11196   7.111   8.310   6.005  2.1589  3.2899  3.0656
   85MOL0     H11197   7.002   8.443   5.974 -1.8062 -1.9670 -1.8598
   85MOL0     H11198   7.295   8.403   5.914  0.0367  0.4056  1.2446
   85MOL0     H11199   7.192   8.512   5.813  1.5040  1.2758 -0.3390
   85MOL0     H11200   7.162   8.642   6.019 -0.2458  0.7788  0.2316
   85MOL0     H11201   7.340   8.609   5.990  0.9595  1.1496  2.8512
   85MOL0     H11202   6.374   8.231   5.700 -1.5669  0.4933 -0.4454
   85MOL0     H11203   6.221   8.453   5.739 -0.2150  3.6100  2.6913
   85MOL0     H11204   6.227   8.845   5.950  1.3457  0.3159  1.8613
   85MOL0     H11205   6.180   9.084   6.042  1.8749  3.8546 -0.1064
   85MOL0     H11206   4.945   9.041   4.994  0.4173 -0.3259  1.1043
   85MOL0     H11207   4.882   9.251   5.078  3.6859 -0.0001  0.0686
   85MOL0     H11208   4.728   9.687   5.239  4.2774 -2.6883  0.0088
   85MOL0     H11209   4.660   9.865   5.380  2.0413 -0.9282 -1.4002
   85MOL0     H11210   4.744   9.836   5.844 -0.4748  2.1070  0.4426
   85MOL0     H11211   4.590   9.766   5.792  1.8996 -1.7200 -0.1744
   85MOL0     H11212   4.600   9.966   5.946 -0.0731 -2.5890 -0.8970
   85MOL0     H11213   4.663  10.057   5.811  0.9482  0.2536  1.3963
   85MOL0     H11214   4.374   9.939   5.828 -0.3142  0.2740 -0.5549
   85MOL0     H11215   4.442   9.984   5.677 -2.5295 -2.1454  1.0327
   85MOL0     H11216   4.308  10.164   5.777  0.5479 -0.1100  1.1457
   85MOL0     H11217   4.418  10.170   5.903 -0.4776  1.1957  0.2134
   85MOL0     H11218   4.655  10.292   5.564 -1.6020  0.7463 -0.2652
   85MOL0     H11219   4.734   9.611   5.719 -3.1856 -2.3223  0.6735
   85MOL0     H11220   4.775   9.420   5.571 -2.1386 -0.3719  2.9907
   86MOL0     O11221   7.894   8.435   7.338 -0.6039 -0.5987  0.0556
   86MOL0     C11222   7.913   8.321   7.390 -0.5147 -0.3233  1.1760
   86MOL0     O11223   7.950   8.212   7.324  0.2590 -0.2367  0.8770
   86MOL0     C11224   7.913   8.175   7.195  0.0899 -0.8666  0.0337
   86MOL0     C11225   7.821   8.239   7.107  0.4124 -0.4260  0.0494
   86MOL0     C11226   7.818   8.206   6.975 -0.5282  0.4004 -0.8476
   86MOL0     C11227   7.903   8.108   6.926  0.0960 -0.0142  0.5605
   86MOL0     O11228   7.880   8.071   6.796  0.6420  0.1121 -0.6945
   86MOL0     C11229   7.988   8.093   6.707  0.7377 -0.0918  0.4476
   86MOL0     C11230   7.952   8.046   6.566 -1.1086 -0.1861  0.3746
   86MOL0     C11231   7.916   7.896   6.539  0.2865 -0.0353 -0.3039
   86MOL0     C11232   8.053   7.819   6.569  0.0615  0.4355  0.9847
   86MOL0     C11233   8.066   7.703   6.465  0.3377 -0.6863 -1.1251
   86MOL0     C11234   8.159   7.599   6.524 -0.2479 -0.2095  0.2987
   86MOL0     C11235   8.167   7.463   6.448 -0.1256 -0.6614  0.4190
   86MOL0     C11236   8.251   7.365   6.536 -0.3922  0.0831  0.0271
   86MOL0     N11237   8.309   7.256   6.446 -0.3597  0.3061 -0.2316
   86MOL0     C11238   8.233   7.172   6.361  0.5635  0.0162  0.8832
   86MOL0     C11239   8.328   7.090   6.314 -0.3815  0.5583  0.0907
   86MOL0     C11240   8.318   7.000   6.205 -0.2404  0.4954  1.1413
   86MOL0     C11241   8.303   6.858   6.265  0.9441  0.8089 -0.4006
   86MOL0     C11242   8.370   6.739   6.209  0.5516  0.5418  0.2284
   86MOL0     C11243   8.525   6.756   6.194  1.3045  0.0271 -0.6928
   86MOL0     O11244   8.585   6.629   6.168 -0.5109  0.3227 -0.3703
   86MOL0     C11245   8.659   6.575   6.275 -0.0465  0.6414 -0.6858
   86MOL0     C11246   8.763   6.485   6.252  0.1692  1.1846  0.4576
   86MOL0     C11247   8.832   6.422   6.350 -0.3989  0.4602  0.4520
   86MOL0     C11248   8.808   6.440   6.485  0.0375 -0.1172  0.7079
   86MOL0     C11249   8.897   6.373   6.581  0.2401 -0.9349 -0.4560
   86MOL0     O11250   8.830   6.350   6.692  0.7521  0.3716 -0.1079
   86MOL0     C11251   8.875   6.258   6.785 -0.8010 -0.9844 -0.8175
   86MOL0     C11252   8.823   6.136   6.802 -0.7223  0.5588 -0.2583
   86MOL0     C11253   8.868   6.044   6.909  0.5031 -0.0537 -0.4131
   86MOL0     C11254   8.976   6.078   6.996  0.9028  0.1671  0.9282
   86MOL0     O11255   9.041   5.986   7.080 -0.2700 -0.2284 -0.8245
   86MOL0     C11256   9.172   6.007   7.137 -0.4374 -0.6103  0.7194
   86MOL0     C11257   9.250   5.881   7.160 -0.0894  0.7028  0.4883
   86MOL0     C11258   9.189   5.807   7.283  0.0877  1.3719  1.0028
   86MOL0     C11259   9.279   5.742   7.386  0.1390 -0.1115 -0.2471
   86MOL0     C11260   9.362   5.849   7.460 -0.9053  0.5327 -0.1994
   86MOL0     C11261   9.444   5.776   7.565 -0.2523 -0.1447 -0.6572
   86MOL0     C11262   9.354   5.726   7.681 -0.3720  0.2107  0.2101
   86MOL0     C11263   9.446   5.692   7.794 -0.4294  0.9836 -0.2281
   86MOL0    Cl11264   9.354   5.656   7.941  0.2150 -0.0738  0.0050
   86MOL0     C11265   9.021   6.209   6.983 -0.6663 -0.0112  0.7928
   86MOL0     C11266   8.969   6.298   6.883  0.4660 -0.4158  0.0260
   86MOL0     O11267   9.012   6.338   6.562 -0.0214 -0.3414  0.4155
   86MOL0     C11268   8.701   6.526   6.512  1.2443 -0.2293 -0.2327
   86MOL0     C11269   8.634   6.590   6.410  0.2816 -0.3993 -0.3699
   86MOL0     N11270   8.445   7.115   6.374  0.0950  0.9631 -0.0356
   86MOL0     N11271   8.423   7.201   6.468  0.0363 -0.3955 -0.0945
   86MOL0     C11272   7.998   8.043   7.009  0.1980 -0.0334 -0.2980
   86MOL0     C11273   7.999   8.076   7.141 -0.0014 -0.6943  0.0761
   86MOL0     C11274   7.887   8.303   7.531  1.1093  0.0285 -0.2317
   86MOL0     C11275   7.955   8.366   7.632 -1.1995 -0.0058 -1.0341
   86MOL0     C11276   7.964   8.328   7.764  0.1129  0.3647  0.2314
   86MOL0     C11277   7.888   8.208   7.800 -0.7012  0.5758  0.2728
   86MOL0     O11278   7.892   8.181   7.930  0.0947 -1.5206 -0.0899
   86MOL0     C11279   7.891   8.049   7.971  0.0297  0.1691  0.6223
   86MOL0     C11280   7.948   8.054   8.112 -0.1613  0.1398  0.0564
   86MOL0     C11281   7.849   8.121   8.213 -1.0231 -0.3832  0.3982
   86MOL0     C11282   7.725   8.035   8.228  0.9380  0.0975  0.0586
   86MOL0     C11283   7.750   7.902   8.279 -0.3924  1.3367 -0.2078
   86MOL0     C11284   7.778   7.790   8.310 -0.0309 -0.5191  0.0123
   86MOL0     C11285   7.811   8.147   7.703  0.4158 -0.5432  0.6980
   86MOL0     C11286   7.819   8.187   7.569 -0.5235  0.2808 -0.2285
   86MOL0     H11287   7.748   8.314   7.139 -0.9114 -0.5860 -2.3297
   86MOL0     H11288   7.743   8.236   6.902 -1.5514 -1.2497 -0.5487
   86MOL0     H11289   8.065   8.027   6.746 -1.8120 -2.1694  2.3781
   86MOL0     H11290   8.028   8.195   6.710  2.2592 -0.4654 -3.0530
   86MOL0     H11291   8.045   8.082   6.520 -0.7627  1.3550  2.1454
   86MOL0     H11292   7.867   8.102   6.525  0.6896  1.6719 -1.0824
   86MOL0     H11293   7.874   7.882   6.438 -0.6628  0.8134 -0.0482
   86MOL0     H11294   7.835   7.857   6.601  1.0367 -1.0023  0.0931
   86MOL0     H11295   8.140   7.883   6.550 -0.5303  0.8002 -0.6347
   86MOL0     H11296   8.062   7.791   6.675 -0.5862  0.2808  1.0013
   86MOL0     H11297   8.109   7.733   6.369 -0.9640  1.2154 -1.1804
   86MOL0     H11298   7.970   7.659   6.434  0.6390 -1.2648 -1.2426
   86MOL0     H11299   8.124   7.569   6.623  0.5710 -2.6981 -0.1019
   86MOL0     H11300   8.258   7.643   6.542 -0.1753 -0.1847 -0.1459
   86MOL0     H11301   8.063   7.438   6.425  0.0644  1.0732 -3.0383
   86MOL0     H11302   8.221   7.483   6.355 -0.3319 -2.4809 -0.1314
   86MOL0     H11303   8.183   7.311   6.602  0.6224 -1.8003 -0.4083
   86MOL0     H11304   8.332   7.416   6.588  1.4462 -2.7887  0.2056
   86MOL0     H11305   8.128   7.182   6.336  1.1106 -0.6436 -1.9487
   86MOL0     H11306   8.411   6.983   6.150 -1.7164 -0.8010 -1.0522
   86MOL0     H11307   8.230   7.020   6.144 -0.6321  0.5847  1.7227
   86MOL0     H11308   8.196   6.834   6.265  1.5746 -3.0298  2.5171
   86MOL0     H11309   8.319   6.852   6.373 -0.5724 -0.0349 -0.1896
   86MOL0     H11310   8.360   6.653   6.276  0.0767  1.6641  1.6578
   86MOL0     H11311   8.322   6.704   6.118 -1.2756 -1.2024  1.7571
   86MOL0     H11312   8.563   6.818   6.276 -0.4122 -0.4135  0.4876
   86MOL0     H11313   8.534   6.814   6.102 -1.1905 -0.9799 -1.6315
   86MOL0     H11314   8.791   6.459   6.151 -0.6240 -3.0810  1.1809
   86MOL0     H11315   8.919   6.370   6.310 -1.0452  0.6516 -1.3188
   86MOL0     H11316   8.754   6.109   6.723 -0.7511 -0.3924  0.0794
   86MOL0     H11317   8.815   5.950   6.910 -1.9367  1.1379 -3.2469
   86MOL0     H11318   9.162   6.071   7.226 -2.7802  1.1225 -0.6782
   86MOL0     H11319   9.231   6.061   7.063  3.2087 -2.3089  2.1440
   86MOL0     H11320   9.350   5.913   7.187  0.8273 -2.0423  0.7041
   86MOL0     H11321   9.251   5.814   7.073  1.1765 -0.6264  1.4654
   86MOL0     H11322   9.120   5.733   7.242  0.4090  0.1171  2.6171
   86MOL0     H11323   9.122   5.880   7.328 -2.6279  0.8341 -1.8404
   86MOL0     H11324   9.208   5.687   7.448 -0.4948  0.5960 -0.3355
   86MOL0     H11325   9.343   5.674   7.329 -1.3486  0.6211 -2.9476
   86MOL0     H11326   9.296   5.922   7.507 -0.0907  1.4901 -0.5219
   86MOL0     H11327   9.429   5.900   7.390 -0.8222 -0.7558 -1.1049
   86MOL0     H11328   9.525   5.840   7.599 -1.4811 -0.3212  3.0827
   86MOL0     H11329   9.491   5.693   7.513  1.4952 -0.2646  0.9926
   86MOL0     H11330   9.285   5.801   7.722  0.4751  1.7369 -1.0420
   86MOL0     H11331   9.291   5.639   7.659  0.8376  0.0540 -3.2022
   86MOL0     H11332   9.515   5.775   7.810  1.1495 -0.2132 -0.5199
   86MOL0     H11333   9.501   5.599   7.777 -2.4598 -0.3131 -0.0264
   86MOL0     H11334   9.092   6.248   7.056  0.2898 -2.2973  1.1678
   86MOL0     H11335   9.005   6.399   6.872 -0.2603  0.0174  1.3850
   86MOL0     H11336   8.669   6.551   6.613  1.9346 -0.1106 -0.0400
   86MOL0     H11337   8.541   6.632   6.448 -1.0121 -2.6683 -0.8005
   86MOL0     H11338   8.074   7.982   6.960 -0.1049  1.8748 -3.3990
   86MOL0     H11339   8.072   8.024   7.203 -1.5263 -2.7745  0.2207
   86MOL0     H11340   8.022   8.450   7.613  0.3228 -0.7819  0.6386
   86MOL0     H11341   8.039   8.376   7.825 -2.2165  1.8149  2.1376
   86MOL0     H11342   7.955   7.983   7.911 -1.8231 -2.4360  1.3051
   86MOL0     H11343   7.796   7.994   7.979  1.0997 -2.6096 -3.0044
   86MOL0     H11344   7.966   7.952   8.147  0.7188  0.3684  0.2983
   86MOL0     H11345   8.047   8.100   8.105 -0.6109  0.8783 -2.1752
   86MOL0     H11346   7.823   8.221   8.179  0.9875 -1.0837 -3.8082
   86MOL0     H11347   7.900   8.121   8.310 -2.2537  1.2957  1.0869
   86MOL0     H11348   7.654   8.087   8.293 -0.9758 -0.1498 -1.7299
   86MOL0     H11349   7.660   8.023   8.141 -1.2994  2.0259  1.3512
   86MOL0     H11350   7.807   7.686   8.312 -0.3942 -0.6387 -0.6599
   86MOL0     H11351   7.729   8.077   7.714 -0.4309 -0.1098 -2.0196
   86MOL0     H11352   7.764   8.120   7.504  0.1370 -2.3633  1.7708
   87MOL0     O11353   0.723   5.874   8.532 -0.7284  0.0311  0.3889
   87MOL0     C11354   0.692   5.935   8.428  0.1620  0.5690 -0.2294
   87MOL0     O11355   0.701   6.070   8.410  0.9772  1.0765 -0.5578
   87MOL0     C11356   0.715   6.149   8.526  0.5375  0.1856  0.2141
   87MOL0     C11357   0.801   6.130   8.640  0.0543 -0.6361  0.5570
   87MOL0     C11358   0.813   6.232   8.737  0.4457 -0.0759 -0.3270
   87MOL0     C11359   0.748   6.352   8.714 -0.0647 -0.9723  0.2780
   87MOL0     O11360   0.785   6.452   8.794 -0.4231  0.3658  0.4634
   87MOL0     C11361   0.712   6.575   8.794 -0.1893 -0.0921 -0.6334
   87MOL0     C11362   0.788   6.648   8.907  0.2160  0.3138 -0.2904
   87MOL0     C11363   0.920   6.708   8.850  0.7414 -0.5649  0.0196
   87MOL0     C11364   1.001   6.766   8.971  0.1878 -0.5534 -0.1791
   87MOL0     C11365   1.139   6.800   8.938  0.2542 -0.0815  1.5345
   87MOL0     C11366   1.200   6.848   9.074  0.1958 -0.5748 -0.3025
   87MOL0     C11367   1.354   6.889   9.065 -0.3893 -0.1572  0.8733
   87MOL0     C11368   1.394   6.957   8.942 -0.3635  0.1842  0.2772
   87MOL0     N11369   1.400   7.101   8.959  0.4747 -0.0721 -0.3274
   87MOL0     C11370   1.293   7.188   8.971  1.0791  0.5311 -0.6530
   87MOL0     C11371   1.343   7.310   8.971  0.1010 -1.6225  0.7731
   87MOL0     C11372   1.255   7.438   8.975  0.2113  0.6668 -1.3155
   87MOL0     C11373   1.283   7.541   9.078  0.0566  0.2697 -0.6751
   87MOL0     C11374   1.278   7.488   9.210  0.4284 -0.3322 -0.0434
   87MOL0     C11375   1.302   7.585   9.322 -0.3657  0.0059  0.4768
   87MOL0     O11376   1.284   7.526   9.446  0.2824 -0.2145 -0.6458
   87MOL0     C11377   1.337   7.587   9.556 -0.5885 -0.0183 -0.4371
   87MOL0     C11378   1.399   7.709   9.562 -0.1246 -0.9084 -0.4179
   87MOL0     C11379   1.444   7.766   9.684 -0.6027 -0.4652 -0.8352
   87MOL0     C11380   1.433   7.685   9.807  1.0580 -0.2533 -0.1991
   87MOL0     C11381   1.487   7.734   9.934  0.0068 -1.1274 -0.4294
   87MOL0     O11382   1.479   7.870   9.949 -0.3917 -0.8532 -0.2241
   87MOL0     C11383   1.487   7.922  10.081  0.0058  0.0974 -0.2059
   87MOL0     C11384   1.613   7.937  10.143 -0.7127 -0.5842 -0.5628
   87MOL0     C11385   1.621   7.987  10.276  0.0174  1.1359 -0.5643
   87MOL0     C11386   1.508   8.039  10.334  0.3664 -0.9291 -1.1713
   87MOL0     O11387   1.527   8.114  10.454  0.3010  0.5444 -0.5639
   87MOL0     C11388   1.438   8.220  10.493  0.4737  0.8675 -0.6608
   87MOL0     C11389   1.495   8.300  10.612 -0.4298 -0.3569 -0.1210
   87MOL0     C11390   1.579   8.408  10.547 -0.3732 -0.0575  0.5828
   87MOL0     C11391   1.640   8.493  10.663 -0.3695  0.5746 -0.1211
   87MOL0     C11392   1.686   8.624  10.611 -0.1696  0.6221  0.6704
   87MOL0     C11393   1.769   8.611  10.489  0.1626 -0.4839  0.7014
   87MOL0     C11394   1.832   8.746  10.468 -0.5815  0.3708 -0.2510
   87MOL0     C11395   1.931   8.766  10.351  1.5673 -0.1314  0.4714
   87MOL0    Cl11396   2.090   8.735  10.402  0.2516 -0.0688 -0.0584
   87MOL0     C11397   1.395   8.030  10.269  0.9191  0.2037 -0.3178
   87MOL0     C11398   1.373   7.965  10.146 -0.9241  0.1344  0.1764
   87MOL0     O11399   1.502   7.657  10.023  0.4479 -0.4565 -0.0627
   87MOL0     C11400   1.365   7.563   9.794  0.2079  0.2639  0.4021
   87MOL0     C11401   1.323   7.510   9.679 -0.6142  0.8723  0.4093
   87MOL0     N11402   1.481   7.298   8.956  0.3722 -0.8760  0.1232
   87MOL0     N11403   1.511   7.176   8.942 -0.1771 -0.4680 -0.1226
   87MOL0     C11404   0.671   6.374   8.595 -0.0609  0.9598  0.7531
   87MOL0     C11405   0.641   6.263   8.515 -0.5044 -1.3689  0.2687
   87MOL0     C11406   0.646   5.857   8.311  0.8445 -1.0913 -0.5050
   87MOL0     C11407   0.693   5.734   8.282  0.3186  0.1442  0.1278
   87MOL0     C11408   0.670   5.658   8.167  0.0214  0.7459 -0.5976
   87MOL0     C11409   0.575   5.708   8.083  0.1892  0.9340 -0.6919
   87MOL0     O11410   0.530   5.622   7.989 -0.5692  0.0143 -0.1487
   87MOL0     C11411   0.519   5.669   7.855  0.8375 -0.0174  0.9345
   87MOL0     C11412   0.483   5.559   7.754 -1.1748  0.0369  0.5364
   87MOL0     C11413   0.512   5.588   7.606  0.6014  0.5742 -1.3032
   87MOL0     C11414   0.655   5.548   7.560 -0.2255 -0.2847  0.5425
   87MOL0     C11415   0.676   5.405   7.588  0.3109  0.9292  0.1170
   87MOL0     C11416   0.681   5.285   7.605  0.4991  0.4588  0.4702
   87MOL0     C11417   0.514   5.830   8.108  0.5228 -0.1829 -0.0682
   87MOL0     C11418   0.556   5.906   8.221 -0.7309 -0.3507 -0.2050
   87MOL0     H11419   0.855   6.038   8.662  1.7326  0.0582 -0.4954
   87MOL0     H11420   0.878   6.221   8.823 -1.0697  2.5667  1.2492
   87MOL0     H11421   0.611   6.562   8.835 -0.4385 -0.8930 -1.4801
   87MOL0     H11422   0.700   6.632   8.702 -1.4156  0.9165  0.1119
   87MOL0     H11423   0.797   6.580   8.992 -1.0824 -0.4603 -0.7341
   87MOL0     H11424   0.728   6.730   8.948 -1.9366 -2.4013  2.4291
   87MOL0     H11425   0.897   6.790   8.782 -1.1310 -0.0718  1.1575
   87MOL0     H11426   0.974   6.627   8.800  0.8400  0.4608 -1.6272
   87MOL0     H11427   0.952   6.863   8.985  1.7457  0.7453 -2.8808
   87MOL0     H11428   0.997   6.702   9.059  1.3792 -0.3893  0.0101
   87MOL0     H11429   1.156   6.876   8.861  1.5645  2.3634  4.0535
   87MOL0     H11430   1.186   6.710   8.896 -0.5883 -0.6996  1.8849
   87MOL0     H11431   1.185   6.783   9.161 -2.1929  0.5897  0.2656
   87MOL0     H11432   1.151   6.943   9.098 -0.4342 -0.4845 -1.8270
   87MOL0     H11433   1.393   6.937   9.155  0.7034 -0.4567  0.5716
   87MOL0     H11434   1.404   6.792   9.054  1.7907  1.1431 -2.1408
   87MOL0     H11435   1.343   6.931   8.849  1.4142  0.1547 -0.7543
   87MOL0     H11436   1.501   6.935   8.930 -0.1192  2.3171 -2.2107
   87MOL0     H11437   1.191   7.153   8.984 -0.0227  3.2994 -1.1388
   87MOL0     H11438   1.150   7.408   8.982  0.2243  0.3893 -2.1856
   87MOL0     H11439   1.270   7.494   8.882 -0.9301  2.2307 -0.6014
   87MOL0     H11440   1.214   7.626   9.068 -1.8170 -1.1204 -0.0911
   87MOL0     H11441   1.387   7.570   9.060  0.0029 -0.3808 -2.1494
   87MOL0     H11442   1.177   7.450   9.224  0.4938 -0.4282  0.1679
   87MOL0     H11443   1.352   7.410   9.230 -0.1051 -0.9538 -0.4610
   87MOL0     H11444   1.222   7.658   9.312 -2.5250 -2.5750 -4.1305
   87MOL0     H11445   1.401   7.630   9.305 -0.1100  0.0095  1.8412
   87MOL0     H11446   1.407   7.771   9.473 -1.2486  1.9444  1.3140
   87MOL0     H11447   1.486   7.866   9.689 -1.6022 -0.1016  2.5057
   87MOL0     H11448   1.712   7.923  10.101  1.9580  3.9810  3.2237
   87MOL0     H11449   1.707   8.005  10.340  0.3784  2.4236 -1.3897
   87MOL0     H11450   1.347   8.174  10.532  1.9155 -0.1590  1.7203
   87MOL0     H11451   1.418   8.284  10.406 -0.9911 -3.7098 -4.0316
   87MOL0     H11452   1.547   8.226  10.674 -2.0698 -0.2997  1.4090
   87MOL0     H11453   1.416   8.340  10.676  1.5005 -1.7508  3.4182
   87MOL0     H11454   1.515   8.465  10.479 -1.3281 -1.0551  0.5982
   87MOL0     H11455   1.651   8.355  10.484 -1.9501 -0.6079 -0.8330
   87MOL0     H11456   1.576   8.529  10.743 -0.0474  1.3135 -0.1921
   87MOL0     H11457   1.713   8.433  10.720 -4.7961 -0.8433  4.8583
   87MOL0     H11458   1.747   8.668  10.690  1.9939 -1.7111  0.4219
   87MOL0     H11459   1.601   8.689  10.590  0.3330  0.6352 -1.6210
   87MOL0     H11460   1.708   8.592  10.401 -1.5525 -1.7888  2.0909
   87MOL0     H11461   1.850   8.538  10.503 -1.1079 -1.8891  0.9620
   87MOL0     H11462   1.756   8.825  10.467 -0.4115  0.5662  0.9842
   87MOL0     H11463   1.895   8.759  10.556  0.0321 -1.7594 -0.3094
   87MOL0     H11464   1.923   8.865  10.305  4.4185 -0.6309 -1.3471
   87MOL0     H11465   1.900   8.699  10.270  0.4539  1.6858 -0.6711
   87MOL0     H11466   1.303   8.062  10.317 -1.6905 -3.4228 -2.3747
   87MOL0     H11467   1.272   7.963  10.107 -0.2139 -1.5838 -1.7473
   87MOL0     H11468   1.337   7.498   9.876  0.1396  0.5737  0.6279
   87MOL0     H11469   1.276   7.413   9.677  2.6482 -0.8796 -2.3818
   87MOL0     H11470   0.622   6.470   8.582  1.3793  1.6337  0.0080
   87MOL0     H11471   0.578   6.276   8.427 -1.9815 -3.2577  0.9768
   87MOL0     H11472   0.760   5.695   8.357  1.0998  0.7224 -0.2612
   87MOL0     H11473   0.701   5.554   8.159 -1.2269  0.3723 -0.8174
   87MOL0     H11474   0.610   5.724   7.829  1.0984 -0.7430  0.2590
   87MOL0     H11475   0.429   5.730   7.845 -0.3020 -1.6406  0.9803
   87MOL0     H11476   0.538   5.469   7.782  2.9039  1.5828 -1.6604
   87MOL0     H11477   0.377   5.544   7.775 -0.6354 -2.0144  2.1591
   87MOL0     H11478   0.479   5.690   7.586  0.3492  0.9118  0.6779
   87MOL0     H11479   0.452   5.515   7.551 -0.6166 -0.8361  1.6693
   87MOL0     H11480   0.665   5.562   7.452 -1.8706 -0.3487  0.3658
   87MOL0     H11481   0.728   5.603   7.621  1.3742 -1.4907 -0.2204
   87MOL0     H11482   0.676   5.178   7.609  0.3514  0.3901 -1.0479
   87MOL0     H11483   0.448   5.875   8.035  0.5484 -3.8149 -2.5912
   87MOL0     H11484   0.528   6.009   8.241  1.0237  0.4088 -1.3990
   88MOL0     O11485   9.702   8.596   5.898 -0.0175 -0.7277  0.2749
   88MOL0     C11486   9.781   8.578   5.806 -0.2222 -0.5206 -0.1270
   88MOL0     O11487   9.889   8.494   5.811 -0.6707  0.4843 -0.3082
   88MOL0     C11488   9.926   8.428   5.923 -0.3488  0.8009 -0.3828
   88MOL0     C11489   9.833   8.363   6.008  0.1107  0.5271 -0.4256
   88MOL0     C11490   9.880   8.289   6.119 -0.5202  0.3304  0.1377
   88MOL0     C11491  10.017   8.268   6.140  1.2514  0.4925 -0.0777
   88MOL0     O11492  10.061   8.185   6.238 -0.3271  0.9303 -0.0045
   88MOL0     C11493  10.084   8.259   6.363  0.2103 -0.1531  0.6065
   88MOL0     C11494  10.167   8.178   6.459  0.5600  0.6354  0.2235
   88MOL0     C11495  10.321   8.185   6.433  0.1153  0.2864  0.1351
   88MOL0     C11496  10.389   8.301   6.501  0.1703 -0.0743  0.1325
   88MOL0     C11497  10.424   8.278   6.649  0.0538 -0.5031  0.6084
   88MOL0     C11498  10.493   8.409   6.713 -0.0427 -1.1716  0.2620
   88MOL0     C11499  10.518   8.385   6.863 -0.1137 -0.5352 -0.0626
   88MOL0     C11500  10.641   8.464   6.926  0.7841  0.4583  1.2916
   88MOL0     N11501  10.651   8.447   7.067  0.3142  0.1708  0.5608
   88MOL0     C11502  10.575   8.513   7.166 -0.0019  0.6015  0.4329
   88MOL0     C11503  10.625   8.481   7.286  0.3027 -0.1036 -0.5317
   88MOL0     C11504  10.564   8.521   7.412 -0.4617 -0.2201 -0.3792
   88MOL0     C11505  10.618   8.655   7.474  0.3533  1.0484  0.5182
   88MOL0     C11506  10.569   8.696   7.617 -0.1687 -0.7984  0.1556
   88MOL0     C11507  10.618   8.846   7.638  0.2499  0.3420  0.0735
   88MOL0     O11508  10.572   8.912   7.760 -0.0987  0.9953 -0.0032
   88MOL0     C11509  10.669   8.937   7.848 -0.5836  0.3002 -0.1518
   88MOL0     C11510  10.657   8.872   7.970 -0.1792 -0.0621  0.2473
   88MOL0     C11511  10.746   8.889   8.078 -0.0782 -0.4493 -0.0833
   88MOL0     C11512  10.844   8.984   8.064 -0.1391 -1.2018 -0.6448
   88MOL0     C11513  10.932   9.009   8.182  0.6033  0.0819  0.4427
   88MOL0     O11514  10.902   8.954   8.299  0.1032  0.4687 -0.2429
   88MOL0     C11515  10.972   8.986   8.414 -0.6615 -0.1771 -0.6380
   88MOL0     C11516  11.099   8.930   8.435  0.2819 -0.2822  0.7292
   88MOL0     C11517  11.178   8.951   8.551  0.2384  0.6502  0.3559
   88MOL0     C11518  11.120   9.021   8.657 -0.2610  0.0526  0.1534
   88MOL0     O11519  11.193   9.015   8.769 -0.1682 -0.0877 -0.1832
   88MOL0     C11520  11.162   9.098   8.881 -0.4989  0.2305  0.0454
   88MOL0     C11521  11.236   9.047   8.996  0.1242 -0.6173 -0.9732
   88MOL0     C11522  11.386   9.098   8.993 -0.3824  0.7769  0.1405
   88MOL0     C11523  11.457   9.024   9.102 -0.3678 -0.3675 -0.3517
   88MOL0     C11524  11.595   9.074   9.120  1.7066  0.2069 -0.0883
   88MOL0     C11525  11.664   9.019   9.249  0.0605 -0.2923 -0.1128
   88MOL0     C11526  11.716   8.878   9.232  0.0383  0.4178  0.3499
   88MOL0     C11527  11.677   8.782   9.350 -0.1283 -0.3914  0.1732
   88MOL0    Cl11528  11.716   8.853   9.514 -0.1635  0.1729  0.4916
   88MOL0     C11529  10.994   9.081   8.633  0.5427  0.0660 -0.2071
   88MOL0     C11530  10.916   9.054   8.512  1.1229 -0.3456  0.9251
   88MOL0     O11531  11.014   9.097   8.170  0.9264  0.2272  0.2693
   88MOL0     C11532  10.864   9.044   7.938 -0.4120  0.5008 -0.1978
   88MOL0     C11533  10.775   9.024   7.833 -0.2515  0.5975  0.0087
   88MOL0     N11534  10.736   8.401   7.263 -0.1603 -0.2026  0.2772
   88MOL0     N11535  10.761   8.390   7.136  0.7937  0.3123  0.7214
   88MOL0     C11536  10.104   8.315   6.048 -0.4734 -0.7524  0.4116
   88MOL0     C11537  10.062   8.403   5.948 -0.1059 -0.3254  0.4663
   88MOL0     C11538   9.752   8.632   5.668 -1.1846 -0.3801 -0.8838
   88MOL0     C11539   9.858   8.648   5.574  0.0919  0.2041 -0.1551
   88MOL0     C11540   9.840   8.677   5.442  0.2049  0.3483 -0.0516
   88MOL0     C11541   9.707   8.695   5.393 -0.4078  0.4700 -0.3899
   88MOL0     O11542   9.667   8.711   5.263 -0.6941  0.5606 -0.1371
   88MOL0     C11543   9.744   8.796   5.174  0.3531 -0.2869  0.3338
   88MOL0     C11544   9.655   8.863   5.066  0.6151  0.4756 -0.5083
   88MOL0     C11545   9.598   8.757   4.982  1.5087  1.1568 -0.4372
   88MOL0     C11546   9.468   8.706   5.038  0.9354 -0.1784 -0.5604
   88MOL0     C11547   9.421   8.610   4.941 -0.2472  0.1833  0.1114
   88MOL0     C11548   9.388   8.545   4.846 -0.4452  0.0168  0.1659
   88MOL0     C11549   9.604   8.676   5.476  0.6909 -0.6959 -0.4599
   88MOL0     C11550   9.628   8.661   5.617  0.2227  0.3615 -0.2524
   88MOL0     H11551   9.724   8.361   6.011  0.1017  0.8302 -0.4735
   88MOL0     H11552   9.804   8.253   6.188 -0.7742  1.9540  0.7576
   88MOL0     H11553   9.988   8.288   6.405  0.8520  0.2228  1.8650
   88MOL0     H11554  10.139   8.350   6.337  1.0316 -0.6489  0.5458
   88MOL0     H11555  10.142   8.071   6.453  0.8171  0.0148  5.4010
   88MOL0     H11556  10.129   8.201   6.559 -1.6383 -1.2274 -0.0957
   88MOL0     H11557  10.333   8.185   6.325  1.4835  1.6365  0.2614
   88MOL0     H11558  10.376   8.103   6.481  0.1386 -0.2360 -0.7722
   88MOL0     H11559  10.473   8.348   6.448  0.4636  1.4821  1.8881
   88MOL0     H11560  10.309   8.374   6.485 -0.9326 -1.8530 -3.6637
   88MOL0     H11561  10.509   8.208   6.655 -0.6734 -1.4902 -0.1841
   88MOL0     H11562  10.341   8.246   6.712  1.5730 -0.1533  2.9074
   88MOL0     H11563  10.437   8.502   6.703  0.7144 -0.5214  1.7045
   88MOL0     H11564  10.586   8.430   6.659 -1.6559 -0.4718 -2.4276
   88MOL0     H11565  10.423   8.396   6.916 -2.1163  4.7922 -3.8842
   88MOL0     H11566  10.553   8.281   6.867  1.0482 -0.1700 -0.3108
   88MOL0     H11567  10.650   8.571   6.904  2.1285  0.3543  1.2492
   88MOL0     H11568  10.731   8.430   6.875 -1.9021 -0.9625 -3.0855
   88MOL0     H11569  10.483   8.568   7.152  0.2663  1.0747  0.5162
   88MOL0     H11570  10.560   8.439   7.484 -0.3391  1.2329  1.3589
   88MOL0     H11571  10.464   8.540   7.372  0.8397  2.2345 -2.8438
   88MOL0     H11572  10.586   8.732   7.403 -0.1839  0.8864  0.5834
   88MOL0     H11573  10.727   8.659   7.472  0.4337 -0.7079  0.0588
   88MOL0     H11574  10.460   8.688   7.619 -0.2743 -1.0356 -2.5411
   88MOL0     H11575  10.600   8.621   7.690 -4.4956 -1.2651  1.7891
   88MOL0     H11576  10.595   8.912   7.553 -1.2816  2.0668  1.7172
   88MOL0     H11577  10.727   8.837   7.647  0.0483 -1.4610  1.2162
   88MOL0     H11578  10.569   8.809   7.977  0.1575 -0.3546  2.8456
   88MOL0     H11579  10.733   8.843   8.175  3.1585 -2.4722 -0.4388
   88MOL0     H11580  11.132   8.858   8.360  3.1997  1.7622 -0.1360
   88MOL0     H11581  11.279   8.914   8.567  0.2079 -0.5062 -1.7390
   88MOL0     H11582  11.054   9.092   8.898 -0.3471 -0.0593  0.9416
   88MOL0     H11583  11.188   9.202   8.856  0.7078  0.0906  0.6523
   88MOL0     H11584  11.229   8.939   9.007  2.4740 -0.5889  2.0230
   88MOL0     H11585  11.209   9.092   9.092  3.6173  1.4634 -0.7652
   88MOL0     H11586  11.393   9.207   9.000 -1.0993  1.1916 -3.6066
   88MOL0     H11587  11.423   9.073   8.893 -0.3885 -1.7361  0.6982
   88MOL0     H11588  11.406   9.021   9.198  1.1836 -0.1470  0.5117
   88MOL0     H11589  11.452   8.918   9.075 -0.3524 -0.7077  0.9206
   88MOL0     H11590  11.587   9.180   9.146  0.3255  0.1944 -0.4292
   88MOL0     H11591  11.649   9.041   9.031 -3.4230  0.0559 -3.5288
   88MOL0     H11592  11.596   9.036   9.333  0.5999 -0.5717  0.3834
   88MOL0     H11593  11.739   9.089   9.286 -1.5601  0.6803  1.4690
   88MOL0     H11594  11.673   8.832   9.142 -0.0330 -0.6432  0.9108
   88MOL0     H11595  11.824   8.885   9.220  0.1847 -0.2316  1.1762
   88MOL0     H11596  11.713   8.685   9.313  0.1005  1.5914 -6.0430
   88MOL0     H11597  11.569   8.773   9.336  0.2256 -0.8483 -3.2736
   88MOL0     H11598  10.949   9.139   8.714  1.0286  1.8420 -1.1573
   88MOL0     H11599  10.813   9.089   8.510  0.7039 -1.5224  0.1439
   88MOL0     H11600  10.938   9.122   7.924  1.1524 -0.5213  1.9289
   88MOL0     H11601  10.790   9.073   7.738  2.3359 -1.3151 -0.6876
   88MOL0     H11602  10.210   8.313   6.072 -0.1591  0.1845 -0.7925
   88MOL0     H11603  10.140   8.451   5.890 -1.6747  4.2357  1.7700
   88MOL0     H11604   9.960   8.635   5.609  0.1557  1.2721  0.0946
   88MOL0     H11605   9.923   8.669   5.372  0.0444  1.5351 -0.4084
   88MOL0     H11606   9.831   8.741   5.137  2.7044  1.6200  2.6588
   88MOL0     H11607   9.797   8.876   5.226  1.0404 -0.5177 -0.0072
   88MOL0     H11608   9.573   8.923   5.107  1.1437  1.4666 -0.8534
   88MOL0     H11609   9.706   8.943   5.012  0.4525  2.0432  1.5397
   88MOL0     H11610   9.669   8.675   4.973 -0.0748 -0.1667 -1.4471
   88MOL0     H11611   9.575   8.792   4.880  0.5767  1.0273 -0.2802
   88MOL0     H11612   9.469   8.663   5.138  0.3346 -0.2019 -0.5561
   88MOL0     H11613   9.400   8.789   5.061 -0.3644 -1.0788 -1.0264
   88MOL0     H11614   9.348   8.495   4.760  0.8838  0.7103 -0.8831
   88MOL0     H11615   9.504   8.690   5.436 -0.0284  0.1216  1.5044
   88MOL0     H11616   9.542   8.655   5.683 -0.1218 -0.6839 -0.7778
   89MOL0     O11617  10.019   2.459   2.934  0.3385 -0.2422 -0.1137
   89MOL0     C11618   9.990   2.338   2.937  0.0046  0.2856 -0.7765
   89MOL0     O11619   9.880   2.279   2.868 -0.4573  0.3624  0.7218
   89MOL0     C11620   9.804   2.355   2.786 -0.0882  0.8754 -0.1271
   89MOL0     C11621   9.696   2.429   2.822 -0.2833 -0.6432  0.1254
   89MOL0     C11622   9.626   2.510   2.736 -0.0228 -0.3621 -0.0423
   89MOL0     C11623   9.651   2.494   2.594  0.9897 -0.3138 -0.0838
   89MOL0     O11624   9.563   2.537   2.493  0.3296 -0.4963 -0.1516
   89MOL0     C11625   9.618   2.627   2.405 -0.5829  0.6393  0.4493
   89MOL0     C11626   9.500   2.667   2.318  0.2416 -0.6143 -0.4944
   89MOL0     C11627   9.559   2.745   2.202 -0.1848  0.2181 -0.4313
   89MOL0     C11628   9.451   2.804   2.110 -1.1645  0.0995 -0.3075
   89MOL0     C11629   9.501   2.873   1.979 -0.5362 -0.1615 -0.2391
   89MOL0     C11630   9.379   2.949   1.917 -1.2410  0.9272  0.7736
   89MOL0     C11631   9.421   2.992   1.780 -0.8755  0.5006 -0.2591
   89MOL0     C11632   9.293   3.052   1.716  0.4280  0.4322 -0.1949
   89MOL0     N11633   9.324   3.161   1.621 -0.0746 -0.4610  0.1342
   89MOL0     C11634   9.420   3.148   1.522 -0.2314 -0.3042 -0.3064
   89MOL0     C11635   9.456   3.271   1.479 -0.9361  0.4704 -0.4495
   89MOL0     C11636   9.558   3.303   1.372 -0.5437  0.6993  0.2976
   89MOL0     C11637   9.520   3.430   1.294  1.0177 -0.4432 -0.9515
   89MOL0     C11638   9.630   3.462   1.194 -0.0699  0.8286  0.0815
   89MOL0     C11639   9.609   3.599   1.115 -0.5989  0.0543 -0.4354
   89MOL0     O11640   9.715   3.602   1.018 -0.2312  0.5570  0.2260
   89MOL0     C11641   9.707   3.530   0.900 -0.7605  0.7551  0.1898
   89MOL0     C11642   9.823   3.531   0.825  0.3908 -0.2521  0.0478
   89MOL0     C11643   9.835   3.473   0.701  0.2010 -1.1147  0.7832
   89MOL0     C11644   9.731   3.404   0.648  0.0719  0.3699 -0.2848
   89MOL0     C11645   9.750   3.353   0.513 -0.3953  0.6982  0.1460
   89MOL0     O11646   9.862   3.384   0.440 -0.0367  0.1188 -0.4485
   89MOL0     C11647   9.879   3.328   0.311 -0.4299 -0.0643 -0.4691
   89MOL0     C11648   9.949   3.413   0.225  0.2360  0.6262 -0.4968
   89MOL0     C11649   9.985   3.369   0.100 -0.3149 -0.6425  0.3470
   89MOL0     C11650   9.934   3.244   0.050  0.3400 -0.1835  0.3516
   89MOL0     O11651   9.960   3.219  -0.079 -0.6180 -0.1941  0.1712
   89MOL0     C11652   9.907   3.095  -0.138  0.5476 -0.6009  1.3848
   89MOL0     C11653   9.762   3.105  -0.188  0.1153  0.3159 -0.1162
   89MOL0     C11654   9.711   2.966  -0.222  0.4938  0.2484 -0.1121
   89MOL0     C11655   9.583   2.955  -0.306  0.6659  0.1208 -0.2533
   89MOL0     C11656   9.541   2.811  -0.328 -0.0653  1.7833  0.2254
   89MOL0     C11657   9.519   2.716  -0.203 -0.2386 -0.1863  0.5569
   89MOL0     C11658   9.654   2.643  -0.169  0.7775 -0.1164 -0.7056
   89MOL0     C11659   9.640   2.560  -0.040  0.0083  0.5795 -0.5262
   89MOL0    Cl11660   9.590   2.662   0.110 -0.2310  0.1473  0.0746
   89MOL0     C11661   9.868   3.157   0.143 -0.5333  0.1917  0.6739
   89MOL0     C11662   9.838   3.202   0.266  0.0649  0.0706  0.5024
   89MOL0     O11663   9.644   3.301   0.470  0.1648  0.0219  0.5634
   89MOL0     C11664   9.613   3.384   0.724 -0.4957 -0.3278  0.4106
   89MOL0     C11665   9.608   3.439   0.859  0.1433  0.0917  0.3383
   89MOL0     N11666   9.390   3.361   1.553 -0.1488 -0.1878 -1.2175
   89MOL0     N11667   9.301   3.289   1.633  0.2398 -1.2973 -0.4419
   89MOL0     C11668   9.756   2.410   2.550 -0.5061  0.1826 -0.1952
   89MOL0     C11669   9.836   2.338   2.650  0.7724  0.4949  0.4579
   89MOL0     C11670  10.060   2.257   3.031  0.8923  0.3686  0.8589
   89MOL0     C11671  10.177   2.293   3.098 -0.3496 -0.3523 -1.2014
   89MOL0     C11672  10.255   2.204   3.166 -0.4122  0.4547 -0.7045
   89MOL0     C11673  10.204   2.075   3.192  0.7122  0.1006  0.4691
   89MOL0     O11674  10.263   1.977   3.270  0.0626 -0.7852 -0.1285
   89MOL0     C11675  10.389   2.000   3.336  1.2798 -0.3999  0.7815
   89MOL0     C11676  10.491   1.961   3.228 -0.7426 -0.1971  0.3322
   89MOL0     C11677  10.628   1.971   3.289 -0.6182  0.2574 -0.4123
   89MOL0     C11678  10.728   1.906   3.198  0.3925 -1.4040  0.1151
   89MOL0     C11679  10.867   1.941   3.250  1.8771 -0.4422  1.1953
   89MOL0     C11680  10.969   1.965   3.310 -0.4635  0.1010 -0.2097
   89MOL0     C11681  10.084   2.039   3.137 -0.4325 -1.1024  0.4312
   89MOL0     C11682  10.026   2.122   3.042 -0.7267  0.5786  1.3574
   89MOL0     H11683   9.671   2.439   2.928  0.6122  3.0863  0.1163
   89MOL0     H11684   9.547   2.565   2.786  2.5281  0.4116  3.4693
   89MOL0     H11685   9.698   2.583   2.346 -1.0150 -0.1340  0.4286
   89MOL0     H11686   9.639   2.719   2.462 -2.7932  0.1883  2.1621
   89MOL0     H11687   9.436   2.741   2.366  2.5302 -0.4453  2.6510
   89MOL0     H11688   9.440   2.578   2.297 -2.1791 -0.2563  3.7489
   89MOL0     H11689   9.631   2.681   2.152  1.6759 -0.6072  2.9732
   89MOL0     H11690   9.620   2.830   2.236 -1.7050  1.6607 -1.1279
   89MOL0     H11691   9.376   2.727   2.086  0.6079 -0.9999 -2.7382
   89MOL0     H11692   9.393   2.873   2.172 -0.2804 -0.6627  1.4325
   89MOL0     H11693   9.518   2.791   1.908  1.9130  0.8033 -0.8668
   89MOL0     H11694   9.591   2.935   1.988 -0.4572 -0.5775  2.2707
   89MOL0     H11695   9.364   3.043   1.971 -1.2941  2.2716 -1.4234
   89MOL0     H11696   9.287   2.889   1.916  0.1976 -1.4242  1.8320
   89MOL0     H11697   9.508   3.058   1.785 -0.1765 -0.3944 -0.3268
   89MOL0     H11698   9.439   2.906   1.714 -2.0735 -1.0959  1.3964
   89MOL0     H11699   9.224   3.091   1.792 -2.5560 -2.6172 -1.0448
   89MOL0     H11700   9.226   2.974   1.678  3.2240 -1.7238 -1.0201
   89MOL0     H11701   9.459   3.054   1.482 -0.1690 -0.5297  0.2637
   89MOL0     H11702   9.568   3.216   1.306  2.8926  2.3252 -1.5951
   89MOL0     H11703   9.656   3.322   1.415  1.1120 -3.2462 -1.2164
   89MOL0     H11704   9.501   3.514   1.361 -0.7126 -2.0830  0.7218
   89MOL0     H11705   9.425   3.421   1.241  1.3506  1.2289 -1.9298
   89MOL0     H11706   9.727   3.459   1.243 -0.2917 -0.7817  0.4934
   89MOL0     H11707   9.623   3.382   1.120  0.3105 -2.7605  3.6003
   89MOL0     H11708   9.627   3.686   1.179  1.0592  0.7011 -1.6901
   89MOL0     H11709   9.508   3.602   1.075 -2.1535 -1.0986  3.0291
   89MOL0     H11710   9.910   3.578   0.869  0.2999 -2.3539  2.8105
   89MOL0     H11711   9.933   3.490   0.659  0.4769  1.5292  2.2621
   89MOL0     H11712   9.975   3.516   0.247 -1.9360  1.0442  0.3383
   89MOL0     H11713  10.039   3.432   0.029 -1.8955  2.6064  1.8142
   89MOL0     H11714   9.918   3.013  -0.067 -3.2690 -1.7748  0.8346
   89MOL0     H11715   9.976   3.074  -0.220 -1.6693  0.0575 -0.7813
   89MOL0     H11716   9.747   3.172  -0.273  0.6627 -0.3452 -0.7423
   89MOL0     H11717   9.706   3.133  -0.098  0.0949  2.1152 -0.6433
   89MOL0     H11718   9.695   2.917  -0.126 -2.5251  1.9796  0.3851
   89MOL0     H11719   9.786   2.909  -0.278 -0.6777 -1.8088  0.3010
   89MOL0     H11720   9.499   3.015  -0.269 -0.1159 -0.0717 -1.6515
   89MOL0     H11721   9.616   3.008  -0.395  1.4289  2.3944  1.2865
   89MOL0     H11722   9.605   2.756  -0.398 -4.9842 -1.8921 -1.9193
   89MOL0     H11723   9.449   2.827  -0.384  1.4570  0.8315 -2.7507
   89MOL0     H11724   9.444   2.637  -0.212  3.5419 -4.5672  3.1566
   89MOL0     H11725   9.478   2.769  -0.117 -1.9122 -0.5171 -0.0094
   89MOL0     H11726   9.671   2.575  -0.253  0.5332 -0.3294 -0.5854
   89MOL0     H11727   9.739   2.710  -0.157  0.6943  0.1219 -1.3756
   89MOL0     H11728   9.738   2.514  -0.027 -0.9862 -1.5171 -0.0804
   89MOL0     H11729   9.585   2.466  -0.042  1.2670 -0.1997  0.1955
   89MOL0     H11730   9.823   3.061   0.118  0.5075 -0.5331  1.4409
   89MOL0     H11731   9.780   3.134   0.327 -1.3600 -0.1727 -1.0637
   89MOL0     H11732   9.539   3.324   0.672 -0.6816 -0.2494  0.5799
   89MOL0     H11733   9.519   3.420   0.918  1.4006 -0.7401  2.0482
   89MOL0     H11734   9.778   2.379   2.449  1.6575 -0.3083  0.3708
   89MOL0     H11735   9.918   2.270   2.628 -0.1720 -1.1835  1.8968
   89MOL0     H11736  10.208   2.397   3.097  3.0611 -1.2009  0.5003
   89MOL0     H11737  10.351   2.223   3.214  0.4705 -2.7037 -0.9689
   89MOL0     H11738  10.410   1.929   3.416  0.1923 -1.3381  0.2721
   89MOL0     H11739  10.399   2.105   3.366 -2.3159 -0.4672  2.7870
   89MOL0     H11740  10.468   1.860   3.193 -0.5186  1.0176 -3.9152
   89MOL0     H11741  10.475   2.022   3.138  1.6989 -0.5050 -0.3833
   89MOL0     H11742  10.636   1.925   3.388  1.1132  0.2213 -0.5419
   89MOL0     H11743  10.659   2.075   3.302  0.3824  0.0950 -1.3652
   89MOL0     H11744  10.701   1.800   3.199  1.5736 -1.8462 -2.9828
   89MOL0     H11745  10.711   1.953   3.100  2.2622 -0.8033  0.0363
   89MOL0     H11746  11.058   1.948   3.368 -0.9174  1.1583  0.8570
   89MOL0     H11747  10.044   1.939   3.151  0.8452 -1.4158  2.2093
   89MOL0     H11748   9.935   2.081   2.998 -0.8541  2.6127 -0.4382
   90MOL0     O11749   1.910   9.632   8.614 -0.6003 -0.5848 -0.4289
   90MOL0     C11750   1.964   9.749   8.610 -0.4167  0.5752 -0.4192
   90MOL0     O11751   2.091   9.786   8.656 -0.1198  0.1140 -1.0162
   90MOL0     C11752   2.162   9.691   8.723  0.2581 -0.4746 -0.3451
   90MOL0     C11753   2.107   9.604   8.817  0.2361  0.5456 -0.5120
   90MOL0     C11754   2.198   9.527   8.901 -0.3711  0.8030  0.1713
   90MOL0     C11755   2.341   9.530   8.876  0.7056 -0.2758  0.9209
   90MOL0     O11756   2.422   9.459   8.960 -0.3597  0.0575  0.4122
   90MOL0     C11757   2.364   9.355   9.042 -0.5578 -0.5702 -0.4020
   90MOL0     C11758   2.482   9.276   9.097  0.2879 -0.2067  0.1369
   90MOL0     C11759   2.526   9.317   9.231 -0.1611  0.4283 -0.9372
   90MOL0     C11760   2.569   9.463   9.240 -0.4668  0.1194  1.0070
   90MOL0     C11761   2.628   9.517   9.375  0.6089 -0.0751  0.7038
   90MOL0     C11762   2.748   9.438   9.427  0.0306  0.1757  0.3120
   90MOL0     C11763   2.866   9.470   9.338  0.3114  0.2079  0.0832
   90MOL0     C11764   3.005   9.415   9.396 -0.3190 -0.6103  0.4380
   90MOL0     N11765   3.108   9.418   9.288  0.3262  0.0284 -0.4585
   90MOL0     C11766   3.244   9.450   9.298 -0.5787 -0.5509  0.1541
   90MOL0     C11767   3.296   9.415   9.170  0.4934 -0.2062 -0.4940
   90MOL0     C11768   3.431   9.428   9.118 -0.2197  0.4840 -0.9291
   90MOL0     C11769   3.499   9.564   9.141 -0.4655  0.2898 -1.4086
   90MOL0     C11770   3.421   9.665   9.053  0.1532 -0.8369 -0.5676
   90MOL0     C11771   3.468   9.807   9.082 -0.4246 -0.1584  0.1222
   90MOL0     O11772   3.603   9.830   9.026  0.0321  0.6588 -0.7288
   90MOL0     C11773   3.655   9.955   9.033  0.3402 -0.0228  0.3516
   90MOL0     C11774   3.592  10.071   9.089  0.4542  0.5681 -0.0171
   90MOL0     C11775   3.658  10.191   9.074 -0.1917 -0.1910 -0.7635
   90MOL0     C11776   3.793  10.197   9.015  0.8705 -0.1476 -0.3523
   90MOL0     C11777   3.855  10.330   9.009 -0.4673  0.0634  0.1948
   90MOL0     O11778   3.987  10.340   8.967  0.2411  0.1253 -0.0701
   90MOL0     C11779   4.055  10.458   8.961  0.2614 -0.3480 -0.7906
   90MOL0     C11780   4.141  10.475   8.850  0.2768  0.2479  0.4048
   90MOL0     C11781   4.202  10.596   8.825  0.0988 -0.2651 -0.3994
   90MOL0     C11782   4.204  10.703   8.918 -0.5869  0.2935  0.8145
   90MOL0     O11783   4.268  10.820   8.905 -0.4903 -0.0537  0.3511
   90MOL0     C11784   4.367  10.832   8.799 -0.1387  0.5388 -0.8984
   90MOL0     C11785   4.446  10.960   8.813 -0.0516 -1.8229 -1.0486
   90MOL0     C11786   4.362  11.083   8.773 -0.0606  0.9932  0.4110
   90MOL0     C11787   4.435  11.219   8.789 -1.3868  1.0901 -0.0953
   90MOL0     C11788   4.326  11.329   8.772 -0.2192  0.4176  1.2212
   90MOL0     C11789   4.379  11.470   8.784  0.2247 -0.4299  0.8872
   90MOL0     C11790   4.477  11.528   8.682 -1.0325  0.7342  0.1705
   90MOL0     C11791   4.425  11.546   8.540 -0.2039 -0.0661  0.2167
   90MOL0    Cl11792   4.324  11.683   8.531  0.4148 -0.3531 -0.2244
   90MOL0     C11793   4.122  10.698   9.031  0.0375  0.3942 -0.7181
   90MOL0     C11794   4.050  10.572   9.054 -0.0183 -0.0623 -0.3055
   90MOL0     O11795   3.788  10.418   9.048  0.3409 -0.9806 -0.2192
   90MOL0     C11796   3.852  10.078   8.988  0.0897  0.5511 -0.5213
   90MOL0     C11797   3.791   9.961   8.992 -0.4938  0.2135  0.1945
   90MOL0     N11798   3.195   9.353   9.100 -0.5281 -0.0811  0.1893
   90MOL0     N11799   3.090   9.358   9.167  1.0962 -0.1879  0.8197
   90MOL0     C11800   2.393   9.613   8.773  0.1981  0.0290  0.7967
   90MOL0     C11801   2.300   9.689   8.697  0.5229 -0.5865 -0.3536
   90MOL0     C11802   1.902   9.835   8.513 -0.4356 -1.1513  0.0427
   90MOL0     C11803   1.952   9.970   8.496  0.0166 -0.6614 -0.2554
   90MOL0     C11804   1.923  10.042   8.384  0.3299  1.8412  0.7231
   90MOL0     C11805   1.816   9.995   8.299 -1.1440 -1.4399 -0.0050
   90MOL0     O11806   1.782  10.068   8.194  0.3442 -0.0453  0.1974
   90MOL0     C11807   1.884  10.085   8.095 -0.3901  0.3580 -0.2967
   90MOL0     C11808   1.852  10.029   7.962  1.2159  0.2289  0.6506
   90MOL0     C11809   1.792   9.894   7.974 -0.3538  0.1816 -0.3990
   90MOL0     C11810   1.812   9.812   7.846  0.4090  0.1970  0.4701
   90MOL0     C11811   1.774   9.674   7.868  0.5025 -0.1127 -0.3131
   90MOL0     C11812   1.729   9.560   7.891  0.0771  0.5421 -0.1577
   90MOL0     C11813   1.743   9.883   8.337 -0.3705 -0.1218 -0.1282
   90MOL0     C11814   1.795   9.795   8.440 -0.0863  0.6158  0.5435
   90MOL0     H11815   2.008   9.630   8.853  1.0495 -0.8165  3.1714
   90MOL0     H11816   2.160   9.478   8.990 -1.0785 -2.6645 -1.8563
   90MOL0     H11817   2.296   9.291   8.986 -1.6430  1.4252 -1.5012
   90MOL0     H11818   2.308   9.398   9.126  1.6147  3.5421 -0.7978
   90MOL0     H11819   2.571   9.252   9.037  0.1979 -2.0358  0.6931
   90MOL0     H11820   2.436   9.178   9.112  0.3939  0.1916  3.8365
   90MOL0     H11821   2.608   9.253   9.264 -2.8721 -2.4281  0.7844
   90MOL0     H11822   2.441   9.307   9.299  0.7038 -1.0046 -0.0134
   90MOL0     H11823   2.644   9.475   9.162 -3.9630  2.3036 -2.3579
   90MOL0     H11824   2.487   9.519   9.193 -0.5928 -2.8296 -2.8317
   90MOL0     H11825   2.554   9.498   9.453 -0.7245 -1.9220 -0.8932
   90MOL0     H11826   2.655   9.622   9.365  1.1973 -0.2782  0.0688
   90MOL0     H11827   2.727   9.330   9.433 -0.7944  0.1238 -2.2562
   90MOL0     H11828   2.769   9.470   9.529  1.4698 -2.7742  1.0758
   90MOL0     H11829   2.846   9.431   9.238  0.0306 -3.3453  1.3717
   90MOL0     H11830   2.876   9.579   9.331 -3.4982  0.6873 -0.5339
   90MOL0     H11831   2.987   9.310   9.417 -2.7751 -0.3519 -0.0652
   90MOL0     H11832   3.035   9.469   9.486 -1.5990  0.3484  0.3293
   90MOL0     H11833   3.286   9.494   9.388  0.1751 -1.9977  0.5293
   90MOL0     H11834   3.441   9.393   9.015  1.9300 -0.2868 -0.5053
   90MOL0     H11835   3.495   9.362   9.176 -0.5787  0.5740 -0.4181
   90MOL0     H11836   3.601   9.562   9.103 -0.1340  2.8204 -0.8596
   90MOL0     H11837   3.510   9.593   9.246  0.6452  2.7378 -2.1213
   90MOL0     H11838   3.438   9.643   8.947  0.1505  1.5122 -1.1026
   90MOL0     H11839   3.315   9.661   9.076  0.2041  0.6355  0.0516
   90MOL0     H11840   3.466   9.844   9.184 -0.5455 -1.3243  0.5630
   90MOL0     H11841   3.402   9.864   9.015 -0.6999 -1.8040 -1.0760
   90MOL0     H11842   3.486  10.069   9.113  0.0153  3.1575 -1.3441
   90MOL0     H11843   3.605  10.283   9.097 -0.4751  0.0872 -2.3748
   90MOL0     H11844   4.135  10.397   8.775 -2.3063  0.0121  0.7349
   90MOL0     H11845   4.264  10.584   8.736  2.2896 -1.1696  1.1454
   90MOL0     H11846   4.305  10.826   8.709 -1.9649 -0.0045  0.3453
   90MOL0     H11847   4.436  10.747   8.802 -1.7125 -0.7629 -0.3423
   90MOL0     H11848   4.533  10.960   8.746  1.7404  2.1156  0.9608
   90MOL0     H11849   4.485  10.973   8.914 -2.3515 -0.3170 -0.2574
   90MOL0     H11850   4.273  11.089   8.837  0.1485 -0.0833  0.8281
   90MOL0     H11851   4.331  11.065   8.669  2.5249  1.8275 -0.5667
   90MOL0     H11852   4.478  11.229   8.888  2.2010  1.2410 -1.5344
   90MOL0     H11853   4.523  11.230   8.725 -1.5076  1.3532 -0.2239
   90MOL0     H11854   4.252  11.307   8.849 -0.9085 -1.9067 -0.0201
   90MOL0     H11855   4.291  11.314   8.670  1.5240  3.8094 -0.0561
   90MOL0     H11856   4.437  11.469   8.877 -0.7164 -1.7268  1.4995
   90MOL0     H11857   4.303  11.547   8.799 -0.3403 -0.6204 -0.8393
   90MOL0     H11858   4.511  11.621   8.729 -2.6952  0.4631  2.0365
   90MOL0     H11859   4.559  11.459   8.663 -1.3875  0.8232 -2.0351
   90MOL0     H11860   4.366  11.459   8.510  0.8025 -1.2735  1.5799
   90MOL0     H11861   4.510  11.554   8.471 -0.5959 -0.5471 -0.3271
   90MOL0     H11862   4.112  10.784   9.097 -4.1973 -1.3740  1.3556
   90MOL0     H11863   3.992  10.565   9.145  0.7554  2.9139  0.5431
   90MOL0     H11864   3.958  10.075   8.968  0.1689  0.3155 -0.0606
   90MOL0     H11865   3.837   9.865   8.971 -3.1922 -0.5569 -3.3074
   90MOL0     H11866   2.500   9.614   8.755 -0.1599  2.6828 -2.0144
   90MOL0     H11867   2.337   9.752   8.617  2.3075  2.4298  2.5856
   90MOL0     H11868   2.022  10.018   8.565 -3.2641  0.6540  2.4404
   90MOL0     H11869   1.985  10.127   8.355  1.4678  1.0537  0.8159
   90MOL0     H11870   1.983  10.044   8.118 -0.0795  0.3539 -1.5631
   90MOL0     H11871   1.897  10.193   8.090  2.0740  0.2598  1.8810
   90MOL0     H11872   1.762  10.083   7.931 -0.5696 -1.1757  3.0139
   90MOL0     H11873   1.928  10.036   7.885  0.3008 -0.4979 -0.3471
   90MOL0     H11874   1.688   9.913   8.000 -0.8520 -2.0564 -0.5286
   90MOL0     H11875   1.855   9.852   8.052  0.5009  1.5866 -0.2982
   90MOL0     H11876   1.757   9.849   7.758  0.1330 -0.7363  0.2388
   90MOL0     H11877   1.917   9.812   7.815 -0.2122 -4.1843 -2.5311
   90MOL0     H11878   1.705   9.458   7.912  4.9654 -0.3411  2.6614
   90MOL0     H11879   1.650   9.857   8.289 -0.1995 -1.0856  0.0438
   90MOL0     H11880   1.741   9.703   8.461 -0.9574  0.6932 -1.1386
   91MOL0     O11881   3.513   5.932   1.596 -0.0287  0.2873  0.3390
   91MOL0     C11882   3.617   5.983   1.535 -0.2999  0.8398  0.0473
   91MOL0     O11883   3.658   5.959   1.404  0.4969  0.7002  0.0919
   91MOL0     C11884   3.582   5.889   1.306 -0.8209  1.2224 -0.0154
   91MOL0     C11885   3.443   5.862   1.311  0.5150 -0.0869  0.8558
   91MOL0     C11886   3.381   5.783   1.211 -0.6050 -0.2564 -0.0091
   91MOL0     C11887   3.455   5.735   1.105 -0.7493 -0.7274  0.2286
   91MOL0     O11888   3.408   5.659   0.999 -0.8121  0.2501 -0.1688
   91MOL0     C11889   3.358   5.531   1.053 -0.3498 -1.5136 -0.2410
   91MOL0     C11890   3.319   5.449   0.926 -0.1353 -0.5535  0.3758
   91MOL0     C11891   3.439   5.379   0.857  0.2065  0.8907 -0.3402
   91MOL0     C11892   3.394   5.247   0.788  0.5236 -0.2211  0.2683
   91MOL0     C11893   3.311   5.292   0.666  0.0274 -0.8070  0.1472
   91MOL0     C11894   3.248   5.172   0.606 -0.2684 -1.1652 -0.4357
   91MOL0     C11895   3.184   5.206   0.475  0.6028 -0.6073  1.1789
   91MOL0     C11896   3.042   5.277   0.508 -0.0158  0.0931  0.3613
   91MOL0     N11897   2.969   5.311   0.379 -0.3168  0.2000  0.0381
   91MOL0     C11898   2.896   5.230   0.299  1.3746  0.0813 -0.3971
   91MOL0     C11899   2.908   5.277   0.173  0.1347  0.1826  0.1065
   91MOL0     C11900   2.842   5.217   0.050 -0.2252  0.2980 -0.0873
   91MOL0     C11901   2.865   5.303  -0.076  0.5181  0.1163 -0.2728
   91MOL0     C11902   2.797   5.447  -0.056 -0.5056 -0.3451 -0.3452
   91MOL0     C11903   2.829   5.543  -0.176 -0.2995 -0.1283  0.0921
   91MOL0     O11904   2.760   5.498  -0.286 -0.7687  0.2282 -0.2371
   91MOL0     C11905   2.802   5.406  -0.375  0.6714  0.2990 -0.1040
   91MOL0     C11906   2.926   5.350  -0.375 -0.8604 -0.6036  0.1305
   91MOL0     C11907   2.963   5.250  -0.468 -0.0940 -0.3321 -0.2185
   91MOL0     C11908   2.862   5.193  -0.552  0.4148 -0.7260 -0.5129
   91MOL0     C11909   2.896   5.086  -0.645  0.1600  0.2360 -0.4603
   91MOL0     O11910   2.786   5.011  -0.685 -0.3700 -0.6974  0.3746
   91MOL0     C11911   2.816   4.912  -0.770  0.4250  0.1390  1.1383
   91MOL0     C11912   2.754   4.787  -0.756  0.2486  1.0021  0.5642
   91MOL0     C11913   2.765   4.692  -0.859 -0.4772  0.1151 -0.1843
   91MOL0     C11914   2.827   4.728  -0.981 -0.4255 -1.2947 -0.1884
   91MOL0     O11915   2.825   4.633  -1.079 -0.5658 -0.0267  0.2234
   91MOL0     C11916   2.908   4.636  -1.199 -0.1208  0.6480 -0.9050
   91MOL0     C11917   2.948   4.495  -1.232 -0.5763  0.3902 -0.3987
   91MOL0     C11918   3.048   4.423  -1.134  0.9530 -0.7333  0.0861
   91MOL0     C11919   3.059   4.277  -1.178  0.4154  0.2273  0.8268
   91MOL0     C11920   3.178   4.196  -1.105  0.7586  0.1953 -1.1177
   91MOL0     C11921   3.294   4.170  -1.196  0.7384 -0.5765 -0.0988
   91MOL0     C11922   3.350   4.294  -1.280 -0.1788 -0.5592 -0.9499
   91MOL0     C11923   3.481   4.262  -1.351 -0.3936  0.0544 -0.8063
   91MOL0    Cl11924   3.606   4.190  -1.250 -0.0248  0.3795 -0.2869
   91MOL0     C11925   2.886   4.854  -0.995 -0.5166  0.0260  0.4147
   91MOL0     C11926   2.866   4.950  -0.894  0.0135 -1.2422 -0.1397
   91MOL0     O11927   3.015   5.065  -0.673 -0.1742  0.4629 -0.2156
   91MOL0     C11928   2.730   5.250  -0.549 -0.1918  0.6583 -0.6975
   91MOL0     C11929   2.698   5.351  -0.459  0.3911 -0.1677 -0.1343
   91MOL0     N11930   3.003   5.374   0.182 -0.0608  0.1070  0.9329
   91MOL0     N11931   3.034   5.398   0.301  0.7392 -0.2164 -0.2627
   91MOL0     C11932   3.591   5.772   1.091  0.8595 -0.7212 -0.2915
   91MOL0     C11933   3.660   5.845   1.195  0.6050 -0.0008  0.0129
   91MOL0     C11934   3.702   6.075   1.619 -1.2650  0.1491 -0.1617
   91MOL0     C11935   3.822   6.121   1.556  1.0267 -0.6495  0.2433
   91MOL0     C11936   3.906   6.209   1.634 -0.0462  0.0414  0.3280
   91MOL0     C11937   3.866   6.251   1.764 -0.4586 -0.2763  0.2077
   91MOL0     O11938   3.948   6.325   1.845 -0.7603 -0.1886 -0.2711
   91MOL0     C11939   4.005   6.449   1.798  0.0089 -0.4906  0.9385
   91MOL0     C11940   4.030   6.556   1.896  0.1093 -0.0735 -0.0601
   91MOL0     C11941   4.064   6.688   1.829 -0.2037 -0.6631  0.2280
   91MOL0     C11942   4.127   6.802   1.913  0.6064 -0.4497  0.0561
   91MOL0     C11943   4.243   6.758   1.994  0.7778  0.1183 -0.5319
   91MOL0     C11944   4.342   6.738   2.061 -0.5053  1.0693 -0.1824
   91MOL0     C11945   3.753   6.203   1.818  0.1392 -0.1297  0.3380
   91MOL0     C11946   3.676   6.112   1.754  0.1396 -1.0110  0.5926
   91MOL0     H11947   3.399   5.894   1.405  0.2903  1.1954  0.3282
   91MOL0     H11948   3.276   5.757   1.213 -0.3231 -1.5741 -0.8915
   91MOL0     H11949   3.274   5.548   1.122 -1.2688  0.4901 -1.7541
   91MOL0     H11950   3.442   5.486   1.105  0.6449  0.5444  0.0316
   91MOL0     H11951   3.268   5.515   0.856  2.2011 -0.0371 -0.9265
   91MOL0     H11952   3.244   5.373   0.950 -1.3683 -0.1821 -2.0242
   91MOL0     H11953   3.526   5.361   0.922  0.2026  2.8474  0.2526
   91MOL0     H11954   3.496   5.438   0.785 -1.0400 -0.6664 -2.7329
   91MOL0     H11955   3.472   5.180   0.751  0.2590 -0.5523  0.3118
   91MOL0     H11956   3.330   5.196   0.860  0.3332  0.5835  0.6867
   91MOL0     H11957   3.378   5.335   0.591  1.4261 -1.1887  1.1216
   91MOL0     H11958   3.240   5.374   0.680  0.2616 -0.0106 -2.7283
   91MOL0     H11959   3.166   5.140   0.670  0.0402  1.1993  1.2500
   91MOL0     H11960   3.327   5.100   0.582 -0.0440  0.1586 -4.5010
   91MOL0     H11961   3.239   5.290   0.430 -2.9982  1.8155  0.8839
   91MOL0     H11962   3.177   5.124   0.404  0.3795  2.7785 -3.1279
   91MOL0     H11963   3.060   5.361   0.576  1.3971 -1.8732  2.5470
   91MOL0     H11964   2.981   5.210   0.567 -1.6465  0.6551 -0.6241
   91MOL0     H11965   2.822   5.152   0.311  1.6951 -0.0274  1.0909
   91MOL0     H11966   2.735   5.193   0.050 -0.8393  2.8170  0.3463
   91MOL0     H11967   2.889   5.120   0.029 -1.5607 -0.2733 -0.5656
   91MOL0     H11968   2.815   5.248  -0.156  0.8732  0.2356 -0.5832
   91MOL0     H11969   2.973   5.309  -0.095  0.1613  0.7969 -2.2925
   91MOL0     H11970   2.692   5.419  -0.045 -0.6807  0.9879  2.2814
   91MOL0     H11971   2.821   5.499   0.037 -2.0104  3.8379 -2.0270
   91MOL0     H11972   2.938   5.544  -0.183 -0.3671 -1.5830 -2.5963
   91MOL0     H11973   2.785   5.642  -0.161  1.0318  0.2518  1.9081
   91MOL0     H11974   3.005   5.396  -0.316 -1.6088  0.3488  0.4255
   91MOL0     H11975   3.066   5.220  -0.479  0.2041  0.5778  0.0048
   91MOL0     H11976   2.683   4.761  -0.678 -0.2352 -3.7678 -1.1479
   91MOL0     H11977   2.707   4.603  -0.836  0.3625 -0.3694  0.0741
   91MOL0     H11978   3.001   4.689  -1.176  0.3645 -0.2901 -0.6795
   91MOL0     H11979   2.855   4.692  -1.277  0.7733  1.5279 -0.9094
   91MOL0     H11980   2.999   4.508  -1.329  0.0922  0.0751 -0.0995
   91MOL0     H11981   2.851   4.448  -1.250 -2.3240  1.9814  3.8113
   91MOL0     H11982   3.014   4.430  -1.031  3.9724 -0.3768  1.1554
   91MOL0     H11983   3.140   4.481  -1.137 -0.8141  2.2332 -0.6201
   91MOL0     H11984   2.962   4.228  -1.169  0.5487 -0.5475 -1.4193
   91MOL0     H11985   3.082   4.283  -1.285  0.7608 -0.0974  0.8798
   91MOL0     H11986   3.133   4.106  -1.063  2.9410 -0.5996 -0.3116
   91MOL0     H11987   3.225   4.243  -1.018 -0.1327 -1.5791  0.3948
   91MOL0     H11988   3.260   4.087  -1.259  3.0381 -1.6003 -0.1035
   91MOL0     H11989   3.379   4.133  -1.138 -0.8453 -2.0131  1.4423
   91MOL0     H11990   3.274   4.335  -1.348 -3.2015  2.7700  3.7668
   91MOL0     H11991   3.368   4.378  -1.211  1.4001 -0.5664 -1.3174
   91MOL0     H11992   3.502   4.355  -1.405  2.2408  0.3018  0.4756
   91MOL0     H11993   3.460   4.194  -1.434 -4.1968 -2.5410  1.9074
   91MOL0     H11994   2.943   4.883  -1.083  1.3178 -1.8180  0.9111
   91MOL0     H11995   2.906   5.050  -0.912  1.7767 -2.2300 -2.0900
   91MOL0     H11996   2.644   5.201  -0.594 -1.0003 -0.9184  2.2812
   91MOL0     H11997   2.601   5.399  -0.468  0.4360 -0.3266 -1.8038
   91MOL0     H11998   3.642   5.754   0.997 -1.9641 -5.1759 -1.3205
   91MOL0     H11999   3.759   5.888   1.186  0.7668 -0.0813  1.3127
   91MOL0     H12000   3.847   6.073   1.462  1.0086  1.8340 -1.1336
   91MOL0     H12001   4.005   6.232   1.597 -0.7853 -0.6657 -2.4043
   91MOL0     H12002   3.948   6.487   1.713  0.7339  0.0281  0.6645
   91MOL0     H12003   4.108   6.434   1.762  1.1762  2.6821  2.5626
   91MOL0     H12004   3.946   6.577   1.963  0.2103  0.5844 -0.1276
   91MOL0     H12005   4.111   6.517   1.957  0.8305 -2.3141 -2.3203
   91MOL0     H12006   3.975   6.717   1.772 -0.3626  2.4259  1.7847
   91MOL0     H12007   4.135   6.663   1.750 -2.1831  0.3396 -1.9790
   91MOL0     H12008   4.163   6.880   1.845  1.7613 -0.5595  0.5238
   91MOL0     H12009   4.060   6.847   1.987  2.9706  3.4095  0.1050
   91MOL0     H12010   4.424   6.705   2.121 -3.7844 -1.3182  3.4722
   91MOL0     H12011   3.735   6.235   1.921 -0.5407  0.2386  0.1133
   91MOL0     H12012   3.579   6.081   1.792 -0.9458  2.0950  0.6564
   92MOL0     O12013   6.805   6.667   7.979  0.2989 -0.7007  0.4444
   92MOL0     C12014   6.926   6.645   7.977  0.1602  0.6457  0.6192
   92MOL0     O12015   6.991   6.556   8.058 -0.5395 -0.4438 -0.6988
   92MOL0     C12016   6.923   6.478   8.147  0.1017  0.5537  1.3176
   92MOL0     C12017   6.917   6.505   8.287 -0.0066  0.5301 -0.3060
   92MOL0     C12018   6.847   6.421   8.377 -1.5028 -0.0622  0.8286
   92MOL0     C12019   6.786   6.310   8.327  0.6052 -0.1203  0.0497
   92MOL0     O12020   6.709   6.239   8.417 -0.6915 -0.9223 -0.8218
   92MOL0     C12021   6.604   6.166   8.366  0.1274  1.5231 -0.4716
   92MOL0     C12022   6.535   6.101   8.482  0.5161 -0.1137  0.0778
   92MOL0     C12023   6.432   6.007   8.425  0.2680 -0.5143  0.1880
   92MOL0     C12024   6.354   5.936   8.530  0.0960  1.1248 -0.8038
   92MOL0     C12025   6.265   5.837   8.454 -0.4048 -0.0962  0.1752
   92MOL0     C12026   6.159   5.763   8.538  0.4629  0.4603 -0.9350
   92MOL0     C12027   6.121   5.636   8.474 -0.2147  0.3151  0.9116
   92MOL0     C12028   6.234   5.536   8.486 -0.8526  0.0106 -0.2680
   92MOL0     N12029   6.193   5.399   8.494  0.0554  0.3290  0.1402
   92MOL0     C12030   6.119   5.349   8.591  0.3324  0.1686 -1.0154
   92MOL0     C12031   6.097   5.220   8.556 -1.0902 -0.2898 -0.5079
   92MOL0     C12032   5.992   5.133   8.626 -0.3459 -0.9457  0.9044
   92MOL0     C12033   6.045   4.986   8.609 -0.2954  0.3504  0.4327
   92MOL0     C12034   5.975   4.879   8.706 -0.1119  0.3551  0.6014
   92MOL0     C12035   6.015   4.926   8.844 -0.5059  0.1593  1.1938
   92MOL0     O12036   6.141   4.989   8.848 -0.5321 -1.0470 -1.0895
   92MOL0     C12037   6.256   4.938   8.886 -0.4132  0.9068 -0.3757
   92MOL0     C12038   6.355   5.030   8.934 -0.0023  0.9351  0.1698
   92MOL0     C12039   6.480   4.984   8.985  0.0640  0.6897  0.4951
   92MOL0     C12040   6.498   4.846   9.016  0.7410 -0.3856  0.7389
   92MOL0     C12041   6.632   4.811   9.065  1.0471 -0.1913 -0.1073
   92MOL0     O12042   6.732   4.904   9.070 -0.6065 -0.0588 -0.0784
   92MOL0     C12043   6.851   4.882   9.133 -0.4009  0.2516  1.2154
   92MOL0     C12044   6.884   4.777   9.221  0.3588 -0.0788 -0.3520
   92MOL0     C12045   7.011   4.771   9.277  0.7387  0.2619  0.1204
   92MOL0     C12046   7.109   4.867   9.251  0.2078 -0.5876 -1.7399
   92MOL0     O12047   7.224   4.858   9.325  0.9125  0.8410 -0.3505
   92MOL0     C12048   7.335   4.941   9.310 -0.0174 -0.2278 -0.7802
   92MOL0     C12049   7.446   4.925   9.415 -0.6790 -0.1924  0.1440
   92MOL0     C12050   7.496   4.781   9.411  0.5395  0.5128  0.8851
   92MOL0     C12051   7.581   4.730   9.535  0.0630 -0.8657 -0.0103
   92MOL0     C12052   7.703   4.806   9.580 -0.3964 -0.1363  0.7083
   92MOL0     C12053   7.831   4.827   9.489  0.4926 -0.0523 -0.0570
   92MOL0     C12054   7.884   4.698   9.420 -0.1267  0.1959  0.4121
   92MOL0     C12055   8.021   4.705   9.347  0.2231  0.0245  0.0886
   92MOL0    Cl12056   8.015   4.820   9.209  0.3193 -0.3720  0.3560
   92MOL0     C12057   7.080   4.971   9.167 -0.1705  0.2886 -0.4734
   92MOL0     C12058   6.953   4.978   9.105  0.3547  0.5551  0.4007
   92MOL0     O12059   6.645   4.691   9.083 -0.6405  0.0425  0.0455
   92MOL0     C12060   6.396   4.759   8.975 -1.4639 -0.9109  0.5599
   92MOL0     C12061   6.279   4.802   8.911 -0.5100  0.5460 -0.7136
   92MOL0     N12062   6.159   5.206   8.430 -0.3650  0.1682 -0.3729
   92MOL0     N12063   6.215   5.315   8.390  0.3633  0.1189  0.0378
   92MOL0     C12064   6.800   6.274   8.193  0.2379  0.0833  0.7600
   92MOL0     C12065   6.870   6.353   8.104  0.3001 -0.6958  0.2076
   92MOL0     C12066   7.009   6.704   7.866  0.5848  0.8208  0.6328
   92MOL0     C12067   7.146   6.688   7.872 -0.1840 -0.8040  0.0909
   92MOL0     C12068   7.228   6.756   7.784 -0.7098 -1.0142 -0.5801
   92MOL0     C12069   7.181   6.821   7.672  0.6417 -0.2718  0.1847
   92MOL0     O12070   7.274   6.853   7.566  0.4488  0.2323  0.4753
   92MOL0     C12071   7.212   6.913   7.451 -0.5085 -0.4028  0.1125
   92MOL0     C12072   7.331   6.954   7.357 -0.2164  0.8454 -0.9516
   92MOL0     C12073   7.422   7.049   7.437 -0.4467  0.9155  0.1845
   92MOL0     C12074   7.356   7.178   7.480 -0.4388 -0.9165  0.7750
   92MOL0     C12075   7.462   7.271   7.533  0.0989  0.1867 -0.4753
   92MOL0     C12076   7.545   7.350   7.560 -0.2018 -1.5916 -0.0557
   92MOL0     C12077   7.040   6.812   7.644 -0.5370 -0.2144  0.6709
   92MOL0     C12078   6.957   6.770   7.751  0.8336 -0.5299  0.9230
   92MOL0     H12079   6.965   6.595   8.322  0.3126  0.1875  0.1531
   92MOL0     H12080   6.836   6.451   8.481  3.0481  0.6167  1.3056
   92MOL0     H12081   6.639   6.085   8.301 -3.6100 -1.0057  0.3610
   92MOL0     H12082   6.544   6.243   8.317  2.4517  2.4711 -2.0283
   92MOL0     H12083   6.488   6.172   8.550  1.8697  1.6306 -0.7293
   92MOL0     H12084   6.610   6.040   8.534  0.4546 -1.2082 -1.0393
   92MOL0     H12085   6.471   5.926   8.362 -0.7298 -2.6108  2.1475
   92MOL0     H12086   6.364   6.070   8.366  1.8382 -0.8954 -2.1745
   92MOL0     H12087   6.420   5.881   8.597 -1.9758 -3.9281 -2.4228
   92MOL0     H12088   6.297   6.013   8.583  0.2178  0.8351 -0.2489
   92MOL0     H12089   6.333   5.779   8.390 -0.0483 -0.4359  0.8464
   92MOL0     H12090   6.207   5.902   8.388  1.2158 -1.6511 -3.0207
   92MOL0     H12091   6.070   5.827   8.542 -1.5003 -2.0303 -1.6152
   92MOL0     H12092   6.192   5.738   8.639 -2.9596 -0.4420  0.1003
   92MOL0     H12093   6.032   5.614   8.534 -0.6636  3.0406  1.3678
   92MOL0     H12094   6.097   5.642   8.368  0.5433  0.8239  0.7607
   92MOL0     H12095   6.287   5.561   8.579 -2.2166 -1.4743  0.9725
   92MOL0     H12096   6.311   5.540   8.409  1.9267  0.5602  2.3134
   92MOL0     H12097   6.085   5.381   8.689  4.6880  2.0551  0.1260
   92MOL0     H12098   5.891   5.146   8.584  0.7381  0.5780 -1.5019
   92MOL0     H12099   5.982   5.161   8.731  2.0535 -1.4684  1.3374
   92MOL0     H12100   6.154   4.985   8.618 -0.1738  3.0913  0.3171
   92MOL0     H12101   6.026   4.947   8.508  1.7390  0.8601 -0.1898
   92MOL0     H12102   5.867   4.865   8.696 -0.3522  1.9846  0.6868
   92MOL0     H12103   6.015   4.779   8.687  1.5785  0.8955  1.1255
   92MOL0     H12104   6.013   4.839   8.910  0.4015 -1.0169 -0.2948
   92MOL0     H12105   5.953   5.005   8.889 -0.3285  2.6756 -2.5129
   92MOL0     H12106   6.351   5.139   8.928 -0.0580  1.0297  1.6542
   92MOL0     H12107   6.566   5.047   9.006 -0.1910  1.4757 -0.7639
   92MOL0     H12108   6.809   4.711   9.262  1.5639 -0.9590  0.4902
   92MOL0     H12109   7.033   4.686   9.340  1.0122  0.4322  0.2584
   92MOL0     H12110   7.297   5.043   9.318  0.0765 -0.3052  1.0680
   92MOL0     H12111   7.371   4.923   9.208  0.5987 -0.0733 -0.5979
   92MOL0     H12112   7.401   4.949   9.511  4.5644  0.4510  2.7928
   92MOL0     H12113   7.532   4.990   9.399  0.2362 -1.3099  0.3669
   92MOL0     H12114   7.569   4.763   9.331  0.0203 -3.5476  1.1287
   92MOL0     H12115   7.411   4.714   9.396  1.7186 -1.4937  2.5900
   92MOL0     H12116   7.515   4.699   9.616  2.3976  0.5276  2.5934
   92MOL0     H12117   7.608   4.633   9.491 -1.7372 -1.4080 -0.0053
   92MOL0     H12118   7.743   4.763   9.672 -4.9760  1.1645  3.6368
   92MOL0     H12119   7.665   4.903   9.614  1.7385  0.8976  0.3031
   92MOL0     H12120   7.912   4.874   9.547  0.6660  0.6763 -0.8659
   92MOL0     H12121   7.815   4.906   9.415  3.0195 -1.3747 -2.1974
   92MOL0     H12122   7.898   4.617   9.493  1.1260 -2.8202 -2.8605
   92MOL0     H12123   7.812   4.669   9.344 -0.4641  3.8030 -0.8138
   92MOL0     H12124   8.061   4.613   9.304  1.0459  1.0726 -1.4931
   92MOL0     H12125   8.096   4.742   9.418  1.7142  1.7176 -2.2135
   92MOL0     H12126   7.154   5.050   9.159 -0.9293  1.1029  0.2526
   92MOL0     H12127   6.906   5.054   9.044  1.4164  1.7584  1.0340
   92MOL0     H12128   6.417   4.654   8.994  1.9805  0.0606  3.2605
   92MOL0     H12129   6.209   4.721   8.890  1.2301 -0.5928 -2.4819
   92MOL0     H12130   6.750   6.185   8.156 -2.1988  1.9319 -0.7242
   92MOL0     H12131   6.891   6.329   8.000 -2.8709  3.3020 -1.6884
   92MOL0     H12132   7.190   6.629   7.952 -0.6073  1.2293  1.9031
   92MOL0     H12133   7.335   6.768   7.800 -0.6034  0.5532 -2.1326
   92MOL0     H12134   7.145   6.991   7.487  0.5255  1.5208 -1.9132
   92MOL0     H12135   7.158   6.832   7.400  0.9887 -1.3453 -0.0265
   92MOL0     H12136   7.391   6.877   7.308 -0.2782  0.3445 -0.2484
   92MOL0     H12137   7.281   7.010   7.277 -0.2900  1.0368 -0.7722
   92MOL0     H12138   7.512   7.063   7.377 -1.9189  3.8106 -1.5978
   92MOL0     H12139   7.461   6.995   7.524 -0.8318  0.9715  0.3984
   92MOL0     H12140   7.303   7.231   7.400 -0.7204 -1.3952  0.6408
   92MOL0     H12141   7.277   7.167   7.555 -2.9424  1.4431 -1.2752
   92MOL0     H12142   7.622   7.418   7.592  1.3675 -2.0880 -2.4406
   92MOL0     H12143   7.003   6.835   7.545 -2.4548  1.5277  1.7015
   92MOL0     H12144   6.850   6.756   7.751  1.0601 -2.6186  0.8303
   93MOL0     O12145   7.798   5.231   0.383  0.6340 -0.3805 -0.1760
   93MOL0     C12146   7.804   5.278   0.497  0.3431  0.5863 -0.5006
   93MOL0     O12147   7.891   5.243   0.594 -0.3410  0.0656 -1.0570
   93MOL0     C12148   7.983   5.139   0.604 -1.2696  0.4343  0.4837
   93MOL0     C12149   8.008   5.037   0.508  0.5424 -0.5761 -0.1242
   93MOL0     C12150   8.101   4.930   0.529 -0.0305 -0.0189  0.7456
   93MOL0     C12151   8.170   4.925   0.659 -0.2888  0.3191  0.5715
   93MOL0     O12152   8.268   4.829   0.678 -0.1245  0.4767  0.2177
   93MOL0     C12153   8.224   4.706   0.753  0.5624 -0.1992  0.7845
   93MOL0     C12154   8.299   4.598   0.671 -0.4037 -0.3702 -0.0523
   93MOL0     C12155   8.235   4.570   0.527 -0.2399  0.1363 -0.4629
   93MOL0     C12156   8.152   4.441   0.513 -0.2157 -0.2254 -0.3244
   93MOL0     C12157   8.077   4.450   0.377 -0.1288 -0.6627 -0.8249
   93MOL0     C12158   8.003   4.315   0.359 -0.0516 -0.6821 -0.7212
   93MOL0     C12159   7.977   4.273   0.212 -0.6684  0.7570  1.6235
   93MOL0     C12160   7.931   4.387   0.127  0.0793  0.0871 -0.5243
   93MOL0     N12161   7.888   4.360  -0.008 -0.3161  0.2383  0.1488
   93MOL0     C12162   7.764   4.314  -0.043  0.0698  0.7149  0.3650
   93MOL0     C12163   7.768   4.332  -0.177  0.8930  0.6662  0.0986
   93MOL0     C12164   7.654   4.296  -0.268 -0.0159  0.6921 -0.0839
   93MOL0     C12165   7.592   4.416  -0.329  0.4039  0.0122 -1.1373
   93MOL0     C12166   7.478   4.382  -0.426  0.4312 -0.0446  0.4090
   93MOL0     C12167   7.533   4.344  -0.557  0.3437 -0.0927  2.0001
   93MOL0     O12168   7.434   4.297  -0.657  1.0630  0.8969 -0.1529
   93MOL0     C12169   7.361   4.403  -0.706 -0.0808 -0.5197 -0.5770
   93MOL0     C12170   7.428   4.501  -0.791  0.1660 -0.2270 -0.4195
   93MOL0     C12171   7.359   4.616  -0.830  0.7566  0.1778  0.1927
   93MOL0     C12172   7.223   4.632  -0.800 -0.2735 -0.7240  0.5481
   93MOL0     C12173   7.147   4.760  -0.838  0.0148 -0.0959  1.0786
   93MOL0     O12174   7.020   4.774  -0.790  0.4609  0.7960 -0.1994
   93MOL0     C12175   6.939   4.885  -0.816  0.1194  0.2394  0.7292
   93MOL0     C12176   6.808   4.860  -0.768 -0.2296 -0.2664 -0.8228
   93MOL0     C12177   6.717   4.963  -0.783  0.3073 -0.3442 -0.2938
   93MOL0     C12178   6.738   5.082  -0.851  0.7749 -0.7608 -0.1603
   93MOL0     O12179   6.634   5.170  -0.866 -0.3820 -0.5333 -0.3435
   93MOL0     C12180   6.645   5.273  -0.957  0.2301  0.5517  0.6997
   93MOL0     C12181   6.519   5.356  -0.969 -0.5732  0.3585 -0.7519
   93MOL0     C12182   6.492   5.443  -0.843  0.6926  0.5397  0.1498
   93MOL0     C12183   6.357   5.520  -0.865  0.0191 -0.2657  0.0322
   93MOL0     C12184   6.333   5.631  -0.768  0.3818  0.4281  0.5667
   93MOL0     C12185   6.275   5.577  -0.631  0.6197  1.1137  0.3316
   93MOL0     C12186   6.265   5.699  -0.534  0.0860 -0.1563  0.7019
   93MOL0     C12187   6.123   5.764  -0.540 -0.8036  1.2687 -0.2485
   93MOL0    Cl12188   6.023   5.664  -0.436  0.1631  0.1476 -0.1805
   93MOL0     C12189   6.862   5.096  -0.906  0.0643 -0.6176 -0.1491
   93MOL0     C12190   6.967   5.008  -0.886  0.2400 -0.3449  0.5355
   93MOL0     O12191   7.199   4.827  -0.923 -1.0399  0.1208  0.6559
   93MOL0     C12192   7.150   4.531  -0.735  0.3694 -0.1231 -0.5252
   93MOL0     C12193   7.220   4.424  -0.687 -0.0207  0.6669 -0.0150
   93MOL0     N12194   7.884   4.380  -0.226  0.1486  0.2818  0.1047
   93MOL0     N12195   7.955   4.401  -0.125  0.7116  0.2339  0.4233
   93MOL0     C12196   8.145   5.021   0.748  0.0637 -0.6033  0.7739
   93MOL0     C12197   8.049   5.127   0.731 -0.9714  0.2449  0.3885
   93MOL0     C12198   7.698   5.376   0.521  0.6538  0.1606  0.4750
   93MOL0     C12199   7.613   5.434   0.422 -0.2457 -0.0132  0.4659
   93MOL0     C12200   7.529   5.550   0.453  0.2897  0.2798  0.5472
   93MOL0     C12201   7.506   5.593   0.584 -1.0170 -0.2440  0.2287
   93MOL0     O12202   7.417   5.692   0.604  0.2384  0.5081 -0.6072
   93MOL0     C12203   7.372   5.720   0.743 -0.0922  0.6809  0.1928
   93MOL0     C12204   7.285   5.845   0.739 -0.1729  0.1856  0.6277
   93MOL0     C12205   7.372   5.971   0.695  0.2366  0.2785 -0.2455
   93MOL0     C12206   7.418   6.059   0.806 -1.1722  0.1669  0.0302
   93MOL0     C12207   7.530   5.997   0.886 -0.2158  0.2330  0.1759
   93MOL0     C12208   7.601   5.953   0.972 -1.0515 -0.9718 -0.1036
   93MOL0     C12209   7.587   5.536   0.681 -0.3131  0.5708  0.3274
   93MOL0     C12210   7.682   5.436   0.646 -0.9850 -0.3601 -0.3204
   93MOL0     H12211   7.951   5.053   0.417  0.4768 -0.6399 -0.0935
   93MOL0     H12212   8.118   4.855   0.453  1.8482 -0.1754  1.2732
   93MOL0     H12213   8.118   4.685   0.740  0.4639  0.9409 -0.4535
   93MOL0     H12214   8.254   4.699   0.858  1.6731 -2.5637  0.3946
   93MOL0     H12215   8.286   4.503   0.724  1.1487 -0.0311  1.0045
   93MOL0     H12216   8.401   4.628   0.647 -1.0841  1.2701 -1.0948
   93MOL0     H12217   8.324   4.551   0.467  1.4833 -3.0355  2.7158
   93MOL0     H12218   8.181   4.651   0.476 -3.8292 -1.1309  0.9738
   93MOL0     H12219   8.209   4.349   0.529 -0.9762 -0.4394  1.3169
   93MOL0     H12220   8.078   4.443   0.593  0.6056 -3.0524  0.5990
   93MOL0     H12221   8.161   4.445   0.307 -1.1326 -2.2460 -1.9941
   93MOL0     H12222   8.003   4.529   0.365  0.7887 -0.0462 -2.8731
   93MOL0     H12223   7.908   4.334   0.409  0.5148  0.8999 -0.1727
   93MOL0     H12224   8.048   4.234   0.417  0.7842  0.7740  0.7516
   93MOL0     H12225   8.069   4.231   0.172 -0.0572  1.6665  2.0452
   93MOL0     H12226   7.900   4.195   0.215 -1.4406  1.5053  1.8499
   93MOL0     H12227   8.001   4.470   0.130 -2.2931  2.2322  3.0498
   93MOL0     H12228   7.841   4.426   0.175 -0.9469 -2.9881  0.2758
   93MOL0     H12229   7.677   4.285   0.015  0.6347 -2.4397 -0.1880
   93MOL0     H12230   7.580   4.253  -0.200  0.8812  1.1352  1.1981
   93MOL0     H12231   7.684   4.219  -0.340 -0.4427  0.0136  0.4494
   93MOL0     H12232   7.677   4.468  -0.376  1.1827 -0.0564  0.1650
   93MOL0     H12233   7.547   4.492  -0.265 -1.1443  1.7125 -4.0246
   93MOL0     H12234   7.408   4.303  -0.394 -0.2756  0.5297  0.3007
   93MOL0     H12235   7.415   4.470  -0.439  0.8237  0.0328 -1.0770
   93MOL0     H12236   7.605   4.265  -0.536  2.0915  0.9041  0.1140
   93MOL0     H12237   7.586   4.423  -0.612 -1.9695 -0.1819 -0.6103
   93MOL0     H12238   7.534   4.492  -0.813 -0.3693  0.7590 -3.9927
   93MOL0     H12239   7.413   4.694  -0.883  1.8411  0.5134  1.7095
   93MOL0     H12240   6.773   4.773  -0.713 -0.5026  1.5239  2.0424
   93MOL0     H12241   6.614   4.974  -0.749  0.6556 -0.1257  0.7425
   93MOL0     H12242   6.659   5.227  -1.055 -2.9421  0.1772  0.3316
   93MOL0     H12243   6.729   5.339  -0.934  0.2998  0.0124  2.1019
   93MOL0     H12244   6.431   5.292  -0.980 -0.7094  0.6878 -1.6585
   93MOL0     H12245   6.524   5.429  -1.051  1.9209  2.5883  1.2129
   93MOL0     H12246   6.569   5.517  -0.816  3.7122 -1.8541 -1.2283
   93MOL0     H12247   6.481   5.376  -0.757  1.4806  0.6801  0.3739
   93MOL0     H12248   6.352   5.561  -0.966 -2.9245 -1.2806 -0.3400
   93MOL0     H12249   6.277   5.449  -0.844 -0.7627  0.8647  1.0513
   93MOL0     H12250   6.267   5.708  -0.811 -0.8477 -2.5264 -3.4132
   93MOL0     H12251   6.435   5.668  -0.756  1.1086  0.1830 -3.5489
   93MOL0     H12252   6.346   5.505  -0.588 -0.9402 -0.4566  0.4272
   93MOL0     H12253   6.186   5.514  -0.643  0.4417  1.2260  1.0295
   93MOL0     H12254   6.282   5.672  -0.429 -0.1420 -0.8586  0.5637
   93MOL0     H12255   6.342   5.772  -0.561  0.0443 -0.4818 -0.3435
   93MOL0     H12256   6.085   5.771  -0.642 -1.3718 -1.2713 -0.2788
   93MOL0     H12257   6.119   5.865  -0.498  2.7407  1.7458 -0.7138
   93MOL0     H12258   6.874   5.169  -0.985 -0.7089 -0.6159 -0.2684
   93MOL0     H12259   7.061   5.019  -0.940 -0.1407 -0.8839 -0.2576
   93MOL0     H12260   7.045   4.530  -0.709  0.3064 -0.8981 -0.7909
   93MOL0     H12261   7.175   4.348  -0.624  0.1812  1.8943  1.6634
   93MOL0     H12262   8.205   5.018   0.839  0.3158 -2.4764  0.5901
   93MOL0     H12263   8.034   5.207   0.803  0.3347  1.6723 -0.8626
   93MOL0     H12264   7.621   5.398   0.320 -4.5037  0.6397 -0.2765
   93MOL0     H12265   7.475   5.605   0.377  1.0797  0.5931  0.2015
   93MOL0     H12266   7.460   5.725   0.808  2.1668 -3.6522 -2.0596
   93MOL0     H12267   7.317   5.631   0.773  0.3179  0.4611  0.3008
   93MOL0     H12268   7.201   5.820   0.673  0.6074  0.5683 -0.5361
   93MOL0     H12269   7.242   5.861   0.839 -1.6608 -0.7648  0.1753
   93MOL0     H12270   7.308   6.024   0.623 -0.2031 -1.8525 -1.4889
   93MOL0     H12271   7.458   5.935   0.637 -0.7594 -0.8939 -1.0352
   93MOL0     H12272   7.442   6.149   0.749  0.8467 -0.8122 -0.7745
   93MOL0     H12273   7.334   6.077   0.873 -0.7411 -0.8010  0.8511
   93MOL0     H12274   7.663   5.903   1.043 -1.2298 -0.3925  0.4636
   93MOL0     H12275   7.577   5.555   0.788 -4.9253  1.1418 -0.0043
   93MOL0     H12276   7.732   5.400   0.736 -0.4791 -0.5354 -0.6655
   94MOL0     O12277   4.025   7.423   8.540  0.0819 -0.1415 -0.7438
   94MOL0     C12278   3.988   7.474   8.644 -0.5815 -0.6381 -0.1741
   94MOL0     O12279   4.066   7.499   8.757 -0.4371 -0.1982 -0.6004
   94MOL0     C12280   4.185   7.433   8.784 -0.1671  0.4615  0.6092
   94MOL0     C12281   4.194   7.296   8.773 -0.1639  0.7433 -0.1032
   94MOL0     C12282   4.308   7.235   8.814 -0.3128 -0.0354 -0.1487
   94MOL0     C12283   4.424   7.308   8.847 -0.7215  0.1950 -0.3467
   94MOL0     O12284   4.543   7.247   8.873 -0.2594  0.1181 -0.0010
   94MOL0     C12285   4.557   7.104   8.831 -0.4717 -0.5541 -0.4510
   94MOL0     C12286   4.702   7.070   8.867  0.1756 -0.1943  0.2383
   94MOL0     C12287   4.744   6.950   8.792  0.1421  0.2219 -0.2567
   94MOL0     C12288   4.885   6.918   8.832 -0.4034 -0.1863  0.7503
   94MOL0     C12289   4.964   6.821   8.739  0.1728 -0.3903  0.2294
   94MOL0     C12290   5.117   6.820   8.754  0.6079  0.0465  0.0725
   94MOL0     C12291   5.165   6.737   8.863  0.1284  0.7245  0.0595
   94MOL0     C12292   5.138   6.584   8.858  0.1089 -0.0666 -0.3221
   94MOL0     N12293   5.235   6.517   8.945 -0.1781  0.8715  0.5718
   94MOL0     C12294   5.375   6.538   8.966  0.2991 -0.3641 -0.4490
   94MOL0     C12295   5.404   6.446   9.070  1.2100  0.6758 -0.0059
   94MOL0     C12296   5.546   6.443   9.126 -0.4672 -0.0088 -0.8864
   94MOL0     C12297   5.536   6.420   9.278 -0.4748  0.0769 -0.2492
   94MOL0     C12298   5.681   6.393   9.332 -0.5241  0.4223  0.3621
   94MOL0     C12299   5.679   6.359   9.475  0.3667  0.0279  0.2560
   94MOL0     O12300   5.810   6.392   9.531  0.3199 -0.0206 -0.1621
   94MOL0     C12301   5.897   6.278   9.507 -0.6790 -0.3671 -0.0180
   94MOL0     C12302   6.005   6.286   9.417 -0.7310 -0.2322  0.4122
   94MOL0     C12303   6.092   6.185   9.399  0.1990  0.5224 -0.3909
   94MOL0     C12304   6.066   6.064   9.464 -0.2944 -0.5037  0.1214
   94MOL0     C12305   6.149   5.943   9.459 -0.5010 -0.7258  1.0694
   94MOL0     O12306   6.132   5.845   9.551 -0.8934 -0.6956  0.2895
   94MOL0     C12307   6.201   5.723   9.542 -0.5978 -0.2366 -1.4941
   94MOL0     C12308   6.143   5.614   9.491 -0.0590  0.5217  0.9452
   94MOL0     C12309   6.190   5.484   9.504 -0.0310  0.4461  0.3579
   94MOL0     C12310   6.311   5.469   9.562 -0.3723 -0.6660 -0.1634
   94MOL0     O12311   6.378   5.347   9.568  0.2388  0.2138 -0.7235
   94MOL0     C12312   6.377   5.273   9.698  0.5598 -0.0638  0.1797
   94MOL0     C12313   6.243   5.213   9.718 -0.2189  0.3823 -1.3078
   94MOL0     C12314   6.239   5.082   9.787 -0.4835 -0.7064  0.7788
   94MOL0     C12315   6.103   5.012   9.775 -0.5378  0.2578  0.0911
   94MOL0     C12316   6.110   4.883   9.833  0.7815 -0.2192 -0.8927
   94MOL0     C12317   5.975   4.824   9.829  0.1006  0.7871  0.1861
   94MOL0     C12318   5.966   4.675   9.874  0.3323 -0.4457  0.3515
   94MOL0     C12319   6.015   4.659  10.017  0.1967 -0.5679 -0.3799
   94MOL0    Cl12320   5.906   4.547  10.110 -0.3291  0.1712  0.0571
   94MOL0     C12321   6.369   5.576   9.633 -0.4155 -0.0615 -0.8836
   94MOL0     C12322   6.311   5.709   9.628 -0.1375 -0.2429  0.1176
   94MOL0     O12323   6.216   5.941   9.355  0.2351  0.3355  0.6443
   94MOL0     C12324   5.963   6.060   9.556 -0.3718  0.6716 -0.8673
   94MOL0     C12325   5.885   6.167   9.587 -0.2000 -0.3142 -0.1232
   94MOL0     N12326   5.288   6.386   9.107  0.2999  0.6106 -0.1028
   94MOL0     N12327   5.192   6.421   9.038 -0.3396 -0.2609 -0.0713
   94MOL0     C12328   4.412   7.444   8.881 -0.7340 -0.0421  0.1849
   94MOL0     C12329   4.293   7.512   8.838  0.1068  0.1089  0.6729
   94MOL0     C12330   3.860   7.540   8.638  1.0160  1.3558 -1.1443
   94MOL0     C12331   3.827   7.651   8.724 -0.2722 -0.3512  0.3295
   94MOL0     C12332   3.702   7.711   8.713  0.2253 -0.6380 -0.2112
   94MOL0     C12333   3.604   7.675   8.626  0.5870 -0.3261  0.8902
   94MOL0     O12334   3.487   7.742   8.634 -0.1147  1.2806 -0.0198
   94MOL0     C12335   3.394   7.739   8.525 -0.2704  0.0846 -0.0977
   94MOL0     C12336   3.427   7.834   8.407 -0.5156  0.7760  0.2011
   94MOL0     C12337   3.409   7.968   8.458  0.7442 -0.2155 -0.4546
   94MOL0     C12338   3.431   8.089   8.366  0.0961  0.3654 -1.0313
   94MOL0     C12339   3.410   8.221   8.430 -0.7727 -0.2082  0.9427
   94MOL0     C12340   3.384   8.324   8.490 -0.0115 -0.2457  0.2212
   94MOL0     C12341   3.634   7.573   8.532 -0.4845  0.2792  0.0101
   94MOL0     C12342   3.762   7.505   8.537 -0.3179  0.2959 -0.0605
   94MOL0     H12343   4.115   7.232   8.736  2.5511 -2.0956 -1.4149
   94MOL0     H12344   4.320   7.136   8.772 -0.9454  0.8854 -2.6998
   94MOL0     H12345   4.534   7.097   8.725  0.6102  0.4270 -0.7768
   94MOL0     H12346   4.490   7.030   8.876  1.3785 -2.3513 -0.4417
   94MOL0     H12347   4.718   7.062   8.975 -0.8723  1.1875  0.5344
   94MOL0     H12348   4.763   7.156   8.839  1.7696 -0.6695  2.0509
   94MOL0     H12349   4.735   6.970   8.685 -0.2460  1.1173 -0.0691
   94MOL0     H12350   4.680   6.868   8.826  0.8785 -1.1506 -2.0102
   94MOL0     H12351   4.943   7.010   8.838  0.8883 -0.7172 -2.1096
   94MOL0     H12352   4.884   6.871   8.931 -3.0955 -2.5457 -0.2369
   94MOL0     H12353   4.953   6.856   8.637 -1.1028  1.2654  0.8862
   94MOL0     H12354   4.916   6.723   8.753 -2.8048  0.0134 -4.7101
   94MOL0     H12355   5.147   6.924   8.767 -0.4553  0.6589 -1.9003
   94MOL0     H12356   5.161   6.786   8.660  0.2582 -1.3690  0.3945
   94MOL0     H12357   5.273   6.754   8.861  0.8366 -2.8215  0.8441
   94MOL0     H12358   5.127   6.776   8.958 -0.1947 -2.0631  1.1686
   94MOL0     H12359   5.160   6.540   8.760  0.1822 -0.1400 -0.2726
   94MOL0     H12360   5.034   6.565   8.888  1.1034 -2.2737  2.1088
   94MOL0     H12361   5.443   6.595   8.904 -0.6087 -1.9559 -3.0861
   94MOL0     H12362   5.598   6.534   9.095 -2.3279  0.7895 -1.8382
   94MOL0     H12363   5.587   6.352   9.081 -1.0650 -0.9669  0.4209
   94MOL0     H12364   5.470   6.335   9.294 -1.0657  0.3671 -1.0925
   94MOL0     H12365   5.488   6.503   9.331 -0.0492 -0.3742  0.8799
   94MOL0     H12366   5.725   6.310   9.277 -1.2077  2.0628 -2.8959
   94MOL0     H12367   5.746   6.479   9.311 -0.6346  1.0088  2.2484
   94MOL0     H12368   5.660   6.254   9.495 -0.2660  0.7987  4.9001
   94MOL0     H12369   5.596   6.410   9.526 -0.5561 -2.7381  1.6904
   94MOL0     H12370   6.018   6.385   9.374 -0.2938 -0.1921  0.6305
   94MOL0     H12371   6.178   6.200   9.334  2.7606 -0.3869  2.5507
   94MOL0     H12372   6.044   5.634   9.450  0.1945 -0.1920 -0.0288
   94MOL0     H12373   6.139   5.393   9.472  1.9934 -0.0611 -1.6815
   94MOL0     H12374   6.405   5.347   9.773  0.3456  3.6659 -3.0827
   94MOL0     H12375   6.453   5.194   9.706 -1.0549 -1.4388  3.8683
   94MOL0     H12376   6.199   5.197   9.619 -0.0082 -0.9884 -1.1903
   94MOL0     H12377   6.173   5.282   9.766 -0.7281 -1.0379  0.0596
   94MOL0     H12378   6.279   5.102   9.887  1.2001  1.8402 -0.2829
   94MOL0     H12379   6.309   5.029   9.722 -1.8360  0.7970 -2.1110
   94MOL0     H12380   6.032   5.056   9.845 -2.4502 -3.3375  0.6584
   94MOL0     H12381   6.078   5.008   9.668  1.9755 -2.8103 -0.5260
   94MOL0     H12382   6.141   4.899   9.937 -4.0525  0.0046  0.7834
   94MOL0     H12383   6.182   4.828   9.772  0.3968 -3.9320  1.6325
   94MOL0     H12384   5.937   4.816   9.727 -0.9207  2.9888  0.3301
   94MOL0     H12385   5.907   4.898   9.873  0.1365  3.4124 -3.6914
   94MOL0     H12386   5.860   4.651   9.869  0.1749  0.0437  1.0961
   94MOL0     H12387   6.019   4.604   9.810 -1.0672 -1.5213  0.3551
   94MOL0     H12388   6.018   4.760  10.061  3.0228 -1.0744  0.8491
   94MOL0     H12389   6.119   4.628  10.004  0.3950  0.2497 -0.8340
   94MOL0     H12390   6.462   5.562   9.687 -0.7055  0.2275 -0.2959
   94MOL0     H12391   6.363   5.790   9.678  0.7917 -1.0496  0.4876
   94MOL0     H12392   5.942   5.968   9.609 -2.0445 -0.0330 -2.6125
   94MOL0     H12393   5.810   6.160   9.665 -2.2716  0.6178 -1.9341
   94MOL0     H12394   4.496   7.501   8.917 -0.9218  0.6770 -0.4819
   94MOL0     H12395   4.279   7.618   8.858 -3.3695 -0.5976  3.1220
   94MOL0     H12396   3.900   7.679   8.800  3.2497 -2.7776 -1.8674
   94MOL0     H12397   3.671   7.774   8.795 -1.8934  0.8476 -2.0329
   94MOL0     H12398   3.301   7.762   8.577  1.8402  4.2266  2.3543
   94MOL0     H12399   3.376   7.641   8.481 -4.1059  1.7795 -2.9598
   94MOL0     H12400   3.531   7.835   8.374 -0.4354  0.9412  0.4590
   94MOL0     H12401   3.368   7.810   8.318 -1.6987 -2.8202  1.7604
   94MOL0     H12402   3.463   7.992   8.550 -0.5391  2.4161 -0.2753
   94MOL0     H12403   3.307   7.974   8.497  1.7052  1.1592  2.0754
   94MOL0     H12404   3.538   8.079   8.347  1.0358  0.6583  3.1143
   94MOL0     H12405   3.366   8.084   8.278 -0.3349  1.1444 -0.7662
   94MOL0     H12406   3.373   8.410   8.552 -0.1198  0.2464 -0.4784
   94MOL0     H12407   3.565   7.539   8.455 -0.0317 -2.1001  0.5472
   94MOL0     H12408   3.778   7.439   8.453 -1.5908 -1.4742  1.0174
   95MOL0     O12409   4.222   7.636   5.439  0.2218  0.2931  0.4271
   95MOL0     C12410   4.167   7.584   5.341  0.4791 -0.1003  0.2382
   95MOL0     O12411   4.035   7.551   5.338  0.7141 -0.1873  0.3542
   95MOL0     C12412   3.958   7.579   5.450  0.8522 -0.6592  0.3373
   95MOL0     C12413   3.892   7.705   5.489 -0.2991 -0.6644  0.4735
   95MOL0     C12414   3.815   7.722   5.601 -0.1461 -0.2739  0.5351
   95MOL0     C12415   3.792   7.611   5.683 -0.5189  0.4797 -0.7479
   95MOL0     O12416   3.722   7.612   5.802  1.8435 -0.0198  0.7405
   95MOL0     C12417   3.683   7.749   5.844 -0.9934  0.2792  0.4444
   95MOL0     C12418   3.610   7.739   5.986 -0.3346 -0.8523  0.0367
   95MOL0     C12419   3.507   7.633   5.984  0.5052 -0.3934  0.2253
   95MOL0     C12420   3.554   7.488   6.010  0.3436  0.4870 -0.3761
   95MOL0     C12421   3.438   7.408   6.073 -0.2216  0.5566 -0.2794
   95MOL0     C12422   3.500   7.260   6.083  0.0347  0.8792 -0.4853
   95MOL0     C12423   3.400   7.154   6.125  0.3157 -0.5997 -0.0559
   95MOL0     C12424   3.446   7.009   6.100  0.6971 -0.2044  0.0953
   95MOL0     N12425   3.578   6.976   6.152  0.1050 -0.0273  0.6907
   95MOL0     C12426   3.604   6.941   6.277 -0.0790 -0.4548 -0.5111
   95MOL0     C12427   3.738   6.923   6.281 -0.3386  0.7560 -0.0751
   95MOL0     C12428   3.826   6.872   6.400 -0.0459  0.7380  0.4823
   95MOL0     C12429   3.868   6.991   6.485  0.7976  0.5799  1.0213
   95MOL0     C12430   3.978   7.079   6.417  0.0555 -0.9291  0.6250
   95MOL0     C12431   3.971   7.212   6.474 -0.2338  0.2885  0.0208
   95MOL0     O12432   4.103   7.276   6.463  1.1133  0.1453 -0.1370
   95MOL0     C12433   4.114   7.393   6.526  0.3239  0.1484 -0.6667
   95MOL0     C12434   4.236   7.412   6.596 -0.3507  0.7129 -0.4085
   95MOL0     C12435   4.269   7.535   6.652  0.5266  0.0936 -0.0543
   95MOL0     C12436   4.173   7.639   6.649 -0.8066  0.2154  0.5377
   95MOL0     C12437   4.206   7.770   6.714  1.0905  0.4786 -0.0906
   95MOL0     O12438   4.329   7.764   6.791  0.1065  0.1504  0.6917
   95MOL0     C12439   4.386   7.883   6.834  0.4478 -0.0019  0.3256
   95MOL0     C12440   4.454   7.876   6.965  0.6087 -0.3655 -0.8162
   95MOL0     C12441   4.496   7.986   7.032  1.0511 -0.0164 -0.0008
   95MOL0     C12442   4.503   8.104   6.962  0.5751 -0.1332 -0.0877
   95MOL0     O12443   4.560   8.207   7.033 -0.1900  0.2248  0.3465
   95MOL0     C12444   4.608   8.336   6.980 -0.0411  0.0367 -0.0591
   95MOL0     C12445   4.495   8.442   6.963  0.7810  0.5120 -0.2798
   95MOL0     C12446   4.473   8.530   7.086 -0.6791 -0.3852  0.1028
   95MOL0     C12447   4.362   8.635   7.072 -0.1910 -0.4823 -0.5351
   95MOL0     C12448   4.383   8.736   7.191  0.0439  0.0774  0.7051
   95MOL0     C12449   4.264   8.830   7.214 -0.0959  0.1262 -0.0934
   95MOL0     C12450   4.220   8.903   7.083  0.0522  0.1450 -0.8002
   95MOL0     C12451   4.130   9.015   7.114  0.8227 -0.4728 -0.2738
   95MOL0    Cl12452   4.107   9.121   6.969  0.2022  0.6080  0.2743
   95MOL0     C12453   4.444   8.116   6.831  0.4916  0.4517  0.4261
   95MOL0     C12454   4.382   8.007   6.771  0.0070  0.3198  0.5624
   95MOL0     O12455   4.125   7.869   6.713 -0.3481  0.0226  0.3339
   95MOL0     C12456   4.046   7.616   6.591  0.2580 -0.0951  0.2988
   95MOL0     C12457   4.025   7.497   6.519  0.2797  0.1573 -0.3805
   95MOL0     N12458   3.790   6.954   6.156  0.0943 -0.1981 -0.2688
   95MOL0     N12459   3.692   6.982   6.076  0.7548 -0.7675 -0.6936
   95MOL0     C12460   3.865   7.493   5.652  0.9855  0.5206 -0.4961
   95MOL0     C12461   3.941   7.471   5.540 -0.4121 -0.1815 -0.0163
   95MOL0     C12462   4.240   7.581   5.211  0.2005 -0.0343 -0.9954
   95MOL0     C12463   4.354   7.658   5.178 -1.0452  0.4943  0.0608
   95MOL0     C12464   4.417   7.641   5.057 -0.3226 -0.5936 -0.3296
   95MOL0     C12465   4.392   7.533   4.972 -0.2735 -0.4303  0.6114
   95MOL0     O12466   4.459   7.532   4.856  0.0191  0.5625 -0.3987
   95MOL0     C12467   4.460   7.417   4.772  0.2565 -0.4634  1.0541
   95MOL0     C12468   4.540   7.454   4.643 -0.6174  0.1496 -0.3601
   95MOL0     C12469   4.496   7.567   4.549 -0.4940 -0.0295  0.3739
   95MOL0     C12470   4.355   7.553   4.492 -0.4072  0.8132  0.0645
   95MOL0     C12471   4.273   7.633   4.578  0.4048  0.7075 -1.8594
   95MOL0     C12472   4.207   7.708   4.652  1.0516  0.2999  0.3454
   95MOL0     C12473   4.270   7.465   5.003 -0.1050 -0.8778  0.5411
   95MOL0     C12474   4.194   7.494   5.116  0.6017  0.3230 -0.3466
   95MOL0     H12475   3.914   7.777   5.411  3.7010  0.0533  2.0077
   95MOL0     H12476   3.782   7.823   5.625 -1.3322 -1.2529  3.5347
   95MOL0     H12477   3.619   7.796   5.768  0.7770  1.7354 -0.2021
   95MOL0     H12478   3.768   7.812   5.874  1.0289 -3.1967  2.6794
   95MOL0     H12479   3.562   7.836   6.001 -0.5636 -0.5030 -2.5163
   95MOL0     H12480   3.680   7.702   6.062  0.5118 -1.9240 -1.2244
   95MOL0     H12481   3.474   7.633   5.879  3.2468 -0.1849 -0.7092
   95MOL0     H12482   3.420   7.653   6.047  2.1429 -2.2745  3.3077
   95MOL0     H12483   3.579   7.439   5.915 -1.2937 -2.9248  0.7524
   95MOL0     H12484   3.637   7.497   6.079  0.5618 -0.4159 -0.5050
   95MOL0     H12485   3.355   7.401   6.003  0.0430 -1.0966 -0.4764
   95MOL0     H12486   3.409   7.439   6.174 -4.0509  1.2706 -1.4707
   95MOL0     H12487   3.579   7.257   6.159  1.4441 -1.5723 -1.9153
   95MOL0     H12488   3.554   7.228   5.993  1.8159 -2.0011  1.4320
   95MOL0     H12489   3.357   7.175   6.223 -3.8880  2.3658 -2.1863
   95MOL0     H12490   3.312   7.172   6.061 -1.3321 -0.8282  2.0358
   95MOL0     H12491   3.460   6.999   5.992 -1.4812 -2.4858 -0.0643
   95MOL0     H12492   3.368   6.934   6.117  0.3677 -0.4239 -2.0683
   95MOL0     H12493   3.546   6.937   6.369  0.6683 -1.1117 -0.0608
   95MOL0     H12494   3.914   6.820   6.362  0.7611 -0.2173  3.3959
   95MOL0     H12495   3.770   6.796   6.455  2.1130 -1.1683  0.1933
   95MOL0     H12496   3.915   6.952   6.576  1.6073 -3.8312 -1.0470
   95MOL0     H12497   3.771   7.040   6.504 -0.4751 -1.1872 -0.5433
   95MOL0     H12498   4.079   7.035   6.415 -1.0750 -3.7093 -0.3760
   95MOL0     H12499   3.948   7.101   6.314  2.2416  0.6732  0.2488
   95MOL0     H12500   3.949   7.196   6.580  0.0803 -1.5711 -0.1605
   95MOL0     H12501   3.887   7.271   6.436 -1.0052  0.3056  1.6581
   95MOL0     H12502   4.303   7.327   6.587  1.6805  2.1393  0.6277
   95MOL0     H12503   4.370   7.533   6.692  0.9754 -1.5176 -1.1939
   95MOL0     H12504   4.458   7.780   7.015 -0.6611 -0.8745 -1.6366
   95MOL0     H12505   4.531   7.971   7.133  0.1769  0.0677  0.3287
   95MOL0     H12506   4.669   8.327   6.890  0.0261 -4.3401  0.2274
   95MOL0     H12507   4.678   8.376   7.055  1.3658 -0.2189 -1.1846
   95MOL0     H12508   4.398   8.400   6.933  1.4552 -1.3743  0.0557
   95MOL0     H12509   4.524   8.507   6.880  0.7538 -0.9851 -1.4871
   95MOL0     H12510   4.566   8.585   7.107 -1.1950  0.6652 -0.2662
   95MOL0     H12511   4.454   8.478   7.180  4.4658  2.2623  3.0993
   95MOL0     H12512   4.366   8.688   6.977  3.1115 -1.7064 -1.2451
   95MOL0     H12513   4.265   8.586   7.084 -1.8979  2.4929 -1.2338
   95MOL0     H12514   4.470   8.799   7.167  0.1158  0.5904  2.1908
   95MOL0     H12515   4.411   8.683   7.282 -0.3856 -0.9201  0.2736
   95MOL0     H12516   4.298   8.911   7.279 -2.8551  0.8054  0.6717
   95MOL0     H12517   4.187   8.770   7.264  1.3965  1.8119  4.7842
   95MOL0     H12518   4.312   8.941   7.038  1.0329 -0.0383  0.9641
   95MOL0     H12519   4.175   8.833   7.011 -0.4169 -0.4788  0.0791
   95MOL0     H12520   4.170   9.096   7.177  1.1732 -0.2295 -0.7966
   95MOL0     H12521   4.032   8.984   7.151  0.7373  1.4647  1.2940
   95MOL0     H12522   4.440   8.216   6.789 -0.6809  0.6504  0.9668
   95MOL0     H12523   4.345   8.014   6.670  2.6092 -3.2057 -0.8341
   95MOL0     H12524   3.972   7.695   6.583  0.6116  0.1630 -0.5055
   95MOL0     H12525   3.935   7.488   6.459 -0.2708  1.4238  0.2026
   95MOL0     H12526   3.865   7.405   5.716 -1.2851  0.3153 -0.7251
   95MOL0     H12527   3.990   7.375   5.524  0.4394  0.0263  1.1611
   95MOL0     H12528   4.376   7.742   5.242  0.7152  0.1393 -0.0366
   95MOL0     H12529   4.497   7.712   5.043  0.7390 -1.4691  0.9823
   95MOL0     H12530   4.357   7.395   4.743  0.3424  2.9877 -2.8878
   95MOL0     H12531   4.513   7.332   4.816 -0.6237 -2.5921 -1.6958
   95MOL0     H12532   4.641   7.476   4.680 -1.0438  4.6887 -1.2675
   95MOL0     H12533   4.538   7.362   4.584  2.4397  0.6538 -1.3976
   95MOL0     H12534   4.568   7.556   4.467  0.7537  0.6220  1.3447
   95MOL0     H12535   4.514   7.668   4.587  0.1671 -0.3361  0.9045
   95MOL0     H12536   4.343   7.585   4.388 -0.4243 -1.7544 -0.7859
   95MOL0     H12537   4.330   7.448   4.506  0.7956  0.3202 -1.3068
   95MOL0     H12538   4.146   7.772   4.712  0.6209 -0.5942  0.8805
   95MOL0     H12539   4.231   7.394   4.931  0.9182  0.4197 -1.3826
   95MOL0     H12540   4.100   7.442   5.129  0.0452  1.2500 -0.5347
   96MOL0     O12541   7.955   8.679   0.572  0.2915  0.7296  0.4332
   96MOL0     C12542   7.939   8.799   0.553 -0.0424  0.1485  0.5760
   96MOL0     O12543   8.038   8.885   0.486 -0.1536  0.5532  0.0596
   96MOL0     C12544   8.166   8.823   0.464 -0.0010  0.0717 -0.0983
   96MOL0     C12545   8.191   8.726   0.366 -0.2764 -1.0000  1.4255
   96MOL0     C12546   8.321   8.680   0.343 -0.1298  2.1247  0.5478
   96MOL0     C12547   8.433   8.726   0.423  0.0603  0.0418  0.3149
   96MOL0     O12548   8.569   8.699   0.421 -0.6375  0.4155  0.1495
   96MOL0     C12549   8.594   8.563   0.397  0.1849  0.9198 -0.7143
   96MOL0     C12550   8.630   8.529   0.247 -0.3289 -0.4631 -0.1633
   96MOL0     C12551   8.757   8.617   0.218  0.7046 -0.0523 -1.2599
   96MOL0     C12552   8.849   8.563   0.109 -0.2227 -0.7488  0.2090
   96MOL0     C12553   8.952   8.667   0.079  0.4817  0.4598  0.4308
   96MOL0     C12554   9.058   8.622  -0.016 -0.1114  1.1987  0.5202
   96MOL0     C12555   9.182   8.695  -0.017  0.7116  0.5696 -0.1903
   96MOL0     C12556   9.277   8.668  -0.136 -0.6322 -0.1117  0.3295
   96MOL0     N12557   9.399   8.746  -0.144  0.1728 -0.2093 -0.4139
   96MOL0     C12558   9.447   8.837  -0.049 -0.1770  0.9207  0.1592
   96MOL0     C12559   9.563   8.885  -0.098  0.4892 -0.1954 -0.2081
   96MOL0     C12560   9.648   8.987  -0.029  0.1461  0.5296 -0.0974
   96MOL0     C12561   9.746   8.915   0.073 -0.2573 -1.0737 -0.6464
   96MOL0     C12562   9.688   8.867   0.204  0.4007 -1.0258  0.6952
   96MOL0     C12563   9.793   8.857   0.312  0.0762  0.8785 -0.7421
   96MOL0     O12564   9.745   8.875   0.444 -1.2761  0.7411  0.7909
   96MOL0     C12565   9.735   8.999   0.501  0.3153  0.2795 -0.3929
   96MOL0     C12566   9.665   9.008   0.617 -0.1622 -0.0282 -0.0307
   96MOL0     C12567   9.639   9.125   0.694 -0.5106  0.6800 -0.0725
   96MOL0     C12568   9.688   9.243   0.639 -0.2522  0.1259  0.3200
   96MOL0     C12569   9.661   9.370   0.703 -0.4507 -0.7153 -0.4273
   96MOL0     O12570   9.610   9.467   0.631 -0.9803 -0.0740 -0.1061
   96MOL0     C12571   9.598   9.586   0.705 -0.1983 -0.2135 -0.0262
   96MOL0     C12572   9.465   9.620   0.753  0.3759 -0.4514 -0.3581
   96MOL0     C12573   9.445   9.742   0.819  0.1044 -0.1914 -0.0070
   96MOL0     C12574   9.555   9.830   0.840 -0.1390 -0.1644 -0.1418
   96MOL0     O12575   9.539   9.956   0.897 -0.3402  0.0359 -0.7771
   96MOL0     C12576   9.436   9.996   0.995  0.4612 -0.0946 -0.5075
   96MOL0     C12577   9.423  10.148   0.999  0.6058 -0.1270  0.3429
   96MOL0     C12578   9.550  10.229   1.045 -0.6281  0.0913 -0.3671
   96MOL0     C12579   9.549  10.383   1.030  0.0727 -0.6439  0.4262
   96MOL0     C12580   9.681  10.449   1.052 -0.4679  1.3031  0.6273
   96MOL0     C12581   9.701  10.592   1.012 -0.6713 -0.3332  0.3513
   96MOL0     C12582   9.840  10.648   1.045  0.5056  0.5746 -0.1856
   96MOL0     C12583   9.863  10.804   1.021 -0.4194 -0.0240  0.2526
   96MOL0    Cl12584   9.752  10.902   1.112 -0.0805  0.4938 -0.0010
   96MOL0     C12585   9.684   9.790   0.790 -0.2684 -0.0937 -0.2378
   96MOL0     C12586   9.701   9.674   0.716  0.0489 -0.1912 -0.7446
   96MOL0     O12587   9.676   9.378   0.821  0.1898  0.5125  0.2525
   96MOL0     C12588   9.768   9.238   0.528 -0.7272 -0.2639  0.1241
   96MOL0     C12589   9.792   9.119   0.456  0.4942  0.0704  0.7933
   96MOL0     N12590   9.596   8.820  -0.206 -0.5397  0.3106 -0.3432
   96MOL0     N12591   9.496   8.740  -0.240 -0.4815 -0.4725 -0.7874
   96MOL0     C12592   8.404   8.833   0.510  0.1296 -0.1829 -0.3626
   96MOL0     C12593   8.271   8.879   0.535 -0.5213  0.5871  0.0290
   96MOL0     C12594   7.823   8.865   0.602  0.2633 -1.0512 -0.6917
   96MOL0     C12595   7.719   8.788   0.666 -0.4790  1.0741  0.2148
   96MOL0     C12596   7.604   8.857   0.705 -0.4498 -0.0518 -0.0002
   96MOL0     C12597   7.582   8.993   0.684 -0.0508 -0.0966  0.6328
   96MOL0     O12598   7.468   9.066   0.680 -0.6000 -0.0663 -0.4666
   96MOL0     C12599   7.337   8.992   0.696  1.1439  0.2621  0.1064
   96MOL0     C12600   7.317   8.947   0.843 -0.8030 -0.1137  0.8111
   96MOL0     C12601   7.222   8.818   0.866 -0.2874 -0.0120 -0.6895
   96MOL0     C12602   7.295   8.689   0.818  0.5709 -1.0618 -0.9618
   96MOL0     C12603   7.409   8.664   0.908 -0.0946 -0.5697  0.5044
   96MOL0     C12604   7.508   8.652   0.979  0.4345 -0.7977  0.0072
   96MOL0     C12605   7.692   9.067   0.632  0.6009  0.6491  0.1889
   96MOL0     C12606   7.805   9.008   0.585 -0.3289 -0.1879 -0.3238
   96MOL0     H12607   8.110   8.681   0.308 -0.9278 -1.7148  2.8280
   96MOL0     H12608   8.335   8.609   0.262  0.0234  0.8623  1.6402
   96MOL0     H12609   8.504   8.505   0.424  0.8235  0.9209  1.6264
   96MOL0     H12610   8.672   8.520   0.460  1.6692  3.1905 -0.8797
   96MOL0     H12611   8.551   8.560   0.178  0.6998  0.1495 -1.1247
   96MOL0     H12612   8.662   8.425   0.244  1.3278 -0.0059  0.3111
   96MOL0     H12613   8.821   8.610   0.307 -0.3260  0.1016 -0.4815
   96MOL0     H12614   8.736   8.724   0.208  2.1341  0.5897  1.4810
   96MOL0     H12615   8.902   8.470   0.134  2.4544  0.9825  1.4009
   96MOL0     H12616   8.790   8.547   0.018 -0.2998 -1.0658  0.3121
   96MOL0     H12617   8.993   8.687   0.179 -0.4217  0.3633  0.8309
   96MOL0     H12618   8.899   8.755   0.042  0.8294  1.2483  1.7455
   96MOL0     H12619   9.017   8.615  -0.117 -2.8699  0.5970  1.5948
   96MOL0     H12620   9.075   8.519   0.016 -0.5565  1.5992  2.1516
   96MOL0     H12621   9.155   8.801  -0.017  0.9940  0.8634  4.5348
   96MOL0     H12622   9.225   8.695   0.083 -2.3501  1.6813  1.2556
   96MOL0     H12623   9.217   8.693  -0.224 -0.0772  1.5680  0.3977
   96MOL0     H12624   9.295   8.560  -0.144 -3.0345 -0.7403  2.1736
   96MOL0     H12625   9.398   8.867   0.043 -1.0626  0.0397 -0.0052
   96MOL0     H12626   9.581   9.050   0.030  0.8281  0.9936  0.1832
   96MOL0     H12627   9.692   9.057  -0.100 -1.8813  4.6315  2.2915
   96MOL0     H12628   9.832   8.981   0.084 -2.5775  3.0451 -4.3576
   96MOL0     H12629   9.790   8.825   0.028  0.3027 -0.7324 -0.7934
   96MOL0     H12630   9.607   8.936   0.229 -1.3445 -2.6328 -0.2454
   96MOL0     H12631   9.631   8.775   0.185 -2.5935  0.1990  2.9256
   96MOL0     H12632   9.883   8.913   0.287  1.0701 -0.0719  0.5939
   96MOL0     H12633   9.827   8.753   0.309 -0.6205  0.5491  1.3145
   96MOL0     H12634   9.617   8.922   0.663 -3.8136  0.9474 -1.6228
   96MOL0     H12635   9.578   9.121   0.784 -0.8367  1.2400 -0.2613
   96MOL0     H12636   9.379   9.560   0.726 -1.5333  2.5508 -1.3829
   96MOL0     H12637   9.345   9.765   0.857  0.1737  2.8184 -1.3839
   96MOL0     H12638   9.460   9.970   1.098 -0.1356  2.1576  0.2505
   96MOL0     H12639   9.335   9.964   0.969  0.1734  0.2477  0.1834
   96MOL0     H12640   9.338  10.168   1.065 -2.2895 -0.1524 -3.0787
   96MOL0     H12641   9.397  10.187   0.901  0.9797  1.6191  0.9042
   96MOL0     H12642   9.635  10.204   0.982 -0.3024  1.4375 -0.4946
   96MOL0     H12643   9.569  10.214   1.152  1.3825 -1.6783 -0.9049
   96MOL0     H12644   9.516  10.408   0.929  1.0540 -2.7905 -0.4912
   96MOL0     H12645   9.471  10.424   1.095 -1.9072 -2.2034 -0.8586
   96MOL0     H12646   9.762  10.398   0.999 -1.7487 -0.1193 -0.0448
   96MOL0     H12647   9.715  10.437   1.155  4.6466 -1.4093 -1.0140
   96MOL0     H12648   9.625  10.646   1.070 -1.1458 -0.8669  0.2373
   96MOL0     H12649   9.678  10.598   0.905 -0.4424  2.1391  0.3839
   96MOL0     H12650   9.866  10.621   1.148 -0.5526 -1.7114 -0.4418
   96MOL0     H12651   9.908  10.595   0.977 -0.8202 -0.4623 -0.7642
   96MOL0     H12652   9.851  10.820   0.913 -0.6144  0.2636  0.3182
   96MOL0     H12653   9.965  10.833   1.047 -0.6620  0.9345  0.1423
   96MOL0     H12654   9.759   9.865   0.814  0.2264 -0.6169 -0.1061
   96MOL0     H12655   9.803   9.651   0.687  1.1957 -0.0013  2.6825
   96MOL0     H12656   9.826   9.323   0.495  2.0075 -1.5410  1.3164
   96MOL0     H12657   9.838   9.114   0.358 -2.5534  2.8761 -0.9778
   96MOL0     H12658   8.485   8.879   0.566  1.7342 -1.2042 -1.7400
   96MOL0     H12659   8.232   8.944   0.614  1.6534 -0.5455  2.1810
   96MOL0     H12660   7.730   8.682   0.685 -2.1917  0.9452  0.7083
   96MOL0     H12661   7.530   8.781   0.726 -0.2735 -0.1438  0.3005
   96MOL0     H12662   7.323   8.911   0.624  0.6283  1.6117 -1.3705
   96MOL0     H12663   7.255   9.062   0.676  0.2490 -0.7390  0.1465
   96MOL0     H12664   7.418   8.923   0.879 -0.2469 -0.6745 -1.0288
   96MOL0     H12665   7.282   9.024   0.912 -2.9369 -0.6634  0.3946
   96MOL0     H12666   7.132   8.845   0.810 -1.8763 -0.5031  1.4702
   96MOL0     H12667   7.198   8.803   0.972 -1.1470  1.6789 -0.6098
   96MOL0     H12668   7.220   8.613   0.840 -2.6190  1.8779 -0.7719
   96MOL0     H12669   7.323   8.693   0.712  1.1848  0.8144 -0.7590
   96MOL0     H12670   7.598   8.637   1.033  1.7721  1.1672 -1.5167
   96MOL0     H12671   7.672   9.173   0.627  0.4562  0.6602  0.8289
   96MOL0     H12672   7.880   9.066   0.532  0.8943  3.9594  5.0866
   97MOL0     O12673   9.322   5.532   5.340 -0.9793  0.0265 -0.0274
   97MOL0     C12674   9.407   5.516   5.256  0.2146 -0.6229  0.5910
   97MOL0     O12675   9.383   5.459   5.132  0.6104  0.3366 -0.8659
   97MOL0     C12676   9.259   5.410   5.099 -1.1149  0.0698  1.8319
   97MOL0     C12677   9.258   5.297   5.018 -0.1268  0.2739 -0.4511
   97MOL0     C12678   9.138   5.244   4.979 -0.1903 -0.3527  0.2546
   97MOL0     C12679   9.012   5.295   5.009 -0.6601  0.1360  0.5071
   97MOL0     O12680   8.889   5.242   4.965 -0.1201  0.5459  0.9402
   97MOL0     C12681   8.854   5.115   5.005  0.0624  1.2083 -0.0625
   97MOL0     C12682   8.820   5.019   4.897 -0.4204 -0.3305 -0.2468
   97MOL0     C12683   8.753   4.891   4.953 -0.6758  0.8455 -0.4920
   97MOL0     C12684   8.735   4.774   4.862  0.0518  0.8237  0.6655
   97MOL0     C12685   8.672   4.658   4.941 -0.3089  0.0507 -0.1939
   97MOL0     C12686   8.525   4.687   4.966 -0.4153 -0.1554  1.0282
   97MOL0     C12687   8.453   4.554   4.990  0.0508  0.5649  0.2904
   97MOL0     C12688   8.472   4.500   5.130  0.3123 -0.0240 -0.2618
   97MOL0     N12689   8.394   4.381   5.159  0.6056  0.4890 -0.1616
   97MOL0     C12690   8.377   4.324   5.276 -0.6979  0.5561 -0.6278
   97MOL0     C12691   8.292   4.216   5.270 -0.6717 -0.3094 -0.9701
   97MOL0     C12692   8.219   4.142   5.386 -1.3382  1.1559 -0.0357
   97MOL0     C12693   8.092   4.192   5.454 -0.1131  0.0286  0.6629
   97MOL0     C12694   8.025   4.070   5.528  0.2805 -0.2357 -0.3719
   97MOL0     C12695   7.929   4.115   5.634 -0.4316 -0.2977 -0.2938
   97MOL0     O12696   8.001   4.184   5.748 -0.5535 -0.4164  0.2513
   97MOL0     C12697   8.026   4.107   5.866 -0.6006 -0.7121  0.7282
   97MOL0     C12698   8.039   4.181   5.983  0.2287  0.0292  0.7625
   97MOL0     C12699   8.047   4.116   6.106  0.5944 -0.6411 -0.8462
   97MOL0     C12700   8.036   3.977   6.117 -0.0020  0.5080 -0.0233
   97MOL0     C12701   8.038   3.906   6.243 -1.2727 -0.0512 -0.5094
   97MOL0     O12702   8.076   3.980   6.351  0.6503  0.0837  0.0031
   97MOL0     C12703   8.080   3.927   6.471  0.2379  0.9305  0.5652
   97MOL0     C12704   7.978   3.948   6.568  0.7445  0.0347 -0.2526
   97MOL0     C12705   8.003   3.911   6.702 -0.1366  0.0211  0.3605
   97MOL0     C12706   8.121   3.861   6.750 -1.0125 -0.6451 -0.0610
   97MOL0     O12707   8.133   3.835   6.890 -0.4473 -0.6549  0.4446
   97MOL0     C12708   8.229   3.739   6.930  0.3468 -0.0298  0.1550
   97MOL0     C12709   8.349   3.829   6.971  0.2866  0.1792  0.9581
   97MOL0     C12710   8.319   3.919   7.094 -0.4983 -0.7531 -0.0383
   97MOL0     C12711   8.456   3.963   7.157  0.7878 -0.2893 -0.6945
   97MOL0     C12712   8.551   3.846   7.191  0.9732 -0.0001 -0.0852
   97MOL0     C12713   8.638   3.875   7.311  0.9471  0.2749  0.1583
   97MOL0     C12714   8.731   3.979   7.268  0.1159 -0.1759 -0.7199
   97MOL0     C12715   8.861   3.978   7.354  0.0457  0.0499 -0.2517
   97MOL0    Cl12716   8.958   3.836   7.295  0.0943  0.3968  0.3934
   97MOL0     C12717   8.222   3.846   6.658 -0.1046  0.3102  1.2874
   97MOL0     C12718   8.201   3.874   6.516 -0.0844 -1.4580 -0.3872
   97MOL0     O12719   8.015   3.784   6.250 -0.4176  0.9281 -0.1403
   97MOL0     C12720   8.047   3.901   5.995 -0.3520  0.0995  0.0407
   97MOL0     C12721   8.036   3.969   5.869 -0.0506  0.1991 -0.0728
   97MOL0     N12722   8.249   4.210   5.143 -0.3199  0.4170  0.1267
   97MOL0     N12723   8.309   4.316   5.082 -0.5707  0.5088  0.1788
   97MOL0     C12724   9.012   5.412   5.086  0.7330  0.6665  0.1553
   97MOL0     C12725   9.131   5.472   5.117 -0.7659 -1.1737  0.3309
   97MOL0     C12726   9.544   5.581   5.268  0.0354  0.1910  0.1205
   97MOL0     C12727   9.637   5.562   5.165  0.5950  0.7482 -0.0180
   97MOL0     C12728   9.759   5.637   5.151  0.5104 -0.0205 -0.7994
   97MOL0     C12729   9.803   5.704   5.267 -0.5798  0.3595 -0.7083
   97MOL0     O12730   9.921   5.777   5.282 -0.2232 -0.1973  0.2013
   97MOL0     C12731  10.036   5.728   5.210 -0.3450  0.2229  0.4848
   97MOL0     C12732  10.115   5.659   5.317  0.0745 -0.2174  0.2768
   97MOL0     C12733  10.057   5.522   5.365  0.3433 -0.3596  0.4579
   97MOL0     C12734  10.078   5.420   5.254  0.4286  0.0487 -0.1157
   97MOL0     C12735  10.144   5.305   5.305 -0.1545 -0.5380  0.4835
   97MOL0     C12736  10.201   5.193   5.326  0.5723 -0.7654 -1.6468
   97MOL0     C12737   9.711   5.711   5.376 -0.4262 -0.1797  0.3632
   97MOL0     C12738   9.584   5.653   5.376  1.0425  0.5892  0.1431
   97MOL0     H12739   9.352   5.245   4.998 -0.5736 -0.6042 -0.3055
   97MOL0     H12740   9.144   5.151   4.922 -0.1854 -2.1462  2.9980
   97MOL0     H12741   8.777   5.133   5.080  0.8649  0.9061  0.8511
   97MOL0     H12742   8.940   5.068   5.052  0.1598 -0.4252 -1.7391
   97MOL0     H12743   8.912   4.996   4.843  0.2817  2.1037 -0.1948
   97MOL0     H12744   8.751   5.057   4.821  1.8096 -0.0718 -2.2361
   97MOL0     H12745   8.658   4.918   5.001 -0.4895  1.0581 -0.2426
   97MOL0     H12746   8.818   4.854   5.033 -2.9951 -0.4819  0.8930
   97MOL0     H12747   8.677   4.805   4.775  1.6049 -0.2694 -0.8387
   97MOL0     H12748   8.832   4.748   4.818 -1.1098 -0.6209 -1.2333
   97MOL0     H12749   8.718   4.624   5.034 -2.3403 -0.9687  0.4952
   97MOL0     H12750   8.681   4.572   4.875  1.0813  1.6707 -2.2687
   97MOL0     H12751   8.505   4.741   4.873 -1.5986  0.2975  1.5284
   97MOL0     H12752   8.510   4.760   5.046 -2.7727 -0.4714  0.9478
   97MOL0     H12753   8.346   4.576   4.978  0.3256  1.4786 -0.5703
   97MOL0     H12754   8.471   4.483   4.908  2.3161 -2.3659  3.0634
   97MOL0     H12755   8.443   4.568   5.211  0.6048 -1.1476  0.8160
   97MOL0     H12756   8.581   4.496   5.138  0.5692  0.8925 -2.5152
   97MOL0     H12757   8.424   4.369   5.362  0.2178  1.2139 -1.4667
   97MOL0     H12758   8.291   4.125   5.467 -0.7492 -2.2964 -1.1244
   97MOL0     H12759   8.201   4.041   5.349  1.9669 -0.3620  1.9751
   97MOL0     H12760   8.023   4.227   5.377 -0.0620 -0.5777  0.3364
   97MOL0     H12761   8.118   4.275   5.521 -0.9056  1.8387 -1.2008
   97MOL0     H12762   7.964   4.002   5.467  0.8237 -1.4309  0.3879
   97MOL0     H12763   8.097   4.012   5.587 -1.6916 -1.9138  0.5273
   97MOL0     H12764   7.863   4.037   5.672 -2.3355  1.4723  0.2052
   97MOL0     H12765   7.866   4.199   5.603  1.9284  2.6258  2.1400
   97MOL0     H12766   8.041   4.288   5.966 -3.5572  0.5196  2.3446
   97MOL0     H12767   8.060   4.171   6.199 -2.3785 -1.9016  0.4272
   97MOL0     H12768   7.883   3.992   6.542  0.2748 -0.9580 -0.2689
   97MOL0     H12769   7.930   3.938   6.778  0.9224 -0.1989  1.4868
   97MOL0     H12770   8.253   3.665   6.854 -0.0727 -0.6579  0.6296
   97MOL0     H12771   8.175   3.694   7.014 -1.3881 -0.0228 -0.9076
   97MOL0     H12772   8.374   3.901   6.893 -0.5181  0.1235  0.6460
   97MOL0     H12773   8.438   3.765   6.972  0.7331  0.4642 -3.3867
   97MOL0     H12774   8.264   3.862   7.170 -0.7658 -0.1295  0.2425
   97MOL0     H12775   8.265   4.010   7.069  2.9660  1.3261 -0.5824
   97MOL0     H12776   8.511   4.033   7.093  2.7423  0.1606  1.3158
   97MOL0     H12777   8.435   4.014   7.251 -2.7968 -0.8861 -1.0424
   97MOL0     H12778   8.618   3.810   7.112  2.2991  2.0127  0.0527
   97MOL0     H12779   8.494   3.756   7.218  0.0998  0.5854  0.0524
   97MOL0     H12780   8.689   3.789   7.356 -0.9151 -1.7565 -1.3957
   97MOL0     H12781   8.580   3.913   7.396 -0.1675 -2.0260  0.5026
   97MOL0     H12782   8.746   3.966   7.160 -4.5604 -2.1129 -1.3746
   97MOL0     H12783   8.690   4.080   7.272 -0.4639 -0.3832  3.4823
   97MOL0     H12784   8.837   3.961   7.460  2.4509  1.0010  0.5121
   97MOL0     H12785   8.914   4.071   7.334  1.1048 -0.3254  0.6895
   97MOL0     H12786   8.319   3.807   6.688  1.1555  1.2160 -1.2482
   97MOL0     H12787   8.280   3.867   6.441 -1.0016 -3.2970 -1.2369
   97MOL0     H12788   8.063   3.794   5.987  1.4499  0.4287 -1.5235
   97MOL0     H12789   8.018   3.920   5.774 -0.7683 -0.3055  0.3127
   97MOL0     H12790   8.919   5.461   5.114  0.1153 -1.0858  1.3926
   97MOL0     H12791   9.119   5.569   5.164 -1.7101 -0.1865 -1.7925
   97MOL0     H12792   9.606   5.530   5.066 -0.0934 -1.7529  0.9423
   97MOL0     H12793   9.809   5.664   5.059  1.6203  1.1280  0.1014
   97MOL0     H12794  10.103   5.809   5.180  0.5550  0.1879  2.2570
   97MOL0     H12795  10.005   5.658   5.131 -0.6355 -2.4467  2.7973
   97MOL0     H12796  10.215   5.634   5.281 -0.6658 -1.9643 -0.6839
   97MOL0     H12797  10.112   5.735   5.395 -0.7056  0.2012 -0.1409
   97MOL0     H12798   9.950   5.526   5.386 -0.0300 -1.3001 -1.0732
   97MOL0     H12799  10.115   5.490   5.452  1.5069  3.0704  1.1169
   97MOL0     H12800   9.984   5.389   5.207  0.5937  2.7552 -2.5540
   97MOL0     H12801  10.134   5.464   5.171  2.2364  0.3520  1.1935
   97MOL0     H12802  10.242   5.099   5.359  0.0922 -1.9396 -4.1101
   97MOL0     H12803   9.756   5.754   5.466 -1.7101  0.0606  0.9073
   97MOL0     H12804   9.520   5.650   5.464 -0.2499 -2.2695 -0.7857
   98MOL0     O12805   5.458   0.228  10.351 -0.8404 -0.9942 -0.0740
   98MOL0     C12806   5.536   0.185  10.266  0.4832 -0.8175  0.0256
   98MOL0     O12807   5.672   0.178  10.286  0.0469  0.1585 -0.1155
   98MOL0     C12808   5.739   0.232  10.396 -0.5679 -0.4688  0.1184
   98MOL0     C12809   5.687   0.238  10.528 -0.1430  0.2169 -0.8309
   98MOL0     C12810   5.771   0.285  10.629 -0.1498 -0.2464 -0.8758
   98MOL0     C12811   5.905   0.313  10.601 -0.0008 -0.9389 -1.5139
   98MOL0     O12812   5.993   0.361  10.693 -0.6119 -0.4398 -0.8197
   98MOL0     C12813   6.018   0.269  10.809  0.7291 -0.1416  0.4093
   98MOL0     C12814   6.099   0.348  10.909  0.4586 -0.4296  0.3942
   98MOL0     C12815   6.240   0.378  10.861 -0.2845 -0.4472  0.3843
   98MOL0     C12816   6.245   0.509  10.775 -0.8244  0.2563 -0.6555
   98MOL0     C12817   6.391   0.548  10.749  0.3634  0.0111  0.2455
   98MOL0     C12818   6.390   0.690  10.690  0.5460  0.1963 -0.7008
   98MOL0     C12819   6.527   0.729  10.626 -0.3049 -0.5764 -0.0083
   98MOL0     C12820   6.521   0.867  10.554  0.5501  0.1452 -0.4311
   98MOL0     N12821   6.650   0.900  10.511 -0.0746  0.1866  1.0300
   98MOL0     C12822   6.706   0.881  10.388 -1.0385 -1.0695  0.1359
   98MOL0     C12823   6.831   0.936  10.411 -0.0439 -0.8064  0.9761
   98MOL0     C12824   6.924   0.960  10.292  0.6669  0.1529 -0.4967
   98MOL0     C12825   7.062   1.017  10.329  1.8738  0.3849  0.0980
   98MOL0     C12826   7.113   1.112  10.216  0.4108 -0.0754 -0.4704
   98MOL0     C12827   7.238   1.189  10.264  0.5285 -0.3579  0.3728
   98MOL0     O12828   7.246   1.286  10.162 -0.3624 -0.8470 -0.2760
   98MOL0     C12829   7.303   1.252  10.037  1.4478 -0.3348  0.2981
   98MOL0     C12830   7.240   1.302   9.916  1.0261  0.3099 -1.2138
   98MOL0     C12831   7.294   1.283   9.795  0.2200 -0.2551 -1.4181
   98MOL0     C12832   7.404   1.203   9.775 -0.5573  0.0162  0.2567
   98MOL0     C12833   7.450   1.172   9.634  0.7962  0.9121 -0.2673
   98MOL0     O12834   7.400   1.235   9.525  0.2158  1.1604 -0.4748
   98MOL0     C12835   7.451   1.232   9.403 -0.0081  0.9718 -0.3422
   98MOL0     C12836   7.359   1.265   9.304  0.2972 -0.4596  0.0786
   98MOL0     C12837   7.403   1.284   9.174  0.4969 -0.8062  0.5981
   98MOL0     C12838   7.534   1.276   9.132 -0.1693  0.4518  0.2891
   98MOL0     O12839   7.567   1.312   8.996 -0.5690  0.3768 -0.1933
   98MOL0     C12840   7.692   1.268   8.947  0.5266 -0.2597  0.7443
   98MOL0     C12841   7.712   1.329   8.804  0.0819 -0.6433 -0.1664
   98MOL0     C12842   7.609   1.272   8.696  0.4850 -0.8134 -0.6936
   98MOL0     C12843   7.656   1.277   8.551 -0.0618 -0.4755  0.2553
   98MOL0     C12844   7.586   1.179   8.449  0.6582  0.1541 -0.5347
   98MOL0     C12845   7.663   1.193   8.315  0.4780  0.7805  0.5602
   98MOL0     C12846   7.569   1.122   8.207 -0.4509 -1.4249 -0.3072
   98MOL0     C12847   7.655   1.033   8.123  0.7788 -0.1323 -0.7787
   98MOL0    Cl12848   7.798   1.094   8.067 -0.4965  0.3601  0.1904
   98MOL0     C12849   7.624   1.229   9.231 -0.2266  0.1043 -0.2322
   98MOL0     C12850   7.588   1.217   9.365  0.1455  0.1946  0.2313
   98MOL0     O12851   7.527   1.079   9.630 -0.5475 -0.0042  0.7244
   98MOL0     C12852   7.467   1.157   9.892  0.0699 -0.9651 -0.5240
   98MOL0     C12853   7.419   1.189  10.018 -0.4863  0.3841 -0.2313
   98MOL0     N12854   6.849   0.975  10.538 -0.0716  0.5595  0.0872
   98MOL0     N12855   6.738   0.949  10.596 -0.4126 -0.0617  0.1709
   98MOL0     C12856   5.958   0.287  10.476  0.7356 -0.6628 -0.6657
   98MOL0     C12857   5.876   0.253  10.368 -0.2268  0.0140  0.4756
   98MOL0     C12858   5.478   0.164  10.128 -0.1420  0.7091 -0.6080
   98MOL0     C12859   5.550   0.134  10.010  0.8722  0.8781  0.5963
   98MOL0     C12860   5.489   0.114   9.887 -0.1829 -0.1154 -0.0478
   98MOL0     C12861   5.346   0.110   9.880 -0.1489  0.5313 -0.8611
   98MOL0     O12862   5.299   0.107   9.750  0.1004 -0.0783 -0.6862
   98MOL0     C12863   5.162   0.091   9.726  0.4421  0.5179 -1.0349
   98MOL0     C12864   5.120   0.140   9.587 -0.3912  0.9037  0.1770
   98MOL0     C12865   5.222   0.081   9.482  0.3304 -0.1547 -0.0844
   98MOL0     C12866   5.205   0.165   9.349 -0.3754 -0.8890  0.3981
   98MOL0     C12867   5.071   0.186   9.297  1.6236 -0.5028 -0.8824
   98MOL0     C12868   4.961   0.206   9.243  0.7913  0.2370  0.7855
   98MOL0     C12869   5.273   0.130   9.998  0.9090  0.2033  0.4706
   98MOL0     C12870   5.336   0.159  10.114 -0.2849 -0.3890  0.4196
   98MOL0     H12871   5.586   0.216  10.558  0.1612  2.5665  2.5112
   98MOL0     H12872   5.722   0.290  10.725 -1.4371 -1.3945 -1.4327
   98MOL0     H12873   6.081   0.187  10.773  0.9002 -0.7762  2.0493
   98MOL0     H12874   5.921   0.234  10.844  1.3343 -3.6058 -0.9883
   98MOL0     H12875   6.099   0.283  10.997 -1.1305  0.9437  1.4847
   98MOL0     H12876   6.037   0.433  10.939 -2.6473 -1.2003 -3.1033
   98MOL0     H12877   6.273   0.279  10.828 -0.3377 -0.4337  0.2888
   98MOL0     H12878   6.308   0.406  10.942 -0.0844  2.1286 -0.5994
   98MOL0     H12879   6.200   0.494  10.676  2.3532  1.3924 -2.4253
   98MOL0     H12880   6.195   0.588  10.831 -1.6235  0.4796 -1.6484
   98MOL0     H12881   6.431   0.464  10.692 -2.0438 -1.3751  0.4836
   98MOL0     H12882   6.441   0.563  10.846  0.7758  1.0173 -0.1080
   98MOL0     H12883   6.367   0.760  10.771 -0.1069  0.2975 -0.9700
   98MOL0     H12884   6.318   0.720  10.613 -1.2355 -0.0149  0.8295
   98MOL0     H12885   6.613   0.741  10.692  0.6724  0.2875 -1.3694
   98MOL0     H12886   6.557   0.663  10.544  0.1010  0.1143 -0.4272
   98MOL0     H12887   6.476   0.938  10.624 -1.0734  1.3461 -2.5834
   98MOL0     H12888   6.443   0.872  10.478 -1.2547  0.1928  1.3409
   98MOL0     H12889   6.657   0.834  10.303 -0.0964  0.0988 -1.0808
   98MOL0     H12890   6.872   1.026  10.222 -1.9848  3.4958  3.9891
   98MOL0     H12891   6.938   0.865  10.239 -1.4545  0.8808 -2.5133
   98MOL0     H12892   7.127   0.932  10.355 -0.6699 -1.4367  0.9345
   98MOL0     H12893   7.050   1.080  10.417  0.0823  3.8472 -2.3702
   98MOL0     H12894   7.134   1.056  10.125  1.8337 -2.5618  1.2701
   98MOL0     H12895   7.046   1.195  10.191  2.5352  1.1463 -2.5397
   98MOL0     H12896   7.328   1.131  10.286  1.5950  0.9033 -0.5042
   98MOL0     H12897   7.217   1.237  10.359 -2.2540 -3.3495  1.4834
   98MOL0     H12898   7.151   1.362   9.927  0.9181 -0.2728  1.9797
   98MOL0     H12899   7.221   1.311   9.719  0.4448  0.8665 -1.2373
   98MOL0     H12900   7.258   1.270   9.343  1.0175  1.3406  1.8615
   98MOL0     H12901   7.333   1.309   9.095  0.3555 -0.5166  0.8148
   98MOL0     H12902   7.708   1.160   8.959  2.8085 -0.0699 -0.0815
   98MOL0     H12903   7.770   1.313   9.008  2.0642 -0.7561 -0.7756
   98MOL0     H12904   7.815   1.305   8.777 -0.4821 -0.5101 -2.6905
   98MOL0     H12905   7.698   1.436   8.818 -0.9307 -0.8715  0.7581
   98MOL0     H12906   7.516   1.327   8.708  1.2850  0.3465  0.4921
   98MOL0     H12907   7.592   1.167   8.721 -0.1086 -0.0996  2.2839
   98MOL0     H12908   7.640   1.380   8.516 -2.7382 -0.0620  2.3287
   98MOL0     H12909   7.765   1.269   8.550  0.1879  1.8533  1.3558
   98MOL0     H12910   7.482   1.208   8.433  0.7890  0.1055 -1.5486
   98MOL0     H12911   7.590   1.072   8.470  0.3501 -0.0670 -1.5408
   98MOL0     H12912   7.760   1.143   8.322 -0.8398 -2.0413 -0.0534
   98MOL0     H12913   7.677   1.296   8.280 -2.2390  1.1236  0.2635
   98MOL0     H12914   7.494   1.061   8.258 -0.5892 -0.4050  0.7602
   98MOL0     H12915   7.513   1.196   8.150  1.4925  0.3718 -0.0371
   98MOL0     H12916   7.599   0.996   8.037 -2.1864  1.2325  0.4089
   98MOL0     H12917   7.671   0.939   8.177 -2.1142 -0.3647 -0.1431
   98MOL0     H12918   7.728   1.211   9.205  0.1958  3.0326 -0.9906
   98MOL0     H12919   7.667   1.180   9.431 -0.5747  1.6575  2.0052
   98MOL0     H12920   7.560   1.101   9.892  1.2375  0.8730 -1.3117
   98MOL0     H12921   7.476   1.152  10.103  0.6287 -0.7796 -1.4562
   98MOL0     H12922   6.065   0.308  10.466  0.4402 -0.3447 -5.0348
   98MOL0     H12923   5.925   0.242  10.271  2.2446 -1.3490  1.7659
   98MOL0     H12924   5.658   0.122  10.002  0.7985  1.2237 -1.6009
   98MOL0     H12925   5.540   0.107   9.792  3.4062  0.8902  1.6240
   98MOL0     H12926   5.107   0.145   9.803 -2.6665 -1.1960 -1.8639
   98MOL0     H12927   5.125  -0.012   9.733  0.8501  0.4451  0.2117
   98MOL0     H12928   5.016   0.116   9.562 -0.1575 -0.3981  0.3605
   98MOL0     H12929   5.124   0.249   9.590 -1.8541  1.0752 -1.8400
   98MOL0     H12930   5.181  -0.017   9.457 -3.2552  1.4974 -1.3156
   98MOL0     H12931   5.327   0.092   9.511 -0.5119  1.7635  2.6464
   98MOL0     H12932   5.246   0.262   9.378  2.3272 -2.5804  2.8177
   98MOL0     H12933   5.266   0.130   9.266  2.4973  1.2922  1.4484
   98MOL0     H12934   4.861   0.219   9.205  0.5636 -0.9024  0.9696
   98MOL0     H12935   5.166   0.142   9.997  0.8199 -0.5042  0.7323
   98MOL0     H12936   5.284   0.178  10.207 -1.4310  5.1259 -1.0085
   99MOL0     O12937   2.802   5.413   3.220  0.0354  0.2834 -0.0113
   99MOL0     C12938   2.828   5.306   3.279 -0.3442 -0.1483  0.3222
   99MOL0     O12939   2.852   5.189   3.215 -0.2756  0.8122  0.4306
   99MOL0     C12940   2.877   5.159   3.081 -0.3465  0.1090  0.4127
   99MOL0     C12941   2.778   5.199   2.995  0.4672 -0.2098  0.2296
   99MOL0     C12942   2.784   5.165   2.860  0.6622  0.3638 -0.4480
   99MOL0     C12943   2.897   5.095   2.809 -0.2216  0.2154  0.3182
   99MOL0     O12944   2.907   5.070   2.675 -0.2396 -0.1571 -1.2364
   99MOL0     C12945   2.789   5.040   2.601  0.2024  0.0746 -0.7134
   99MOL0     C12946   2.845   4.951   2.492  0.8455  0.2389  0.3285
   99MOL0     C12947   2.731   4.892   2.406  0.7223 -0.3989  0.7281
   99MOL0     C12948   2.793   4.827   2.274 -0.6037  0.4011  0.3764
   99MOL0     C12949   2.843   4.926   2.159  0.0353  0.9131 -0.0982
   99MOL0     C12950   2.731   4.926   2.047 -0.1176  0.8210 -1.3482
   99MOL0     C12951   2.762   5.014   1.929  0.8094 -0.0555 -0.4648
   99MOL0     C12952   2.649   5.061   1.838 -0.4502  0.4110  0.4259
   99MOL0     N12953   2.646   4.986   1.713 -0.3783 -0.3095 -0.0217
   99MOL0     C12954   2.549   4.889   1.695 -0.3000 -0.1752 -0.1930
   99MOL0     C12955   2.571   4.857   1.565  0.5356  0.4751  0.9493
   99MOL0     C12956   2.497   4.744   1.494 -0.3944 -0.2852 -0.3458
   99MOL0     C12957   2.389   4.803   1.406 -0.5662 -0.9017  0.1898
   99MOL0     C12958   2.289   4.891   1.480  0.9933 -0.6804 -0.6166
   99MOL0     C12959   2.207   4.815   1.584 -0.2135  0.6927 -0.4898
   99MOL0     O12960   2.147   4.700   1.517 -0.5388  0.4915 -0.8940
   99MOL0     C12961   2.019   4.720   1.470 -0.4194 -0.1067  0.6911
   99MOL0     C12962   1.951   4.844   1.453 -0.0466  0.1659 -1.3646
   99MOL0     C12963   1.830   4.855   1.384  1.3436 -0.5668 -0.3839
   99MOL0     C12964   1.773   4.744   1.322 -0.2144  0.2411  0.0850
   99MOL0     C12965   1.649   4.755   1.252  0.9966  0.9581 -0.6781
   99MOL0     O12966   1.572   4.869   1.262  0.3549 -0.5240  0.4299
   99MOL0     C12967   1.472   4.900   1.175  0.5527 -0.3594 -0.9834
   99MOL0     C12968   1.465   5.044   1.140  0.6245 -0.0370 -0.7738
   99MOL0     C12969   1.383   5.086   1.036  0.6783  0.5400 -0.2378
   99MOL0     C12970   1.288   4.992   0.978 -0.6371 -0.3987 -0.1391
   99MOL0     O12971   1.208   5.043   0.876  1.0009  0.7317  0.0928
   99MOL0     C12972   1.238   4.973   0.758  0.6415  1.3074  1.0334
   99MOL0     C12973   1.342   5.039   0.679 -0.6847 -0.4239  0.4783
   99MOL0     C12974   1.327   5.191   0.679  0.4422 -0.2677 -0.3658
   99MOL0     C12975   1.432   5.258   0.586 -0.9849  1.2850  0.1417
   99MOL0     C12976   1.410   5.405   0.551 -0.3144  0.1716 -0.6754
   99MOL0     C12977   1.529   5.448   0.456  1.0992  0.2391 -0.6923
   99MOL0     C12978   1.538   5.598   0.428  0.2678  0.8158 -0.4159
   99MOL0     C12979   1.677   5.628   0.376 -0.3703 -0.2044 -0.3623
   99MOL0    Cl12980   1.700   5.560   0.218 -0.3433  0.2374 -0.0229
   99MOL0     C12981   1.280   4.860   1.030 -0.7559  0.1465  0.2363
   99MOL0     C12982   1.378   4.814   1.118  0.2672  0.0177 -0.3291
   99MOL0     O12983   1.625   4.665   1.171 -0.3327  0.3487 -0.7411
   99MOL0     C12984   1.831   4.616   1.344 -0.0501  0.4687  0.2163
   99MOL0     C12985   1.955   4.604   1.426 -0.1876 -0.3763  0.4272
   99MOL0     N12986   2.675   4.932   1.507  0.5236 -0.5383  0.2037
   99MOL0     N12987   2.721   5.009   1.602 -0.2350 -0.1177  0.7527
   99MOL0     C12988   3.003   5.068   2.905 -0.1244  0.5118  0.3737
   99MOL0     C12989   2.989   5.092   3.038 -0.0412 -0.8522  0.0984
   99MOL0     C12990   2.816   5.298   3.430  0.5766  0.7861  0.1009
   99MOL0     C12991   2.845   5.181   3.505  0.0475  0.2176 -0.6145
   99MOL0     C12992   2.840   5.186   3.646  0.4181  0.0977 -0.4113
   99MOL0     C12993   2.773   5.296   3.721 -0.0683 -0.1904 -0.5261
   99MOL0     O12994   2.757   5.304   3.862  1.2128 -0.3424  0.9050
   99MOL0     C12995   2.781   5.195   3.946  0.2671 -0.3824 -0.0295
   99MOL0     C12996   2.757   5.238   4.091  0.1390  0.3625  1.1658
   99MOL0     C12997   2.621   5.314   4.105 -0.2225 -0.1116  0.6277
   99MOL0     C12998   2.618   5.386   4.242  0.0641  0.1371  0.3006
   99MOL0     C12999   2.492   5.375   4.322  0.6709 -0.3262  0.2411
   99MOL0     C13000   2.391   5.379   4.387 -0.5060 -0.2621  0.1225
   99MOL0     C13001   2.753   5.409   3.643 -0.2780  0.5696  0.5013
   99MOL0     C13002   2.760   5.413   3.504  0.0373  0.7561 -0.2101
   99MOL0     H13003   2.685   5.246   3.027  0.6199  1.2770 -1.3313
   99MOL0     H13004   2.708   5.193   2.788 -1.4737  0.2206  1.6109
   99MOL0     H13005   2.749   5.133   2.559  1.5600  0.4984 -1.1307
   99MOL0     H13006   2.725   4.978   2.664 -0.5187  1.7347  0.2703
   99MOL0     H13007   2.902   4.866   2.532 -0.5724 -1.3485 -0.8609
   99MOL0     H13008   2.898   5.028   2.435  1.1445  0.4497  0.8924
   99MOL0     H13009   2.665   4.972   2.372 -0.2598 -1.9565 -1.2144
   99MOL0     H13010   2.667   4.812   2.444 -4.1202  1.7796 -2.0373
   99MOL0     H13011   2.884   4.781   2.315  0.6325  2.0032 -0.4303
   99MOL0     H13012   2.735   4.750   2.224  2.2257 -1.9544  0.4221
   99MOL0     H13013   2.929   4.877   2.113 -0.5673 -2.1342  1.7052
   99MOL0     H13014   2.869   5.024   2.199  0.6467  0.3536  0.9084
   99MOL0     H13015   2.645   4.967   2.101  1.9513 -0.0280  3.0390
   99MOL0     H13016   2.719   4.823   2.010  3.6166  1.1175 -3.8903
   99MOL0     H13017   2.793   5.105   1.982 -1.3612  0.4040  0.1413
   99MOL0     H13018   2.841   4.972   1.866 -0.0698 -2.6512  0.0413
   99MOL0     H13019   2.666   5.167   1.817 -0.2194  0.0117 -1.5376
   99MOL0     H13020   2.548   5.049   1.878 -0.4382  0.8756  0.6007
   99MOL0     H13021   2.473   4.849   1.761 -1.1666 -1.0850 -1.6830
   99MOL0     H13022   2.453   4.678   1.569 -4.5101  1.0210 -1.3341
   99MOL0     H13023   2.573   4.697   1.432 -0.4348 -0.8683  0.0472
   99MOL0     H13024   2.340   4.720   1.354 -2.9189  0.9483 -0.7163
   99MOL0     H13025   2.437   4.855   1.323 -0.1159 -2.1046 -0.3402
   99MOL0     H13026   2.347   4.966   1.534  1.6668 -0.9017 -1.0256
   99MOL0     H13027   2.222   4.951   1.416 -0.7191 -1.5549  0.2890
   99MOL0     H13028   2.138   4.869   1.649  3.7057  0.2553  4.7397
   99MOL0     H13029   2.283   4.779   1.655 -0.5385  0.0030 -0.4772
   99MOL0     H13030   2.003   4.933   1.488 -0.6387 -0.1044  0.3084
   99MOL0     H13031   1.783   4.951   1.363 -2.2450 -2.2205 -0.4811
   99MOL0     H13032   1.515   5.124   1.193 -2.9165  2.1143 -0.3120
   99MOL0     H13033   1.374   5.185   0.993 -1.9749  1.0086  1.1573
   99MOL0     H13034   1.145   4.967   0.700  2.3494 -1.0591 -1.7507
   99MOL0     H13035   1.262   4.866   0.757 -0.8933  0.9278 -0.0315
   99MOL0     H13036   1.337   4.997   0.577  3.7777  0.5775 -0.3552
   99MOL0     H13037   1.439   5.013   0.722 -1.5721 -2.8434  1.2192
   99MOL0     H13038   1.337   5.236   0.778 -2.2853 -0.0108 -0.1157
   99MOL0     H13039   1.227   5.215   0.640  1.2145 -1.2398 -3.1310
   99MOL0     H13040   1.525   5.236   0.639  0.0985  0.9185 -1.7876
   99MOL0     H13041   1.450   5.200   0.494 -0.0093  0.6925  0.6818
   99MOL0     H13042   1.432   5.455   0.646 -1.5320 -0.8525  0.1729
   99MOL0     H13043   1.311   5.421   0.508 -0.6052  1.6027  0.4672
   99MOL0     H13044   1.505   5.392   0.365  1.3249 -1.9974  0.5305
   99MOL0     H13045   1.626   5.411   0.491  1.4346  2.4855  0.9426
   99MOL0     H13046   1.458   5.635   0.363  0.0583 -0.9206 -1.2033
   99MOL0     H13047   1.517   5.645   0.524 -2.9478 -0.5584 -0.3150
   99MOL0     H13048   1.754   5.593   0.446  2.2891  1.0670 -2.4362
   99MOL0     H13049   1.683   5.737   0.372 -1.4059  0.1463  3.3964
   99MOL0     H13050   1.204   4.796   0.987  2.1129 -1.9867 -2.1177
   99MOL0     H13051   1.374   4.709   1.142  0.4350  0.1456  0.2729
   99MOL0     H13052   1.795   4.519   1.309  0.5515 -0.5409  2.1947
   99MOL0     H13053   1.994   4.506   1.449 -1.5897 -0.6067  2.0306
   99MOL0     H13054   3.103   5.041   2.873 -0.8618 -1.7929 -0.1925
   99MOL0     H13055   3.058   5.071   3.119 -0.2592  2.0955  1.1873
   99MOL0     H13056   2.907   5.103   3.461  0.1217  0.6822 -1.3533
   99MOL0     H13057   2.891   5.116   3.711 -1.8479 -0.9382  0.3678
   99MOL0     H13058   2.873   5.140   3.926  0.4163 -2.0146  4.1045
   99MOL0     H13059   2.709   5.116   3.922  0.4209 -0.0638 -1.6610
   99MOL0     H13060   2.750   5.147   4.151  1.7350 -1.5580 -1.3160
   99MOL0     H13061   2.836   5.300   4.133 -0.1142  3.3910 -2.3201
   99MOL0     H13062   2.542   5.242   4.079  0.7613 -0.6848 -0.9330
   99MOL0     H13063   2.608   5.395   4.032  1.5951  0.3922  0.8333
   99MOL0     H13064   2.699   5.347   4.305 -0.8066  1.4526  2.3123
   99MOL0     H13065   2.649   5.489   4.223  2.0816 -0.2276  1.2997
   99MOL0     H13066   2.310   5.369   4.456 -0.9211  2.4327  0.1585
   99MOL0     H13067   2.718   5.497   3.696  1.8822  2.5662 -1.1297
   99MOL0     H13068   2.735   5.505   3.452  0.2142  0.9608  0.0622
  100MOL0     O13069   6.361   4.068   2.999 -0.8899 -0.2281 -0.0293
  100MOL0     C13070   6.331   3.994   2.907 -0.0752 -0.2688  0.4082
  100MOL0     O13071   6.200   3.971   2.856  0.5526  0.3193  0.0902
  100MOL0     C13072   6.093   4.025   2.918 -0.0996 -0.2053 -0.2115
  100MOL0     C13073   6.082   4.111   3.031  0.2176 -1.0996 -0.2781
  100MOL0     C13074   5.960   4.145   3.089  1.3778  0.1892  1.2294
  100MOL0     C13075   5.837   4.107   3.025 -0.1321  0.0339 -0.1818
  100MOL0     O13076   5.715   4.138   3.060  0.0056  1.2165 -0.0708
  100MOL0     C13077   5.689   4.222   3.172  0.1849 -0.3596  0.7846
  100MOL0     C13078   5.691   4.142   3.294 -0.2736 -0.1238  0.2617
  100MOL0     C13079   5.667   4.215   3.424  1.6815  0.7463  0.3569
  100MOL0     C13080   5.514   4.257   3.423  0.4344  0.0077 -0.1082
  100MOL0     C13081   5.477   4.341   3.548 -0.1514 -0.1884  0.0134
  100MOL0     C13082   5.341   4.292   3.605 -0.7027  0.3992 -0.8117
  100MOL0     C13083   5.248   4.405   3.655 -0.1249 -1.2757 -0.1444
  100MOL0     C13084   5.177   4.480   3.537 -0.3661  0.7523  0.0906
  100MOL0     N13085   5.051   4.545   3.575  0.0837  0.0876  0.6825
  100MOL0     C13086   4.924   4.510   3.536 -0.6832  0.3283 -1.6316
  100MOL0     C13087   4.847   4.619   3.532  1.1410  0.2159 -0.5971
  100MOL0     C13088   4.719   4.641   3.471  0.1814  0.2102 -0.3490
  100MOL0     C13089   4.714   4.770   3.372 -0.8677 -0.8035 -0.3124
  100MOL0     C13090   4.572   4.801   3.325 -1.0223  0.2672 -0.4845
  100MOL0     C13091   4.573   4.931   3.250 -0.4700  0.6725  0.0122
  100MOL0     O13092   4.437   4.961   3.214 -0.0430  0.8320 -0.1518
  100MOL0     C13093   4.409   5.087   3.162  0.2711 -0.0248  0.0480
  100MOL0     C13094   4.509   5.173   3.107 -1.0030 -0.0835  0.2996
  100MOL0     C13095   4.462   5.298   3.056 -0.1756 -0.7956 -0.6149
  100MOL0     C13096   4.325   5.351   3.079  0.3986  0.0062 -0.2774
  100MOL0     C13097   4.288   5.484   3.024 -0.7018  0.1761 -0.2792
  100MOL0     O13098   4.388   5.543   2.944 -0.2299  0.4727 -0.6889
  100MOL0     C13099   4.352   5.663   2.874  0.0619  0.6405  0.4656
  100MOL0     C13100   4.281   5.772   2.924 -0.4669  0.1272 -0.1759
  100MOL0     C13101   4.271   5.890   2.845 -0.5675  0.0402 -0.8516
  100MOL0     C13102   4.338   5.899   2.719  0.4756 -0.2743 -1.5864
  100MOL0     O13103   4.327   6.024   2.664  0.5575 -0.3038  0.2324
  100MOL0     C13104   4.461   6.080   2.653  0.4038  0.5922 -0.0571
  100MOL0     C13105   4.445   6.222   2.602 -0.4660 -0.0705  0.5111
  100MOL0     C13106   4.366   6.310   2.698  0.5229  0.9778  0.3412
  100MOL0     C13107   4.390   6.457   2.659 -0.3574  0.6978 -0.5949
  100MOL0     C13108   4.308   6.543   2.760  0.5942  1.4079  0.3434
  100MOL0     C13109   4.340   6.688   2.720  0.1997 -0.0097  0.5082
  100MOL0     C13110   4.256   6.786   2.789  0.9709 -0.8115 -0.7784
  100MOL0     C13111   4.307   6.826   2.926  0.1594 -0.6331 -0.0937
  100MOL0    Cl13112   4.230   6.986   2.987 -0.5684 -0.0202  0.2379
  100MOL0     C13113   4.412   5.790   2.669 -1.7170  0.2392 -0.4409
  100MOL0     C13114   4.424   5.675   2.750 -0.0442  0.5479 -0.2047
  100MOL0     O13115   4.182   5.527   3.037 -0.3929  0.7526 -0.6863
  100MOL0     C13116   4.242   5.263   3.141  0.7642 -0.4406  0.3408
  100MOL0     C13117   4.274   5.138   3.180  0.2483  0.0832 -0.0999
  100MOL0     N13118   4.930   4.728   3.555 -0.4989  1.7291  0.3237
  100MOL0     N13119   5.048   4.681   3.584  0.9284  0.3954 -0.0667
  100MOL0     C13120   5.853   4.021   2.915  0.5473 -0.6522  1.1559
  100MOL0     C13121   5.970   3.979   2.861 -0.6385  0.3957  0.2849
  100MOL0     C13122   6.440   3.930   2.831  0.2726  0.5757 -0.1267
  100MOL0     C13123   6.430   3.826   2.737 -0.4145  0.4123  0.5397
  100MOL0     C13124   6.540   3.782   2.657  0.0658  0.9418 -0.7506
  100MOL0     C13125   6.656   3.847   2.667  0.2812 -0.1441 -1.1859
  100MOL0     O13126   6.745   3.818   2.567 -0.4624 -0.6197  0.5191
  100MOL0     C13127   6.883   3.861   2.574 -0.6524  0.3614  0.1783
  100MOL0     C13128   6.937   3.906   2.437  0.4233 -0.5779  0.1542
  100MOL0     C13129   6.932   3.799   2.334  0.5987 -0.0930  0.1669
  100MOL0     C13130   6.963   3.859   2.192 -0.2604  0.6460  0.4770
  100MOL0     C13131   6.845   3.939   2.154 -0.3349  0.5714 -0.0436
  100MOL0     C13132   6.743   3.990   2.122  1.3092 -0.6620  0.0964
  100MOL0     C13133   6.680   3.938   2.776  0.2502  0.2360  0.2612
  100MOL0     C13134   6.574   3.969   2.861 -0.0390  0.1871  0.9292
  100MOL0     H13135   6.167   4.156   3.082 -0.9062 -0.1757  0.8580
  100MOL0     H13136   5.972   4.192   3.186  0.2823  0.2369  1.3568
  100MOL0     H13137   5.586   4.254   3.154  0.6356  1.2267  0.8632
  100MOL0     H13138   5.750   4.312   3.160 -2.3799  2.0107  3.7090
  100MOL0     H13139   5.786   4.087   3.295  0.3198  0.8695  0.3630
  100MOL0     H13140   5.621   4.058   3.288  3.2546 -3.2760 -1.0657
  100MOL0     H13141   5.733   4.298   3.450  3.8768 -1.7005  3.3654
  100MOL0     H13142   5.679   4.148   3.510 -1.3274  1.0223  1.1096
  100MOL0     H13143   5.501   4.309   3.328  0.6922 -5.4562 -3.5627
  100MOL0     H13144   5.448   4.171   3.414 -2.8514  2.4979 -2.3681
  100MOL0     H13145   5.459   4.439   3.503 -0.3079 -1.8845 -4.1399
  100MOL0     H13146   5.560   4.351   3.619  0.4500  1.0052 -0.8089
  100MOL0     H13147   5.370   4.221   3.683  0.7659  1.5983 -0.2185
  100MOL0     H13148   5.282   4.249   3.524  0.2088  1.8559 -2.3108
  100MOL0     H13149   5.175   4.367   3.727  1.2083  0.1353  2.0325
  100MOL0     H13150   5.314   4.473   3.709 -1.0010 -1.8446  1.7286
  100MOL0     H13151   5.157   4.417   3.451 -2.1177 -0.6603  1.4463
  100MOL0     H13152   5.242   4.559   3.498  0.8755 -0.6410 -0.7153
  100MOL0     H13153   4.893   4.414   3.496  0.7363 -0.6539 -0.4590
  100MOL0     H13154   4.648   4.652   3.554  2.7313 -1.5048  2.2666
  100MOL0     H13155   4.693   4.545   3.425  2.2046  0.1456 -1.4844
  100MOL0     H13156   4.769   4.743   3.281  0.1823  0.6891 -0.1586
  100MOL0     H13157   4.755   4.863   3.412 -2.1634  0.0062 -0.8119
  100MOL0     H13158   4.538   4.714   3.268  0.1278  0.1839 -1.0777
  100MOL0     H13159   4.499   4.815   3.405 -2.1663  0.9838 -1.6140
  100MOL0     H13160   4.635   4.918   3.161 -0.5778  0.6452 -0.0599
  100MOL0     H13161   4.620   5.007   3.313  1.6412  2.4533 -3.4055
  100MOL0     H13162   4.612   5.143   3.088 -1.2864 -0.2283 -1.0887
  100MOL0     H13163   4.548   5.346   3.010  1.3214 -0.5102  2.2556
  100MOL0     H13164   4.239   5.767   3.024  0.9597  1.6842  0.5613
  100MOL0     H13165   4.223   5.978   2.888 -0.1395  1.5227 -3.2032
  100MOL0     H13166   4.516   6.034   2.570 -1.4332 -0.8701 -0.5127
  100MOL0     H13167   4.505   6.071   2.752  0.4559  2.4826  0.1338
  100MOL0     H13168   4.392   6.227   2.506  0.3784 -0.7840 -0.0025
  100MOL0     H13169   4.542   6.273   2.593  0.6005 -1.9294  1.0645
  100MOL0     H13170   4.392   6.290   2.802 -2.6610 -2.6637  0.6750
  100MOL0     H13171   4.259   6.293   2.686  0.6615  1.1392 -1.5205
  100MOL0     H13172   4.494   6.485   2.678 -0.5081  0.8338  0.0524
  100MOL0     H13173   4.366   6.472   2.553 -0.6446 -0.3686 -0.6911
  100MOL0     H13174   4.324   6.520   2.866  1.3958 -0.5624 -0.1717
  100MOL0     H13175   4.202   6.521   2.740 -0.0849  2.0209  2.8785
  100MOL0     H13176   4.316   6.700   2.613  1.4758  3.5059  0.5018
  100MOL0     H13177   4.446   6.706   2.739  0.7096 -1.2505 -0.8951
  100MOL0     H13178   4.254   6.876   2.727 -1.4753 -1.2096 -1.3668
  100MOL0     H13179   4.154   6.748   2.798  0.5693 -0.5385 -3.3069
  100MOL0     H13180   4.416   6.837   2.922  0.2305 -1.8187 -2.1601
  100MOL0     H13181   4.286   6.745   2.997 -1.7158 -2.4057 -2.5098
  100MOL0     H13182   4.466   5.792   2.575 -2.0801  0.0937 -0.6546
  100MOL0     H13183   4.470   5.593   2.695 -2.3301  0.3112 -1.8826
  100MOL0     H13184   4.140   5.287   3.170  0.7692  0.4539 -0.3483
  100MOL0     H13185   4.207   5.065   3.225  1.3979 -1.5125 -0.8806
  100MOL0     H13186   5.760   3.995   2.865  0.1197  0.5383  1.2815
  100MOL0     H13187   5.971   3.911   2.777 -1.9630  1.5569 -0.7240
  100MOL0     H13188   6.337   3.780   2.704 -0.4770  0.0084  1.2713
  100MOL0     H13189   6.523   3.697   2.591  1.3262  0.0079  0.0879
  100MOL0     H13190   6.931   3.768   2.606 -3.0346 -1.8385 -2.1098
  100MOL0     H13191   6.904   3.946   2.639  0.9707  1.5344 -1.7679
  100MOL0     H13192   6.884   4.000   2.417  0.8195 -0.2333  0.7031
  100MOL0     H13193   7.045   3.915   2.449  0.3291  2.1214 -0.3720
  100MOL0     H13194   6.826   3.775   2.341  0.4617  0.1443 -1.0137
  100MOL0     H13195   6.998   3.714   2.351  1.0750 -0.1643 -1.8295
  100MOL0     H13196   7.044   3.933   2.196 -0.5625  0.9488  1.2822
  100MOL0     H13197   6.973   3.783   2.114 -4.9037 -0.7406  0.9116
  100MOL0     H13198   6.665   4.048   2.078  0.5708 -1.4798  0.3094
  100MOL0     H13199   6.779   3.971   2.805  0.6488 -1.6932  1.2808
  100MOL0     H13200   6.588   4.049   2.933 -3.9582  0.6426  1.4004
  101MOL0     O13201   5.400   0.556   7.096 -0.1573  0.4791 -0.7833
  101MOL0     C13202   5.486   0.609   7.023  0.8320 -0.8526  0.2786
  101MOL0     O13203   5.556   0.723   7.048  0.4571  0.7360 -0.5137
  101MOL0     C13204   5.556   0.773   7.174 -0.5829 -0.2769 -0.2711
  101MOL0     C13205   5.554   0.913   7.177  0.6816 -0.7995  0.5403
  101MOL0     C13206   5.536   0.985   7.293  0.0944 -0.2278  0.5685
  101MOL0     C13207   5.526   0.934   7.414  0.2808  1.0497 -0.3856
  101MOL0     O13208   5.482   1.014   7.520  0.3941 -0.6529 -0.3734
  101MOL0     C13209   5.500   0.968   7.650  0.2857  0.5994  0.0903
  101MOL0     C13210   5.647   0.934   7.675 -0.2326 -0.4433 -0.1569
  101MOL0     C13211   5.759   1.031   7.631 -0.0489  0.1049 -0.4028
  101MOL0     C13212   5.901   0.988   7.681  0.8071 -0.1836  0.0519
  101MOL0     C13213   6.002   1.046   7.590  0.0578  0.3716 -0.8992
  101MOL0     C13214   6.157   1.031   7.624  1.2180  0.9466  0.6449
  101MOL0     C13215   6.171   1.100   7.752 -0.1940 -0.5556 -0.6161
  101MOL0     C13216   6.318   1.102   7.796 -0.3944 -0.2796  0.3757
  101MOL0     N13217   6.368   1.201   7.895 -0.0112 -0.2170 -0.1345
  101MOL0     C13218   6.289   1.291   7.966 -0.3992 -0.1458 -0.1640
  101MOL0     C13219   6.372   1.349   8.051  0.4080  0.2800  0.6689
  101MOL0     C13220   6.332   1.454   8.144  0.7895 -0.1695 -0.8182
  101MOL0     C13221   6.249   1.397   8.267 -0.1725 -1.1153  0.5497
  101MOL0     C13222   6.351   1.328   8.361 -0.2676  1.2161 -0.4554
  101MOL0     C13223   6.269   1.242   8.461 -0.6357  0.4109  0.0563
  101MOL0     O13224   6.361   1.171   8.542 -0.5841 -0.3298 -0.1868
  101MOL0     C13225   6.309   1.077   8.630  0.5193  0.6428 -0.1585
  101MOL0     C13226   6.392   1.045   8.731  0.3757  0.3685 -0.0482
  101MOL0     C13227   6.357   0.966   8.833 -0.6270 -0.0356 -0.1644
  101MOL0     C13228   6.219   0.917   8.844  0.3117  0.1316 -0.0910
  101MOL0     C13229   6.171   0.846   8.964 -0.5099 -0.5458  0.2298
  101MOL0     O13230   6.267   0.831   9.059  0.1092 -1.2686  0.0676
  101MOL0     C13231   6.239   0.766   9.173  0.3008  0.4806 -1.1091
  101MOL0     C13232   6.326   0.652   9.203 -0.1637  0.0349  0.4418
  101MOL0     C13233   6.300   0.573   9.311  0.7789 -0.1563  0.4962
  101MOL0     C13234   6.195   0.605   9.398  0.7836 -0.1656  1.4427
  101MOL0     O13235   6.160   0.528   9.504  0.0765  0.4886 -0.2046
  101MOL0     C13236   6.186   0.582   9.635 -0.6588 -0.6992  0.1183
  101MOL0     C13237   6.168   0.458   9.734  0.2287 -1.6387 -0.3727
  101MOL0     C13238   6.032   0.386   9.750  0.1228  0.4564 -0.4631
  101MOL0     C13239   6.051   0.268   9.852 -0.7722 -0.4273 -0.0864
  101MOL0     C13240   5.942   0.163   9.838  0.6740 -0.1277  0.2767
  101MOL0     C13241   5.948   0.046   9.944 -0.0858 -0.2960 -0.1153
  101MOL0     C13242   6.081  -0.026   9.924  0.3237 -0.5893 -0.2009
  101MOL0     C13243   6.091  -0.142  10.019 -0.3420 -0.5160 -0.0285
  101MOL0    Cl13244   6.088  -0.090  10.194 -0.1996 -0.0633 -0.1574
  101MOL0     C13245   6.113   0.716   9.363  0.0159  0.9647 -0.1479
  101MOL0     C13246   6.135   0.800   9.259 -0.3405 -0.2077 -0.1914
  101MOL0     O13247   6.056   0.805   8.981 -0.0196  0.1384 -0.0991
  101MOL0     C13248   6.134   0.947   8.743  0.7212 -0.3687  0.2848
  101MOL0     C13249   6.175   1.041   8.646  0.0737  0.5953 -0.4244
  101MOL0     N13250   6.502   1.303   8.023  0.9761  0.3524 -0.9765
  101MOL0     N13251   6.496   1.213   7.935  0.0453  0.4368 -0.0074
  101MOL0     C13252   5.533   0.789   7.417 -0.6610 -0.9167  1.0974
  101MOL0     C13253   5.545   0.707   7.297  0.2309  0.1806  0.3556
  101MOL0     C13254   5.530   0.534   6.897  0.2049 -0.0264  0.4675
  101MOL0     C13255   5.646   0.577   6.820  0.8839 -0.9768 -0.5793
  101MOL0     C13256   5.670   0.518   6.700 -0.4943 -0.0635  0.3316
  101MOL0     C13257   5.582   0.422   6.639  0.7549 -0.0366  0.7654
  101MOL0     O13258   5.598   0.369   6.518  0.6787 -0.0693  0.6143
  101MOL0     C13259   5.565   0.449   6.406 -0.4824  0.2002  0.1416
  101MOL0     C13260   5.467   0.393   6.303  0.5459 -0.1361  0.8147
  101MOL0     C13261   5.441   0.499   6.190 -0.3154  0.5829 -0.7392
  101MOL0     C13262   5.338   0.607   6.237 -0.5824  0.4634  0.0305
  101MOL0     C13263   5.376   0.724   6.158  0.7828 -0.9323 -0.3284
  101MOL0     C13264   5.405   0.840   6.118  1.1980  0.1555 -1.1681
  101MOL0     C13265   5.484   0.370   6.727 -1.2183  0.2717  0.0440
  101MOL0     C13266   5.467   0.414   6.856 -0.2988 -1.7062 -0.3805
  101MOL0     H13267   5.577   0.976   7.091  1.6088 -1.4838  0.2706
  101MOL0     H13268   5.536   1.093   7.280 -0.3831 -0.5945 -5.1662
  101MOL0     H13269   5.435   0.882   7.666 -0.7430  1.0691 -1.3684
  101MOL0     H13270   5.478   1.041   7.729  1.6215  0.8260  0.2715
  101MOL0     H13271   5.674   0.838   7.631  1.2039  0.3826 -1.1495
  101MOL0     H13272   5.664   0.919   7.782 -0.7029  3.3016  0.5865
  101MOL0     H13273   5.740   1.127   7.679  3.1140  1.5442 -1.7296
  101MOL0     H13274   5.755   1.035   7.521  0.3196  0.1635 -0.4146
  101MOL0     H13275   5.904   1.010   7.788  3.6040 -1.8470  0.4170
  101MOL0     H13276   5.906   0.880   7.665  1.2167  0.1321 -2.2732
  101MOL0     H13277   5.981   1.153   7.589 -1.1325  0.1633 -0.1314
  101MOL0     H13278   5.978   1.011   7.489 -1.0212  1.3360 -0.9953
  101MOL0     H13279   6.214   1.095   7.556  1.2587  1.0961  0.8204
  101MOL0     H13280   6.187   0.926   7.619 -0.1237  0.5846 -0.7872
  101MOL0     H13281   6.143   1.201   7.721  1.7163  1.4012  3.3189
  101MOL0     H13282   6.102   1.075   7.833  1.3699  0.4510  1.0794
  101MOL0     H13283   6.393   1.123   7.720  2.1822  0.0759  2.8726
  101MOL0     H13284   6.335   1.000   7.831  1.0405 -1.3825 -3.0749
  101MOL0     H13285   6.182   1.307   7.973 -0.1918  0.7961  1.2452
  101MOL0     H13286   6.262   1.522   8.094  1.7650  1.0490 -0.5832
  101MOL0     H13287   6.420   1.507   8.184 -0.8392  1.8573  0.2546
  101MOL0     H13288   6.167   1.335   8.230  0.0794 -0.8847 -0.4328
  101MOL0     H13289   6.204   1.479   8.324  2.4815  3.0451 -2.7313
  101MOL0     H13290   6.405   1.259   8.295 -2.1192  0.1283 -0.8987
  101MOL0     H13291   6.412   1.401   8.414 -2.0658  1.7947  0.8897
  101MOL0     H13292   6.200   1.181   8.401 -0.3665  0.7370 -0.6023
  101MOL0     H13293   6.218   1.324   8.513  1.6189  3.2234 -1.8168
  101MOL0     H13294   6.497   1.061   8.706  0.6820 -0.3512  0.7318
  101MOL0     H13295   6.421   0.958   8.920  0.5840  0.5983 -0.9793
  101MOL0     H13296   6.404   0.633   9.130  0.0969  3.0250 -0.1726
  101MOL0     H13297   6.364   0.489   9.336  0.6685 -1.4644 -2.9813
  101MOL0     H13298   6.128   0.674   9.645  2.3342  1.6684 -2.2008
  101MOL0     H13299   6.281   0.629   9.660 -1.3406  0.6830  0.1890
  101MOL0     H13300   6.188   0.494   9.836 -4.3387 -1.3198  0.6370
  101MOL0     H13301   6.250   0.392   9.706 -0.6911 -3.3761  0.8027
  101MOL0     H13302   5.996   0.356   9.651  3.0331 -1.2985 -1.0898
  101MOL0     H13303   5.956   0.451   9.795  1.2821  0.8552  0.9878
  101MOL0     H13304   6.154   0.232   9.846 -1.0995 -2.2270  3.0107
  101MOL0     H13305   6.043   0.311   9.952  2.6709 -1.9152  0.9592
  101MOL0     H13306   5.960   0.128   9.735 -1.2217  3.3368 -1.4243
  101MOL0     H13307   5.845   0.215   9.842 -1.2183 -3.2487 -1.2192
  101MOL0     H13308   5.860  -0.013   9.917 -1.7018  1.5699  0.7517
  101MOL0     H13309   5.935   0.089  10.044  3.3234 -0.8000  0.6755
  101MOL0     H13310   6.094  -0.064   9.822  0.6735  2.1936 -1.2750
  101MOL0     H13311   6.173   0.028   9.946  2.5176 -2.4426 -3.8201
  101MOL0     H13312   6.191  -0.184  10.009  0.7830  2.1225 -0.6953
  101MOL0     H13313   6.009  -0.214  10.014 -0.6485 -0.0939 -1.4238
  101MOL0     H13314   6.034   0.749   9.429 -1.5494  1.0180 -1.9832
  101MOL0     H13315   6.069   0.885   9.245 -0.1994  0.0710  0.7365
  101MOL0     H13316   6.030   0.918   8.749  0.3306  1.1727  1.4242
  101MOL0     H13317   6.100   1.079   8.577 -0.3333 -0.2665 -0.4642
  101MOL0     H13318   5.543   0.729   7.507 -1.8752 -2.7146  0.0935
  101MOL0     H13319   5.541   0.599   7.306 -2.5027  0.1498 -0.3649
  101MOL0     H13320   5.699   0.663   6.859  0.1576 -0.9773  0.4258
  101MOL0     H13321   5.749   0.552   6.634  0.4239 -0.4098  1.2241
  101MOL0     H13322   5.656   0.475   6.352 -1.3650  2.6477 -0.3106
  101MOL0     H13323   5.517   0.541   6.441 -2.3526 -0.9204  0.6715
  101MOL0     H13324   5.519   0.302   6.271 -0.4876 -1.0731  1.6999
  101MOL0     H13325   5.369   0.373   6.346  0.1395 -2.1641 -0.9167
  101MOL0     H13326   5.403   0.442   6.106  1.3595  0.8238 -1.7129
  101MOL0     H13327   5.534   0.549   6.161  0.3146  0.0297  0.2240
  101MOL0     H13328   5.231   0.594   6.218 -0.4185 -1.3078  0.1305
  101MOL0     H13329   5.361   0.632   6.341  0.7538  1.5385 -0.4880
  101MOL0     H13330   5.426   0.941   6.089 -1.3657  0.5669 -1.8997
  101MOL0     H13331   5.420   0.290   6.691  1.1875 -2.2723  1.0835
  101MOL0     H13332   5.380   0.373   6.907 -2.2822  2.4791  0.0148
  102MOL0     O13333   2.171   9.450   2.082 -0.5124 -0.1391  0.2713
  102MOL0     C13334   2.255   9.494   2.008 -0.4282  1.8428 -0.4394
  102MOL0     O13335   2.376   9.427   1.983 -0.6687  0.5281 -0.5286
  102MOL0     C13336   2.415   9.326   2.071 -0.5325  0.7818  0.4102
  102MOL0     C13337   2.414   9.331   2.205 -0.0616  0.2860 -0.3082
  102MOL0     C13338   2.453   9.231   2.293  0.3446 -0.2406  0.0072
  102MOL0     C13339   2.501   9.115   2.241 -0.2509 -0.1124 -1.0510
  102MOL0     O13340   2.541   9.016   2.320  0.3609  0.3139  0.2280
  102MOL0     C13341   2.579   8.886   2.268 -0.8133 -0.9394 -0.2829
  102MOL0     C13342   2.579   8.791   2.387 -0.1707 -0.1021 -0.6035
  102MOL0     C13343   2.571   8.645   2.355 -0.2965 -0.0013  0.8416
  102MOL0     C13344   2.677   8.594   2.262  0.5798 -0.7010 -0.4000
  102MOL0     C13345   2.642   8.451   2.216  0.2067 -0.3465 -0.5851
  102MOL0     C13346   2.757   8.394   2.122 -0.3207  0.2717  0.1565
  102MOL0     C13347   2.730   8.248   2.098 -1.0860 -0.1788  0.0312
  102MOL0     C13348   2.820   8.199   1.978  0.5713 -0.9252 -0.7629
  102MOL0     N13349   2.963   8.212   1.990  0.9760  0.8706  0.6334
  102MOL0     C13350   3.041   8.127   2.060 -0.1837  0.2510  1.4167
  102MOL0     C13351   3.170   8.175   2.046  0.1275 -0.6723 -0.7198
  102MOL0     C13352   3.282   8.113   2.114 -0.6430 -0.1615 -0.3817
  102MOL0     C13353   3.263   7.959   2.132  0.0170  0.9489 -0.0583
  102MOL0     C13354   3.386   7.887   2.201 -0.0334 -0.2505  0.1283
  102MOL0     C13355   3.382   7.732   2.189  0.5744 -0.5368 -0.2218
  102MOL0     O13356   3.277   7.683   2.274  0.6696 -0.5384  0.0569
  102MOL0     C13357   3.238   7.553   2.270  0.0928 -0.0938  1.0827
  102MOL0     C13358   3.294   7.441   2.199 -0.5894 -0.2552  0.3804
  102MOL0     C13359   3.238   7.312   2.216 -0.2922  0.5067  0.8141
  102MOL0     C13360   3.156   7.273   2.328  0.6643 -0.7928  0.4895
  102MOL0     C13361   3.119   7.135   2.349 -0.3073 -0.0175  0.5093
  102MOL0     O13362   3.175   7.024   2.283  0.0192  0.1305 -0.4252
  102MOL0     C13363   3.138   6.897   2.319  0.2473 -0.4692  0.6657
  102MOL0     C13364   3.014   6.856   2.259 -0.1074  0.1407 -1.0443
  102MOL0     C13365   2.964   6.731   2.276 -0.4929 -0.3766  1.3042
  102MOL0     C13366   3.037   6.644   2.351  1.2122  0.3944 -0.2892
  102MOL0     O13367   3.009   6.502   2.363  0.2615  0.5276 -0.0756
  102MOL0     C13368   2.866   6.467   2.361  0.4880  0.0616  0.5123
  102MOL0     C13369   2.791   6.543   2.470  0.3121 -0.7254  0.1344
  102MOL0     C13370   2.661   6.475   2.523 -0.5235  1.4912  1.1152
  102MOL0     C13371   2.693   6.363   2.627 -1.1515 -0.6716  0.4011
  102MOL0     C13372   2.575   6.293   2.701 -0.6391 -0.3778  0.4590
  102MOL0     C13373   2.446   6.313   2.622 -0.6142 -0.3940 -0.7950
  102MOL0     C13374   2.332   6.232   2.680  0.7240 -0.0560  0.8072
  102MOL0     C13375   2.202   6.255   2.608 -0.4751  0.5983 -0.0389
  102MOL0    Cl13376   2.202   6.174   2.457 -0.2129 -0.1012 -0.2508
  102MOL0     C13377   3.148   6.683   2.414  0.3245  0.1419  0.3124
  102MOL0     C13378   3.202   6.804   2.402  0.2268  0.0124  0.3106
  102MOL0     O13379   3.045   7.121   2.447  0.2725 -0.6870  0.6663
  102MOL0     C13380   3.099   7.387   2.395 -0.1592 -0.0663 -0.5933
  102MOL0     C13381   3.137   7.524   2.372 -0.3483 -0.1526  0.2127
  102MOL0     N13382   3.168   8.294   1.967 -0.1710  0.3258  0.6557
  102MOL0     N13383   3.044   8.313   1.941 -0.5170 -0.2902  0.6157
  102MOL0     C13384   2.510   9.111   2.100  0.9065  0.0072 -0.6582
  102MOL0     C13385   2.468   9.212   2.005  0.1838  0.5140  0.2926
  102MOL0     C13386   2.218   9.618   1.939 -0.5188 -0.5418 -0.0079
  102MOL0     C13387   2.089   9.645   1.893 -0.0550  0.0755  0.4151
  102MOL0     C13388   2.059   9.766   1.825  0.0114  0.4733  0.2060
  102MOL0     C13389   2.154   9.850   1.788 -1.0262  0.5542  0.3665
  102MOL0     O13390   2.121   9.964   1.709  0.2843  0.9711  0.9372
  102MOL0     C13391   2.163   9.964   1.561  0.2761 -0.0938 -0.5973
  102MOL0     C13392   2.091  10.066   1.473  0.6630 -0.2234 -0.9421
  102MOL0     C13393   1.940  10.035   1.451 -0.4593 -0.1693  0.3579
  102MOL0     C13394   1.893  10.104   1.324  0.4937  0.7903  0.3578
  102MOL0     C13395   1.751  10.072   1.325  0.0915  0.8011  1.7107
  102MOL0     C13396   1.631  10.070   1.313 -0.2374  0.5589  0.8977
  102MOL0     C13397   2.288   9.823   1.824 -0.7254 -1.0433  0.5498
  102MOL0     C13398   2.324   9.708   1.900 -1.2248  0.5526  0.5655
  102MOL0     H13399   2.371   9.409   2.268 -1.0362 -2.9510  3.5054
  102MOL0     H13400   2.454   9.234   2.402 -3.6421 -1.5284  0.2500
  102MOL0     H13401   2.680   8.875   2.229  0.7579  0.4910  3.0243
  102MOL0     H13402   2.519   8.852   2.183  1.5132  0.2143 -2.5299
  102MOL0     H13403   2.493   8.814   2.449 -0.1485  1.0274 -0.9641
  102MOL0     H13404   2.670   8.800   2.447  1.2384 -1.9446 -2.2830
  102MOL0     H13405   2.473   8.628   2.309 -2.0343  0.7837  3.9850
  102MOL0     H13406   2.572   8.588   2.448 -2.4612 -0.8585  0.3906
  102MOL0     H13407   2.687   8.656   2.173 -1.0869  1.6178  0.8991
  102MOL0     H13408   2.771   8.607   2.318 -1.1656  2.2458  2.2195
  102MOL0     H13409   2.552   8.457   2.154 -0.7681  0.5400  0.8474
  102MOL0     H13410   2.629   8.393   2.308  1.8602 -1.9463 -1.3050
  102MOL0     H13411   2.856   8.402   2.166  1.2909 -4.6390 -1.8147
  102MOL0     H13412   2.766   8.452   2.030 -1.1526  0.3656  0.1263
  102MOL0     H13413   2.763   8.193   2.186 -0.2386  1.0107  0.4911
  102MOL0     H13414   2.625   8.224   2.078 -0.6135 -2.4247  0.0920
  102MOL0     H13415   2.791   8.259   1.891 -0.5493 -1.2980 -0.6600
  102MOL0     H13416   2.798   8.094   1.962 -2.9603 -0.3867 -0.2142
  102MOL0     H13417   3.017   8.030   2.104  0.5476 -1.6117 -1.9911
  102MOL0     H13418   3.279   8.147   2.218  4.1706  1.4236 -0.5025
  102MOL0     H13419   3.377   8.150   2.075 -0.2829 -0.4782  0.1808
  102MOL0     H13420   3.255   7.913   2.033 -6.9348 -2.1020  1.3283
  102MOL0     H13421   3.176   7.928   2.191  0.2602 -0.7764 -0.5348
  102MOL0     H13422   3.477   7.916   2.149 -2.0056 -1.1357 -4.2706
  102MOL0     H13423   3.384   7.917   2.306 -0.1144 -0.0998  0.0849
  102MOL0     H13424   3.476   7.692   2.229  0.5082  1.5224  2.2188
  102MOL0     H13425   3.371   7.694   2.087  0.4255 -0.4772 -0.2287
  102MOL0     H13426   3.367   7.450   2.120 -0.5399 -2.0077  0.1808
  102MOL0     H13427   3.285   7.231   2.161  1.6055  2.3650 -0.4287
  102MOL0     H13428   2.957   6.912   2.186 -1.3971 -1.5286 -1.3787
  102MOL0     H13429   2.882   6.693   2.217 -0.6625  1.7537  0.0857
  102MOL0     H13430   2.861   6.358   2.357  0.6518  0.0806 -3.2240
  102MOL0     H13431   2.810   6.501   2.273  0.6710  0.9038  0.7066
  102MOL0     H13432   2.756   6.639   2.430 -1.7339 -0.9806  1.1660
  102MOL0     H13433   2.855   6.564   2.556  2.7822  0.5067 -1.8654
  102MOL0     H13434   2.594   6.442   2.443  1.4402  1.2792 -0.5364
  102MOL0     H13435   2.608   6.549   2.584 -3.2259  0.2721  0.3989
  102MOL0     H13436   2.746   6.286   2.570  2.0322 -0.2432  2.5136
  102MOL0     H13437   2.766   6.390   2.704  1.4733 -0.6765 -1.9214
  102MOL0     H13438   2.568   6.355   2.791 -1.2447  2.0711 -1.1750
  102MOL0     H13439   2.598   6.190   2.730  2.1085 -0.2507 -0.9171
  102MOL0     H13440   2.463   6.271   2.522  0.0937  2.2979 -1.8847
  102MOL0     H13441   2.416   6.418   2.617 -2.5362 -0.9425 -2.3808
  102MOL0     H13442   2.358   6.125   2.683 -1.3152 -0.7415 -1.8126
  102MOL0     H13443   2.314   6.277   2.778 -0.6934 -0.5401  0.7937
  102MOL0     H13444   2.182   6.361   2.588 -2.0041 -0.1961 -3.6443
  102MOL0     H13445   2.123   6.207   2.666  0.7286 -2.0171 -0.3986
  102MOL0     H13446   3.192   6.609   2.481  2.8908  1.5056  0.2581
  102MOL0     H13447   3.278   6.828   2.476 -0.4378  0.9176  0.7352
  102MOL0     H13448   3.025   7.371   2.474  0.8879  0.8779  0.6396
  102MOL0     H13449   3.102   7.608   2.430  0.8777  0.1338  0.5747
  102MOL0     H13450   2.550   9.023   2.050  1.6390  0.9223 -1.7176
  102MOL0     H13451   2.483   9.190   1.899 -3.4472 -0.8001 -0.1236
  102MOL0     H13452   2.005   9.580   1.912  0.5035  0.0976  3.5495
  102MOL0     H13453   1.958   9.780   1.789 -0.5013  0.6700  1.6667
  102MOL0     H13454   2.170   9.862   1.523  1.5814 -0.1373 -0.2675
  102MOL0     H13455   2.268   9.992   1.566  0.1522  0.2664  2.9404
  102MOL0     H13456   2.103  10.162   1.524 -0.1684 -0.8869  0.5937
  102MOL0     H13457   2.138  10.071   1.374  0.7497 -2.1704 -1.0471
  102MOL0     H13458   1.875  10.053   1.537 -1.9298  1.8845 -1.0930
  102MOL0     H13459   1.934   9.927   1.438 -1.3842 -0.3947  2.2950
  102MOL0     H13460   1.901  10.213   1.336  2.2045  0.6643  0.6747
  102MOL0     H13461   1.949  10.080   1.233  0.5849 -1.8659  1.0502
  102MOL0     H13462   1.526  10.083   1.293  0.5032  2.7288 -2.2605
  102MOL0     H13463   2.366   9.897   1.813 -1.5082 -0.0394  1.4875
  102MOL0     H13464   2.428   9.696   1.929 -0.7925 -0.0081 -1.1076
  103MOL0     O13465   9.359   5.606   2.362 -0.0787  1.0616 -0.5272
  103MOL0     C13466   9.342   5.541   2.257  0.5017  0.1588  0.5017
  103MOL0     O13467   9.410   5.563   2.138 -0.3913 -0.0008  0.2278
  103MOL0     C13468   9.532   5.625   2.134  0.2403  0.1466 -0.5061
  103MOL0     C13469   9.620   5.637   2.247 -0.0304  0.2903  0.2085
  103MOL0     C13470   9.734   5.712   2.234  0.0363  1.1372  0.2173
  103MOL0     C13471   9.773   5.757   2.107 -0.0898 -1.1447  0.1734
  103MOL0     O13472   9.878   5.830   2.087  0.3211 -0.2281 -1.3301
  103MOL0     C13473   9.902   5.920   2.192 -0.4426 -1.7343 -0.4266
  103MOL0     C13474   9.980   6.048   2.148  0.7679  0.4516  0.7639
  103MOL0     C13475   9.929   6.179   2.205  0.6921 -0.7874 -0.2034
  103MOL0     C13476  10.004   6.296   2.148 -1.0441 -0.8437 -0.1957
  103MOL0     C13477   9.985   6.321   1.999 -1.3908  0.3903  0.0068
  103MOL0     C13478  10.032   6.461   1.949 -0.5671 -0.9968  1.2762
  103MOL0     C13479  10.171   6.500   1.961 -0.7481 -0.6038  0.2954
  103MOL0     C13480  10.188   6.650   1.901 -0.6717 -0.0717  0.4620
  103MOL0     N13481  10.302   6.745   1.933  0.0745 -0.2111 -0.1587
  103MOL0     C13482  10.364   6.769   2.054 -0.5536  0.0162  1.4725
  103MOL0     C13483  10.445   6.868   2.029 -0.0028 -0.2153 -0.1107
  103MOL0     C13484  10.540   6.959   2.112  0.6749  0.6794 -0.4225
  103MOL0     C13485  10.520   7.111   2.089 -0.0108 -0.4219 -0.0267
  103MOL0     C13486  10.632   7.204   2.136 -1.5182  0.6687  0.0369
  103MOL0     C13487  10.601   7.356   2.134 -0.3765  1.0053  0.9517
  103MOL0     O13488  10.482   7.375   2.204 -0.2603 -0.3606  0.2592
  103MOL0     C13489  10.454   7.508   2.210  0.4362  0.2766 -0.7687
  103MOL0     C13490  10.527   7.578   2.302 -0.4681  0.5244 -0.7208
  103MOL0     C13491  10.517   7.711   2.313 -0.3792  0.0328  0.8248
  103MOL0     C13492  10.431   7.785   2.228 -0.4623  0.3640 -0.3884
  103MOL0     C13493  10.442   7.939   2.224 -0.0385 -0.0480 -0.0232
  103MOL0     O13494  10.567   7.995   2.259 -0.4027  0.0843 -0.1519
  103MOL0     C13495  10.589   8.131   2.233  0.2594 -0.0908 -0.1134
  103MOL0     C13496  10.685   8.175   2.136  0.2872 -1.0424 -0.1913
  103MOL0     C13497  10.673   8.319   2.109  0.1278 -0.0646  0.5577
  103MOL0     C13498  10.604   8.400   2.186 -0.2849 -0.2775 -1.2114
  103MOL0     O13499  10.619   8.542   2.178 -0.6083  0.7752  0.0950
  103MOL0     C13500  10.727   8.593   2.254  0.2253  0.5396 -0.0384
  103MOL0     C13501  10.730   8.741   2.265 -0.2961 -0.4615 -0.7808
  103MOL0     C13502  10.775   8.785   2.409 -0.3515  0.1114  0.5506
  103MOL0     C13503  10.742   8.930   2.451  0.1410 -1.2993  0.0408
  103MOL0     C13504  10.784   8.967   2.591 -0.1310  0.2145  0.4223
  103MOL0     C13505  10.709   8.889   2.702  0.5176 -0.5080  0.6247
  103MOL0     C13506  10.559   8.938   2.693 -0.2902 -0.3509 -0.4004
  103MOL0     C13507  10.483   8.946   2.834  0.0244 -0.3928  0.3323
  103MOL0    Cl13508  10.321   9.036   2.818 -0.3619 -0.1087 -0.0924
  103MOL0     C13509  10.522   8.357   2.290  0.2104 -0.4690  0.0679
  103MOL0     C13510  10.516   8.218   2.315  1.2868 -0.0674 -0.0361
  103MOL0     O13511  10.343   8.007   2.193 -0.0768 -0.5354  0.1881
  103MOL0     C13512  10.351   7.712   2.136 -0.3199 -0.0054 -0.0723
  103MOL0     C13513  10.368   7.573   2.130  0.8396  0.2269 -1.0121
  103MOL0     N13514  10.432   6.903   1.900  0.0014  0.0306  0.3178
  103MOL0     N13515  10.348   6.836   1.848 -0.5785  0.8637 -0.1721
  103MOL0     C13516   9.700   5.723   1.997  0.3856 -0.7802  0.9257
  103MOL0     C13517   9.580   5.657   2.011  0.3290 -0.2988  0.1992
  103MOL0     C13518   9.243   5.438   2.257 -0.4902  0.2994 -0.5794
  103MOL0     C13519   9.220   5.370   2.143 -0.0221 -0.2912  1.3948
  103MOL0     C13520   9.108   5.280   2.134  0.5364 -0.6401  0.2423
  103MOL0     C13521   9.027   5.248   2.244  0.3287 -0.1483 -0.5083
  103MOL0     O13522   8.917   5.164   2.246 -0.1036  0.4087 -0.2588
  103MOL0     C13523   8.832   5.173   2.135  0.2686  0.5626  0.6853
  103MOL0     C13524   8.746   5.045   2.133 -0.9853 -0.3828 -0.1123
  103MOL0     C13525   8.823   4.914   2.149  0.4862 -0.1402 -0.1827
  103MOL0     C13526   8.929   4.899   2.046 -0.2530 -0.0386  0.8121
  103MOL0     C13527   8.870   4.889   1.907 -0.7798  1.2993  0.8522
  103MOL0     C13528   8.826   4.877   1.793  0.1602  0.0658  0.1124
  103MOL0     C13529   9.060   5.301   2.369  0.4832 -0.5587 -0.1125
  103MOL0     C13530   9.162   5.401   2.379  0.2249 -0.0804 -0.3160
  103MOL0     H13531   9.607   5.595   2.346  6.6290  1.4168  2.1073
  103MOL0     H13532   9.791   5.734   2.323  0.7303  2.1942 -0.4669
  103MOL0     H13533   9.958   5.875   2.275 -0.4958 -0.9935  0.0141
  103MOL0     H13534   9.817   5.960   2.248  0.4644  1.3929 -1.1120
  103MOL0     H13535   9.938   6.057   2.047 -3.6225 -0.1594  2.3355
  103MOL0     H13536  10.084   6.018   2.159 -0.4053 -5.6004 -0.8576
  103MOL0     H13537   9.942   6.186   2.313  1.0422  1.5371 -0.3466
  103MOL0     H13538   9.825   6.192   2.175  0.9957 -2.6091 -2.2979
  103MOL0     H13539   9.984   6.386   2.208  0.6430 -1.1991  0.9771
  103MOL0     H13540  10.112   6.286   2.161 -0.2681  3.1902 -2.0446
  103MOL0     H13541   9.881   6.307   1.966 -0.9385 -0.7253 -1.0657
  103MOL0     H13542  10.048   6.254   1.939  0.4266  1.2679  0.8909
  103MOL0     H13543   9.971   6.529   2.008 -0.5444 -1.2864  1.6336
  103MOL0     H13544  10.002   6.466   1.844 -2.3374 -3.4421  1.5871
  103MOL0     H13545  10.200   6.496   2.067  0.8457 -1.4532 -0.1376
  103MOL0     H13546  10.231   6.425   1.909  0.1053  0.5825 -0.4788
  103MOL0     H13547  10.100   6.711   1.926 -0.7126  0.9136 -1.8089
  103MOL0     H13548  10.194   6.652   1.792  2.2930  0.8731  0.5521
  103MOL0     H13549  10.360   6.716   2.149 -0.1733  1.7331  2.4753
  103MOL0     H13550  10.642   6.926   2.091  0.5233  1.2593 -2.2744
  103MOL0     H13551  10.517   6.924   2.213  1.5316 -3.0141 -1.3524
  103MOL0     H13552  10.432   7.133   2.151  0.6922  4.1305 -0.3229
  103MOL0     H13553  10.500   7.131   1.984  1.2945  0.2341 -0.1745
  103MOL0     H13554  10.661   7.156   2.230  0.0411 -0.7301 -1.1109
  103MOL0     H13555  10.721   7.185   2.075 -0.9516 -0.1780  1.0896
  103MOL0     H13556  10.597   7.381   2.028  1.9802 -1.6404  0.1307
  103MOL0     H13557  10.680   7.423   2.170  0.2437  1.5443 -1.2915
  103MOL0     H13558  10.591   7.522   2.370 -1.3151  1.6858  1.1385
  103MOL0     H13559  10.574   7.757   2.393 -0.3517  0.9487  0.2951
  103MOL0     H13560  10.762   8.113   2.091  1.6669  1.1667 -1.0442
  103MOL0     H13561  10.734   8.363   2.031  2.5676 -0.9568  1.8581
  103MOL0     H13562  10.823   8.556   2.216  0.3155 -0.6973  1.3144
  103MOL0     H13563  10.721   8.556   2.357  0.1596  2.7874  0.8146
  103MOL0     H13564  10.626   8.773   2.257 -0.0138  0.3391 -1.4526
  103MOL0     H13565  10.795   8.779   2.185  2.4674 -0.7859  1.1592
  103MOL0     H13566  10.884   8.786   2.413 -0.3779 -0.0375  1.6734
  103MOL0     H13567  10.745   8.709   2.482  0.2189 -1.4805 -0.8090
  103MOL0     H13568  10.781   9.005   2.382 -4.1130  3.4212  2.0796
  103MOL0     H13569  10.639   8.968   2.443  1.1092  2.7582  3.1534
  103MOL0     H13570  10.769   9.074   2.610  1.0802  0.6865 -1.0921
  103MOL0     H13571  10.893   8.955   2.593 -0.1700 -0.0696  1.4103
  103MOL0     H13572  10.752   8.919   2.798 -1.5309  5.0562  0.2098
  103MOL0     H13573  10.705   8.783   2.677  0.1996 -0.4116  0.2612
  103MOL0     H13574  10.545   9.040   2.655  1.8574 -0.0322 -0.4693
  103MOL0     H13575  10.499   8.878   2.624  1.7657 -0.2378 -2.4050
  103MOL0     H13576  10.535   8.986   2.922 -0.8655 -0.5985  0.9716
  103MOL0     H13577  10.451   8.843   2.854  0.4942 -1.1060 -2.1979
  103MOL0     H13578  10.452   8.424   2.337  0.3785 -0.6066  0.5197
  103MOL0     H13579  10.434   8.190   2.380 -0.2597 -0.8404 -2.2026
  103MOL0     H13580  10.278   7.767   2.076 -0.2774  0.8301  0.6129
  103MOL0     H13581  10.304   7.521   2.060 -0.3568 -0.0090  0.2027
  103MOL0     H13582   9.737   5.748   1.898  0.2627 -0.9784  0.8285
  103MOL0     H13583   9.507   5.636   1.933 -0.9860 -0.9831  1.5426
  103MOL0     H13584   9.274   5.394   2.052  1.4308 -1.3774  1.9418
  103MOL0     H13585   9.095   5.232   2.037  1.5174  2.4350 -1.5443
  103MOL0     H13586   8.873   5.167   2.034 -1.0980 -2.7199  0.2039
  103MOL0     H13587   8.775   5.267   2.143  0.0395  0.5106 -0.1999
  103MOL0     H13588   8.665   5.054   2.207 -4.7110 -2.2687 -3.5478
  103MOL0     H13589   8.699   5.048   2.034 -1.3268  2.6865  0.0322
  103MOL0     H13590   8.765   4.823   2.163 -0.0564  0.6342  3.6039
  103MOL0     H13591   8.876   4.934   2.243  3.1908  2.3747 -2.0509
  103MOL0     H13592   9.007   4.975   2.058  0.8392 -1.4331  3.5949
  103MOL0     H13593   8.980   4.804   2.062 -0.4642 -0.3640 -0.4057
  103MOL0     H13594   8.794   4.887   1.691 -0.0230  3.0355  0.3679
  103MOL0     H13595   9.005   5.271   2.458  0.4909 -2.9649 -0.8383
  103MOL0     H13596   9.176   5.443   2.478  0.1063 -2.0430  0.5864
  104MOL0     O13597   6.091   3.407   5.187 -0.0518 -0.6219 -0.1543
  104MOL0     C13598   6.009   3.489   5.236 -0.9426  0.4863  0.4975
  104MOL0     O13599   6.030   3.618   5.269  0.1340 -0.1403 -0.4168
  104MOL0     C13600   6.154   3.678   5.298  0.7521 -1.2894  0.5861
  104MOL0     C13601   6.277   3.615   5.314 -0.0487  0.0852  0.4270
  104MOL0     C13602   6.388   3.697   5.368 -0.1075 -1.1115 -0.2687
  104MOL0     C13603   6.374   3.835   5.376 -0.2481  0.3338  0.6271
  104MOL0     O13604   6.486   3.913   5.409 -0.6466 -0.1967  0.0764
  104MOL0     C13605   6.467   3.951   5.547 -0.2479 -0.0290 -0.3938
  104MOL0     C13606   6.588   4.006   5.606 -1.1861 -0.1886 -0.2162
  104MOL0     C13607   6.610   4.147   5.572 -0.7773  0.3132  0.7655
  104MOL0     C13608   6.754   4.183   5.580 -0.9687  1.1004 -0.8270
  104MOL0     C13609   6.806   4.306   5.510 -0.0910 -0.5243  0.6133
  104MOL0     C13610   6.920   4.371   5.580  0.1318 -0.1980  0.1402
  104MOL0     C13611   7.049   4.284   5.577  0.1965  0.1173 -0.5213
  104MOL0     C13612   7.173   4.356   5.627 -1.0036 -0.2822  0.3121
  104MOL0     N13613   7.166   4.389   5.769 -0.7107 -0.4241 -0.4338
  104MOL0     C13614   7.102   4.487   5.826  0.7480 -0.9700  0.6051
  104MOL0     C13615   7.141   4.483   5.956  1.2107  0.6577  0.5129
  104MOL0     C13616   7.113   4.573   6.075 -0.7097 -1.3094 -0.5169
  104MOL0     C13617   7.241   4.608   6.154  0.0016 -0.0812  0.3009
  104MOL0     C13618   7.382   4.629   6.077 -0.3482  1.1083  0.4838
  104MOL0     C13619   7.478   4.698   6.172 -1.0401 -0.2573  0.8251
  104MOL0     O13620   7.605   4.736   6.100  0.5200  0.2221  0.3741
  104MOL0     C13621   7.718   4.672   6.134 -0.0692 -0.1041  0.0913
  104MOL0     C13622   7.727   4.539   6.177 -0.0542  0.3202  0.6384
  104MOL0     C13623   7.853   4.485   6.195 -0.4612 -0.2130  0.1151
  104MOL0     C13624   7.969   4.567   6.172 -0.5910  0.2875  0.4941
  104MOL0     C13625   8.099   4.519   6.224 -0.3498 -0.2487 -0.4057
  104MOL0     O13626   8.089   4.440   6.342  0.0485 -0.3192 -0.2810
  104MOL0     C13627   8.190   4.408   6.431 -0.3323  1.2860  1.0048
  104MOL0     C13628   8.317   4.468   6.447  0.9594  0.1366  0.2582
  104MOL0     C13629   8.420   4.411   6.519 -0.2282 -0.2551  0.2703
  104MOL0     C13630   8.402   4.293   6.591 -0.1875  0.5297  0.2237
  104MOL0     O13631   8.509   4.268   6.672  0.4628 -0.0255  0.7425
  104MOL0     C13632   8.501   4.141   6.724 -0.7367 -0.2953  0.4339
  104MOL0     C13633   8.652   4.107   6.752  0.0057  0.1631  0.2634
  104MOL0     C13634   8.693   4.204   6.864  0.0354  0.6502 -0.1959
  104MOL0     C13635   8.838   4.176   6.916 -0.3847 -0.3895 -0.8922
  104MOL0     C13636   8.856   4.269   7.051 -0.6587  0.8168  0.9772
  104MOL0     C13637   8.999   4.272   7.091  0.3352 -0.8010  0.0537
  104MOL0     C13638   9.027   4.372   7.203 -0.0246 -0.0232  0.2479
  104MOL0     C13639   9.144   4.331   7.290  0.3603 -0.1574 -0.4784
  104MOL0    Cl13640   9.146   4.167   7.363 -0.1568  0.3287 -0.1226
  104MOL0     C13641   8.278   4.231   6.579  0.0866  0.0634 -0.7799
  104MOL0     C13642   8.174   4.279   6.493 -0.7636  0.4394 -0.2118
  104MOL0     O13643   8.198   4.577   6.185  0.1911  0.0247 -0.2336
  104MOL0     C13644   7.951   4.698   6.133  0.2761 -0.5367 -0.3660
  104MOL0     C13645   7.823   4.752   6.115  1.1568  0.1766 -0.3948
  104MOL0     N13646   7.223   4.379   5.977  0.2649 -0.9283  0.2166
  104MOL0     N13647   7.221   4.311   5.867 -0.2264  0.0642 -0.5023
  104MOL0     C13648   6.255   3.894   5.330 -0.5536  0.3607 -0.7528
  104MOL0     C13649   6.148   3.818   5.294 -0.7086 -0.3776  0.5864
  104MOL0     C13650   5.880   3.419   5.274 -0.3116 -0.6761 -0.3643
  104MOL0     C13651   5.859   3.278   5.266  0.3875 -0.3019 -0.2430
  104MOL0     C13652   5.743   3.229   5.324 -0.1965  1.5620  0.5249
  104MOL0     C13653   5.642   3.315   5.361  0.9017  0.9189  0.7178
  104MOL0     O13654   5.519   3.251   5.390 -0.2155  0.4347 -0.1620
  104MOL0     C13655   5.418   3.334   5.453 -0.3667  0.7073 -0.8581
  104MOL0     C13656   5.311   3.241   5.504  0.3648  0.4268 -0.7905
  104MOL0     C13657   5.363   3.143   5.617  0.3418 -0.7556  0.1431
  104MOL0     C13658   5.348   3.221   5.745  0.6898 -0.2038 -0.8265
  104MOL0     C13659   5.373   3.131   5.857  0.4996  1.0818  0.6019
  104MOL0     C13660   5.390   3.054   5.951  0.2866  0.2472  0.5682
  104MOL0     C13661   5.655   3.446   5.342  0.5711  0.1052 -0.4728
  104MOL0     C13662   5.774   3.500   5.308 -0.5475 -0.5981  0.1776
  104MOL0     H13663   6.287   3.510   5.287 -2.1423 -0.5602  1.9375
  104MOL0     H13664   6.493   3.675   5.375  0.9133  2.5409 -1.5650
  104MOL0     H13665   6.430   3.868   5.608 -0.0085 -0.7870 -1.2579
  104MOL0     H13666   6.394   4.032   5.558 -0.6642  0.2080 -3.8692
  104MOL0     H13667   6.677   3.952   5.573 -1.5175 -0.1737 -1.1457
  104MOL0     H13668   6.593   4.000   5.715  2.1477 -2.2119 -0.3339
  104MOL0     H13669   6.545   4.212   5.631 -0.4051  0.3799  1.1028
  104MOL0     H13670   6.588   4.158   5.466 -0.6740 -0.1858  0.6888
  104MOL0     H13671   6.787   4.186   5.685  0.8890  1.0673 -1.3643
  104MOL0     H13672   6.813   4.100   5.540 -0.5921  2.2800 -2.8854
  104MOL0     H13673   6.728   4.382   5.495  0.0655 -0.3639  0.6042
  104MOL0     H13674   6.834   4.294   5.405  1.5418  3.7035  0.3615
  104MOL0     H13675   6.884   4.396   5.680 -2.0397 -0.6992 -0.4458
  104MOL0     H13676   6.948   4.461   5.526 -0.1920  1.3493  2.4160
  104MOL0     H13677   7.046   4.201   5.648  3.7648  1.1594  1.0955
  104MOL0     H13678   7.071   4.251   5.475 -1.7564  0.1004 -0.9855
  104MOL0     H13679   7.184   4.444   5.563  1.2858  0.8561  2.1104
  104MOL0     H13680   7.260   4.291   5.616 -2.5937 -2.6216  0.8573
  104MOL0     H13681   7.032   4.550   5.772  1.1785 -1.3401 -0.4064
  104MOL0     H13682   7.032   4.538   6.139 -0.7333  0.1476  0.2850
  104MOL0     H13683   7.071   4.672   6.052 -0.1801 -0.3557  2.3000
  104MOL0     H13684   7.258   4.526   6.224  0.8162  0.4571  0.7510
  104MOL0     H13685   7.213   4.695   6.213 -0.1558  0.1704 -0.1376
  104MOL0     H13686   7.424   4.530   6.057  0.0755  0.8575  2.4349
  104MOL0     H13687   7.358   4.675   5.981 -1.1614 -0.3413 -0.0443
  104MOL0     H13688   7.490   4.633   6.259 -0.7966  2.2060  2.7524
  104MOL0     H13689   7.433   4.795   6.197  3.6107  3.1009 -2.1494
  104MOL0     H13690   7.631   4.489   6.184  1.4133 -2.9921 -0.6833
  104MOL0     H13691   7.848   4.381   6.223  2.6309 -0.2276  0.9749
  104MOL0     H13692   8.339   4.563   6.401  0.0323  0.4875  0.5345
  104MOL0     H13693   8.514   4.466   6.525 -0.4847  0.5919 -2.0612
  104MOL0     H13694   8.467   4.062   6.656 -0.2886  1.6608 -2.2132
  104MOL0     H13695   8.438   4.136   6.813  1.5416  4.2896  2.6556
  104MOL0     H13696   8.719   4.122   6.666  1.8449  0.0928  1.6274
  104MOL0     H13697   8.674   4.006   6.788  2.4609  0.6161  0.1886
  104MOL0     H13698   8.623   4.189   6.946  1.7652  2.2702  1.6816
  104MOL0     H13699   8.698   4.304   6.819  0.9277  1.1216  0.9026
  104MOL0     H13700   8.853   4.074   6.955  0.9605  0.5106  1.0857
  104MOL0     H13701   8.919   4.197   6.846  0.5087  2.1229  0.7683
  104MOL0     H13702   8.801   4.233   7.139 -0.6963  2.2413  1.5761
  104MOL0     H13703   8.813   4.367   7.026  1.0584  1.4249  0.2240
  104MOL0     H13704   9.064   4.303   7.009  0.1769  3.4338  1.2663
  104MOL0     H13705   9.029   4.170   7.116  1.5270 -0.1280  1.5212
  104MOL0     H13706   9.038   4.472   7.159  0.1457 -0.6997 -1.3379
  104MOL0     H13707   8.938   4.375   7.265  0.4721  1.6358  0.9303
  104MOL0     H13708   9.149   4.398   7.377 -1.7225 -1.8713  1.0538
  104MOL0     H13709   9.234   4.356   7.232  1.0689  2.2657  1.4794
  104MOL0     H13710   8.263   4.149   6.648  4.1283  0.6278  1.0782
  104MOL0     H13711   8.078   4.230   6.492 -1.5194  1.8077 -2.7955
  104MOL0     H13712   8.036   4.765   6.135 -0.5582  0.7081 -2.7431
  104MOL0     H13713   7.804   4.853   6.080  1.3342  0.3650  0.0529
  104MOL0     H13714   6.235   4.001   5.340  1.1905  0.5955  0.7500
  104MOL0     H13715   6.053   3.868   5.278  0.0212  0.3937 -1.8820
  104MOL0     H13716   5.934   3.206   5.235  2.0801  1.9290 -1.7201
  104MOL0     H13717   5.748   3.121   5.321  0.7327  1.6070 -0.0016
  104MOL0     H13718   5.378   3.394   5.371  1.5619  0.5029 -1.9973
  104MOL0     H13719   5.457   3.393   5.537 -3.3160 -0.4252  1.5134
  104MOL0     H13720   5.229   3.302   5.543  0.9036  0.4604  0.3286
  104MOL0     H13721   5.256   3.188   5.426 -0.0883  2.3982 -1.8950
  104MOL0     H13722   5.457   3.093   5.592  0.3240  0.0208 -1.5709
  104MOL0     H13723   5.292   3.061   5.603 -0.1784 -0.3657  0.4545
  104MOL0     H13724   5.418   3.305   5.749 -0.3690  0.6775 -0.3026
  104MOL0     H13725   5.248   3.264   5.748  0.4723 -0.7221 -0.4305
  104MOL0     H13726   5.406   2.991   6.037 -1.5688  1.6354  2.0257
  104MOL0     H13727   5.574   3.514   5.368 -0.1068 -1.4514  1.8264
  104MOL0     H13728   5.773   3.609   5.307 -3.1721 -0.4556  3.0231
  105MOL0     O13729   0.129   3.751   1.261  0.4928 -0.6216 -0.2837
  105MOL0     C13730   0.235   3.724   1.215 -0.4800 -0.3992  0.3973
  105MOL0     O13731   0.351   3.703   1.284  1.0307 -0.0701 -0.4493
  105MOL0     C13732   0.364   3.688   1.422  0.0275 -0.1403  0.0569
  105MOL0     C13733   0.259   3.662   1.507 -0.2659 -0.7332  1.5232
  105MOL0     C13734   0.284   3.631   1.639  0.4727 -0.0067  0.0014
  105MOL0     C13735   0.415   3.632   1.699 -0.4786  0.7259  0.1462
  105MOL0     O13736   0.428   3.610   1.837  0.0836 -0.1132 -0.0202
  105MOL0     C13737   0.557   3.625   1.894  0.1564 -0.9752  0.3308
  105MOL0     C13738   0.653   3.509   1.898 -0.7030 -0.7110  0.1118
  105MOL0     C13739   0.594   3.393   1.976  0.0276  0.0998  1.1127
  105MOL0     C13740   0.688   3.272   2.003  0.8152  0.2741  0.9218
  105MOL0     C13741   0.641   3.160   2.089 -0.3288 -0.1148 -0.5324
  105MOL0     C13742   0.573   3.059   1.999  1.1338 -0.4320  0.3270
  105MOL0     C13743   0.558   2.924   2.068  0.3986  0.5805  0.4980
  105MOL0     C13744   0.443   2.841   2.010 -0.5311  0.3706  0.0080
  105MOL0     N13745   0.415   2.831   1.872  0.4850 -0.2491 -0.3272
  105MOL0     C13746   0.352   2.924   1.800  0.8467 -0.1209  1.2887
  105MOL0     C13747   0.356   2.874   1.675  0.2982  0.1513  0.9409
  105MOL0     C13748   0.283   2.953   1.562 -0.3385  0.0946  0.0811
  105MOL0     C13749   0.313   2.903   1.422  0.4126  0.0597 -0.1475
  105MOL0     C13750   0.456   2.913   1.380 -0.1014 -0.1699 -0.4365
  105MOL0     C13751   0.470   2.869   1.229  0.3247 -0.9529 -0.2681
  105MOL0     O13752   0.583   2.783   1.203  0.7275  0.2743  0.3293
  105MOL0     C13753   0.592   2.727   1.084 -0.5874 -0.5270 -1.1761
  105MOL0     C13754   0.683   2.620   1.058 -1.2752  0.8260 -0.7218
  105MOL0     C13755   0.690   2.559   0.930  1.1274 -0.1589 -0.0713
  105MOL0     C13756   0.605   2.592   0.826 -0.2030 -0.8453  0.0919
  105MOL0     C13757   0.617   2.543   0.692 -0.6829  0.6718 -0.0555
  105MOL0     O13758   0.671   2.417   0.684 -0.0919 -0.6352 -1.4018
  105MOL0     C13759   0.742   2.383   0.575  0.1745  1.1145  0.8090
  105MOL0     C13760   0.673   2.354   0.461 -0.5040  0.3217 -0.1810
  105MOL0     C13761   0.739   2.292   0.353 -0.7649 -0.5029  0.5947
  105MOL0     C13762   0.876   2.257   0.345  0.1089 -0.0055 -0.4156
  105MOL0     O13763   0.932   2.211   0.231 -0.1593 -0.4629 -0.9185
  105MOL0     C13764   0.950   2.309   0.122  0.8648 -0.5809 -0.1302
  105MOL0     C13765   0.855   2.310   0.015 -0.5578  0.1510  0.3276
  105MOL0     C13766   0.829   2.168  -0.039  0.0196  0.1051  0.7408
  105MOL0     C13767   0.701   2.160  -0.128  0.0054 -0.6849  0.2557
  105MOL0     C13768   0.660   2.013  -0.155  0.4315  0.8250 -0.2088
  105MOL0     C13769   0.621   1.941  -0.021 -0.7587 -0.3879  0.0406
  105MOL0     C13770   0.519   1.827  -0.024 -0.3394  0.2222  0.8742
  105MOL0     C13771   0.562   1.727  -0.127 -0.3047 -0.2660 -0.1344
  105MOL0    Cl13772   0.436   1.604  -0.146  0.6004  0.0910 -0.2522
  105MOL0     C13773   0.946   2.299   0.463 -0.2002  0.2331 -0.4953
  105MOL0     C13774   0.883   2.353   0.574  0.1116  0.2915  0.0328
  105MOL0     O13775   0.585   2.611   0.588 -0.1145 -0.1646 -0.1874
  105MOL0     C13776   0.503   2.687   0.854 -0.7414  0.9973 -1.1981
  105MOL0     C13777   0.495   2.753   0.977  0.7260 -0.0862  0.0325
  105MOL0     N13778   0.417   2.752   1.671  0.3891  0.3793  1.3539
  105MOL0     N13779   0.456   2.726   1.791  0.0635 -0.3720 -0.6017
  105MOL0     C13780   0.519   3.651   1.606  0.1103  0.3014 -0.1446
  105MOL0     C13781   0.491   3.663   1.472 -0.4821 -0.1881  0.0287
  105MOL0     C13782   0.243   3.708   1.069 -0.2986 -0.3908  0.0208
  105MOL0     C13783   0.137   3.680   0.979 -0.5461 -0.5164  0.1135
  105MOL0     C13784   0.146   3.660   0.846 -0.2624 -0.7491  0.1283
  105MOL0     C13785   0.270   3.661   0.787 -0.0596 -1.1186  0.5205
  105MOL0     O13786   0.266   3.634   0.655 -0.4781  0.0906  0.9683
  105MOL0     C13787   0.364   3.687   0.567 -0.3719  0.6052 -1.1018
  105MOL0     C13788   0.471   3.598   0.528  0.3312  0.4501  0.9677
  105MOL0     C13789   0.544   3.625   0.398  0.4590 -0.9210 -0.0253
  105MOL0     C13790   0.616   3.501   0.342 -0.3966 -0.0299  0.5643
  105MOL0     C13791   0.678   3.526   0.209  0.3061 -0.5794 -0.2108
  105MOL0     C13792   0.737   3.558   0.112 -0.9882  0.3260  0.4978
  105MOL0     C13793   0.383   3.679   0.864  0.9084 -0.6468  0.0233
  105MOL0     C13794   0.374   3.713   0.998 -1.0762  0.5306  0.8199
  105MOL0     H13795   0.157   3.648   1.473  0.1446 -2.1276  0.7987
  105MOL0     H13796   0.206   3.602   1.710 -0.1180  5.4321  2.0748
  105MOL0     H13797   0.527   3.643   1.998  0.1628  0.0917  0.1626
  105MOL0     H13798   0.608   3.718   1.866 -1.7129 -0.4901 -1.8147
  105MOL0     H13799   0.754   3.536   1.930 -1.0483 -0.6459  1.1941
  105MOL0     H13800   0.666   3.470   1.797 -4.6465 -0.3527 -0.6759
  105MOL0     H13801   0.510   3.359   1.914 -0.5271  0.9292  1.3954
  105MOL0     H13802   0.551   3.432   2.069 -4.0411  0.9353 -0.8790
  105MOL0     H13803   0.718   3.226   1.908 -0.6471  1.8093 -0.3517
  105MOL0     H13804   0.783   3.312   2.041  1.4705 -2.6761  2.6619
  105MOL0     H13805   0.567   3.192   2.162  0.9948 -1.2476  1.3806
  105MOL0     H13806   0.738   3.125   2.125  0.1797 -0.3250 -2.0098
  105MOL0     H13807   0.620   3.044   1.901  1.5001 -0.7218  0.5505
  105MOL0     H13808   0.476   3.108   1.986  0.6233 -1.6420 -0.6096
  105MOL0     H13809   0.645   2.863   2.044 -1.0439 -0.9780 -1.0861
  105MOL0     H13810   0.542   2.940   2.175 -0.9942  1.9552  0.1315
  105MOL0     H13811   0.347   2.875   2.050 -1.5523 -0.5520 -1.5565
  105MOL0     H13812   0.454   2.738   2.045 -0.6022 -0.7355 -2.9773
  105MOL0     H13813   0.308   3.016   1.837 -2.1323  0.4086 -2.9422
  105MOL0     H13814   0.312   3.058   1.568  0.2707 -0.0159 -0.7999
  105MOL0     H13815   0.174   2.954   1.573 -0.6618 -1.0974 -2.3010
  105MOL0     H13816   0.245   2.954   1.353  1.0393  2.0678  0.6727
  105MOL0     H13817   0.289   2.796   1.423 -0.4838  0.1588  3.7009
  105MOL0     H13818   0.498   3.014   1.390  0.9079 -0.6940  0.9167
  105MOL0     H13819   0.520   2.852   1.445 -1.2284 -0.6786  0.2278
  105MOL0     H13820   0.480   2.950   1.156 -0.8661 -2.5245 -2.2484
  105MOL0     H13821   0.376   2.822   1.201 -1.3961  2.1686 -0.2466
  105MOL0     H13822   0.748   2.603   1.143 -1.8820 -0.0079 -0.4038
  105MOL0     H13823   0.763   2.481   0.911  1.9500  0.5646  0.0706
  105MOL0     H13824   0.566   2.375   0.454 -0.4594  0.1011 -2.1145
  105MOL0     H13825   0.676   2.261   0.270  0.5978 -6.5261  1.3330
  105MOL0     H13826   1.041   2.290   0.065  0.1774  3.5925 -3.1529
  105MOL0     H13827   0.940   2.410   0.163 -1.6511 -0.3048 -1.2159
  105MOL0     H13828   0.883   2.378  -0.066 -1.1230 -0.4840 -0.4049
  105MOL0     H13829   0.761   2.347   0.057 -0.4701 -1.4182  2.0564
  105MOL0     H13830   0.822   2.096   0.043 -2.6060 -1.2945 -0.5967
  105MOL0     H13831   0.916   2.131  -0.093 -0.3746 -1.6016  1.2053
  105MOL0     H13832   0.621   2.213  -0.076  0.1966  0.8750 -0.9964
  105MOL0     H13833   0.721   2.215  -0.220  1.2945  2.0523  2.0403
  105MOL0     H13834   0.731   1.964  -0.222 -0.7828  0.8736 -1.5999
  105MOL0     H13835   0.563   2.017  -0.207 -0.6653 -0.6237  1.6318
  105MOL0     H13836   0.589   2.021   0.046 -1.9786  1.5000 -2.6173
  105MOL0     H13837   0.715   1.895   0.010 -0.8078  0.5254  1.6721
  105MOL0     H13838   0.523   1.774   0.071 -1.5324 -1.3193  0.1001
  105MOL0     H13839   0.419   1.867  -0.045  0.2087 -0.2445 -3.4495
  105MOL0     H13840   0.656   1.680  -0.098  0.0802  2.2742  3.3346
  105MOL0     H13841   0.578   1.777  -0.223 -0.0978  2.3943  1.1948
  105MOL0     H13842   1.054   2.294   0.470 -0.3099 -0.7934  0.7759
  105MOL0     H13843   0.929   2.373   0.670  0.0634  0.4252  0.0281
  105MOL0     H13844   0.432   2.709   0.775 -0.5959 -0.2776 -1.7145
  105MOL0     H13845   0.410   2.816   1.001  0.1396 -0.4364 -1.0510
  105MOL0     H13846   0.617   3.663   1.651  0.0605  1.5316 -0.3268
  105MOL0     H13847   0.566   3.665   1.394  0.3330 -0.3828  0.7838
  105MOL0     H13848   0.049   3.652   1.037 -1.2772  1.5316  0.0873
  105MOL0     H13849   0.057   3.636   0.789 -0.9871  1.3129  0.2960
  105MOL0     H13850   0.402   3.776   0.618  2.8669 -0.7519 -0.9386
  105MOL0     H13851   0.303   3.718   0.481 -1.5377 -0.4755 -0.6995
  105MOL0     H13852   0.554   3.593   0.598  0.7960 -1.6562  0.3644
  105MOL0     H13853   0.427   3.497   0.523 -1.4477  1.2509 -2.1882
  105MOL0     H13854   0.624   3.698   0.414 -0.1818  0.2111 -1.6713
  105MOL0     H13855   0.483   3.673   0.321  3.6958  2.6474 -0.6728
  105MOL0     H13856   0.699   3.469   0.406  1.4477  3.2282  0.0018
  105MOL0     H13857   0.547   3.416   0.337 -1.2062  0.6767 -1.1402
  105MOL0     H13858   0.805   3.590   0.036 -0.3939  0.0049  0.8787
  105MOL0     H13859   0.478   3.666   0.812  0.4421  0.5526 -1.1979
  105MOL0     H13860   0.463   3.733   1.057 -1.1955 -0.5304  1.3855
  106MOL0     O13861   6.666  11.240   4.816  0.2353  0.1534 -0.3147
  106MOL0     C13862   6.619  11.340   4.874 -0.1897 -0.8246 -0.3575
  106MOL0     O13863   6.502  11.341   4.937 -1.0265  0.4027 -0.7676
  106MOL0     C13864   6.449  11.216   4.955 -1.3398  0.4841  0.0796
  106MOL0     C13865   6.466  11.153   5.079 -1.0940 -0.3074 -0.3389
  106MOL0     C13866   6.391  11.043   5.114 -0.4668 -0.6843 -0.4637
  106MOL0     C13867   6.285  11.006   5.028 -0.0795  0.1423  0.1690
  106MOL0     O13868   6.200  10.905   5.032  0.4707  0.2500 -0.4488
  106MOL0     C13869   6.220  10.816   5.141 -0.1058  1.0177 -0.1106
  106MOL0     C13870   6.116  10.727   5.186 -0.1572 -0.1603 -0.0213
  106MOL0     C13871   5.972  10.785   5.174  1.0454  0.5822 -0.4019
  106MOL0     C13872   5.883  10.719   5.274  0.3224 -0.0077 -0.5031
  106MOL0     C13873   5.750  10.780   5.275 -0.6683  1.0634  0.1805
  106MOL0     C13874   5.743  10.921   5.331  0.6760 -0.1140 -0.1124
  106MOL0     C13875   5.598  10.965   5.361  0.2044  0.9881 -0.4468
  106MOL0     C13876   5.575  11.108   5.408  0.3621  0.3240 -0.8025
  106MOL0     N13877   5.432  11.133   5.402 -0.1544 -1.0566 -0.2783
  106MOL0     C13878   5.374  11.186   5.288 -0.6049  0.1724  0.4644
  106MOL0     C13879   5.248  11.224   5.326  0.1846  0.0965 -0.8654
  106MOL0     C13880   5.164  11.308   5.235 -0.0619 -0.1745  0.6367
  106MOL0     C13881   5.105  11.222   5.127 -0.2760 -0.5220 -0.0551
  106MOL0     C13882   4.980  11.282   5.063  0.5820  0.1066 -0.8442
  106MOL0     C13883   4.881  11.348   5.167 -0.3944 -0.6529 -0.4946
  106MOL0     O13884   4.908  11.487   5.184  0.2583 -0.2471 -0.6383
  106MOL0     C13885   4.808  11.560   5.244  0.2327 -0.0501 -0.7101
  106MOL0     C13886   4.668  11.533   5.251  0.1218 -0.0814  0.1079
  106MOL0     C13887   4.589  11.630   5.324 -0.1249 -0.1550 -0.5432
  106MOL0     C13888   4.644  11.745   5.386 -0.4239  0.0725  0.8861
  106MOL0     C13889   4.567  11.839   5.466  0.2974  0.4808 -0.2922
  106MOL0     O13890   4.638  11.950   5.519  0.5987 -0.1430 -0.3017
  106MOL0     C13891   4.586  12.051   5.595  0.0743  1.7173  1.2544
  106MOL0     C13892   4.454  12.057   5.650  0.3884  0.7078  0.6025
  106MOL0     C13893   4.415  12.157   5.746 -0.1289  0.7696  0.5254
  106MOL0     C13894   4.515  12.251   5.781 -0.0451 -0.4792  0.3596
  106MOL0     O13895   4.486  12.342   5.872 -0.7643 -0.0616  0.3571
  106MOL0     C13896   4.475  12.289   6.006  0.7626 -0.8135 -0.3312
  106MOL0     C13897   4.413  12.386   6.105  0.4713  0.0688 -0.8179
  106MOL0     C13898   4.489  12.513   6.126  0.0514 -0.3497 -0.0948
  106MOL0     C13899   4.407  12.616   6.201  0.9715 -0.6899  0.0604
  106MOL0     C13900   4.496  12.708   6.277 -0.5995 -0.4411  1.1349
  106MOL0     C13901   4.421  12.831   6.335  0.0082  0.1572 -0.5223
  106MOL0     C13902   4.524  12.936   6.384 -0.1154  0.1675  1.0604
  106MOL0     C13903   4.458  13.043   6.466  0.1686  0.9248 -0.4850
  106MOL0    Cl13904   4.295  13.094   6.413 -0.0126 -0.2228  0.4708
  106MOL0     C13905   4.645  12.253   5.723 -0.1593 -0.3984 -0.3098
  106MOL0     C13906   4.679  12.145   5.632  0.2663  0.7405  0.8566
  106MOL0     O13907   4.456  11.813   5.491  0.1134  0.4593 -0.1064
  106MOL0     C13908   4.777  11.764   5.380 -0.9299  0.3578  1.3704
  106MOL0     C13909   4.860  11.675   5.305 -0.8941  0.2544  0.1538
  106MOL0     N13910   5.227  11.186   5.456  0.3667  0.2893 -0.6034
  106MOL0     N13911   5.337  11.125   5.504 -0.3127 -0.5214  0.5741
  106MOL0     C13912   6.262  11.075   4.909  0.2204  0.2410  0.2452
  106MOL0     C13913   6.350  11.173   4.866  1.0759 -0.2232  0.7159
  106MOL0     C13914   6.685  11.463   4.846 -0.2278 -0.2569  0.5855
  106MOL0     C13915   6.616  11.576   4.806  0.4823 -0.9458  1.0821
  106MOL0     C13916   6.682  11.696   4.780 -0.6200  0.2868  0.1171
  106MOL0     C13917   6.824  11.713   4.789  0.7864 -0.0223  0.4497
  106MOL0     O13918   6.893  11.825   4.765  0.1211 -0.5746 -0.5511
  106MOL0     C13919   6.824  11.940   4.721  0.8986  0.1123  0.1789
  106MOL0     C13920   6.909  12.042   4.673  0.5700  0.3931 -0.5340
  106MOL0     C13921   6.965  12.011   4.538 -0.3839 -1.1571  0.2339
  106MOL0     C13922   7.007  12.157   4.483 -0.0923  0.2800  0.2550
  106MOL0     C13923   7.120  12.202   4.557  0.3451 -1.2835 -0.3571
  106MOL0     C13924   7.211  12.239   4.626  0.0855 -0.8551 -0.4327
  106MOL0     C13925   6.888  11.594   4.824 -0.7257  0.6363  0.3991
  106MOL0     C13926   6.828  11.473   4.858 -0.2582  0.1958  0.3357
  106MOL0     H13927   6.534  11.189   5.155  1.3563 -2.8866 -1.1391
  106MOL0     H13928   6.425  11.002   5.209  2.3804 -0.6342 -1.3856
  106MOL0     H13929   6.234  10.874   5.232 -1.2394  0.7498  0.2486
  106MOL0     H13930   6.306  10.752   5.119 -0.1457  0.4655  1.2473
  106MOL0     H13931   6.137  10.692   5.288  2.5973  0.1124 -0.4231
  106MOL0     H13932   6.118  10.641   5.118 -0.9405  0.4979 -0.9059
  106MOL0     H13933   5.940  10.780   5.070 -0.7848  2.9660 -0.0485
  106MOL0     H13934   5.983  10.894   5.184  1.6468  0.7891 -2.7206
  106MOL0     H13935   5.877  10.612   5.250  3.4818 -0.6351  1.0498
  106MOL0     H13936   5.921  10.729   5.376 -0.7588 -0.2369 -0.0691
  106MOL0     H13937   5.689  10.718   5.342 -0.4602  0.2372 -0.3740
  106MOL0     H13938   5.698  10.779   5.179  0.8965 -0.1911 -0.7040
  106MOL0     H13939   5.784  10.973   5.244  0.4236  0.5199  0.1410
  106MOL0     H13940   5.809  10.920   5.418 -2.6542 -2.5499  2.6546
  106MOL0     H13941   5.536  10.944   5.273  1.6976 -4.6437 -0.5421
  106MOL0     H13942   5.572  10.893   5.439  2.3085  1.3985  0.7154
  106MOL0     H13943   5.631  11.190   5.363  0.7646  0.8494  0.6171
  106MOL0     H13944   5.592  11.109   5.516  0.0642  0.4180 -0.7531
  106MOL0     H13945   5.419  11.192   5.190  0.1075  0.5286  0.8093
  106MOL0     H13946   5.230  11.384   5.191 -1.9801  1.2039  0.0118
  106MOL0     H13947   5.088  11.362   5.293 -0.5772 -2.2631  2.0153
  106MOL0     H13948   5.092  11.126   5.177 -0.0165 -0.9887 -0.8447
  106MOL0     H13949   5.174  11.210   5.043 -1.5363  1.3518 -1.4469
  106MOL0     H13950   5.009  11.354   4.986  0.9818  0.8711  0.0102
  106MOL0     H13951   4.928  11.197   5.016  0.9895 -0.7124  0.1589
  106MOL0     H13952   4.891  11.285   5.256  0.1625  1.2725  0.8552
  106MOL0     H13953   4.784  11.318   5.125 -0.3089 -2.5852  0.5847
  106MOL0     H13954   4.625  11.442   5.211  2.2551 -0.6042 -1.1604
  106MOL0     H13955   4.484  11.607   5.335 -0.5142  1.5190 -0.5080
  106MOL0     H13956   4.378  11.985   5.620 -0.9367  2.7233 -1.1064
  106MOL0     H13957   4.320  12.153   5.798  0.4653  0.0265  1.5898
  106MOL0     H13958   4.572  12.257   6.045 -0.2941 -3.1008  0.5775
  106MOL0     H13959   4.412  12.200   6.007  0.3801 -0.5542 -0.6689
  106MOL0     H13960   4.396  12.338   6.201  0.3006  0.5154 -0.6209
  106MOL0     H13961   4.317  12.422   6.068 -0.1317  0.3350  0.9554
  106MOL0     H13962   4.515  12.560   6.031  1.6935  1.3794  1.1295
  106MOL0     H13963   4.582  12.489   6.179  2.9979  0.1957 -4.4761
  106MOL0     H13964   4.344  12.678   6.135 -0.2343 -1.3600  0.5453
  106MOL0     H13965   4.338  12.568   6.271 -2.9115 -2.6693 -4.5431
  106MOL0     H13966   4.578  12.733   6.210 -1.5060 -0.3122  0.0501
  106MOL0     H13967   4.539  12.648   6.359  2.2874  0.4726  0.4099
  106MOL0     H13968   4.356  12.795   6.416 -3.1645 -6.2986 -4.9619
  106MOL0     H13969   4.351  12.873   6.262 -1.9249 -1.8561  0.0500
  106MOL0     H13970   4.606  12.876   6.423  1.2315  0.6196 -0.9684
  106MOL0     H13971   4.565  12.999   6.305  0.9137  0.4579  1.8146
  106MOL0     H13972   4.521  13.133   6.473 -1.2234  1.8391  1.6132
  106MOL0     H13973   4.454  13.011   6.571  0.0485  0.8605 -0.5092
  106MOL0     H13974   4.723  12.322   5.753 -1.6487  1.0852  0.2848
  106MOL0     H13975   4.778  12.140   5.588  0.0328  3.3774 -0.1708
  106MOL0     H13976   4.817  11.857   5.418  0.1137  0.5955 -0.2294
  106MOL0     H13977   4.967  11.689   5.296 -1.3808  3.2036 -2.9785
  106MOL0     H13978   6.190  11.030   4.840  1.7900 -0.1246 -1.2316
  106MOL0     H13979   6.331  11.214   4.768  1.6083 -1.0561  0.2571
  106MOL0     H13980   6.508  11.577   4.804  0.4798 -1.3292  0.9808
  106MOL0     H13981   6.638  11.784   4.734 -0.6106  0.9306  1.2794
  106MOL0     H13982   6.763  11.966   4.808  0.6581 -2.5219  0.8938
  106MOL0     H13983   6.763  11.916   4.633  2.0574  0.1945 -0.6692
  106MOL0     H13984   6.846  12.132   4.673 -1.2355 -0.7802  1.4829
  106MOL0     H13985   6.988  12.063   4.746  0.1252  2.1061 -0.4951
  106MOL0     H13986   6.881  11.979   4.476  0.7716 -0.0856 -2.0073
  106MOL0     H13987   7.034  11.927   4.529  1.3429 -0.1541  2.7423
  106MOL0     H13988   7.039  12.141   4.380 -1.6890 -0.0667 -0.2093
  106MOL0     H13989   6.925  12.228   4.494 -2.0306 -1.4783 -1.8883
  106MOL0     H13990   7.290  12.260   4.696 -0.6293 -0.3544  0.2475
  106MOL0     H13991   6.996  11.584   4.818 -0.7634 -0.4874  1.2991
  106MOL0     H13992   6.897  11.394   4.882  1.3577  0.4262 -2.9061
  107MOL0     O13993   0.978   9.125   2.618  1.3884 -0.3770 -0.1462
  107MOL0     C13994   0.957   9.080   2.733  0.3258 -0.1021  0.8545
  107MOL0     O13995   0.832   9.074   2.789  0.5813  0.0298  0.0433
  107MOL0     C13996   0.728   9.133   2.714 -0.1963  0.4570 -0.1153
  107MOL0     C13997   0.661   9.073   2.608  0.1367  0.2079  0.6240
  107MOL0     C13998   0.563   9.146   2.546 -0.8306  0.0800  1.0842
  107MOL0     C13999   0.508   9.262   2.596  0.5467  0.3784 -0.4455
  107MOL0     O14000   0.395   9.325   2.541  0.3509 -1.1763 -0.7411
  107MOL0     C14001   0.268   9.279   2.588  0.7135  0.1822 -0.7248
  107MOL0     C14002   0.154   9.358   2.543 -0.5308  0.2594 -0.1328
  107MOL0     C14003   0.176   9.514   2.549 -0.4602 -1.1644  0.8106
  107MOL0     C14004   0.070   9.593   2.472  0.8897 -0.3878 -0.2872
  107MOL0     C14005  -0.068   9.568   2.538 -0.2221 -0.2089 -0.3436
  107MOL0     C14006  -0.174   9.679   2.527 -0.3999  0.0888  0.1378
  107MOL0     C14007  -0.313   9.646   2.568  0.5005 -0.9131  0.2178
  107MOL0     C14008  -0.352   9.602   2.712  1.0071  0.0749  0.7784
  107MOL0     N14009  -0.336   9.711   2.796 -0.1597 -1.4460  0.2039
  107MOL0     C14010  -0.222   9.746   2.862  1.3383 -1.0914 -0.0549
  107MOL0     C14011  -0.262   9.839   2.947  0.6525 -0.7902  0.0431
  107MOL0     C14012  -0.183   9.899   3.063 -0.1641  0.0910 -0.2431
  107MOL0     C14013  -0.198   9.818   3.188  0.7769  0.4333 -0.2288
  107MOL0     C14014  -0.122   9.691   3.183 -0.3819  0.0256 -0.1066
  107MOL0     C14015  -0.116   9.618   3.322  0.3282 -0.1044 -0.3220
  107MOL0     O14016  -0.050   9.490   3.293  0.1624  0.3923  0.4940
  107MOL0     C14017   0.070   9.477   3.350 -0.2905  0.3696 -0.0982
  107MOL0     C14018   0.174   9.409   3.283 -0.0016  1.0698 -0.6644
  107MOL0     C14019   0.300   9.383   3.343  0.1578 -0.2320  1.2430
  107MOL0     C14020   0.329   9.438   3.474 -0.5897  0.8514 -0.3293
  107MOL0     C14021   0.462   9.417   3.543  0.8190 -0.6022 -1.5014
  107MOL0     O14022   0.556   9.357   3.478 -0.7989 -0.3821  1.2824
  107MOL0     C14023   0.677   9.331   3.538 -0.7905  1.2084 -0.2736
  107MOL0     C14024   0.747   9.409   3.634 -0.8098  0.0420  0.6794
  107MOL0     C14025   0.875   9.373   3.678 -0.4369  0.1716 -0.1337
  107MOL0     C14026   0.931   9.256   3.633  0.2039  0.2504 -1.3185
  107MOL0     O14027   1.065   9.232   3.666 -1.0539 -0.1191 -0.2951
  107MOL0     C14028   1.128   9.296   3.785  0.4147  0.0947  0.1024
  107MOL0     C14029   1.230   9.211   3.834  0.5339  1.0346 -0.1216
  107MOL0     C14030   1.325   9.163   3.733  0.0372 -0.5980  0.1044
  107MOL0     C14031   1.441   9.081   3.786  0.2098  0.2161 -0.1242
  107MOL0     C14032   1.555   9.164   3.825  0.5504 -0.8852  0.0789
  107MOL0     C14033   1.678   9.088   3.878  0.5633 -0.3798  1.3833
  107MOL0     C14034   1.800   9.129   3.798  0.8476 -0.0085  0.2822
  107MOL0     C14035   1.810   9.045   3.671 -0.2611 -0.1283 -0.5054
  107MOL0    Cl14036   1.872   8.878   3.707 -0.0672  0.0911  0.3783
  107MOL0     C14037   0.869   9.176   3.544  0.3573  0.1300 -0.1100
  107MOL0     C14038   0.736   9.208   3.498 -0.3700 -0.2296 -0.2689
  107MOL0     O14039   0.465   9.445   3.661 -0.2963  0.1980 -0.0685
  107MOL0     C14040   0.228   9.504   3.550 -0.2369 -1.0314  0.2284
  107MOL0     C14041   0.099   9.517   3.490 -0.4074  0.0863 -0.7669
  107MOL0     N14042  -0.400   9.866   2.944  0.4634 -0.2202  0.6855
  107MOL0     N14043  -0.435   9.788   2.848  0.4788  0.2854 -0.5056
  107MOL0     C14044   0.578   9.317   2.706  0.7171  0.4286  0.2076
  107MOL0     C14045   0.686   9.257   2.757  0.1235 -0.7666 -0.1643
  107MOL0     C14046   1.074   9.039   2.811  0.5875  0.1493  0.0959
  107MOL0     C14047   1.199   9.091   2.785 -0.1674 -0.4148 -0.6475
  107MOL0     C14048   1.296   9.054   2.877  0.3169  0.3100 -0.3146
  107MOL0     C14049   1.274   8.961   2.973  0.0381  0.6301 -0.0899
  107MOL0     O14050   1.385   8.915   3.039  0.1586  0.1846  0.1230
  107MOL0     C14051   1.415   8.978   3.157 -0.3531 -0.2067  0.4640
  107MOL0     C14052   1.545   9.051   3.157  0.2006 -0.4839 -0.9157
  107MOL0     C14053   1.582   9.105   3.294  0.1742  0.4205  0.0126
  107MOL0     C14054   1.697   9.214   3.287 -0.5269  1.1742  0.0495
  107MOL0     C14055   1.731   9.263   3.419  0.6209 -0.4888  0.8448
  107MOL0     C14056   1.767   9.332   3.506 -1.2014  0.2937  0.1523
  107MOL0     C14057   1.152   8.904   2.993  0.7787  0.4418  0.0931
  107MOL0     C14058   1.048   8.944   2.914  0.2664 -0.4488  0.0503
  107MOL0     H14059   0.705   8.981   2.573  0.1377  0.1123  0.8800
  107MOL0     H14060   0.509   9.095   2.467  0.1705  1.6216 -0.6595
  107MOL0     H14061   0.273   9.283   2.697  2.3792  1.0970 -0.8035
  107MOL0     H14062   0.258   9.178   2.548  0.0349  1.0469 -2.9605
  107MOL0     H14063   0.069   9.312   2.594  1.9080  0.0396  4.2145
  107MOL0     H14064   0.144   9.332   2.437 -2.1703 -2.0373  0.5094
  107MOL0     H14065   0.275   9.546   2.516 -1.3135 -1.8623 -2.7630
  107MOL0     H14066   0.170   9.544   2.654 -1.0080  0.2368  0.4013
  107MOL0     H14067   0.087   9.699   2.491 -6.0985  1.6668 -2.3051
  107MOL0     H14068   0.072   9.582   2.363  1.4533  0.3969 -0.3670
  107MOL0     H14069  -0.047   9.563   2.645  2.0828  0.1316 -0.7378
  107MOL0     H14070  -0.103   9.473   2.497 -0.2178 -0.5229  0.3738
  107MOL0     H14071  -0.186   9.714   2.424 -2.3696  0.0804  0.3246
  107MOL0     H14072  -0.158   9.772   2.583 -2.3478  2.4207 -2.8268
  107MOL0     H14073  -0.377   9.726   2.531  1.0124 -0.3539  0.5110
  107MOL0     H14074  -0.349   9.562   2.508 -2.3523  1.2176 -1.2681
  107MOL0     H14075  -0.284   9.525   2.750  0.0769  0.0810  2.5417
  107MOL0     H14076  -0.457   9.573   2.720  0.9125  0.4121  0.7913
  107MOL0     H14077  -0.127   9.694   2.872  0.3182 -3.1739 -0.7186
  107MOL0     H14078  -0.218   9.998   3.096 -0.6544 -0.3793  0.7197
  107MOL0     H14079  -0.081   9.930   3.043  0.4139 -1.9586 -0.7366
  107MOL0     H14080  -0.301   9.785   3.201  2.3772 -4.7467  2.1761
  107MOL0     H14081  -0.163   9.878   3.274  0.4208  2.8178 -1.6527
  107MOL0     H14082  -0.167   9.620   3.113 -0.4996  3.6020 -4.0201
  107MOL0     H14083  -0.025   9.714   3.139 -1.0609 -2.1639 -3.0422
  107MOL0     H14084  -0.215   9.607   3.367 -0.9996  1.8302 -2.5267
  107MOL0     H14085  -0.051   9.689   3.375  0.3511  1.5829 -2.4711
  107MOL0     H14086   0.153   9.365   3.187  2.1014 -0.0995 -0.6558
  107MOL0     H14087   0.381   9.339   3.286 -1.1042  0.0075 -0.8140
  107MOL0     H14088   0.711   9.507   3.665 -1.5126  0.1294 -0.3669
  107MOL0     H14089   0.917   9.438   3.754  2.4107 -0.9160 -0.6417
  107MOL0     H14090   1.048   9.304   3.860 -1.8361 -0.3848 -2.0988
  107MOL0     H14091   1.160   9.400   3.774 -1.0008  0.2661 -3.7628
  107MOL0     H14092   1.169   9.127   3.871  0.8631  0.2377 -1.3437
  107MOL0     H14093   1.282   9.256   3.919  0.3191  1.8928 -0.4350
  107MOL0     H14094   1.373   9.253   3.693 -1.6329  1.2603  2.0214
  107MOL0     H14095   1.268   9.118   3.651  0.0728 -0.3972 -0.0326
  107MOL0     H14096   1.397   9.034   3.875 -1.0400  0.2729 -0.6834
  107MOL0     H14097   1.452   8.998   3.716 -2.0232 -3.4503  3.4088
  107MOL0     H14098   1.526   9.245   3.892  1.2130  1.8376 -2.7107
  107MOL0     H14099   1.580   9.222   3.735 -2.1701  2.6103  1.3639
  107MOL0     H14100   1.660   8.981   3.870 -3.1116  0.2137 -0.7881
  107MOL0     H14101   1.699   9.107   3.984  4.6455  3.3472  0.2274
  107MOL0     H14102   1.801   9.237   3.782 -0.2467 -0.1746 -1.1556
  107MOL0     H14103   1.892   9.105   3.851 -0.0706 -0.9254  1.5256
  107MOL0     H14104   1.888   9.086   3.606 -0.8773  1.0712 -0.5035
  107MOL0     H14105   1.711   9.047   3.623  0.2697 -1.4116 -1.7275
  107MOL0     H14106   0.912   9.081   3.515 -1.0625 -0.7702  0.6716
  107MOL0     H14107   0.694   9.130   3.435  3.4133 -2.0851 -0.7739
  107MOL0     H14108   0.243   9.533   3.653 -1.3971 -1.0253  0.4079
  107MOL0     H14109   0.033   9.566   3.561  3.0360  0.2942  2.5982
  107MOL0     H14110   0.532   9.414   2.725 -1.2744  0.1809 -2.7021
  107MOL0     H14111   0.735   9.318   2.832  0.9874  0.2180 -1.4787
  107MOL0     H14112   1.221   9.166   2.710  1.1448 -0.2449 -0.1140
  107MOL0     H14113   1.394   9.096   2.855  1.3414 -2.0404 -0.5310
  107MOL0     H14114   1.420   8.899   3.232  0.6753  0.2860  0.9305
  107MOL0     H14115   1.343   9.059   3.178  1.6302  3.0071 -3.5309
  107MOL0     H14116   1.621   8.983   3.118  2.8964  2.1274 -0.5684
  107MOL0     H14117   1.552   9.130   3.081 -0.4643 -2.2836 -2.9564
  107MOL0     H14118   1.619   9.025   3.358 -0.1799  0.2563  0.0109
  107MOL0     H14119   1.496   9.155   3.339  0.3182  1.7186 -1.0778
  107MOL0     H14120   1.787   9.162   3.253 -1.3907 -2.0098  2.1713
  107MOL0     H14121   1.674   9.293   3.215  2.1735  0.7992 -1.3551
  107MOL0     H14122   1.814   9.396   3.578 -2.4815  0.2616  1.0513
  107MOL0     H14123   1.136   8.826   3.067  1.3603 -0.5558 -0.7988
  107MOL0     H14124   0.946   8.909   2.920  0.0647  0.3391  1.4903
  108MOL0     O14125   2.022  11.406   1.420 -0.1119  0.6225 -0.1719
  108MOL0     C14126   2.051  11.439   1.309  0.5069 -0.7213 -0.4764
  108MOL0     O14127   2.176  11.478   1.272 -0.5881  0.1138 -0.0904
  108MOL0     C14128   2.282  11.455   1.360 -0.5889  0.0159 -0.6751
  108MOL0     C14129   2.314  11.321   1.404  1.3882  0.4103  1.1152
  108MOL0     C14130   2.416  11.297   1.495 -0.3814  0.4489 -0.0573
  108MOL0     C14131   2.494  11.407   1.547  0.5811  0.4440 -0.7720
  108MOL0     O14132   2.589  11.397   1.651  0.6245  0.6264  0.0197
  108MOL0     C14133   2.719  11.334   1.617 -1.3043 -0.6760 -0.3167
  108MOL0     C14134   2.816  11.407   1.526 -0.7893 -0.2789 -0.4577
  108MOL0     C14135   2.936  11.328   1.475 -0.2904 -0.0647 -0.8517
  108MOL0     C14136   3.057  11.410   1.418  0.4685 -0.1383  0.1334
  108MOL0     C14137   3.176  11.319   1.396  0.1023  0.3748 -0.4474
  108MOL0     C14138   3.294  11.383   1.313  0.4935 -0.4048 -0.7025
  108MOL0     C14139   3.427  11.317   1.340 -1.3136 -0.4212 -0.6964
  108MOL0     C14140   3.531  11.362   1.244 -0.3845 -0.0606  0.1977
  108MOL0     N14141   3.663  11.325   1.278  0.1483 -0.6421  0.7554
  108MOL0     C14142   3.744  11.415   1.333  0.0598 -0.1770  0.5360
  108MOL0     C14143   3.853  11.348   1.365  0.3543 -0.2087  0.8686
  108MOL0     C14144   3.970  11.410   1.438  1.7187 -0.5483  0.2584
  108MOL0     C14145   4.025  11.533   1.372  0.4269  0.4662 -0.0125
  108MOL0     C14146   4.115  11.483   1.259  0.4628  0.2610 -0.9759
  108MOL0     C14147   4.194  11.596   1.192 -0.1202  0.5824 -0.4982
  108MOL0     O14148   4.282  11.551   1.087  0.5770 -0.5179  0.1475
  108MOL0     C14149   4.380  11.630   1.045  0.6802 -0.2497  0.9371
  108MOL0     C14150   4.347  11.738   0.960  0.6475  0.3021  0.6014
  108MOL0     C14151   4.437  11.826   0.901 -0.0075 -0.0264  0.2407
  108MOL0     C14152   4.562  11.827   0.965 -0.0580 -0.3881  1.4592
  108MOL0     C14153   4.661  11.928   0.915 -1.0741 -0.1597 -0.7020
  108MOL0     O14154   4.634  11.983   0.801 -0.0738  0.3238 -0.9624
  108MOL0     C14155   4.713  12.081   0.735 -0.3288 -0.7145  0.1274
  108MOL0     C14156   4.845  12.119   0.762  0.0193 -0.4892  0.1852
  108MOL0     C14157   4.910  12.227   0.697  0.0314  0.0741 -0.1128
  108MOL0     C14158   4.849  12.298   0.592 -0.1160 -0.5463 -0.6361
  108MOL0     O14159   4.914  12.408   0.552 -0.1473 -0.4490 -0.4579
  108MOL0     C14160   4.828  12.513   0.520 -0.9771 -0.5624 -0.3840
  108MOL0     C14161   4.921  12.623   0.463  0.4331  0.2225  0.4514
  108MOL0     C14162   4.827  12.754   0.443 -0.1571  0.0058 -0.0092
  108MOL0     C14163   4.913  12.874   0.406 -0.2989  0.5464 -0.2589
  108MOL0     C14164   5.038  12.900   0.506 -0.6089  0.0482 -0.0078
  108MOL0     C14165   5.132  13.018   0.497 -0.5216  1.0807  0.4625
  108MOL0     C14166   5.192  13.039   0.357 -0.2362 -0.6731  0.4239
  108MOL0     C14167   5.264  13.178   0.352 -0.2855 -0.2802 -0.4853
  108MOL0    Cl14168   5.397  13.185   0.465  0.3313  0.1407 -0.3301
  108MOL0     C14169   4.727  12.251   0.548 -0.3142  0.4244  0.4357
  108MOL0     C14170   4.660  12.148   0.625  0.4758  0.7881  0.2578
  108MOL0     O14171   4.751  11.966   0.992  0.4222  0.4622  0.0763
  108MOL0     C14172   4.600  11.729   1.069 -0.0502 -0.6867  0.7025
  108MOL0     C14173   4.507  11.632   1.104 -0.1894  0.4576 -0.1612
  108MOL0     N14174   3.845  11.214   1.322  0.2016  0.3442 -0.8736
  108MOL0     N14175   3.723  11.207   1.273 -0.3310  0.6239  0.9013
  108MOL0     C14176   2.468  11.529   1.504  0.5723 -0.4945  0.6233
  108MOL0     C14177   2.359  11.558   1.416 -0.5599  0.0311  0.5067
  108MOL0     C14178   1.932  11.441   1.210  0.1819  0.0140 -1.4531
  108MOL0     C14179   1.953  11.475   1.078 -0.7456  0.3268  0.0251
  108MOL0     C14180   1.845  11.465   0.989  0.0490  0.7681 -0.9734
  108MOL0     C14181   1.712  11.433   1.041 -0.6520 -0.0057  0.4946
  108MOL0     O14182   1.604  11.429   0.956  0.0914  0.7729  1.1469
  108MOL0     C14183   1.494  11.512   0.990 -0.3752  0.6502  0.7959
  108MOL0     C14184   1.511  11.642   0.914  0.7657  0.6494  0.3163
  108MOL0     C14185   1.476  11.618   0.766 -0.0154 -0.0389  0.1179
  108MOL0     C14186   1.539  11.716   0.674 -0.0354 -0.1969 -0.5756
  108MOL0     C14187   1.483  11.856   0.686 -0.1985  0.0840 -0.5600
  108MOL0     C14188   1.448  11.968   0.685 -0.6089 -0.6829  0.5005
  108MOL0     C14189   1.689  11.407   1.174  0.3521  0.2245  0.1037
  108MOL0     C14190   1.805  11.403   1.259  0.3344 -0.7236 -0.3293
  108MOL0     H14191   2.265  11.235   1.359  0.0903  1.5138  0.3189
  108MOL0     H14192   2.440  11.194   1.516 -1.5196  0.0705 -0.5625
  108MOL0     H14193   2.712  11.233   1.575  1.3618 -0.1733 -2.2009
  108MOL0     H14194   2.773  11.323   1.711 -0.0700 -2.9598 -1.2111
  108MOL0     H14195   2.857  11.494   1.577  0.5041  1.1831 -3.7353
  108MOL0     H14196   2.758  11.446   1.441  2.2184  3.0430 -1.2278
  108MOL0     H14197   2.900  11.248   1.409  1.9528 -1.6346 -0.2846
  108MOL0     H14198   2.982  11.267   1.554  0.8201 -0.2591 -1.6182
  108MOL0     H14199   3.022  11.456   1.325 -0.2630  3.5662  2.0768
  108MOL0     H14200   3.073  11.492   1.487 -0.2725 -0.7387  1.0448
  108MOL0     H14201   3.143  11.228   1.346 -0.6983 -0.9337  2.3016
  108MOL0     H14202   3.211  11.294   1.497 -0.8244  1.1748  0.0859
  108MOL0     H14203   3.307  11.491   1.322 -1.0991 -0.0877 -1.7020
  108MOL0     H14204   3.267  11.364   1.208 -0.4737  0.8586 -0.7204
  108MOL0     H14205   3.457  11.342   1.442 -3.9553  2.2577 -0.4548
  108MOL0     H14206   3.422  11.207   1.343  0.5714 -0.5711 -1.6301
  108MOL0     H14207   3.515  11.470   1.233  1.8667  0.1887 -1.1805
  108MOL0     H14208   3.498  11.315   1.151 -1.8140  1.3822 -0.0649
  108MOL0     H14209   3.702  11.514   1.349  2.2494  0.7457  0.9075
  108MOL0     H14210   4.048  11.338   1.467  0.9359 -1.2296  0.7153
  108MOL0     H14211   3.929  11.446   1.532  2.6747  0.6411  0.2399
  108MOL0     H14212   4.087  11.597   1.437  0.5624  1.5645 -1.1857
  108MOL0     H14213   3.948  11.600   1.332  2.8061  1.4292 -3.4225
  108MOL0     H14214   4.182  11.405   1.295 -0.7043 -1.2160 -1.9132
  108MOL0     H14215   4.050  11.442   1.181  0.2656 -3.2516  0.8635
  108MOL0     H14216   4.260  11.636   1.269  1.4993 -2.5107 -0.1207
  108MOL0     H14217   4.126  11.673   1.154 -3.1679 -1.0739  1.1829
  108MOL0     H14218   4.244  11.742   0.925  0.8677 -2.7745 -0.7917
  108MOL0     H14219   4.409  11.890   0.818  1.0423 -0.8692 -0.7762
  108MOL0     H14220   4.908  12.075   0.839 -0.1331 -1.3531 -0.1630
  108MOL0     H14221   5.008  12.262   0.726 -0.2285  1.4145 -0.7840
  108MOL0     H14222   4.778  12.555   0.608  1.5493  1.8374  0.0717
  108MOL0     H14223   4.761  12.490   0.437 -2.7501 -1.3353  1.1946
  108MOL0     H14224   4.975  12.581   0.378 -0.0598 -1.7340  1.0656
  108MOL0     H14225   4.996  12.657   0.536  1.8275  1.8674 -1.6163
  108MOL0     H14226   4.776  12.770   0.539 -1.6869  0.6360 -0.9062
  108MOL0     H14227   4.751  12.748   0.365  2.6766 -1.3635 -2.9187
  108MOL0     H14228   4.947  12.867   0.302 -0.0510 -0.5221 -0.1151
  108MOL0     H14229   4.858  12.969   0.405  0.3099  0.9078 -0.4378
  108MOL0     H14230   5.113  12.822   0.498 -0.6305  0.1055 -0.9125
  108MOL0     H14231   4.993  12.892   0.605 -0.9568 -3.6039 -0.3159
  108MOL0     H14232   5.208  13.012   0.575  0.7702  3.2190 -0.5408
  108MOL0     H14233   5.078  13.111   0.512 -1.0986  1.7928 -4.4158
  108MOL0     H14234   5.265  12.958   0.349  1.6856  1.0840 -0.7717
  108MOL0     H14235   5.116  13.055   0.280  1.6268  1.2006 -1.1650
  108MOL0     H14236   5.204  13.268   0.372  2.5648  1.6502 -0.0291
  108MOL0     H14237   5.304  13.197   0.252 -0.4016  3.2639  0.0081
  108MOL0     H14238   4.671  12.292   0.465 -1.8258 -1.5914  0.3842
  108MOL0     H14239   4.568  12.108   0.583 -0.5086  0.6388  2.4486
  108MOL0     H14240   4.699  11.719   1.112 -0.5844  0.3559  2.2678
  108MOL0     H14241   4.522  11.562   1.186  1.7343  2.0202  0.9138
  108MOL0     H14242   2.538  11.598   1.551 -0.8386  2.1503 -0.9388
  108MOL0     H14243   2.344  11.663   1.391  4.8293  0.3878 -2.6012
  108MOL0     H14244   2.048  11.516   1.047 -1.8671  1.5289 -2.0308
  108MOL0     H14245   1.866  11.491   0.886  1.3083  1.9752 -0.4334
  108MOL0     H14246   1.490  11.532   1.097 -0.1092 -1.5579  1.2595
  108MOL0     H14247   1.402  11.459   0.960  0.8632 -0.7652 -0.7105
  108MOL0     H14248   1.437  11.713   0.952 -1.0987 -0.0741 -1.7214
  108MOL0     H14249   1.610  11.686   0.927  0.8658  0.6048 -0.2428
  108MOL0     H14250   1.367  11.623   0.759 -0.6280 -4.3059  2.8742
  108MOL0     H14251   1.503  11.516   0.738 -2.6638 -2.4672  5.1275
  108MOL0     H14252   1.642  11.736   0.702 -0.2591  1.3339 -0.7595
  108MOL0     H14253   1.529  11.671   0.575  1.3694 -3.9349  0.7944
  108MOL0     H14254   1.405  12.065   0.671  0.9991 -0.3025 -2.9126
  108MOL0     H14255   1.589  11.394   1.213  0.8033  0.2500  1.3247
  108MOL0     H14256   1.788  11.378   1.364 -2.4975 -2.7776 -1.1600
  109MOL0     O14257   6.407   7.688   3.347 -0.3086  0.5021 -0.5053
  109MOL0     C14258   6.352   7.577   3.355 -0.3056  0.4270 -1.0177
  109MOL0     O14259   6.278   7.516   3.251 -0.0736  0.3656 -0.0883
  109MOL0     C14260   6.252   7.578   3.130  0.2129 -0.4625  0.3985
  109MOL0     C14261   6.134   7.649   3.097 -0.5964  0.2386 -0.5382
  109MOL0     C14262   6.121   7.699   2.962 -0.7664 -0.6143  0.0775
  109MOL0     C14263   6.232   7.699   2.870  1.0423  0.0718 -0.5638
  109MOL0     O14264   6.221   7.772   2.753  0.3421  0.2554 -0.0476
  109MOL0     C14265   6.346   7.843   2.704  1.3910  0.5071 -0.3539
  109MOL0     C14266   6.298   7.939   2.587  0.5265 -1.2851  0.7921
  109MOL0     C14267   6.204   7.867   2.483  0.7439 -0.1874  0.4511
  109MOL0     C14268   6.163   7.956   2.358  0.4349  0.3601 -0.4122
  109MOL0     C14269   6.106   7.856   2.252  0.9311 -0.6994 -0.9568
  109MOL0     C14270   6.102   7.934   2.116  0.0949  0.4318 -0.3129
  109MOL0     C14271   6.035   7.849   2.006 -0.7981 -0.9528 -0.7029
  109MOL0     C14272   6.016   7.931   1.888  0.1698 -0.4703  0.4951
  109MOL0     N14273   6.145   7.926   1.821 -0.4108 -0.1137  0.9663
  109MOL0     C14274   6.194   7.825   1.744 -0.2660 -0.2923 -0.0710
  109MOL0     C14275   6.317   7.864   1.703 -0.5795  0.0665  0.2866
  109MOL0     C14276   6.418   7.777   1.626  0.5754  0.2030 -0.1815
  109MOL0     C14277   6.356   7.674   1.535 -0.3297 -0.5537 -0.7554
  109MOL0     C14278   6.294   7.743   1.413 -0.4275 -0.2787  1.2559
  109MOL0     C14279   6.271   7.668   1.286  0.4667  0.0146  0.4110
  109MOL0     O14280   6.200   7.542   1.306  0.4605  0.0914  0.0260
  109MOL0     C14281   6.059   7.525   1.282 -0.0230  0.2366  1.0047
  109MOL0     C14282   5.982   7.639   1.239 -0.1534  0.0735  0.1583
  109MOL0     C14283   5.845   7.624   1.225 -0.1338  0.3321  0.3453
  109MOL0     C14284   5.778   7.510   1.271 -0.1375 -0.1028  0.5131
  109MOL0     C14285   5.630   7.497   1.251 -1.2215  0.0702 -0.6015
  109MOL0     O14286   5.586   7.367   1.228 -0.4278  0.1687  0.5798
  109MOL0     C14287   5.462   7.353   1.155 -0.5603 -0.5162  0.6921
  109MOL0     C14288   5.405   7.439   1.062 -0.8665 -0.7674 -0.2586
  109MOL0     C14289   5.282   7.419   1.003 -1.0415  0.4535 -0.2071
  109MOL0     C14290   5.210   7.306   1.035 -0.2902 -0.6174 -0.5740
  109MOL0     O14291   5.093   7.294   0.968  0.2712 -0.2695  0.1314
  109MOL0     C14292   4.987   7.201   1.002 -0.3978  0.0163 -0.0113
  109MOL0     C14293   4.876   7.240   0.890 -0.5986  0.7432 -0.2916
  109MOL0     C14294   4.824   7.376   0.918  0.7056 -0.6756  0.2272
  109MOL0     C14295   4.695   7.405   0.836 -0.0422 -1.0569  0.2696
  109MOL0     C14296   4.693   7.550   0.786  0.1329  0.4192  0.1059
  109MOL0     C14297   4.566   7.588   0.715 -0.1762  1.2721  0.2247
  109MOL0     C14298   4.444   7.592   0.807 -0.0009  0.5293 -0.4753
  109MOL0     C14299   4.453   7.687   0.935 -0.1566  0.8437 -0.1764
  109MOL0    Cl14300   4.528   7.835   0.891  0.2340 -0.5102  0.0294
  109MOL0     C14301   5.264   7.212   1.127 -1.0466  0.9000  0.2234
  109MOL0     C14302   5.390   7.232   1.181  0.3386 -0.5042  0.1302
  109MOL0     O14303   5.563   7.595   1.257 -0.4089 -0.3167 -0.4082
  109MOL0     C14304   5.854   7.407   1.318  0.4402  0.3951  0.5210
  109MOL0     C14305   5.992   7.410   1.319 -0.3612  0.8617  0.8262
  109MOL0     N14306   6.342   7.991   1.768 -0.8153  0.8949  0.4085
  109MOL0     N14307   6.238   8.029   1.831 -0.2856 -0.2044 -0.9709
  109MOL0     C14308   6.354   7.631   2.906  0.3097  0.2536 -0.3179
  109MOL0     C14309   6.356   7.577   3.035 -0.6071 -1.6027  0.3391
  109MOL0     C14310   6.360   7.498   3.471 -0.9197 -0.1410 -0.6533
  109MOL0     C14311   6.444   7.550   3.576  0.2794  1.0549 -0.3342
  109MOL0     C14312   6.477   7.472   3.685 -0.3392  0.4991  0.0565
  109MOL0     C14313   6.420   7.344   3.696  0.0552  0.1256 -0.2633
  109MOL0     O14314   6.433   7.274   3.817 -0.1325 -0.4991  0.8010
  109MOL0     C14315   6.575   7.260   3.857  1.2752 -0.8148 -0.1733
  109MOL0     C14316   6.607   7.109   3.893 -0.0484 -0.2618 -0.2944
  109MOL0     C14317   6.533   7.067   4.022  0.1140  1.4970  0.2424
  109MOL0     C14318   6.557   6.910   4.034 -0.3100  0.5296  0.1874
  109MOL0     C14319   6.503   6.864   4.169 -0.2991  0.0632 -0.2703
  109MOL0     C14320   6.455   6.837   4.274  0.3073 -0.3517  0.0916
  109MOL0     C14321   6.339   7.295   3.590 -0.8417 -0.2899  1.2458
  109MOL0     C14322   6.311   7.372   3.479  0.4283 -0.5557 -0.4267
  109MOL0     H14323   6.044   7.649   3.157 -0.2547  2.2447  0.0465
  109MOL0     H14324   6.025   7.736   2.928 -1.5914 -2.2430  0.5483
  109MOL0     H14325   6.406   7.758   2.672  1.6082  0.5797 -0.1434
  109MOL0     H14326   6.392   7.897   2.787  4.0340 -2.3937  0.2846
  109MOL0     H14327   6.380   7.999   2.547 -0.9664  2.0846  2.3156
  109MOL0     H14328   6.238   8.020   2.630 -1.5154 -1.2972 -1.8410
  109MOL0     H14329   6.112   7.834   2.533  0.4963  2.3971  1.8726
  109MOL0     H14330   6.247   7.773   2.446  0.9750  0.0513  0.1081
  109MOL0     H14331   6.091   8.032   2.390  1.2476  0.6598  0.7557
  109MOL0     H14332   6.245   8.007   2.308  1.0197 -0.9493 -0.8348
  109MOL0     H14333   6.015   7.828   2.306  1.4479  2.6689  2.0794
  109MOL0     H14334   6.169   7.767   2.237  1.9994 -0.3127  0.8435
  109MOL0     H14335   6.203   7.969   2.090  0.5973 -1.3387 -0.9066
  109MOL0     H14336   6.045   8.026   2.128 -1.1875 -0.2423 -1.0694
  109MOL0     H14337   6.091   7.760   1.976  0.8550 -0.1907 -0.0086
  109MOL0     H14338   5.937   7.814   2.040 -0.5918  1.5594  3.1329
  109MOL0     H14339   5.980   8.033   1.903  1.1870  0.1951 -1.3108
  109MOL0     H14340   5.955   7.879   1.813 -0.0267  2.4601 -1.5571
  109MOL0     H14341   6.144   7.734   1.710 -2.4187  2.4699 -5.5864
  109MOL0     H14342   6.487   7.727   1.694  2.2954 -0.6375 -2.3803
  109MOL0     H14343   6.488   7.839   1.567  1.1829  1.3735  1.6890
  109MOL0     H14344   6.287   7.610   1.589 -0.1954  2.6344  3.8056
  109MOL0     H14345   6.441   7.608   1.513  0.2420 -0.4480  0.9438
  109MOL0     H14346   6.196   7.781   1.444 -0.5966  1.2595 -0.8944
  109MOL0     H14347   6.357   7.826   1.379  1.1504 -2.2599 -0.9258
  109MOL0     H14348   6.370   7.653   1.244  0.3839  3.1108 -1.1876
  109MOL0     H14349   6.222   7.742   1.223  1.2930 -0.2887 -0.6093
  109MOL0     H14350   6.019   7.738   1.214 -1.2471  0.3669 -0.3399
  109MOL0     H14351   5.789   7.708   1.185  0.1445  1.3579  1.9871
  109MOL0     H14352   5.458   7.530   1.038 -0.1495 -0.7161  1.3728
  109MOL0     H14353   5.237   7.481   0.927  1.4968  0.9890 -1.3393
  109MOL0     H14354   4.941   7.220   1.099 -1.9113  1.1155 -0.8951
  109MOL0     H14355   5.027   7.099   0.998  1.7619  0.8414 -0.3861
  109MOL0     H14356   4.795   7.168   0.906  0.9461 -0.4780  3.1837
  109MOL0     H14357   4.906   7.230   0.786  1.0477 -1.8756  0.3298
  109MOL0     H14358   4.894   7.451   0.879  0.3734  0.1710  1.2043
  109MOL0     H14359   4.797   7.386   1.024 -0.5603  0.0976 -0.1463
  109MOL0     H14360   4.690   7.343   0.745  1.5228  0.3655 -0.8490
  109MOL0     H14361   4.602   7.389   0.891 -1.7310  0.1384 -2.0606
  109MOL0     H14362   4.788   7.571   0.734  1.0027  0.9985  1.8551
  109MOL0     H14363   4.708   7.612   0.875 -0.3330  3.9703 -2.0937
  109MOL0     H14364   4.552   7.516   0.633  1.1872 -1.7426  2.4402
  109MOL0     H14365   4.573   7.686   0.668 -3.6848  2.3630  1.6191
  109MOL0     H14366   4.356   7.630   0.754 -0.7854  0.8790  1.0212
  109MOL0     H14367   4.422   7.488   0.833 -1.4442 -0.2957 -4.2847
  109MOL0     H14368   4.520   7.632   1.001  2.1297  1.3823 -1.9083
  109MOL0     H14369   4.350   7.707   0.964  0.8631  2.0978  3.0116
  109MOL0     H14370   5.210   7.119   1.144  3.5087 -1.9148  1.1561
  109MOL0     H14371   5.421   7.157   1.254 -1.6614  0.9024  2.5930
  109MOL0     H14372   5.800   7.320   1.354  3.8933 -3.1240 -1.8380
  109MOL0     H14373   6.054   7.331   1.361  1.0565  0.5599 -1.6250
  109MOL0     H14374   6.443   7.657   2.849  1.9676 -2.0444  1.0734
  109MOL0     H14375   6.447   7.531   3.073  2.0617  1.2716 -2.0172
  109MOL0     H14376   6.482   7.651   3.564 -0.6243  1.2158 -2.3520
  109MOL0     H14377   6.534   7.498   3.774  0.7889  0.3915 -0.6177
  109MOL0     H14378   6.591   7.319   3.948  2.1411 -1.1652 -0.0888
  109MOL0     H14379   6.635   7.297   3.774 -2.1646  2.3066 -1.5249
  109MOL0     H14380   6.588   7.057   3.799  2.3973  2.1870 -2.2877
  109MOL0     H14381   6.714   7.091   3.908  0.3437 -0.6166 -3.0293
  109MOL0     H14382   6.428   7.095   4.017  0.7852  4.1247 -0.2330
  109MOL0     H14383   6.583   7.119   4.105 -3.1034  4.0932  0.7610
  109MOL0     H14384   6.518   6.854   3.948 -1.1804 -0.1561  1.0019
  109MOL0     H14385   6.664   6.888   4.039 -0.0993  1.0905 -1.4967
  109MOL0     H14386   6.403   6.807   4.363 -1.5726  2.4807  0.0507
  109MOL0     H14387   6.279   7.205   3.597 -1.8375  0.4079  1.9710
  109MOL0     H14388   6.262   7.326   3.394  0.2211  3.4054 -2.7317
  110MOL0     O14389   2.132   4.725   4.594  0.1659 -0.0447 -0.9224
  110MOL0     C14390   2.099   4.611   4.567 -0.2019 -0.3697 -0.1838
  110MOL0     O14391   2.087   4.562   4.438 -0.4142 -0.0848  0.5142
  110MOL0     C14392   2.132   4.642   4.328  0.2076  1.0200 -1.2115
  110MOL0     C14393   2.048   4.739   4.281  0.3099  0.0589 -0.6738
  110MOL0     C14394   2.078   4.796   4.153 -1.2276 -0.5826 -0.3786
  110MOL0     C14395   2.192   4.758   4.078  0.4052 -0.8763  0.3134
  110MOL0     O14396   2.205   4.815   3.956  0.1056 -0.0683 -0.2330
  110MOL0     C14397   2.257   4.728   3.846  0.3488 -0.6859 -0.5199
  110MOL0     C14398   2.174   4.704   3.718 -0.8649  0.5796  0.6088
  110MOL0     C14399   2.261   4.650   3.603  1.4416  0.6790 -0.5772
  110MOL0     C14400   2.159   4.626   3.489 -0.5886 -0.5745  0.2556
  110MOL0     C14401   2.078   4.744   3.444 -0.1053  0.0763 -1.1271
  110MOL0     C14402   2.070   4.769   3.297  0.5700 -0.0813 -0.2915
  110MOL0     C14403   1.985   4.893   3.249  0.4135  0.6070 -0.8542
  110MOL0     C14404   1.995   4.908   3.104  0.4530  0.3189 -0.4909
  110MOL0     N14405   2.115   4.981   3.060 -0.0109  0.3093 -0.1160
  110MOL0     C14406   2.142   5.117   3.091  0.1574 -0.2572 -0.0874
  110MOL0     C14407   2.228   5.152   2.999 -0.2274 -0.3129 -0.1216
  110MOL0     C14408   2.294   5.296   2.978 -0.1294  1.8187  1.1931
  110MOL0     C14409   2.332   5.364   3.111 -0.1397  0.5201 -0.3418
  110MOL0     C14410   2.383   5.507   3.099 -1.2324 -0.8511  0.3651
  110MOL0     C14411   2.464   5.551   2.968  0.7992 -0.9239 -0.6188
  110MOL0     O14412   2.358   5.593   2.876 -0.0293  0.3737  0.8526
  110MOL0     C14413   2.399   5.628   2.751 -0.0684 -0.0593  0.6072
  110MOL0     C14414   2.534   5.654   2.711 -0.1486  0.0943  0.6822
  110MOL0     C14415   2.563   5.700   2.585 -0.8950  0.7365  0.1769
  110MOL0     C14416   2.463   5.717   2.492  0.3351 -0.2509 -0.2216
  110MOL0     C14417   2.482   5.773   2.353  0.9123 -0.5299 -0.6831
  110MOL0     O14418   2.378   5.790   2.266 -0.0399  0.0258  0.3054
  110MOL0     C14419   2.392   5.899   2.176 -0.4663  0.0926 -0.2249
  110MOL0     C14420   2.392   6.029   2.222 -0.0670 -1.2378 -0.7237
  110MOL0     C14421   2.429   6.145   2.134 -0.0971 -0.5828 -0.9715
  110MOL0     C14422   2.460   6.110   2.007  0.3341  0.3950 -0.3734
  110MOL0     O14423   2.482   6.211   1.913  0.0978 -0.0204  0.1415
  110MOL0     C14424   2.611   6.193   1.859 -0.6026  0.1107 -0.0565
  110MOL0     C14425   2.642   6.260   1.729 -0.2568 -0.1485  0.8532
  110MOL0     C14426   2.620   6.413   1.756  0.6201  0.1748 -0.2257
  110MOL0     C14427   2.641   6.493   1.626 -0.1294 -0.5222  0.3217
  110MOL0     C14428   2.618   6.644   1.647  0.4234  0.1398  0.3260
  110MOL0     C14429   2.467   6.672   1.682  0.4910  0.3803  0.3148
  110MOL0     C14430   2.446   6.826   1.685  0.6546  0.3583  0.2626
  110MOL0     C14431   2.432   6.883   1.828 -0.2146 -0.3657  0.7739
  110MOL0    Cl14432   2.269   6.853   1.893 -0.3742 -0.3109 -0.4475
  110MOL0     C14433   2.446   5.972   1.962 -0.6315 -0.6235 -0.4306
  110MOL0     C14434   2.423   5.870   2.048 -0.2683 -0.0358  0.5271
  110MOL0     O14435   2.592   5.813   2.329 -0.4709  0.1330  0.4163
  110MOL0     C14436   2.331   5.698   2.534 -0.1844  0.9014  0.0972
  110MOL0     C14437   2.295   5.657   2.660  0.0804 -0.6438  0.3019
  110MOL0     N14438   2.260   5.039   2.918  1.1321 -0.7803 -0.3299
  110MOL0     N14439   2.180   4.945   2.958 -0.1832 -0.0289 -0.3023
  110MOL0     C14440   2.286   4.666   4.138  0.2417 -0.4591  0.4947
  110MOL0     C14441   2.248   4.605   4.259  0.6469 -0.1762  0.4612
  110MOL0     C14442   2.071   4.519   4.679  0.0954 -0.4750  0.6157
  110MOL0     C14443   1.974   4.418   4.662 -0.5421 -1.3271 -0.4841
  110MOL0     C14444   1.956   4.325   4.764  0.0988 -0.1452 -0.6916
  110MOL0     C14445   2.024   4.332   4.894 -0.1222  0.8372 -0.0801
  110MOL0     O14446   2.015   4.231   4.995 -0.4332 -0.3695  0.8760
  110MOL0     C14447   1.898   4.147   4.997 -0.3897 -0.2754 -0.3212
  110MOL0     C14448   1.910   4.017   4.920 -0.2352 -0.0288  0.0697
  110MOL0     C14449   1.778   3.949   4.935 -0.0794  0.1344  0.7512
  110MOL0     C14450   1.736   3.868   4.808 -0.2725 -0.3449 -0.6016
  110MOL0     C14451   1.598   3.820   4.824 -0.3534 -1.2096 -0.1110
  110MOL0     C14452   1.483   3.766   4.820  1.1129  0.3186 -0.5537
  110MOL0     C14453   2.126   4.435   4.896 -0.5645  0.4868 -0.2515
  110MOL0     C14454   2.151   4.520   4.789 -0.6104  0.4078 -0.7018
  110MOL0     H14455   1.955   4.765   4.331  0.6003  0.3357 -0.2694
  110MOL0     H14456   2.015   4.879   4.123 -0.8207 -1.0865 -2.9143
  110MOL0     H14457   2.274   4.630   3.893 -0.4098  0.5516  2.5459
  110MOL0     H14458   2.351   4.773   3.812  0.2601  0.2296  0.3748
  110MOL0     H14459   2.138   4.807   3.703  1.7340  1.9182  2.6046
  110MOL0     H14460   2.094   4.632   3.737  0.5599 -1.5458 -1.0187
  110MOL0     H14461   2.300   4.552   3.630  0.8069  0.6880  0.4628
  110MOL0     H14462   2.348   4.711   3.579  0.9845  1.6494  0.1403
  110MOL0     H14463   2.214   4.579   3.407 -0.4663 -3.6448  1.9577
  110MOL0     H14464   2.084   4.548   3.504 -1.0539 -0.0415  0.7614
  110MOL0     H14465   2.122   4.835   3.486  0.8867 -1.1046  0.4739
  110MOL0     H14466   1.977   4.748   3.484 -0.1591  5.4372 -1.0939
  110MOL0     H14467   2.021   4.687   3.244  1.5746  0.6739 -2.5270
  110MOL0     H14468   2.168   4.777   3.250  1.4763 -1.3208  1.3045
  110MOL0     H14469   1.878   4.882   3.271  0.7916 -3.0461 -0.1311
  110MOL0     H14470   2.023   4.985   3.294  1.0074 -0.2077  0.3780
  110MOL0     H14471   1.909   4.959   3.060 -0.9647 -0.4200  1.3054
  110MOL0     H14472   1.996   4.810   3.055  2.8625  0.2226 -0.3722
  110MOL0     H14473   2.087   5.183   3.157  2.8214 -0.0285  2.1018
  110MOL0     H14474   2.219   5.365   2.938  0.4508  1.3810 -0.7509
  110MOL0     H14475   2.370   5.280   2.901 -2.2995  0.0778 -0.7145
  110MOL0     H14476   2.414   5.295   3.133  0.7638  0.4266 -3.5629
  110MOL0     H14477   2.250   5.368   3.183 -0.4871  1.4701 -0.7759
  110MOL0     H14478   2.304   5.580   3.119 -0.4758  0.1760 -0.3072
  110MOL0     H14479   2.459   5.522   3.177  0.0083 -3.5466 -0.2021
  110MOL0     H14480   2.523   5.470   2.923  1.4259  0.3933 -2.2679
  110MOL0     H14481   2.524   5.639   2.993 -0.9492  0.1295  0.0337
  110MOL0     H14482   2.614   5.642   2.784  0.8312  1.1733 -0.1873
  110MOL0     H14483   2.667   5.725   2.566 -1.1246  2.2268  0.7184
  110MOL0     H14484   2.383   6.048   2.328  0.8279  1.0646 -0.9953
  110MOL0     H14485   2.431   6.242   2.182  1.6852  0.1083 -2.2969
  110MOL0     H14486   2.643   6.089   1.861 -0.7895  0.0401  2.1365
  110MOL0     H14487   2.676   6.246   1.929 -1.6831  2.1024 -0.4747
  110MOL0     H14488   2.559   6.239   1.662  0.2052 -2.2555  0.8589
  110MOL0     H14489   2.742   6.234   1.694 -1.0467  0.4780 -2.1590
  110MOL0     H14490   2.686   6.448   1.836  0.7952 -0.3946 -0.1110
  110MOL0     H14491   2.522   6.437   1.797  0.5131 -0.6250  0.0144
  110MOL0     H14492   2.748   6.493   1.604  0.0747  3.9127  0.2482
  110MOL0     H14493   2.590   6.458   1.536  2.2310  1.4362 -1.9318
  110MOL0     H14494   2.652   6.703   1.562 -1.6081 -2.4046 -2.4797
  110MOL0     H14495   2.680   6.678   1.730  3.3094 -0.8746 -1.2708
  110MOL0     H14496   2.444   6.620   1.775 -0.1146 -0.8602 -0.5051
  110MOL0     H14497   2.406   6.629   1.603  0.7767 -0.6552  0.6414
  110MOL0     H14498   2.535   6.872   1.642 -0.3710 -0.3942 -2.9091
  110MOL0     H14499   2.357   6.844   1.624  0.5328  1.0627  0.6418
  110MOL0     H14500   2.460   6.988   1.817  2.6299 -1.1328 -0.3739
  110MOL0     H14501   2.516   6.861   1.894  1.0510  3.1104  0.5388
  110MOL0     H14502   2.445   5.932   1.861  2.9774  0.2753 -0.9301
  110MOL0     H14503   2.411   5.768   2.013 -1.2573  1.5971 -4.7359
  110MOL0     H14504   2.249   5.710   2.463  0.1754 -4.4223 -1.6937
  110MOL0     H14505   2.191   5.655   2.688 -0.3402 -1.5044 -1.1786
  110MOL0     H14506   2.385   4.646   4.098  0.3054  0.5513  0.1300
  110MOL0     H14507   2.314   4.541   4.316  0.1989 -0.7175  0.3903
  110MOL0     H14508   1.908   4.407   4.576  0.0023 -1.0152 -0.9495
  110MOL0     H14509   1.876   4.253   4.759 -0.8414  0.5451  2.4111
  110MOL0     H14510   1.810   4.204   4.966  0.5770  1.6636  0.3496
  110MOL0     H14511   1.893   4.113   5.101  1.7217 -1.6467 -0.6009
  110MOL0     H14512   1.945   4.050   4.822 -2.6779  2.9765  0.0436
  110MOL0     H14513   1.978   3.946   4.968  0.1494  1.7432  2.3278
  110MOL0     H14514   1.698   4.021   4.953  0.5481  0.9827  0.2242
  110MOL0     H14515   1.775   3.891   5.027 -1.0385  1.1265  1.3765
  110MOL0     H14516   1.739   3.918   4.711  3.0947  2.9343  0.9211
  110MOL0     H14517   1.799   3.778   4.808 -2.0145 -1.6333 -1.6767
  110MOL0     H14518   1.399   3.700   4.821  1.9831 -0.8279 -0.5745
  110MOL0     H14519   2.199   4.425   4.976  0.9843  0.3546 -1.6232
  110MOL0     H14520   2.237   4.584   4.806  0.7988 -1.9970  2.2378
  111MOL0     O14521   8.276   9.421   3.221 -0.7242  0.5884 -0.2701
  111MOL0     C14522   8.311   9.512   3.296 -0.4681 -0.0984  0.5527
  111MOL0     O14523   8.384   9.476   3.408 -0.1528 -1.0511 -0.0263
  111MOL0     C14524   8.384   9.557   3.519  0.8836 -0.3782 -0.3208
  111MOL0     C14525   8.483   9.538   3.611  0.5806  0.0343  0.3893
  111MOL0     C14526   8.484   9.604   3.734  0.2293 -0.5372  0.0955
  111MOL0     C14527   8.380   9.696   3.775  0.8136 -0.1613  0.0280
  111MOL0     O14528   8.396   9.757   3.903 -0.2320 -0.1858  1.0866
  111MOL0     C14529   8.349   9.894   3.923  0.6817  0.3350  0.1177
  111MOL0     C14530   8.435   9.985   4.004  0.3739 -0.7301  0.5089
  111MOL0     C14531   8.528   9.910   4.098 -1.6597  0.2188  0.0946
  111MOL0     C14532   8.654  10.003   4.132 -0.3740  0.1805  0.1292
  111MOL0     C14533   8.754   9.942   4.232 -0.0196  0.0495 -0.3868
  111MOL0     C14534   8.838   9.831   4.178 -0.1428 -0.3834 -0.1169
  111MOL0     C14535   8.947   9.805   4.286  0.4917 -0.3337 -0.3180
  111MOL0     C14536   9.055   9.718   4.226 -0.4881 -0.3360 -0.9377
  111MOL0     N14537   9.048   9.590   4.284  0.2871  0.5370 -0.3663
  111MOL0     C14538   8.969   9.481   4.249 -0.5212  0.0541 -0.2096
  111MOL0     C14539   8.974   9.393   4.350 -0.9510  0.3376 -0.9324
  111MOL0     C14540   8.932   9.243   4.359  0.2365 -1.3066  0.0089
  111MOL0     C14541   8.824   9.216   4.475 -0.0975  0.0081 -0.1891
  111MOL0     C14542   8.702   9.303   4.452  0.1167 -0.4905  0.6748
  111MOL0     C14543   8.593   9.276   4.550  0.7616  0.7285 -0.1614
  111MOL0     O14544   8.456   9.308   4.499 -0.4267 -0.0642 -0.6796
  111MOL0     C14545   8.352   9.301   4.590  0.6637  0.1023 -1.0652
  111MOL0     C14546   8.240   9.373   4.565 -0.4264 -0.6208  0.6233
  111MOL0     C14547   8.123   9.372   4.639 -0.4302 -0.7635  0.2245
  111MOL0     C14548   8.119   9.277   4.747 -0.3545 -0.3577 -0.2964
  111MOL0     C14549   8.001   9.278   4.832  0.5495  0.3760  0.1200
  111MOL0     O14550   7.922   9.396   4.843  0.6999  0.0781  0.0707
  111MOL0     C14551   7.796   9.412   4.901 -0.7529  0.3737 -0.1006
  111MOL0     C14552   7.755   9.331   5.009 -0.4968 -1.3899 -0.3339
  111MOL0     C14553   7.619   9.332   5.044 -0.9144  0.0214 -0.6619
  111MOL0     C14554   7.525   9.407   4.976 -1.0865 -0.3746  0.7845
  111MOL0     O14555   7.396   9.398   5.025 -0.0858  0.1377 -0.3368
  111MOL0     C14556   7.318   9.516   5.039 -0.0682  0.3253  0.1259
  111MOL0     C14557   7.174   9.487   5.083 -0.9351  0.1708  0.2951
  111MOL0     C14558   7.076   9.597   5.064 -1.1791 -0.2805  0.1687
  111MOL0     C14559   7.083   9.702   5.169 -0.6665  0.5441 -0.0774
  111MOL0     C14560   6.991   9.680   5.282 -0.4614 -0.6142  0.1057
  111MOL0     C14561   7.050   9.746   5.404 -0.2838 -1.4965 -0.5003
  111MOL0     C14562   6.942   9.727   5.516  0.3715 -0.5197 -1.0385
  111MOL0     C14563   6.991   9.754   5.658  0.3686  0.0348 -0.1081
  111MOL0    Cl14564   6.868   9.717   5.791 -0.1697 -0.1862  0.5458
  111MOL0     C14565   7.568   9.499   4.882 -0.1220 -1.5471  0.3846
  111MOL0     C14566   7.701   9.502   4.848  0.0507  0.4046  0.9080
  111MOL0     O14567   7.996   9.180   4.913  0.9143  0.5761 -0.8965
  111MOL0     C14568   8.233   9.200   4.772  0.3168  0.2964 -0.4090
  111MOL0     C14569   8.343   9.209   4.690 -0.1576  1.1312 -0.7525
  111MOL0     N14570   9.052   9.445   4.448 -0.9265 -0.0800 -0.4704
  111MOL0     N14571   9.082   9.566   4.417 -0.2347  0.5409  0.6948
  111MOL0     C14572   8.273   9.711   3.677 -0.4718 -0.0615 -0.8422
  111MOL0     C14573   8.279   9.642   3.556 -0.0935  0.3648 -0.6695
  111MOL0     C14574   8.311   9.647   3.239  0.0053  0.5030 -0.3443
  111MOL0     C14575   8.383   9.757   3.278  0.1011 -0.2809 -0.6175
  111MOL0     C14576   8.378   9.875   3.206 -1.0176  0.2631  0.5783
  111MOL0     C14577   8.295   9.898   3.095 -0.5597 -0.5619 -0.1176
  111MOL0     O14578   8.281  10.011   3.023  0.8590 -0.8104 -0.2479
  111MOL0     C14579   8.377  10.118   3.055  0.9459 -0.0476 -0.8853
  111MOL0     C14580   8.344  10.230   2.950 -0.4574  0.1097  0.1904
  111MOL0     C14581   8.457  10.333   2.957 -0.4069 -0.3522  0.8983
  111MOL0     C14582   8.530  10.357   2.816  0.6933 -0.8376 -0.4754
  111MOL0     C14583   8.636  10.459   2.841  0.4494 -0.5782  0.8710
  111MOL0     C14584   8.727  10.538   2.858  0.0938  0.7629  0.5374
  111MOL0     C14585   8.216   9.798   3.067 -0.1093 -0.5144 -0.2372
  111MOL0     C14586   8.219   9.674   3.135 -0.9646 -0.3129  0.1330
  111MOL0     H14587   8.568   9.475   3.589  0.3165 -0.0920 -0.2761
  111MOL0     H14588   8.566   9.597   3.804 -0.6598  1.4532  1.4433
  111MOL0     H14589   8.250   9.897   3.969 -0.0152 -0.8521 -1.2158
  111MOL0     H14590   8.327   9.942   3.827 -1.6089  2.2013  1.4680
  111MOL0     H14591   8.371  10.046   4.068 -3.8398  0.0322 -3.8771
  111MOL0     H14592   8.494  10.046   3.936 -1.7028 -1.2023 -1.8595
  111MOL0     H14593   8.577   9.821   4.056 -0.8603 -0.4742  2.3415
  111MOL0     H14594   8.470   9.876   4.185 -3.0417 -0.4135 -1.0427
  111MOL0     H14595   8.710  10.022   4.040  2.1757  2.4398  1.9880
  111MOL0     H14596   8.615  10.098   4.169 -2.4166  0.3324 -2.1523
  111MOL0     H14597   8.712   9.906   4.327 -0.5424  0.9501 -0.2711
  111MOL0     H14598   8.816  10.026   4.266 -0.4374  0.8573 -1.6008
  111MOL0     H14599   8.872   9.860   4.078  0.4598 -1.5142 -0.2527
  111MOL0     H14600   8.774   9.743   4.164 -2.2764  1.1012 -0.3303
  111MOL0     H14601   8.996   9.898   4.317  1.3887 -0.7434 -0.4557
  111MOL0     H14602   8.905   9.758   4.375  2.9181 -2.2746 -0.0843
  111MOL0     H14603   9.144   9.773   4.259 -0.7072 -1.6482  2.1557
  111MOL0     H14604   9.045   9.706   4.118 -1.0219 -1.3991 -0.7821
  111MOL0     H14605   8.937   9.465   4.146 -4.4815 -0.3276  0.9041
  111MOL0     H14606   9.005   9.161   4.357 -0.5794 -2.0817  0.8810
  111MOL0     H14607   8.869   9.224   4.271  0.3979  0.9400 -0.6377
  111MOL0     H14608   8.878   9.224   4.570  1.4476 -2.5515 -0.7598
  111MOL0     H14609   8.798   9.110   4.466  0.7421 -0.1899 -0.3038
  111MOL0     H14610   8.736   9.407   4.463 -0.7460 -0.2472  1.2205
  111MOL0     H14611   8.662   9.291   4.351 -0.6221 -0.6847  0.9831
  111MOL0     H14612   8.604   9.327   4.647  1.2840  0.3529 -0.0211
  111MOL0     H14613   8.586   9.169   4.568 -0.5232 -0.0952 -4.4210
  111MOL0     H14614   8.263   9.454   4.496  4.4602 -0.0557  2.5222
  111MOL0     H14615   8.042   9.442   4.622  0.1545  0.4743  2.1445
  111MOL0     H14616   7.814   9.255   5.060  2.5042  0.2769 -1.1640
  111MOL0     H14617   7.577   9.263   5.116 -1.5628  0.1701 -0.8853
  111MOL0     H14618   7.311   9.570   4.944 -0.0173  0.4880  0.2147
  111MOL0     H14619   7.360   9.575   5.122 -2.7855  1.1820  0.9990
  111MOL0     H14620   7.170   9.460   5.188 -5.1872  1.3766  0.6183
  111MOL0     H14621   7.128   9.406   5.026 -4.0563  0.4912  2.1223
  111MOL0     H14622   6.974   9.560   5.081 -1.2176 -0.0381  0.4595
  111MOL0     H14623   7.083   9.635   4.961  1.6938 -0.8173  0.1055
  111MOL0     H14624   7.187   9.725   5.194 -0.7797  2.4357 -1.1847
  111MOL0     H14625   7.048   9.795   5.123  1.7187  0.3238 -2.5674
  111MOL0     H14626   6.972   9.574   5.301 -1.8299 -1.1826 -3.5754
  111MOL0     H14627   6.895   9.729   5.261  0.0318  0.5091  0.3973
  111MOL0     H14628   7.055   9.853   5.383  3.4232 -0.8686  2.4160
  111MOL0     H14629   7.146   9.700   5.430 -1.7416 -3.8786  1.0139
  111MOL0     H14630   6.862   9.798   5.495 -0.1915 -1.3279 -1.6718
  111MOL0     H14631   6.910   9.623   5.507 -1.0061 -0.3526  1.2741
  111MOL0     H14632   7.024   9.858   5.666 -0.0161  0.0815  1.0554
  111MOL0     H14633   7.077   9.690   5.676 -0.8732 -1.2452  1.6737
  111MOL0     H14634   7.502   9.568   4.829  2.6677  0.2861 -0.9211
  111MOL0     H14635   7.741   9.551   4.760  3.7652 -1.2520  1.4759
  111MOL0     H14636   8.249   9.121   4.845  5.1660  0.4095 -1.0506
  111MOL0     H14637   8.425   9.138   4.696  0.3055  1.0197 -4.9459
  111MOL0     H14638   8.191   9.779   3.699  0.6443  1.4338 -1.0979
  111MOL0     H14639   8.194   9.652   3.490  0.1746  1.0377 -0.9277
  111MOL0     H14640   8.450   9.762   3.363  1.8299 -2.1707 -1.7805
  111MOL0     H14641   8.435   9.963   3.234  0.5132 -0.3921 -0.3175
  111MOL0     H14642   8.481  10.084   3.051  2.0189  2.8903 -0.5096
  111MOL0     H14643   8.356  10.152   3.157 -0.3814  2.8844 -2.0224
  111MOL0     H14644   8.342  10.186   2.850  0.5429  1.9344 -0.6703
  111MOL0     H14645   8.250  10.276   2.981  0.2078  0.3043  2.0436
  111MOL0     H14646   8.535  10.278   3.011 -1.9298 -4.3095 -0.5539
  111MOL0     H14647   8.424  10.426   3.003 -3.4344 -0.3044 -1.0706
  111MOL0     H14648   8.583  10.268   2.782  2.1543 -0.3881  0.5358
  111MOL0     H14649   8.460  10.389   2.738 -0.6172 -2.3806  0.0347
  111MOL0     H14650   8.800  10.614   2.880  0.1510  0.0213  3.2470
  111MOL0     H14651   8.146   9.800   2.984 -0.5766  3.2963  0.0753
  111MOL0     H14652   8.157   9.599   3.087 -0.6765 -2.7372  3.2456
  112MOL0     O14653   5.920   7.245   0.667 -1.0588  0.7733 -0.1650
  112MOL0     C14654   5.834   7.240   0.757  0.3794  0.9903  0.1808
  112MOL0     O14655   5.852   7.224   0.889  0.1625 -0.6983 -0.1611
  112MOL0     C14656   5.969   7.210   0.949  0.9481  0.7552 -0.2161
  112MOL0     C14657   6.082   7.290   0.915  0.1199  0.5907 -0.8711
  112MOL0     C14658   6.183   7.290   1.004 -0.0142  0.2846  0.0540
  112MOL0     C14659   6.199   7.201   1.105 -0.6147  0.5947 -0.3417
  112MOL0     O14660   6.316   7.203   1.182  0.1788 -0.2394 -0.5656
  112MOL0     C14661   6.317   7.173   1.317  0.5087  0.6163 -0.7837
  112MOL0     C14662   6.454   7.172   1.384  0.1661 -0.5134  0.0615
  112MOL0     C14663   6.519   7.316   1.401  0.7558  0.3000  0.2924
  112MOL0     C14664   6.661   7.291   1.447  0.1856 -0.4343 -0.1537
  112MOL0     C14665   6.718   7.421   1.499 -0.0231  0.0009  0.6000
  112MOL0     C14666   6.847   7.390   1.573  0.3689 -1.3181  0.1898
  112MOL0     C14667   6.914   7.525   1.625 -0.1975  0.5457 -0.2816
  112MOL0     C14668   6.965   7.638   1.527  0.0979 -0.1437 -0.1234
  112MOL0     N14669   6.983   7.765   1.601  0.7085  0.3820 -0.0119
  112MOL0     C14670   7.105   7.818   1.641  1.0026  0.0212 -0.3959
  112MOL0     C14671   7.083   7.945   1.685  1.5137  0.4341  0.8609
  112MOL0     C14672   7.184   8.036   1.740  0.7230 -0.3075  0.0547
  112MOL0     C14673   7.282   8.087   1.634  0.4626  0.6820  0.0284
  112MOL0     C14674   7.258   8.226   1.587  0.0928  0.4471 -1.0594
  112MOL0     C14675   7.263   8.342   1.687  0.7341  0.4787 -0.5768
  112MOL0     O14676   7.373   8.317   1.781  0.1673  0.0354 -0.1657
  112MOL0     C14677   7.378   8.412   1.882  0.1352 -0.2192 -0.0892
  112MOL0     C14678   7.510   8.425   1.921 -0.1478  0.1111 -0.0417
  112MOL0     C14679   7.537   8.519   2.026  0.2183 -0.3032  0.3637
  112MOL0     C14680   7.439   8.593   2.088 -0.5354  0.7061 -0.1957
  112MOL0     C14681   7.470   8.662   2.206 -0.6177  0.3834 -0.2062
  112MOL0     O14682   7.599   8.670   2.260  0.1568  0.1696 -0.3707
  112MOL0     C14683   7.647   8.801   2.282  0.4423  0.1419  0.6671
  112MOL0     C14684   7.729   8.855   2.193  0.3317 -1.3236  1.0514
  112MOL0     C14685   7.780   8.978   2.216 -0.2425  0.1383  0.4800
  112MOL0     C14686   7.749   9.052   2.339 -0.4962 -0.3567 -1.3356
  112MOL0     O14687   7.808   9.166   2.381 -0.6267 -0.7237  0.8150
  112MOL0     C14688   7.931   9.207   2.321 -0.4545  0.7191  1.4429
  112MOL0     C14689   7.911   9.269   2.187 -0.0786  0.3204 -0.8733
  112MOL0     C14690   7.796   9.374   2.163 -0.1745  1.4275 -0.0742
  112MOL0     C14691   7.801   9.428   2.021  0.1417  0.0241  0.3021
  112MOL0     C14692   7.928   9.527   1.997  0.3953  0.6186  1.3354
  112MOL0     C14693   7.918   9.610   1.866  0.4797 -0.2025 -0.6836
  112MOL0     C14694   8.055   9.666   1.827 -0.2268  0.1689 -0.4023
  112MOL0     C14695   8.131   9.751   1.925 -0.2688 -0.4644 -0.5669
  112MOL0    Cl14696   8.060   9.916   1.949 -0.2972  0.4408 -0.2327
  112MOL0     C14697   7.674   8.984   2.433  0.4690  0.7621  0.1271
  112MOL0     C14698   7.619   8.857   2.408 -0.4395 -0.4702 -0.9514
  112MOL0     O14699   7.378   8.709   2.267  0.1901 -0.3916 -0.0104
  112MOL0     C14700   7.309   8.582   2.041  0.0876 -1.0137  0.4531
  112MOL0     C14701   7.277   8.490   1.946  0.0584 -0.0650  0.8950
  112MOL0     N14702   6.937   7.955   1.676 -0.0091 -0.5751 -0.1193
  112MOL0     N14703   6.880   7.853   1.623 -0.2537  0.1662 -0.3207
  112MOL0     C14704   6.096   7.112   1.134  0.8093  0.6084 -0.0034
  112MOL0     C14705   5.980   7.117   1.053  0.1124 -0.5958 -0.2054
  112MOL0     C14706   5.690   7.248   0.701  0.8505  1.2357 -0.5155
  112MOL0     C14707   5.578   7.215   0.779 -0.8883  0.1421  0.2109
  112MOL0     C14708   5.452   7.210   0.729 -0.8570  0.4565  0.2455
  112MOL0     C14709   5.431   7.224   0.592 -0.1996 -0.3469  0.5973
  112MOL0     O14710   5.304   7.197   0.549 -0.3707  0.2888 -0.1516
  112MOL0     C14711   5.280   7.153   0.416  0.1427 -0.5635 -0.5012
  112MOL0     C14712   5.131   7.122   0.409  0.5060 -0.3425  0.5760
  112MOL0     C14713   5.110   6.996   0.330 -0.0167 -0.6817 -0.3284
  112MOL0     C14714   5.141   7.011   0.179 -0.0113 -0.1708  0.0349
  112MOL0     C14715   5.055   7.114   0.125  1.0716  0.5585 -0.2763
  112MOL0     C14716   4.975   7.189   0.076 -0.5317  0.5084 -1.0367
  112MOL0     C14717   5.544   7.256   0.507  0.2533 -0.2588 -0.4018
  112MOL0     C14718   5.673   7.266   0.556  0.6587 -0.6599 -0.3239
  112MOL0     H14719   6.078   7.368   0.840  1.2755 -0.3123 -1.9030
  112MOL0     H14720   6.267   7.350   0.972  1.0485 -2.3256 -2.5171
  112MOL0     H14721   6.263   7.081   1.344 -1.0792  1.9595  0.8729
  112MOL0     H14722   6.256   7.252   1.361  0.2078  0.4668 -0.9237
  112MOL0     H14723   6.524   7.102   1.338  0.1673  1.2700 -2.9029
  112MOL0     H14724   6.439   7.124   1.481  1.6380  1.2117  1.1879
  112MOL0     H14725   6.469   7.391   1.463 -0.0145 -0.1388  0.2171
  112MOL0     H14726   6.516   7.370   1.306 -2.4811  2.1955  1.3218
  112MOL0     H14727   6.654   7.227   1.535 -0.2940  0.7103  0.6552
  112MOL0     H14728   6.734   7.239   1.383 -0.2077  0.6366 -1.5266
  112MOL0     H14729   6.641   7.463   1.564  0.5334 -0.9248  1.8996
  112MOL0     H14730   6.718   7.490   1.413 -5.8102  0.2595  0.4056
  112MOL0     H14731   6.912   7.320   1.521  0.0546 -1.2761 -0.2670
  112MOL0     H14732   6.812   7.331   1.658  0.6757  0.9111  1.9473
  112MOL0     H14733   6.840   7.564   1.695 -1.2887 -1.2853 -0.3671
  112MOL0     H14734   6.999   7.488   1.683 -1.9666 -2.4891  0.5836
  112MOL0     H14735   6.881   7.652   1.458 -0.7019 -1.2011  0.6082
  112MOL0     H14736   7.054   7.606   1.472 -0.5698  0.5521 -1.6548
  112MOL0     H14737   7.198   7.769   1.665  0.0048 -0.4682  2.9935
  112MOL0     H14738   7.237   7.987   1.822 -1.8134 -0.1196  1.9561
  112MOL0     H14739   7.125   8.114   1.789 -1.6591 -1.0269 -1.4695
  112MOL0     H14740   7.291   8.023   1.546  1.6834 -0.7911  1.1869
  112MOL0     H14741   7.378   8.083   1.687 -0.0998 -0.0098  1.0262
  112MOL0     H14742   7.342   8.249   1.521 -1.7469  1.9785 -3.0120
  112MOL0     H14743   7.165   8.222   1.530 -0.8262  0.9791  0.3374
  112MOL0     H14744   7.172   8.345   1.746  0.8199  2.8447 -0.4566
  112MOL0     H14745   7.266   8.442   1.641 -0.2864  0.7124 -0.1494
  112MOL0     H14746   7.579   8.365   1.861 -0.2398  1.1153 -1.1732
  112MOL0     H14747   7.641   8.530   2.056  0.5490 -2.5691  0.1760
  112MOL0     H14748   7.759   8.810   2.099 -0.8780  0.5985 -0.3444
  112MOL0     H14749   7.858   8.998   2.144 -1.3575  3.2895 -0.0026
  112MOL0     H14750   8.002   9.124   2.311  2.6174  3.2219  1.1338
  112MOL0     H14751   7.985   9.270   2.392  0.3655  0.7178  0.8272
  112MOL0     H14752   7.918   9.199   2.104  0.7798  0.0758 -0.6071
  112MOL0     H14753   8.002   9.330   2.186  1.1273 -1.3734  0.3706
  112MOL0     H14754   7.802   9.458   2.233 -3.0949  2.6306 -1.0981
  112MOL0     H14755   7.700   9.327   2.183 -0.5726  1.3620 -1.9432
  112MOL0     H14756   7.816   9.341   1.956 -0.1874  0.0546  0.1809
  112MOL0     H14757   7.708   9.474   1.986  0.7855  1.2440  0.1451
  112MOL0     H14758   8.016   9.463   1.999 -0.2256 -0.3612 -0.6419
  112MOL0     H14759   7.925   9.601   2.078 -3.1620  3.5553 -1.1775
  112MOL0     H14760   7.840   9.686   1.874 -0.3258 -1.1358  0.9655
  112MOL0     H14761   7.873   9.540   1.794 -0.0077  1.8122 -2.4217
  112MOL0     H14762   8.117   9.578   1.807 -0.3434 -0.6403  2.4127
  112MOL0     H14763   8.049   9.726   1.736  0.5123  0.5312 -0.2240
  112MOL0     H14764   8.233   9.770   1.892 -1.3820  1.4414 -3.2468
  112MOL0     H14765   8.131   9.705   2.024  2.7008 -0.5809 -0.5233
  112MOL0     H14766   7.670   9.019   2.536  2.1224  2.4614 -0.3471
  112MOL0     H14767   7.562   8.788   2.470 -0.2995 -0.7370 -1.1213
  112MOL0     H14768   7.227   8.636   2.087  0.3055  2.1605 -2.4587
  112MOL0     H14769   7.176   8.464   1.915 -0.4168  2.3907  0.1412
  112MOL0     H14770   6.104   7.039   1.214  4.2314  1.4827  0.6125
  112MOL0     H14771   5.902   7.044   1.073 -0.3872  0.4944  2.3594
  112MOL0     H14772   5.586   7.223   0.887  1.8007  1.1622  0.0040
  112MOL0     H14773   5.373   7.188   0.800 -2.2957 -0.5361 -1.5615
  112MOL0     H14774   5.348   7.068   0.401  0.7517 -0.1202 -0.2774
  112MOL0     H14775   5.308   7.228   0.341  0.8077 -1.3486 -1.0632
  112MOL0     H14776   5.092   7.096   0.507  0.0092 -1.2038  0.1591
  112MOL0     H14777   5.079   7.207   0.363  3.1809  1.2971  0.3542
  112MOL0     H14778   5.005   6.974   0.352  0.0183 -1.0055 -0.4712
  112MOL0     H14779   5.172   6.911   0.360  3.4315  0.9835 -2.1171
  112MOL0     H14780   5.249   7.023   0.167  0.9596 -4.3536  2.4390
  112MOL0     H14781   5.107   6.917   0.135 -2.7336  0.9977 -0.5567
  112MOL0     H14782   4.901   7.250   0.029 -3.5664 -1.9764  0.1658
  112MOL0     H14783   5.532   7.276   0.401  2.5888 -0.3960 -0.7443
  112MOL0     H14784   5.760   7.294   0.499 -0.6455  2.7716 -0.8705
  113MOL0     O14785  10.546   1.735   0.573  0.7629 -0.3207 -1.1776
  113MOL0     C14786  10.440   1.674   0.562  0.0050  0.4307  0.1236
  113MOL0     O14787  10.334   1.676   0.653 -0.1677  0.4065  0.7631
  113MOL0     C14788  10.341   1.730   0.780  0.1780  1.3532 -0.3089
  113MOL0     C14789  10.459   1.769   0.854  0.4513  0.5992  0.6541
  113MOL0     C14790  10.458   1.794   0.989  0.8634 -0.5411  0.7736
  113MOL0     C14791  10.337   1.779   1.065  0.4834 -0.6356  1.4808
  113MOL0     O14792  10.317   1.819   1.195  0.6273  0.0950  0.0311
  113MOL0     C14793  10.417   1.894   1.256 -0.5619  0.0645 -0.1539
  113MOL0     C14794  10.371   1.952   1.390 -0.4730 -0.8521 -0.9004
  113MOL0     C14795  10.468   2.064   1.446  0.8868 -0.0574 -0.3105
  113MOL0     C14796  10.469   2.179   1.349 -0.3517 -0.4328  0.8125
  113MOL0     C14797  10.510   2.317   1.411  0.6034 -0.0265  0.6452
  113MOL0     C14798  10.565   2.423   1.313  0.2090 -1.1989 -0.9279
  113MOL0     C14799  10.489   2.426   1.178  1.7617  0.2041 -0.3085
  113MOL0     C14800  10.506   2.561   1.117 -0.0211 -0.3291  0.5862
  113MOL0     N14801  10.642   2.615   1.087 -0.1127  0.1827  0.2125
  113MOL0     C14802  10.743   2.555   1.009  0.1854 -0.1196 -0.2109
  113MOL0     C14803  10.859   2.617   1.042  0.2175 -0.0664  0.4718
  113MOL0     C14804  10.984   2.585   0.981 -0.0253  0.3934  0.0837
  113MOL0     C14805  11.053   2.462   1.038 -0.7979  0.2497 -0.2022
  113MOL0     C14806  11.199   2.451   0.987  0.0768 -0.5875  0.1184
  113MOL0     C14807  11.299   2.405   1.096 -0.2206  0.4251  0.1164
  113MOL0     O14808  11.290   2.262   1.082  0.3665 -0.1774 -0.0535
  113MOL0     C14809  11.359   2.193   1.182  0.0465 -0.2024 -0.2605
  113MOL0     C14810  11.319   2.065   1.211  0.0128 -0.2908  0.7196
  113MOL0     C14811  11.375   1.986   1.311 -0.5206 -0.5551  0.1123
  113MOL0     C14812  11.484   2.044   1.381  0.8995  0.5562  0.0160
  113MOL0     C14813  11.546   1.964   1.499 -0.0426 -0.1090 -0.7650
  113MOL0     O14814  11.655   2.029   1.573  0.2508 -0.0410  0.6041
  113MOL0     C14815  11.746   1.978   1.651 -0.0582  0.7183 -0.0613
  113MOL0     C14816  11.769   2.043   1.767  0.0951  0.0373 -1.0478
  113MOL0     C14817  11.855   1.991   1.860  0.4031 -0.7810 -0.1050
  113MOL0     C14818  11.909   1.861   1.843 -0.1498  0.8755 -0.0847
  113MOL0     O14819  12.003   1.820   1.939  0.5929  0.0922 -0.1280
  113MOL0     C14820  12.128   1.784   1.872 -0.6808  0.3842 -0.0681
  113MOL0     C14821  12.229   1.896   1.894  0.2224  0.0298  0.0151
  113MOL0     C14822  12.348   1.882   1.796  0.2744 -1.0965 -0.3090
  113MOL0     C14823  12.430   2.018   1.810 -0.0695  0.1354 -0.5076
  113MOL0     C14824  12.561   2.010   1.721 -0.2571 -0.3446  0.2673
  113MOL0     C14825  12.666   1.904   1.767 -0.7554 -0.8208 -0.6740
  113MOL0     C14826  12.737   1.917   1.899 -0.3261 -0.2695 -0.0521
  113MOL0     C14827  12.807   2.046   1.921  0.8304  0.3059  0.2910
  113MOL0    Cl14828  12.913   2.081   1.776  0.0075 -0.1413 -0.2742
  113MOL0     C14829  11.887   1.792   1.722  0.2234  0.5333 -0.4510
  113MOL0     C14830  11.811   1.854   1.623  0.7542  0.0416 -0.4371
  113MOL0     O14831  11.509   1.848   1.519 -0.2813  0.4982  0.3428
  113MOL0     C14832  11.517   2.174   1.365 -0.5985 -1.2396  0.2872
  113MOL0     C14833  11.468   2.240   1.259  0.5422  0.3658  0.7479
  113MOL0     N14834  10.833   2.718   1.135 -0.2272  0.4329 -0.7388
  113MOL0     N14835  10.707   2.715   1.168  0.2329 -0.3961  0.1816
  113MOL0     C14836  10.221   1.753   0.995 -0.8385 -0.6410 -0.0862
  113MOL0     C14837  10.225   1.724   0.855  0.7658 -1.0130 -0.3426
  113MOL0     C14838  10.420   1.580   0.445 -0.4980  0.7657 -0.2330
  113MOL0     C14839  10.525   1.555   0.357  0.6708 -1.0255 -1.2984
  113MOL0     C14840  10.515   1.480   0.246  0.6832  0.5492 -0.2440
  113MOL0     C14841  10.391   1.418   0.223 -0.0696  0.3616  0.2669
  113MOL0     O14842  10.373   1.335   0.110 -0.2206 -0.3801  0.2296
  113MOL0     C14843  10.429   1.210   0.127  0.9615  0.2155 -0.2883
  113MOL0     C14844  10.387   1.108   0.019  0.5433  0.0486 -0.4329
  113MOL0     C14845  10.497   0.993   0.010  0.3002  0.1987 -0.8664
  113MOL0     C14846  10.603   1.011  -0.097 -0.5163 -0.9969 -0.5600
  113MOL0     C14847  10.728   1.052  -0.029 -0.7591  0.1256  0.1199
  113MOL0     C14848  10.829   1.109   0.006  0.8272  0.0823 -0.5180
  113MOL0     C14849  10.282   1.439   0.314 -1.8940  0.9158  0.8957
  113MOL0     C14850  10.292   1.521   0.422 -0.1684  0.2242 -0.2459
  113MOL0     H14851  10.551   1.784   0.799  0.4279 -1.5425 -0.0455
  113MOL0     H14852  10.550   1.830   1.033  0.2740  2.4395 -0.2262
  113MOL0     H14853  10.433   1.984   1.196  2.1477 -0.4153 -0.2671
  113MOL0     H14854  10.509   1.836   1.268 -1.5334 -1.6276 -0.5993
  113MOL0     H14855  10.384   1.867   1.458  1.5936 -2.5424 -3.2187
  113MOL0     H14856  10.271   1.995   1.395  0.6198  1.7956  0.6978
  113MOL0     H14857  10.569   2.024   1.453  1.8642  2.1296 -0.9779
  113MOL0     H14858  10.442   2.099   1.546 -0.9308  1.8253 -1.3653
  113MOL0     H14859  10.539   2.143   1.272 -0.3119  2.1004 -0.4430
  113MOL0     H14860  10.373   2.195   1.300  1.0662  0.5531 -1.8650
  113MOL0     H14861  10.590   2.304   1.485  1.3439  0.4695 -0.0563
  113MOL0     H14862  10.422   2.356   1.461 -1.1729 -1.5304 -1.1293
  113MOL0     H14863  10.672   2.401   1.303 -0.1607 -2.6598 -2.0214
  113MOL0     H14864  10.542   2.519   1.361 -0.1593 -1.6363 -0.2158
  113MOL0     H14865  10.538   2.350   1.116  2.7019  0.7523 -0.2449
  113MOL0     H14866  10.381   2.408   1.175  1.9014 -0.8421 -4.2638
  113MOL0     H14867  10.455   2.636   1.178  1.5424 -1.0521  2.9143
  113MOL0     H14868  10.463   2.553   1.016 -2.1507  0.2270  1.3849
  113MOL0     H14869  10.742   2.486   0.926  0.4018  0.0077 -0.3206
  113MOL0     H14870  11.056   2.665   0.995  3.0753 -2.4104  1.5828
  113MOL0     H14871  10.968   2.564   0.874 -1.2997  0.2672  0.2785
  113MOL0     H14872  11.007   2.369   1.003  1.3468 -0.1398 -2.2790
  113MOL0     H14873  11.052   2.480   1.145 -0.2008  0.6955 -0.2638
  113MOL0     H14874  11.193   2.391   0.895  1.7010  0.1089 -0.4756
  113MOL0     H14875  11.244   2.549   0.969  3.1885 -2.4033 -3.2235
  113MOL0     H14876  11.265   2.431   1.197  1.9818 -1.9839  1.6058
  113MOL0     H14877  11.396   2.448   1.070  1.0895 -2.4961 -0.2139
  113MOL0     H14878  11.242   2.020   1.149  0.0661 -0.3044  0.6636
  113MOL0     H14879  11.323   1.892   1.326  1.4972 -2.0149 -1.4999
  113MOL0     H14880  11.708   2.131   1.784 -0.6081 -0.4514 -1.0498
  113MOL0     H14881  11.866   2.052   1.949 -0.9914 -0.4213 -0.1580
  113MOL0     H14882  12.118   1.763   1.765 -0.1906 -4.1484  0.5860
  113MOL0     H14883  12.178   1.701   1.922 -1.1747  1.2827  2.0013
  113MOL0     H14884  12.268   1.887   1.996  0.3444 -0.8497 -0.1067
  113MOL0     H14885  12.177   1.990   1.872  2.6672  1.5691  0.3793
  113MOL0     H14886  12.315   1.865   1.693  0.3006 -2.0203 -0.1714
  113MOL0     H14887  12.417   1.799   1.813  1.9743 -0.0517 -1.6645
  113MOL0     H14888  12.362   2.092   1.766  1.2806 -0.3614 -3.6622
  113MOL0     H14889  12.454   2.044   1.913 -4.4045  0.2559  0.6729
  113MOL0     H14890  12.601   2.112   1.722 -0.4448 -0.2562  2.2726
  113MOL0     H14891  12.525   1.973   1.625  1.0392 -2.6017  0.5869
  113MOL0     H14892  12.752   1.910   1.699  0.4669  1.1152  0.9262
  113MOL0     H14893  12.622   1.804   1.767  1.9804 -2.1468  0.5186
  113MOL0     H14894  12.658   1.898   1.972 -1.5296 -1.0422 -1.5103
  113MOL0     H14895  12.806   1.833   1.917  0.0375 -0.4454 -2.0689
  113MOL0     H14896  12.864   2.037   2.014  2.1740  2.0608 -0.2969
  113MOL0     H14897  12.723   2.114   1.936 -1.4621 -1.7588 -2.2724
  113MOL0     H14898  11.923   1.691   1.702 -0.7882 -0.1422  0.9867
  113MOL0     H14899  11.790   1.794   1.535 -0.8093 -0.0170 -0.0370
  113MOL0     H14900  11.598   2.217   1.422  1.8911 -2.5094 -2.0553
  113MOL0     H14901  11.514   2.336   1.240 -0.0952  0.1473 -2.4312
  113MOL0     H14902  10.125   1.742   1.045 -3.5113  2.1443 -3.9120
  113MOL0     H14903  10.134   1.691   0.807  0.9526 -0.9678 -0.7277
  113MOL0     H14904  10.619   1.602   0.385  0.1580  0.8521 -2.5549
  113MOL0     H14905  10.588   1.455   0.169  0.8127 -1.2170  0.3914
  113MOL0     H14906  10.404   1.171   0.226  0.0827  0.1296 -0.5352
  113MOL0     H14907  10.537   1.229   0.124  1.6563 -2.6939  1.7343
  113MOL0     H14908  10.289   1.071   0.051 -0.8822  1.6583 -2.6696
  113MOL0     H14909  10.374   1.153  -0.080 -0.3597 -1.2340 -0.9286
  113MOL0     H14910  10.448   0.904  -0.030  0.4937 -0.0804 -0.4908
  113MOL0     H14911  10.538   0.966   0.107  0.4750 -1.0854 -1.2827
  113MOL0     H14912  10.623   0.923  -0.159 -0.6098 -1.2464 -0.2422
  113MOL0     H14913  10.570   1.092  -0.163 -0.8769  0.4258  1.2579
  113MOL0     H14914  10.921   1.154   0.036  1.2307 -0.6072 -0.7149
  113MOL0     H14915  10.192   1.378   0.301  1.9548 -5.7310  0.7865
  113MOL0     H14916  10.207   1.547   0.485  0.0966  1.4124 -0.3501
  114MOL0     O14917   2.735   3.375   9.656 -0.9776  0.2608  0.0666
  114MOL0     C14918   2.683   3.475   9.624 -0.1683 -0.7582 -0.1452
  114MOL0     O14919   2.551   3.503   9.651 -0.7360  0.5828  0.3473
  114MOL0     C14920   2.465   3.424   9.726  0.2760  0.2393  0.2460
  114MOL0     C14921   2.334   3.415   9.680 -0.5534  1.9001 -0.1397
  114MOL0     C14922   2.237   3.359   9.768  0.3299  0.6916 -0.6369
  114MOL0     C14923   2.266   3.307   9.896  0.1475  0.7297 -1.1761
  114MOL0     O14924   2.159   3.258   9.965  0.5231 -0.0008 -0.2707
  114MOL0     C14925   2.099   3.364  10.047  0.1319 -0.3629 -0.2166
  114MOL0     C14926   1.947   3.374  10.016  0.0183  0.3426 -0.2601
  114MOL0     C14927   1.869   3.260  10.090  0.5060  0.5138 -0.2066
  114MOL0     C14928   1.895   3.134  10.030 -0.3233  1.1099 -0.2899
  114MOL0     C14929   1.803   3.015  10.071  1.0194  0.2655 -0.1273
  114MOL0     C14930   1.808   2.884   9.995  0.3373 -0.2425  0.4937
  114MOL0     C14931   1.946   2.820  10.029 -1.5505  0.2541 -0.8314
  114MOL0     C14932   1.969   2.681   9.965 -0.1001  1.2053  0.7509
  114MOL0     N14933   1.866   2.586  10.007  0.6024 -1.2463  0.3710
  114MOL0     C14934   1.759   2.537   9.934 -0.1430 -1.0163 -0.0022
  114MOL0     C14935   1.685   2.464  10.015  0.2209  0.6441  0.5159
  114MOL0     C14936   1.559   2.383   9.974 -0.1321 -0.3546  0.3458
  114MOL0     C14937   1.585   2.267   9.878 -0.9505 -0.0913 -0.6879
  114MOL0     C14938   1.621   2.312   9.733 -0.1513  0.4119 -0.2043
  114MOL0     C14939   1.570   2.225   9.618  0.1799 -0.0050  0.2747
  114MOL0     O14940   1.438   2.276   9.589  0.3167  0.0768  0.3813
  114MOL0     C14941   1.396   2.247   9.461 -0.0379 -0.3451  0.3503
  114MOL0     C14942   1.294   2.319   9.407  0.1043 -1.2749 -0.6243
  114MOL0     C14943   1.223   2.278   9.293  0.6379  0.9161 -0.6676
  114MOL0     C14944   1.248   2.155   9.230  0.2183 -0.1656  0.1249
  114MOL0     C14945   1.165   2.095   9.126  1.5574  0.6869  0.0508
  114MOL0     O14946   1.209   1.980   9.050  0.1230  0.4575  0.0057
  114MOL0     C14947   1.133   1.937   8.932 -0.0423 -0.1381 -0.3505
  114MOL0     C14948   1.013   1.867   8.940 -0.1714  0.1999 -0.0190
  114MOL0     C14949   0.942   1.839   8.828  0.5450  0.4625  0.5174
  114MOL0     C14950   0.999   1.881   8.707 -0.0059  0.0559  0.3287
  114MOL0     O14951   0.942   1.884   8.583  0.1329  0.8745 -0.0697
  114MOL0     C14952   0.797   1.827   8.565 -0.5609 -0.3854  0.6141
  114MOL0     C14953   0.771   1.822   8.410  0.6355  0.0628  0.6591
  114MOL0     C14954   0.656   1.728   8.374 -1.2744 -1.4152 -0.0627
  114MOL0     C14955   0.597   1.773   8.236 -0.2118 -0.6344 -0.2714
  114MOL0     C14956   0.508   1.658   8.181  0.1714 -0.4955  0.6884
  114MOL0     C14957   0.399   1.616   8.283 -1.2794  0.4303 -0.2575
  114MOL0     C14958   0.300   1.516   8.216 -0.6107 -0.0469 -0.3821
  114MOL0     C14959   0.213   1.461   8.328  0.2663 -0.3426 -0.3149
  114MOL0    Cl14960   0.115   1.593   8.427 -0.2319  0.5079  0.0641
  114MOL0     C14961   1.131   1.932   8.693  0.5229 -0.4647 -0.1489
  114MOL0     C14962   1.201   1.950   8.808 -1.2805  0.2327 -1.0220
  114MOL0     O14963   1.059   2.153   9.097 -0.4175  0.6134  0.0386
  114MOL0     C14964   1.351   2.080   9.283 -0.5479 -0.3192  1.6373
  114MOL0     C14965   1.422   2.131   9.396 -0.5236  0.3723 -0.2824
  114MOL0     N14966   1.756   2.450  10.128  0.0838 -0.2964  0.5669
  114MOL0     N14967   1.864   2.524  10.124 -0.2453 -0.0139 -0.0018
  114MOL0     C14968   2.392   3.318   9.949 -0.4427  0.0908  0.7437
  114MOL0     C14969   2.489   3.377   9.859 -0.1586 -0.3609 -0.5064
  114MOL0     C14970   2.772   3.577   9.566  0.0824 -0.5207  0.0020
  114MOL0     C14971   2.911   3.568   9.561  0.7575  0.4981  0.5847
  114MOL0     C14972   2.987   3.669   9.523 -0.0239 -0.2906  0.0146
  114MOL0     C14973   2.947   3.793   9.478 -0.4540  1.3971  0.2186
  114MOL0     O14974   3.016   3.902   9.444 -0.1536 -0.0673  0.2977
  114MOL0     C14975   3.160   3.904   9.454  0.1590 -0.1656  0.5871
  114MOL0     C14976   3.230   3.847   9.327  0.2588 -0.5694 -0.3822
  114MOL0     C14977   3.374   3.813   9.358  0.3868 -0.3666 -0.0033
  114MOL0     C14978   3.375   3.679   9.420 -1.2816 -0.5126 -0.2061
  114MOL0     C14979   3.515   3.658   9.471  0.9595 -1.2885  0.2340
  114MOL0     C14980   3.634   3.642   9.499 -0.7222 -0.1372 -0.3973
  114MOL0     C14981   2.811   3.807   9.497  0.3921  0.5478 -0.5849
  114MOL0     C14982   2.721   3.704   9.533 -0.2536 -0.0705 -0.8232
  114MOL0     H14983   2.301   3.454   9.584 -1.9445  0.5453 -0.2629
  114MOL0     H14984   2.132   3.352   9.740  0.9609  0.6751 -3.2759
  114MOL0     H14985   2.143   3.462  10.024  0.4375 -0.7837 -1.5544
  114MOL0     H14986   2.119   3.348  10.153 -1.9279 -0.7089  0.1664
  114MOL0     H14987   1.932   3.366   9.908  2.8079  0.3488 -0.7148
  114MOL0     H14988   1.911   3.470  10.054  1.4585  0.1284  1.7730
  114MOL0     H14989   1.764   3.284  10.070  0.4643 -2.1571 -4.5667
  114MOL0     H14990   1.884   3.247  10.197  2.2378 -2.1532 -0.6664
  114MOL0     H14991   1.887   3.142   9.921 -2.5150 -2.4732 -0.5772
  114MOL0     H14992   2.000   3.113  10.054 -0.0742  2.4463 -0.1312
  114MOL0     H14993   1.704   3.058  10.058 -0.3092 -1.9167  2.0005
  114MOL0     H14994   1.810   2.985  10.176  1.5776 -0.3786 -0.3346
  114MOL0     H14995   1.809   2.903   9.887  0.1813  0.8346  0.6722
  114MOL0     H14996   1.722   2.820  10.017  0.9253 -0.5653  2.0524
  114MOL0     H14997   2.019   2.881   9.975 -0.2658  0.7039  1.3230
  114MOL0     H14998   1.976   2.823  10.134 -0.0623 -0.6228 -1.2096
  114MOL0     H14999   2.055   2.637  10.016  0.4428  0.1590 -0.9672
  114MOL0     H15000   1.984   2.673   9.856 -1.8371  2.7904  0.3475
  114MOL0     H15001   1.744   2.554   9.828 -1.5900  0.6437  0.4201
  114MOL0     H15002   1.483   2.449   9.929 -0.0603  0.4064  1.2934
  114MOL0     H15003   1.510   2.339  10.061 -1.5318 -2.2439 -1.3139
  114MOL0     H15004   1.497   2.202   9.877 -0.7342 -0.3877 -0.6031
  114MOL0     H15005   1.665   2.202   9.913  0.1180 -0.2039 -3.1033
  114MOL0     H15006   1.588   2.412   9.704  0.3041  0.1365 -1.7917
  114MOL0     H15007   1.730   2.311   9.722  0.0121  1.4018  1.0330
  114MOL0     H15008   1.572   2.120   9.649 -0.2759 -0.6941 -1.8479
  114MOL0     H15009   1.640   2.241   9.536  0.8330  0.4888  0.9199
  114MOL0     H15010   1.249   2.409   9.447 -2.3544 -1.4976 -2.6710
  114MOL0     H15011   1.131   2.332   9.271 -0.1849 -0.5404 -0.9890
  114MOL0     H15012   0.971   1.847   9.038  0.6918  2.6651  0.9167
  114MOL0     H15013   0.844   1.793   8.840  0.2250  1.5019  2.2002
  114MOL0     H15014   0.733   1.908   8.602  0.8296  1.0213  0.0597
  114MOL0     H15015   0.793   1.733   8.621  1.7664  0.0927  1.7176
  114MOL0     H15016   0.861   1.796   8.353  0.5440  0.2504  0.4267
  114MOL0     H15017   0.758   1.926   8.381  0.0317 -0.1940 -0.0302
  114MOL0     H15018   0.583   1.723   8.455  0.9489 -0.2118  2.1837
  114MOL0     H15019   0.707   1.631   8.376  4.0993  1.0076  0.2833
  114MOL0     H15020   0.535   1.864   8.238 -0.9998 -1.0792 -2.1581
  114MOL0     H15021   0.680   1.791   8.167  0.7903  0.5126  1.1693
  114MOL0     H15022   0.577   1.581   8.143  2.7411  2.9969 -2.4203
  114MOL0     H15023   0.450   1.700   8.098 -1.9598 -2.5328  1.0291
  114MOL0     H15024   0.342   1.698   8.327  1.5193  2.2199  0.2429
  114MOL0     H15025   0.445   1.561   8.366 -0.6621  3.0881  1.2772
  114MOL0     H15026   0.239   1.568   8.142 -0.4752  3.5354  1.8281
  114MOL0     H15027   0.362   1.436   8.174 -1.4488 -0.9195 -0.0097
  114MOL0     H15028   0.255   1.387   8.398  0.2676 -1.4670 -1.4659
  114MOL0     H15029   0.138   1.397   8.281 -0.0108  1.0559 -1.8657
  114MOL0     H15030   1.170   1.963   8.597  2.1923 -2.0202 -0.0435
  114MOL0     H15031   1.295   2.005   8.810 -1.3187  0.2990 -1.0730
  114MOL0     H15032   1.378   1.983   9.241  1.3433  0.7469  0.2545
  114MOL0     H15033   1.492   2.061   9.440  2.2835  2.5132 -1.0612
  114MOL0     H15034   2.420   3.273  10.043  0.1244 -1.5051 -0.1497
  114MOL0     H15035   2.593   3.378   9.889 -0.4834 -0.7931  0.6943
  114MOL0     H15036   2.960   3.480   9.602  0.6773  0.5763  0.8502
  114MOL0     H15037   3.094   3.651   9.522 -0.0177 -0.4855 -2.0562
  114MOL0     H15038   3.198   3.842   9.536 -1.3052 -2.6812 -0.5342
  114MOL0     H15039   3.196   4.005   9.476 -0.3837  0.2058 -0.1818
  114MOL0     H15040   3.180   3.755   9.295  1.8017 -1.8458  0.7120
  114MOL0     H15041   3.214   3.925   9.251 -2.8489  1.8850  2.4611
  114MOL0     H15042   3.397   3.892   9.430 -0.5365  2.0117 -2.1532
  114MOL0     H15043   3.451   3.815   9.280  0.3152 -2.5921 -0.2105
  114MOL0     H15044   3.318   3.691   9.513 -1.3907  1.6197 -0.4917
  114MOL0     H15045   3.341   3.599   9.354 -2.2925  1.2279 -1.9082
  114MOL0     H15046   3.740   3.634   9.516 -0.8324  0.9519  0.9517
  114MOL0     H15047   2.774   3.905   9.468  0.3097  1.4485  2.3033
  114MOL0     H15048   2.614   3.714   9.546 -0.2334 -1.5354  0.7458
  115MOL0     O15049   5.190   5.546   7.956 -0.4109  0.5498 -0.1288
  115MOL0     C15050   5.120   5.452   7.910 -0.2071 -0.2989  0.3665
  115MOL0     O15051   5.004   5.409   7.966 -0.0484 -0.3187 -0.6357
  115MOL0     C15052   4.985   5.405   8.098  0.1157 -0.0000  0.0786
  115MOL0     C15053   4.851   5.408   8.148  0.4936 -0.2834  0.4649
  115MOL0     C15054   4.817   5.403   8.287  0.4365 -0.3680 -0.5065
  115MOL0     C15055   4.915   5.386   8.386 -0.2620 -0.6630 -0.3993
  115MOL0     O15056   4.869   5.368   8.516 -0.7517 -0.5693 -1.1843
  115MOL0     C15057   4.974   5.356   8.615  0.5953  0.4079  0.1792
  115MOL0     C15058   4.999   5.206   8.635  0.6308 -0.2340  0.4781
  115MOL0     C15059   5.144   5.166   8.663 -0.2247 -0.5241  0.9372
  115MOL0     C15060   5.162   5.017   8.617  0.4080 -0.1675 -0.1311
  115MOL0     C15061   5.207   5.007   8.475  0.6068  0.1745  0.7948
  115MOL0     C15062   5.175   4.870   8.429  0.9363  0.3825 -0.2789
  115MOL0     C15063   5.153   4.857   8.278 -0.0160  1.0170  0.2464
  115MOL0     C15064   5.239   4.953   8.190  0.3313  0.3635 -0.3171
  115MOL0     N15065   5.195   4.942   8.046 -1.3502  0.2522  0.8649
  115MOL0     C15066   5.109   5.010   7.978  0.6546  0.0840  0.9532
  115MOL0     C15067   5.117   4.963   7.853 -0.4629 -0.4886 -0.1152
  115MOL0     C15068   5.029   5.004   7.741 -1.1537  0.1442  0.5478
  115MOL0     C15069   4.880   4.967   7.741  0.2211  0.3547  0.0149
  115MOL0     C15070   4.865   4.829   7.801  0.4368  0.3641 -0.5793
  115MOL0     C15071   4.730   4.763   7.770 -0.9022  0.0582 -0.5970
  115MOL0     O15072   4.712   4.638   7.837 -0.0578  0.4283 -0.8778
  115MOL0     C15073   4.751   4.643   7.969  0.9108 -0.4996 -0.1875
  115MOL0     C15074   4.850   4.549   8.013 -0.5263 -0.3506  0.1570
  115MOL0     C15075   4.876   4.538   8.152  0.5850 -0.0234 -0.5320
  115MOL0     C15076   4.817   4.621   8.256 -0.5664 -0.6830 -0.1142
  115MOL0     C15077   4.855   4.623   8.400  0.9264  0.5418 -0.3555
  115MOL0     O15078   4.968   4.567   8.444  1.0857 -0.3922  0.7699
  115MOL0     C15079   5.020   4.578   8.566  0.4803 -0.3699  0.5604
  115MOL0     C15080   5.127   4.487   8.586 -0.0608 -0.0065 -0.7972
  115MOL0     C15081   5.196   4.485   8.710 -0.4353 -0.2013 -0.4709
  115MOL0     C15082   5.150   4.571   8.819 -0.3044  0.2594  0.3740
  115MOL0     O15083   5.211   4.569   8.940  0.3752  0.0565 -0.8586
  115MOL0     C15084   5.355   4.551   8.945 -0.0896 -0.2951 -0.6985
  115MOL0     C15085   5.409   4.558   9.088 -0.0228 -0.3922 -1.0079
  115MOL0     C15086   5.353   4.684   9.170  0.1471 -0.2143 -0.1763
  115MOL0     C15087   5.208   4.670   9.210  0.6755  0.5506 -0.3941
  115MOL0     C15088   5.159   4.767   9.313  1.1267  0.9545  0.4020
  115MOL0     C15089   5.204   4.918   9.301 -0.2961  0.0773 -0.5426
  115MOL0     C15090   5.140   4.993   9.175  0.1349  0.2370  0.1975
  115MOL0     C15091   5.239   5.083   9.102 -0.1279  0.0139 -1.7288
  115MOL0    Cl15092   5.223   5.231   9.196 -0.1244  0.4316  0.1445
  115MOL0     C15093   5.043   4.662   8.795 -0.5130  0.4002  0.3353
  115MOL0     C15094   4.979   4.667   8.668  0.0723  0.2726  0.0375
  115MOL0     O15095   4.764   4.671   8.471 -0.4733  0.2922  0.0110
  115MOL0     C15096   4.715   4.718   8.216 -0.5314  0.2630  0.0917
  115MOL0     C15097   4.684   4.717   8.077  0.2685 -0.0609 -0.0724
  115MOL0     N15098   5.196   4.856   7.851  0.3250  0.5992  0.1268
  115MOL0     N15099   5.242   4.844   7.964  0.3803  0.5896 -0.0975
  115MOL0     C15100   5.049   5.382   8.343 -0.2163  0.1393  1.1491
  115MOL0     C15101   5.086   5.391   8.205  0.0900  0.8278  0.0546
  115MOL0     C15102   5.153   5.411   7.770  0.1182  0.5403 -0.4113
  115MOL0     C15103   5.285   5.431   7.727 -0.5499  0.0930  0.0850
  115MOL0     C15104   5.329   5.396   7.599 -0.5283  0.4764  0.2759
  115MOL0     C15105   5.235   5.331   7.510 -0.2877 -0.6872 -0.3409
  115MOL0     O15106   5.259   5.282   7.380 -0.5029 -0.0491  0.4091
  115MOL0     C15107   5.386   5.225   7.350  1.2144  0.7382 -0.0799
  115MOL0     C15108   5.388   5.161   7.209 -0.5172  0.1749  0.4478
  115MOL0     C15109   5.391   5.264   7.100 -0.1531  0.1153  0.4549
  115MOL0     C15110   5.411   5.197   6.967  0.8962  0.7958  0.3534
  115MOL0     C15111   5.342   5.272   6.861 -0.4915 -0.6315  0.0285
  115MOL0     C15112   5.282   5.353   6.792 -0.2199  0.4318  0.1214
  115MOL0     C15113   5.104   5.309   7.563 -0.2259 -0.0886  0.4700
  115MOL0     C15114   5.058   5.350   7.690  0.1923  0.0059  0.6398
  115MOL0     H15115   4.774   5.407   8.072  1.1813  0.2458 -0.2528
  115MOL0     H15116   4.714   5.420   8.317  1.0137  3.3439 -0.0418
  115MOL0     H15117   4.928   5.380   8.711  0.1461 -0.2776  0.1444
  115MOL0     H15118   5.064   5.417   8.607 -0.1888  1.6445  0.4673
  115MOL0     H15119   4.960   5.155   8.547 -0.3072  0.4932  0.4620
  115MOL0     H15120   4.934   5.173   8.716 -0.5065  1.4643  0.2993
  115MOL0     H15121   5.163   5.165   8.770 -1.0984 -0.3454  1.1040
  115MOL0     H15122   5.215   5.228   8.607 -0.1890 -0.1652  1.3728
  115MOL0     H15123   5.231   4.965   8.683 -2.1816  0.8931  3.7358
  115MOL0     H15124   5.067   4.964   8.628  0.7010 -0.9351 -1.1707
  115MOL0     H15125   5.315   5.012   8.458  0.7515 -1.8044  0.9301
  115MOL0     H15126   5.154   5.085   8.418 -0.3041 -1.8367 -1.2842
  115MOL0     H15127   5.078   4.838   8.466  0.4419 -2.7415 -3.7414
  115MOL0     H15128   5.249   4.793   8.453  1.9014  0.3003 -3.1075
  115MOL0     H15129   5.160   4.752   8.245 -1.3144  0.4235  1.7563
  115MOL0     H15130   5.048   4.878   8.258 -1.0433 -2.9981  0.4242
  115MOL0     H15131   5.347   4.932   8.195  0.6276  1.6367 -1.0951
  115MOL0     H15132   5.234   5.058   8.217  1.7073  0.9707 -2.2173
  115MOL0     H15133   5.049   5.094   8.012  0.0975 -1.4849  4.2480
  115MOL0     H15134   5.081   4.961   7.655  2.9019 -1.0929  3.2965
  115MOL0     H15135   5.032   5.111   7.718  4.4629  0.0536 -0.7508
  115MOL0     H15136   4.849   4.952   7.637  1.2208 -4.3415  0.1362
  115MOL0     H15137   4.812   5.038   7.787 -0.9120  0.1321 -1.2605
  115MOL0     H15138   4.942   4.760   7.765  0.0603 -1.0156  1.1609
  115MOL0     H15139   4.890   4.836   7.907  3.3390  1.6504 -1.2359
  115MOL0     H15140   4.719   4.742   7.663  0.3941  2.7897 -1.3316
  115MOL0     H15141   4.650   4.834   7.795  0.4324  1.7895 -1.1079
  115MOL0     H15142   4.906   4.482   7.948  0.4903 -3.5720  3.9114
  115MOL0     H15143   4.961   4.476   8.178 -0.8690 -2.2780 -0.8639
  115MOL0     H15144   5.171   4.413   8.521 -0.1197 -2.0678  1.3550
  115MOL0     H15145   5.283   4.421   8.714  0.4108  0.6023 -3.5196
  115MOL0     H15146   5.402   4.629   8.884  2.3419 -1.1345 -0.0167
  115MOL0     H15147   5.382   4.457   8.897  0.9510  1.5255 -4.0076
  115MOL0     H15148   5.516   4.540   9.093  0.4464  2.2984  0.1095
  115MOL0     H15149   5.361   4.471   9.134  0.2748  0.3701  0.8337
  115MOL0     H15150   5.365   4.769   9.102 -0.0809 -0.1995 -0.1979
  115MOL0     H15151   5.414   4.707   9.258  2.0065  0.6596 -1.6088
  115MOL0     H15152   5.147   4.681   9.120  0.0813 -1.7630 -0.3551
  115MOL0     H15153   5.197   4.566   9.242 -1.3286  0.6487 -0.6213
  115MOL0     H15154   5.183   4.728   9.413  1.7946  0.5067  0.0744
  115MOL0     H15155   5.052   4.760   9.331  1.6723 -0.1531  4.2996
  115MOL0     H15156   5.312   4.916   9.282 -0.6260  1.9142 -3.1083
  115MOL0     H15157   5.185   4.971   9.395  2.4610 -0.9849  0.7324
  115MOL0     H15158   5.120   4.910   9.107  1.9081 -1.9758  2.2074
  115MOL0     H15159   5.040   5.034   9.191 -1.2813 -3.1909  1.0806
  115MOL0     H15160   5.198   5.088   9.001 -1.6584 -1.3803 -1.2251
  115MOL0     H15161   5.343   5.050   9.107 -0.2011 -0.2232  3.1106
  115MOL0     H15162   5.029   4.738   8.871  2.4113 -0.8896  2.4074
  115MOL0     H15163   4.898   4.739   8.660 -0.6076 -0.4991 -0.1904
  115MOL0     H15164   4.650   4.780   8.277 -5.2581 -2.0940 -2.0108
  115MOL0     H15165   4.595   4.777   8.060  2.7481  4.4048  0.9040
  115MOL0     H15166   5.131   5.370   8.412 -0.3523 -1.8441  1.0194
  115MOL0     H15167   5.190   5.392   8.173 -0.4806 -0.2675 -2.0753
  115MOL0     H15168   5.363   5.474   7.789  1.2726 -0.8967 -1.4110
  115MOL0     H15169   5.431   5.407   7.563 -0.4894 -0.0777  0.2069
  115MOL0     H15170   5.404   5.142   7.419  0.8866  2.3554  2.0404
  115MOL0     H15171   5.465   5.296   7.374 -0.5883  2.2088  1.8640
  115MOL0     H15172   5.475   5.095   7.214 -0.8652 -0.2479  1.0856
  115MOL0     H15173   5.306   5.089   7.198  2.8333 -3.5823 -3.8897
  115MOL0     H15174   5.479   5.328   7.114  0.8601 -1.4760  1.6385
  115MOL0     H15175   5.304   5.330   7.099  1.5303  2.4815 -0.7826
  115MOL0     H15176   5.517   5.183   6.943  0.9029  0.4536  0.5698
  115MOL0     H15177   5.359   5.100   6.967 -0.5742  1.5584  0.4726
  115MOL0     H15178   5.233   5.439   6.751  1.3674  1.2955 -0.0444
  115MOL0     H15179   5.034   5.238   7.520 -0.8763 -1.3619  3.3363
  115MOL0     H15180   4.960   5.324   7.729 -0.4366 -4.5132 -3.0577
  116MOL0     O15181   2.485   9.198   7.093  0.0732  0.0087  0.3164
  116MOL0     C15182   2.387   9.274   7.070  0.3735  0.4980  0.5043
  116MOL0     O15183   2.260   9.241   7.115 -0.1676  0.7400 -1.0086
  116MOL0     C15184   2.238   9.116   7.177 -0.4339 -0.5138  0.8129
  116MOL0     C15185   2.302   8.989   7.163  0.5633  0.4126 -1.3664
  116MOL0     C15186   2.265   8.882   7.236  0.0612  0.7052  0.0628
  116MOL0     C15187   2.151   8.883   7.314  0.1998 -0.0144  0.2983
  116MOL0     O15188   2.108   8.759   7.360  0.6698  0.1215  0.7419
  116MOL0     C15189   1.970   8.747   7.403  0.9340 -0.0024 -0.7636
  116MOL0     C15190   1.944   8.597   7.432  1.2934  0.2689  0.0281
  116MOL0     C15191   1.800   8.582   7.481 -0.6586  0.0713 -0.3815
  116MOL0     C15192   1.787   8.435   7.510  0.7549  0.6901 -0.1637
  116MOL0     C15193   1.641   8.389   7.524  0.5624 -0.5867 -0.4454
  116MOL0     C15194   1.628   8.235   7.544  0.3486 -0.3893 -0.0647
  116MOL0     C15195   1.484   8.194   7.550  1.0598  0.4759 -0.2374
  116MOL0     C15196   1.409   8.248   7.673  0.6505  0.6160  0.2857
  116MOL0     N15197   1.301   8.163   7.728 -0.4214 -0.0841  1.1890
  116MOL0     C15198   1.181   8.139   7.659  0.3820 -1.0908  0.7958
  116MOL0     C15199   1.097   8.113   7.761 -0.5721 -0.4627 -0.6913
  116MOL0     C15200   0.943   8.108   7.735 -0.8432 -0.6049 -0.5977
  116MOL0     C15201   0.854   8.191   7.830 -0.4240  0.5881  0.0067
  116MOL0     C15202   0.730   8.115   7.888 -0.1868  0.2928  0.3959
  116MOL0     C15203   0.638   8.065   7.780  0.1490 -0.0028 -0.2363
  116MOL0     O15204   0.530   7.995   7.840  0.0737 -0.0853  0.1716
  116MOL0     C15205   0.450   7.922   7.747 -0.7502 -0.0121  0.1441
  116MOL0     C15206   0.349   7.853   7.815 -0.7962  0.8051 -0.3553
  116MOL0     C15207   0.262   7.772   7.737 -0.3233  0.3527  0.0225
  116MOL0     C15208   0.274   7.757   7.597  0.1948 -0.0362 -0.2105
  116MOL0     C15209   0.173   7.677   7.508  0.7516 -1.0842 -0.3356
  116MOL0     O15210   0.088   7.608   7.572  0.4024  0.4601 -0.3918
  116MOL0     C15211  -0.008   7.524   7.499  0.1886  0.5333 -0.5170
  116MOL0     C15212   0.035   7.432   7.401  0.0977  0.2595  0.5191
  116MOL0     C15213  -0.058   7.354   7.326 -0.4453  0.0523  0.4288
  116MOL0     C15214  -0.196   7.360   7.359 -0.3087  0.5449  0.9831
  116MOL0     O15215  -0.288   7.276   7.292  0.2581 -0.0239 -0.4280
  116MOL0     C15216  -0.262   7.221   7.165  0.9761 -0.8357  0.5797
  116MOL0     C15217  -0.387   7.173   7.090  0.1099  0.2366  0.7498
  116MOL0     C15218  -0.506   7.270   7.110 -0.5407 -0.1591 -0.2316
  116MOL0     C15219  -0.620   7.222   7.016 -0.6040 -0.2387  0.5730
  116MOL0     C15220  -0.727   7.316   7.025 -0.2945 -0.3110 -0.1631
  116MOL0     C15221  -0.850   7.269   6.949 -0.2641  0.3331  0.1186
  116MOL0     C15222  -0.972   7.367   6.953 -0.1429 -0.1212 -0.3858
  116MOL0     C15223  -1.092   7.326   6.874  0.2393 -1.3334  0.3709
  116MOL0    Cl15224  -1.176   7.177   6.947  0.0711 -0.7569  0.1703
  116MOL0     C15225  -0.234   7.441   7.465  0.1920 -0.3429 -0.9734
  116MOL0     C15226  -0.141   7.520   7.530  0.9407 -0.1135  0.4648
  116MOL0     O15227   0.177   7.694   7.384  0.4589  0.0225 -0.0796
  116MOL0     C15228   0.383   7.822   7.532 -0.3337 -0.4467 -0.1750
  116MOL0     C15229   0.470   7.906   7.610  0.0909 -0.6083  0.8489
  116MOL0     N15230   1.158   8.124   7.882  0.3272  0.0119  0.9138
  116MOL0     N15231   1.279   8.140   7.862 -0.2448  0.0711  0.0545
  116MOL0     C15232   2.076   9.007   7.317 -0.3848  0.0000 -1.1631
  116MOL0     C15233   2.122   9.123   7.255 -0.9032 -0.6318  0.5314
  116MOL0     C15234   2.402   9.395   6.986  0.0343 -0.0347 -0.2470
  116MOL0     C15235   2.301   9.481   6.954  0.2065  0.1832  0.2718
  116MOL0     C15236   2.326   9.594   6.868 -0.0567  0.4321 -0.7717
  116MOL0     C15237   2.460   9.623   6.839  0.2519  0.0976 -0.2941
  116MOL0     O15238   2.482   9.740   6.774 -0.1837  0.0582 -0.0558
  116MOL0     C15239   2.613   9.749   6.700  0.2573  0.4029 -0.0402
  116MOL0     C15240   2.624   9.881   6.619 -0.3314  0.3305  0.4156
  116MOL0     C15241   2.631  10.000   6.711 -0.9962  0.3537  0.5016
  116MOL0     C15242   2.623  10.140   6.632 -0.5603 -0.0236  0.3581
  116MOL0     C15243   2.722  10.141   6.523 -0.1130  0.3452  0.2692
  116MOL0     C15244   2.798  10.152   6.434 -0.9516 -0.1327 -0.9224
  116MOL0     C15245   2.558   9.547   6.887  0.2551  1.1519  0.4883
  116MOL0     C15246   2.533   9.432   6.966 -0.2571  0.2636 -0.1456
  116MOL0     H15247   2.379   8.991   7.087 -0.3282  1.0065 -2.2686
  116MOL0     H15248   2.315   8.786   7.221 -2.0102 -0.5044  0.5466
  116MOL0     H15249   1.903   8.785   7.324  1.3346 -0.4385 -1.3154
  116MOL0     H15250   1.957   8.806   7.495 -1.7633  0.7352 -1.5035
  116MOL0     H15251   2.013   8.561   7.510  2.4293 -0.1930 -1.1543
  116MOL0     H15252   1.966   8.536   7.344  0.6114  1.6170 -1.1161
  116MOL0     H15253   1.731   8.611   7.401 -0.1720  0.1115 -0.7900
  116MOL0     H15254   1.775   8.621   7.580 -1.0466 -0.7967 -0.1253
  116MOL0     H15255   1.831   8.379   7.427 -2.3813 -0.1939 -1.3671
  116MOL0     H15256   1.832   8.416   7.608 -0.5774 -1.6698  0.0748
  116MOL0     H15257   1.586   8.419   7.434 -0.0430  2.3351  0.7927
  116MOL0     H15258   1.596   8.427   7.616 -1.5097 -0.5770 -1.4089
  116MOL0     H15259   1.669   8.209   7.642  1.0069 -0.7604 -0.4297
  116MOL0     H15260   1.670   8.171   7.466 -2.1010  0.7587 -2.4763
  116MOL0     H15261   1.429   8.211   7.457 -1.0113 -2.6825  0.2351
  116MOL0     H15262   1.489   8.085   7.560 -1.9859  0.1681 -1.1593
  116MOL0     H15263   1.354   8.338   7.645 -0.9692 -0.5894 -0.5459
  116MOL0     H15264   1.490   8.277   7.741  2.0149 -2.0135 -0.0783
  116MOL0     H15265   1.145   8.133   7.557 -1.3444 -0.8023  1.3631
  116MOL0     H15266   0.909   8.005   7.749  0.9151 -1.3331 -1.4298
  116MOL0     H15267   0.914   8.127   7.631 -0.1400  1.6780 -0.4190
  116MOL0     H15268   0.827   8.277   7.769  2.2960  1.2141 -0.4409
  116MOL0     H15269   0.920   8.229   7.908  2.2949  0.1812 -1.9522
  116MOL0     H15270   0.749   8.029   7.952 -1.0942 -1.3123 -1.3862
  116MOL0     H15271   0.683   8.183   7.959 -0.7287 -0.3321  0.6403
  116MOL0     H15272   0.688   7.990   7.718 -0.2335 -2.3953  2.1684
  116MOL0     H15273   0.612   8.147   7.713 -1.0612 -1.1850 -1.2768
  116MOL0     H15274   0.353   7.864   7.923 -1.8623 -0.3060 -0.1870
  116MOL0     H15275   0.182   7.716   7.784 -3.2131  0.4790 -4.2289
  116MOL0     H15276   0.137   7.420   7.366  0.2359  0.2319  0.9249
  116MOL0     H15277  -0.012   7.286   7.255  1.0906 -1.0231  2.3547
  116MOL0     H15278  -0.190   7.139   7.162  0.9317 -0.8547 -1.1294
  116MOL0     H15279  -0.212   7.301   7.109  0.7314 -1.6678 -0.9025
  116MOL0     H15280  -0.415   7.070   7.112  1.5238 -0.5508 -0.8847
  116MOL0     H15281  -0.356   7.173   6.985  2.2456  0.7796  1.3407
  116MOL0     H15282  -0.475   7.371   7.082  0.2689 -0.8532 -1.9836
  116MOL0     H15283  -0.537   7.265   7.215  0.7597  0.2560  0.1979
  116MOL0     H15284  -0.589   7.217   6.911 -3.1163 -0.1640 -0.2345
  116MOL0     H15285  -0.665   7.127   7.047 -0.6445  0.0780  1.5314
  116MOL0     H15286  -0.698   7.417   6.992 -0.1625 -0.1605  0.3996
  116MOL0     H15287  -0.753   7.330   7.130  1.5580 -0.4299  0.3458
  116MOL0     H15288  -0.893   7.176   6.985  0.9828  0.0716  0.9689
  116MOL0     H15289  -0.824   7.256   6.843 -1.0483 -1.2714  0.0998
  116MOL0     H15290  -1.001   7.385   7.058 -0.0978 -0.0195 -0.3903
  116MOL0     H15291  -0.921   7.452   6.907  1.6437 -1.1889 -0.4506
  116MOL0     H15292  -1.056   7.299   6.774  0.6827 -0.6129  0.3281
  116MOL0     H15293  -1.156   7.414   6.872 -1.0836 -2.2837 -0.0187
  116MOL0     H15294  -0.338   7.451   7.493 -0.2280  0.3417 -2.6528
  116MOL0     H15295  -0.183   7.576   7.613 -2.8933  0.4574 -1.5952
  116MOL0     H15296   0.400   7.794   7.428  3.2742 -1.8006  0.6431
  116MOL0     H15297   0.548   7.964   7.561 -1.3480  1.7192  1.1655
  116MOL0     H15298   1.980   8.999   7.367  0.6279 -1.8959  0.6339
  116MOL0     H15299   2.060   9.212   7.263 -0.0424 -0.0198  0.4870
  116MOL0     H15300   2.196   9.455   6.966 -0.3851  1.2782 -2.0275
  116MOL0     H15301   2.239   9.652   6.839 -0.4659  1.2603  1.7821
  116MOL0     H15302   2.612   9.681   6.615  0.0764  2.3450 -1.6619
  116MOL0     H15303   2.707   9.725   6.751  0.1488 -3.9709 -1.5029
  116MOL0     H15304   2.718   9.872   6.563 -1.3742  1.5743 -1.6504
  116MOL0     H15305   2.540   9.898   6.550  0.6538  1.8495 -0.4572
  116MOL0     H15306   2.728   9.992   6.760 -0.1788 -0.2482 -1.1316
  116MOL0     H15307   2.551   9.987   6.785  0.0868  1.3914  1.9114
  116MOL0     H15308   2.523  10.143   6.587 -1.1439 -1.0058  1.5190
  116MOL0     H15309   2.637  10.219   6.707 -5.1314  1.8181 -0.3960
  116MOL0     H15310   2.874  10.173   6.362 -1.0655 -0.1928 -1.0619
  116MOL0     H15311   2.660   9.562   6.853 -0.5529  2.7549 -1.4275
  116MOL0     H15312   2.619   9.380   7.006 -0.4542  0.3148  0.3403
  117MOL0     O15313   0.270  10.359   5.273 -0.1119  0.2139 -0.1571
  117MOL0     C15314   0.173  10.431   5.282  0.3446 -0.8138  0.3201
  117MOL0     O15315   0.050  10.399   5.345  0.4318 -0.0650  0.4771
  117MOL0     C15316   0.062  10.295   5.422 -0.0144  0.3635  0.0056
  117MOL0     C15317   0.091  10.297   5.563  1.0872 -0.3779  0.2501
  117MOL0     C15318   0.087  10.185   5.647 -0.3828 -0.2667 -0.5985
  117MOL0     C15319   0.069  10.062   5.584  0.8018  0.7631 -0.2039
  117MOL0     O15320   0.042   9.943   5.660 -0.9233 -0.0795 -0.2388
  117MOL0     C15321   0.053   9.939   5.806 -0.2623 -0.2260  0.7778
  117MOL0     C15322  -0.059  10.008   5.878  0.1022 -0.3510  0.1271
  117MOL0     C15323  -0.046   9.981   6.021 -0.1373  0.3699  1.1512
  117MOL0     C15324  -0.112  10.101   6.092  0.0355  0.0497 -0.1923
  117MOL0     C15325  -0.125  10.076   6.246 -0.0983 -0.3697 -0.2060
  117MOL0     C15326  -0.196   9.946   6.278  0.0667 -0.3401  0.1245
  117MOL0     C15327  -0.258   9.949   6.417  1.4096 -0.1755 -0.1440
  117MOL0     C15328  -0.166   9.865   6.512 -0.7131  0.5863  0.5097
  117MOL0     N15329  -0.043   9.930   6.549  0.3090 -0.5371  0.0089
  117MOL0     C15330  -0.017  10.038   6.642 -0.2003  0.5673  0.5983
  117MOL0     C15331   0.122  10.038   6.642 -0.5391 -0.2852 -0.4339
  117MOL0     C15332   0.207  10.103   6.741  0.1658 -0.6941  0.6295
  117MOL0     C15333   0.134  10.226   6.804 -0.8668 -0.3102 -0.2516
  117MOL0     C15334   0.231  10.334   6.849  0.3013 -0.6218  0.7862
  117MOL0     C15335   0.177  10.457   6.909  0.6110 -0.7162 -0.2183
  117MOL0     O15336   0.085  10.537   6.832  0.1171 -0.1996 -0.1478
  117MOL0     C15337   0.120  10.619   6.731  0.4169 -0.2899 -0.4081
  117MOL0     C15338   0.254  10.649   6.703  0.5255 -0.5263  0.3961
  117MOL0     C15339   0.290  10.752   6.610  0.1661  0.2749 -0.0632
  117MOL0     C15340   0.183  10.823   6.543 -0.1317 -0.8448 -0.0616
  117MOL0     C15341   0.222  10.920   6.434 -0.0047  1.3016 -0.7850
  117MOL0     O15342   0.349  10.977   6.440 -0.1305 -0.7177  0.0334
  117MOL0     C15343   0.371  11.093   6.363 -0.1218 -0.4805  0.1008
  117MOL0     C15344   0.384  11.074   6.225 -0.1570 -0.0768  0.3121
  117MOL0     C15345   0.416  11.175   6.144  0.8460 -0.7784  0.2637
  117MOL0     C15346   0.440  11.304   6.196 -0.0143 -0.6717 -0.0366
  117MOL0     O15347   0.494  11.399   6.109  0.5460  0.1732 -0.7189
  117MOL0     C15348   0.402  11.453   6.008  0.2610  0.0479  0.1485
  117MOL0     C15349   0.461  11.570   5.935  0.4362  0.0299 -0.4089
  117MOL0     C15350   0.453  11.695   6.026  0.1267  0.0045  0.2659
  117MOL0     C15351   0.569  11.805   6.029  0.2195 -0.4049 -0.6651
  117MOL0     C15352   0.576  11.889   5.904  0.1777 -0.6815  0.1729
  117MOL0     C15353   0.671  12.010   5.912  0.3182 -0.4541  0.5819
  117MOL0     C15354   0.687  12.068   5.769 -0.3235  0.4779 -0.3630
  117MOL0     C15355   0.593  12.183   5.726 -0.0887 -0.2314 -0.7677
  117MOL0    Cl15356   0.689  12.281   5.616  0.0178  0.1122  0.3010
  117MOL0     C15357   0.431  11.324   6.335  0.5745 -0.4029  0.2213
  117MOL0     C15358   0.409  11.217   6.420  0.1822  0.6346  0.0190
  117MOL0     O15359   0.148  10.927   6.335  0.6288 -0.5406  0.1806
  117MOL0     C15360   0.051  10.783   6.564 -0.6230 -0.6317  0.3544
  117MOL0     C15361   0.025  10.680   6.656  0.4988  0.2375  0.2387
  117MOL0     N15362   0.166   9.950   6.551 -1.0051  1.3184 -0.0670
  117MOL0     N15363   0.070   9.884   6.501 -0.4729 -0.3875  0.3292
  117MOL0     C15364   0.044  10.049   5.441  0.1368 -0.7154 -0.1702
  117MOL0     C15365   0.037  10.167   5.362  0.2709 -0.2735  0.5810
  117MOL0     C15366   0.187  10.566   5.228 -0.1535  0.6063 -0.3321
  117MOL0     C15367   0.309  10.616   5.172 -0.2284  1.0340 -0.0114
  117MOL0     C15368   0.331  10.746   5.119  0.1987 -0.6326  0.8761
  117MOL0     C15369   0.225  10.832   5.118  0.3797  0.8185  0.0073
  117MOL0     O15370   0.236  10.967   5.072 -0.9783  0.8437 -0.3315
  117MOL0     C15371   0.364  11.000   5.014  0.8613 -0.8422 -0.4730
  117MOL0     C15372   0.360  11.143   4.969 -0.1118 -0.7338 -0.7908
  117MOL0     C15373   0.352  11.250   5.090  0.1202  0.3210  0.0022
  117MOL0     C15374   0.479  11.242   5.193 -0.5474 -0.0902 -0.0472
  117MOL0     C15375   0.597  11.274   5.112  0.5833  0.1121 -1.0472
  117MOL0     C15376   0.692  11.281   5.042 -0.5971 -0.5921  0.0811
  117MOL0     C15377   0.102  10.790   5.183 -0.7585 -0.0258  0.5764
  117MOL0     C15378   0.085  10.662   5.233 -0.2298  0.2929 -0.9787
  117MOL0     H15379   0.127  10.388   5.609 -0.9124 -0.5291  2.3053
  117MOL0     H15380   0.109  10.198   5.753 -1.5643 -0.9112 -0.2581
  117MOL0     H15381   0.158   9.960   5.830 -0.1102 -0.8766  0.6918
  117MOL0     H15382   0.044   9.837   5.844 -2.6427 -0.0053  0.9763
  117MOL0     H15383  -0.154   9.965   5.844  1.3499 -3.3862  0.1648
  117MOL0     H15384  -0.057  10.115   5.858  1.6192 -0.6840 -1.7560
  117MOL0     H15385   0.061   9.987   6.044 -0.1106  3.0302  0.6821
  117MOL0     H15386  -0.081   9.883   6.053 -0.9809  0.6225  1.0342
  117MOL0     H15387  -0.046  10.186   6.072  0.6032 -0.6009 -1.1762
  117MOL0     H15388  -0.215  10.126   6.062 -0.0778  1.9772  1.5703
  117MOL0     H15389  -0.164  10.175   6.276  1.8073  0.7412 -1.2353
  117MOL0     H15390  -0.025  10.065   6.288  0.0643 -1.2670 -0.8116
  117MOL0     H15391  -0.136   9.859   6.252 -0.0814 -0.7547  1.1444
  117MOL0     H15392  -0.282   9.941   6.210  0.9416  2.1097 -1.2957
  117MOL0     H15393  -0.268  10.046   6.465 -1.0528 -1.5147  2.3201
  117MOL0     H15394  -0.353   9.895   6.413  0.2686  1.8107 -0.8410
  117MOL0     H15395  -0.154   9.766   6.467 -1.8800 -0.6790  2.7963
  117MOL0     H15396  -0.216   9.841   6.606 -3.0187 -0.0999 -0.8039
  117MOL0     H15397  -0.086  10.085   6.711 -3.3945  0.4993 -2.2535
  117MOL0     H15398   0.295  10.142   6.689  1.0674 -0.3575  2.3426
  117MOL0     H15399   0.242  10.030   6.814 -0.1941 -0.7646  0.7355
  117MOL0     H15400   0.085  10.190   6.895  2.8452 -3.0589  0.8605
  117MOL0     H15401   0.056  10.265   6.737  0.4320  2.2224 -0.4243
  117MOL0     H15402   0.298  10.293   6.925 -0.3884 -2.2362  0.5459
  117MOL0     H15403   0.287  10.362   6.759 -0.2332 -1.4758  0.1812
  117MOL0     H15404   0.258  10.521   6.943  0.5134 -1.5470  1.7068
  117MOL0     H15405   0.124  10.416   6.995  1.2677 -5.0033 -1.6380
  117MOL0     H15406   0.334  10.602   6.759  0.7492  1.0076  1.4186
  117MOL0     H15407   0.396  10.774   6.605  0.7759 -2.1360  0.6493
  117MOL0     H15408   0.373  10.976   6.178 -1.9787  1.3244 -2.4797
  117MOL0     H15409   0.430  11.156   6.038  0.1027 -0.1785  0.0419
  117MOL0     H15410   0.319  11.488   6.070  2.2999  0.7328  2.6903
  117MOL0     H15411   0.356  11.390   5.931 -1.8399  0.6671  0.8106
  117MOL0     H15412   0.415  11.598   5.840 -0.8564  1.0949  0.4954
  117MOL0     H15413   0.566  11.547   5.914  0.8416  1.5618 -0.2080
  117MOL0     H15414   0.444  11.656   6.128  3.5720 -1.9369 -0.0284
  117MOL0     H15415   0.358  11.747   6.012 -0.8938 -2.1029 -1.3683
  117MOL0     H15416   0.554  11.871   6.115  1.8894 -2.3957  1.2850
  117MOL0     H15417   0.663  11.753   6.049  0.5432  1.1875  2.7174
  117MOL0     H15418   0.477  11.928   5.879  0.4596  0.4193  0.7179
  117MOL0     H15419   0.608  11.830   5.817 -0.2628 -1.7782  0.7253
  117MOL0     H15420   0.770  11.972   5.935  1.1895  1.8588  0.9439
  117MOL0     H15421   0.640  12.086   5.984 -0.3871  0.3147 -0.4918
  117MOL0     H15422   0.790  12.105   5.774 -0.8771  2.1265 -0.2686
  117MOL0     H15423   0.691  11.994   5.689 -0.8153 -0.8505  0.8144
  117MOL0     H15424   0.564  12.247   5.809  1.5917  1.1716 -1.2195
  117MOL0     H15425   0.502  12.135   5.687 -2.4846  0.7878  3.0382
  117MOL0     H15426   0.454  11.422   6.375  0.7314 -0.8622  1.2789
  117MOL0     H15427   0.419  11.222   6.528  0.2825 -0.1794  0.0586
  117MOL0     H15428  -0.032  10.819   6.505 -1.1387 -5.0748 -2.0230
  117MOL0     H15429  -0.079  10.660   6.683 -0.4750  0.7103 -2.6845
  117MOL0     H15430   0.039   9.948   5.404 -0.3265 -0.6370 -0.3310
  117MOL0     H15431   0.035  10.146   5.256 -2.5655 -1.8361  0.8450
  117MOL0     H15432   0.392  10.550   5.194 -1.0379 -0.0359 -0.0885
  117MOL0     H15433   0.431  10.767   5.084  1.0478 -1.3184  2.7431
  117MOL0     H15434   0.378  10.943   4.922 -0.2179 -1.0761 -0.5082
  117MOL0     H15435   0.451  10.973   5.075  1.4911 -2.0187 -1.8296
  117MOL0     H15436   0.446  11.163   4.905 -1.4322 -0.1219 -2.4621
  117MOL0     H15437   0.279  11.172   4.902 -0.2706  0.9815  0.0832
  117MOL0     H15438   0.255  11.253   5.142 -0.2456  2.8292 -0.7025
  117MOL0     H15439   0.350  11.351   5.048  0.8125  0.4699  0.3072
  117MOL0     H15440   0.461  11.321   5.267 -1.8952  1.4968 -1.9642
  117MOL0     H15441   0.484  11.143   5.240 -0.2059  0.5595  1.3414
  117MOL0     H15442   0.792  11.282   5.003  0.0747  1.6233  1.6771
  117MOL0     H15443   0.017  10.856   5.195 -0.1023  0.6246  1.8422
  117MOL0     H15444  -0.005  10.629   5.283 -1.0051  2.2586 -0.9670
  118MOL0     O15445   9.853   4.867   6.442 -0.1178 -1.5333  0.3723
  118MOL0     C15446   9.793   4.985   6.430  0.0547  0.6757 -0.9103
  118MOL0     O15447   9.673   5.002   6.367  0.2226 -0.6277  0.7921
  118MOL0     C15448   9.627   4.891   6.292 -0.5851 -0.5074  0.0053
  118MOL0     C15449   9.493   4.849   6.306 -0.6575 -0.4411  0.5584
  118MOL0     C15450   9.446   4.746   6.222  0.2798  0.1109  0.3550
  118MOL0     C15451   9.526   4.688   6.122 -0.5221  0.2248 -0.2063
  118MOL0     O15452   9.481   4.598   6.038 -0.2838 -0.1881 -0.2150
  118MOL0     C15453   9.343   4.566   6.010 -0.4685 -0.0031 -0.8745
  118MOL0     C15454   9.351   4.519   5.870  0.3910 -0.2583  0.0521
  118MOL0     C15455   9.201   4.509   5.833 -0.5188 -0.0810  0.1877
  118MOL0     C15456   9.141   4.644   5.798  0.1742  0.8126  0.1513
  118MOL0     C15457   8.990   4.651   5.823  1.0393 -0.3975 -0.3436
  118MOL0     C15458   8.969   4.672   5.977  0.0355 -0.3214  0.2323
  118MOL0     C15459   8.846   4.767   5.990  0.1415 -0.1666 -0.5396
  118MOL0     C15460   8.819   4.790   6.137 -0.5525 -0.2336 -0.3627
  118MOL0     N15461   8.674   4.797   6.169  0.4522 -0.7057 -0.2345
  118MOL0     C15462   8.587   4.884   6.112  0.9008  0.1212  0.2494
  118MOL0     C15463   8.465   4.856   6.167  0.2517  0.3182 -0.7883
  118MOL0     C15464   8.335   4.935   6.141 -0.1442 -0.3759  0.0738
  118MOL0     C15465   8.336   5.052   6.239  0.4217  0.5495 -0.1058
  118MOL0     C15466   8.214   5.150   6.232 -0.2167  0.6572  0.8655
  118MOL0     C15467   8.080   5.091   6.277 -0.1062  0.4090  0.0489
  118MOL0     O15468   7.982   5.188   6.304 -0.6394 -0.1527  0.0692
  118MOL0     C15469   7.931   5.244   6.192 -0.0698  0.0085 -0.2880
  118MOL0     C15470   7.835   5.173   6.119 -0.0940 -0.2794 -0.5573
  118MOL0     C15471   7.779   5.243   6.012  1.3997 -0.0577 -0.0826
  118MOL0     C15472   7.788   5.381   5.981 -0.0807  0.6166  0.0009
  118MOL0     C15473   7.707   5.441   5.879  0.4952  0.4234 -0.8857
  118MOL0     O15474   7.744   5.558   5.838  0.1397 -0.8564  0.1594
  118MOL0     C15475   7.675   5.618   5.740 -0.1446 -0.8022  0.9853
  118MOL0     C15476   7.666   5.571   5.603 -0.8172  0.4710 -0.5246
  118MOL0     C15477   7.599   5.649   5.506 -0.2630 -0.1488 -0.4780
  118MOL0     C15478   7.560   5.778   5.543  1.1691 -0.2878  0.9615
  118MOL0     O15479   7.507   5.863   5.448 -0.9278 -0.4145  0.6381
  118MOL0     C15480   7.394   5.816   5.360  0.2180 -0.1775  0.6219
  118MOL0     C15481   7.262   5.827   5.434 -0.0565 -0.0437  0.0529
  118MOL0     C15482   7.154   5.761   5.355 -0.1113  0.1299  0.3378
  118MOL0     C15483   7.020   5.745   5.425 -0.1483 -1.0722  0.2634
  118MOL0     C15484   6.963   5.881   5.465  0.5567 -0.4240  0.1511
  118MOL0     C15485   6.856   5.871   5.561 -0.1424  0.2217 -0.9731
  118MOL0     C15486   6.724   5.813   5.499 -0.2049  1.4663 -0.1333
  118MOL0     C15487   6.591   5.891   5.533 -0.2104  0.1225 -0.4547
  118MOL0    Cl15488   6.584   5.951   5.707 -0.3793  0.4573  0.2203
  118MOL0     C15489   7.565   5.817   5.678  0.4348  0.0620  0.4267
  118MOL0     C15490   7.623   5.739   5.776  0.7831 -0.4039  0.2996
  118MOL0     O15491   7.617   5.375   5.835  0.5256 -1.1069 -0.3801
  118MOL0     C15492   7.881   5.458   6.052 -0.5517 -0.1634 -0.5717
  118MOL0     C15493   7.950   5.386   6.158 -0.1129  1.3256  0.0445
  118MOL0     N15494   8.475   4.763   6.274 -0.3060  0.2991  0.3626
  118MOL0     N15495   8.600   4.724   6.262 -0.5606  0.7881  0.2430
  118MOL0     C15496   9.657   4.728   6.120 -0.9894  0.4938 -0.0920
  118MOL0     C15497   9.709   4.830   6.199 -0.2779 -0.7916 -1.0829
  118MOL0     C15498   9.861   5.107   6.493 -0.0275  0.4632 -0.4178
  118MOL0     C15499   9.992   5.097   6.537  0.0086  0.7063  0.2989
  118MOL0     C15500  10.052   5.191   6.625  0.8316  0.5883  0.4498
  118MOL0     C15501   9.980   5.304   6.662  0.0563  0.1572 -0.1626
  118MOL0     O15502  10.039   5.417   6.719 -0.0041 -0.0879 -0.2024
  118MOL0     C15503  10.083   5.389   6.857  0.8346 -1.0546 -0.6925
  118MOL0     C15504   9.965   5.344   6.939 -0.4403  1.0677  0.4283
  118MOL0     C15505   9.990   5.203   6.992 -1.5349 -0.5760  0.1588
  118MOL0     C15506  10.125   5.192   7.062 -0.1633  0.0120 -0.1551
  118MOL0     C15507  10.150   5.300   7.160 -0.1725  0.1544  0.7937
  118MOL0     C15508  10.167   5.399   7.226 -0.0410 -0.2270  0.9783
  118MOL0     C15509   9.846   5.307   6.626 -0.8689 -0.0200 -0.3664
  118MOL0     C15510   9.787   5.212   6.549  0.4095  0.1042 -0.3808
  118MOL0     H15511   9.428   4.899   6.378  0.3359 -0.9011  1.8285
  118MOL0     H15512   9.345   4.707   6.217  0.0807  0.3312  2.0313
  118MOL0     H15513   9.280   4.652   6.036  0.9823  1.0268 -0.6186
  118MOL0     H15514   9.302   4.489   6.077  1.3742  0.3039  0.6910
  118MOL0     H15515   9.392   4.419   5.851 -1.8989 -0.6303 -3.7512
  118MOL0     H15516   9.418   4.583   5.812  2.1532 -0.7051  1.4818
  118MOL0     H15517   9.149   4.450   5.909  0.3681 -3.9650 -1.9554
  118MOL0     H15518   9.195   4.451   5.741  1.1107  1.1159 -0.7348
  118MOL0     H15519   9.185   4.728   5.852 -0.1017 -0.1059  1.8773
  118MOL0     H15520   9.175   4.665   5.696 -0.8052 -1.0559 -0.6199
  118MOL0     H15521   8.947   4.558   5.784  1.8047 -0.1768 -1.7823
  118MOL0     H15522   8.944   4.737   5.774 -1.2737 -0.5541  1.3802
  118MOL0     H15523   9.056   4.722   6.022 -0.0949  3.3265 -3.0256
  118MOL0     H15524   8.960   4.570   6.014 -1.8248 -1.3586 -2.7508
  118MOL0     H15525   8.877   4.856   5.934 -1.3299 -0.3497 -1.7074
  118MOL0     H15526   8.763   4.719   5.938 -0.7636 -0.2154  0.9004
  118MOL0     H15527   8.856   4.888   6.168  4.5861 -1.9939  0.1498
  118MOL0     H15528   8.863   4.709   6.197  0.4503  1.0246  0.6634
  118MOL0     H15529   8.601   4.963   6.039 -1.1833  0.9793  0.7141
  118MOL0     H15530   8.243   4.882   6.166 -1.1571 -0.9950 -4.2017
  118MOL0     H15531   8.330   4.970   6.037  1.5436  3.1783  1.0316
  118MOL0     H15532   8.431   5.104   6.225  0.1834  0.5305 -2.1178
  118MOL0     H15533   8.345   5.018   6.343  2.7724 -1.7945 -0.9677
  118MOL0     H15534   8.229   5.230   6.305 -1.2068  0.0623  1.7593
  118MOL0     H15535   8.224   5.191   6.131 -1.5735  1.2475  0.9516
  118MOL0     H15536   8.086   5.035   6.370 -0.1259  0.0931 -0.1368
  118MOL0     H15537   8.036   5.015   6.211  2.1173 -0.2209 -0.8244
  118MOL0     H15538   7.813   5.069   6.140  0.8075 -0.6985 -1.5900
  118MOL0     H15539   7.716   5.181   5.949  0.1716 -1.9217  2.7913
  118MOL0     H15540   7.715   5.479   5.572  2.6883  0.9523  2.8344
  118MOL0     H15541   7.571   5.593   5.417 -0.5942 -1.0503  0.1729
  118MOL0     H15542   7.406   5.711   5.334 -0.0900  0.0656 -0.5620
  118MOL0     H15543   7.391   5.864   5.262 -2.3375 -2.2306 -0.4115
  118MOL0     H15544   7.240   5.928   5.470  0.8394 -0.8199  3.1501
  118MOL0     H15545   7.261   5.774   5.530 -3.6778 -1.6983 -0.6999
  118MOL0     H15546   7.200   5.668   5.321  1.0517  1.7193 -2.8185
  118MOL0     H15547   7.135   5.811   5.260 -1.0757  2.5617  1.7109
  118MOL0     H15548   6.948   5.697   5.358 -2.4105  2.9682 -0.5498
  118MOL0     H15549   7.040   5.690   5.517 -0.8531  2.8994  3.0766
  118MOL0     H15550   6.929   5.924   5.370  2.5113  0.0171 -0.3875
  118MOL0     H15551   7.022   5.962   5.508 -1.0634  0.5783  0.5924
  118MOL0     H15552   6.827   5.971   5.595 -0.1065 -1.2359  4.2467
  118MOL0     H15553   6.884   5.814   5.650 -1.5806 -0.0373 -0.6557
  118MOL0     H15554   6.729   5.790   5.392 -0.9839 -1.5234  0.3728
  118MOL0     H15555   6.707   5.710   5.533 -3.2913  1.9584  0.0733
  118MOL0     H15556   6.505   5.826   5.514 -0.5913  0.1653  1.0174
  118MOL0     H15557   6.590   5.981   5.471 -1.2104  2.1201  2.3019
  118MOL0     H15558   7.527   5.909   5.720  1.4233  0.7350 -0.1243
  118MOL0     H15559   7.635   5.766   5.881  0.9650  1.1350 -0.0935
  118MOL0     H15560   7.904   5.564   6.054  1.5755 -0.5850  0.7896
  118MOL0     H15561   8.025   5.447   6.206  1.6713  1.2302 -2.4347
  118MOL0     H15562   9.722   4.691   6.041  1.0110  2.7400  0.3784
  118MOL0     H15563   9.812   4.866   6.194 -0.0999 -1.0117  0.3890
  118MOL0     H15564  10.048   5.006   6.518 -0.4975  0.6666 -1.0981
  118MOL0     H15565  10.157   5.182   6.652  0.7932 -1.6186  0.0333
  118MOL0     H15566  10.108   5.479   6.914  3.2358 -1.6566 -0.7000
  118MOL0     H15567  10.177   5.334   6.854  0.6805 -1.3501 -0.2549
  118MOL0     H15568   9.941   5.408   7.024 -7.0067 -2.8616  2.2739
  118MOL0     H15569   9.862   5.344   6.902  0.3507 -0.9835 -2.0853
  118MOL0     H15570   9.974   5.134   6.909 -0.3262  0.3554 -0.8789
  118MOL0     H15571   9.922   5.172   7.072 -3.0199 -0.7008 -1.1076
  118MOL0     H15572  10.124   5.107   7.130  0.0208  1.5476  1.8510
  118MOL0     H15573  10.213   5.173   7.000  2.3812  4.1397  1.7529
  118MOL0     H15574  10.165   5.484   7.291 -0.5738  0.4177  0.1337
  118MOL0     H15575   9.795   5.395   6.664 -3.4481 -0.2443 -2.9990
  118MOL0     H15576   9.680   5.226   6.537  0.5992  1.5057 -0.5533
  119MOL0     O15577   8.037   7.088   3.528 -0.3123  0.2053 -0.5076
  119MOL0     C15578   8.012   7.158   3.433  0.7384 -0.8214 -0.5646
  119MOL0     O15579   7.888   7.225   3.414 -0.6500  0.3580 -0.1727
  119MOL0     C15580   7.781   7.173   3.488 -0.7793 -0.0406 -0.0662
  119MOL0     C15581   7.755   7.215   3.616 -0.7547 -0.0386  0.6887
  119MOL0     C15582   7.649   7.160   3.683  0.6608  0.5967  0.3129
  119MOL0     C15583   7.556   7.079   3.611  0.5738 -0.4449 -0.9702
  119MOL0     O15584   7.436   7.051   3.678 -0.1178 -0.0293 -0.1650
  119MOL0     C15585   7.322   7.027   3.599  0.0911  0.3866  0.4887
  119MOL0     C15586   7.280   7.151   3.527  0.0239 -0.7749  0.0570
  119MOL0     C15587   7.240   7.271   3.623 -0.2315 -0.5637  0.1628
  119MOL0     C15588   7.133   7.243   3.732  0.1463 -0.4684  0.0049
  119MOL0     C15589   7.073   7.373   3.795  0.4518 -0.1145 -0.1798
  119MOL0     C15590   6.985   7.358   3.925 -1.1482 -0.5174 -0.5017
  119MOL0     C15591   7.029   7.251   4.022  0.2715 -0.8281  0.8204
  119MOL0     C15592   7.161   7.263   4.096  0.2434  0.0985  0.0236
  119MOL0     N15593   7.164   7.369   4.196  0.8934 -0.4400 -0.1605
  119MOL0     C15594   7.100   7.363   4.325  0.3141  0.1316 -0.3186
  119MOL0     C15595   7.128   7.481   4.388 -0.5475 -1.0429 -0.3601
  119MOL0     C15596   7.086   7.550   4.522  0.2623  0.7767  0.8062
  119MOL0     C15597   6.957   7.613   4.513 -0.4879  0.1110 -0.4413
  119MOL0     C15598   6.955   7.743   4.441 -0.2656  0.1524  0.0149
  119MOL0     C15599   6.919   7.728   4.289 -0.1629  1.0513  0.1745
  119MOL0     O15600   6.903   7.869   4.239  0.1441 -0.3277  0.5549
  119MOL0     C15601   6.886   7.877   4.102  0.0150 -0.5013 -1.1344
  119MOL0     C15602   6.864   7.774   4.010  0.0088  0.4148 -0.2890
  119MOL0     C15603   6.866   7.788   3.874 -0.3408  0.6418  0.8756
  119MOL0     C15604   6.873   7.916   3.820  0.5445 -1.0319  0.2873
  119MOL0     C15605   6.870   7.939   3.676  0.1345 -0.6688 -0.1651
  119MOL0     O15606   6.793   8.044   3.633  0.5947 -0.6250  0.1044
  119MOL0     C15607   6.744   8.044   3.498  0.2690  0.4817 -0.6900
  119MOL0     C15608   6.633   7.956   3.457 -1.1469 -0.1458  0.0444
  119MOL0     C15609   6.597   7.950   3.323 -0.3313 -0.3593  0.5566
  119MOL0     C15610   6.665   8.022   3.225 -0.4270  0.0977 -0.3623
  119MOL0     O15611   6.630   8.015   3.097 -0.8616 -0.3853  0.0477
  119MOL0     C15612   6.702   7.929   3.009  0.3174  0.0928  0.3865
  119MOL0     C15613   6.792   8.024   2.927  0.2343  0.5940  0.1969
  119MOL0     C15614   6.903   7.952   2.857 -0.5569 -0.3515 -0.3266
  119MOL0     C15615   7.009   8.044   2.813  0.5775 -0.3669 -0.2008
  119MOL0     C15616   7.141   7.994   2.760  0.1958  1.0550 -1.2552
  119MOL0     C15617   7.127   7.907   2.636 -0.3987 -0.1263  0.0115
  119MOL0     C15618   7.268   7.868   2.608 -0.1024  1.0369  0.2436
  119MOL0     C15619   7.301   7.799   2.474 -0.0578  0.2056 -0.0189
  119MOL0    Cl15620   7.166   7.672   2.426  0.2950  0.1197 -0.2730
  119MOL0     C15621   6.774   8.105   3.265 -0.0921  0.6046 -0.7431
  119MOL0     C15622   6.817   8.110   3.405  0.0787 -0.7365  0.9014
  119MOL0     O15623   6.912   7.850   3.599 -0.6155 -0.1353 -0.8057
  119MOL0     C15624   6.889   8.028   3.921  0.0835 -0.9506  0.7814
  119MOL0     C15625   6.891   8.004   4.052 -0.9778  0.3170  0.3174
  119MOL0     N15626   7.202   7.554   4.299 -0.3283 -0.3657 -0.4305
  119MOL0     N15627   7.213   7.498   4.185 -0.2418 -1.2218  0.7500
  119MOL0     C15628   7.598   7.026   3.492  0.2789 -0.2347 -0.5694
  119MOL0     C15629   7.711   7.073   3.431  0.1279 -0.6228 -0.5683
  119MOL0     C15630   8.123   7.192   3.349  0.6263 -0.5136  0.0952
  119MOL0     C15631   8.122   7.314   3.278  0.5971  0.1527 -0.1900
  119MOL0     C15632   8.234   7.360   3.201 -0.1538  0.0771 -0.7576
  119MOL0     C15633   8.348   7.275   3.193 -0.5225 -0.3820  0.1629
  119MOL0     O15634   8.467   7.311   3.139  0.3841  0.2967 -0.4165
  119MOL0     C15635   8.479   7.315   3.000  0.0702 -0.2818 -0.9035
  119MOL0     C15636   8.552   7.192   2.963  0.3827  0.9831 -0.7986
  119MOL0     C15637   8.617   7.197   2.821  0.3039 -0.2462  0.9151
  119MOL0     C15638   8.664   7.066   2.772 -0.4660  0.0353  0.2990
  119MOL0     C15639   8.552   6.975   2.750  0.2252  0.0026 -0.3200
  119MOL0     C15640   8.462   6.896   2.745  0.3833 -0.6518 -0.0266
  119MOL0     C15641   8.348   7.152   3.264 -0.2204  0.3564 -1.0813
  119MOL0     C15642   8.242   7.112   3.345  1.1671  0.5105 -0.0438
  119MOL0     H15643   7.820   7.291   3.657  0.2244 -0.0165 -0.8215
  119MOL0     H15644   7.621   7.191   3.783  4.4211  2.4890  0.9513
  119MOL0     H15645   7.241   6.990   3.663 -0.0488  0.2545  0.2401
  119MOL0     H15646   7.343   6.948   3.526  0.1663  1.4762 -0.7175
  119MOL0     H15647   7.194   7.138   3.461 -0.8392 -0.0367  1.0110
  119MOL0     H15648   7.357   7.183   3.456  0.9528  2.7387  2.4232
  119MOL0     H15649   7.202   7.346   3.553  1.7183  0.2151 -0.1311
  119MOL0     H15650   7.326   7.324   3.664 -1.3601  2.0184 -0.6250
  119MOL0     H15651   7.056   7.182   3.685 -0.4382 -1.2189  1.8269
  119MOL0     H15652   7.185   7.186   3.810 -0.9251 -0.9851  0.3654
  119MOL0     H15653   7.014   7.416   3.713  1.0124 -1.4354 -1.3325
  119MOL0     H15654   7.156   7.443   3.810  1.5318 -1.2078 -0.8312
  119MOL0     H15655   6.882   7.348   3.889 -0.9953  0.4536 -1.2451
  119MOL0     H15656   6.984   7.451   3.982  0.3546 -1.3065  0.8602
  119MOL0     H15657   6.961   7.248   4.107 -0.3010 -3.1459  0.3360
  119MOL0     H15658   7.023   7.151   3.978  2.5518 -0.4673 -0.5184
  119MOL0     H15659   7.242   7.288   4.027  0.2304 -0.1309 -0.0747
  119MOL0     H15660   7.198   7.180   4.156  0.6244 -0.7710 -1.3657
  119MOL0     H15661   7.037   7.287   4.371 -1.2251  0.2674 -2.1121
  119MOL0     H15662   7.150   7.636   4.542 -0.6617  1.7301 -0.2490
  119MOL0     H15663   7.083   7.485   4.610 -0.2976  0.5795  0.6443
  119MOL0     H15664   6.915   7.637   4.611  0.0117 -1.6203  0.2302
  119MOL0     H15665   6.894   7.545   4.454 -0.6780 -0.1242  0.0312
  119MOL0     H15666   6.883   7.810   4.488 -1.6343 -1.3709  0.2171
  119MOL0     H15667   7.053   7.791   4.450 -0.2953  0.6768 -2.0237
  119MOL0     H15668   6.825   7.673   4.273  0.3893  0.5062 -1.4185
  119MOL0     H15669   6.994   7.694   4.217 -0.9968 -0.3223 -0.0856
  119MOL0     H15670   6.852   7.674   4.051 -1.1002  0.5372 -0.2931
  119MOL0     H15671   6.854   7.703   3.808  1.9371 -0.7731  2.1455
  119MOL0     H15672   6.585   7.894   3.532  1.5113 -0.0256  1.9932
  119MOL0     H15673   6.511   7.892   3.290 -1.4339  1.2578  0.4868
  119MOL0     H15674   6.625   7.895   2.939 -0.9559  4.6391 -0.7546
  119MOL0     H15675   6.764   7.856   3.063  0.3219  1.9233  3.0201
  119MOL0     H15676   6.835   8.102   2.990 -0.4912 -0.2567  1.8018
  119MOL0     H15677   6.729   8.065   2.847  1.4623  0.2823 -0.9525
  119MOL0     H15678   6.869   7.887   2.777 -3.1448  0.4461  0.0358
  119MOL0     H15679   6.944   7.892   2.939 -0.5999  1.2052  0.8902
  119MOL0     H15680   6.975   8.114   2.735  1.0944 -0.9514 -0.9667
  119MOL0     H15681   7.038   8.115   2.891 -0.5192  1.1161 -1.0871
  119MOL0     H15682   7.181   7.926   2.836 -2.4205 -0.9969 -1.5451
  119MOL0     H15683   7.212   8.076   2.753 -1.2267  2.1851 -4.1517
  119MOL0     H15684   7.079   7.966   2.557 -0.4579 -0.5777 -0.2971
  119MOL0     H15685   7.069   7.815   2.653 -2.7882  1.6595  2.3943
  119MOL0     H15686   7.330   7.958   2.612  2.3115 -0.5304  0.3462
  119MOL0     H15687   7.304   7.798   2.684  0.2964  0.3257 -0.5912
  119MOL0     H15688   7.403   7.762   2.460 -0.7403 -2.2615  1.0283
  119MOL0     H15689   7.287   7.879   2.400 -0.2849 -0.0427 -0.2479
  119MOL0     H15690   6.833   8.164   3.195  4.3616  0.0264  2.1287
  119MOL0     H15691   6.904   8.166   3.436 -0.6942 -0.4052  2.6030
  119MOL0     H15692   6.895   8.132   3.891 -1.5079 -1.4900 -1.6120
  119MOL0     H15693   6.898   8.097   4.108 -0.3637  0.8446 -0.6140
  119MOL0     H15694   7.555   6.942   3.438  6.1250 -4.3431  0.2113
  119MOL0     H15695   7.737   7.033   3.334 -3.6896 -3.5591 -0.6472
  119MOL0     H15696   8.046   7.387   3.303  0.4875 -0.6679  2.1500
  119MOL0     H15697   8.221   7.455   3.152  1.8838 -0.7629 -3.1155
  119MOL0     H15698   8.524   7.410   2.972 -1.8573  1.3360  1.1038
  119MOL0     H15699   8.378   7.310   2.960 -1.5189  0.0159  2.6506
  119MOL0     H15700   8.635   7.174   3.032 -0.4060  0.5377  0.0586
  119MOL0     H15701   8.483   7.107   2.969  0.6087  0.8889  3.1350
  119MOL0     H15702   8.699   7.269   2.819  2.3886 -2.4829 -0.9262
  119MOL0     H15703   8.543   7.238   2.752 -0.8814 -1.5117  1.3888
  119MOL0     H15704   8.716   7.071   2.676  0.7193 -1.1883  0.8487
  119MOL0     H15705   8.736   7.035   2.849 -1.8668  0.0836  1.6946
  119MOL0     H15706   8.384   6.823   2.740 -0.4797  0.3356 -1.9477
  119MOL0     H15707   8.434   7.088   3.251 -0.0199 -0.3500  2.6664
  119MOL0     H15708   8.249   7.024   3.408  2.0817  0.7920  0.2769
  120MOL0     O15709  10.899   6.176   4.431 -0.1564 -0.4340  0.4248
  120MOL0     C15710  10.795   6.163   4.357  0.5235  0.3096 -0.1351
  120MOL0     O15711  10.670   6.155   4.409 -0.7361  0.3073  0.1026
  120MOL0     C15712  10.654   6.146   4.544  0.8265  0.2302  0.0246
  120MOL0     C15713  10.725   6.059   4.633  0.2181 -0.4151  0.5112
  120MOL0     C15714  10.704   6.070   4.767  1.4345  0.1636 -0.0204
  120MOL0     C15715  10.611   6.152   4.816  0.5536  0.3822 -1.1223
  120MOL0     O15716  10.594   6.151   4.957 -0.6972  0.1806  0.2362
  120MOL0     C15717  10.530   6.269   5.021 -0.3817 -0.2751 -0.4665
  120MOL0     C15718  10.480   6.246   5.174 -0.6026  0.1085 -0.1596
  120MOL0     C15719  10.417   6.379   5.236  0.5027 -1.0786 -1.2673
  120MOL0     C15720  10.337   6.345   5.368  0.4895  0.4926 -0.2538
  120MOL0     C15721  10.328   6.439   5.485  1.1672  0.3266 -0.3851
  120MOL0     C15722  10.461   6.482   5.553  0.0613 -0.6038  0.2701
  120MOL0     C15723  10.537   6.359   5.619 -0.1080 -0.5399 -0.2998
  120MOL0     C15724  10.454   6.285   5.723  0.1094 -0.1308 -0.4011
  120MOL0     N15725  10.545   6.203   5.807 -0.2955 -0.2379 -0.1526
  120MOL0     C15726  10.589   6.250   5.933  0.0053  0.5487 -0.5809
  120MOL0     C15727  10.671   6.156   5.972 -0.1306 -0.9755 -0.7456
  120MOL0     C15728  10.751   6.149   6.108 -0.3881 -1.0212  1.1042
  120MOL0     C15729  10.814   6.289   6.132  0.2640  0.6068 -0.0004
  120MOL0     C15730  10.900   6.339   6.003 -0.0416 -0.1953  0.9146
  120MOL0     C15731  11.005   6.448   6.041  0.6611 -1.4232  0.1068
  120MOL0     O15732  11.114   6.408   6.127  0.9069  0.4499 -0.3053
  120MOL0     C15733  11.245   6.385   6.076  1.2918 -0.3281  0.6897
  120MOL0     C15734  11.351   6.406   6.163 -0.2755  0.0919  0.2031
  120MOL0     C15735  11.479   6.390   6.110  0.0361 -0.0071  0.6784
  120MOL0     C15736  11.494   6.345   5.972  0.0686  0.5697  1.1338
  120MOL0     C15737  11.628   6.316   5.922 -0.4966  0.1647 -0.0816
  120MOL0     O15738  11.638   6.270   5.792  0.3179 -0.0113  0.4131
  120MOL0     C15739  11.758   6.288   5.726  0.9639 -0.8360 -0.2238
  120MOL0     C15740  11.882   6.241   5.769 -1.5092  0.3652 -0.0882
  120MOL0     C15741  11.997   6.291   5.705 -0.1917 -0.1864  0.1059
  120MOL0     C15742  12.003   6.386   5.604 -0.9137 -0.0801  0.0653
  120MOL0     O15743  12.126   6.429   5.548  0.3896  1.1093 -0.0319
  120MOL0     C15744  12.126   6.552   5.483 -0.2102  0.0089 -0.4465
  120MOL0     C15745  12.272   6.562   5.426 -0.3626  0.9345 -0.4597
  120MOL0     C15746  12.292   6.698   5.363 -1.4692  1.0904  0.3850
  120MOL0     C15747  12.432   6.728   5.305 -0.5454  0.9493 -0.2051
  120MOL0     C15748  12.443   6.859   5.227 -0.0370 -0.5121 -0.4486
  120MOL0     C15749  12.422   6.987   5.317  0.1271 -0.1774  0.3755
  120MOL0     C15750  12.432   7.114   5.226 -0.5929  0.1144 -0.4383
  120MOL0     C15751  12.345   7.124   5.105 -0.1420  1.3083  0.2814
  120MOL0    Cl15752  12.417   7.041   4.971  0.0074  0.1536  0.3897
  120MOL0     C15753  11.872   6.434   5.562 -0.7925 -0.1586  0.0909
  120MOL0     C15754  11.760   6.388   5.619 -0.3570  0.1816 -0.2393
  120MOL0     O15755  11.717   6.312   6.002 -0.5510  0.4321  0.5605
  120MOL0     C15756  11.385   6.316   5.891  0.7078  1.2695 -0.0700
  120MOL0     C15757  11.255   6.339   5.944  0.3555 -0.1466 -0.3642
  120MOL0     N15758  10.697   6.071   5.867 -0.1178  0.5035 -0.4056
  120MOL0     N15759  10.617   6.086   5.774  0.7160 -0.0614  0.1356
  120MOL0     C15760  10.534   6.229   4.731  0.7360 -0.2751 -0.4737
  120MOL0     C15761  10.554   6.221   4.591  0.6634  0.8952  0.3877
  120MOL0     C15762  10.800   6.175   4.206 -0.1618 -1.3530  0.1629
  120MOL0     C15763  10.693   6.198   4.131  0.3214  0.5344 -0.2275
  120MOL0     C15764  10.702   6.221   3.988  0.9902 -0.6055 -0.1197
  120MOL0     C15765  10.820   6.206   3.919 -1.1130 -0.0036  1.0357
  120MOL0     O15766  10.847   6.232   3.786 -0.5325  0.3251  0.5171
  120MOL0     C15767  10.733   6.251   3.695 -0.9214 -0.5941  0.3892
  120MOL0     C15768  10.776   6.320   3.577 -0.2057 -0.1039  0.2190
  120MOL0     C15769  10.646   6.305   3.485  0.7058 -0.7678 -0.1148
  120MOL0     C15770  10.647   6.369   3.346 -0.3572  1.2196 -0.0406
  120MOL0     C15771  10.626   6.516   3.351  1.0038  0.6709  0.0136
  120MOL0     C15772  10.602   6.633   3.358 -0.8268  0.3935 -1.4411
  120MOL0     C15773  10.941   6.186   3.998  0.2213  0.5307  0.9974
  120MOL0     C15774  10.931   6.184   4.143  1.3814  0.5648 -0.0546
  120MOL0     H15775  10.799   5.984   4.606  1.2081 -0.2897  2.6343
  120MOL0     H15776  10.765   6.003   4.826 -2.3289 -3.3920  0.2533
  120MOL0     H15777  10.445   6.307   4.965 -1.4415  0.2059  1.3969
  120MOL0     H15778  10.593   6.359   5.024 -3.0545  1.7194 -0.3848
  120MOL0     H15779  10.570   6.210   5.223 -0.7712 -0.7093 -0.4421
  120MOL0     H15780  10.401   6.172   5.188  1.1364 -1.3955  2.2755
  120MOL0     H15781  10.357   6.445   5.173 -0.9894  0.0809  1.2411
  120MOL0     H15782  10.494   6.438   5.287 -2.5175  1.3756  0.8192
  120MOL0     H15783  10.233   6.337   5.333 -1.2556  3.8265  3.4203
  120MOL0     H15784  10.371   6.255   5.420  1.1642  0.4106 -0.8204
  120MOL0     H15785  10.254   6.396   5.553 -1.0225  2.3962 -1.2994
  120MOL0     H15786  10.270   6.525   5.451 -0.9232 -0.5641  0.6867
  120MOL0     H15787  10.446   6.559   5.629  1.8730  3.5132 -3.1268
  120MOL0     H15788  10.519   6.541   5.481  1.4165 -0.1473  1.6790
  120MOL0     H15789  10.573   6.294   5.539  1.5698  1.0359 -0.9126
  120MOL0     H15790  10.626   6.391   5.675 -2.1298  0.3435  2.5961
  120MOL0     H15791  10.386   6.217   5.671  0.0472 -2.1619  2.1347
  120MOL0     H15792  10.400   6.368   5.770 -1.4746 -0.8817 -0.8303
  120MOL0     H15793  10.561   6.334   5.995 -2.0113 -0.4829 -0.0180
  120MOL0     H15794  10.842   6.088   6.105  0.9145  0.8169  0.2756
  120MOL0     H15795  10.692   6.119   6.195  1.9870 -2.3581  2.3553
  120MOL0     H15796  10.885   6.273   6.214 -0.6737 -2.2318  0.3673
  120MOL0     H15797  10.743   6.365   6.164 -0.7706  1.7025 -4.2712
  120MOL0     H15798  10.946   6.251   5.956 -2.4155 -0.5070 -1.0282
  120MOL0     H15799  10.835   6.373   5.922 -0.2831 -2.8704 -0.1267
  120MOL0     H15800  10.964   6.540   6.084  2.9951 -0.1012 -0.3624
  120MOL0     H15801  11.052   6.495   5.955  2.3499  0.1184  1.7838
  120MOL0     H15802  11.334   6.428   6.268  4.3765  0.9922  0.9806
  120MOL0     H15803  11.574   6.414   6.157  0.9427  3.2291 -2.3061
  120MOL0     H15804  11.877   6.172   5.853  0.3221  0.8261  0.4199
  120MOL0     H15805  12.096   6.260   5.735 -0.1251 -0.3203 -0.2456
  120MOL0     H15806  12.116   6.642   5.544 -0.8294 -1.2124  1.3255
  120MOL0     H15807  12.056   6.569   5.400 -0.0699 -0.1456 -0.5973
  120MOL0     H15808  12.299   6.473   5.368  1.0509  0.5889  0.6853
  120MOL0     H15809  12.349   6.555   5.502  0.5143 -1.7522 -1.4749
  120MOL0     H15810  12.283   6.772   5.443  1.5155  0.0529  1.7914
  120MOL0     H15811  12.225   6.707   5.277 -0.5133 -4.5047 -1.3022
  120MOL0     H15812  12.503   6.740   5.387  0.1466  1.5220 -0.8700
  120MOL0     H15813  12.464   6.641   5.247 -1.3705  1.5221 -1.5882
  120MOL0     H15814  12.375   6.858   5.141 -0.0407  0.1956 -0.4611
  120MOL0     H15815  12.543   6.861   5.183 -0.9450 -0.4318 -2.6474
  120MOL0     H15816  12.501   6.992   5.392 -0.8590  2.4074  1.3387
  120MOL0     H15817  12.335   6.983   5.383 -0.5553 -2.3438 -0.5634
  120MOL0     H15818  12.411   7.202   5.288 -0.4073 -1.9785  2.7898
  120MOL0     H15819  12.537   7.130   5.198 -0.3490  0.2955  0.5554
  120MOL0     H15820  12.327   7.228   5.076  0.2542  0.7160 -2.3323
  120MOL0     H15821  12.250   7.074   5.125  0.1365  0.4551 -0.4996
  120MOL0     H15822  11.856   6.509   5.485 -0.6215  0.9420  1.1023
  120MOL0     H15823  11.669   6.425   5.574  1.7127  2.2391 -3.1227
  120MOL0     H15824  11.386   6.275   5.791  0.0956 -0.7393  0.6934
  120MOL0     H15825  11.174   6.324   5.873  0.8354 -1.7018 -0.6133
  120MOL0     H15826  10.459   6.299   4.767  0.5079  0.9808 -3.1304
  120MOL0     H15827  10.502   6.293   4.529 -1.6533  1.1310  2.4517
  120MOL0     H15828  10.592   6.176   4.166  0.3175 -0.5210 -0.8557
  120MOL0     H15829  10.608   6.220   3.933  0.4229 -1.8917  0.8372
  120MOL0     H15830  10.654   6.318   3.730 -0.2497  2.4726 -3.3104
  120MOL0     H15831  10.701   6.152   3.664 -1.4583  0.6134 -3.4696
  120MOL0     H15832  10.806   6.423   3.598 -0.8926  0.1717 -0.1227
  120MOL0     H15833  10.854   6.273   3.515  0.0241  0.6239 -0.0533
  120MOL0     H15834  10.570   6.358   3.543 -0.9755 -2.3264 -0.7998
  120MOL0     H15835  10.626   6.198   3.484  1.6388 -1.0551  2.3635
  120MOL0     H15836  10.744   6.373   3.294 -0.4668 -1.2879 -0.5791
  120MOL0     H15837  10.583   6.311   3.280 -0.2320 -0.9081  1.5927
  120MOL0     H15838  10.569   6.734   3.348 -4.2221 -0.6174 -1.6901
  120MOL0     H15839  11.033   6.174   3.941 -2.0200 -4.2732 -2.2360
  120MOL0     H15840  11.019   6.160   4.201  1.8318  3.6275  0.7076
  121MOL0     O15841   9.301   7.444  11.005 -0.1198  0.1928 -0.0063
  121MOL0     C15842   9.257   7.413  10.897  0.0418 -0.0727 -0.5202
  121MOL0     O15843   9.147   7.328  10.876 -0.1378 -1.3534  0.4781
  121MOL0     C15844   9.078   7.288  10.977 -0.7896  0.5604 -0.1508
  121MOL0     C15845   9.146   7.219  11.078 -0.3404  0.0704  0.6138
  121MOL0     C15846   9.064   7.165  11.187 -0.4576 -0.4495  0.1761
  121MOL0     C15847   8.927   7.172  11.183 -0.2327  0.3607  0.0708
  121MOL0     O15848   8.854   7.103  11.271 -0.2803 -0.3264  0.8252
  121MOL0     C15849   8.923   7.005  11.347  0.9205  0.2366  0.6538
  121MOL0     C15850   8.813   6.929  11.404 -1.0312 -0.9104 -0.7274
  121MOL0     C15851   8.730   7.005  11.508 -0.2099  0.0216 -0.5203
  121MOL0     C15852   8.649   6.899  11.599  0.7037 -0.3886 -0.4195
  121MOL0     C15853   8.550   6.966  11.690 -0.1807 -0.3508  0.3724
  121MOL0     C15854   8.622   7.050  11.802 -0.2494  0.9594 -0.5871
  121MOL0     C15855   8.664   6.946  11.918 -0.0643 -0.1888 -0.3079
  121MOL0     C15856   8.701   6.990  12.064  0.1392 -0.1373 -0.1407
  121MOL0     N15857   8.778   7.119  12.076  0.6838  0.1288  1.2008
  121MOL0     C15858   8.915   7.120  12.105  0.9530 -0.0307  0.5556
  121MOL0     C15859   8.932   7.245  12.158  0.3256  0.2935 -0.6376
  121MOL0     C15860   9.068   7.301  12.182 -0.1342 -0.2420 -0.0160
  121MOL0     C15861   9.144   7.329  12.061 -0.3563 -0.1561  0.6264
  121MOL0     C15862   9.067   7.416  11.964 -0.3222 -0.3903  0.8248
  121MOL0     C15863   9.010   7.543  12.006  0.9741  0.7473  0.9367
  121MOL0     O15864   8.950   7.612  11.897 -0.5532  0.1015 -0.1632
  121MOL0     C15865   8.837   7.685  11.915  0.2326 -1.2328  0.2280
  121MOL0     C15866   8.787   7.747  11.801 -0.6390  0.2810 -1.1784
  121MOL0     C15867   8.664   7.810  11.794 -0.4099 -0.5023 -0.0657
  121MOL0     C15868   8.587   7.819  11.908 -0.7005 -0.9121  1.0671
  121MOL0     C15869   8.455   7.885  11.900  0.0146 -0.2720 -0.2501
  121MOL0     O15870   8.426   7.942  12.013  0.3420  0.5028 -0.3052
  121MOL0     C15871   8.308   8.001  12.026  0.1606 -0.2077 -0.1468
  121MOL0     C15872   8.266   8.109  11.941 -0.5824  0.1349 -0.2511
  121MOL0     C15873   8.145   8.167  11.964 -0.0908 -0.2952 -0.9201
  121MOL0     C15874   8.058   8.128  12.067 -0.4889 -0.0191  0.1104
  121MOL0     O15875   7.935   8.181  12.066  0.9619  0.1521  0.1922
  121MOL0     C15876   7.903   8.254  12.177 -0.0362  0.4592 -0.3537
  121MOL0     C15877   7.764   8.293  12.170 -0.8024  0.1765  0.4457
  121MOL0     C15878   7.747   8.385  12.042 -0.9067 -0.0588 -1.1863
  121MOL0     C15879   7.605   8.429  12.012 -0.2069 -1.3473 -0.0690
  121MOL0     C15880   7.611   8.537  11.905 -0.1154 -0.7777  0.5268
  121MOL0     C15881   7.482   8.618  11.884 -0.0914  0.6724 -0.2183
  121MOL0     C15882   7.496   8.731  11.778 -0.2755 -0.0482  0.7335
  121MOL0     C15883   7.363   8.797  11.740 -1.3043  0.2622 -0.6140
  121MOL0    Cl15884   7.233   8.677  11.707 -0.3823 -0.2853  0.6552
  121MOL0     C15885   8.102   8.023  12.153  0.0003 -0.7040 -0.3532
  121MOL0     C15886   8.232   7.968  12.136 -0.0387  0.0751 -0.0017
  121MOL0     O15887   8.396   7.906  11.794 -0.1712 -0.1729 -0.2099
  121MOL0     C15888   8.639   7.773  12.028 -0.2775  0.4973  1.3529
  121MOL0     C15889   8.754   7.684  12.029  0.5229  0.3686 -0.2423
  121MOL0     N15890   8.813   7.308  12.172  0.6041  0.9595  0.0986
  121MOL0     N15891   8.724   7.239  12.118  0.7014 -0.2204 -0.2659
  121MOL0     C15892   8.868   7.253  11.084  0.1355 -0.2046 -0.0048
  121MOL0     C15893   8.939   7.300  10.968  0.4897  0.6191  0.0508
  121MOL0     C15894   9.331   7.465  10.783 -1.1027 -0.2647 -0.0854
  121MOL0     C15895   9.450   7.530  10.785 -0.3813 -0.6731 -0.0821
  121MOL0     C15896   9.528   7.549  10.668  0.3556  0.4389 -0.0013
  121MOL0     C15897   9.489   7.498  10.541  0.6773 -0.2040 -0.0239
  121MOL0     O15898   9.558   7.501  10.423 -0.4052 -0.4012  0.4355
  121MOL0     C15899   9.683   7.577  10.400 -0.5393  1.4486  0.3922
  121MOL0     C15900   9.666   7.700  10.303  0.6068  0.7038  0.5035
  121MOL0     C15901   9.574   7.803  10.362  0.6456  0.1551 -0.0957
  121MOL0     C15902   9.602   7.887  10.485  0.0334 -0.0557  0.3550
  121MOL0     C15903   9.736   7.949  10.505 -0.8873  1.0375 -0.1036
  121MOL0     C15904   9.849   7.997  10.526 -0.5594 -0.0082 -0.5097
  121MOL0     C15905   9.361   7.442  10.542  0.3582  0.4352  0.1813
  121MOL0     C15906   9.284   7.424  10.660  0.1800 -0.3739 -0.5945
  121MOL0     H15907   9.253   7.202  11.089 -0.2360  1.8700  3.1795
  121MOL0     H15908   9.117   7.119  11.270  4.6780  1.5169 -1.5783
  121MOL0     H15909   8.984   7.045  11.428  0.1090 -0.0453  1.4240
  121MOL0     H15910   8.976   6.937  11.280 -1.8428  0.0478 -1.5181
  121MOL0     H15911   8.862   6.846  11.455 -0.9124  0.9840  2.5665
  121MOL0     H15912   8.746   6.880  11.333 -2.8421 -0.3547  0.5348
  121MOL0     H15913   8.649   7.064  11.465 -0.8902  0.2051  0.9652
  121MOL0     H15914   8.793   7.071  11.567 -2.4152  1.7045  0.0871
  121MOL0     H15915   8.589   6.842  11.527 -0.7379 -1.4443  1.5434
  121MOL0     H15916   8.701   6.819  11.653  1.8915 -0.3057 -1.3740
  121MOL0     H15917   8.478   6.898  11.737  1.8920 -2.0052  1.2952
  121MOL0     H15918   8.490   7.038  11.632  0.2244  0.2762  0.7232
  121MOL0     H15919   8.549   7.117  11.847  0.7221  0.8428  1.2673
  121MOL0     H15920   8.706   7.108  11.761 -0.0090 -0.8869 -2.9153
  121MOL0     H15921   8.590   6.866  11.924 -1.2426  0.9854  2.8746
  121MOL0     H15922   8.745   6.883  11.879 -0.0396  0.4562 -1.3579
  121MOL0     H15923   8.764   6.911  12.107  0.2743 -0.7334 -1.4065
  121MOL0     H15924   8.608   7.001  12.120 -1.3015  1.1863 -2.6327
  121MOL0     H15925   8.988   7.041  12.096 -0.3708 -1.0527 -2.3247
  121MOL0     H15926   9.128   7.234  12.244 -0.7207 -0.5892  0.1826
  121MOL0     H15927   9.074   7.395  12.239  2.0043 -0.3636  0.0214
  121MOL0     H15928   9.171   7.235  12.011  0.3595  1.2418 -1.7456
  121MOL0     H15929   9.240   7.371  12.090 -0.0657 -0.0520 -0.4400
  121MOL0     H15930   9.128   7.434  11.875 -3.1426 -2.8599 -1.8497
  121MOL0     H15931   8.987   7.370  11.905  0.7809  0.3727 -1.3987
  121MOL0     H15932   9.086   7.598  12.063  0.9073  2.1961 -0.3004
  121MOL0     H15933   8.929   7.496  12.063  0.3751 -0.5878 -0.9005
  121MOL0     H15934   8.832   7.729  11.703  2.1073 -1.6846  0.3044
  121MOL0     H15935   8.638   7.854  11.698 -3.5155 -0.5986  0.6287
  121MOL0     H15936   8.318   8.145  11.853 -0.2405 -0.5642 -0.3415
  121MOL0     H15937   8.113   8.250  11.901  0.2511 -0.5990 -1.5039
  121MOL0     H15938   7.963   8.346  12.179 -1.7819  1.6606  2.4067
  121MOL0     H15939   7.911   8.202  12.273  0.3023 -0.6915 -0.9979
  121MOL0     H15940   7.729   8.328  12.267  1.3813 -1.6298  1.9815
  121MOL0     H15941   7.702   8.205  12.147 -1.1121  0.5785 -0.3027
  121MOL0     H15942   7.788   8.345  11.949 -0.3482 -1.9247 -0.1906
  121MOL0     H15943   7.795   8.482  12.060  0.7249 -0.7227 -1.7945
  121MOL0     H15944   7.536   8.355  11.969  0.4150  0.5744 -5.0334
  121MOL0     H15945   7.575   8.484  12.101 -0.7093  1.3719 -1.7932
  121MOL0     H15946   7.628   8.489  11.808 -2.1274 -0.2231 -0.1475
  121MOL0     H15947   7.694   8.606  11.926 -0.6738  0.4071 -0.9323
  121MOL0     H15948   7.459   8.675  11.975 -0.3350 -1.4396  1.0979
  121MOL0     H15949   7.397   8.551  11.873  0.5848 -0.2337 -0.0429
  121MOL0     H15950   7.571   8.797  11.821  2.1842  0.0504 -3.2471
  121MOL0     H15951   7.551   8.683  11.696  1.7854  2.9331  0.2442
  121MOL0     H15952   7.386   8.849  11.646  1.9567  1.9706  0.9482
  121MOL0     H15953   7.342   8.874  11.815  3.3768  1.2746 -0.0568
  121MOL0     H15954   8.033   7.992  12.231  0.7221  0.1784  0.6724
  121MOL0     H15955   8.270   7.895  12.207 -1.2097  0.5788  1.1996
  121MOL0     H15956   8.579   7.792  12.116 -0.0900  0.1229  1.5639
  121MOL0     H15957   8.783   7.623  12.114 -0.5785 -1.4197 -1.1172
  121MOL0     H15958   8.761   7.261  11.074  0.3196  0.6336 -1.6643
  121MOL0     H15959   8.880   7.345  10.890  0.3875 -0.4086 -0.4842
  121MOL0     H15960   9.492   7.568  10.877 -0.4057 -0.8482  0.0011
  121MOL0     H15961   9.629   7.585  10.682  0.2123 -0.2426  4.1576
  121MOL0     H15962   9.757   7.507  10.361 -1.5793  0.1692  0.6481
  121MOL0     H15963   9.735   7.614  10.489  0.5226  3.1626 -0.8632
  121MOL0     H15964   9.763   7.746  10.283  1.6360 -2.2787 -2.3672
  121MOL0     H15965   9.627   7.665  10.207 -2.7444 -1.1114  2.3325
  121MOL0     H15966   9.483   7.747  10.387 -0.7064  0.2975 -4.0853
  121MOL0     H15967   9.549   7.875  10.284 -0.5014 -1.9729 -1.7927
  121MOL0     H15968   9.530   7.966  10.464 -0.3278 -0.9794 -2.2063
  121MOL0     H15969   9.575   7.829  10.574  0.9957 -0.0281  0.6780
  121MOL0     H15970   9.944   8.040  10.546 -1.9402  2.5711  1.0205
  121MOL0     H15971   9.323   7.398  10.450  5.1250 -0.1605 -1.8202
  121MOL0     H15972   9.182   7.387  10.650 -0.2034  0.7871 -1.2939
  122MOL0     O15973   2.766   9.888   8.524  1.1545 -0.5110 -0.5196
  122MOL0     C15974   2.711   9.945   8.429  0.6445 -0.9706 -0.1696
  122MOL0     O15975   2.744  10.075   8.377  0.5566 -1.1044 -0.7407
  122MOL0     C15976   2.832  10.156   8.443  0.3751 -1.2561  0.0856
  122MOL0     C15977   2.801  10.297   8.426 -1.3005 -0.1453  0.4020
  122MOL0     C15978   2.883  10.382   8.498 -0.6003 -0.1374  0.2273
  122MOL0     C15979   2.993  10.342   8.575  0.4335  0.5720 -0.4633
  122MOL0     O15980   3.068  10.443   8.645  0.4075 -0.5226 -0.9783
  122MOL0     C15981   3.165  10.410   8.745 -0.6546 -0.6119 -0.2558
  122MOL0     C15982   3.230  10.541   8.795 -0.1629  0.1200  0.2067
  122MOL0     C15983   3.137  10.632   8.855  0.6220  0.2968 -0.2772
  122MOL0     C15984   3.212  10.749   8.915 -0.5932 -0.6472  0.3407
  122MOL0     C15985   3.107  10.834   8.972  0.6163 -0.5647 -0.0448
  122MOL0     C15986   3.156  10.954   9.051 -0.1683 -0.1676 -0.7047
  122MOL0     C15987   3.251  11.048   8.985  0.1711 -0.0140 -0.4987
  122MOL0     C15988   3.185  11.123   8.868 -0.1549 -0.4934 -1.0709
  122MOL0     N15989   3.121  11.243   8.905 -0.5676  0.1412  0.3860
  122MOL0     C15990   3.191  11.370   8.909 -0.7067 -0.9352  0.2863
  122MOL0     C15991   3.104  11.446   8.981  0.6120  0.7099 -0.0729
  122MOL0     C15992   3.116  11.587   9.028  0.6256 -0.1467  0.1205
  122MOL0     C15993   3.128  11.613   9.175  0.6792  0.4332 -0.2236
  122MOL0     C15994   3.235  11.524   9.238  0.0031 -0.4916 -0.2152
  122MOL0     C15995   3.278  11.597   9.369  0.6875  0.7699  0.3925
  122MOL0     O15996   3.407  11.559   9.412  0.0953  0.6923  0.5271
  122MOL0     C15997   3.480  11.606   9.517  1.0253 -0.0627  0.0994
  122MOL0     C15998   3.611  11.576   9.501 -0.0210  0.6659 -0.1673
  122MOL0     C15999   3.704  11.634   9.578  0.0960 -0.4086  0.1668
  122MOL0     C16000   3.667  11.719   9.678 -0.8381  0.1144 -0.4921
  122MOL0     C16001   3.770  11.787   9.758  0.1705 -0.0243 -0.2973
  122MOL0     O16002   3.900  11.761   9.736  0.6369  0.2700 -0.0252
  122MOL0     C16003   3.998  11.817   9.814  0.3764 -0.8928  0.8328
  122MOL0     C16004   4.111  11.734   9.823 -0.2864 -0.4949 -1.3628
  122MOL0     C16005   4.236  11.776   9.876  0.4926 -0.1139 -0.1219
  122MOL0     C16006   4.242  11.903   9.934  0.9206 -0.2772 -0.1258
  122MOL0     O16007   4.350  11.960   9.994 -0.4984 -0.1735 -0.8394
  122MOL0     C16008   4.459  11.989   9.900 -0.1295  0.4671 -1.1359
  122MOL0     C16009   4.432  12.116   9.820  0.2958  0.2004 -0.1494
  122MOL0     C16010   4.554  12.156   9.739 -0.3353  0.0737  0.0974
  122MOL0     C16011   4.676  12.201   9.823  0.2075  0.1723 -0.3055
  122MOL0     C16012   4.790  12.242   9.732  0.3701  0.8920 -0.5285
  122MOL0     C16013   4.924  12.283   9.807  1.0520 -0.5356 -0.0057
  122MOL0     C16014   4.899  12.415   9.890  0.3228  0.6658 -0.5501
  122MOL0     C16015   5.022  12.513   9.915  0.2716  1.7199  0.2616
  122MOL0    Cl16016   4.964  12.683   9.934  0.1717  0.0783  0.0410
  122MOL0     C16017   4.135  11.995   9.912 -0.4843 -0.0998 -0.6408
  122MOL0     C16018   4.016  11.948   9.860 -0.4335 -0.8623  0.3500
  122MOL0     O16019   3.726  11.865   9.847  0.6732  0.1679  0.3410
  122MOL0     C16020   3.525  11.736   9.712 -0.4628 -0.2221 -1.5361
  122MOL0     C16021   3.440  11.674   9.628  0.0990 -0.5324  0.7485
  122MOL0     N16022   2.994  11.368   9.016 -0.3680 -0.2277 -0.7255
  122MOL0     N16023   3.004  11.255   8.968  0.5933  0.6324 -0.3561
  122MOL0     C16024   3.022  10.211   8.582  0.0728 -0.3196 -0.2391
  122MOL0     C16025   2.947  10.118   8.516 -0.9980 -0.9211  0.7464
  122MOL0     C16026   2.596   9.871   8.372 -0.4834 -0.1350  0.7126
  122MOL0     C16027   2.537   9.747   8.420  1.0558 -0.2652  0.6847
  122MOL0     C16028   2.426   9.696   8.359 -0.5777 -1.1755 -0.4034
  122MOL0     C16029   2.364   9.763   8.249  0.8697  0.9348 -0.7501
  122MOL0     O16030   2.236   9.739   8.193  0.2800  0.6427 -0.1622
  122MOL0     C16031   2.163   9.642   8.268  0.4806  0.1202  0.0279
  122MOL0     C16032   2.026   9.609   8.230  0.0061  0.5905 -0.3396
  122MOL0     C16033   2.010   9.487   8.137  0.4017  0.0766  0.2566
  122MOL0     C16034   2.068   9.508   7.997  0.1783  0.3090  0.7406
  122MOL0     C16035   2.019   9.409   7.899 -0.8315  0.0462 -0.6039
  122MOL0     C16036   1.949   9.332   7.839 -0.7502  0.2070  0.2314
  122MOL0     C16037   2.426   9.878   8.200 -0.1403 -0.3529 -0.0739
  122MOL0     C16038   2.534   9.937   8.260 -0.0019  0.0914 -0.9517
  122MOL0     H16039   2.708  10.328   8.379 -2.5842  0.3620  3.1117
  122MOL0     H16040   2.852  10.485   8.516  0.4269 -0.0490  1.6847
  122MOL0     H16041   3.250  10.357   8.701  0.1507  1.0517 -0.8135
  122MOL0     H16042   3.119  10.359   8.830  1.5730  0.1275  1.4938
  122MOL0     H16043   3.299  10.590   8.725  0.3691  2.0077  1.9745
  122MOL0     H16044   3.300  10.521   8.876  0.3801 -1.3140 -0.5704
  122MOL0     H16045   3.076  10.572   8.922 -0.2318  0.9969 -0.4030
  122MOL0     H16046   3.077  10.671   8.772  0.5237  1.3660  0.2783
  122MOL0     H16047   3.300  10.717   8.973 -0.5841  0.0885  0.7507
  122MOL0     H16048   3.254  10.799   8.827 -0.6937  0.6724  1.0150
  122MOL0     H16049   3.045  10.777   9.042  0.5242 -0.2569  0.1317
  122MOL0     H16050   3.044  10.867   8.889 -0.6642 -1.4669  0.5255
  122MOL0     H16051   3.209  10.917   9.140  0.1758 -1.8117 -1.5593
  122MOL0     H16052   3.075  11.021   9.081  1.9498  2.6448 -0.8415
  122MOL0     H16053   3.294  11.116   9.059 -0.4098 -2.2375  2.0891
  122MOL0     H16054   3.331  10.987   8.943 -1.6299 -1.1982 -2.4643
  122MOL0     H16055   3.114  11.060   8.814  2.0591 -1.2771 -3.2811
  122MOL0     H16056   3.265  11.151   8.798  1.6159 -0.5343  0.8660
  122MOL0     H16057   3.290  11.386   8.869 -0.2272 -4.0601  0.0412
  122MOL0     H16058   3.028  11.644   8.996  2.3886  1.9249 -1.3831
  122MOL0     H16059   3.189  11.633   8.960 -0.4758  1.5740  0.0359
  122MOL0     H16060   3.035  11.580   9.223  0.8641  1.9649  1.2786
  122MOL0     H16061   3.147  11.719   9.196 -3.6485  1.2952  0.4018
  122MOL0     H16062   3.209  11.422   9.267 -0.2033 -0.0877  1.0563
  122MOL0     H16063   3.327  11.512   9.181 -2.3334 -0.3641 -4.4750
  122MOL0     H16064   3.209  11.570   9.449 -2.1072  0.8057 -1.8434
  122MOL0     H16065   3.278  11.706   9.373  1.3065  0.7457  1.6185
  122MOL0     H16066   3.638  11.512   9.417  2.2040 -1.2750  1.8735
  122MOL0     H16067   3.808  11.606   9.579 -0.5297 -3.2132 -1.2030
  122MOL0     H16068   4.110  11.639   9.770 -0.4312  0.6354 -3.5165
  122MOL0     H16069   4.322  11.711   9.889  2.0557  1.4173 -2.1867
  122MOL0     H16070   4.475  11.900   9.839  0.2879  0.2926 -0.7784
  122MOL0     H16071   4.556  12.001   9.951 -1.7053  1.2864  1.8944
  122MOL0     H16072   4.400  12.201   9.881 -0.1016 -2.2549  3.3269
  122MOL0     H16073   4.350  12.094   9.751 -0.5415  2.4905  0.0282
  122MOL0     H16074   4.528  12.236   9.669 -0.7675 -1.1199 -1.1526
  122MOL0     H16075   4.572  12.072   9.671 -3.0866 -0.9359  0.4988
  122MOL0     H16076   4.639  12.283   9.885 -1.8262 -1.0163  0.1294
  122MOL0     H16077   4.705  12.111   9.876  1.0628 -0.0638 -1.1389
  122MOL0     H16078   4.760  12.315   9.657  1.4750  3.4303  1.3640
  122MOL0     H16079   4.822  12.153   9.677  0.2382 -1.6283  3.0869
  122MOL0     H16080   5.001  12.301   9.731  1.6720 -0.0507  0.7221
  122MOL0     H16081   4.953  12.209   9.881  3.8065  0.3647 -0.0686
  122MOL0     H16082   4.831  12.475   9.830  1.1505 -0.3195 -2.5750
  122MOL0     H16083   4.857  12.379   9.984  1.1939 -3.1413 -1.4385
  122MOL0     H16084   5.090  12.514   9.830  2.0791  1.9485  1.6661
  122MOL0     H16085   5.080  12.486  10.003  0.8794 -0.4480 -0.7314
  122MOL0     H16086   4.142  12.095   9.953 -2.7626  0.2488 -0.9528
  122MOL0     H16087   3.931  12.017   9.860 -1.7956 -2.4592 -0.8037
  122MOL0     H16088   3.503  11.793   9.801 -0.8961  0.7665 -2.2639
  122MOL0     H16089   3.334  11.687   9.647  0.3547 -0.4912  2.2990
  122MOL0     H16090   3.111  10.173   8.630 -0.1315  0.7722  1.0537
  122MOL0     H16091   2.981  10.018   8.541  2.3628  0.0079  0.3840
  122MOL0     H16092   2.589   9.704   8.506  3.4767  2.7269  0.9196
  122MOL0     H16093   2.368   9.621   8.411  0.1921 -0.6442  1.2787
  122MOL0     H16094   2.146   9.703   8.358 -2.8574  4.2463 -3.0023
  122MOL0     H16095   2.213   9.551   8.301 -2.3935 -2.5017 -2.2304
  122MOL0     H16096   1.974   9.576   8.320  1.0463 -0.3607 -0.0715
  122MOL0     H16097   1.970   9.697   8.197  1.9435  1.9618 -0.1337
  122MOL0     H16098   1.902   9.473   8.126  0.8159 -2.5863 -1.1076
  122MOL0     H16099   2.053   9.398   8.182  1.5475  0.5800  0.1882
  122MOL0     H16100   2.049   9.612   7.968  2.7936  2.1595  4.7407
  122MOL0     H16101   2.176   9.492   7.996  0.3686  1.3370 -1.5768
  122MOL0     H16102   1.887   9.263   7.786 -0.4063 -1.9101  2.4220
  122MOL0     H16103   2.382   9.929   8.115 -0.8898 -2.3232 -0.9337
  122MOL0     H16104   2.573  10.033   8.226  3.4331 -1.0331 -0.5218
  123MOL0     O16105   2.764   3.903   7.923  0.0485 -0.1439  0.4669
  123MOL0     C16106   2.661   3.905   7.847 -0.7972  0.5368 -0.0214
  123MOL0     O16107   2.594   4.022   7.812  0.5612  0.3439  0.2510
  123MOL0     C16108   2.618   4.131   7.889 -0.0669  0.2330 -0.0543
  123MOL0     C16109   2.583   4.139   8.027 -0.4225 -0.3263 -0.0004
  123MOL0     C16110   2.608   4.246   8.105  0.0595 -0.9024 -0.4062
  123MOL0     C16111   2.670   4.359   8.055 -0.0132  0.5996  0.3730
  123MOL0     O16112   2.727   4.463   8.128 -0.1990  0.3015  0.0005
  123MOL0     C16113   2.688   4.475   8.268 -0.4694  0.1322  0.4425
  123MOL0     C16114   2.724   4.610   8.331  0.0187 -0.2349 -0.3410
  123MOL0     C16115   2.629   4.717   8.280 -0.1459 -0.3322  0.5856
  123MOL0     C16116   2.490   4.701   8.310  0.0419  0.8150  1.3748
  123MOL0     C16117   2.417   4.829   8.275 -0.0807  0.4865  0.8267
  123MOL0     C16118   2.260   4.822   8.299  0.2847  0.5500  0.4206
  123MOL0     C16119   2.185   4.718   8.204  0.1652 -0.1173  0.5558
  123MOL0     C16120   2.033   4.707   8.228  0.2659 -0.5870 -0.0024
  123MOL0     N16121   2.013   4.615   8.339 -0.0548 -0.5510  0.1126
  123MOL0     C16122   2.057   4.490   8.346 -0.4915  0.3920 -0.3185
  123MOL0     C16123   2.035   4.447   8.471  0.0321 -0.2734 -0.2644
  123MOL0     C16124   2.066   4.310   8.525  0.1859  0.1183 -0.6405
  123MOL0     C16125   2.201   4.296   8.581 -0.4477  0.2046  0.0887
  123MOL0     C16126   2.306   4.284   8.471 -0.6601 -0.6563 -0.6054
  123MOL0     C16127   2.441   4.269   8.524  0.8188  0.4470  0.6524
  123MOL0     O16128   2.487   4.379   8.612  0.1821  0.8375  0.5525
  123MOL0     C16129   2.616   4.398   8.646  0.3081 -0.3971 -0.0270
  123MOL0     C16130   2.722   4.320   8.606  0.9465  0.3467  0.8886
  123MOL0     C16131   2.851   4.345   8.647 -0.1813  0.0357 -1.0198
  123MOL0     C16132   2.883   4.457   8.734  0.7115 -0.0914  0.8269
  123MOL0     C16133   3.018   4.495   8.770 -0.3739  0.4232 -0.1687
  123MOL0     O16134   3.110   4.406   8.779  0.3080  0.1379 -0.1683
  123MOL0     C16135   3.242   4.434   8.805  0.6691  0.0220  0.0419
  123MOL0     C16136   3.273   4.515   8.910 -0.3868  0.1431 -0.4090
  123MOL0     C16137   3.410   4.530   8.950  0.6982  0.3911  0.0380
  123MOL0     C16138   3.512   4.453   8.876 -0.4939 -0.4169 -0.1357
  123MOL0     O16139   3.648   4.453   8.889 -0.1973 -0.3495 -0.3973
  123MOL0     C16140   3.702   4.567   8.950 -0.2278  0.3722  0.1140
  123MOL0     C16141   3.855   4.574   8.935  0.0423 -0.5683 -0.4234
  123MOL0     C16142   3.915   4.438   8.978 -0.1505  0.3022  0.3531
  123MOL0     C16143   4.067   4.436   8.946  0.8216 -0.9414  0.1672
  123MOL0     C16144   4.142   4.328   9.030  0.5470 -0.5958  0.4160
  123MOL0     C16145   4.121   4.192   8.978  0.2956  0.5671  0.1651
  123MOL0     C16146   4.162   4.155   8.832  0.4474  0.1551 -0.2123
  123MOL0     C16147   4.146   4.007   8.801  0.0197 -0.1708 -0.9616
  123MOL0    Cl16148   4.258   3.902   8.905 -0.4485  0.4677  0.1708
  123MOL0     C16149   3.468   4.376   8.767 -0.0686 -1.1553  0.9834
  123MOL0     C16150   3.335   4.367   8.736  0.2249 -0.2569 -0.4204
  123MOL0     O16151   3.032   4.618   8.779 -0.5959  0.6488  0.2456
  123MOL0     C16152   2.770   4.544   8.767 -0.1299  0.5246  0.3321
  123MOL0     C16153   2.642   4.511   8.719  0.6365 -0.0952 -0.2752
  123MOL0     N16154   1.984   4.552   8.546  0.5035  0.3534 -0.0168
  123MOL0     N16155   1.965   4.653   8.463 -0.2653 -0.2082  0.6182
  123MOL0     C16156   2.697   4.355   7.917 -0.7600 -0.9580  0.6211
  123MOL0     C16157   2.666   4.245   7.830 -0.3778 -0.2739 -0.7339
  123MOL0     C16158   2.595   3.773   7.812 -0.3187  0.7066 -0.3697
  123MOL0     C16159   2.660   3.667   7.737  0.0842 -0.4576 -0.2343
  123MOL0     C16160   2.591   3.552   7.708  1.2367 -0.4411  0.1268
  123MOL0     C16161   2.457   3.539   7.753 -0.4078 -0.2215  0.0067
  123MOL0     O16162   2.375   3.429   7.719  0.3920 -1.0813  0.0013
  123MOL0     C16163   2.425   3.347   7.605  0.0522 -0.1279 -0.1308
  123MOL0     C16164   2.490   3.214   7.662  0.0125  0.6014  0.9757
  123MOL0     C16165   2.515   3.094   7.568 -0.3027 -0.6649  0.3217
  123MOL0     C16166   2.386   3.044   7.509  0.6977 -0.1399 -0.2270
  123MOL0     C16167   2.420   2.937   7.408 -0.2934  0.3956 -0.3908
  123MOL0     C16168   2.436   2.860   7.317  0.6077 -0.4308  0.6391
  123MOL0     C16169   2.397   3.635   7.833  0.4685 -0.3941  0.8418
  123MOL0     C16170   2.466   3.744   7.869 -0.2296 -0.3231 -0.1239
  123MOL0     H16171   2.533   4.050   8.065  1.8093 -1.5247  0.2951
  123MOL0     H16172   2.581   4.240   8.210  0.6991 -2.3764 -0.3107
  123MOL0     H16173   2.737   4.393   8.321 -2.2381 -2.1493 -1.2623
  123MOL0     H16174   2.580   4.462   8.275 -0.6537  1.6385  0.8449
  123MOL0     H16175   2.831   4.631   8.325  0.0102  0.0679  0.3991
  123MOL0     H16176   2.703   4.594   8.438 -1.6360 -1.4699 -0.8103
  123MOL0     H16177   2.640   4.735   8.173 -4.2355  1.5765  0.2921
  123MOL0     H16178   2.661   4.807   8.332 -0.5734 -0.6424  1.4024
  123MOL0     H16179   2.455   4.624   8.240  4.6073  0.0296 -0.3985
  123MOL0     H16180   2.467   4.673   8.413  1.8462  2.4791  2.2856
  123MOL0     H16181   2.435   4.857   8.171 -1.6858  2.1367  0.9598
  123MOL0     H16182   2.459   4.918   8.323  3.2813  0.5232 -1.7472
  123MOL0     H16183   2.218   4.923   8.289  0.0273  0.2301 -4.3647
  123MOL0     H16184   2.246   4.787   8.401 -1.5661 -0.0922 -0.0190
  123MOL0     H16185   2.196   4.754   8.101 -0.2616 -1.2385  0.0962
  123MOL0     H16186   2.243   4.626   8.196 -2.1219 -1.6096  0.3985
  123MOL0     H16187   1.973   4.680   8.141 -1.1818 -0.2264  0.8499
  123MOL0     H16188   1.992   4.804   8.256 -2.4676 -1.7294  0.3168
  123MOL0     H16189   2.109   4.432   8.271  0.1813 -2.4534  2.1447
  123MOL0     H16190   2.068   4.240   8.441  1.1700 -0.2338 -0.3261
  123MOL0     H16191   1.985   4.278   8.591 -0.5518 -1.1351 -2.0883
  123MOL0     H16192   2.208   4.203   8.638 -1.4071 -1.0354 -1.7270
  123MOL0     H16193   2.223   4.384   8.642  1.5682  0.5252 -1.0283
  123MOL0     H16194   2.275   4.201   8.406 -4.4249  1.8129 -2.3473
  123MOL0     H16195   2.293   4.369   8.403 -0.2966  0.1716  0.3339
  123MOL0     H16196   2.514   4.253   8.444  0.1277  2.0040 -0.3464
  123MOL0     H16197   2.425   4.184   8.590  1.5905  0.0575  0.3485
  123MOL0     H16198   2.700   4.227   8.554 -0.3628 -1.1877  3.9612
  123MOL0     H16199   2.935   4.276   8.646  1.6520  2.0734  1.0115
  123MOL0     H16200   3.188   4.553   8.967 -0.6035 -0.8949 -0.0007
  123MOL0     H16201   3.438   4.592   9.034 -0.2665 -0.1548  0.7841
  123MOL0     H16202   3.672   4.570   9.055  0.9544  0.6471  0.4538
  123MOL0     H16203   3.659   4.660   8.911 -0.5593  0.4956  0.7551
  123MOL0     H16204   3.888   4.661   8.992 -1.5068  1.6206 -2.6547
  123MOL0     H16205   3.883   4.592   8.830 -0.5808 -2.7368 -1.0212
  123MOL0     H16206   3.866   4.355   8.926 -0.5401  1.7164 -1.6828
  123MOL0     H16207   3.899   4.437   9.086  1.5287  1.3234  0.6497
  123MOL0     H16208   4.078   4.431   8.837  3.3843 -0.3907  0.3441
  123MOL0     H16209   4.095   4.539   8.968  0.4250 -0.4738 -1.4076
  123MOL0     H16210   4.112   4.329   9.135 -0.0411 -1.0664  0.2544
  123MOL0     H16211   4.246   4.363   9.033  0.4956 -0.2889 -0.7396
  123MOL0     H16212   4.013   4.178   8.987 -0.1405  1.5946 -2.5238
  123MOL0     H16213   4.165   4.127   9.054 -0.2007  4.0467  3.7454
  123MOL0     H16214   4.087   4.215   8.779 -0.1093 -0.9227 -0.6861
  123MOL0     H16215   4.261   4.194   8.808  1.9776 -2.2335  1.7443
  123MOL0     H16216   4.168   3.990   8.695 -0.8029 -0.2950 -1.1240
  123MOL0     H16217   4.044   3.969   8.815 -0.0284 -0.3464 -1.7489
  123MOL0     H16218   3.545   4.325   8.711 -0.7462  0.2968 -1.4415
  123MOL0     H16219   3.298   4.318   8.647 -0.9943 -2.0295  0.9846
  123MOL0     H16220   2.783   4.629   8.833 -2.3246  2.4375 -1.5334
  123MOL0     H16221   2.558   4.578   8.730 -1.4738 -2.0442 -2.9288
  123MOL0     H16222   2.746   4.440   7.870 -1.1503  0.1467  2.1142
  123MOL0     H16223   2.687   4.257   7.724 -1.8239  1.6036 -0.8693
  123MOL0     H16224   2.760   3.685   7.699  0.1982  0.5913  0.5005
  123MOL0     H16225   2.640   3.476   7.649 -1.6355 -1.4632 -1.0748
  123MOL0     H16226   2.483   3.405   7.533 -2.7414  3.0938 -0.0149
  123MOL0     H16227   2.336   3.309   7.554 -0.2461 -2.1779  1.7623
  123MOL0     H16228   2.590   3.254   7.678 -0.7190  3.9126 -1.5188
  123MOL0     H16229   2.449   3.178   7.756  3.0722 -3.6748  0.9341
  123MOL0     H16230   2.571   3.022   7.629 -1.1319  0.3715  2.4392
  123MOL0     H16231   2.580   3.129   7.488 -0.0465 -2.1336 -0.1369
  123MOL0     H16232   2.321   3.009   7.589  1.3955 -0.9598 -0.0030
  123MOL0     H16233   2.322   3.122   7.468  1.1761  2.7272  3.9002
  123MOL0     H16234   2.459   2.800   7.232 -0.7054  0.9142 -0.7363
  123MOL0     H16235   2.304   3.620   7.886 -0.9270  2.2209 -0.6815
  123MOL0     H16236   2.410   3.807   7.937 -2.3009  0.7978 -2.6987
  124MOL0     O16237   3.080   5.004   9.769  0.2226  0.8713 -0.4427
  124MOL0     C16238   3.004   5.001   9.866 -0.4590 -0.0477 -0.8070
  124MOL0     O16239   3.001   4.909   9.953 -0.9718  0.4634  0.5240
  124MOL0     C16240   3.039   4.785   9.913 -1.1208  0.3396 -0.3739
  124MOL0     C16241   2.969   4.718   9.805 -0.8505  0.2412 -0.1147
  124MOL0     C16242   3.010   4.596   9.765  0.7613  0.0794  0.7775
  124MOL0     C16243   3.123   4.535   9.821  0.7346  0.1572  0.7251
  124MOL0     O16244   3.168   4.405   9.799  0.1844 -0.0962  0.2669
  124MOL0     C16245   3.065   4.311   9.750 -1.3521 -0.4915 -0.5407
  124MOL0     C16246   3.081   4.254   9.601 -0.1925 -0.4818 -0.7191
  124MOL0     C16247   3.049   4.355   9.482 -0.6041  0.0802 -0.5654
  124MOL0     C16248   3.052   4.286   9.344  0.5541  0.3553  0.4169
  124MOL0     C16249   2.983   4.381   9.236 -0.3993  0.3743 -0.8444
  124MOL0     C16250   2.954   4.296   9.094 -0.0510 -1.0098 -0.6146
  124MOL0     C16251   2.879   4.168   9.117 -0.3094  0.6066 -0.8170
  124MOL0     C16252   2.835   4.093   8.979 -0.4680  0.1573 -0.9957
  124MOL0     N16253   2.756   3.967   9.005  0.1303  0.4259  0.3376
  124MOL0     C16254   2.625   3.967   9.040  0.1552  0.0756  0.7553
  124MOL0     C16255   2.588   3.844   9.069 -1.5237 -0.5345 -0.2411
  124MOL0     C16256   2.454   3.809   9.115 -0.8165  0.0598  0.2818
  124MOL0     C16257   2.466   3.742   9.253  0.4910  0.5887 -0.7309
  124MOL0     C16258   2.518   3.596   9.247 -0.7438 -0.8765  0.2989
  124MOL0     C16259   2.488   3.518   9.124  0.3575  0.0507 -0.8896
  124MOL0     O16260   2.533   3.381   9.126  0.2110  0.4227 -0.5992
  124MOL0     C16261   2.671   3.379   9.143  0.0707  0.1071 -0.3047
  124MOL0     C16262   2.758   3.465   9.074  0.3861 -0.9618 -0.2930
  124MOL0     C16263   2.889   3.491   9.116 -0.3446  0.5734 -1.3729
  124MOL0     C16264   2.945   3.410   9.220 -0.5963  0.4802 -0.6196
  124MOL0     C16265   3.090   3.414   9.263  0.3255  0.2911  0.0247
  124MOL0     O16266   3.174   3.439   9.155 -0.1534  1.1256 -0.7448
  124MOL0     C16267   3.310   3.407   9.164  0.4829 -0.6113  0.0594
  124MOL0     C16268   3.356   3.301   9.245 -0.8880 -0.4897  0.0616
  124MOL0     C16269   3.488   3.275   9.256 -0.0115  0.5602 -0.2165
  124MOL0     C16270   3.579   3.349   9.186 -0.2412 -0.4731  0.3617
  124MOL0     O16271   3.721   3.337   9.196  0.9495  0.0299  0.0748
  124MOL0     C16272   3.773   3.236   9.278  0.1229  0.0652  0.0396
  124MOL0     C16273   3.924   3.227   9.255  0.5182  0.8652 -1.5329
  124MOL0     C16274   3.984   3.365   9.280 -0.2275  0.3606 -0.9411
  124MOL0     C16275   4.140   3.345   9.285 -0.7192 -0.1162 -0.2572
  124MOL0     C16276   4.217   3.481   9.291 -0.2425  0.4008 -0.4952
  124MOL0     C16277   4.346   3.475   9.214  0.0558  0.5839  0.3944
  124MOL0     C16278   4.415   3.612   9.224  0.1536 -0.9555  0.3828
  124MOL0     C16279   4.537   3.623   9.121  0.6030 -0.0179 -0.5118
  124MOL0    Cl16280   4.686   3.539   9.176  0.2283  0.1406  0.0170
  124MOL0     C16281   3.538   3.450   9.102  0.6409 -0.1500 -0.1085
  124MOL0     C16282   3.402   3.477   9.088 -0.1397  0.3793  0.2801
  124MOL0     O16283   3.126   3.394   9.381 -0.4754  0.1707  0.8529
  124MOL0     C16284   2.860   3.317   9.284 -0.6459 -0.1311  0.4624
  124MOL0     C16285   2.722   3.308   9.251  0.5026  0.8456 -0.1783
  124MOL0     N16286   2.699   3.762   9.038  0.4802  0.2691 -0.5043
  124MOL0     N16287   2.802   3.836   9.002 -0.3881 -0.5714 -0.3991
  124MOL0     C16288   3.206   4.609   9.910 -0.2026 -0.9922  0.1107
  124MOL0     C16289   3.153   4.725   9.970  0.9499  0.1077  0.9959
  124MOL0     C16290   2.921   5.121   9.901  0.3113  0.5129 -0.3115
  124MOL0     C16291   2.911   5.224   9.810 -0.0937 -0.2354 -0.2956
  124MOL0     C16292   2.819   5.332   9.837  0.3601  0.9995  0.1296
  124MOL0     C16293   2.735   5.330   9.947  0.0201 -0.3032 -0.4551
  124MOL0     O16294   2.635   5.422   9.978 -0.3808 -0.3017 -0.1422
  124MOL0     C16295   2.510   5.382   9.919 -0.1356  0.4224 -0.1262
  124MOL0     C16296   2.401   5.364  10.024 -0.6065  0.2344  1.4454
  124MOL0     C16297   2.421   5.258  10.126  0.6167  0.2469  0.6283
  124MOL0     C16298   2.482   5.299  10.258  0.8459  0.3633  0.1384
  124MOL0     C16299   2.528   5.174  10.331 -0.3745 -0.4595 -0.2817
  124MOL0     C16300   2.574   5.065  10.369 -0.5331  0.0711 -0.7249
  124MOL0     C16301   2.765   5.232  10.044  0.4766 -0.0181 -0.8562
  124MOL0     C16302   2.841   5.120  10.011  1.5100  0.1500  0.8305
  124MOL0     H16303   2.880   4.761   9.760 -2.6767 -0.9345  2.1432
  124MOL0     H16304   2.953   4.538   9.692  0.7297 -2.6605  2.8029
  124MOL0     H16305   2.964   4.349   9.762 -1.3692 -1.2583  2.5241
  124MOL0     H16306   3.083   4.237   9.828  2.8312  0.7768 -0.0565
  124MOL0     H16307   3.010   4.174   9.583 -1.8440  1.2110 -2.1863
  124MOL0     H16308   3.175   4.200   9.582 -1.2059 -1.4990 -3.3550
  124MOL0     H16309   3.121   4.437   9.478 -2.7268  1.9691 -3.1354
  124MOL0     H16310   2.959   4.415   9.491 -1.0330  0.0412 -3.6248
  124MOL0     H16311   3.154   4.263   9.312 -0.1742 -0.6430 -1.3271
  124MOL0     H16312   2.997   4.196   9.372 -1.4310  1.8074  1.4595
  124MOL0     H16313   3.046   4.469   9.220  1.5415 -0.4500  1.6725
  124MOL0     H16314   2.884   4.418   9.266 -1.1399 -1.0810 -1.4069
  124MOL0     H16315   3.056   4.279   9.061  0.3271 -0.0233  0.0005
  124MOL0     H16316   2.908   4.360   9.019  1.1179  0.7348  0.1161
  124MOL0     H16317   2.952   4.101   9.163 -1.4412 -1.2884 -1.6672
  124MOL0     H16318   2.789   4.173   9.179  0.4577  0.2388  0.3484
  124MOL0     H16319   2.920   4.068   8.915  0.0822 -1.3433  0.2540
  124MOL0     H16320   2.779   4.165   8.919  1.1305  1.4723 -0.9970
  124MOL0     H16321   2.549   4.044   9.036 -1.3748 -1.0707  4.1427
  124MOL0     H16322   2.399   3.756   9.036 -1.2864 -1.1699  1.3868
  124MOL0     H16323   2.393   3.899   9.118  0.3036  1.0151 -2.5917
  124MOL0     H16324   2.361   3.740   9.284  0.7375 -0.0154  0.0998
  124MOL0     H16325   2.523   3.798   9.327 -5.0310  0.3249  4.5335
  124MOL0     H16326   2.625   3.592   9.269 -0.9822 -2.0252  1.4033
  124MOL0     H16327   2.463   3.552   9.331 -1.0115 -1.5655 -0.2270
  124MOL0     H16328   2.531   3.565   9.035 -0.4352  1.8596 -0.3868
  124MOL0     H16329   2.378   3.525   9.123  0.3388  1.1744  1.6381
  124MOL0     H16330   2.736   3.518   8.981 -1.7677 -1.1959  0.0276
  124MOL0     H16331   2.963   3.555   9.069  5.1677 -2.7292  1.8266
  124MOL0     H16332   3.292   3.239   9.307 -1.4327 -0.3267 -0.3260
  124MOL0     H16333   3.528   3.206   9.330 -1.7137 -0.7972 -0.5117
  124MOL0     H16334   3.719   3.148   9.244 -2.7640  0.8135  2.2894
  124MOL0     H16335   3.750   3.265   9.382  0.0462  1.2649 -0.2897
  124MOL0     H16336   3.958   3.198   9.156  0.0488 -0.0335 -1.4389
  124MOL0     H16337   3.963   3.158   9.331 -1.4724  2.4706  1.1625
  124MOL0     H16338   3.960   3.394   9.382  2.8634  1.4810 -0.4266
  124MOL0     H16339   3.949   3.439   9.207  0.6280  0.4259 -1.3041
  124MOL0     H16340   4.171   3.284   9.370  0.0855 -2.4165 -2.1030
  124MOL0     H16341   4.177   3.276   9.209 -0.4238  0.8601 -1.0193
  124MOL0     H16342   4.248   3.481   9.396  2.9489 -1.5848 -1.3028
  124MOL0     H16343   4.155   3.571   9.275 -1.2737 -0.0395  0.8577
  124MOL0     H16344   4.330   3.431   9.115  1.6093 -0.1172  0.4192
  124MOL0     H16345   4.425   3.411   9.255  1.3207  0.6812 -1.7343
  124MOL0     H16346   4.331   3.682   9.215 -0.7919 -1.8389  1.8914
  124MOL0     H16347   4.468   3.624   9.319 -0.4880 -0.6776  0.7113
  124MOL0     H16348   4.564   3.728   9.111  0.6751 -0.2265 -3.5020
  124MOL0     H16349   4.488   3.593   9.027  1.4139  3.9116 -2.3802
  124MOL0     H16350   3.614   3.512   9.055  1.5287 -1.4048 -0.3641
  124MOL0     H16351   3.363   3.550   9.018 -2.2435 -0.0297  0.9622
  124MOL0     H16352   2.889   3.248   9.362  1.7290  1.6407  1.2891
  124MOL0     H16353   2.668   3.234   9.310  1.4934  0.2107 -0.0495
  124MOL0     H16354   3.288   4.566   9.967 -0.8722 -0.3068  1.6725
  124MOL0     H16355   3.208   4.772  10.052  0.2890  1.7756  0.5307
  124MOL0     H16356   2.948   5.219   9.709 -3.9188 -0.8621 -1.8252
  124MOL0     H16357   2.802   5.408   9.761 -1.2301  0.4705 -0.0933
  124MOL0     H16358   2.524   5.284   9.873  1.4197  0.2904  0.5801
  124MOL0     H16359   2.472   5.454   9.846 -2.3592  1.0901  1.5616
  124MOL0     H16360   2.395   5.458  10.079  0.8694 -0.3970  2.7975
  124MOL0     H16361   2.304   5.352   9.975 -0.4082 -0.2604  1.1630
  124MOL0     H16362   2.484   5.184  10.077 -0.4889 -0.5570  0.3982
  124MOL0     H16363   2.321   5.220  10.149  1.0510 -1.3242  0.0157
  124MOL0     H16364   2.565   5.368  10.240  1.6022 -0.7842 -1.0368
  124MOL0     H16365   2.410   5.350  10.322  0.4907  0.3152 -0.2182
  124MOL0     H16366   2.630   4.976  10.391  0.4515 -0.0036 -3.2035
  124MOL0     H16367   2.716   5.230  10.141  1.8437 -4.8402  0.0357
  124MOL0     H16368   2.846   5.040  10.084  1.7664 -1.8116 -1.2427
  125MOL0     O16369  10.621   9.506   5.125  0.7376 -0.0770  0.0924
  125MOL0     C16370  10.702   9.466   5.048 -0.2242  0.9312  0.4440
  125MOL0     O16371  10.684   9.384   4.938 -0.4455 -0.1274 -0.2033
  125MOL0     C16372  10.572   9.404   4.861  0.0278  0.6344  0.1100
  125MOL0     C16373  10.546   9.299   4.772 -0.0496  0.5337 -0.5813
  125MOL0     C16374  10.451   9.313   4.665  0.5828  0.2519 -0.4664
  125MOL0     C16375  10.371   9.430   4.655  1.0593 -0.1564 -0.2208
  125MOL0     O16376  10.287   9.466   4.555 -0.4387 -0.1165 -0.2423
  125MOL0     C16377  10.195   9.367   4.514  0.2795  0.5162 -0.3412
  125MOL0     C16378  10.093   9.440   4.423 -0.8051  0.1497  0.1215
  125MOL0     C16379   9.994   9.510   4.513 -0.1099 -0.1173 -0.5146
  125MOL0     C16380   9.876   9.551   4.430  0.1110  1.0904  0.5290
  125MOL0     C16381   9.747   9.617   4.496 -0.4157  0.3546  0.9614
  125MOL0     C16382   9.654   9.663   4.388  1.2961  0.4923  0.2982
  125MOL0     C16383   9.572   9.781   4.453  0.6054 -0.3304 -0.3540
  125MOL0     C16384   9.438   9.811   4.392  0.4020  0.7734  0.1033
  125MOL0     N16385   9.446   9.843   4.247 -0.2353 -0.0146 -0.6955
  125MOL0     C16386   9.471   9.970   4.202  0.0078  0.1839  0.3078
  125MOL0     C16387   9.438   9.962   4.071  0.2079  0.0930 -0.3433
  125MOL0     C16388   9.442  10.092   3.983  0.0211  0.0744  0.2485
  125MOL0     C16389   9.393  10.073   3.841  0.4778  0.1103  0.6118
  125MOL0     C16390   9.387  10.214   3.778  0.1476  0.1018 -0.7177
  125MOL0     C16391   9.331  10.199   3.647  0.0299  0.7964  0.0815
  125MOL0     O16392   9.414  10.103   3.569  0.2321  0.0605 -0.5989
  125MOL0     C16393   9.367  10.003   3.489 -0.4583  0.6641 -0.0962
  125MOL0     C16394   9.231  10.011   3.440 -0.3653  0.4797  1.0959
  125MOL0     C16395   9.188   9.921   3.347 -0.4703  0.5930 -0.6402
  125MOL0     C16396   9.274   9.826   3.294 -0.0663  0.1176  0.7344
  125MOL0     C16397   9.233   9.738   3.184 -1.6603 -0.2785  0.1101
  125MOL0     O16398   9.333   9.665   3.135 -0.2662  0.2999  0.7246
  125MOL0     C16399   9.326   9.575   3.028 -1.1836 -0.0740  0.8977
  125MOL0     C16400   9.227   9.577   2.927  1.1012 -1.0138 -0.7037
  125MOL0     C16401   9.228   9.500   2.814  0.3930 -0.0504 -0.4788
  125MOL0     C16402   9.326   9.404   2.788  0.2864 -1.3500  0.1405
  125MOL0     O16403   9.332   9.332   2.676  0.5558 -0.1775  0.6181
  125MOL0     C16404   9.359   9.192   2.692 -0.4689  0.6466 -0.0543
  125MOL0     C16405   9.224   9.117   2.714 -0.3430  0.3396 -0.2492
  125MOL0     C16406   9.147   9.081   2.583  0.3027 -0.9209 -1.5418
  125MOL0     C16407   9.043   9.186   2.527 -0.0515  0.5380  0.3288
  125MOL0     C16408   8.955   9.242   2.638  0.7591  0.9544  0.0613
  125MOL0     C16409   8.875   9.365   2.596  0.3801 -0.2014 -0.4497
  125MOL0     C16410   8.735   9.324   2.524  0.6838  0.0133 -0.3065
  125MOL0     C16411   8.668   9.443   2.459 -0.3081  0.6119 -0.3122
  125MOL0    Cl16412   8.739   9.463   2.287  0.4820  0.2804  0.1488
  125MOL0     C16413   9.426   9.403   2.888 -0.0840 -0.5291  0.1001
  125MOL0     C16414   9.421   9.477   3.008  0.8299  0.3475  1.0076
  125MOL0     O16415   9.115   9.734   3.149  0.2928 -1.1172  0.3233
  125MOL0     C16416   9.399   9.813   3.344 -0.5322  0.8544 -1.2452
  125MOL0     C16417   9.452   9.901   3.435  0.0203 -0.2542  1.0098
  125MOL0     N16418   9.407   9.835   4.043 -1.0049  0.2755  0.4533
  125MOL0     N16419   9.405   9.761   4.150  1.1049  0.2718  0.1324
  125MOL0     C16420  10.380   9.526   4.760 -0.4298  0.5868  0.7680
  125MOL0     C16421  10.487   9.515   4.854 -0.1081  0.8397  0.1419
  125MOL0     C16422  10.845   9.487   5.076  0.5428  0.4116 -0.1902
  125MOL0     C16423  10.881   9.595   5.151  0.1112 -0.1982 -0.5071
  125MOL0     C16424  11.013   9.616   5.192  0.3943 -0.1741  0.6407
  125MOL0     C16425  11.119   9.524   5.152  0.1942  0.1404  0.2845
  125MOL0     O16426  11.248   9.546   5.183  0.7927 -0.5711  0.5702
  125MOL0     C16427  11.305   9.447   5.271 -0.7237  0.4750 -0.2352
  125MOL0     C16428  11.250   9.455   5.409  0.7103 -0.0426  0.0057
  125MOL0     C16429  11.318   9.383   5.518 -0.8865  0.0923  0.0761
  125MOL0     C16430  11.264   9.424   5.664 -0.4409 -0.2018  0.5507
  125MOL0     C16431  11.139   9.352   5.685  0.8954  0.1484  0.1426
  125MOL0     C16432  11.028   9.305   5.712 -0.4142 -0.0516 -1.0250
  125MOL0     C16433  11.077   9.412   5.073  0.8998  0.4337 -0.5415
  125MOL0     C16434  10.943   9.397   5.034 -0.5581 -0.0588  0.7239
  125MOL0     H16435  10.615   9.216   4.783  1.5568  1.9194  0.1233
  125MOL0     H16436  10.451   9.235   4.590  1.1733 -4.1312  3.5990
  125MOL0     H16437  10.142   9.322   4.599  0.0634 -1.0692 -1.2583
  125MOL0     H16438  10.246   9.286   4.460  0.7120  1.4141 -1.3084
  125MOL0     H16439  10.034   9.371   4.362  2.1101 -1.9670 -0.5238
  125MOL0     H16440  10.137   9.502   4.344 -1.7312 -1.5275 -1.8158
  125MOL0     H16441  10.043   9.601   4.547 -0.0622 -1.3943  3.2256
  125MOL0     H16442   9.955   9.450   4.595 -1.6416 -1.2885 -2.0348
  125MOL0     H16443   9.911   9.624   4.356  2.7077 -0.5336  0.0255
  125MOL0     H16444   9.850   9.463   4.372  3.5121  1.7325 -2.3239
  125MOL0     H16445   9.775   9.704   4.556 -1.8139  1.0142  0.7042
  125MOL0     H16446   9.695   9.547   4.561 -2.3377  1.5632  0.7847
  125MOL0     H16447   9.578   9.587   4.366  2.0709 -1.0391  2.5931
  125MOL0     H16448   9.703   9.679   4.292 -1.9682 -3.2738 -2.3603
  125MOL0     H16449   9.543   9.740   4.551  0.5460 -0.4467 -0.4193
  125MOL0     H16450   9.640   9.866   4.454 -2.2354  2.1141  1.4929
  125MOL0     H16451   9.383   9.888   4.447  1.8893  1.4152  0.7617
  125MOL0     H16452   9.375   9.722   4.398 -1.0100  1.7975  1.1726
  125MOL0     H16453   9.510  10.057   4.255  3.2988 -0.1661 -1.2973
  125MOL0     H16454   9.544  10.131   3.971 -1.5664  5.2725  1.2177
  125MOL0     H16455   9.376  10.165   4.032  0.2822 -1.1950  2.5959
  125MOL0     H16456   9.288  10.043   3.847 -0.0314  0.2851 -3.8752
  125MOL0     H16457   9.455   9.999   3.790  1.5089  1.8778 -0.8186
  125MOL0     H16458   9.336  10.284   3.845  1.3356  0.6362 -0.3532
  125MOL0     H16459   9.487  10.256   3.770  0.6067 -1.2783 -3.2365
  125MOL0     H16460   9.327  10.302   3.610 -2.9283  0.5462 -0.5584
  125MOL0     H16461   9.234  10.150   3.662  1.8188 -2.1082  3.7989
  125MOL0     H16462   9.154  10.078   3.479 -2.9960 -1.3654 -0.5856
  125MOL0     H16463   9.085   9.924   3.312  0.5122 -0.4937 -4.0309
  125MOL0     H16464   9.149   9.652   2.931  2.3694  0.3248 -0.2861
  125MOL0     H16465   9.157   9.517   2.734  0.9181  2.4753 -0.5065
  125MOL0     H16466   9.431   9.174   2.773 -2.2048 -0.3651  1.3256
  125MOL0     H16467   9.404   9.156   2.598 -3.1452  1.3380 -1.6956
  125MOL0     H16468   9.160   9.162   2.790 -0.5179 -3.7689  2.3434
  125MOL0     H16469   9.254   9.023   2.762  3.4081  0.7901 -1.3858
  125MOL0     H16470   9.087   8.992   2.607 -0.4782  0.5983  3.3082
  125MOL0     H16471   9.220   9.059   2.505  0.0994  0.1721 -2.0534
  125MOL0     H16472   9.113   9.263   2.495  1.4621 -0.3236  1.4715
  125MOL0     H16473   8.984   9.155   2.439  3.2967  2.1140 -2.7286
  125MOL0     H16474   9.008   9.275   2.727 -1.0579  2.8003  0.5325
  125MOL0     H16475   8.888   9.163   2.672  1.1924 -0.1342 -1.4650
  125MOL0     H16476   8.933   9.430   2.529  0.7932 -1.1375 -1.0159
  125MOL0     H16477   8.862   9.433   2.681  5.0032 -1.4607  1.5941
  125MOL0     H16478   8.751   9.258   2.438 -1.0770 -1.8869  0.7488
  125MOL0     H16479   8.664   9.285   2.597 -2.3448  0.9882 -2.5288
  125MOL0     H16480   8.684   9.535   2.517 -0.0008  1.4098 -1.6117
  125MOL0     H16481   8.560   9.426   2.454 -0.3762  1.3619 -3.5473
  125MOL0     H16482   9.518   9.351   2.862  1.6278  0.8871  2.8149
  125MOL0     H16483   9.496   9.464   3.085  0.2973 -3.8345  1.0517
  125MOL0     H16484   9.459   9.735   3.300 -0.3300  1.8940 -2.8724
  125MOL0     H16485   9.558   9.897   3.457  0.1830  1.7750  0.7500
  125MOL0     H16486  10.339   9.626   4.757  1.0463  1.2137 -1.7273
  125MOL0     H16487  10.519   9.595   4.920  0.0654 -2.0181  3.8029
  125MOL0     H16488  10.807   9.671   5.174  2.0900  2.0791 -1.2811
  125MOL0     H16489  11.041   9.699   5.256  3.0289 -0.1507 -0.3966
  125MOL0     H16490  11.413   9.446   5.282 -0.5219  2.1551 -1.6680
  125MOL0     H16491  11.282   9.348   5.230 -0.6164 -0.6114  2.1359
  125MOL0     H16492  11.238   9.559   5.441  0.9203 -0.4626  1.5317
  125MOL0     H16493  11.146   9.422   5.403 -0.2427  0.4614  6.7636
  125MOL0     H16494  11.425   9.404   5.512 -0.7832  0.5218  2.4175
  125MOL0     H16495  11.312   9.275   5.503  0.7070  0.1524 -1.3509
  125MOL0     H16496  11.338   9.387   5.735 -1.0757 -2.1071  0.2738
  125MOL0     H16497  11.259   9.531   5.683 -1.5104 -0.0616 -0.3586
  125MOL0     H16498  10.939   9.249   5.733 -0.4505  0.3008 -0.2282
  125MOL0     H16499  11.157   9.343   5.050  0.5679 -0.5876  1.1907
  125MOL0     H16500  10.911   9.312   4.975 -0.5331  0.9636 -0.8384
  126MOL0     O16501   2.526   1.547   5.432 -0.0482 -0.8678  0.6738
  126MOL0     C16502   2.589   1.633   5.496  0.6259 -0.6171  0.2099
  126MOL0     O16503   2.554   1.680   5.619  0.5087  0.3335  0.3016
  126MOL0     C16504   2.420   1.674   5.645 -0.5377 -0.0399  0.3126
  126MOL0     C16505   2.336   1.784   5.630  0.2290 -0.4866 -0.1466
  126MOL0     C16506   2.199   1.767   5.668 -1.3625 -0.3118  1.2152
  126MOL0     C16507   2.139   1.649   5.675  0.0008  0.1836  0.3765
  126MOL0     O16508   2.007   1.635   5.684 -0.2519  0.1030 -0.1988
  126MOL0     C16509   1.951   1.655   5.821 -0.1780  0.4313  0.3097
  126MOL0     C16510   1.803   1.626   5.827  0.4107 -0.3967 -0.0115
  126MOL0     C16511   1.752   1.481   5.848 -0.5456 -0.7273 -0.2015
  126MOL0     C16512   1.599   1.482   5.902 -1.0164 -0.8176  0.5881
  126MOL0     C16513   1.575   1.347   5.980 -0.1061  0.9175 -0.6490
  126MOL0     C16514   1.452   1.357   6.065  0.0538  0.0506 -0.1332
  126MOL0     C16515   1.407   1.228   6.121 -0.7004 -0.9222  0.9825
  126MOL0     C16516   1.520   1.162   6.206 -0.3999 -0.7610 -1.4802
  126MOL0     N16517   1.481   1.035   6.263 -0.1722 -0.0577 -0.2936
  126MOL0     C16518   1.406   1.024   6.373  0.1339  0.3559  0.5603
  126MOL0     C16519   1.371   0.888   6.381  0.8220 -0.6230 -0.0407
  126MOL0     C16520   1.292   0.820   6.484  0.2090  0.0401 -0.0492
  126MOL0     C16521   1.386   0.744   6.586  0.2657 -0.4010  0.2573
  126MOL0     C16522   1.459   0.835   6.692  0.4834 -0.3896 -0.8064
  126MOL0     C16523   1.471   0.758   6.818 -0.0084 -0.2727  0.1622
  126MOL0     O16524   1.339   0.772   6.887  0.0227 -0.2996 -0.8056
  126MOL0     C16525   1.309   0.672   6.977  0.8836 -0.8447 -0.4534
  126MOL0     C16526   1.395   0.578   7.033  0.3760 -0.4491 -0.5837
  126MOL0     C16527   1.357   0.484   7.131  0.1783 -0.0705 -0.5829
  126MOL0     C16528   1.222   0.487   7.179  1.1900 -0.5630 -0.1939
  126MOL0     C16529   1.180   0.392   7.281  0.5698 -0.3300  0.9926
  126MOL0     O16530   1.238   0.275   7.261  0.4259  1.0092  0.6514
  126MOL0     C16531   1.205   0.172   7.339  1.0309  0.1995  0.0285
  126MOL0     C16532   1.315   0.084   7.354  0.3351  1.0693 -0.0594
  126MOL0     C16533   1.296  -0.039   7.432  0.0008  0.0861  0.3730
  126MOL0     C16534   1.174  -0.070   7.479 -0.1062  0.7958 -0.1998
  126MOL0     O16535   1.174  -0.182   7.558  0.1994  0.5033  0.5518
  126MOL0     C16536   1.053  -0.240   7.601  0.8514 -0.1401  0.4648
  126MOL0     C16537   1.078  -0.367   7.682 -0.3783  1.0340  0.2243
  126MOL0     C16538   0.953  -0.455   7.705  0.0150 -0.5628 -1.0155
  126MOL0     C16539   0.867  -0.415   7.825  0.5841  0.9856  1.1279
  126MOL0     C16540   0.777  -0.535   7.876  0.2378 -0.4623  0.6280
  126MOL0     C16541   0.840  -0.613   7.991  0.0625 -0.2154  1.4449
  126MOL0     C16542   0.836  -0.525   8.111 -0.2208 -0.6665 -0.2518
  126MOL0     C16543   0.720  -0.565   8.205 -0.0785  0.8804  0.2930
  126MOL0    Cl16544   0.551  -0.598   8.131  0.7380  0.0192 -0.3200
  126MOL0     C16545   1.064   0.012   7.447  0.6556 -0.5991  0.9483
  126MOL0     C16546   1.078   0.132   7.390 -0.8694 -0.2275  1.2598
  126MOL0     O16547   1.085   0.423   7.357  0.4670 -0.3928 -0.1834
  126MOL0     C16548   1.138   0.598   7.138  0.0163  0.5619  0.9476
  126MOL0     C16549   1.192   0.697   7.049  0.1162 -0.2223  0.3002
  126MOL0     N16550   1.416   0.826   6.264 -0.2184 -0.2466 -0.9840
  126MOL0     N16551   1.473   0.919   6.191 -0.2737 -0.4642  0.1725
  126MOL0     C16552   2.227   1.534   5.685  0.5812  0.6813 -0.7405
  126MOL0     C16553   2.368   1.549   5.677  0.0553  0.0426  0.0877
  126MOL0     C16554   2.728   1.664   5.453  0.0554 -0.6623  0.5980
  126MOL0     C16555   2.820   1.568   5.400  0.3086  0.2299  0.0196
  126MOL0     C16556   2.939   1.616   5.350 -1.4551  0.3290  0.3871
  126MOL0     C16557   2.968   1.757   5.351 -1.3588 -0.3874  0.7637
  126MOL0     O16558   3.090   1.796   5.290  0.0679 -0.4274 -0.3389
  126MOL0     C16559   3.138   1.925   5.310  0.3130 -0.1029 -0.5971
  126MOL0     C16560   3.276   1.934   5.246  0.2294 -0.4555 -0.1307
  126MOL0     C16561   3.265   1.964   5.089  0.4036  0.3303  0.2854
  126MOL0     C16562   3.395   1.931   5.024  0.8111  0.4472 -0.8629
  126MOL0     C16563   3.438   2.038   4.934  0.1996 -0.3493  0.0825
  126MOL0     C16564   3.479   2.138   4.868 -0.7899  0.6069 -0.7833
  126MOL0     C16565   2.887   1.846   5.412 -0.0177 -0.7765 -0.6496
  126MOL0     C16566   2.766   1.804   5.461  0.0687 -0.8897  1.6240
  126MOL0     H16567   2.368   1.884   5.603 -1.6748 -0.1909 -1.5059
  126MOL0     H16568   2.131   1.852   5.680 -2.7942 -1.5636  2.5070
  126MOL0     H16569   1.978   1.750   5.869  1.5034 -1.0006  2.4087
  126MOL0     H16570   2.003   1.588   5.890  1.0320  0.4748 -0.5315
  126MOL0     H16571   1.770   1.675   5.735  0.1641  0.3763  0.4780
  126MOL0     H16572   1.752   1.695   5.895 -0.6015  2.7708 -3.6709
  126MOL0     H16573   1.804   1.419   5.920 -3.7411 -0.5300  2.5279
  126MOL0     H16574   1.760   1.436   5.748  0.1902 -2.2742  0.5340
  126MOL0     H16575   1.573   1.568   5.966  0.9842 -0.3203  0.7931
  126MOL0     H16576   1.540   1.488   5.810  1.2108  1.3759 -0.8128
  126MOL0     H16577   1.660   1.317   6.041  1.4983  0.4661 -2.9552
  126MOL0     H16578   1.550   1.261   5.917 -0.7706  0.1236  0.6683
  126MOL0     H16579   1.371   1.408   6.013 -0.9229 -1.1422  0.1666
  126MOL0     H16580   1.478   1.416   6.154 -2.3775  0.8292  0.1215
  126MOL0     H16581   1.316   1.252   6.177 -1.2476  0.9065 -0.5867
  126MOL0     H16582   1.383   1.153   6.045  2.7256 -2.0561  0.8599
  126MOL0     H16583   1.550   1.227   6.289 -0.6519  1.2903 -2.9136
  126MOL0     H16584   1.614   1.140   6.155  1.2826 -2.8643  2.1079
  126MOL0     H16585   1.393   1.104   6.444  0.4751  1.6909 -0.8181
  126MOL0     H16586   1.225   0.751   6.433  1.0742 -0.1486 -0.9672
  126MOL0     H16587   1.230   0.900   6.526  2.3312  2.4302 -1.2077
  126MOL0     H16588   1.458   0.680   6.536 -1.0738 -1.2955 -0.5755
  126MOL0     H16589   1.320   0.676   6.640  1.4579 -0.6892  1.4209
  126MOL0     H16590   1.558   0.858   6.651  1.2856  1.7778  1.9925
  126MOL0     H16591   1.403   0.927   6.711  1.3175 -0.4800  3.0682
  126MOL0     H16592   1.559   0.798   6.870  2.0143 -4.0839 -0.0163
  126MOL0     H16593   1.490   0.653   6.798  0.0504 -0.7383  2.3998
  126MOL0     H16594   1.502   0.587   7.013  0.2649  2.8359 -0.2743
  126MOL0     H16595   1.415   0.401   7.171 -3.5125 -3.2970 -1.3251
  126MOL0     H16596   1.410   0.108   7.308  0.4856 -2.0156 -1.6849
  126MOL0     H16597   1.389  -0.091   7.451  0.7291  0.0083 -2.7822
  126MOL0     H16598   0.994  -0.270   7.514  0.2120 -0.0869  0.8808
  126MOL0     H16599   0.994  -0.171   7.661  2.8068  0.7050  1.5072
  126MOL0     H16600   1.125  -0.334   7.775  0.3285  0.1306  0.2043
  126MOL0     H16601   1.152  -0.424   7.626 -0.6374  1.2518 -0.3480
  126MOL0     H16602   0.993  -0.557   7.709 -0.0324 -0.5510 -0.0443
  126MOL0     H16603   0.890  -0.465   7.616  0.3407 -1.6121 -1.1490
  126MOL0     H16604   0.928  -0.362   7.898  0.8221  0.8781  1.0101
  126MOL0     H16605   0.795  -0.345   7.782  2.5928  0.6389 -3.4558
  126MOL0     H16606   0.760  -0.605   7.793 -2.1243 -0.5233  1.0910
  126MOL0     H16607   0.677  -0.499   7.902 -1.1804 -1.0142 -3.3105
  126MOL0     H16608   0.944  -0.634   7.966 -0.4038  2.5299 -4.5603
  126MOL0     H16609   0.780  -0.705   7.997  1.6864 -1.4872 -0.4956
  126MOL0     H16610   0.937  -0.535   8.153  1.8749  3.1442 -3.6476
  126MOL0     H16611   0.830  -0.418   8.087  1.3081 -0.9913 -2.3828
  126MOL0     H16612   0.714  -0.492   8.287 -1.0537  2.4906 -1.1388
  126MOL0     H16613   0.755  -0.662   8.240 -1.5800  0.1737 -0.0840
  126MOL0     H16614   0.963  -0.017   7.474  1.0824 -1.2859  1.8773
  126MOL0     H16615   0.993   0.195   7.366  0.5526  0.8229 -1.4352
  126MOL0     H16616   1.034   0.596   7.170  0.6371 -2.1088  3.2626
  126MOL0     H16617   1.120   0.771   7.014 -0.8768 -0.1869  2.2326
  126MOL0     H16618   2.185   1.435   5.700 -1.2325  1.7396  1.6476
  126MOL0     H16619   2.429   1.460   5.693  3.4813  2.5625  2.4795
  126MOL0     H16620   2.800   1.462   5.409 -1.0714  0.6164  2.9705
  126MOL0     H16621   3.009   1.557   5.293 -0.1653 -0.9380  3.1101
  126MOL0     H16622   3.149   1.933   5.419  0.1816 -3.4547 -0.2364
  126MOL0     H16623   3.078   2.006   5.269  1.8273  0.9799 -0.7404
  126MOL0     H16624   3.336   2.018   5.282 -0.0313  0.0038 -0.7540
  126MOL0     H16625   3.333   1.845   5.272  1.3445  0.3234  0.1838
  126MOL0     H16626   3.230   2.064   5.061  1.1609  0.3789 -0.5430
  126MOL0     H16627   3.196   1.885   5.057  0.3391 -0.2406  1.7670
  126MOL0     H16628   3.470   1.931   5.103 -0.8729 -3.5852  1.0292
  126MOL0     H16629   3.404   1.838   4.967 -1.0694 -0.2520 -0.0871
  126MOL0     H16630   3.512   2.215   4.802  3.1537  0.0116  0.2505
  126MOL0     H16631   2.918   1.950   5.409  1.9235 -1.2779  0.1857
  126MOL0     H16632   2.695   1.876   5.500 -0.6800 -0.2381 -0.7494
  127MOL0     O16633   7.125   5.755   4.362  0.0666  0.3996  0.1692
  127MOL0     C16634   7.090   5.734   4.482 -0.7126 -0.2042 -0.7839
  127MOL0     O16635   7.163   5.766   4.598 -0.4412  1.0927  0.4586
  127MOL0     C16636   7.292   5.812   4.577  0.2821 -0.2465 -0.5492
  127MOL0     C16637   7.330   5.875   4.691 -0.8553 -0.9135  0.1259
  127MOL0     C16638   7.458   5.931   4.703 -1.3346 -0.0344  0.2164
  127MOL0     C16639   7.560   5.902   4.609 -0.0915  0.3982  0.5214
  127MOL0     O16640   7.691   5.912   4.633 -0.1418  0.0235  0.3230
  127MOL0     C16641   7.754   6.032   4.675  0.0404  0.8069 -0.0323
  127MOL0     C16642   7.908   6.012   4.676  0.3408 -0.0600  0.5156
  127MOL0     C16643   7.955   5.888   4.752 -0.1323 -0.1400 -0.2746
  127MOL0     C16644   8.050   5.929   4.871  0.4099  0.3975  0.0703
  127MOL0     C16645   8.095   5.805   4.949 -0.4825  0.7075  0.2834
  127MOL0     C16646   7.991   5.730   5.026 -0.5211  0.0891  0.2988
  127MOL0     C16647   7.960   5.810   5.158  0.0422 -0.6397 -0.6579
  127MOL0     C16648   7.870   5.727   5.259  0.2790 -0.1466  0.4494
  127MOL0     N16649   7.745   5.669   5.212  0.2878  0.5249  0.6797
  127MOL0     C16650   7.652   5.742   5.137  0.1447  0.0845 -0.2744
  127MOL0     C16651   7.580   5.648   5.071  0.4376 -0.0234 -0.0263
  127MOL0     C16652   7.471   5.687   4.974 -1.2685  0.7945 -0.1963
  127MOL0     C16653   7.374   5.579   4.931  0.6251  0.2417 -0.9742
  127MOL0     C16654   7.264   5.562   5.040  0.1946  0.1277 -0.6003
  127MOL0     C16655   7.141   5.483   4.990  0.7042  0.3696  0.6846
  127MOL0     O16656   7.054   5.563   4.909 -0.2350 -0.9891 -0.0911
  127MOL0     C16657   6.930   5.593   4.958 -0.2179 -0.4422  0.4805
  127MOL0     C16658   6.840   5.494   4.978  0.0203 -0.4398  0.1333
  127MOL0     C16659   6.702   5.530   5.014  0.1228  0.1991  0.4159
  127MOL0     C16660   6.665   5.665   5.035  0.2240 -0.0014 -0.5832
  127MOL0     C16661   6.532   5.707   5.056  0.4766 -0.6760 -0.9211
  127MOL0     O16662   6.439   5.609   5.044  0.1666  0.6271  0.4364
  127MOL0     C16663   6.305   5.631   5.067 -0.5447 -0.5803 -0.5245
  127MOL0     C16664   6.241   5.724   5.147 -1.4625 -0.7666  0.8071
  127MOL0     C16665   6.105   5.724   5.143  0.5549 -1.1316  0.2592
  127MOL0     C16666   6.020   5.633   5.083 -0.7916  0.9029  0.2978
  127MOL0     O16667   5.884   5.624   5.092 -0.8290  0.7902 -0.2539
  127MOL0     C16668   5.831   5.672   5.215  0.7120 -0.4153  0.2279
  127MOL0     C16669   5.812   5.823   5.218  0.4833 -0.5800  0.1471
  127MOL0     C16670   5.680   5.852   5.268  0.6569  0.8901 -0.4599
  127MOL0     C16671   5.643   6.002   5.278 -0.2164  0.1341 -1.5467
  127MOL0     C16672   5.505   6.042   5.338 -0.1555 -0.1879 -0.5721
  127MOL0     C16673   5.390   6.038   5.231 -0.2591 -0.1066 -0.9348
  127MOL0     C16674   5.281   6.140   5.273 -0.2383  0.0126  0.0590
  127MOL0     C16675   5.171   6.138   5.166 -0.2036  0.1732 -0.1251
  127MOL0    Cl16676   5.046   6.270   5.198  0.4047 -0.3208 -0.1344
  127MOL0     C16677   6.086   5.542   5.002  0.1369  1.0931  0.0174
  127MOL0     C16678   6.230   5.535   4.994 -0.1526 -0.1019 -0.1716
  127MOL0     O16679   6.501   5.821   5.087 -0.6198 -0.3976 -0.1749
  127MOL0     C16680   6.769   5.758   5.015 -1.0325 -0.0554 -0.7918
  127MOL0     C16681   6.889   5.727   4.966 -0.7208  0.7183  0.3879
  127MOL0     N16682   7.618   5.522   5.121 -0.5458  0.3818  0.2180
  127MOL0     N16683   7.720   5.538   5.195  0.7523 -0.5485 -0.3032
  127MOL0     C16684   7.507   5.847   4.488 -1.4266 -0.8735 -0.2202
  127MOL0     C16685   7.379   5.797   4.477  0.8099  0.6855 -0.4823
  127MOL0     C16686   6.961   5.676   4.508 -0.0139  0.2529 -0.0201
  127MOL0     C16687   6.892   5.608   4.407  0.1086 -0.1386  0.2191
  127MOL0     C16688   6.764   5.561   4.420  0.5162 -0.0411 -0.4032
  127MOL0     C16689   6.700   5.578   4.551 -0.3444  0.4602  0.1002
  127MOL0     O16690   6.569   5.533   4.569 -0.0553  0.1878  0.1243
  127MOL0     C16691   6.496   5.548   4.695 -0.5521  0.5941 -0.7539
  127MOL0     C16692   6.424   5.687   4.713 -0.3004  0.2362  0.2673
  127MOL0     C16693   6.337   5.720   4.592  0.2236  0.4114  0.8629
  127MOL0     C16694   6.209   5.648   4.577  0.1568  0.8776  0.6721
  127MOL0     C16695   6.081   5.691   4.628 -0.9854  0.9775 -1.1934
  127MOL0     C16696   5.975   5.730   4.661  0.6070  0.1440 -0.9095
  127MOL0     C16697   6.770   5.631   4.656 -0.0987  0.0180 -0.3797
  127MOL0     C16698   6.897   5.691   4.634 -0.2834 -0.2471 -0.0635
  127MOL0     H16699   7.259   5.892   4.771 -2.3091  0.6901 -1.4280
  127MOL0     H16700   7.492   5.994   4.785  0.3269  2.1885 -2.0513
  127MOL0     H16701   7.723   6.045   4.779  1.0879  0.4161  0.3438
  127MOL0     H16702   7.718   6.108   4.606 -2.9561 -0.2509  0.2266
  127MOL0     H16703   7.935   6.095   4.743 -1.4176  0.2433  0.8795
  127MOL0     H16704   7.944   6.011   4.572 -2.8106  3.0990 -0.8194
  127MOL0     H16705   8.011   5.836   4.674  1.1172  1.0779 -0.2434
  127MOL0     H16706   7.871   5.825   4.783 -0.4836 -0.3242 -1.5404
  127MOL0     H16707   8.139   5.977   4.829  2.4651 -0.4593  3.1365
  127MOL0     H16708   7.999   5.995   4.942 -0.2130  0.1512 -0.1339
  127MOL0     H16709   8.177   5.823   5.018 -1.6124 -1.4470  2.3511
  127MOL0     H16710   8.135   5.741   4.870 -0.0159  4.8686 -3.2161
  127MOL0     H16711   8.028   5.628   5.040  0.7722  0.0085 -2.9088
  127MOL0     H16712   7.896   5.722   4.972 -0.6306  1.0168  0.3404
  127MOL0     H16713   8.051   5.820   5.218 -0.4991 -0.2189  0.0928
  127MOL0     H16714   7.917   5.908   5.136  2.7223  0.2450 -2.5633
  127MOL0     H16715   7.842   5.790   5.344  3.3966 -3.2164  4.1694
  127MOL0     H16716   7.930   5.644   5.299  1.7914  0.8347  0.2990
  127MOL0     H16717   7.645   5.850   5.138  0.0815  0.1140 -1.6546
  127MOL0     H16718   7.523   5.723   4.885  1.2572 -2.4558 -0.2081
  127MOL0     H16719   7.422   5.771   5.025  0.8438  0.9112  1.7828
  127MOL0     H16720   7.441   5.494   4.919  2.5795  1.3909  0.9384
  127MOL0     H16721   7.336   5.609   4.832 -2.1164 -0.6739 -0.2922
  127MOL0     H16722   7.298   5.508   5.128 -2.6068  0.1603  0.5990
  127MOL0     H16723   7.229   5.660   5.075 -1.2367 -1.8975  4.4143
  127MOL0     H16724   7.082   5.428   5.064  1.9182  0.2141  1.5526
  127MOL0     H16725   7.174   5.399   4.927 -0.7537 -0.5374  1.0846
  127MOL0     H16726   6.872   5.390   4.979  1.0923 -0.2279  3.8440
  127MOL0     H16727   6.631   5.449   5.021 -0.2691  0.6436  2.1177
  127MOL0     H16728   6.303   5.792   5.204  1.7032 -1.9994 -0.8995
  127MOL0     H16729   6.069   5.816   5.189 -0.8853 -1.7304  0.3530
  127MOL0     H16730   5.893   5.656   5.305  0.1131  1.9801  1.1430
  127MOL0     H16731   5.740   5.613   5.228  0.0463 -0.7982 -4.6572
  127MOL0     H16732   5.818   5.870   5.119 -0.8746  1.3659  0.9169
  127MOL0     H16733   5.887   5.876   5.278 -0.5417  1.0007  0.0893
  127MOL0     H16734   5.679   5.811   5.369 -0.4977 -1.0369 -1.2065
  127MOL0     H16735   5.604   5.797   5.212 -0.2409  2.7730 -1.1943
  127MOL0     H16736   5.726   6.042   5.338 -0.8185 -1.0402  0.1636
  127MOL0     H16737   5.647   6.050   5.180  0.8345  2.4935 -0.4255
  127MOL0     H16738   5.534   6.140   5.378  1.8813 -0.7744 -0.4977
  127MOL0     H16739   5.468   5.980   5.419  1.1128 -0.5625 -0.2507
  127MOL0     H16740   5.357   5.935   5.218 -2.4688  0.3254  0.6869
  127MOL0     H16741   5.432   6.061   5.133  0.4080  4.4300  0.1511
  127MOL0     H16742   5.235   6.123   5.371 -2.5945  2.9855 -0.3854
  127MOL0     H16743   5.319   6.241   5.290 -0.5231  0.0940  0.2345
  127MOL0     H16744   5.139   6.034   5.158  0.6156 -0.1463  0.5357
  127MOL0     H16745   5.215   6.156   5.068  0.4133 -1.4727 -0.1673
  127MOL0     H16746   6.015   5.483   4.944  1.8210  2.3098 -3.5730
  127MOL0     H16747   6.279   5.470   4.922  2.7524  1.7794 -0.0401
  127MOL0     H16748   6.741   5.862   5.008  0.2776  0.4478  0.8085
  127MOL0     H16749   6.962   5.806   4.952  0.3546  0.0943  2.0952
  127MOL0     H16750   7.563   5.843   4.396 -1.4401  2.7055 -0.5319
  127MOL0     H16751   7.352   5.731   4.396  1.3430 -2.0227  1.4051
  127MOL0     H16752   6.933   5.598   4.307 -2.5279 -0.3685 -0.9136
  127MOL0     H16753   6.698   5.534   4.339 -0.2314  2.2787 -0.6324
  127MOL0     H16754   6.557   5.530   4.784 -1.9395  0.0432  0.1093
  127MOL0     H16755   6.412   5.479   4.684 -4.8299  5.0557  0.0704
  127MOL0     H16756   6.360   5.683   4.801 -2.0662 -1.7019 -0.9947
  127MOL0     H16757   6.504   5.761   4.719  2.2685 -2.0263 -2.4947
  127MOL0     H16758   6.394   5.696   4.502 -2.5287  1.9851 -1.4644
  127MOL0     H16759   6.318   5.828   4.596 -2.4169  0.0178  0.4589
  127MOL0     H16760   6.187   5.654   4.470  3.0636 -0.6021 -0.1087
  127MOL0     H16761   6.220   5.543   4.605 -3.0444 -0.0811 -1.0766
  127MOL0     H16762   5.873   5.753   4.686  0.9124  2.3243 -1.4352
  127MOL0     H16763   6.725   5.649   4.753  1.2293 -0.6832  0.3920
  127MOL0     H16764   6.957   5.736   4.712  2.0760 -2.5299 -0.4328
  128MOL0     O16765   6.483   7.570   8.765  0.7611  0.4633 -0.5191
  128MOL0     C16766   6.574   7.547   8.845  0.3007  0.2809  0.0555
  128MOL0     O16767   6.609   7.433   8.901 -0.4793  0.3494  0.6121
  128MOL0     C16768   6.529   7.328   8.861 -0.3076  0.2359 -0.3458
  128MOL0     C16769   6.525   7.282   8.733  0.9980 -0.6173  0.9760
  128MOL0     C16770   6.436   7.178   8.696 -0.1600 -0.8909  1.3930
  128MOL0     C16771   6.350   7.116   8.791 -0.1309 -0.0435  0.4480
  128MOL0     O16772   6.281   7.005   8.741 -0.0914 -0.0521  0.5930
  128MOL0     C16773   6.139   6.987   8.751 -0.9992  0.2796  0.0483
  128MOL0     C16774   6.087   7.030   8.617  0.4681 -0.5342 -0.2794
  128MOL0     C16775   5.970   6.943   8.566 -0.3740  0.5486 -0.0604
  128MOL0     C16776   6.016   6.812   8.493 -0.4304  0.4605 -0.2301
  128MOL0     C16777   5.913   6.701   8.500  0.3852 -0.9032 -0.0552
  128MOL0     C16778   5.778   6.732   8.433 -1.5415  0.1662 -0.9157
  128MOL0     C16779   5.681   6.611   8.426  0.4523 -0.4724  0.3445
  128MOL0     C16780   5.627   6.575   8.568  0.4905  0.5794 -0.3379
  128MOL0     N16781   5.534   6.463   8.568  0.4786 -0.0795  0.4694
  128MOL0     C16782   5.573   6.335   8.599 -0.2528 -0.5324 -0.2926
  128MOL0     C16783   5.463   6.257   8.568  0.0761 -0.3300 -0.6570
  128MOL0     C16784   5.435   6.113   8.573 -0.4907 -0.6210 -0.6546
  128MOL0     C16785   5.503   6.048   8.700 -0.3161 -1.1633 -0.2130
  128MOL0     C16786   5.439   5.914   8.714  0.2443 -0.3853  0.6235
  128MOL0     C16787   5.486   5.858   8.857  1.2153  0.1479  0.6373
  128MOL0     O16788   5.391   5.764   8.889  0.0012 -0.5541 -0.3685
  128MOL0     C16789   5.419   5.680   9.001  0.2921  0.5894 -0.7430
  128MOL0     C16790   5.545   5.658   9.065  0.4276  0.9236 -0.3150
  128MOL0     C16791   5.555   5.579   9.182  0.5459  1.1541 -0.3512
  128MOL0     C16792   5.432   5.529   9.247 -0.4064  0.2888  0.1840
  128MOL0     C16793   5.447   5.464   9.380  0.2739 -0.5025  1.0871
  128MOL0     O16794   5.576   5.451   9.425  0.0252 -0.4117  0.1037
  128MOL0     C16795   5.598   5.398   9.547 -0.2489 -0.0460  0.6106
  128MOL0     C16796   5.733   5.358   9.569  0.4143 -0.4312 -0.3581
  128MOL0     C16797   5.771   5.295   9.692  1.3765  0.2531  1.0130
  128MOL0     C16798   5.680   5.275   9.795 -0.6748  0.0724  0.1775
  128MOL0     O16799   5.730   5.222   9.914 -0.2499 -0.3064 -0.0442
  128MOL0     C16800   5.682   5.089   9.939  0.2760 -0.2516  0.8895
  128MOL0     C16801   5.709   5.054  10.082 -0.3762  0.5291 -0.3214
  128MOL0     C16802   5.645   4.910  10.106  0.2106  0.0705  0.4979
  128MOL0     C16803   5.696   4.854  10.242 -0.4069  0.0547  0.7549
  128MOL0     C16804   5.627   4.721  10.297  0.1712  0.0868  0.2850
  128MOL0     C16805   5.482   4.754  10.315 -0.0774  0.7029 -0.7847
  128MOL0     C16806   5.437   4.718  10.457 -0.1551 -0.4611  0.5122
  128MOL0     C16807   5.289   4.672  10.465  0.3696 -0.1739  0.3572
  128MOL0    Cl16808   5.192   4.829  10.463 -0.3816 -0.2168 -0.1041
  128MOL0     C16809   5.555   5.331   9.781  0.0548 -0.1043 -0.3121
  128MOL0     C16810   5.520   5.396   9.666 -0.2529 -0.5789  0.3790
  128MOL0     O16811   5.346   5.418   9.435  0.7603 -0.4233 -0.0225
  128MOL0     C16812   5.310   5.558   9.180 -0.0226  0.0670 -0.3764
  128MOL0     C16813   5.305   5.631   9.057 -0.0527 -0.3778 -0.8434
  128MOL0     N16814   5.362   6.347   8.540  0.1155  0.4772  0.8630
  128MOL0     N16815   5.397   6.466   8.545  1.2707  0.3077  0.9223
  128MOL0     C16816   6.356   7.152   8.925  0.2711  1.1717 -0.0147
  128MOL0     C16817   6.445   7.258   8.960 -1.3165 -0.0619  0.0640
  128MOL0     C16818   6.653   7.670   8.885  0.6055  1.1682 -0.3441
  128MOL0     C16819   6.605   7.794   8.850 -0.5389 -0.1588 -0.0403
  128MOL0     C16820   6.679   7.910   8.877  0.6692 -0.0316 -0.5012
  128MOL0     C16821   6.806   7.908   8.939 -0.2688  0.2128 -0.5402
  128MOL0     O16822   6.867   8.030   8.965  0.1300  0.3361  1.3004
  128MOL0     C16823   6.997   8.017   9.023  0.4759 -0.0280 -0.8687
  128MOL0     C16824   7.107   7.981   8.918 -0.1831 -0.2512  0.6948
  128MOL0     C16825   7.113   8.070   8.785 -0.2989  0.1211 -0.5614
  128MOL0     C16826   7.080   8.225   8.785 -1.0106  0.3621  0.7816
  128MOL0     C16827   7.206   8.285   8.820 -0.5368 -0.0125  0.1605
  128MOL0     C16828   7.320   8.322   8.848  0.2968 -0.6399 -0.5262
  128MOL0     C16829   6.852   7.775   8.980  0.4941 -0.7350  0.7345
  128MOL0     C16830   6.778   7.656   8.958 -0.1461  1.1006 -0.6495
  128MOL0     H16831   6.575   7.339   8.656  0.1554 -0.5422  0.4656
  128MOL0     H16832   6.443   7.127   8.601 -4.1608 -1.1026  1.0564
  128MOL0     H16833   6.103   7.045   8.837  2.0827  0.6807  1.2030
  128MOL0     H16834   6.118   6.882   8.772  1.0679 -0.3430 -0.8244
  128MOL0     H16835   6.161   7.037   8.538 -1.6232  1.2111 -2.2291
  128MOL0     H16836   6.054   7.134   8.614 -0.7421 -0.8951 -3.7056
  128MOL0     H16837   5.930   6.993   8.478 -1.3543 -0.9185 -0.4747
  128MOL0     H16838   5.886   6.919   8.633 -2.2479  1.1993 -2.0658
  128MOL0     H16839   6.037   6.840   8.390 -0.8764  0.8417 -0.2160
  128MOL0     H16840   6.114   6.784   8.535  1.1810  3.3064 -1.7535
  128MOL0     H16841   5.915   6.679   8.607 -1.5058 -1.4552 -0.0814
  128MOL0     H16842   5.943   6.620   8.432  0.0498  1.4033 -3.1566
  128MOL0     H16843   5.801   6.762   8.330 -3.7280 -3.5028 -2.6833
  128MOL0     H16844   5.731   6.823   8.472  1.1690  0.4180  2.2532
  128MOL0     H16845   5.595   6.635   8.362  0.1905  0.3958  0.9982
  128MOL0     H16846   5.727   6.519   8.389 -3.2425 -2.4581  0.3094
  128MOL0     H16847   5.563   6.657   8.601  0.9934  0.4969  0.9143
  128MOL0     H16848   5.711   6.564   8.638  0.8208  1.9209 -0.4897
  128MOL0     H16849   5.672   6.308   8.635 -0.1941  1.0453  0.8169
  128MOL0     H16850   5.478   6.065   8.484 -0.2575 -0.0440 -0.8610
  128MOL0     H16851   5.326   6.115   8.564 -0.8858 -1.2382  2.8626
  128MOL0     H16852   5.474   6.106   8.788 -1.2399 -0.5756 -0.8833
  128MOL0     H16853   5.612   6.044   8.699 -0.2902 -4.0187  1.8527
  128MOL0     H16854   5.332   5.935   8.716  0.2813 -0.2157  1.3036
  128MOL0     H16855   5.460   5.852   8.626  3.2391 -2.9498  2.8767
  128MOL0     H16856   5.511   5.935   8.931  0.8447 -0.3259  1.2721
  128MOL0     H16857   5.580   5.803   8.849 -1.6028 -5.0522 -3.1519
  128MOL0     H16858   5.640   5.692   9.024  2.0922 -4.2830 -1.5462
  128MOL0     H16859   5.655   5.555   9.217  1.2503 -0.0688 -2.9222
  128MOL0     H16860   5.808   5.380   9.495  1.3995  1.8775  1.1975
  128MOL0     H16861   5.874   5.262   9.698  1.1984 -0.6778 -0.4005
  128MOL0     H16862   5.738   5.019   9.877  0.7509 -0.0078  1.0335
  128MOL0     H16863   5.575   5.079   9.920  0.7829 -1.7535 -1.6717
  128MOL0     H16864   5.664   5.130  10.147  0.1351 -0.1345  0.8559
  128MOL0     H16865   5.816   5.044  10.105 -0.5298 -0.0535  0.1847
  128MOL0     H16866   5.679   4.845  10.025 -0.2765  0.6889 -0.2170
  128MOL0     H16867   5.536   4.913  10.104  0.2147 -0.0661  0.0244
  128MOL0     H16868   5.804   4.834  10.235 -0.1734  0.3904  2.6912
  128MOL0     H16869   5.670   4.929  10.317  0.8991  0.3729  0.9185
  128MOL0     H16870   5.669   4.700  10.396  0.8682  3.5300  0.8427
  128MOL0     H16871   5.648   4.638  10.229 -1.5547 -2.0289  2.1610
  128MOL0     H16872   5.413   4.703  10.246 -0.9185 -0.2417  0.7125
  128MOL0     H16873   5.460   4.860  10.300 -1.0358  0.7245  0.7038
  128MOL0     H16874   5.501   4.638  10.496 -0.8132 -0.7444  1.0203
  128MOL0     H16875   5.462   4.805  10.519  2.4949  0.7719 -2.0371
  128MOL0     H16876   5.280   4.622  10.562  1.0195 -0.6379  0.1881
  128MOL0     H16877   5.264   4.600  10.387  1.9702 -1.8131  1.2769
  128MOL0     H16878   5.485   5.332   9.864 -0.3035  1.9225 -0.5903
  128MOL0     H16879   5.425   5.447   9.651  0.0541 -0.1248 -0.0629
  128MOL0     H16880   5.225   5.513   9.229  1.8312 -1.0544  2.0566
  128MOL0     H16881   5.212   5.654   9.006 -1.4306  0.7485  1.9570
  128MOL0     H16882   6.299   7.088   8.992  0.1316 -0.6299 -1.7535
  128MOL0     H16883   6.456   7.310   9.054 -1.2388 -0.1725  0.1162
  128MOL0     H16884   6.514   7.797   8.791 -0.4071 -1.0441 -0.3091
  128MOL0     H16885   6.637   8.009   8.861 -1.1842 -0.4883  1.1627
  128MOL0     H16886   6.998   7.957   9.114 -1.0658 -0.0536 -0.8304
  128MOL0     H16887   7.031   8.111   9.068  0.2063 -0.7384  0.8839
  128MOL0     H16888   7.210   7.970   8.956  0.4460  2.3835 -0.0391
  128MOL0     H16889   7.090   7.877   8.888  1.6817 -0.2230 -0.6334
  128MOL0     H16890   7.038   8.017   8.725 -1.5432 -0.6484  1.5501
  128MOL0     H16891   7.215   8.060   8.748 -0.6112  0.5596 -1.5884
  128MOL0     H16892   7.048   8.254   8.685 -3.6812 -2.1705  0.7809
  128MOL0     H16893   7.001   8.261   8.851 -3.1233  1.0298 -1.9134
  128MOL0     H16894   7.416   8.346   8.891 -0.6100 -0.8256  1.7628
  128MOL0     H16895   6.941   7.769   9.042 -0.3261  1.0464  2.1890
  128MOL0     H16896   6.815   7.555   8.973 -2.5343  0.5336  2.6158
  129MOL0     O16897   5.324  10.443   1.092  0.2396  0.0408 -0.3011
  129MOL0     C16898   5.300  10.375   0.994 -0.0281 -0.5730 -0.6068
  129MOL0     O16899   5.289  10.423   0.879 -0.3504 -0.0133 -0.2673
  129MOL0     C16900   5.242  10.549   0.875  0.3030  0.2450  0.2797
  129MOL0     C16901   5.306  10.664   0.813  0.2273 -0.3381 -0.7377
  129MOL0     C16902   5.241  10.782   0.795 -0.7089 -0.1342  0.5414
  129MOL0     C16903   5.106  10.796   0.820 -0.9139 -0.8367 -0.3850
  129MOL0     O16904   5.038  10.913   0.821  0.6483 -0.4335  0.2280
  129MOL0     C16905   5.051  10.992   0.703  0.3030 -0.6156 -0.4753
  129MOL0     C16906   4.911  11.036   0.657 -0.3998 -0.5269 -0.6268
  129MOL0     C16907   4.891  11.056   0.504 -0.1078 -0.1946 -1.2113
  129MOL0     C16908   4.746  11.096   0.474  0.1075  0.9992  0.7603
  129MOL0     C16909   4.734  11.134   0.318 -0.4633  0.6519 -0.5847
  129MOL0     C16910   4.601  11.183   0.266  0.6348 -0.1419 -0.6827
  129MOL0     C16911   4.614  11.304   0.181  0.6203  0.1371 -0.1042
  129MOL0     C16912   4.697  11.276   0.052  0.7009  0.5709  0.3934
  129MOL0     N16913   4.665  11.378  -0.048  0.6469  1.0781  0.4990
  129MOL0     C16914   4.541  11.418  -0.089 -0.0311  0.2058  0.6836
  129MOL0     C16915   4.565  11.520  -0.178 -0.5888  0.4019  0.5721
  129MOL0     C16916   4.471  11.603  -0.254 -0.1184 -0.7149  0.1396
  129MOL0     C16917   4.412  11.734  -0.199 -0.3242 -0.3371 -1.1116
  129MOL0     C16918   4.515  11.829  -0.138  0.5226 -0.2915 -0.4828
  129MOL0     C16919   4.625  11.872  -0.232  0.6157 -0.0339  0.1959
  129MOL0     O16920   4.556  11.943  -0.342  0.7857 -0.0989 -0.0660
  129MOL0     C16921   4.506  12.069  -0.323  0.5713 -0.9111 -1.0246
  129MOL0     C16922   4.373  12.103  -0.310 -0.4543  0.5820 -0.1707
  129MOL0     C16923   4.337  12.238  -0.292 -0.9866  0.1664  0.3000
  129MOL0     C16924   4.438  12.337  -0.271  0.1001 -0.2967  0.7264
  129MOL0     C16925   4.409  12.477  -0.254 -0.6116  0.0592 -0.2143
  129MOL0     O16926   4.517  12.549  -0.208 -0.4310 -0.3609  0.3456
  129MOL0     C16927   4.505  12.683  -0.237 -0.1969  0.5059 -0.5904
  129MOL0     C16928   4.598  12.751  -0.320 -0.1548  0.7652 -0.0993
  129MOL0     C16929   4.596  12.885  -0.338  0.5591 -0.8498 -1.5314
  129MOL0     C16930   4.520  12.972  -0.255  0.5111  0.4412 -0.5434
  129MOL0     O16931   4.534  13.106  -0.270  0.7765  1.0216  0.6737
  129MOL0     C16932   4.553  13.158  -0.403 -0.3378 -0.9254  0.3736
  129MOL0     C16933   4.670  13.259  -0.383 -0.2269 -0.0381  0.7632
  129MOL0     C16934   4.802  13.191  -0.346  1.2029  0.9617 -0.2844
  129MOL0     C16935   4.892  13.151  -0.470 -1.6835 -1.3218  0.4251
  129MOL0     C16936   4.923  13.264  -0.576  1.0220  0.4633  0.8125
  129MOL0     C16937   4.970  13.405  -0.539 -0.1530 -1.1331  0.2630
  129MOL0     C16938   4.935  13.519  -0.650  0.2655  0.6428  0.3487
  129MOL0     C16939   5.022  13.503  -0.773 -0.0874 -0.2613  0.2837
  129MOL0    Cl16940   4.965  13.642  -0.881 -0.2259 -0.2564  0.0091
  129MOL0     C16941   4.437  12.907  -0.163  0.2660 -0.0673  0.1162
  129MOL0     C16942   4.429  12.767  -0.149  0.0301  0.7156 -0.4267
  129MOL0     O16943   4.306  12.522  -0.307  0.0563  0.6560  0.1246
  129MOL0     C16944   4.579  12.297  -0.262  0.5841 -0.3769 -0.1760
  129MOL0     C16945   4.606  12.168  -0.291 -0.7516  0.3197  0.2286
  129MOL0     N16946   4.704  11.534  -0.187  0.5093 -0.2723  0.3233
  129MOL0     N16947   4.768  11.444  -0.113  1.0661 -0.5189 -0.1180
  129MOL0     C16948   5.044  10.687   0.880 -0.4092  0.7936  0.7558
  129MOL0     C16949   5.111  10.567   0.906 -0.1077 -0.1933  0.3227
  129MOL0     C16950   5.287  10.223   1.016 -0.1344 -0.7274 -0.4837
  129MOL0     C16951   5.342  10.142   0.922 -0.0064 -0.1574  0.0081
  129MOL0     C16952   5.342  10.003   0.945  1.2741 -0.0279 -0.2114
  129MOL0     C16953   5.283   9.955   1.072 -1.1497 -0.4529 -1.3165
  129MOL0     O16954   5.269   9.825   1.100  0.3752  0.4432  0.1791
  129MOL0     C16955   5.389   9.753   1.101  0.3959  0.7178 -0.3922
  129MOL0     C16956   5.362   9.604   1.147  0.0673  0.2412  0.7562
  129MOL0     C16957   5.489   9.545   1.206  0.5968 -0.6751  0.6552
  129MOL0     C16958   5.473   9.399   1.256  0.3785  0.4894 -0.3660
  129MOL0     C16959   5.585   9.334   1.309  0.0139 -0.1744  0.4987
  129MOL0     C16960   5.682   9.278   1.355  0.9221  0.0918 -0.2223
  129MOL0     C16961   5.233  10.043   1.169  0.5210  0.5474  0.6149
  129MOL0     C16962   5.225  10.174   1.134 -0.2087 -0.6839  0.0097
  129MOL0     H16963   5.411  10.654   0.787  0.9623  1.4699  1.2070
  129MOL0     H16964   5.300  10.860   0.749 -0.6133 -1.8341 -2.4740
  129MOL0     H16965   5.100  10.942   0.619 -2.4613  0.8592 -3.1655
  129MOL0     H16966   5.100  11.087   0.727  0.7043 -1.2012  1.1901
  129MOL0     H16967   4.884  11.126   0.712  1.5323 -0.1039 -0.2944
  129MOL0     H16968   4.832  10.969   0.693 -0.8544  0.7125  0.7458
  129MOL0     H16969   4.908  10.954   0.470  2.0795 -1.0190  1.8597
  129MOL0     H16970   4.962  11.123   0.453 -2.0693  2.3868 -0.7687
  129MOL0     H16971   4.670  11.019   0.495 -0.4638  1.9550  2.3820
  129MOL0     H16972   4.712  11.190   0.518  1.2203  1.7003  0.1619
  129MOL0     H16973   4.773  11.047   0.263  0.1457  0.4188  0.1987
  129MOL0     H16974   4.804  11.217   0.307  1.5630  0.3398  5.8331
  129MOL0     H16975   4.537  11.184   0.354 -1.3572 -2.1834 -2.0067
  129MOL0     H16976   4.561  11.104   0.202  1.9312 -0.3771 -1.2309
  129MOL0     H16977   4.512  11.336   0.156 -1.1710 -4.7743 -0.1401
  129MOL0     H16978   4.659  11.383   0.243  0.3704 -1.6269  2.5074
  129MOL0     H16979   4.672  11.182   0.001  2.4647  0.6678 -0.7141
  129MOL0     H16980   4.801  11.290   0.080  0.4306 -0.6515  2.1460
  129MOL0     H16981   4.446  11.374  -0.062  1.0050  0.4386  5.7898
  129MOL0     H16982   4.384  11.542  -0.279 -1.6107  2.0935 -2.1583
  129MOL0     H16983   4.522  11.628  -0.348  1.1251  2.3883  1.4909
  129MOL0     H16984   4.338  11.701  -0.125  1.9511 -1.6637  0.7379
  129MOL0     H16985   4.366  11.775  -0.289  1.8390  3.5720 -0.6920
  129MOL0     H16986   4.468  11.922  -0.106  3.3237  0.6951  1.1175
  129MOL0     H16987   4.559  11.770  -0.057 -1.6378 -1.9228 -0.3978
  129MOL0     H16988   4.689  11.793  -0.272  0.3214 -0.4848  0.5964
  129MOL0     H16989   4.689  11.942  -0.177  1.8787 -0.2372 -0.9729
  129MOL0     H16990   4.303  12.021  -0.317  1.0750 -0.9532  1.4747
  129MOL0     H16991   4.234  12.271  -0.284 -0.5294  1.0922  4.5640
  129MOL0     H16992   4.677  12.694  -0.368 -0.3456 -0.9092  1.4750
  129MOL0     H16993   4.675  12.918  -0.404  3.6923 -1.4009  1.6510
  129MOL0     H16994   4.463  13.210  -0.438  1.5753  0.7764 -2.3952
  129MOL0     H16995   4.588  13.088  -0.479 -2.3031 -1.3597 -0.1826
  129MOL0     H16996   4.649  13.323  -0.296 -2.4102 -0.0464  0.3133
  129MOL0     H16997   4.682  13.316  -0.475 -0.2823 -3.9602 -1.9059
  129MOL0     H16998   4.806  13.098  -0.288  2.3743  1.5401  0.5945
  129MOL0     H16999   4.850  13.267  -0.284 -1.0609  2.5623 -0.3513
  129MOL0     H17000   4.991  13.121  -0.434 -1.6394  0.3499  1.8073
  129MOL0     H17001   4.862  13.057  -0.519  0.2481 -1.3370 -0.8658
  129MOL0     H17002   4.826  13.276  -0.625  1.7843  0.5380 -0.7206
  129MOL0     H17003   4.982  13.225  -0.660 -1.0608 -0.0832 -0.4769
  129MOL0     H17004   5.080  13.400  -0.540 -0.0354  0.0979 -2.5136
  129MOL0     H17005   4.943  13.452  -0.444 -1.6264 -0.8717 -0.2665
  129MOL0     H17006   4.828  13.506  -0.668 -0.3331  4.7905  0.0286
  129MOL0     H17007   4.962  13.617  -0.609  0.5998  0.4204  0.6657
  129MOL0     H17008   5.011  13.406  -0.822  1.2035  0.7219 -2.1053
  129MOL0     H17009   5.127  13.515  -0.745 -0.0677 -2.8285  1.6086
  129MOL0     H17010   4.369  12.972  -0.109 -0.1662 -1.7014  1.6256
  129MOL0     H17011   4.359  12.725  -0.078 -0.7477  1.1070 -0.9520
  129MOL0     H17012   4.669  12.358  -0.252 -0.9336  2.0685 -0.7395
  129MOL0     H17013   4.712  12.145  -0.287 -0.5200  1.5476  2.5722
  129MOL0     H17014   4.937  10.692   0.901 -0.5294  1.1358  0.0762
  129MOL0     H17015   5.062  10.481   0.952 -0.6404  1.1031  2.3197
  129MOL0     H17016   5.391  10.182   0.834  2.0768  1.3477  1.7343
  129MOL0     H17017   5.386   9.936   0.872 -2.2088 -0.1402 -2.4605
  129MOL0     H17018   5.474   9.804   1.148  0.0587 -0.0831  1.1600
  129MOL0     H17019   5.414   9.749   0.995  0.5466  3.6624 -0.5440
  129MOL0     H17020   5.281   9.606   1.221 -0.7670 -0.5027 -0.1115
  129MOL0     H17021   5.326   9.552   1.058  1.3545 -2.9314  1.9006
  129MOL0     H17022   5.525   9.601   1.294  0.1529  0.5411  0.0905
  129MOL0     H17023   5.560   9.552   1.124 -1.1716  3.0956 -0.8072
  129MOL0     H17024   5.409   9.393   1.345  0.9200  0.6063  0.0338
  129MOL0     H17025   5.429   9.337   1.177  1.4090 -3.6974  2.0209
  129MOL0     H17026   5.772   9.237   1.396  0.7593 -0.7403 -0.6560
  129MOL0     H17027   5.177  10.006   1.255 -0.5728  1.4834  0.3385
  129MOL0     H17028   5.180  10.232   1.214 -0.7568 -1.1560  0.0512
  130MOL0     O17029   3.089   8.079   3.125 -0.5754 -0.9477 -0.0976
  130MOL0     C17030   3.091   8.162   3.035 -0.6361 -1.0206  0.4546
  130MOL0     O17031   3.049   8.142   2.899  0.5825 -0.0725  0.0217
  130MOL0     C17032   3.044   8.017   2.855  0.0018  0.4448 -0.0634
  130MOL0     C17033   2.926   7.986   2.773 -0.0446  1.0797 -1.2907
  130MOL0     C17034   2.910   7.855   2.722 -1.5299 -0.4156 -0.2638
  130MOL0     C17035   3.010   7.754   2.732  0.8645 -0.9983 -0.7009
  130MOL0     O17036   2.975   7.631   2.687  0.0944  0.6895 -0.3558
  130MOL0     C17037   2.880   7.563   2.764  0.4498  0.9486 -1.2484
  130MOL0     C17038   2.899   7.405   2.748  0.4555 -0.6060 -0.4131
  130MOL0     C17039   2.786   7.337   2.660 -0.4464 -0.6185 -0.0275
  130MOL0     C17040   2.645   7.343   2.723 -0.4974 -0.2926 -0.2614
  130MOL0     C17041   2.546   7.288   2.630  0.7758 -0.0588  0.0789
  130MOL0     C17042   2.399   7.297   2.696 -0.7295  0.0325  0.4091
  130MOL0     C17043   2.294   7.209   2.641  1.5283  0.6008 -0.7189
  130MOL0     C17044   2.245   7.268   2.507  0.0855  0.3970 -0.1751
  130MOL0     N17045   2.156   7.169   2.446 -0.2382 -0.1714  0.6459
  130MOL0     C17046   2.021   7.175   2.438 -0.2279  0.2748  0.0285
  130MOL0     C17047   1.993   7.079   2.338 -0.3184  0.3258 -0.8503
  130MOL0     C17048   1.859   7.075   2.269  0.6197 -0.7107 -0.0262
  130MOL0     C17049   1.740   7.038   2.369 -0.7253  0.1959  0.0872
  130MOL0     C17050   1.600   7.029   2.298  0.2573 -0.3098 -0.0024
  130MOL0     C17051   1.577   7.136   2.195 -0.4649  0.0483 -0.5859
  130MOL0     O17052   1.570   7.261   2.259  1.0072  0.2532 -0.1658
  130MOL0     C17053   1.539   7.373   2.184  0.1296  0.4366 -0.9007
  130MOL0     C17054   1.475   7.467   2.262  0.0508 -0.0653 -0.2660
  130MOL0     C17055   1.418   7.585   2.191 -0.8709  0.8739 -1.1174
  130MOL0     C17056   1.444   7.602   2.054  0.3164 -0.5600  0.0338
  130MOL0     C17057   1.403   7.726   1.990 -0.2285 -1.2590 -0.2584
  130MOL0     O17058   1.499   7.791   1.914  0.1719  0.1518  0.0017
  130MOL0     C17059   1.465   7.902   1.830 -0.3777 -0.0407 -0.2803
  130MOL0     C17060   1.342   7.948   1.798  0.4464  0.4302  1.1926
  130MOL0     C17061   1.321   8.046   1.700  1.0557  0.6740 -0.7272
  130MOL0     C17062   1.432   8.112   1.651 -1.0176  0.1288  0.5755
  130MOL0     O17063   1.419   8.212   1.563  0.0639 -0.2277 -0.0716
  130MOL0     C17064   1.412   8.339   1.642  0.0879 -0.1979 -0.6951
  130MOL0     C17065   1.417   8.462   1.554  0.1596 -1.8095 -0.5183
  130MOL0     C17066   1.532   8.451   1.454  0.2085  0.1501  0.3049
  130MOL0     C17067   1.563   8.588   1.390  0.7431  0.4966 -0.0129
  130MOL0     C17068   1.695   8.589   1.325  0.4227  0.8044 -0.6651
  130MOL0     C17069   1.820   8.623   1.419 -0.2232 -0.0507 -0.4465
  130MOL0     C17070   1.826   8.763   1.464  0.9095  0.5044  0.6354
  130MOL0     C17071   1.951   8.819   1.543 -0.9501 -0.0464 -0.0076
  130MOL0    Cl17072   1.903   8.973   1.638 -0.1294  0.4346  0.2059
  130MOL0     C17073   1.559   8.068   1.683 -0.0073  0.2873 -0.6873
  130MOL0     C17074   1.570   7.970   1.780  0.1302  0.0273  0.2839
  130MOL0     O17075   1.289   7.769   2.013 -0.4863  0.2935 -0.6335
  130MOL0     C17076   1.523   7.507   1.989 -0.3059 -0.4893 -0.9488
  130MOL0     C17077   1.554   7.386   2.049 -1.0102  0.7320  0.6840
  130MOL0     N17078   2.104   7.014   2.294 -0.1160 -0.6480  0.5182
  130MOL0     N17079   2.203   7.074   2.359  0.1195  0.4860 -0.7379
  130MOL0     C17080   3.122   7.787   2.807  0.4100  0.2856 -0.2334
  130MOL0     C17081   3.138   7.909   2.876 -0.1316  0.1412 -0.5087
  130MOL0     C17082   3.149   8.293   3.070  0.3868  0.1292  1.0546
  130MOL0     C17083   3.103   8.413   2.999 -0.5607  0.4438  0.5115
  130MOL0     C17084   3.155   8.533   3.025 -0.3816  0.5383  0.5956
  130MOL0     C17085   3.245   8.559   3.128  0.0446  0.7843 -0.0848
  130MOL0     O17086   3.302   8.684   3.165  0.0671  0.5883 -0.6493
  130MOL0     C17087   3.328   8.779   3.055 -0.0555  0.2143 -1.5650
  130MOL0     C17088   3.378   8.912   3.112 -0.3670 -0.7185  0.8438
  130MOL0     C17089   3.401   9.015   3.009  0.4060 -0.7021 -0.0879
  130MOL0     C17090   3.273   9.024   2.921  0.3677  0.3206  0.0963
  130MOL0     C17091   3.264   9.142   2.826 -0.5333  0.4146 -0.6799
  130MOL0     C17092   3.278   9.243   2.751  0.6395 -0.0792 -0.4162
  130MOL0     C17093   3.281   8.450   3.210  0.7566  0.4778 -0.2413
  130MOL0     C17094   3.227   8.315   3.186 -0.8728 -0.3124 -0.4222
  130MOL0     H17095   2.848   8.058   2.751 -2.9328 -0.5278  2.5493
  130MOL0     H17096   2.824   7.836   2.659 -0.1271  1.6162 -3.0404
  130MOL0     H17097   2.781   7.596   2.730 -0.6096  2.6461  2.9199
  130MOL0     H17098   2.870   7.593   2.868  0.2240 -2.1006 -0.2826
  130MOL0     H17099   2.892   7.361   2.848 -0.2270 -5.4578 -2.3039
  130MOL0     H17100   2.999   7.390   2.707  0.6957 -2.2074  0.6607
  130MOL0     H17101   2.811   7.234   2.630  3.1484  0.1047  0.0193
  130MOL0     H17102   2.788   7.402   2.572 -0.1528  2.0925  1.8588
  130MOL0     H17103   2.636   7.288   2.817 -5.1786  0.7067  0.1150
  130MOL0     H17104   2.624   7.448   2.745  0.1109  0.7438 -4.0016
  130MOL0     H17105   2.568   7.183   2.610  0.2616  0.0297 -1.0021
  130MOL0     H17106   2.536   7.348   2.540 -2.3684  1.2756  1.1659
  130MOL0     H17107   2.371   7.403   2.702 -0.2941  0.0984  1.6761
  130MOL0     H17108   2.421   7.246   2.791  2.6678 -3.4427 -1.9647
  130MOL0     H17109   2.323   7.106   2.620  2.1783  0.5478  0.4079
  130MOL0     H17110   2.209   7.207   2.710  1.0110  1.8924 -1.2791
  130MOL0     H17111   2.328   7.287   2.439 -1.0947  3.2449 -0.9855
  130MOL0     H17112   2.196   7.364   2.530  1.0573  0.4358  1.9743
  130MOL0     H17113   1.964   7.257   2.481 -0.7799 -0.8090  1.4257
  130MOL0     H17114   1.870   6.995   2.195 -2.0949 -0.9831 -0.2688
  130MOL0     H17115   1.835   7.166   2.212 -1.5900 -1.2391 -0.0311
  130MOL0     H17116   1.741   7.124   2.436  1.0993  1.3807 -1.3666
  130MOL0     H17117   1.745   6.944   2.425 -0.9086  0.4445  0.5306
  130MOL0     H17118   1.596   6.930   2.252 -3.8583 -0.7856  1.0127
  130MOL0     H17119   1.509   7.041   2.357  0.6372 -0.0196  0.5279
  130MOL0     H17120   1.473   7.116   2.166 -0.6674 -1.3691  1.0224
  130MOL0     H17121   1.659   7.135   2.122  0.4353  0.6192  0.4042
  130MOL0     H17122   1.466   7.458   2.370  0.7229  6.6373  0.7757
  130MOL0     H17123   1.353   7.655   2.243 -2.9300 -1.2966 -0.5355
  130MOL0     H17124   1.248   7.905   1.831  0.3660  0.4032  0.9341
  130MOL0     H17125   1.225   8.080   1.664  0.5424 -0.2409 -0.2541
  130MOL0     H17126   1.493   8.347   1.716 -0.0981  0.3970 -0.5450
  130MOL0     H17127   1.314   8.337   1.691  2.2104 -2.1278  4.1154
  130MOL0     H17128   1.428   8.550   1.618 -2.2080 -2.1695  0.4724
  130MOL0     H17129   1.323   8.485   1.503 -2.2812 -3.9010  2.5892
  130MOL0     H17130   1.518   8.378   1.373 -2.1959 -0.2976  1.0487
  130MOL0     H17131   1.622   8.425   1.510  0.5720  3.8968  1.7464
  130MOL0     H17132   1.484   8.602   1.316 -1.2164 -5.1611  0.6008
  130MOL0     H17133   1.553   8.680   1.448 -2.7885  2.4045 -3.2058
  130MOL0     H17134   1.691   8.658   1.240 -1.9158 -0.5473 -1.7553
  130MOL0     H17135   1.706   8.493   1.275  1.3840  2.3891 -3.7634
  130MOL0     H17136   1.911   8.619   1.359  1.3984 -2.0324  1.9535
  130MOL0     H17137   1.827   8.547   1.497 -0.6760 -1.1401 -1.4350
  130MOL0     H17138   1.802   8.815   1.371 -1.4910 -0.2118  0.7721
  130MOL0     H17139   1.736   8.776   1.525 -0.2934  1.1351 -1.2031
  130MOL0     H17140   2.041   8.838   1.484 -1.0637 -0.6063 -0.3613
  130MOL0     H17141   1.974   8.737   1.612 -0.4530  2.0144  2.4393
  130MOL0     H17142   1.650   8.085   1.627 -0.6329 -0.3967 -1.9466
  130MOL0     H17143   1.666   7.930   1.812  0.3748  0.9452  0.7374
  130MOL0     H17144   1.556   7.542   1.892 -3.4670  2.2184 -1.2517
  130MOL0     H17145   1.610   7.316   1.988  0.7775  1.9569  0.8688
  130MOL0     H17146   3.205   7.720   2.789 -0.8568 -0.6308 -3.2270
  130MOL0     H17147   3.225   7.918   2.940 -0.7832 -2.4734  0.8934
  130MOL0     H17148   3.020   8.413   2.929 -4.3002 -0.6536  4.5350
  130MOL0     H17149   3.136   8.622   2.964  1.6120  0.0294 -0.8839
  130MOL0     H17150   3.230   8.797   3.009  0.0153 -2.3505 -2.8855
  130MOL0     H17151   3.397   8.730   2.986  1.7860 -0.5652  0.6858
  130MOL0     H17152   3.311   8.931   3.196 -3.8271 -3.2400 -1.0862
  130MOL0     H17153   3.480   8.887   3.143  1.0136  3.4724  0.2960
  130MOL0     H17154   3.488   8.986   2.950  1.0518 -0.2605  0.6307
  130MOL0     H17155   3.417   9.108   3.063  0.7512 -0.2791 -0.9199
  130MOL0     H17156   3.270   8.934   2.859  2.0157 -0.8707  1.6219
  130MOL0     H17157   3.190   9.028   2.992  0.5764 -0.6118  0.4043
  130MOL0     H17158   3.299   9.336   2.702 -0.1007  1.5024  2.0540
  130MOL0     H17159   3.348   8.458   3.294 -1.3386 -0.1216  1.5909
  130MOL0     H17160   3.263   8.236   3.250 -0.3322 -0.0070 -0.3489
  131MOL0     O17161   1.278   5.954   4.149 -0.4327 -0.1907  0.9166
  131MOL0     C17162   1.286   6.031   4.054 -1.0288  0.7378 -1.1016
  131MOL0     O17163   1.216   6.151   4.053 -0.2498  0.4106  0.3713
  131MOL0     C17164   1.095   6.156   4.115  0.0683  0.0174 -0.0782
  131MOL0     C17165   1.006   6.046   4.122  0.1551  0.1445  0.1606
  131MOL0     C17166   0.892   6.050   4.207  0.5299  0.0350 -0.2276
  131MOL0     C17167   0.857   6.173   4.273 -0.1823  0.1745 -0.3836
  131MOL0     O17168   0.735   6.193   4.333  0.1630 -0.1967  0.8295
  131MOL0     C17169   0.671   6.076   4.376 -0.3728 -0.2037 -0.7950
  131MOL0     C17170   0.571   6.106   4.496 -0.0902  0.1604  0.5577
  131MOL0     C17171   0.659   6.117   4.623 -0.2855  0.1572 -0.7958
  131MOL0     C17172   0.577   6.137   4.746 -0.4613  0.8572  0.6960
  131MOL0     C17173   0.648   6.208   4.852 -0.2556 -0.3589  1.2753
  131MOL0     C17174   0.563   6.178   4.974  0.3164  0.5967 -0.4412
  131MOL0     C17175   0.596   6.277   5.086 -0.5151 -0.4284 -0.3027
  131MOL0     C17176   0.530   6.253   5.227 -0.4731 -0.0851  0.8060
  131MOL0     N17177   0.381   6.276   5.206 -0.1845  0.2325  0.3773
  131MOL0     C17178   0.284   6.209   5.272 -0.9594 -0.3651 -1.3273
  131MOL0     C17179   0.173   6.287   5.281  0.0688 -0.9089  0.3937
  131MOL0     C17180   0.040   6.276   5.359 -0.0987  0.6927 -0.0252
  131MOL0     C17181  -0.061   6.179   5.299 -0.3391  0.1795 -0.6094
  131MOL0     C17182  -0.026   6.027   5.332  0.9548 -0.7443  0.5794
  131MOL0     C17183   0.046   5.934   5.227  0.1893 -0.4946 -0.4654
  131MOL0     O17184  -0.013   5.916   5.102 -0.3707  0.3966 -0.0842
  131MOL0     C17185   0.055   5.864   5.000  0.3174  0.7210  0.1094
  131MOL0     C17186   0.129   5.954   4.922 -0.3155  0.3949 -0.0071
  131MOL0     C17187   0.216   5.904   4.827  0.6479 -0.5221  0.0679
  131MOL0     C17188   0.243   5.770   4.810 -0.2077  0.2734 -0.5346
  131MOL0     C17189   0.344   5.722   4.718 -0.9493  0.2750  0.7297
  131MOL0     O17190   0.386   5.822   4.639 -0.7741  0.0433 -0.2676
  131MOL0     C17191   0.489   5.791   4.553  0.7761 -0.1354 -0.0048
  131MOL0     C17192   0.618   5.770   4.603 -0.4425  0.9664  0.3207
  131MOL0     C17193   0.724   5.731   4.514 -0.5100  0.8335  0.0881
  131MOL0     C17194   0.695   5.702   4.376 -0.1040  0.7082  0.2938
  131MOL0     O17195   0.795   5.674   4.282 -0.8208  0.2119 -0.2803
  131MOL0     C17196   0.928   5.700   4.328 -0.3710  0.1166  0.6048
  131MOL0     C17197   1.020   5.668   4.213  0.4216  0.4707 -0.3119
  131MOL0     C17198   1.161   5.684   4.265  0.4639 -0.2685 -0.0559
  131MOL0     C17199   1.262   5.650   4.150  1.1165  0.4161 -0.8733
  131MOL0     C17200   1.291   5.497   4.159  0.5679 -0.6481 -0.2228
  131MOL0     C17201   1.388   5.471   4.040  0.7523 -0.4725 -0.0329
  131MOL0     C17202   1.379   5.337   3.997  0.4136  0.9035  0.6410
  131MOL0     C17203   1.305   5.302   3.868  0.3639 -0.4427  1.0690
  131MOL0    Cl17204   1.293   5.129   3.833 -0.3981 -0.0451  0.1189
  131MOL0     C17205   0.571   5.729   4.326  0.5015  0.3394  0.0522
  131MOL0     C17206   0.467   5.773   4.411  0.0169  0.2772 -0.1009
  131MOL0     O17207   0.381   5.599   4.717  0.0591 -1.0510  0.8718
  131MOL0     C17208   0.169   5.681   4.887 -0.5629 -0.3861  0.0963
  131MOL0     C17209   0.071   5.721   4.981  0.0363 -0.4446 -0.1754
  131MOL0     N17210   0.204   6.403   5.202 -0.4981 -0.0260  0.5539
  131MOL0     N17211   0.330   6.394   5.160 -0.1102 -0.2386 -0.0739
  131MOL0     C17212   0.953   6.279   4.272  0.0923 -0.9714 -0.1495
  131MOL0     C17213   1.074   6.268   4.207  0.7923  0.1799 -0.3162
  131MOL0     C17214   1.379   6.019   3.942 -0.4108  0.0892 -0.8240
  131MOL0     C17215   1.409   6.122   3.864  0.2826  0.1599 -0.2687
  131MOL0     C17216   1.505   6.112   3.769  0.0621 -1.1205 -0.7935
  131MOL0     C17217   1.568   5.988   3.737 -0.6700 -0.6502  1.4294
  131MOL0     O17218   1.666   5.993   3.631  1.1206  0.4932 -0.1666
  131MOL0     C17219   1.742   5.876   3.612  0.1423 -0.2042 -0.1547
  131MOL0     C17220   1.826   5.894   3.490  0.4071  0.2884 -0.4681
  131MOL0     C17221   1.845   5.770   3.405  0.5247 -0.2527 -0.1125
  131MOL0     C17222   1.940   5.680   3.469 -0.2593  0.4184 -0.3393
  131MOL0     C17223   2.078   5.715   3.446  0.2654 -0.7301 -0.1339
  131MOL0     C17224   2.196   5.727   3.448 -0.5990  0.3038  0.4426
  131MOL0     C17225   1.527   5.876   3.804  0.7129  0.3915  0.2985
  131MOL0     C17226   1.438   5.894   3.908  0.1781 -0.0116 -0.3988
  131MOL0     H17227   1.014   5.959   4.057 -3.1762  2.0525 -3.2538
  131MOL0     H17228   0.816   5.974   4.190  0.1977  0.7910 -2.4494
  131MOL0     H17229   0.755   6.016   4.413  1.0772  1.2066 -1.6774
  131MOL0     H17230   0.611   6.023   4.301  3.6077 -1.2534 -3.5319
  131MOL0     H17231   0.489   6.034   4.501 -0.0703 -0.1025 -1.9660
  131MOL0     H17232   0.531   6.205   4.471  2.3485  1.2655  0.7189
  131MOL0     H17233   0.734   6.194   4.605  1.6826 -2.1119 -2.9989
  131MOL0     H17234   0.719   6.027   4.642  0.8015  1.2934  1.6922
  131MOL0     H17235   0.493   6.200   4.717  0.2235  0.8787 -1.3514
  131MOL0     H17236   0.544   6.036   4.773 -0.2256  0.4661 -0.4397
  131MOL0     H17237   0.648   6.316   4.839 -1.3142 -0.2357  2.1995
  131MOL0     H17238   0.756   6.188   4.849  0.5251  3.2088 -2.1071
  131MOL0     H17239   0.560   6.077   5.017 -1.5854  1.5618  1.8981
  131MOL0     H17240   0.460   6.207   4.955 -0.2222  0.9026  2.4508
  131MOL0     H17241   0.703   6.257   5.094 -0.7987 -2.3252 -0.7729
  131MOL0     H17242   0.581   6.380   5.051 -1.7471 -0.2100  0.7699
  131MOL0     H17243   0.569   6.331   5.293 -0.4396 -0.0203  0.7094
  131MOL0     H17244   0.559   6.153   5.262 -1.4664 -0.8513 -0.4734
  131MOL0     H17245   0.308   6.111   5.310  1.6057  0.8165  0.4117
  131MOL0     H17246   0.007   6.380   5.367 -1.1338  0.6247 -2.5891
  131MOL0     H17247   0.055   6.247   5.464 -3.0537  2.9419  1.1723
  131MOL0     H17248  -0.074   6.209   5.194 -0.9054  4.2663  0.4528
  131MOL0     H17249  -0.158   6.201   5.345  0.4358 -0.2557  1.3429
  131MOL0     H17250   0.039   6.032   5.420  1.1387 -3.6854  0.7236
  131MOL0     H17251  -0.108   5.965   5.369  0.8261 -1.2770 -0.5444
  131MOL0     H17252   0.062   5.838   5.277 -0.2360  1.2257  3.3001
  131MOL0     H17253   0.145   5.978   5.220  0.3144 -0.4649  1.1576
  131MOL0     H17254   0.115   6.061   4.937 -0.6329  0.0191  2.7681
  131MOL0     H17255   0.275   5.970   4.765 -0.8739  1.9398  1.0913
  131MOL0     H17256   0.649   5.775   4.707  0.4098 -3.4013  0.4425
  131MOL0     H17257   0.825   5.732   4.551  1.3557 -0.9444 -4.2701
  131MOL0     H17258   0.967   5.637   4.407 -1.3633  0.9906  1.8429
  131MOL0     H17259   0.935   5.809   4.342 -0.7704  0.7350 -2.8799
  131MOL0     H17260   1.006   5.736   4.128 -1.6200  1.4665  0.7402
  131MOL0     H17261   1.001   5.568   4.173 -4.2497  1.4524 -1.2331
  131MOL0     H17262   1.191   5.622   4.350  1.6752 -2.8815 -2.2350
  131MOL0     H17263   1.165   5.788   4.297  2.4810 -1.3512  3.8731
  131MOL0     H17264   1.241   5.672   4.045  2.1377  3.1647 -0.5721
  131MOL0     H17265   1.352   5.706   4.178  0.4108 -0.4010  4.0107
  131MOL0     H17266   1.200   5.438   4.150 -0.3020  0.4607  0.8751
  131MOL0     H17267   1.336   5.454   4.249  1.8230 -1.9340 -1.4119
  131MOL0     H17268   1.494   5.497   4.052  1.4224 -0.8473 -3.8971
  131MOL0     H17269   1.365   5.531   3.952 -0.9567 -0.9819  0.0306
  131MOL0     H17270   1.471   5.284   3.972 -0.8654 -0.8388 -0.6827
  131MOL0     H17271   1.326   5.274   4.069  0.4159 -2.5345 -2.1182
  131MOL0     H17272   1.373   5.342   3.793  0.3072  2.4969  2.4298
  131MOL0     H17273   1.211   5.358   3.857  1.6163  1.3175 -1.5681
  131MOL0     H17274   0.555   5.714   4.220 -2.1621 -0.3938  0.4729
  131MOL0     H17275   0.370   5.795   4.369 -1.4981 -0.9602  2.4824
  131MOL0     H17276   0.198   5.577   4.887 -0.4796 -0.3802  1.4111
  131MOL0     H17277   0.022   5.639   5.031 -2.2134 -0.3316 -2.0264
  131MOL0     H17278   0.936   6.378   4.313  1.6132 -0.5804 -0.4103
  131MOL0     H17279   1.139   6.355   4.202  2.5144 -1.0944 -1.1010
  131MOL0     H17280   1.366   6.219   3.888  0.4463  0.0322  0.5771
  131MOL0     H17281   1.540   6.198   3.713 -0.2038  0.1502  0.9067
  131MOL0     H17282   1.670   5.800   3.581 -0.4253  0.7120 -1.1077
  131MOL0     H17283   1.792   5.841   3.703 -1.4492 -1.1634  0.3906
  131MOL0     H17284   1.787   5.969   3.420  2.7488 -0.2519 -2.5310
  131MOL0     H17285   1.918   5.935   3.532 -0.1073  0.1950  0.8008
  131MOL0     H17286   1.885   5.787   3.304  2.8072  0.8839  0.8974
  131MOL0     H17287   1.748   5.721   3.389  1.7041 -2.0286 -2.4891
  131MOL0     H17288   1.924   5.688   3.577 -1.6937 -0.6039 -0.4455
  131MOL0     H17289   1.933   5.576   3.437  1.1899  0.6472 -1.5325
  131MOL0     H17290   2.300   5.750   3.437 -0.2663 -1.4351 -0.4004
  131MOL0     H17291   1.549   5.775   3.771  0.2530  0.4395 -0.1660
  131MOL0     H17292   1.409   5.801   3.956  0.5075 -0.6390 -1.3949
  132MOL0     O17293   2.163   0.968   7.040 -0.3963  0.7541 -0.4935
  132MOL0     C17294   2.132   1.053   6.955 -0.6520  0.4776  0.2939
  132MOL0     O17295   2.188   1.175   6.945 -0.5622 -0.5121  0.0560
  132MOL0     C17296   2.278   1.215   7.039  0.2558 -0.7094  0.6228
  132MOL0     C17297   2.414   1.211   7.023 -0.4246  0.1717  0.0559
  132MOL0     C17298   2.493   1.258   7.132 -0.3244 -0.7770 -0.2740
  132MOL0     C17299   2.442   1.333   7.241  1.0161 -0.3623  0.7377
  132MOL0     O17300   2.530   1.374   7.333 -0.0408 -0.2695 -0.7187
  132MOL0     C17301   2.478   1.430   7.455  0.4162  0.4951  0.0814
  132MOL0     C17302   2.604   1.452   7.536 -0.2161  0.5317 -0.7883
  132MOL0     C17303   2.567   1.466   7.690 -0.0025  0.6092 -0.2502
  132MOL0     C17304   2.466   1.570   7.715 -0.5842  0.2372  0.5377
  132MOL0     C17305   2.441   1.580   7.855  0.6552  0.3690 -0.4219
  132MOL0     C17306   2.337   1.694   7.890 -0.4996 -0.5920 -0.3239
  132MOL0     C17307   2.298   1.696   8.041 -0.2982 -1.0017 -0.4735
  132MOL0     C17308   2.188   1.796   8.054  0.7457  0.1617 -0.0629
  132MOL0     N17309   2.155   1.820   8.196  0.3798  0.0823 -0.4963
  132MOL0     C17310   2.040   1.878   8.247  0.1730  0.3053  0.2099
  132MOL0     C17311   2.048   1.884   8.378  0.4209  0.0383 -0.1354
  132MOL0     C17312   1.934   1.945   8.452  0.4030 -0.3108 -0.4506
  132MOL0     C17313   1.983   1.994   8.587 -0.0778 -0.1424  0.1515
  132MOL0     C17314   1.862   2.013   8.682 -0.1931  0.3314  0.7184
  132MOL0     C17315   1.898   2.069   8.808 -0.3223 -1.2471  0.2208
  132MOL0     O17316   1.802   2.049   8.910 -0.5397 -0.7705  0.2795
  132MOL0     C17317   1.836   2.078   9.037 -0.7172  0.1877 -0.2090
  132MOL0     C17318   1.735   2.062   9.126 -0.1707  0.1138  0.3190
  132MOL0     C17319   1.758   2.076   9.263  0.3632 -0.3794 -0.5633
  132MOL0     C17320   1.884   2.099   9.319 -0.9348  0.6021  0.0414
  132MOL0     C17321   1.915   2.107   9.469  0.2861 -0.1340  0.1231
  132MOL0     O17322   2.027   2.180   9.500 -0.9776 -0.1098  0.5757
  132MOL0     C17323   2.074   2.214   9.627 -0.2786 -0.8053 -0.2153
  132MOL0     C17324   2.210   2.271   9.629  0.1550  1.0448  0.4751
  132MOL0     C17325   2.256   2.329   9.740 -0.7464 -0.6866  0.3544
  132MOL0     C17326   2.194   2.317   9.860 -0.7561  0.9512 -0.4884
  132MOL0     O17327   2.260   2.351   9.977  0.7242  0.1427 -0.1241
  132MOL0     C17328   2.175   2.368  10.094  0.3389 -0.5562  0.5566
  132MOL0     C17329   2.238   2.310  10.220 -0.9183 -0.5727  0.4423
  132MOL0     C17330   2.138   2.261  10.319 -0.1236  0.7791 -0.5106
  132MOL0     C17331   2.063   2.379  10.381 -1.1551  0.9997  0.4448
  132MOL0     C17332   2.020   2.353  10.526  0.2669 -0.0748 -0.7599
  132MOL0     C17333   1.946   2.475  10.584  0.1790 -0.8499  0.0615
  132MOL0     C17334   1.896   2.454  10.729 -0.3967  0.4020  0.0588
  132MOL0     C17335   1.776   2.357  10.737  0.1150 -0.4798  1.3071
  132MOL0    Cl17336   1.782   2.309  10.912 -0.5970 -0.1812  0.6111
  132MOL0     C17337   2.062   2.259   9.859 -0.5368  0.6598  0.0991
  132MOL0     C17338   1.997   2.213   9.742  0.1550  0.5119  0.0581
  132MOL0     O17339   1.838   2.043   9.545 -0.0669  0.3782  0.0403
  132MOL0     C17340   1.983   2.120   9.232  1.3850  0.4032 -0.1000
  132MOL0     C17341   1.959   2.110   9.095 -0.6188  0.1830  0.0798
  132MOL0     N17342   2.172   1.844   8.414 -0.3077  0.2832  1.1691
  132MOL0     N17343   2.233   1.790   8.307  0.4079 -0.4904  0.7797
  132MOL0     C17344   2.301   1.340   7.243  0.7106 -0.2120  0.7205
  132MOL0     C17345   2.221   1.267   7.153  0.5225  0.0599 -0.4776
  132MOL0     C17346   2.053   1.014   6.842  0.2556  0.2853  0.0215
  132MOL0     C17347   1.999   0.883   6.834  0.2656  0.3849  0.0665
  132MOL0     C17348   1.920   0.850   6.726  0.9418 -0.3027 -0.1741
  132MOL0     C17349   1.888   0.937   6.621 -0.7032  0.5711 -0.2219
  132MOL0     O17350   1.829   0.873   6.511 -0.9780 -1.2131 -0.2546
  132MOL0     C17351   1.792   0.933   6.389 -0.4616  0.1134 -0.4137
  132MOL0     C17352   1.916   0.989   6.320 -0.9842 -0.0687 -0.0851
  132MOL0     C17353   2.041   0.896   6.322 -0.4545 -0.4086  0.5608
  132MOL0     C17354   2.004   0.768   6.249  0.4470  0.1453 -0.3577
  132MOL0     C17355   2.124   0.679   6.268 -0.5321  0.2926  0.0716
  132MOL0     C17356   2.204   0.591   6.302 -1.2173  0.0382  0.1719
  132MOL0     C17357   1.932   1.076   6.641 -0.2380  0.4325 -0.3987
  132MOL0     C17358   2.020   1.115   6.744 -0.3532  0.3460 -0.8376
  132MOL0     H17359   2.447   1.163   6.931 -1.2323  0.1967 -0.2585
  132MOL0     H17360   2.601   1.252   7.126 -0.3552 -1.0410 -0.5919
  132MOL0     H17361   2.408   1.361   7.502  1.9309  0.1450  1.9623
  132MOL0     H17362   2.431   1.522   7.420 -0.5389  0.8235  2.0585
  132MOL0     H17363   2.663   1.537   7.500  3.0204 -0.7596  1.0617
  132MOL0     H17364   2.679   1.373   7.526 -0.0867  0.5028  0.2851
  132MOL0     H17365   2.653   1.485   7.755 -1.7854 -1.0728  2.8257
  132MOL0     H17366   2.519   1.374   7.727 -3.2689  1.2433 -2.4583
  132MOL0     H17367   2.519   1.656   7.673 -0.7895 -0.5805 -1.5044
  132MOL0     H17368   2.371   1.550   7.664 -1.3145 -4.1014  3.0889
  132MOL0     H17369   2.535   1.599   7.910  0.4432 -0.3714  0.2131
  132MOL0     H17370   2.411   1.482   7.894 -0.8016  1.5321  1.5954
  132MOL0     H17371   2.248   1.694   7.827 -0.1555  3.8909 -1.1460
  132MOL0     H17372   2.382   1.792   7.872 -4.0572  1.8906  2.7830
  132MOL0     H17373   2.274   1.591   8.060 -0.6929 -0.7041  0.7467
  132MOL0     H17374   2.383   1.736   8.097 -0.1325  1.0322 -2.0656
  132MOL0     H17375   2.092   1.778   8.005 -0.1555  1.2550  1.2341
  132MOL0     H17376   2.234   1.888   8.018  1.7818 -0.0090  0.7698
  132MOL0     H17377   1.953   1.903   8.188 -0.3311 -3.6607 -1.0452
  132MOL0     H17378   1.858   1.868   8.469 -0.8800  0.3892 -2.6795
  132MOL0     H17379   1.888   2.024   8.393  1.3966  0.9990  0.4738
  132MOL0     H17380   2.020   2.095   8.566  2.0748 -1.3304 -2.5404
  132MOL0     H17381   2.054   1.921   8.629 -2.0490 -1.4958  1.2806
  132MOL0     H17382   1.799   2.083   8.627  3.5071  0.5818 -3.7543
  132MOL0     H17383   1.816   1.917   8.705 -0.4116 -0.0258 -1.1050
  132MOL0     H17384   1.922   2.175   8.801 -0.0764 -1.1330  2.3337
  132MOL0     H17385   1.993   2.027   8.842  0.7731  1.9621  1.4581
  132MOL0     H17386   1.645   2.018   9.084  1.1645 -1.5676 -0.9077
  132MOL0     H17387   1.680   2.065   9.337  1.3114  0.3297  0.5773
  132MOL0     H17388   2.252   2.301   9.533 -2.6985 -0.1597 -1.3210
  132MOL0     H17389   2.343   2.393   9.727 -1.4566  0.0132 -1.3284
  132MOL0     H17390   2.072   2.333  10.100  0.3048 -0.3297  1.3479
  132MOL0     H17391   2.158   2.476  10.094 -1.3861 -0.7987 -0.1940
  132MOL0     H17392   2.304   2.382  10.269 -2.1453 -0.5235  2.0935
  132MOL0     H17393   2.305   2.234  10.180 -2.5292 -1.5224 -0.5836
  132MOL0     H17394   2.187   2.218  10.407 -0.8553  2.1828  0.6378
  132MOL0     H17395   2.067   2.187  10.280 -0.5504  0.1191  1.4016
  132MOL0     H17396   2.125   2.468  10.390 -1.9144  1.9130 -2.2297
  132MOL0     H17397   1.981   2.413  10.316 -0.1125  2.5200 -0.1305
  132MOL0     H17398   2.103   2.344  10.598 -0.5413  0.0863  0.2113
  132MOL0     H17399   1.963   2.261  10.537 -1.5100  1.1551  1.0052
  132MOL0     H17400   1.852   2.479  10.528 -1.3024 -4.8604  1.8666
  132MOL0     H17401   2.015   2.560  10.592  1.1057 -1.3376 -2.1388
  132MOL0     H17402   1.984   2.416  10.781  0.7997  1.9487 -0.7587
  132MOL0     H17403   1.868   2.545  10.782  0.8351  0.3280  0.8716
  132MOL0     H17404   1.777   2.269  10.672  0.4202  0.2262  0.3226
  132MOL0     H17405   1.685   2.416  10.718  0.3687  0.5746  3.2070
  132MOL0     H17406   2.007   2.231   9.948  1.0616  0.7390  1.1445
  132MOL0     H17407   1.910   2.149   9.752  1.2749 -0.9260  0.9002
  132MOL0     H17408   2.084   2.145   9.263  1.4513 -0.4712  0.4162
  132MOL0     H17409   2.044   2.126   9.030 -0.4754 -0.3016  0.1457
  132MOL0     H17410   2.253   1.396   7.322  3.4442 -0.7825  2.9396
  132MOL0     H17411   2.113   1.272   7.156  0.3493 -0.9239 -3.1178
  132MOL0     H17412   2.047   0.802   6.888  2.4250 -0.9526 -3.5481
  132MOL0     H17413   1.893   0.747   6.710 -0.8807 -0.0019  0.7473
  132MOL0     H17414   1.721   1.014   6.409 -0.3400  0.1675 -0.2012
  132MOL0     H17415   1.735   0.858   6.332 -0.1661  0.6621 -1.4689
  132MOL0     H17416   1.889   1.003   6.215  1.3621 -1.2261 -0.9273
  132MOL0     H17417   1.931   1.089   6.361 -2.4287 -0.6310  1.9653
  132MOL0     H17418   2.058   0.873   6.428  2.8303  2.1453  0.7386
  132MOL0     H17419   2.126   0.951   6.282 -1.1194  0.5743  0.4840
  132MOL0     H17420   1.926   0.710   6.300  2.1503 -0.2690  1.9709
  132MOL0     H17421   1.964   0.789   6.150 -3.6094 -1.7202  0.6610
  132MOL0     H17422   2.269   0.511   6.332 -1.4841 -1.1331 -2.1514
  132MOL0     H17423   1.902   1.157   6.575  0.4964  0.1703 -1.0592
  132MOL0     H17424   2.069   1.212   6.744  2.7447 -1.0916 -1.7606
  133MOL0     O17425   8.954   8.977   5.478  0.3797 -0.1570 -0.5222
  133MOL0     C17426   8.992   9.086   5.437  1.3711  0.0713 -0.0826
  133MOL0     O17427   8.910   9.186   5.402  0.0554  0.5109  0.0222
  133MOL0     C17428   8.779   9.175   5.427  0.8742 -1.0069 -0.2648
  133MOL0     C17429   8.688   9.112   5.345  0.0598  0.4528  0.1577
  133MOL0     C17430   8.547   9.115   5.365  0.8010  0.7516  0.2868
  133MOL0     C17431   8.497   9.173   5.478 -0.3441 -0.0136  0.2297
  133MOL0     O17432   8.362   9.143   5.490 -0.0047 -0.3490  0.0751
  133MOL0     C17433   8.280   9.227   5.571  1.0913 -0.0159  0.2952
  133MOL0     C17434   8.230   9.345   5.491 -0.3180 -0.2915 -0.6042
  133MOL0     C17435   8.128   9.301   5.392 -0.0624  0.7351  0.3006
  133MOL0     C17436   8.051   9.405   5.309 -0.4384  0.0057  0.4668
  133MOL0     C17437   8.131   9.481   5.208  0.2725 -0.6897  0.1759
  133MOL0     C17438   8.032   9.578   5.140  0.0631 -0.3229  0.7581
  133MOL0     C17439   8.101   9.649   5.030  0.5711  0.3838  0.0260
  133MOL0     C17440   8.005   9.761   4.978  0.4710 -0.6860  0.1637
  133MOL0     N17441   8.034   9.791   4.833  0.2707  0.8568  0.0658
  133MOL0     C17442   8.158   9.812   4.780 -0.4533 -0.3120 -0.4477
  133MOL0     C17443   8.147   9.809   4.643  0.3226 -0.7332  0.1215
  133MOL0     C17444   8.255   9.840   4.537  0.5641 -0.5873 -0.3816
  133MOL0     C17445   8.393   9.820   4.600  0.3380  0.2522  0.1990
  133MOL0     C17446   8.413   9.668   4.617 -0.9246 -0.9342  0.0420
  133MOL0     C17447   8.567   9.642   4.648 -1.0269 -0.8134 -0.3208
  133MOL0     O17448   8.612   9.722   4.764 -0.4217 -0.0953 -0.0095
  133MOL0     C17449   8.738   9.767   4.777 -1.0464 -0.1586 -0.1284
  133MOL0     C17450   8.854   9.710   4.712 -0.0598 -0.5287 -0.3778
  133MOL0     C17451   8.976   9.769   4.750  0.6509 -0.0028  0.7353
  133MOL0     C17452   8.997   9.879   4.836  0.4050 -0.3096  0.2331
  133MOL0     C17453   9.128   9.936   4.862  0.7341  0.5936  0.4108
  133MOL0     O17454   9.231   9.865   4.799  0.1269 -0.4450  0.1660
  133MOL0     C17455   9.353   9.930   4.789 -0.9091 -0.9709  0.2893
  133MOL0     C17456   9.382  10.053   4.723 -0.4681  0.0962  0.4868
  133MOL0     C17457   9.504  10.098   4.715 -0.0007 -0.1806  0.2065
  133MOL0     C17458   9.613  10.029   4.779  0.0114 -0.6096  0.1317
  133MOL0     O17459   9.738  10.078   4.778 -0.2012  0.4066  0.1418
  133MOL0     C17460   9.775  10.197   4.857 -0.6942 -0.0144  0.2398
  133MOL0     C17461   9.929  10.221   4.858  0.2206  0.5542  0.4829
  133MOL0     C17462  10.006  10.120   4.945  0.1631  0.0198  1.0924
  133MOL0     C17463  10.151  10.105   4.915 -0.1627 -0.2171  0.0871
  133MOL0     C17464  10.187   9.990   4.824  0.3985 -0.6256  0.4931
  133MOL0     C17465  10.334   9.955   4.822 -0.1343 -0.6657  0.4729
  133MOL0     C17466  10.399   9.959   4.681  0.1763  0.6029  0.0747
  133MOL0     C17467  10.551   9.978   4.682 -0.3060 -0.1939  0.3237
  133MOL0    Cl17468  10.610  10.141   4.719 -0.4264  0.1410 -0.2580
  133MOL0     C17469   9.591   9.900   4.828 -0.3087 -0.4147  0.3700
  133MOL0     C17470   9.460   9.850   4.840  0.0747 -0.3024  0.0910
  133MOL0     O17471   9.135  10.048   4.910  0.2894  0.1398 -0.3291
  133MOL0     C17472   8.886   9.928   4.904  0.2736  0.3092  0.2883
  133MOL0     C17473   8.759   9.873   4.867 -0.6705 -1.1588 -0.0086
  133MOL0     N17474   8.013   9.777   4.615  0.2666  0.2832 -0.2906
  133MOL0     N17475   7.953   9.767   4.731  1.2780  0.0209 -0.0156
  133MOL0     C17476   8.588   9.245   5.563 -0.3644  0.0181  0.2188
  133MOL0     C17477   8.721   9.249   5.535 -0.0643  0.5049 -0.2757
  133MOL0     C17478   9.128   9.088   5.392  1.1264  0.5809  0.7849
  133MOL0     C17479   9.199   9.209   5.373 -0.0519 -0.3214  0.0908
  133MOL0     C17480   9.331   9.218   5.330  0.3372 -0.0837 -0.0286
  133MOL0     C17481   9.394   9.097   5.306 -0.5598 -0.3364  0.0497
  133MOL0     O17482   9.529   9.088   5.286 -0.2121 -0.8527  0.0841
  133MOL0     C17483   9.604   9.205   5.237 -0.4188  0.8466 -0.1971
  133MOL0     C17484   9.566   9.260   5.104  1.0517 -0.2064  0.9473
  133MOL0     C17485   9.631   9.396   5.076  0.0815  0.3091 -0.1702
  133MOL0     C17486   9.774   9.382   5.053 -0.5330 -1.2013  0.6553
  133MOL0     C17487   9.831   9.503   4.995 -0.6019 -0.4421  0.0250
  133MOL0     C17488   9.892   9.606   4.967 -0.0812  0.0988 -0.6396
  133MOL0     C17489   9.325   8.981   5.313  0.2288 -0.3773  0.2986
  133MOL0     C17490   9.197   8.972   5.362 -0.5820 -0.6194 -0.0149
  133MOL0     H17491   8.728   9.051   5.265  1.5819  1.0502  0.4323
  133MOL0     H17492   8.483   9.067   5.292  0.4434  1.0988  0.3742
  133MOL0     H17493   8.334   9.263   5.659  1.0063 -0.3869  0.4998
  133MOL0     H17494   8.192   9.172   5.605 -0.5779  0.6468 -2.6155
  133MOL0     H17495   8.319   9.403   5.466  1.5806 -1.4009  2.7974
  133MOL0     H17496   8.179   9.415   5.559 -1.2834 -1.3709 -0.1913
  133MOL0     H17497   8.039   9.264   5.444 -1.4225  4.6427  1.0283
  133MOL0     H17498   8.156   9.224   5.319 -2.4404 -0.2653  0.3151
  133MOL0     H17499   7.973   9.350   5.257 -1.0569  0.5307  0.8273
  133MOL0     H17500   7.999   9.471   5.378 -0.3960  0.0229  0.4828
  133MOL0     H17501   8.187   9.415   5.141  0.5587 -1.6581  1.3274
  133MOL0     H17502   8.209   9.541   5.256  0.8780 -0.3288 -1.2181
  133MOL0     H17503   8.001   9.649   5.218 -0.2184  1.9275 -1.2862
  133MOL0     H17504   7.946   9.526   5.096 -1.0137  2.1937 -0.2951
  133MOL0     H17505   8.195   9.696   5.062 -0.3907  2.6520 -0.2797
  133MOL0     H17506   8.118   9.576   4.951 -1.9246 -0.4840  0.2063
  133MOL0     H17507   8.002   9.854   5.036 -0.0688  0.7766 -2.0470
  133MOL0     H17508   7.901   9.726   4.989  0.2841  0.2578  1.6250
  133MOL0     H17509   8.252   9.834   4.831 -0.2402 -0.2572 -0.8599
  133MOL0     H17510   8.237   9.946   4.516  2.9559 -0.2813 -1.2148
  133MOL0     H17511   8.248   9.781   4.445 -1.0519 -2.3106  0.7548
  133MOL0     H17512   8.404   9.882   4.689  0.2944  2.3617 -1.1843
  133MOL0     H17513   8.462   9.854   4.522  0.2929  0.1856  0.1305
  133MOL0     H17514   8.360   9.625   4.703  0.1017  1.3968  1.9550
  133MOL0     H17515   8.392   9.611   4.526  2.8226  0.1935 -1.6876
  133MOL0     H17516   8.622   9.668   4.557 -2.2775  0.1793 -0.8128
  133MOL0     H17517   8.593   9.539   4.675  1.2543  0.2840  2.2154
  133MOL0     H17518   8.866   9.631   4.639  5.2492  1.5706 -2.2396
  133MOL0     H17519   9.068   9.721   4.717  0.8215  0.1321  1.0112
  133MOL0     H17520   9.296  10.097   4.674  2.0225  1.3193 -3.1258
  133MOL0     H17521   9.523  10.196   4.672 -2.7992  0.4099  0.1498
  133MOL0     H17522   9.734  10.204   4.958 -2.9825  7.6872 -0.5548
  133MOL0     H17523   9.733  10.292   4.820 -0.6277 -0.4240 -0.9173
  133MOL0     H17524   9.954  10.323   4.888  0.8784  0.5857 -0.1753
  133MOL0     H17525   9.958  10.202   4.755 -2.1513 -1.6007  0.1072
  133MOL0     H17526   9.967  10.018   4.944 -1.0094  0.4143 -1.6902
  133MOL0     H17527  10.009  10.156   5.048  1.7676  0.9641  0.7456
  133MOL0     H17528  10.200  10.193   4.873 -0.3528  1.6257  3.3942
  133MOL0     H17529  10.192  10.081   5.013 -1.1493  0.1146  0.5928
  133MOL0     H17530  10.147  10.022   4.727 -4.5258 -0.9703  2.0983
  133MOL0     H17531  10.148   9.893   4.857  1.5840 -1.6571 -1.0282
  133MOL0     H17532  10.367   9.859   4.863  0.9119 -1.5522 -2.1777
  133MOL0     H17533  10.393  10.022   4.886 -1.0004 -0.3376  0.9369
  133MOL0     H17534  10.390   9.856   4.646 -1.4659 -0.6896  3.8444
  133MOL0     H17535  10.345  10.030   4.617  0.0267 -0.9960 -1.6553
  133MOL0     H17536  10.586   9.958   4.580 -0.9571  2.7872 -0.5551
  133MOL0     H17537  10.597   9.897   4.739  1.6180  0.6683  0.0817
  133MOL0     H17538   9.670   9.831   4.854 -0.8943 -3.0719 -3.9416
  133MOL0     H17539   9.457   9.753   4.889  1.5950  0.4822  1.8824
  133MOL0     H17540   8.905  10.005   4.977  2.3114  2.5856 -2.4186
  133MOL0     H17541   8.676   9.907   4.927  0.8784  1.8833  0.5731
  133MOL0     H17542   8.564   9.302   5.651  0.0301  1.6242 -0.6788
  133MOL0     H17543   8.782   9.310   5.601  1.3050  1.5558 -2.3693
  133MOL0     H17544   9.147   9.295   5.412 -0.8399 -0.2978 -0.9582
  133MOL0     H17545   9.376   9.316   5.333  1.3844 -0.5717  1.5553
  133MOL0     H17546   9.710   9.179   5.240 -0.1606  1.9055  1.6936
  133MOL0     H17547   9.601   9.283   5.315 -0.5721  1.2116 -0.5633
  133MOL0     H17548   9.611   9.193   5.031  2.0229  1.6646 -0.2612
  133MOL0     H17549   9.458   9.259   5.085  1.1504  0.4952  0.3011
  133MOL0     H17550   9.613   9.464   5.160  0.8629 -1.1184  1.2106
  133MOL0     H17551   9.591   9.447   4.988  0.1437  2.8408  1.1709
  133MOL0     H17552   9.828   9.366   5.147  1.1774  1.1970  0.1677
  133MOL0     H17553   9.782   9.302   4.979 -3.6742  1.6784 -3.2615
  133MOL0     H17554   9.949   9.696   4.956 -0.9110  0.5448 -1.3897
  133MOL0     H17555   9.385   8.892   5.293  1.3719  0.4604 -0.1001
  133MOL0     H17556   9.152   8.874   5.372  3.4959 -2.6182  0.4423
  134MOL0     O17557   0.460   3.612   5.764  0.0959  0.4823  0.0434
  134MOL0     C17558   0.513   3.711   5.709 -1.1223 -0.4694 -0.5042
  134MOL0     O17559   0.453   3.825   5.679  0.3821  0.3846 -0.2240
  134MOL0     C17560   0.344   3.860   5.753  0.4538  0.1956 -0.3557
  134MOL0     C17561   0.333   3.862   5.895  1.6373  0.6778 -0.8065
  134MOL0     C17562   0.214   3.902   5.956 -0.1389 -0.1579 -0.5712
  134MOL0     C17563   0.112   3.947   5.886  0.1132  0.5689  0.4476
  134MOL0     O17564  -0.008   3.977   5.955 -0.3454  0.3190  0.0580
  134MOL0     C17565  -0.056   3.859   6.020 -0.5235 -0.0537 -0.8298
  134MOL0     C17566  -0.051   3.891   6.169  0.7248 -1.2518 -0.9682
  134MOL0     C17567  -0.099   3.770   6.257  0.4581 -0.2910 -1.1230
  134MOL0     C17568  -0.143   3.830   6.395  1.0982  0.4317  0.4415
  134MOL0     C17569  -0.285   3.882   6.399 -0.6292 -0.4072 -0.2530
  134MOL0     C17570  -0.304   3.963   6.523 -0.8909  0.4322 -0.1163
  134MOL0     C17571  -0.449   4.023   6.531 -0.5577 -0.8200  0.3347
  134MOL0     C17572  -0.474   4.151   6.457 -0.9494  0.1670 -0.0488
  134MOL0     N17573  -0.373   4.269   6.498  0.4121  0.4866 -0.5375
  134MOL0     C17574  -0.341   4.296   6.625  0.6065 -0.0515 -0.4445
  134MOL0     C17575  -0.245   4.387   6.623  0.3848 -1.5170  0.5354
  134MOL0     C17576  -0.172   4.449   6.746  0.9840 -0.2784  0.2971
  134MOL0     C17577  -0.022   4.462   6.734  1.1373  0.5579  0.5517
  134MOL0     C17578   0.068   4.531   6.844 -0.4085  0.0734  0.3243
  134MOL0     C17579   0.069   4.451   6.970  0.2688 -0.3838  0.7603
  134MOL0     O17580   0.144   4.334   6.957  0.1806  0.3135  0.0472
  134MOL0     C17581   0.151   4.237   7.055 -0.6153  0.5860 -0.2564
  134MOL0     C17582   0.087   4.233   7.179  0.1173 -0.3858 -0.5025
  134MOL0     C17583   0.125   4.152   7.272  0.0541 -0.2989  0.4742
  134MOL0     C17584   0.215   4.042   7.246 -0.9756 -0.9983 -0.0821
  134MOL0     C17585   0.290   3.973   7.360  0.2905 -0.4195 -1.0218
  134MOL0     O17586   0.266   4.034   7.480 -0.6391  0.3833 -0.5780
  134MOL0     C17587   0.340   3.997   7.592  0.2112  0.7471 -0.2269
  134MOL0     C17588   0.463   3.936   7.609  0.5013 -0.7175 -0.2211
  134MOL0     C17589   0.513   3.925   7.738 -0.0628 -0.2071  0.1488
  134MOL0     C17590   0.446   3.954   7.853  0.7729  0.8420 -0.7510
  134MOL0     O17591   0.520   3.943   7.969 -0.6032  0.2042  0.4544
  134MOL0     C17592   0.450   3.954   8.098 -0.0224  0.0902  0.3445
  134MOL0     C17593   0.443   4.096   8.146  0.1559  0.3831  0.2021
  134MOL0     C17594   0.397   4.101   8.301 -0.1096 -0.3882 -0.0323
  134MOL0     C17595   0.451   4.241   8.361 -0.6624 -0.1051  0.6999
  134MOL0     C17596   0.407   4.259   8.509  0.7371 -0.6392  0.1761
  134MOL0     C17597   0.482   4.374   8.579 -0.0889 -0.1981  0.1239
  134MOL0     C17598   0.436   4.391   8.726 -0.3141 -0.0941  0.1264
  134MOL0     C17599   0.539   4.477   8.801  0.1509 -0.0703 -0.5572
  134MOL0    Cl17600   0.684   4.386   8.853  0.2303  0.0818  0.5661
  134MOL0     C17601   0.320   4.007   7.839 -0.8966 -0.2387  0.7907
  134MOL0     C17602   0.271   4.031   7.711 -0.5150 -0.2675  0.4403
  134MOL0     O17603   0.376   3.886   7.339  0.5893 -0.0947 -0.8557
  134MOL0     C17604   0.254   4.017   7.111  0.0991  0.0449 -0.2993
  134MOL0     C17605   0.222   4.118   7.021 -0.3207  0.0622 -0.2282
  134MOL0     N17606  -0.231   4.428   6.490  0.3612  1.3910  0.5855
  134MOL0     N17607  -0.308   4.360   6.418 -0.7172  0.5141  0.8613
  134MOL0     C17608   0.117   3.964   5.748 -0.4140 -0.4140  0.4721
  134MOL0     C17609   0.237   3.911   5.690 -0.5357 -0.3927  0.4037
  134MOL0     C17610   0.651   3.700   5.647  0.3931 -0.9186 -0.0010
  134MOL0     C17611   0.682   3.575   5.601 -0.0679 -0.3804 -0.3482
  134MOL0     C17612   0.807   3.544   5.551  0.6165  0.6402 -0.3250
  134MOL0     C17613   0.898   3.640   5.522 -0.8398  0.7749 -0.8298
  134MOL0     O17614   1.030   3.625   5.479 -0.3213  1.2223  0.3823
  134MOL0     C17615   1.082   3.500   5.438  0.1494  0.5020 -0.0960
  134MOL0     C17616   1.001   3.474   5.301 -0.3787 -0.5804  0.9178
  134MOL0     C17617   1.068   3.568   5.197  0.2716 -0.4731 -0.8591
  134MOL0     C17618   1.027   3.552   5.047 -0.3009 -0.2743  0.3038
  134MOL0     C17619   1.055   3.689   4.991 -0.6836 -0.0415  0.4465
  134MOL0     C17620   1.087   3.797   4.944  0.7641  0.1709 -0.1631
  134MOL0     C17621   0.871   3.772   5.566  0.3788  0.6504 -0.9642
  134MOL0     C17622   0.742   3.799   5.619  0.1206  0.7922  0.1315
  134MOL0     H17623   0.420   3.830   5.953  0.5774  2.3649  1.8876
  134MOL0     H17624   0.217   3.901   6.064  2.6962  0.7658 -0.5478
  134MOL0     H17625  -0.012   3.761   5.997 -3.2702 -0.9085 -3.0070
  134MOL0     H17626  -0.163   3.860   5.997 -0.3411 -0.0920 -1.6932
  134MOL0     H17627  -0.125   3.969   6.184  0.9644 -0.9876 -1.1408
  134MOL0     H17628   0.047   3.925   6.204  0.0947  0.4719 -0.8181
  134MOL0     H17629  -0.016   3.700   6.271 -2.5922 -3.8510  1.1018
  134MOL0     H17630  -0.182   3.711   6.216 -3.7184  3.1958  1.5024
  134MOL0     H17631  -0.143   3.740   6.457  0.4050  1.4560  2.0048
  134MOL0     H17632  -0.074   3.902   6.440  0.0443  0.4044  2.2192
  134MOL0     H17633  -0.353   3.796   6.396 -0.5185 -0.7292  2.8444
  134MOL0     H17634  -0.316   3.944   6.314 -0.9133 -0.4017 -0.1462
  134MOL0     H17635  -0.225   4.036   6.538  0.2031 -0.8180  0.4408
  134MOL0     H17636  -0.297   3.885   6.600 -0.9805 -0.9323 -1.4556
  134MOL0     H17637  -0.512   3.960   6.468  0.0915 -1.8701  0.7240
  134MOL0     H17638  -0.487   4.027   6.633  0.5098  1.8010  0.7147
  134MOL0     H17639  -0.574   4.184   6.488  0.4432  3.9572  1.0311
  134MOL0     H17640  -0.468   4.138   6.348  0.3734 -1.5480  0.1938
  134MOL0     H17641  -0.392   4.243   6.705 -0.3429  0.0990 -0.9270
  134MOL0     H17642  -0.205   4.387   6.831 -0.8563  1.4536  0.9230
  134MOL0     H17643  -0.217   4.546   6.768  3.9815  0.6699  3.1003
  134MOL0     H17644  -0.006   4.520   6.643  1.0124 -0.3034 -0.0293
  134MOL0     H17645   0.018   4.361   6.725 -1.7730 -0.5299 -1.8794
  134MOL0     H17646   0.175   4.540   6.821 -0.5435  0.9061  0.0047
  134MOL0     H17647   0.036   4.631   6.876  0.7835  0.2333  1.1050
  134MOL0     H17648  -0.031   4.429   7.007 -0.3794  1.5917  0.2779
  134MOL0     H17649   0.130   4.507   7.042 -0.3235 -0.2917  1.1901
  134MOL0     H17650   0.035   4.318   7.223  0.1409 -0.6456  0.0391
  134MOL0     H17651   0.096   4.177   7.374 -1.7997  1.6508 -0.4317
  134MOL0     H17652   0.516   3.900   7.521 -1.2535  0.6690 -1.9431
  134MOL0     H17653   0.615   3.889   7.741  1.6306  3.9731 -0.6663
  134MOL0     H17654   0.512   3.894   8.165 -0.6176  0.1693  0.9759
  134MOL0     H17655   0.355   3.900   8.098 -0.5046  0.8167  2.6518
  134MOL0     H17656   0.381   4.153   8.076  0.6340 -0.9299 -1.3255
  134MOL0     H17657   0.543   4.139   8.140 -0.2635  1.5620  1.1609
  134MOL0     H17658   0.441   4.014   8.350 -0.4562 -0.8982 -0.5978
  134MOL0     H17659   0.288   4.095   8.311 -0.1449 -3.7769 -1.0501
  134MOL0     H17660   0.560   4.242   8.353 -0.5204 -3.3846  0.7437
  134MOL0     H17661   0.412   4.319   8.295 -0.2584 -0.3869  0.1221
  134MOL0     H17662   0.415   4.164   8.562 -1.1748 -0.4539  0.8661
  134MOL0     H17663   0.303   4.292   8.514  0.3464 -1.8681  0.2808
  134MOL0     H17664   0.471   4.469   8.527  0.0158  1.1227  2.3889
  134MOL0     H17665   0.583   4.332   8.571 -0.6743 -1.5368 -0.6792
  134MOL0     H17666   0.346   4.454   8.724 -0.8915 -0.6412  3.2330
  134MOL0     H17667   0.417   4.294   8.772  0.6989 -0.2691  0.1857
  134MOL0     H17668   0.477   4.514   8.883 -1.0974  0.3944 -1.6712
  134MOL0     H17669   0.576   4.559   8.738 -0.1199  1.6534  1.4166
  134MOL0     H17670   0.249   4.010   7.921 -0.9355 -2.4733  0.9045
  134MOL0     H17671   0.170   4.069   7.700 -0.1988  0.3786 -0.3712
  134MOL0     H17672   0.320   3.935   7.086 -0.3885 -0.0213 -1.4419
  134MOL0     H17673   0.275   4.111   6.927  2.6561  0.1336  1.3198
  134MOL0     H17674   0.034   3.994   5.685 -1.2291 -2.6802  0.3643
  134MOL0     H17675   0.246   3.915   5.581  1.5208 -0.2981  0.5383
  134MOL0     H17676   0.609   3.497   5.625  1.3434 -1.5718  0.2484
  134MOL0     H17677   0.845   3.442   5.544 -0.3228 -0.1062  3.3392
  134MOL0     H17678   1.072   3.422   5.514  1.4104  2.7629  2.6301
  134MOL0     H17679   1.188   3.498   5.412 -0.0955 -1.3940 -1.1032
  134MOL0     H17680   1.006   3.369   5.270 -0.6074  0.2961 -2.4956
  134MOL0     H17681   0.897   3.504   5.314  0.3573  1.8580  1.6918
  134MOL0     H17682   1.175   3.543   5.205  0.3232  0.1679  0.7882
  134MOL0     H17683   1.055   3.672   5.226 -1.6020 -0.0187 -3.0285
  134MOL0     H17684   1.097   3.484   4.997  0.9943  1.3463 -0.1579
  134MOL0     H17685   0.921   3.529   5.031 -0.1717  0.4860 -2.0419
  134MOL0     H17686   1.113   3.879   4.880  0.0293  0.7713  0.2933
  134MOL0     H17687   0.943   3.853   5.557 -1.0461  2.2795  1.0345
  134MOL0     H17688   0.724   3.902   5.648  1.4639  0.6310  1.6621
  135MOL0     O17689   4.477   4.799   3.667  0.7332 -0.1369 -0.8005
  135MOL0     C17690   4.469   4.892   3.745  0.6026  0.3172 -0.4444
  135MOL0     O17691   4.535   4.898   3.863  0.1794 -0.7581 -0.2705
  135MOL0     C17692   4.617   4.792   3.902  0.4352  0.4010 -1.1690
  135MOL0     C17693   4.717   4.739   3.828  0.0466 -0.2134 -0.0960
  135MOL0     C17694   4.808   4.648   3.886  0.4511  0.7955 -0.6843
  135MOL0     C17695   4.782   4.600   4.022 -0.4808  0.2718 -0.3486
  135MOL0     O17696   4.859   4.498   4.080 -0.4064  0.5089  0.0964
  135MOL0     C17697   4.983   4.470   4.009 -0.1060 -0.6187  0.1956
  135MOL0     C17698   5.049   4.350   4.083  0.0232 -0.2083  0.1218
  135MOL0     C17699   5.197   4.331   4.018 -0.3742 -0.3307 -0.6351
  135MOL0     C17700   5.281   4.234   4.096 -0.8040 -0.0145  0.3504
  135MOL0     C17701   5.426   4.243   4.041 -0.2405  0.2107  0.9042
  135MOL0     C17702   5.483   4.102   4.043  0.4857 -0.7055 -0.8774
  135MOL0     C17703   5.512   4.068   4.186 -0.3202  0.3035 -0.2464
  135MOL0     C17704   5.563   3.921   4.180  0.4799 -0.4549  0.6031
  135MOL0     N17705   5.461   3.815   4.174  0.2849  0.7028  0.3531
  135MOL0     C17706   5.419   3.729   4.271 -0.7216  0.1282  0.3154
  135MOL0     C17707   5.310   3.662   4.212  0.5840  0.4735 -0.7420
  135MOL0     C17708   5.235   3.552   4.285 -0.3325  0.0280 -1.0543
  135MOL0     C17709   5.085   3.595   4.307  0.3811  0.4192 -0.1038
  135MOL0     C17710   4.996   3.496   4.376  0.0376 -1.0697 -0.0864
  135MOL0     C17711   4.870   3.451   4.291  0.6256 -0.2959 -0.4398
  135MOL0     O17712   4.791   3.359   4.365  0.6708 -0.2633 -0.1035
  135MOL0     C17713   4.673   3.409   4.424  1.0187  1.0047  0.2131
  135MOL0     C17714   4.587   3.302   4.471 -0.4804 -0.0247 -0.2398
  135MOL0     C17715   4.467   3.322   4.531  0.6920 -0.4570  0.5468
  135MOL0     C17716   4.422   3.449   4.554  0.8719  0.3249 -0.7680
  135MOL0     C17717   4.307   3.477   4.644 -0.1365 -0.3114  0.7201
  135MOL0     O17718   4.267   3.384   4.738 -0.1463 -0.3158  0.5027
  135MOL0     C17719   4.180   3.429   4.831  0.0876  0.7021  0.2246
  135MOL0     C17720   4.213   3.540   4.912 -1.1183 -0.7625  0.3845
  135MOL0     C17721   4.131   3.596   5.006  0.7391  0.0710 -0.6536
  135MOL0     C17722   4.015   3.519   5.032  0.6954 -0.2025 -1.1508
  135MOL0     O17723   3.931   3.558   5.132  0.3564  0.4329  0.3829
  135MOL0     C17724   3.924   3.705   5.139 -0.7095 -0.0318  0.3332
  135MOL0     C17725   3.816   3.750   5.241  0.1720 -0.9385  0.5235
  135MOL0     C17726   3.787   3.654   5.359 -0.3847 -0.1295 -0.5284
  135MOL0     C17727   3.689   3.723   5.446  0.1730 -0.7887 -0.7642
  135MOL0     C17728   3.610   3.614   5.538 -0.6525 -0.1811 -1.2007
  135MOL0     C17729   3.533   3.692   5.653 -0.3076  0.3081 -0.6265
  135MOL0     C17730   3.505   3.582   5.752  0.5204  0.7554 -0.3150
  135MOL0     C17731   3.408   3.622   5.866 -0.0687 -0.7761 -0.1413
  135MOL0    Cl17732   3.252   3.680   5.799 -0.1066  0.2630 -0.3434
  135MOL0     C17733   3.983   3.400   4.974  0.0919  1.1306  1.0002
  135MOL0     C17734   4.067   3.355   4.871 -0.6229  1.0350 -0.3366
  135MOL0     O17735   4.257   3.587   4.629 -0.7538 -0.4028  0.3364
  135MOL0     C17736   4.497   3.558   4.505 -1.1337  0.3074 -0.4427
  135MOL0     C17737   4.622   3.540   4.440  0.4130  0.1136  0.4711
  135MOL0     N17738   5.284   3.711   4.087 -0.8062 -0.1512 -0.0317
  135MOL0     N17739   5.366   3.803   4.074  0.5241 -0.3634  0.8260
  135MOL0     C17740   4.671   4.646   4.095 -1.1034 -1.3418  0.4979
  135MOL0     C17741   4.599   4.747   4.036 -0.7781 -0.2068 -0.4940
  135MOL0     C17742   4.403   5.018   3.712 -0.2526  0.0900 -0.0207
  135MOL0     C17743   4.400   5.074   3.584  0.7419  0.7997  0.2153
  135MOL0     C17744   4.359   5.206   3.565 -0.0868 -0.0484  0.9594
  135MOL0     C17745   4.308   5.281   3.665  0.4861 -0.7880 -0.5292
  135MOL0     O17746   4.243   5.402   3.652  0.0959  0.1903  0.2638
  135MOL0     C17747   4.273   5.491   3.542  0.1882  1.2930  0.0213
  135MOL0     C17748   4.183   5.608   3.545  0.9641 -1.5521 -0.3161
  135MOL0     C17749   4.204   5.733   3.458 -1.0794  0.2499 -0.0883
  135MOL0     C17750   4.337   5.802   3.481  0.3779 -0.6444 -1.0421
  135MOL0     C17751   4.345   5.872   3.607  0.1927 -0.5386  0.2828
  135MOL0     C17752   4.354   5.917   3.715 -0.4477 -0.6365 -0.0200
  135MOL0     C17753   4.294   5.221   3.789 -0.3361 -0.6761  0.0617
  135MOL0     C17754   4.337   5.094   3.809  0.7366  1.1164 -0.1853
  135MOL0     H17755   4.730   4.772   3.726  5.1522  1.6864  0.8545
  135MOL0     H17756   4.880   4.600   3.821  2.0477  0.1855  1.4444
  135MOL0     H17757   5.058   4.550   4.016  0.1188 -0.9678  4.7549
  135MOL0     H17758   4.958   4.446   3.905 -2.0150 -0.6437  0.6233
  135MOL0     H17759   4.982   4.264   4.078  0.7213 -0.8262  0.9230
  135MOL0     H17760   5.068   4.353   4.191  4.8124  1.4887 -0.5160
  135MOL0     H17761   5.247   4.428   4.002 -1.6986  0.9602  2.2005
  135MOL0     H17762   5.179   4.284   3.922  1.9437  0.3604 -1.4749
  135MOL0     H17763   5.295   4.271   4.198 -1.0299  2.2196 -0.3723
  135MOL0     H17764   5.229   4.141   4.075  2.8637 -1.8397 -1.5270
  135MOL0     H17765   5.489   4.302   4.108  0.4767  2.2885 -1.4765
  135MOL0     H17766   5.438   4.296   3.946 -1.5764  0.4252  0.8295
  135MOL0     H17767   5.577   4.106   3.987  2.1397 -0.3416  1.7286
  135MOL0     H17768   5.416   4.024   4.007 -0.6115  0.7036 -2.0077
  135MOL0     H17769   5.591   4.131   4.228 -0.8885  1.7431 -1.2571
  135MOL0     H17770   5.425   4.071   4.253  3.2367 -3.6836  5.4271
  135MOL0     H17771   5.622   3.911   4.272  1.6953 -1.3664 -0.2373
  135MOL0     H17772   5.641   3.905   4.105 -0.2032  0.3715 -0.3208
  135MOL0     H17773   5.457   3.705   4.370  0.2977 -1.9831 -0.5355
  135MOL0     H17774   5.270   3.537   4.388 -1.7785  1.2838 -0.3278
  135MOL0     H17775   5.235   3.456   4.234  0.4734 -1.6778  1.9472
  135MOL0     H17776   5.037   3.616   4.211 -2.4862 -0.4910  1.0379
  135MOL0     H17777   5.073   3.690   4.360 -2.6182 -0.5769  1.1981
  135MOL0     H17778   5.058   3.412   4.407 -1.8788 -1.6037  2.5754
  135MOL0     H17779   4.957   3.546   4.465  0.8118  2.2466 -1.4421
  135MOL0     H17780   4.912   3.402   4.202  1.8001 -0.5965  0.2514
  135MOL0     H17781   4.814   3.539   4.256 -2.1391 -1.9877 -0.5648
  135MOL0     H17782   4.620   3.202   4.443 -1.4340 -0.3542 -0.1987
  135MOL0     H17783   4.405   3.240   4.564 -1.4020  1.0606  0.6112
  135MOL0     H17784   4.303   3.600   4.907 -2.0220  0.5515 -1.7495
  135MOL0     H17785   4.179   3.678   5.059 -0.7916 -1.0707  2.7946
  135MOL0     H17786   3.886   3.733   5.041  0.4076 -1.8600 -0.6817
  135MOL0     H17787   4.016   3.758   5.163  0.9813 -1.4981 -2.3954
  135MOL0     H17788   3.719   3.754   5.190  2.1122 -2.1599 -3.6897
  135MOL0     H17789   3.844   3.852   5.266 -4.4423  0.9538 -0.8623
  135MOL0     H17790   3.878   3.630   5.416 -0.6704  3.0392  1.5247
  135MOL0     H17791   3.741   3.559   5.330  1.3873 -0.9199 -0.9208
  135MOL0     H17792   3.736   3.800   5.507 -2.1304 -1.4457  2.0416
  135MOL0     H17793   3.613   3.771   5.384 -1.3003 -0.5140  1.1589
  135MOL0     H17794   3.682   3.544   5.581 -1.8945 -0.0833  1.1948
  135MOL0     H17795   3.541   3.547   5.486 -1.3700 -2.8605  2.7936
  135MOL0     H17796   3.440   3.739   5.620  0.3465  3.3557  1.3688
  135MOL0     H17797   3.591   3.769   5.706  2.5067 -2.2074  0.2208
  135MOL0     H17798   3.443   3.509   5.699 -2.3250  1.0195  2.3372
  135MOL0     H17799   3.589   3.528   5.797 -1.6163 -1.9705  0.7076
  135MOL0     H17800   3.447   3.707   5.923 -0.6691 -0.2237 -0.5354
  135MOL0     H17801   3.387   3.546   5.942 -2.7273  2.5143  2.7678
  135MOL0     H17802   3.890   3.350   5.002 -0.2596 -2.0757 -4.4570
  135MOL0     H17803   4.044   3.263   4.818 -0.9367  0.9211 -0.0075
  135MOL0     H17804   4.450   3.650   4.539 -4.2699 -1.6796  1.0321
  135MOL0     H17805   4.692   3.623   4.434  1.9521 -0.8573  3.1010
  135MOL0     H17806   4.642   4.617   4.196 -2.9741  0.9341  0.7007
  135MOL0     H17807   4.519   4.799   4.087 -1.7495 -0.8062 -1.3608
  135MOL0     H17808   4.433   5.010   3.502 -0.5657 -0.5074  0.6590
  135MOL0     H17809   4.360   5.231   3.460 -0.2779 -6.0072 -0.8217
  135MOL0     H17810   4.261   5.431   3.452 -2.4758  0.6240  0.7334
  135MOL0     H17811   4.376   5.522   3.561  0.2040 -0.0344  2.5139
  135MOL0     H17812   4.084   5.567   3.521 -2.7223  2.7593  4.9664
  135MOL0     H17813   4.164   5.649   3.645  0.1464  1.0274 -1.4411
  135MOL0     H17814   4.130   5.811   3.473  0.8410  1.8300  1.7527
  135MOL0     H17815   4.196   5.693   3.357 -0.7871  1.4433 -0.5934
  135MOL0     H17816   4.417   5.730   3.503  0.0069 -0.9635 -0.7112
  135MOL0     H17817   4.362   5.867   3.396  0.9711 -0.1284 -0.4793
  135MOL0     H17818   4.345   5.957   3.814 -6.1830 -0.5118 -0.2596
  135MOL0     H17819   4.263   5.264   3.883 -0.0008 -2.1601  0.8903
  135MOL0     H17820   4.330   5.048   3.907  1.7206 -1.1175 -1.0798
  136MOL0     O17821   0.916  10.565   0.218  0.0305  0.1363  0.6030
  136MOL0     C17822   0.850  10.461   0.205 -0.1410  0.3331 -0.6382
  136MOL0     O17823   0.872  10.343   0.285  0.4154  0.8339  0.0009
  136MOL0     C17824   0.959  10.361   0.385  0.1093 -0.2250 -0.4346
  136MOL0     C17825   1.097  10.344   0.355  0.7015  1.4787 -0.3526
  136MOL0     C17826   1.188  10.337   0.463 -0.2578 -0.9349  0.1374
  136MOL0     C17827   1.147  10.373   0.598 -0.3252 -0.0960  0.4903
  136MOL0     O17828   1.221  10.376   0.706 -0.2512  0.2502 -1.0145
  136MOL0     C17829   1.343  10.301   0.721  0.0532 -0.4643 -0.6435
  136MOL0     C17830   1.421  10.374   0.833 -0.5496  0.6894  0.5934
  136MOL0     C17831   1.561  10.311   0.861 -0.0474 -0.0855  0.1463
  136MOL0     C17832   1.627  10.387   0.979 -0.1943 -0.1810 -0.2953
  136MOL0     C17833   1.554  10.344   1.115 -1.2145 -0.4646 -0.5449
  136MOL0     C17834   1.592  10.408   1.254 -0.5545  0.6705 -0.7863
  136MOL0     C17835   1.646  10.555   1.279 -0.3171 -0.3328  0.3263
  136MOL0     C17836   1.743  10.575   1.397 -0.1041  0.1745 -0.3569
  136MOL0     N17837   1.703  10.509   1.522  0.1776 -0.2156 -0.4129
  136MOL0     C17838   1.764  10.396   1.572  0.3400  0.1963  0.5586
  136MOL0     C17839   1.672  10.352   1.660  0.6767 -0.4627 -0.4025
  136MOL0     C17840   1.697  10.229   1.747 -0.4434 -0.1441 -0.3702
  136MOL0     C17841   1.791  10.276   1.858 -0.2628 -1.3228 -0.1228
  136MOL0     C17842   1.808  10.177   1.971  0.7582  0.0636  0.1402
  136MOL0     C17843   1.887  10.040   1.952  0.5153 -0.5246  0.8659
  136MOL0     O17844   1.823   9.956   2.046 -0.9157 -0.1907 -0.0452
  136MOL0     C17845   1.898   9.888   2.133 -0.9656 -1.0673  0.5734
  136MOL0     C17846   1.841   9.860   2.256 -0.2357 -0.1863 -0.4142
  136MOL0     C17847   1.914   9.811   2.367  0.0034  0.0338  0.8817
  136MOL0     C17848   2.042   9.762   2.343 -0.0352  0.7805 -0.2179
  136MOL0     C17849   2.121   9.685   2.445  1.6993 -1.2121 -0.0880
  136MOL0     O17850   2.248   9.642   2.416  0.4363 -0.0928  0.0593
  136MOL0     C17851   2.304   9.559   2.504 -0.8627  1.2210 -1.1791
  136MOL0     C17852   2.444   9.581   2.514  0.9380  1.0462 -0.3960
  136MOL0     C17853   2.515   9.496   2.604 -0.4009 -0.1266 -0.0352
  136MOL0     C17854   2.455   9.387   2.665  0.4108  0.2924 -0.4633
  136MOL0     O17855   2.514   9.291   2.739  0.3132 -0.4440  0.1858
  136MOL0     C17856   2.624   9.238   2.672 -1.3089 -0.0522  0.1748
  136MOL0     C17857   2.659   9.096   2.705  0.1635 -0.3158 -0.6142
  136MOL0     C17858   2.698   9.066   2.851 -0.5284 -0.3015 -0.3420
  136MOL0     C17859   2.725   8.920   2.867 -0.2691  0.1297  0.4893
  136MOL0     C17860   2.823   8.898   2.989  0.1674  0.6738  0.2244
  136MOL0     C17861   2.767   8.938   3.122 -0.0102  0.6120 -0.9349
  136MOL0     C17862   2.853   8.888   3.240 -0.0214  0.0169 -0.6517
  136MOL0     C17863   2.832   8.746   3.302 -0.0815 -0.0895  0.2395
  136MOL0    Cl17864   2.929   8.629   3.211  0.3374 -0.2248  0.0941
  136MOL0     C17865   2.324   9.358   2.654 -0.6819  0.0418 -0.4507
  136MOL0     C17866   2.252   9.441   2.556  0.4527  0.5520  0.1422
  136MOL0     O17867   2.062   9.693   2.552  0.5973 -0.1297 -0.6205
  136MOL0     C17868   2.104   9.794   2.223 -0.2013  0.6218 -0.3508
  136MOL0     C17869   2.032   9.858   2.117  0.8340 -0.3854 -0.8248
  136MOL0     N17870   1.569  10.437   1.669  0.3350 -0.1427  0.3166
  136MOL0     N17871   1.586  10.535   1.593 -0.6234 -0.3481 -0.0796
  136MOL0     C17872   1.007  10.408   0.619  0.8287 -0.4228  0.8198
  136MOL0     C17873   0.919  10.403   0.513  0.1103  0.1100  0.3705
  136MOL0     C17874   0.758  10.438   0.096 -0.1183  0.4433  0.9821
  136MOL0     C17875   0.703  10.313   0.068  0.0321  0.5132  0.0401
  136MOL0     C17876   0.627  10.293  -0.051  0.3061 -0.4903  0.1488
  136MOL0     C17877   0.589  10.404  -0.134 -0.5393 -0.7966 -0.5208
  136MOL0     O17878   0.486  10.401  -0.223  0.2261  1.0427 -0.3749
  136MOL0     C17879   0.483  10.292  -0.307 -0.7142 -0.3337  0.5042
  136MOL0     C17880   0.353  10.262  -0.370  0.2807 -0.1890  0.0561
  136MOL0     C17881   0.256  10.221  -0.253  0.0209 -0.4021 -0.6480
  136MOL0     C17882   0.133  10.155  -0.332 -0.0127  1.0173  0.0559
  136MOL0     C17883   0.171  10.011  -0.364  0.2105 -0.5780  1.2693
  136MOL0     C17884   0.199   9.896  -0.401  0.8520 -0.2952 -0.0637
  136MOL0     C17885   0.639  10.526  -0.096 -0.0011 -0.0995 -1.3914
  136MOL0     C17886   0.711  10.544   0.019  0.0606  0.1667 -0.3013
  136MOL0     H17887   1.123  10.326   0.251 -1.5257  2.9540 -1.2441
  136MOL0     H17888   1.293  10.318   0.443 -0.4132 -0.9308 -0.7310
  136MOL0     H17889   1.404  10.293   0.630 -1.2186  0.1615 -1.5885
  136MOL0     H17890   1.323  10.201   0.758  1.3199 -0.5952 -0.2685
  136MOL0     H17891   1.351  10.356   0.915 -1.3661  1.1434  0.0211
  136MOL0     H17892   1.419  10.482   0.814 -2.3032  0.5104 -0.5380
  136MOL0     H17893   1.630  10.322   0.776  1.2715 -3.2176  0.6828
  136MOL0     H17894   1.560  10.206   0.890  5.9673 -0.0116  2.0219
  136MOL0     H17895   1.733  10.362   0.990 -0.4527 -0.9094  0.7414
  136MOL0     H17896   1.614  10.494   0.961 -0.2754 -0.0624  0.4349
  136MOL0     H17897   1.553  10.235   1.118 -0.0554 -0.4645  0.7034
  136MOL0     H17898   1.448  10.371   1.107 -0.9502  0.8291  0.0392
  136MOL0     H17899   1.681  10.351   1.282 -0.0085  1.7114 -0.3650
  136MOL0     H17900   1.504  10.400   1.318 -0.4409  0.4501 -0.6578
  136MOL0     H17901   1.698  10.572   1.184  2.1070 -0.1150  1.6132
  136MOL0     H17902   1.567  10.630   1.284 -0.6129 -0.7082  1.6365
  136MOL0     H17903   1.756  10.682   1.415  3.5555 -0.0498 -0.8408
  136MOL0     H17904   1.844  10.551   1.361 -0.9474 -1.3812 -1.7954
  136MOL0     H17905   1.848  10.334   1.540  2.4047  2.7256  0.7256
  136MOL0     H17906   1.743  10.148   1.691 -1.3707 -2.0266  1.4304
  136MOL0     H17907   1.600  10.193   1.784 -0.2824  1.3135  1.6763
  136MOL0     H17908   1.758  10.368   1.907  1.5778 -0.9890  0.5769
  136MOL0     H17909   1.886  10.300   1.808 -0.8981  3.6008  0.5271
  136MOL0     H17910   1.874  10.214   2.049  0.0109 -2.7597  2.2448
  136MOL0     H17911   1.707  10.161   2.010 -0.3228 -0.7602 -2.6771
  136MOL0     H17912   1.991  10.065   1.974  0.3477 -1.3143  2.7483
  136MOL0     H17913   1.889   9.993   1.854 -0.0907  1.4365 -0.1520
  136MOL0     H17914   1.739   9.895   2.267  0.0605  0.9438 -1.0829
  136MOL0     H17915   1.861   9.788   2.459 -0.0908  0.5056  0.9501
  136MOL0     H17916   2.487   9.664   2.461  1.2146  0.4473 -1.1209
  136MOL0     H17917   2.623   9.494   2.599 -0.3645 -2.5953  0.4781
  136MOL0     H17918   2.708   9.305   2.688 -0.7560 -0.7763  0.3602
  136MOL0     H17919   2.615   9.238   2.563 -1.0727 -2.1207  0.1060
  136MOL0     H17920   2.725   9.052   2.629  0.7410 -0.1514 -0.2167
  136MOL0     H17921   2.563   9.050   2.682  0.2034 -0.4697 -0.4752
  136MOL0     H17922   2.608   9.094   2.907 -1.5463  3.5571 -3.4797
  136MOL0     H17923   2.776   9.137   2.880 -2.3010  1.3140  0.7207
  136MOL0     H17924   2.629   8.869   2.880 -0.7180  1.2103  1.6259
  136MOL0     H17925   2.761   8.876   2.774 -0.0961 -0.4871  0.8421
  136MOL0     H17926   2.911   8.950   2.951 -0.4615  2.5987  1.3176
  136MOL0     H17927   2.850   8.792   2.998  0.7877  1.0455  4.6482
  136MOL0     H17928   2.665   8.912   3.150  1.2266 -0.7583  3.0534
  136MOL0     H17929   2.769   9.047   3.123 -1.4043  0.7474 -3.7537
  136MOL0     H17930   2.961   8.896   3.225  0.1779 -2.3230 -0.6905
  136MOL0     H17931   2.827   8.951   3.326 -0.6780 -0.4878 -0.4696
  136MOL0     H17932   2.725   8.723   3.306  0.1095 -2.2753 -3.0263
  136MOL0     H17933   2.871   8.745   3.404 -2.6348 -0.1669  1.2897
  136MOL0     H17934   2.280   9.269   2.698 -2.9361  0.1755 -2.2187
  136MOL0     H17935   2.152   9.405   2.533  0.2433  1.5148 -0.4898
  136MOL0     H17936   2.208   9.766   2.209  0.2746  1.7526  0.7412
  136MOL0     H17937   2.088   9.886   2.028  2.0322  1.3457  0.4226
  136MOL0     H17938   0.964  10.437   0.714 -1.1333  5.8607 -1.4319
  136MOL0     H17939   0.824  10.440   0.548  0.9781  1.4573  1.3730
  136MOL0     H17940   0.724  10.218   0.118 -0.2300 -0.9929 -2.5466
  136MOL0     H17941   0.585  10.197  -0.082 -0.4824  0.2889 -1.3113
  136MOL0     H17942   0.520  10.196  -0.270  0.7822 -0.0287 -0.1101
  136MOL0     H17943   0.551  10.313  -0.390 -2.5612 -2.1053 -1.6170
  136MOL0     H17944   0.317  10.351  -0.422  0.3595  0.9807  1.9000
  136MOL0     H17945   0.356  10.182  -0.445 -0.7236 -0.8995  0.7434
  136MOL0     H17946   0.221  10.311  -0.200  2.4133  1.2633 -1.7106
  136MOL0     H17947   0.302  10.148  -0.187  2.7158  0.2506 -1.6987
  136MOL0     H17948   0.038  10.142  -0.280 -0.3216  0.7726 -0.5600
  136MOL0     H17949   0.095  10.205  -0.421  0.3885  0.3229 -0.5245
  136MOL0     H17950   0.206   9.790  -0.415 -0.3973 -1.1229  4.2090
  136MOL0     H17951   0.610  10.613  -0.154 -1.3013 -0.1499 -0.8569
  136MOL0     H17952   0.741  10.644   0.047 -1.5375  0.8979 -1.0396
  137MOL0     O17953   6.079  11.237   6.766 -0.5068 -0.5167 -0.1805
  137MOL0     C17954   6.135  11.157   6.688  0.7640 -0.0348 -0.0228
  137MOL0     O17955   6.150  11.023   6.707  0.1449 -0.1348 -0.5497
  137MOL0     C17956   6.068  10.947   6.795  0.7851  0.2478  0.3511
  137MOL0     C17957   5.930  10.958   6.807 -0.0912 -0.6650 -0.1498
  137MOL0     C17958   5.848  10.861   6.867  0.7217  0.2132 -0.6319
  137MOL0     C17959   5.905  10.734   6.917 -0.6483  0.2570 -0.7233
  137MOL0     O17960   5.825  10.625   6.947  0.2167 -0.7953 -0.5803
  137MOL0     C17961   5.847  10.574   7.081  0.2140  0.2617 -0.3362
  137MOL0     C17962   5.723  10.499   7.140  0.3846  0.4304 -0.1582
  137MOL0     C17963   5.594  10.585   7.170 -0.4032  0.1880 -0.0188
  137MOL0     C17964   5.486  10.499   7.230  0.1860 -0.5814 -0.5835
  137MOL0     C17965   5.436  10.384   7.150  0.4066  0.2306 -0.7857
  137MOL0     C17966   5.304  10.326   7.204  0.3084  1.8113 -1.3123
  137MOL0     C17967   5.249  10.218   7.103 -0.3248 -0.0979  0.1521
  137MOL0     C17968   5.114  10.253   7.039 -0.9226  0.0834  0.5028
  137MOL0     N17969   4.999  10.216   7.126  0.1285  1.6422  0.2042
  137MOL0     C17970   4.952  10.082   7.144  0.3175  0.4250 -0.1201
  137MOL0     C17971   4.857  10.088   7.237 -0.5793  1.1826 -0.8064
  137MOL0     C17972   4.772   9.975   7.300  0.5314  0.3136 -0.1330
  137MOL0     C17973   4.841   9.908   7.418  0.3226  0.2464 -0.2728
  137MOL0     C17974   4.972   9.839   7.377  0.5321 -0.0716 -0.3580
  137MOL0     C17975   5.046   9.818   7.512 -0.2777 -0.6249 -0.3880
  137MOL0     O17976   5.175   9.763   7.486 -0.3021  0.2942 -0.1588
  137MOL0     C17977   5.182   9.629   7.472 -0.0772  0.4510 -0.0168
  137MOL0     C17978   5.127   9.536   7.566 -0.5215  0.3511  0.1640
  137MOL0     C17979   5.145   9.400   7.560 -0.3307 -0.2617 -0.0821
  137MOL0     C17980   5.226   9.354   7.453  0.3053  0.2516 -0.2794
  137MOL0     C17981   5.256   9.211   7.450 -1.0786 -0.2569  0.2780
  137MOL0     O17982   5.370   9.157   7.382 -0.8402 -0.1630  0.3051
  137MOL0     C17983   5.398   9.022   7.390 -0.3174 -0.7734 -1.3672
  137MOL0     C17984   5.343   8.930   7.309 -0.2230  0.7554  0.1907
  137MOL0     C17985   5.393   8.797   7.300  0.5793  0.4648 -0.3782
  137MOL0     C17986   5.498   8.756   7.384  0.7079  0.0040 -0.4678
  137MOL0     O17987   5.565   8.634   7.371  0.1781 -0.4349  0.5605
  137MOL0     C17988   5.487   8.511   7.367 -0.3584 -0.3777 -0.9886
  137MOL0     C17989   5.573   8.404   7.434  0.5806 -0.6674 -0.1779
  137MOL0     C17990   5.498   8.278   7.485 -0.1911  0.1719  0.1481
  137MOL0     C17991   5.443   8.202   7.353 -0.0339 -0.1212 -0.4906
  137MOL0     C17992   5.405   8.057   7.382  0.0327  0.9073  0.3144
  137MOL0     C17993   5.352   7.983   7.260 -0.7850  0.6073 -0.5438
  137MOL0     C17994   5.228   8.042   7.201  0.1157  0.2287 -0.7627
  137MOL0     C17995   5.137   7.949   7.131  1.0019 -0.1040 -0.4063
  137MOL0    Cl17996   5.224   7.823   7.039  0.0534  0.0426 -0.4099
  137MOL0     C17997   5.538   8.843   7.476 -0.1750 -1.0494 -1.1579
  137MOL0     C17998   5.501   8.980   7.483 -0.3433 -0.9174  0.3933
  137MOL0     O17999   5.170   9.141   7.508 -0.4826  0.0364  0.5598
  137MOL0     C18000   5.285   9.438   7.367  0.0546 -0.5500  0.4538
  137MOL0     C18001   5.260   9.572   7.367 -0.4729 -0.3333 -0.4881
  137MOL0     N18002   4.849  10.218   7.278 -0.0809 -0.2452 -0.0796
  137MOL0     N18003   4.942  10.294   7.220  0.5531  0.4298 -0.1944
  137MOL0     C18004   6.043  10.714   6.900 -0.3240 -0.8232 -1.1015
  137MOL0     C18005   6.120  10.824   6.838  0.2829  0.1329  0.2288
  137MOL0     C18006   6.211  11.212   6.568 -0.7699  0.0533  0.5719
  137MOL0     C18007   6.276  11.128   6.476 -0.0784  0.0390 -0.2758
  137MOL0     C18008   6.374  11.171   6.387  0.0347  0.1672  0.4132
  137MOL0     C18009   6.389  11.304   6.368  0.1394 -0.9025 -0.9074
  137MOL0     O18010   6.479  11.364   6.281 -0.2761 -0.4113 -0.2702
  137MOL0     C18011   6.564  11.288   6.195  0.2935  0.1877  0.2561
  137MOL0     C18012   6.521  11.280   6.048 -1.1634  0.0850  0.3149
  137MOL0     C18013   6.532  11.421   5.989  0.5098  0.4297 -0.0669
  137MOL0     C18014   6.490  11.424   5.842 -0.4000  0.0915  0.1920
  137MOL0     C18015   6.570  11.344   5.752 -1.4270 -0.2738 -0.8041
  137MOL0     C18016   6.657  11.290   5.683 -0.6419 -1.0450  1.3908
  137MOL0     C18017   6.318  11.396   6.451 -1.6069 -0.1207 -0.8095
  137MOL0     C18018   6.221  11.348   6.545  0.6115 -0.4130 -1.0701
  137MOL0     H18019   5.888  11.049   6.765  2.7358  0.2193 -1.2899
  137MOL0     H18020   5.740  10.868   6.878  0.7953  0.0344  0.3155
  137MOL0     H18021   5.871  10.660   7.144 -0.2169 -0.7933  1.3428
  137MOL0     H18022   5.935  10.510   7.068  0.0383 -0.0951  0.1910
  137MOL0     H18023   5.741  10.449   7.235 -1.0333 -1.5706 -0.8870
  137MOL0     H18024   5.680  10.429   7.067 -2.7509  3.3765 -1.4396
  137MOL0     H18025   5.566  10.631   7.075  1.7060  1.7657  0.0377
  137MOL0     H18026   5.625  10.663   7.241  1.7820  0.1793 -0.8863
  137MOL0     H18027   5.534  10.457   7.319  1.2456  1.8008  0.0328
  137MOL0     H18028   5.401  10.559   7.263  0.8294  0.1048 -0.1415
  137MOL0     H18029   5.512  10.305   7.156  1.4007  1.2674  2.9958
  137MOL0     H18030   5.413  10.402   7.044  0.4397 -1.7100 -1.1573
  137MOL0     H18031   5.228  10.401   7.227  0.1912  0.7173  2.5018
  137MOL0     H18032   5.325  10.270   7.296  0.1701 -1.3728 -3.0558
  137MOL0     H18033   5.323  10.206   7.024 -1.7439  0.6054 -1.3444
  137MOL0     H18034   5.236  10.122   7.153 -1.8683  0.6260  1.2194
  137MOL0     H18035   5.090  10.204   6.944 -1.1197  4.5220 -2.0460
  137MOL0     H18036   5.116  10.359   7.012  1.1526  0.0447  0.3254
  137MOL0     H18037   4.979   9.991   7.091  0.1729  1.6123 -2.3908
  137MOL0     H18038   4.730   9.909   7.224  1.4959 -1.0464  0.4805
  137MOL0     H18039   4.679  10.025   7.329 -0.9389 -0.7521 -2.6443
  137MOL0     H18040   4.771   9.839   7.466 -1.0793  2.7648  1.5507
  137MOL0     H18041   4.843   9.984   7.497  0.6206 -0.7505  0.7060
  137MOL0     H18042   4.961   9.741   7.330 -0.3197  0.2360 -0.8148
  137MOL0     H18043   5.043   9.892   7.312  1.3816 -1.9039 -0.9968
  137MOL0     H18044   4.986   9.752   7.576 -0.4370  1.0447  1.2706
  137MOL0     H18045   5.067   9.906   7.573 -0.2968 -1.8246  1.4329
  137MOL0     H18046   5.053   9.567   7.638  0.0999  0.8779  0.5774
  137MOL0     H18047   5.099   9.326   7.624 -1.7283  1.2476  0.7300
  137MOL0     H18048   5.265   8.963   7.241  0.8210  0.1467 -1.3436
  137MOL0     H18049   5.361   8.723   7.228  0.6847 -0.4694  0.5178
  137MOL0     H18050   5.455   8.488   7.264 -1.6881 -0.5365 -0.5624
  137MOL0     H18051   5.391   8.524   7.418  0.9034 -3.6996  2.7192
  137MOL0     H18052   5.627   8.439   7.522  0.1402 -1.0152  0.2342
  137MOL0     H18053   5.657   8.376   7.369 -1.8104 -0.0989 -3.8041
  137MOL0     H18054   5.411   8.308   7.545  0.6972  1.0338  1.0255
  137MOL0     H18055   5.570   8.216   7.539 -0.4846  0.7754  1.2431
  137MOL0     H18056   5.349   8.252   7.326  0.9663  3.0647  1.3469
  137MOL0     H18057   5.527   8.207   7.283  0.9327 -4.0328  0.1767
  137MOL0     H18058   5.335   8.050   7.466 -0.4479 -0.6304 -0.1733
  137MOL0     H18059   5.488   7.998   7.422 -1.5799 -1.5822  0.2313
  137MOL0     H18060   5.337   7.881   7.297  1.5222  0.0879 -0.8834
  137MOL0     H18061   5.415   7.978   7.171 -2.2739  0.6526 -1.6369
  137MOL0     H18062   5.156   8.090   7.267 -2.2340 -1.1350 -2.1863
  137MOL0     H18063   5.265   8.115   7.127  3.4056 -1.4635 -0.9783
  137MOL0     H18064   5.066   8.012   7.076  0.8862  0.6534  0.5799
  137MOL0     H18065   5.074   7.894   7.202 -1.3539 -0.3702 -2.5489
  137MOL0     H18066   5.615   8.806   7.543  2.4671 -0.0383 -3.4361
  137MOL0     H18067   5.544   9.051   7.552  0.1700  0.6088 -1.3957
  137MOL0     H18068   5.343   9.387   7.290  0.8981 -2.7954  2.4356
  137MOL0     H18069   5.301   9.644   7.297  2.9427 -0.9511  0.6812
  137MOL0     H18070   6.083  10.617   6.926 -1.0949 -0.5803  1.2702
  137MOL0     H18071   6.216  10.778   6.816 -1.0372 -1.8493 -1.9404
  137MOL0     H18072   6.258  11.023   6.495  0.3363 -0.3880 -2.0534
  137MOL0     H18073   6.441  11.103   6.336 -0.0431 -0.6150  1.3096
  137MOL0     H18074   6.574  11.184   6.226  1.2267  0.4322  0.8136
  137MOL0     H18075   6.668  11.321   6.206  0.2286  0.0671  1.3682
  137MOL0     H18076   6.596  11.226   5.990 -3.1069 -0.2925 -2.0585
  137MOL0     H18077   6.420  11.238   6.041 -0.8360 -0.6082 -0.4385
  137MOL0     H18078   6.628  11.465   6.016  0.2542  1.2019 -0.3897
  137MOL0     H18079   6.454  11.481   6.038  0.5988  0.2919  0.2505
  137MOL0     H18080   6.386  11.389   5.836  0.1348 -1.8644  1.5385
  137MOL0     H18081   6.493  11.530   5.815 -1.9488  0.1499  0.1562
  137MOL0     H18082   6.728  11.245   5.617 -1.8415 -0.9832 -0.0015
  137MOL0     H18083   6.328  11.504   6.446  0.1833  0.1035  3.2722
  137MOL0     H18084   6.168  11.417   6.610  0.9399 -2.7135  1.8278
  138MOL0     O18085   8.092   4.879  11.424  0.0024 -0.5159  0.2081
  138MOL0     C18086   8.039   4.888  11.536  0.6152 -0.2274 -0.3766
  138MOL0     O18087   8.105   4.914  11.646 -0.0277  0.0350  0.5938
  138MOL0     C18088   8.210   4.997  11.642 -0.3809 -1.2023 -0.3422
  138MOL0     C18089   8.340   4.945  11.615  0.2613 -0.1717  0.5442
  138MOL0     C18090   8.451   5.021  11.586  0.5106 -0.5247  0.2689
  138MOL0     C18091   8.441   5.158  11.598  0.3355  0.6072  0.8523
  138MOL0     O18092   8.545   5.254  11.597 -0.9168 -0.8396 -0.0500
  138MOL0     C18093   8.589   5.308  11.722  0.2591 -0.9805  0.1269
  138MOL0     C18094   8.733   5.360  11.712 -0.5292 -0.6280  0.1259
  138MOL0     C18095   8.738   5.485  11.618 -0.1875 -0.3727 -1.1854
  138MOL0     C18096   8.873   5.546  11.600  0.2530  0.2115 -0.1946
  138MOL0     C18097   8.893   5.648  11.486  0.6681 -0.7245 -0.5632
  138MOL0     C18098   8.782   5.752  11.484  0.8425 -0.4210 -0.2716
  138MOL0     C18099   8.814   5.875  11.382 -0.1550  1.3816 -0.5674
  138MOL0     C18100   8.755   6.005  11.417 -0.1893  0.1047  0.2771
  138MOL0     N18101   8.608   5.982  11.413 -0.2279  0.3050 -0.2118
  138MOL0     C18102   8.512   6.026  11.503  0.1938 -0.3369 -0.1573
  138MOL0     C18103   8.393   5.988  11.447 -1.4527  0.6983  1.2044
  138MOL0     C18104   8.252   6.001  11.505  0.1226  0.1622  0.1892
  138MOL0     C18105   8.222   6.146  11.553 -0.1004 -0.2647 -0.5086
  138MOL0     C18106   8.220   6.254  11.446 -0.8238 -0.4900 -0.8875
  138MOL0     C18107   8.127   6.223  11.322 -0.4384 -0.4938 -0.4638
  138MOL0     O18108   8.145   6.330  11.222 -0.0374  0.0030 -0.3327
  138MOL0     C18109   8.257   6.322  11.136 -0.1680  0.5080  0.0804
  138MOL0     C18110   8.280   6.439  11.052 -0.8936  0.0318 -1.1188
  138MOL0     C18111   8.389   6.446  10.956  0.1585 -0.8921 -0.1427
  138MOL0     C18112   8.482   6.344  10.947  0.5894 -0.2691 -0.0425
  138MOL0     C18113   8.588   6.345  10.844  0.5710 -0.0235 -0.3414
  138MOL0     O18114   8.573   6.439  10.739  0.2263  0.3480  0.8413
  138MOL0     C18115   8.677   6.464  10.653  0.1735  0.7850  0.0541
  138MOL0     C18116   8.761   6.360  10.607 -0.2862  0.2165  0.1851
  138MOL0     C18117   8.875   6.383  10.529  0.1630 -0.6317 -0.4354
  138MOL0     C18118   8.917   6.512  10.497  0.9147 -0.2798 -0.4177
  138MOL0     O18119   9.039   6.527  10.421 -0.0561  0.0733 -0.5528
  138MOL0     C18120   9.067   6.654  10.372 -1.0391 -0.3961  0.4140
  138MOL0     C18121   9.186   6.660  10.285  0.1945  0.4904 -0.5747
  138MOL0     C18122   9.170   6.592  10.145  0.3155 -1.0337 -0.5347
  138MOL0     C18123   9.307   6.548  10.097 -0.8224 -0.7169  1.0227
  138MOL0     C18124   9.290   6.502   9.945 -0.2903  0.4733 -0.7350
  138MOL0     C18125   9.414   6.488   9.860 -0.4814 -0.5024  0.3056
  138MOL0     C18126   9.467   6.349   9.863 -1.1979  0.0273  0.0422
  138MOL0     C18127   9.577   6.329   9.764 -0.0456 -0.4681  0.2176
  138MOL0    Cl18128   9.583   6.153   9.724  0.1388 -0.2954  0.2680
  138MOL0     C18129   8.831   6.614  10.538  0.2160 -0.1869 -0.7122
  138MOL0     C18130   8.722   6.592  10.616  0.3816  0.0822  1.0408
  138MOL0     O18131   8.688   6.277  10.866 -0.1519 -0.2634  0.2735
  138MOL0     C18132   8.453   6.239  11.029 -0.1958  0.0650  0.5033
  138MOL0     C18133   8.348   6.223  11.119 -0.0517 -0.1401 -0.7438
  138MOL0     N18134   8.422   5.913  11.334  0.2232  0.1873  0.1541
  138MOL0     N18135   8.543   5.915  11.308 -0.3407 -0.4045 -0.2291
  138MOL0     C18136   8.314   5.216  11.624 -0.3488 -0.5712 -0.8352
  138MOL0     C18137   8.198   5.139  11.651  0.2193 -0.1979  0.3022
  138MOL0     C18138   7.908   4.810  11.535  0.2574 -0.7602 -0.3240
  138MOL0     C18139   7.826   4.809  11.648  0.2573  1.5006 -0.1960
  138MOL0     C18140   7.705   4.739  11.649  0.1559 -0.0534 -0.3132
  138MOL0     C18141   7.661   4.682  11.530 -0.1451 -0.2447 -0.6753
  138MOL0     O18142   7.552   4.606  11.513  0.7923 -0.7801 -0.0242
  138MOL0     C18143   7.441   4.602  11.599  0.0655 -0.4351  0.0887
  138MOL0     C18144   7.363   4.491  11.536  0.0416 -0.6971  0.2506
  138MOL0     C18145   7.229   4.503  11.599 -0.3149 -0.1372  0.2729
  138MOL0     C18146   7.111   4.456  11.515 -0.0024 -0.7046  1.4108
  138MOL0     C18147   7.074   4.554  11.408  0.4604 -0.0983 -0.0463
  138MOL0     C18148   7.018   4.629  11.330  0.3091  0.8976 -0.3273
  138MOL0     C18149   7.754   4.670  11.430  0.9895 -0.1504  0.1577
  138MOL0     C18150   7.876   4.734  11.430  0.0383  0.1714  0.1460
  138MOL0     H18151   8.348   4.837  11.608 -4.6649 -0.6596 -1.6966
  138MOL0     H18152   8.547   4.973  11.569  0.3309 -0.6035 -0.5621
  138MOL0     H18153   8.586   5.232  11.801 -3.5115 -1.4006 -0.2435
  138MOL0     H18154   8.527   5.392  11.754  3.0531  1.4413 -0.3474
  138MOL0     H18155   8.792   5.278  11.669  1.3583  0.9732 -0.4392
  138MOL0     H18156   8.762   5.389  11.813  0.3927 -0.2166 -0.2546
  138MOL0     H18157   8.671   5.566  11.649 -0.4467 -0.8311 -0.5352
  138MOL0     H18158   8.699   5.450  11.522  0.5480  1.4588 -2.2062
  138MOL0     H18159   8.885   5.604  11.692 -3.6321  1.2497 -0.1394
  138MOL0     H18160   8.940   5.461  11.587  1.0733  1.1320 -2.4718
  138MOL0     H18161   8.896   5.597  11.389 -1.0505 -2.7449  0.3765
  138MOL0     H18162   8.991   5.695  11.502 -1.1776  3.3093  0.2653
  138MOL0     H18163   8.773   5.773  11.591 -0.4251 -2.7123  0.1354
  138MOL0     H18164   8.686   5.711  11.452  0.8080  0.2023 -0.9814
  138MOL0     H18165   8.923   5.890  11.383  0.2106 -0.9307  1.1716
  138MOL0     H18166   8.785   5.850  11.279 -0.0833 -2.0041  0.1301
  138MOL0     H18167   8.788   6.084  11.348  2.4274 -0.3650  0.9049
  138MOL0     H18168   8.789   6.029  11.518 -1.4003 -2.4753  1.3791
  138MOL0     H18169   8.522   6.092  11.589  0.2323  1.1872 -1.2922
  138MOL0     H18170   8.237   5.935  11.591 -1.8807 -0.7233 -0.7945
  138MOL0     H18171   8.175   5.962  11.438 -1.6155  3.3137  0.1797
  138MOL0     H18172   8.296   6.173  11.629 -1.3223  1.4914  0.0992
  138MOL0     H18173   8.130   6.134  11.611  1.6468 -1.5687  2.1982
  138MOL0     H18174   8.180   6.342  11.496  2.5321  1.7109 -1.7590
  138MOL0     H18175   8.323   6.269  11.413 -0.3021  0.2848  0.9398
  138MOL0     H18176   8.020   6.240  11.340  0.3018  5.2371  0.4422
  138MOL0     H18177   8.152   6.122  11.289  1.9216 -0.5270  1.1507
  138MOL0     H18178   8.223   6.530  11.065 -2.6793 -1.1547 -0.1014
  138MOL0     H18179   8.386   6.533  10.891  2.7857 -1.6637 -1.4132
  138MOL0     H18180   8.741   6.255  10.625 -0.5563  0.4420  1.2465
  138MOL0     H18181   8.932   6.298  10.494  0.6369 -1.0667  1.2946
  138MOL0     H18182   9.077   6.722  10.457  0.7472 -1.3451  1.0068
  138MOL0     H18183   8.993   6.686  10.297 -0.2492  2.5691  0.7499
  138MOL0     H18184   9.269   6.615  10.340 -0.2976 -2.5640 -2.1160
  138MOL0     H18185   9.211   6.766  10.270  1.8005  0.1654 -0.2605
  138MOL0     H18186   9.135   6.677  10.085 -0.2362  0.7271  2.1236
  138MOL0     H18187   9.106   6.504  10.148 -5.0049  2.2197 -3.1008
  138MOL0     H18188   9.371   6.636  10.103 -2.6414  0.6168  1.8327
  138MOL0     H18189   9.349   6.466  10.155 -0.0204 -0.4046  0.8964
  138MOL0     H18190   9.227   6.583   9.906 -0.5846  1.0703  0.9030
  138MOL0     H18191   9.234   6.409   9.933 -2.1333  1.0273  2.4381
  138MOL0     H18192   9.496   6.561   9.865  1.6868 -2.6144 -1.6755
  138MOL0     H18193   9.375   6.503   9.759 -1.1874 -1.2188  0.4706
  138MOL0     H18194   9.510   6.327   9.961 -1.9569 -1.8814 -0.0077
  138MOL0     H18195   9.392   6.278   9.828  1.0906 -1.7157 -1.6682
  138MOL0     H18196   9.678   6.349   9.801 -0.0836 -1.6946  1.0351
  138MOL0     H18197   9.544   6.375   9.670 -1.9041  0.1069  1.0938
  138MOL0     H18198   8.861   6.716  10.516 -0.0756 -0.4938 -2.6226
  138MOL0     H18199   8.664   6.679  10.645 -0.1337  0.2857 -0.5172
  138MOL0     H18200   8.522   6.158  11.008 -2.9775 -2.4392  0.4024
  138MOL0     H18201   8.334   6.138  11.186 -1.7413  1.3138  0.8598
  138MOL0     H18202   8.296   5.323  11.630 -0.3479 -0.6536  1.6520
  138MOL0     H18203   8.099   5.182  11.653  0.4481  0.3496  0.1338
  138MOL0     H18204   7.862   4.874  11.727 -1.2049  3.1094 -0.7793
  138MOL0     H18205   7.657   4.711  11.742  0.8002  1.4915  0.5284
  138MOL0     H18206   7.393   4.699  11.615  2.4304  1.2454 -2.1528
  138MOL0     H18207   7.486   4.579  11.696  1.9036  3.4396  0.3387
  138MOL0     H18208   7.361   4.495  11.427 -2.2554 -2.6640  0.1429
  138MOL0     H18209   7.406   4.395  11.564  1.7291 -0.1982 -0.5347
  138MOL0     H18210   7.209   4.598  11.649 -3.5855  0.4797 -1.9198
  138MOL0     H18211   7.238   4.426  11.677  4.7867 -1.4914 -1.2250
  138MOL0     H18212   7.131   4.363  11.461 -0.9945  0.1547 -0.5290
  138MOL0     H18213   7.029   4.440  11.586 -1.4208 -0.1873 -0.0546
  138MOL0     H18214   6.963   4.692  11.264  1.5939  3.7831  1.1913
  138MOL0     H18215   7.723   4.613  11.344 -0.7708 -2.6563  2.3101
  138MOL0     H18216   7.936   4.726  11.340 -2.1289 -1.0047 -1.2730
  139MOL0     O18217   1.241   3.235   0.718 -0.5112  0.5661  0.8788
  139MOL0     C18218   1.276   3.340   0.761 -0.1091 -0.5538 -0.1964
  139MOL0     O18219   1.313   3.355   0.894 -0.1351  0.3761  0.3907
  139MOL0     C18220   1.311   3.243   0.979  0.4926 -0.0691  0.4834
  139MOL0     C18221   1.187   3.195   1.030 -0.5060  0.1868 -0.6637
  139MOL0     C18222   1.184   3.100   1.132  0.5560 -0.2486 -1.2423
  139MOL0     C18223   1.306   3.056   1.188  0.0038  0.8904  0.1011
  139MOL0     O18224   1.295   2.953   1.286  0.2723 -1.0643  0.3202
  139MOL0     C18225   1.399   2.943   1.391  0.4535 -0.1125  1.8638
  139MOL0     C18226   1.337   2.838   1.494 -1.4694 -0.5248 -0.6115
  139MOL0     C18227   1.435   2.809   1.605  0.9355  0.0730  0.8608
  139MOL0     C18228   1.351   2.780   1.728  0.1505  0.0594  0.6182
  139MOL0     C18229   1.445   2.750   1.855  1.0790  0.5769  0.4177
  139MOL0     C18230   1.518   2.619   1.841  0.8235 -0.4204  0.5312
  139MOL0     C18231   1.519   2.555   1.980 -0.2575  1.0636  0.5153
  139MOL0     C18232   1.586   2.413   1.967  0.6940  0.2427  0.6900
  139MOL0     N18233   1.575   2.323   2.082 -0.5440 -0.2962  0.0264
  139MOL0     C18234   1.454   2.293   2.148 -0.1332 -0.0705  0.2743
  139MOL0     C18235   1.482   2.230   2.258 -0.7802 -0.4559  0.4304
  139MOL0     C18236   1.392   2.194   2.366  0.2476  0.7476 -0.2818
  139MOL0     C18237   1.380   2.297   2.485  0.5389  0.1688  0.1184
  139MOL0     C18238   1.313   2.428   2.445  0.0868 -0.2124  0.1933
  139MOL0     C18239   1.158   2.430   2.444  0.3324  0.3528 -0.3552
  139MOL0     O18240   1.104   2.372   2.562 -0.8406 -0.1619 -0.9861
  139MOL0     C18241   0.976   2.388   2.605  0.7242 -1.5741 -0.1299
  139MOL0     C18242   0.935   2.310   2.704  0.2175  0.3275  0.0675
  139MOL0     C18243   0.820   2.325   2.777  0.6076  0.6967 -0.3872
  139MOL0     C18244   0.723   2.421   2.741  0.5248  0.4780 -0.4003
  139MOL0     C18245   0.597   2.443   2.814 -0.6071 -0.0627  0.9033
  139MOL0     O18246   0.532   2.557   2.778  0.1721  0.2616 -0.4536
  139MOL0     C18247   0.412   2.586   2.841 -0.2445 -0.2833  0.3072
  139MOL0     C18248   0.409   2.678   2.943  0.2584 -0.1868  0.4300
  139MOL0     C18249   0.284   2.731   2.985  0.1085  1.0204 -0.9160
  139MOL0     C18250   0.168   2.683   2.928  0.6302 -0.4046 -0.0880
  139MOL0     O18251   0.047   2.743   2.966  0.8150 -0.0390 -1.2485
  139MOL0     C18252  -0.071   2.746   2.879 -0.3973 -0.3200  0.5194
  139MOL0     C18253  -0.181   2.853   2.913  0.2111  0.3005  0.4942
  139MOL0     C18254  -0.235   2.840   3.058 -0.7674 -0.3343  0.0011
  139MOL0     C18255  -0.315   2.709   3.080 -0.2773 -0.2168  0.1880
  139MOL0     C18256  -0.398   2.727   3.210  0.1867 -0.3791 -0.3965
  139MOL0     C18257  -0.466   2.601   3.259  0.2881 -0.4915  0.7831
  139MOL0     C18258  -0.591   2.563   3.167 -0.2914 -0.3589 -0.2040
  139MOL0     C18259  -0.690   2.490   3.261  0.2931 -0.4743 -0.2436
  139MOL0    Cl18260  -0.845   2.467   3.166 -0.0791  0.3034 -0.4277
  139MOL0     C18261   0.167   2.585   2.822 -0.1075 -0.9052  0.0716
  139MOL0     C18262   0.298   2.546   2.775  0.0862  0.8034  0.0565
  139MOL0     O18263   0.557   2.359   2.883  0.0166  0.6305 -0.8451
  139MOL0     C18264   0.761   2.505   2.631 -0.2400 -0.6275 -0.5488
  139MOL0     C18265   0.882   2.487   2.567 -0.1152  0.4255 -0.5144
  139MOL0     N18266   1.625   2.209   2.261 -0.2532 -0.2864  0.5721
  139MOL0     N18267   1.678   2.266   2.154  0.9353  0.3220 -0.3175
  139MOL0     C18268   1.428   3.109   1.144 -0.5246  0.6311 -1.1406
  139MOL0     C18269   1.423   3.207   1.053 -0.2030 -0.3738  1.0522
  139MOL0     C18270   1.290   3.454   0.671 -0.5436 -0.1995  0.3517
  139MOL0     C18271   1.264   3.581   0.728 -1.3415  0.3458  1.1363
  139MOL0     C18272   1.268   3.687   0.630  0.2836  0.7415  0.0608
  139MOL0     C18273   1.285   3.659   0.485 -0.8417 -0.2320  1.1692
  139MOL0     O18274   1.282   3.755   0.386  0.5041  0.2161  0.2947
  139MOL0     C18275   1.316   3.883   0.426  0.4176 -0.6689  0.4779
  139MOL0     C18276   1.283   3.977   0.311  0.0892 -0.0887  1.2761
  139MOL0     C18277   1.147   3.982   0.247 -0.0387 -0.2635  0.2109
  139MOL0     C18278   1.139   3.900   0.122 -0.3240  0.5350  0.4941
  139MOL0     C18279   1.034   3.944   0.029  0.7445  0.2647 -0.5143
  139MOL0     C18280   0.961   3.999  -0.051 -0.4288  0.1774 -0.2443
  139MOL0     C18281   1.307   3.536   0.440 -0.2804 -0.4350 -0.2068
  139MOL0     C18282   1.318   3.436   0.530  0.4368  0.1014  0.1523
  139MOL0     H18283   1.085   3.218   1.000  0.0734  0.7739 -2.3113
  139MOL0     H18284   1.094   3.049   1.165  1.7267 -1.2546  0.6089
  139MOL0     H18285   1.415   3.038   1.441  0.8126  1.0471 -0.3079
  139MOL0     H18286   1.493   2.907   1.346 -0.1550 -1.0930  1.3284
  139MOL0     H18287   1.309   2.742   1.450 -0.1045 -1.4975  0.5427
  139MOL0     H18288   1.250   2.890   1.535  0.0572  1.6736  0.0540
  139MOL0     H18289   1.499   2.897   1.619  0.6411  0.0721  2.4273
  139MOL0     H18290   1.505   2.730   1.576 -0.1857  0.1972 -2.5469
  139MOL0     H18291   1.277   2.855   1.756  0.1467  0.5357 -0.5994
  139MOL0     H18292   1.302   2.689   1.692  1.0598 -0.3407  0.3598
  139MOL0     H18293   1.387   2.750   1.947 -1.0816 -0.7452 -0.8508
  139MOL0     H18294   1.524   2.825   1.864 -0.9675  3.1940 -1.6035
  139MOL0     H18295   1.615   2.629   1.790  0.3803  0.2998 -0.1892
  139MOL0     H18296   1.465   2.555   1.769 -1.8765  1.4510  0.7272
  139MOL0     H18297   1.579   2.610   2.053 -0.5754 -0.1574  1.7396
  139MOL0     H18298   1.416   2.546   2.016 -1.8744  0.2868 -3.6818
  139MOL0     H18299   1.693   2.426   1.953  0.2181  2.4759 -1.4158
  139MOL0     H18300   1.541   2.360   1.883  0.0490 -1.7888  2.2114
  139MOL0     H18301   1.356   2.338   2.142 -0.0123  0.1119 -0.5085
  139MOL0     H18302   1.425   2.099   2.411 -1.4304  0.1268 -0.2928
  139MOL0     H18303   1.291   2.185   2.326 -1.1364  1.9808  2.7113
  139MOL0     H18304   1.473   2.309   2.541  1.3560  0.6361 -1.2731
  139MOL0     H18305   1.310   2.246   2.552  0.0871 -0.5864 -0.9019
  139MOL0     H18306   1.338   2.504   2.520 -4.4616  0.3845  1.3957
  139MOL0     H18307   1.346   2.439   2.341  1.6986  1.8440  0.8543
  139MOL0     H18308   1.112   2.374   2.362 -4.5473  2.3064  0.6686
  139MOL0     H18309   1.126   2.533   2.429 -1.5552  0.5216  3.6064
  139MOL0     H18310   1.003   2.244   2.758  0.7043  0.7011 -0.0951
  139MOL0     H18311   0.794   2.253   2.854  0.4755 -0.5880 -1.5734
  139MOL0     H18312   0.503   2.715   2.983  0.8520 -0.9111 -0.2658
  139MOL0     H18313   0.280   2.806   3.063  1.7077  0.0738  0.1201
  139MOL0     H18314  -0.116   2.647   2.889 -0.6220 -0.3403 -0.6121
  139MOL0     H18315  -0.041   2.760   2.775 -1.1853  2.4919  0.5707
  139MOL0     H18316  -0.258   2.838   2.836  0.9599 -0.9290 -0.0593
  139MOL0     H18317  -0.139   2.952   2.894 -1.3523  0.9853  0.4543
  139MOL0     H18318  -0.300   2.926   3.072  0.6276  1.2166 -2.3645
  139MOL0     H18319  -0.146   2.849   3.120  1.1904  2.6200 -2.9287
  139MOL0     H18320  -0.382   2.707   2.994 -0.4832 -2.9784  0.3274
  139MOL0     H18321  -0.260   2.615   3.090 -1.6015 -0.8207  2.4230
  139MOL0     H18322  -0.465   2.813   3.203  1.6194  1.0993  2.3076
  139MOL0     H18323  -0.322   2.745   3.287  0.9543 -1.6303 -0.8311
  139MOL0     H18324  -0.512   2.619   3.357 -4.2123 -3.0727 -0.5556
  139MOL0     H18325  -0.395   2.518   3.261  0.4288 -0.3691  1.9563
  139MOL0     H18326  -0.632   2.661   3.141 -1.3201 -0.6610  0.2341
  139MOL0     H18327  -0.566   2.516   3.072  1.0494  1.6008 -0.8860
  139MOL0     H18328  -0.696   2.548   3.353 -1.0800  0.2428 -0.7627
  139MOL0     H18329  -0.643   2.394   3.283 -1.3999 -1.9363 -2.5512
  139MOL0     H18330   0.086   2.545   2.761  2.6565 -0.3849 -4.4552
  139MOL0     H18331   0.302   2.485   2.685 -0.1483  2.8944 -1.4556
  139MOL0     H18332   0.689   2.581   2.603  0.2986 -0.5894 -1.8927
  139MOL0     H18333   0.900   2.546   2.478 -2.6404  1.9796 -0.0797
  139MOL0     H18334   1.521   3.084   1.194  0.5406  1.9142 -2.3668
  139MOL0     H18335   1.501   3.274   1.017 -1.5417 -0.3751 -2.2617
  139MOL0     H18336   1.251   3.608   0.832  0.5329  1.0082  1.2416
  139MOL0     H18337   1.250   3.791   0.656  2.0606  1.4549 -1.3413
  139MOL0     H18338   1.421   3.887   0.455  0.8727 -2.7598 -0.7035
  139MOL0     H18339   1.272   3.928   0.516  3.4065  1.2304  1.1394
  139MOL0     H18340   1.288   4.080   0.349 -4.9050  1.4493 -1.2536
  139MOL0     H18341   1.361   3.958   0.237 -1.7667  0.9953 -1.1204
  139MOL0     H18342   1.120   4.088   0.235  3.0160  0.7378  1.1605
  139MOL0     H18343   1.087   3.928   0.320 -2.5146  2.3190  0.2546
  139MOL0     H18344   1.228   3.871   0.067 -1.6456  0.7507 -1.8880
  139MOL0     H18345   1.091   3.805   0.150  0.7711 -0.0511  0.4247
  139MOL0     H18346   0.902   4.056  -0.120 -1.8949 -1.4335 -0.3968
  139MOL0     H18347   1.319   3.515   0.334  0.7556  0.9229 -0.3918
  139MOL0     H18348   1.329   3.335   0.491  2.2902  0.3418 -0.0511
  140MOL0     O18349   3.911   3.892   8.111 -0.6231 -0.2154 -0.0588
  140MOL0     C18350   3.882   3.841   8.219  0.2060 -0.3085  0.9598
  140MOL0     O18351   3.949   3.849   8.332 -0.0851 -0.6129 -0.5889
  140MOL0     C18352   4.067   3.915   8.347  0.7683  0.0523 -0.4924
  140MOL0     C18353   4.079   4.048   8.309 -0.8520 -0.3726 -0.1310
  140MOL0     C18354   4.189   4.125   8.342 -0.2865 -1.3279 -0.3196
  140MOL0     C18355   4.300   4.069   8.407 -0.6171  0.1942  0.1833
  140MOL0     O18356   4.408   4.147   8.461  0.2947  0.2138 -0.6343
  140MOL0     C18357   4.501   4.106   8.564 -0.4134 -0.2580 -0.8484
  140MOL0     C18358   4.576   4.223   8.630  0.3748  0.3127 -0.8017
  140MOL0     C18359   4.696   4.178   8.716 -0.1117 -0.7738 -0.5693
  140MOL0     C18360   4.649   4.091   8.833 -0.5047 -0.4488 -0.1906
  140MOL0     C18361   4.765   4.053   8.920 -0.1967  0.4228 -0.5310
  140MOL0     C18362   4.734   3.944   9.019 -0.9253  0.5923 -0.7438
  140MOL0     C18363   4.827   3.946   9.143 -0.9662 -0.6415 -0.1401
  140MOL0     C18364   4.977   3.948   9.137  0.8686 -0.6805 -0.5427
  140MOL0     N18365   5.030   3.853   9.040  0.5430 -1.0489 -0.0408
  140MOL0     C18366   5.001   3.721   9.031  0.2179  0.0745  0.5192
  140MOL0     C18367   5.064   3.673   8.923 -0.3607 -0.0224  0.4843
  140MOL0     C18368   5.046   3.531   8.871 -0.0736  0.9650 -0.5202
  140MOL0     C18369   5.021   3.432   8.985  0.5072 -0.8819 -1.1123
  140MOL0     C18370   5.025   3.287   8.943 -0.5317 -0.8458  0.7899
  140MOL0     C18371   5.172   3.245   8.926 -0.1358 -1.0208 -0.4033
  140MOL0     O18372   5.182   3.103   8.934 -0.1712  0.0540 -0.1373
  140MOL0     C18373   5.143   3.029   8.823  0.9005 -0.7159 -0.2764
  140MOL0     C18374   5.093   2.894   8.833 -0.5465 -0.0810 -0.4821
  140MOL0     C18375   5.055   2.817   8.727 -1.2027  0.6055 -0.3186
  140MOL0     C18376   5.060   2.876   8.601 -0.4058 -0.1227 -0.4735
  140MOL0     C18377   5.017   2.796   8.478  0.0136  0.5512 -0.0675
  140MOL0     O18378   5.054   2.851   8.364  0.0464 -0.2885 -0.4466
  140MOL0     C18379   5.011   2.808   8.235 -0.1408 -0.2328  0.5021
  140MOL0     C18380   5.114   2.748   8.153  0.4437 -0.2711 -0.3097
  140MOL0     C18381   5.089   2.694   8.033 -0.1606 -0.1902 -0.9017
  140MOL0     C18382   4.967   2.725   7.980  0.0212 -0.4736  0.7463
  140MOL0     O18383   4.941   2.698   7.841  0.4528  0.4114 -0.8565
  140MOL0     C18384   4.831   2.604   7.825 -0.2751  0.1637  0.1842
  140MOL0     C18385   4.845   2.538   7.688 -0.9869 -0.2535  0.0606
  140MOL0     C18386   4.975   2.467   7.654  0.3979 -0.5595  0.1191
  140MOL0     C18387   5.013   2.353   7.751  0.5277  0.0501  0.7241
  140MOL0     C18388   5.135   2.284   7.708  0.0156  0.3408 -0.0411
  140MOL0     C18389   5.198   2.205   7.828  0.0030 -0.1511  0.4416
  140MOL0     C18390   5.305   2.097   7.788 -0.4498 -0.3565  0.5156
  140MOL0     C18391   5.350   2.021   7.915  1.2032 -0.0849  1.6765
  140MOL0    Cl18392   5.233   1.890   7.933  0.1394  0.3266  0.3139
  140MOL0     C18393   4.861   2.785   8.060  1.2034  0.5937  0.0734
  140MOL0     C18394   4.880   2.815   8.194  0.2438 -0.5568  0.1397
  140MOL0     O18395   4.945   2.690   8.496 -0.3088 -0.5340  0.1251
  140MOL0     C18396   5.110   3.005   8.580  0.5628  0.5320  0.6711
  140MOL0     C18397   5.148   3.081   8.691  0.6062 -0.8063 -0.2237
  140MOL0     N18398   5.121   3.781   8.865  0.3541 -0.2348  0.6731
  140MOL0     N18399   5.109   3.891   8.936 -0.0795 -0.0026 -0.3098
  140MOL0     C18400   4.293   3.930   8.436 -1.1697  1.6284 -0.0854
  140MOL0     C18401   4.182   3.850   8.397  0.7770  0.6628 -0.2860
  140MOL0     C18402   3.764   3.755   8.219  1.5210 -0.3973 -0.4027
  140MOL0     C18403   3.657   3.775   8.131  0.4323  0.4638  0.9078
  140MOL0     C18404   3.556   3.678   8.105 -0.8980 -0.6072  0.0047
  140MOL0     C18405   3.554   3.556   8.186  0.4083  0.0370  0.8374
  140MOL0     O18406   3.446   3.465   8.178  0.0159  1.0878  0.4534
  140MOL0     C18407   3.381   3.436   8.046  0.3075 -0.1827  0.0442
  140MOL0     C18408   3.280   3.330   8.054 -0.0079  0.4298  0.2209
  140MOL0     C18409   3.318   3.205   8.121 -0.2185  0.6938  0.1704
  140MOL0     C18410   3.424   3.121   8.042 -0.4085  0.4421 -0.8490
  140MOL0     C18411   3.474   3.023   8.142 -0.5555 -0.7279 -0.5522
  140MOL0     C18412   3.512   2.948   8.231  0.5665  1.2810  0.3202
  140MOL0     C18413   3.646   3.553   8.294 -0.7492 -0.3610 -0.0795
  140MOL0     C18414   3.751   3.646   8.306  0.5370 -0.5747 -0.3425
  140MOL0     H18415   3.983   4.086   8.276 -0.4888  1.6751  1.0085
  140MOL0     H18416   4.196   4.232   8.324 -0.8936 -1.2544 -0.1374
  140MOL0     H18417   4.579   4.050   8.511  1.5757  0.6480  0.9454
  140MOL0     H18418   4.456   4.051   8.647  3.0699 -0.8128  0.8762
  140MOL0     H18419   4.506   4.291   8.680 -0.3489  0.5903 -2.1416
  140MOL0     H18420   4.618   4.289   8.554 -0.6172  1.3240 -0.5107
  140MOL0     H18421   4.760   4.258   8.755 -3.9150  1.4660  1.6698
  140MOL0     H18422   4.761   4.124   8.646  1.2327 -1.2085  0.9526
  140MOL0     H18423   4.573   4.144   8.891 -0.1343 -1.3627  1.1714
  140MOL0     H18424   4.609   3.995   8.798 -0.3497 -0.1294 -1.3050
  140MOL0     H18425   4.791   4.145   8.974  3.8238 -0.2471 -1.0494
  140MOL0     H18426   4.857   4.024   8.868 -0.1177  0.4297 -0.3941
  140MOL0     H18427   4.736   3.845   8.973 -3.5073  0.7374 -1.3039
  140MOL0     H18428   4.634   3.961   9.058  0.2810  2.7241  1.7043
  140MOL0     H18429   4.800   4.037   9.197  3.3440  1.2017 -0.7195
  140MOL0     H18430   4.807   3.856   9.203  1.2840 -1.0059  0.1346
  140MOL0     H18431   5.007   3.949   9.242 -0.3562  2.3670 -0.1098
  140MOL0     H18432   5.010   4.044   9.096 -4.1648  1.1885 -0.9248
  140MOL0     H18433   4.935   3.682   9.108 -0.1263 -0.5389 -0.0803
  140MOL0     H18434   5.134   3.498   8.816 -0.1607 -3.9766  1.7562
  140MOL0     H18435   4.967   3.541   8.796 -1.1729 -4.8075 -0.5165
  140MOL0     H18436   4.919   3.445   9.022  1.4119  0.8127  1.0515
  140MOL0     H18437   5.076   3.454   9.077 -2.3149  0.2424  0.4151
  140MOL0     H18438   4.978   3.235   9.027 -0.9538  3.3924  3.4973
  140MOL0     H18439   4.977   3.280   8.845 -2.9426  0.5212  1.7726
  140MOL0     H18440   5.235   3.280   9.009 -2.3682  0.8387  0.6530
  140MOL0     H18441   5.221   3.284   8.836  1.1166 -2.0827 -0.2074
  140MOL0     H18442   5.097   2.851   8.933 -0.7803  2.1803  0.5627
  140MOL0     H18443   5.036   2.711   8.741  2.4086 -0.0143  1.0449
  140MOL0     H18444   5.207   2.759   8.207 -0.6877  0.9235  1.4849
  140MOL0     H18445   5.168   2.647   7.975 -0.9769  0.7258 -2.8152
  140MOL0     H18446   4.738   2.662   7.829  1.6537  3.4799  1.7047
  140MOL0     H18447   4.829   2.532   7.907  0.3878  0.8846  0.8584
  140MOL0     H18448   4.830   2.615   7.612 -1.4041 -3.3352 -3.2172
  140MOL0     H18449   4.766   2.464   7.672 -0.3284 -1.9990  3.7557
  140MOL0     H18450   5.054   2.543   7.657  1.8231 -1.9930  0.1790
  140MOL0     H18451   4.966   2.430   7.552 -4.7167 -2.0387  0.8136
  140MOL0     H18452   5.026   2.387   7.854  4.3920 -1.2580  0.8277
  140MOL0     H18453   4.940   2.271   7.757  1.1913 -0.9820 -2.8463
  140MOL0     H18454   5.200   2.368   7.681 -1.7528  1.7559 -0.0381
  140MOL0     H18455   5.111   2.223   7.621  0.9913  0.9950 -0.7916
  140MOL0     H18456   5.118   2.147   7.874  1.2108 -1.7179  0.6621
  140MOL0     H18457   5.226   2.290   7.891  1.0451  0.3239 -0.6130
  140MOL0     H18458   5.276   2.021   7.716  2.2289 -0.5176 -0.5017
  140MOL0     H18459   5.396   2.141   7.747 -0.9508 -1.1112 -1.5035
  140MOL0     H18460   5.356   2.089   8.000  1.5701  1.1519  0.6822
  140MOL0     H18461   5.451   1.983   7.899  0.7985 -0.2252 -0.9133
  140MOL0     H18462   4.767   2.811   8.011  2.3387  3.6049 -0.7604
  140MOL0     H18463   4.803   2.845   8.264  1.9374 -0.0160  1.8321
  140MOL0     H18464   5.126   3.048   8.482  4.1397 -0.4160  0.6966
  140MOL0     H18465   5.184   3.181   8.669 -4.5665  1.8167  1.6288
  140MOL0     H18466   4.370   3.896   8.503 -1.0154  2.1979  0.0315
  140MOL0     H18467   4.179   3.745   8.423 -1.3817 -0.0097 -2.8536
  140MOL0     H18468   3.647   3.864   8.070  0.5826 -1.0963 -1.5197
  140MOL0     H18469   3.477   3.689   8.032  1.6423  2.4041 -2.5924
  140MOL0     H18470   3.465   3.403   7.985  0.7847 -1.8411  1.5314
  140MOL0     H18471   3.343   3.529   8.002 -0.4150 -0.8934 -0.8847
  140MOL0     H18472   3.196   3.371   8.111 -3.0227 -4.4754 -0.0536
  140MOL0     H18473   3.243   3.311   7.953 -0.5152  0.3201  0.4226
  140MOL0     H18474   3.228   3.143   8.129 -0.5462  0.7472 -2.1903
  140MOL0     H18475   3.354   3.235   8.219 -2.4571 -0.3523  1.3741
  140MOL0     H18476   3.401   3.054   7.958  4.4939 -0.8942 -1.4123
  140MOL0     H18477   3.503   3.190   8.011  0.7944 -0.2537  0.5029
  140MOL0     H18478   3.531   2.889   8.318  0.6276 -0.2557 -0.7027
  140MOL0     H18479   3.629   3.471   8.363  0.2595 -0.8345 -0.3780
  140MOL0     H18480   3.826   3.637   8.384 -1.6919 -0.6911  1.8737
  141MOL0     O18481  10.906   9.350   3.746 -0.3813  0.3094 -0.1573
  141MOL0     C18482  10.897   9.326   3.867 -1.2315  1.0697  0.7481
  141MOL0     O18483  10.803   9.240   3.926  0.2458 -0.3928  1.2363
  141MOL0     C18484  10.723   9.161   3.839  0.2384  0.1045  0.3255
  141MOL0     C18485  10.714   9.028   3.862 -1.3641 -0.2243 -0.7824
  141MOL0     C18486  10.628   8.946   3.784 -0.2123 -0.3332 -0.8834
  141MOL0     C18487  10.546   9.003   3.692 -0.4449 -0.2562  0.2867
  141MOL0     O18488  10.474   8.908   3.617  0.8074  0.0414  0.4006
  141MOL0     C18489  10.442   8.954   3.482  0.0279 -0.0990 -1.0024
  141MOL0     C18490  10.346   8.841   3.441  0.5411 -0.3357  0.4208
  141MOL0     C18491  10.290   8.865   3.297 -0.0306  0.1320  0.1667
  141MOL0     C18492  10.184   8.982   3.292  0.4934 -0.4602 -1.5165
  141MOL0     C18493  10.111   8.968   3.163  0.1997  0.3067  0.2023
  141MOL0     C18494   9.997   9.069   3.150  0.1377 -0.8113 -0.5896
  141MOL0     C18495   9.929   9.061   3.013  0.1762 -0.0117  0.0499
  141MOL0     C18496   9.833   9.176   2.996  0.8933  0.5082  0.3725
  141MOL0     N18497   9.702   9.151   3.063 -0.3813  0.2632 -0.1915
  141MOL0     C18498   9.606   9.060   3.019 -0.6815  0.9711  0.3770
  141MOL0     C18499   9.498   9.071   3.096 -0.4134 -1.5160  0.1906
  141MOL0     C18500   9.360   9.021   3.093  0.1016 -0.4989  0.0484
  141MOL0     C18501   9.355   8.868   3.110  0.2105  0.4088  0.2238
  141MOL0     C18502   9.210   8.826   3.090  0.4087 -0.3543  0.1930
  141MOL0     C18503   9.181   8.686   3.063 -0.0985  0.3095  0.5610
  141MOL0     O18504   9.258   8.638   2.944  0.7120 -0.1926 -0.3363
  141MOL0     C18505   9.337   8.530   2.965  0.1887 -0.9306  0.0479
  141MOL0     C18506   9.287   8.394   2.966  0.2166 -0.0483 -0.5342
  141MOL0     C18507   9.379   8.293   2.989 -0.3821  0.6167  0.4779
  141MOL0     C18508   9.516   8.317   3.005  0.3639  0.1226 -0.4298
  141MOL0     C18509   9.604   8.205   3.024  0.1745  0.2250 -1.0801
  141MOL0     O18510   9.534   8.083   3.057  0.1635  0.3095 -0.1729
  141MOL0     C18511   9.602   7.983   3.116  0.8735  0.1829  0.7112
  141MOL0     C18512   9.600   7.864   3.043 -0.7751 -0.2787  0.1637
  141MOL0     C18513   9.680   7.750   3.088  0.8427  1.1639  0.5065
  141MOL0     C18514   9.761   7.758   3.194 -0.0720 -0.3740  0.1606
  141MOL0     O18515   9.841   7.656   3.240  0.3536  0.3758 -0.1540
  141MOL0     C18516   9.789   7.527   3.252 -0.1854  0.2890  0.5231
  141MOL0     C18517   9.894   7.417   3.291  0.8571 -0.2209 -0.2443
  141MOL0     C18518  10.003   7.398   3.179  0.4182 -0.1574  0.8035
  141MOL0     C18519   9.931   7.371   3.046 -0.4199  0.6860  0.4193
  141MOL0     C18520  10.026   7.319   2.939 -0.3136 -0.5994  0.2505
  141MOL0     C18521  10.032   7.164   2.935  0.2041  0.4447 -0.2254
  141MOL0     C18522  10.100   7.105   2.809  0.7400 -1.1361 -0.3024
  141MOL0     C18523  10.022   7.125   2.690 -0.0624 -0.3317  1.2869
  141MOL0    Cl18524   9.873   7.018   2.673  0.1427  0.2753  0.2385
  141MOL0     C18525   9.764   7.873   3.262  0.4758  0.8025 -1.1021
  141MOL0     C18526   9.680   7.987   3.234  0.4429 -0.3190  0.9081
  141MOL0     O18527   9.719   8.221   3.037  0.5535 -0.3200  0.0399
  141MOL0     C18528   9.558   8.450   3.009  0.5934  0.0772  0.4331
  141MOL0     C18529   9.473   8.553   2.976  0.5733  0.0033 -0.6601
  141MOL0     N18530   9.533   9.165   3.200 -0.0222  0.6589 -0.8714
  141MOL0     N18531   9.655   9.211   3.172 -0.1191  0.5654  0.2726
  141MOL0     C18532  10.545   9.135   3.672  0.2182  0.7194 -0.0463
  141MOL0     C18533  10.637   9.217   3.743 -0.5307 -0.2527 -0.6135
  141MOL0     C18534  10.982   9.411   3.957 -0.1563 -1.3131  0.2053
  141MOL0     C18535  11.069   9.511   3.898  0.2060 -0.3135 -0.6161
  141MOL0     C18536  11.161   9.578   3.976 -0.3164 -0.1120 -0.1170
  141MOL0     C18537  11.172   9.539   4.118  0.0931 -0.2426  0.1580
  141MOL0     O18538  11.278   9.592   4.188 -0.2599 -1.1529  0.9242
  141MOL0     C18539  11.276   9.733   4.213 -0.0679 -0.6463  0.3233
  141MOL0     C18540  11.286   9.759   4.360  0.6292 -0.6774  0.8740
  141MOL0     C18541  11.274   9.904   4.410 -0.1595 -0.9988 -0.0582
  141MOL0     C18542  11.260   9.912   4.556  0.4469 -0.2080  0.1183
  141MOL0     C18543  11.389   9.874   4.623 -0.0627 -0.5956  0.6899
  141MOL0     C18544  11.494   9.842   4.673 -0.4240 -0.1702 -0.4372
  141MOL0     C18545  11.091   9.444   4.178 -0.8111  0.1266  0.6227
  141MOL0     C18546  10.990   9.385   4.094  1.3024 -0.6780 -0.1905
  141MOL0     H18547  10.776   8.998   3.946  1.1905  1.7018 -1.8557
  141MOL0     H18548  10.637   8.838   3.797  0.2640 -0.2609 -0.5833
  141MOL0     H18549  10.535   8.944   3.425  0.9017  0.7837  0.2292
  141MOL0     H18550  10.408   9.057   3.475  0.2484  0.1383  0.9297
  141MOL0     H18551  10.265   8.827   3.512 -0.0835 -1.0351 -0.4086
  141MOL0     H18552  10.400   8.746   3.441  1.6210  0.2204  2.8299
  141MOL0     H18553  10.240   8.770   3.275 -0.6291 -0.5091  3.6436
  141MOL0     H18554  10.366   8.878   3.220 -0.9530 -3.7384 -1.6463
  141MOL0     H18555  10.114   8.986   3.376 -0.1747 -3.5273 -1.8133
  141MOL0     H18556  10.229   9.082   3.299 -0.4939 -0.1202  1.3535
  141MOL0     H18557  10.067   8.868   3.155  2.5387 -0.6533 -1.9664
  141MOL0     H18558  10.180   8.977   3.079 -2.2466 -3.6698 -2.6012
  141MOL0     H18559  10.046   9.166   3.159 -0.6796 -0.5592  1.8889
  141MOL0     H18560   9.929   9.049   3.234  1.5086 -1.8532  0.3152
  141MOL0     H18561  10.006   9.077   2.936  0.5784 -2.9407 -0.2861
  141MOL0     H18562   9.890   8.959   3.013 -0.0945  0.0910  0.5162
  141MOL0     H18563   9.811   9.190   2.890  0.5844  3.3789  0.7216
  141MOL0     H18564   9.871   9.271   3.036  0.3398  1.1607 -0.6081
  141MOL0     H18565   9.609   8.999   2.929 -0.0151 -0.5267  1.3833
  141MOL0     H18566   9.292   9.052   3.013  2.0861 -0.9852 -1.9238
  141MOL0     H18567   9.307   9.040   3.187 -0.3772 -5.9423  1.2471
  141MOL0     H18568   9.395   8.841   3.207 -0.0046 -1.8857 -0.2824
  141MOL0     H18569   9.413   8.823   3.028  0.8530  0.2927  0.7381
  141MOL0     H18570   9.148   8.854   3.175 -0.1400  3.2074 -1.2061
  141MOL0     H18571   9.164   8.877   3.004 -0.1627 -0.6544  0.3107
  141MOL0     H18572   9.075   8.676   3.035  0.1915  0.1869 -0.5523
  141MOL0     H18573   9.194   8.621   3.150  0.2557 -2.5610 -1.4912
  141MOL0     H18574   9.182   8.368   2.959 -1.0095  4.0136  0.2234
  141MOL0     H18575   9.329   8.197   2.995  0.1950  0.1349 -1.5356
  141MOL0     H18576   9.530   7.862   2.960  0.1483 -1.2303 -0.6174
  141MOL0     H18577   9.661   7.655   3.038  1.6684  1.7645 -1.0141
  141MOL0     H18578   9.747   7.499   3.155  0.3410 -2.6624  1.0396
  141MOL0     H18579   9.711   7.523   3.329  0.7370 -2.0718  1.4338
  141MOL0     H18580   9.851   7.318   3.315  2.0022 -0.1872  2.3202
  141MOL0     H18581   9.949   7.429   3.385  1.6851 -2.9821 -0.2627
  141MOL0     H18582  10.061   7.311   3.210  3.0343  1.2017  0.1005
  141MOL0     H18583  10.070   7.485   3.180  3.4446 -2.3400  0.2917
  141MOL0     H18584   9.844   7.309   3.067  1.2039 -2.0428 -0.3670
  141MOL0     H18585   9.895   7.466   3.007  1.0377  0.8838 -0.5387
  141MOL0     H18586  10.123   7.366   2.955 -0.3148 -0.7112  0.5834
  141MOL0     H18587   9.984   7.347   2.842 -2.1497 -3.8216 -0.0267
  141MOL0     H18588   9.937   7.113   2.953  1.9876 -3.7718 -1.4031
  141MOL0     H18589  10.080   7.123   3.025 -0.5028 -0.1078 -0.0903
  141MOL0     H18590  10.202   7.143   2.801  0.3080 -0.3157 -3.0515
  141MOL0     H18591  10.120   6.998   2.817  3.4617 -1.2405 -4.7465
  141MOL0     H18592  10.082   7.090   2.605 -0.6123  1.7101 -0.0092
  141MOL0     H18593  10.006   7.232   2.673  1.6197 -0.3968 -1.3930
  141MOL0     H18594   9.826   7.891   3.349 -1.4764  4.1312 -0.1968
  141MOL0     H18595   9.690   8.079   3.291  2.8345 -0.1329  0.2801
  141MOL0     H18596   9.655   8.485   3.042  0.4802 -0.0591  0.9261
  141MOL0     H18597   9.511   8.653   2.963  0.7326  0.0894  0.3925
  141MOL0     H18598  10.467   9.180   3.610 -1.6378  1.7777  2.8440
  141MOL0     H18599  10.647   9.320   3.708  1.7663  0.1242  0.9523
  141MOL0     H18600  11.077   9.537   3.793 -0.5130  2.7108  0.0096
  141MOL0     H18601  11.224   9.648   3.922  0.9024  2.3342  3.9993
  141MOL0     H18602  11.183   9.769   4.168 -1.2319 -2.8290  0.8455
  141MOL0     H18603  11.356   9.781   4.156 -1.9227  0.6959 -1.2745
  141MOL0     H18604  11.220   9.692   4.416 -1.3853  0.6819  0.2600
  141MOL0     H18605  11.384   9.717   4.384  1.0834  0.0968  0.4014
  141MOL0     H18606  11.179   9.942   4.373 -1.6494 -3.1424  1.2956
  141MOL0     H18607  11.351   9.975   4.378  2.7819 -3.5360  0.9010
  141MOL0     H18608  11.250  10.020   4.576  1.6646 -0.2089  0.8371
  141MOL0     H18609  11.171   9.870   4.604  0.0372  1.8114  1.2811
  141MOL0     H18610  11.595   9.816   4.697 -0.6764  0.1191  1.0572
  141MOL0     H18611  11.096   9.418   4.283 -1.1705  0.3939  0.7095
  141MOL0     H18612  10.927   9.311   4.141  0.3008  0.7045  0.6852
  142MOL0     O18613   6.727   1.215   5.520 -0.6330 -0.4360 -0.4733
  142MOL0     C18614   6.845   1.203   5.474  0.3420  0.0325 -0.8086
  142MOL0     O18615   6.951   1.285   5.503 -0.2330  0.6086  0.3878
  142MOL0     C18616   6.950   1.383   5.596 -0.4263 -0.6728  0.5412
  142MOL0     C18617   6.852   1.398   5.693  0.8215  0.0662  1.3626
  142MOL0     C18618   6.871   1.502   5.783 -0.2899 -0.2034 -0.1558
  142MOL0     C18619   6.980   1.584   5.789  0.0025  0.5235 -0.0752
  142MOL0     O18620   6.983   1.680   5.897 -0.3356 -0.3936  0.0455
  142MOL0     C18621   7.107   1.691   5.977  0.0284  0.0543 -0.0539
  142MOL0     C18622   7.104   1.654   6.129 -0.3923  0.4277  1.4662
  142MOL0     C18623   7.102   1.510   6.136  0.6792  1.0762 -0.8651
  142MOL0     C18624   7.088   1.461   6.283 -0.6704 -1.4547 -0.1814
  142MOL0     C18625   7.044   1.320   6.297 -0.0131  1.0112  0.3945
  142MOL0     C18626   6.982   1.286   6.436 -0.4914  0.4977 -0.3819
  142MOL0     C18627   6.910   1.150   6.444  0.3322  0.1623  0.1932
  142MOL0     C18628   6.992   1.029   6.391 -0.2908  0.2035  0.3969
  142MOL0     N18629   7.070   0.964   6.485 -0.4846 -0.1572 -0.3056
  142MOL0     C18630   7.185   1.013   6.555 -0.3489 -0.2258  0.3392
  142MOL0     C18631   7.231   0.904   6.624  0.1930 -0.2522  0.0676
  142MOL0     C18632   7.350   0.909   6.719 -0.1329  0.2921  0.0258
  142MOL0     C18633   7.299   0.937   6.858 -0.2998 -0.6347  0.3137
  142MOL0     C18634   7.406   0.939   6.967 -0.0300 -0.8433  0.0452
  142MOL0     C18635   7.479   0.813   7.006  0.1847 -0.6617 -0.5184
  142MOL0     O18636   7.588   0.792   6.915 -0.3242  0.2121 -0.5452
  142MOL0     C18637   7.690   0.717   6.972 -0.2820 -0.1592  0.7321
  142MOL0     C18638   7.821   0.765   6.973 -0.2645  0.0069  0.3988
  142MOL0     C18639   7.933   0.687   7.005  0.5246 -0.3596 -0.0871
  142MOL0     C18640   7.907   0.552   7.041  0.4752 -0.1978 -0.4826
  142MOL0     C18641   8.015   0.450   7.064  1.1266 -0.5257 -0.0837
  142MOL0     O18642   7.978   0.316   7.092 -0.2303  0.4732 -1.1283
  142MOL0     C18643   8.079   0.223   7.118  0.0060  0.1039 -0.2659
  142MOL0     C18644   8.065   0.099   7.056  0.2550 -0.6495 -0.2696
  142MOL0     C18645   8.152  -0.007   7.084 -0.1602  0.5884 -0.0672
  142MOL0     C18646   8.255   0.007   7.169 -0.1592  1.0606  0.3413
  142MOL0     O18647   8.333  -0.104   7.201  0.2510 -0.2210 -1.3655
  142MOL0     C18648   8.303  -0.235   7.137 -0.3287 -0.0644  0.3346
  142MOL0     C18649   8.385  -0.342   7.224  0.1650 -0.3247 -0.3995
  142MOL0     C18650   8.392  -0.494   7.173  0.7014 -0.7452  0.2136
  142MOL0     C18651   8.278  -0.532   7.079  0.2199 -0.0002 -0.2820
  142MOL0     C18652   8.239  -0.680   7.074  0.0874 -1.3733 -0.0503
  142MOL0     C18653   8.344  -0.769   7.001  0.5588 -0.3401 -0.5517
  142MOL0     C18654   8.336  -0.921   7.032 -0.0791 -0.7052  0.2926
  142MOL0     C18655   8.347  -0.948   7.179  0.1757  0.0860  0.2876
  142MOL0    Cl18656   8.504  -0.900   7.252  0.2066 -0.3531 -0.1472
  142MOL0     C18657   8.287   0.136   7.214  0.4054  0.2068  0.8673
  142MOL0     C18658   8.192   0.238   7.200 -0.9246  0.0426  0.9479
  142MOL0     O18659   8.130   0.491   7.041  0.3288  0.0431 -0.7307
  142MOL0     C18660   7.775   0.510   7.054 -0.0877 -0.5466 -0.0278
  142MOL0     C18661   7.672   0.583   7.008 -0.0053  0.1957  0.0761
  142MOL0     N18662   7.142   0.797   6.614 -0.9708 -0.1040 -0.7603
  142MOL0     N18663   7.058   0.830   6.526  0.4618 -0.5320  0.0312
  142MOL0     C18664   7.080   1.561   5.687 -0.0964  0.4566 -0.2512
  142MOL0     C18665   7.070   1.459   5.593 -0.1278 -0.0570  0.3498
  142MOL0     C18666   6.896   1.082   5.409  0.8041 -1.0041  0.2846
  142MOL0     C18667   6.807   0.974   5.383  1.2217  0.0511 -0.5102
  142MOL0     C18668   6.860   0.860   5.315 -0.0244  0.2851  0.7057
  142MOL0     C18669   6.994   0.846   5.281  0.8373  0.1773  0.3612
  142MOL0     O18670   7.030   0.722   5.225  0.3779  0.2242  0.3636
  142MOL0     C18671   7.163   0.681   5.218 -1.3630  0.3991  0.1539
  142MOL0     C18672   7.183   0.533   5.199 -0.4770  0.6606  0.3284
  142MOL0     C18673   7.141   0.485   5.058 -0.9669  0.2572  0.2094
  142MOL0     C18674   7.265   0.490   4.974 -0.4180  0.6804 -0.7168
  142MOL0     C18675   7.237   0.403   4.853 -0.4364  0.0690  0.6791
  142MOL0     C18676   7.224   0.323   4.768 -0.2541 -0.3743 -0.2379
  142MOL0     C18677   7.077   0.954   5.306 -0.3353 -0.1577  0.2385
  142MOL0     C18678   7.028   1.071   5.360  0.3124 -0.0518  0.2550
  142MOL0     H18679   6.764   1.336   5.712  0.9800 -0.6875 -0.1498
  142MOL0     H18680   6.800   1.513   5.864  0.3843 -1.3316  0.6235
  142MOL0     H18681   7.145   1.794   5.978  0.6607 -0.1219 -1.8793
  142MOL0     H18682   7.182   1.630   5.926 -1.2590 -1.7720  0.1448
  142MOL0     H18683   7.022   1.718   6.164 -2.3406  1.1844 -3.6122
  142MOL0     H18684   7.193   1.686   6.185  0.6888  1.1306 -0.5419
  142MOL0     H18685   7.191   1.489   6.077  0.1230  1.8863 -2.0146
  142MOL0     H18686   7.025   1.463   6.075  2.4331 -1.6874 -1.1204
  142MOL0     H18687   7.181   1.484   6.335 -3.5531  0.9676  4.6485
  142MOL0     H18688   7.007   1.515   6.333  0.7119 -0.1040  0.6804
  142MOL0     H18689   7.134   1.259   6.281  0.6363  2.1267 -0.3502
  142MOL0     H18690   6.969   1.292   6.222  0.2529 -0.6924  0.7200
  142MOL0     H18691   6.915   1.363   6.474  1.7000  1.6009  1.4328
  142MOL0     H18692   7.073   1.289   6.496 -1.9306  2.2984  1.8618
  142MOL0     H18693   6.889   1.136   6.551 -0.0930 -0.8052 -0.0057
  142MOL0     H18694   6.815   1.152   6.390  0.1521 -0.1686  0.4885
  142MOL0     H18695   7.066   1.069   6.321 -2.0813  1.2887 -1.0147
  142MOL0     H18696   6.919   0.969   6.336 -0.1989  0.1710  0.3106
  142MOL0     H18697   7.236   1.108   6.542 -0.1470 -0.6981 -3.2374
  142MOL0     H18698   7.409   0.995   6.685 -2.3994  2.5262  1.3945
  142MOL0     H18699   7.404   0.815   6.708 -0.9142 -0.0927 -0.6863
  142MOL0     H18700   7.217   0.868   6.880 -1.8856  1.3407  0.9570
  142MOL0     H18701   7.264   1.041   6.853 -0.2725 -0.6658 -0.6483
  142MOL0     H18702   7.479   1.015   6.936 -1.0122  0.5702  1.0821
  142MOL0     H18703   7.347   0.983   7.048 -0.2162  0.4235 -0.7533
  142MOL0     H18704   7.411   0.728   7.000 -0.6680 -0.1947  1.5381
  142MOL0     H18705   7.516   0.822   7.109 -1.1955  1.0060 -0.1227
  142MOL0     H18706   7.856   0.861   6.935  2.0016 -0.2645  1.6233
  142MOL0     H18707   8.032   0.729   7.010  0.5133 -0.4738  2.0064
  142MOL0     H18708   7.978   0.090   6.992 -2.0388  1.1859  2.3391
  142MOL0     H18709   8.141  -0.089   7.014  2.1845  1.3697 -1.4705
  142MOL0     H18710   8.338  -0.233   7.033 -0.1734  4.0436  0.3030
  142MOL0     H18711   8.199  -0.266   7.152 -0.0446 -0.6734  1.1143
  142MOL0     H18712   8.349  -0.349   7.327 -0.5715  0.2107 -0.6166
  142MOL0     H18713   8.491  -0.317   7.229 -0.3396  2.1221 -0.5875
  142MOL0     H18714   8.397  -0.568   7.254  3.5219 -3.5562 -2.2745
  142MOL0     H18715   8.485  -0.507   7.117 -0.5050  0.1440 -2.1108
  142MOL0     H18716   8.193  -0.488   7.132  0.7178 -1.1895  1.5718
  142MOL0     H18717   8.291  -0.483   6.982 -0.8773  0.4480 -0.2201
  142MOL0     H18718   8.143  -0.696   7.023  0.4026  1.1393 -1.5833
  142MOL0     H18719   8.232  -0.689   7.183 -1.4460 -0.1102 -0.0135
  142MOL0     H18720   8.444  -0.736   7.032  0.9881 -1.4445 -0.7136
  142MOL0     H18721   8.332  -0.749   6.895 -1.4925  1.1578 -0.0966
  142MOL0     H18722   8.251  -0.969   6.982  0.4539 -2.0254  0.6132
  142MOL0     H18723   8.428  -0.967   6.996 -0.0569 -1.6872  1.5393
  142MOL0     H18724   8.341  -1.057   7.187 -0.1934 -0.0681 -1.6628
  142MOL0     H18725   8.262  -0.904   7.232 -0.3562  0.3755 -0.7809
  142MOL0     H18726   8.375   0.171   7.266 -0.2279  1.6476  1.0447
  142MOL0     H18727   8.202   0.338   7.242 -2.3765  2.0428 -3.0155
  142MOL0     H18728   7.750   0.405   7.068 -0.3804 -0.1527  3.3054
  142MOL0     H18729   7.574   0.545   6.982 -0.1745  0.4832  0.2843
  142MOL0     H18730   7.171   1.620   5.693 -0.6930  1.3096  0.6783
  142MOL0     H18731   7.149   1.431   5.524  0.1388  1.0515  0.1844
  142MOL0     H18732   6.701   0.976   5.408  1.0035 -1.2704 -1.2325
  142MOL0     H18733   6.783   0.795   5.275  0.7247 -1.0460  1.3441
  142MOL0     H18734   7.213   0.706   5.312  0.1975 -1.2001 -0.1926
  142MOL0     H18735   7.210   0.740   5.139 -1.4760  1.9240  1.1747
  142MOL0     H18736   7.288   0.509   5.220 -0.2066  1.8260  0.4130
  142MOL0     H18737   7.123   0.484   5.275 -0.1224  0.9216  0.7842
  142MOL0     H18738   7.067   0.549   5.008  0.1295 -0.8402 -3.0816
  142MOL0     H18739   7.113   0.380   5.063 -1.8141  0.5288  1.8520
  142MOL0     H18740   7.292   0.593   4.950  1.5788  0.4253  0.2574
  142MOL0     H18741   7.353   0.457   5.030  0.0963 -0.2407 -2.0173
  142MOL0     H18742   7.248   0.259   4.685  1.6322 -1.4996  1.0866
  142MOL0     H18743   7.174   0.936   5.262 -1.3231 -1.0608 -1.6950
  142MOL0     H18744   7.098   1.154   5.349 -3.2425  3.2416  0.1842
  143MOL0     O18745   7.716   6.123   0.379  0.2804  0.1517  0.9459
  143MOL0     C18746   7.791   6.083   0.292  0.3566  0.2324  0.8360
  143MOL0     O18747   7.819   6.151   0.175  0.4348 -0.5596 -0.3087
  143MOL0     C18748   7.797   6.287   0.168  0.0490 -0.3280  0.4773
  143MOL0     C18749   7.798   6.339   0.041 -0.1980 -0.7443  0.5003
  143MOL0     C18750   7.771   6.476   0.022  0.0080 -0.6292  0.4277
  143MOL0     C18751   7.742   6.560   0.129  0.1948  0.8922 -1.3797
  143MOL0     O18752   7.702   6.682   0.114  0.1765 -0.2959 -0.1559
  143MOL0     C18753   7.564   6.706   0.150  0.2633  1.1835 -0.9473
  143MOL0     C18754   7.564   6.847   0.222  0.4777 -0.1107 -0.2478
  143MOL0     C18755   7.424   6.866   0.280 -0.3530 -0.1119 -0.1253
  143MOL0     C18756   7.320   6.910   0.174 -0.7466  0.0385 -0.1341
  143MOL0     C18757   7.175   6.918   0.221  0.2384  0.7107 -0.9877
  143MOL0     C18758   7.072   6.973   0.136  0.5094 -0.5909 -0.1832
  143MOL0     C18759   7.104   7.118   0.094  0.1803  0.5305  0.2934
  143MOL0     C18760   7.011   7.145  -0.016  1.0356  0.0136 -0.0175
  143MOL0     N18761   7.001   7.291  -0.038  0.5417 -0.3056  0.8532
  143MOL0     C18762   7.116   7.376  -0.044 -0.0264  0.2703 -0.7609
  143MOL0     C18763   7.071   7.496  -0.003 -0.9238 -0.6511 -0.0539
  143MOL0     C18764   7.144   7.625  -0.019  1.0467  0.2303 -0.7380
  143MOL0     C18765   7.125   7.666  -0.166  0.5263 -0.1010  0.1808
  143MOL0     C18766   6.985   7.719  -0.206 -0.3065 -0.0760  0.0394
  143MOL0     C18767   6.968   7.860  -0.149  0.0009 -0.2660 -0.3768
  143MOL0     O18768   6.822   7.904  -0.175  0.0497  0.2266 -0.4412
  143MOL0     C18769   6.777   7.998  -0.091  1.1501  0.3126 -0.6323
  143MOL0     C18770   6.647   8.021  -0.093  1.1094 -0.4805  0.4235
  143MOL0     C18771   6.579   8.125  -0.028  0.7823  0.5028  0.8592
  143MOL0     C18772   6.648   8.210   0.059 -0.0151 -0.2026  0.0361
  143MOL0     C18773   6.571   8.313   0.133  0.0043 -0.3523  1.3293
  143MOL0     O18774   6.440   8.296   0.145  0.1258 -0.2620  0.7657
  143MOL0     C18775   6.356   8.379   0.219  0.0109  0.0211  0.0614
  143MOL0     C18776   6.221   8.333   0.222 -0.0535 -0.8010 -0.1314
  143MOL0     C18777   6.127   8.380   0.314  0.1951 -0.0863  0.5984
  143MOL0     C18778   6.170   8.491   0.392 -0.4646  0.7502 -0.6855
  143MOL0     O18779   6.089   8.553   0.488 -0.1628 -0.0093  0.0751
  143MOL0     C18780   5.975   8.485   0.541  0.3698 -0.7541 -0.2542
  143MOL0     C18781   5.856   8.526   0.456  0.2011 -1.4302  0.0088
  143MOL0     C18782   5.729   8.475   0.541 -0.3574 -0.7072 -1.0228
  143MOL0     C18783   5.593   8.543   0.508  0.9009 -0.6689 -0.1799
  143MOL0     C18784   5.583   8.670   0.598  0.1879  0.8047 -0.3902
  143MOL0     C18785   5.455   8.742   0.574 -0.6908 -1.1339 -0.5283
  143MOL0     C18786   5.450   8.855   0.679  0.1252  0.2031 -1.2203
  143MOL0     C18787   5.355   8.963   0.639  0.1203  0.3070  0.1435
  143MOL0    Cl18788   5.186   8.907   0.682 -0.1855  0.0660  0.6333
  143MOL0     C18789   6.288   8.547   0.379 -0.1854  0.0170 -0.5581
  143MOL0     C18790   6.386   8.496   0.294  0.2594  0.1760  0.1532
  143MOL0     O18791   6.629   8.420   0.157  0.4785 -0.5566  0.3223
  143MOL0     C18792   6.784   8.183   0.064 -0.9322 -0.7174  0.5686
  143MOL0     C18793   6.852   8.083  -0.010 -0.4498 -0.1890  0.0744
  143MOL0     N18794   6.942   7.482   0.025 -0.3761  0.5798  0.4315
  143MOL0     N18795   6.902   7.362   0.019  0.4423 -0.0603 -0.1682
  143MOL0     C18796   7.765   6.514   0.252  0.0306  0.7654 -0.2949
  143MOL0     C18797   7.792   6.379   0.275 -0.6439 -0.8628  1.1880
  143MOL0     C18798   7.854   5.947   0.296 -0.3843  0.5726 -0.1256
  143MOL0     C18799   7.847   5.871   0.413 -0.7795  0.4480 -0.4071
  143MOL0     C18800   7.938   5.760   0.429 -0.1806 -0.2510  0.1552
  143MOL0     C18801   8.030   5.718   0.329  0.3765 -0.0368  0.1833
  143MOL0     O18802   8.126   5.623   0.364 -0.6285 -0.3819 -0.8461
  143MOL0     C18803   8.254   5.644   0.306  0.7661  0.7931  0.5456
  143MOL0     C18804   8.342   5.730   0.385  0.3469  0.8418  0.0351
  143MOL0     C18805   8.339   5.690   0.525  0.6788  0.3489  0.2264
  143MOL0     C18806   8.464   5.722   0.596  0.1266 -0.2422  0.0683
  143MOL0     C18807   8.585   5.644   0.571 -0.0811  1.2293  0.0862
  143MOL0     C18808   8.689   5.582   0.541  0.2868 -0.4264  0.2886
  143MOL0     C18809   8.025   5.788   0.205 -0.1787 -0.9253  0.6996
  143MOL0     C18810   7.942   5.908   0.193 -0.6754 -0.2859 -0.1321
  143MOL0     H18811   7.812   6.265  -0.038  4.6432  0.4795 -0.1330
  143MOL0     H18812   7.767   6.512  -0.081  0.8996 -2.9584 -0.4802
  143MOL0     H18813   7.519   6.635   0.221  0.1020 -0.1815 -2.3601
  143MOL0     H18814   7.496   6.706   0.064  1.4833 -1.3704 -2.0098
  143MOL0     H18815   7.583   6.929   0.152 -3.4284  2.2172  1.0723
  143MOL0     H18816   7.625   6.862   0.311 -0.4793  0.2617  0.3571
  143MOL0     H18817   7.440   6.953   0.343  0.1394  0.8279 -1.5023
  143MOL0     H18818   7.387   6.782   0.340 -0.1694 -0.7122 -0.8307
  143MOL0     H18819   7.356   7.010   0.148 -0.7828  1.1420  3.4136
  143MOL0     H18820   7.328   6.839   0.092  2.1438  0.5205 -0.3576
  143MOL0     H18821   7.179   6.979   0.312 -2.8946  0.2313 -0.4169
  143MOL0     H18822   7.150   6.813   0.239  0.1374 -0.0781 -4.7924
  143MOL0     H18823   6.975   6.970   0.187  1.2410 -1.4810  1.2216
  143MOL0     H18824   7.057   6.913   0.046 -2.6019 -1.1945  0.6160
  143MOL0     H18825   7.093   7.198   0.167 -0.5654  0.4584  0.2618
  143MOL0     H18826   7.207   7.129   0.059  0.1604  4.9450  1.0423
  143MOL0     H18827   6.910   7.107  -0.000  0.8029  0.3644 -0.6293
  143MOL0     H18828   7.041   7.088  -0.104 -1.1109  1.3355 -1.7194
  143MOL0     H18829   7.206   7.350  -0.099 -0.9795  1.8468 -3.2488
  143MOL0     H18830   7.250   7.603  -0.001  0.9159 -0.8658 -1.2347
  143MOL0     H18831   7.116   7.708   0.048  1.9904  1.0926 -1.3804
  143MOL0     H18832   7.145   7.579  -0.230 -0.7702 -0.0065 -0.3741
  143MOL0     H18833   7.201   7.742  -0.190  1.5135 -1.0165  0.3143
  143MOL0     H18834   6.977   7.733  -0.314  2.5746  3.8769  0.1057
  143MOL0     H18835   6.913   7.644  -0.170  2.5543 -2.2310  1.7023
  143MOL0     H18836   7.031   7.928  -0.206  1.3855 -3.0998 -2.4644
  143MOL0     H18837   6.998   7.871  -0.044  2.0923  2.4243 -1.1383
  143MOL0     H18838   6.584   7.948  -0.143 -0.1051  0.2166  0.8978
  143MOL0     H18839   6.472   8.119  -0.049  0.7459 -5.2028  1.1297
  143MOL0     H18840   6.190   8.265   0.143 -0.3209 -1.4966  0.5601
  143MOL0     H18841   6.026   8.341   0.315  0.4925 -1.1443 -2.3745
  143MOL0     H18842   5.952   8.519   0.642 -3.7531 -1.0244 -0.9495
  143MOL0     H18843   5.987   8.377   0.537  1.7379 -0.6111 -0.8195
  143MOL0     H18844   5.861   8.507   0.349 -1.8887  1.0206 -0.6324
  143MOL0     H18845   5.855   8.636   0.455 -1.1092 -1.3438 -3.3543
  143MOL0     H18846   5.753   8.488   0.647 -0.6444  0.9021 -1.1367
  143MOL0     H18847   5.718   8.368   0.519 -3.3246 -0.6027 -0.4827
  143MOL0     H18848   5.596   8.565   0.401 -0.4086 -2.4927 -0.6422
  143MOL0     H18849   5.512   8.470   0.520 -0.8297  1.1985  0.0251
  143MOL0     H18850   5.667   8.738   0.585  2.2499 -1.3023  0.9817
  143MOL0     H18851   5.603   8.635   0.700  1.3219 -3.4328 -1.8292
  143MOL0     H18852   5.366   8.687   0.605 -0.8775 -0.3299  0.3844
  143MOL0     H18853   5.443   8.783   0.473 -0.6837  2.3307  0.7766
  143MOL0     H18854   5.430   8.819   0.781  0.4064  1.0825 -0.8454
  143MOL0     H18855   5.541   8.909   0.705 -0.3855  0.8478 -0.7158
  143MOL0     H18856   5.354   8.980   0.531 -0.6160 -0.5288  0.0072
  143MOL0     H18857   5.384   9.057   0.688  2.6114 -1.0437  1.4831
  143MOL0     H18858   6.310   8.641   0.429  1.6875  0.2170 -1.6410
  143MOL0     H18859   6.482   8.543   0.278  0.2001  2.1958  4.4642
  143MOL0     H18860   6.837   8.245   0.135  1.0974  0.2392 -1.6564
  143MOL0     H18861   6.961   8.082  -0.011 -0.3847 -1.3058 -3.1988
  143MOL0     H18862   7.752   6.570   0.344  1.1517  0.4098  0.0976
  143MOL0     H18863   7.793   6.346   0.378  1.1031 -2.2150  0.7944
  143MOL0     H18864   7.790   5.900   0.501  0.1072  1.9844 -0.3176
  143MOL0     H18865   7.940   5.710   0.525  0.6920  2.5370  1.7004
  143MOL0     H18866   8.253   5.707   0.216  0.5681  0.2437  0.1521
  143MOL0     H18867   8.303   5.549   0.283  1.1944  1.6079 -2.3564
  143MOL0     H18868   8.444   5.737   0.344  0.5633  0.2354  0.4591
  143MOL0     H18869   8.278   5.819   0.391  1.0111  1.3157  0.2058
  143MOL0     H18870   8.314   5.584   0.534 -0.3147  0.4326 -1.1735
  143MOL0     H18871   8.246   5.727   0.567  0.3341  0.8033 -0.9019
  143MOL0     H18872   8.486   5.829   0.587  4.3484 -0.7142  2.4047
  143MOL0     H18873   8.439   5.696   0.699 -0.4506  2.2866  0.6487
  143MOL0     H18874   8.776   5.521   0.531 -0.6602 -1.6346 -0.8153
  143MOL0     H18875   8.074   5.760   0.112 -0.4738 -1.1776  0.6154
  143MOL0     H18876   7.957   5.967   0.103  1.0187 -0.9728 -0.3269
  144MOL0     O18877   2.426   7.878  10.389  0.0064  0.0446  0.1348
  144MOL0     C18878   2.496   7.783  10.361  0.5584  1.0050 -0.2422
  144MOL0     O18879   2.450   7.661  10.320  0.5088 -0.3553  0.4444
  144MOL0     C18880   2.318   7.651  10.264 -0.4413  0.3901 -0.6083
  144MOL0     C18881   2.241   7.748  10.211 -0.6356 -0.0878 -0.0406
  144MOL0     C18882   2.117   7.713  10.161  0.0510 -0.3620  0.4074
  144MOL0     C18883   2.072   7.577  10.158  0.4191  0.2283  0.9255
  144MOL0     O18884   1.945   7.548  10.104  0.4197  0.1988 -0.6821
  144MOL0     C18885   1.905   7.411  10.114  0.1987  0.2111 -0.4805
  144MOL0     C18886   1.757   7.394  10.098 -0.6790 -0.0368  0.5589
  144MOL0     C18887   1.699   7.252  10.068  0.3859 -0.4838  0.0993
  144MOL0     C18888   1.550   7.259  10.049 -0.5481  0.8622 -0.8063
  144MOL0     C18889   1.486   7.135   9.988  0.2194  1.0842 -0.4926
  144MOL0     C18890   1.510   7.121   9.834 -0.2998  0.2925  0.3090
  144MOL0     C18891   1.466   6.983   9.796  0.3253  0.8386  0.1699
  144MOL0     C18892   1.311   6.969   9.814  0.1394  0.2394  0.3754
  144MOL0     N18893   1.239   6.859   9.737 -0.1652 -0.9212 -0.5550
  144MOL0     C18894   1.123   6.876   9.672 -0.0892  0.4064 -1.1531
  144MOL0     C18895   1.080   6.757   9.627 -0.0029  0.7549 -0.6538
  144MOL0     C18896   0.961   6.754   9.549 -0.1697 -0.3340  0.0582
  144MOL0     C18897   0.927   6.616   9.496 -0.3785 -0.8238 -0.9615
  144MOL0     C18898   0.799   6.625   9.423 -0.1283  0.3604  0.1777
  144MOL0     C18899   0.672   6.615   9.519 -0.4352 -0.4966 -0.2501
  144MOL0     O18900   0.658   6.712   9.627 -0.2502  0.1939  0.0030
  144MOL0     C18901   0.560   6.715   9.714  0.8328 -0.1384 -0.1887
  144MOL0     C18902   0.465   6.617   9.726  0.7270  0.5272  0.2847
  144MOL0     C18903   0.350   6.638   9.805  0.1515  1.2004 -0.0378
  144MOL0     C18904   0.330   6.745   9.893 -0.4009 -0.4535  0.1004
  144MOL0     C18905   0.222   6.754   9.990 -0.5075 -0.1648 -0.3189
  144MOL0     O18906   0.107   6.685   9.962 -0.3242  0.2760  0.0651
  144MOL0     C18907  -0.015   6.689  10.023 -0.4361 -0.3085  0.4566
  144MOL0     C18908  -0.108   6.598   9.980  0.9614  1.1201 -0.2898
  144MOL0     C18909  -0.235   6.580  10.040  0.6079  0.5042  0.4684
  144MOL0     C18910  -0.277   6.667  10.131 -0.0652  0.1799 -0.0450
  144MOL0     O18911  -0.387   6.642  10.203  0.1428  0.2003 -0.5595
  144MOL0     C18912  -0.501   6.689  10.120  0.6755  0.1324  0.4801
  144MOL0     C18913  -0.609   6.583  10.139 -0.5911  0.0808  1.2032
  144MOL0     C18914  -0.757   6.629  10.116  0.3935  0.5408  0.3652
  144MOL0     C18915  -0.851   6.532  10.188  0.6669  0.5151  0.0901
  144MOL0     C18916  -0.991   6.590  10.202  0.4214 -0.7934 -0.0329
  144MOL0     C18917  -1.073   6.478  10.261 -0.9840  1.1166  0.4360
  144MOL0     C18918  -1.217   6.517  10.259 -0.1879  0.4556 -0.3927
  144MOL0     C18919  -1.305   6.410  10.337 -0.1821 -0.0841  0.1175
  144MOL0    Cl18920  -1.267   6.359  10.506 -0.0519 -0.1643  0.0535
  144MOL0     C18921  -0.191   6.764  10.181  0.0205 -0.2447  0.2915
  144MOL0     C18922  -0.052   6.769  10.129  1.3778 -0.2960 -0.1610
  144MOL0     O18923   0.237   6.829  10.092 -0.4213 -1.0378  0.4855
  144MOL0     C18924   0.435   6.833   9.888  0.1269  1.1290 -0.1237
  144MOL0     C18925   0.544   6.828   9.798 -0.6190 -0.3474 -0.6777
  144MOL0     N18926   1.172   6.658   9.678  0.1317  0.1214 -0.0605
  144MOL0     N18927   1.259   6.723   9.747 -0.1842  0.3101 -0.0996
  144MOL0     C18928   2.153   7.480  10.211  0.1163  1.3562 -0.0196
  144MOL0     C18929   2.274   7.519  10.267  0.6877  0.6417  0.2220
  144MOL0     C18930   2.638   7.799  10.339 -0.3445  0.6371 -0.6519
  144MOL0     C18931   2.710   7.908  10.400  1.2679 -0.1551 -0.3475
  144MOL0     C18932   2.844   7.948  10.370 -0.0045 -0.5368 -0.0291
  144MOL0     C18933   2.912   7.865  10.280 -0.7895 -0.9020  0.3296
  144MOL0     O18934   3.045   7.894  10.260 -0.3416 -0.1923  0.7291
  144MOL0     C18935   3.076   8.025  10.203  1.0712  0.3775 -0.2743
  144MOL0     C18936   3.071   8.006  10.053  0.5601 -0.1945  1.1139
  144MOL0     C18937   3.172   7.910   9.993 -0.5825 -0.1497  1.0812
  144MOL0     C18938   3.188   7.899   9.843 -1.0373  0.2794  0.5774
  144MOL0     C18939   3.088   7.811   9.771 -0.2647  0.1807 -0.6837
  144MOL0     C18940   2.990   7.747   9.736 -0.0309 -0.0583 -0.1782
  144MOL0     C18941   2.844   7.769  10.214  0.5906 -0.2458 -0.5480
  144MOL0     C18942   2.710   7.726  10.247  0.1558 -0.3924 -1.0467
  144MOL0     H18943   2.272   7.851  10.201 -0.3550 -0.1711 -0.0478
  144MOL0     H18944   2.050   7.787  10.118  1.3812  0.6706  0.0473
  144MOL0     H18945   1.925   7.369  10.213 -1.9829 -2.1315 -0.9113
  144MOL0     H18946   1.956   7.343  10.044  0.6862  1.2083 -1.1208
  144MOL0     H18947   1.727   7.453  10.011  0.6479 -3.4027 -2.4442
  144MOL0     H18948   1.702   7.443  10.179 -2.0530 -0.4090 -0.1166
  144MOL0     H18949   1.713   7.182  10.151  0.7974 -0.9251 -0.3344
  144MOL0     H18950   1.753   7.211   9.982 -0.0579 -0.1194 -0.3634
  144MOL0     H18951   1.500   7.288  10.142 -0.4638 -3.1189  0.6602
  144MOL0     H18952   1.532   7.343   9.981 -2.6780  1.8322  0.8204
  144MOL0     H18953   1.378   7.143   9.998  0.2567  0.5490  0.4734
  144MOL0     H18954   1.531   7.053  10.044  1.1426  3.5010  2.6134
  144MOL0     H18955   1.616   7.124   9.807  0.1398 -1.6642  1.6312
  144MOL0     H18956   1.471   7.204   9.774  0.0298 -1.8013 -3.1198
  144MOL0     H18957   1.501   6.969   9.693  0.6646 -1.1694  0.5099
  144MOL0     H18958   1.505   6.902   9.858  1.5908 -1.0967 -2.9191
  144MOL0     H18959   1.266   7.056   9.766 -0.3593 -0.2282 -0.0125
  144MOL0     H18960   1.290   6.964   9.922  5.9582 -2.7949  1.7831
  144MOL0     H18961   1.076   6.970   9.646 -0.2101  0.9847  0.9977
  144MOL0     H18962   0.993   6.802   9.456 -2.5522 -0.3697 -0.8589
  144MOL0     H18963   0.875   6.806   9.592 -0.1094  0.9216 -1.2621
  144MOL0     H18964   0.928   6.543   9.578 -1.6754  1.8146  1.5768
  144MOL0     H18965   1.006   6.581   9.428  0.1893  1.6334 -1.6847
  144MOL0     H18966   0.788   6.721   9.372 -3.1068 -1.6829 -3.5202
  144MOL0     H18967   0.794   6.551   9.343  0.0474  0.7642 -0.2035
  144MOL0     H18968   0.689   6.520   9.571  0.9922 -0.6462 -0.9310
  144MOL0     H18969   0.578   6.609   9.463 -0.4880 -0.3111 -0.1812
  144MOL0     H18970   0.466   6.541   9.648  2.5566  1.2780 -0.4787
  144MOL0     H18971   0.281   6.554   9.792  2.1696 -0.4271 -0.8499
  144MOL0     H18972  -0.082   6.534   9.895 -2.3853  0.4645 -0.9791
  144MOL0     H18973  -0.288   6.489  10.015  0.9050  0.0006  1.6128
  144MOL0     H18974  -0.474   6.696  10.014 -2.6212  2.0921 -0.3670
  144MOL0     H18975  -0.534   6.788  10.151  0.9726  0.3124  0.2323
  144MOL0     H18976  -0.605   6.558  10.245 -1.0231 -2.0375  0.7654
  144MOL0     H18977  -0.590   6.501  10.070  0.2933  2.7101 -1.9600
  144MOL0     H18978  -0.775   6.624  10.009  6.4591 -3.8117 -1.0139
  144MOL0     H18979  -0.762   6.735  10.142 -1.8561  0.3938  0.7200
  144MOL0     H18980  -0.853   6.436  10.135  4.1087  1.0018 -1.1960
  144MOL0     H18981  -0.815   6.498  10.286  0.2320  0.7791  0.3433
  144MOL0     H18982  -1.035   6.615  10.105  0.0007 -2.3656 -0.2835
  144MOL0     H18983  -0.990   6.675  10.270  1.1354 -0.3242 -0.6101
  144MOL0     H18984  -1.033   6.464  10.362  2.4610 -0.5550 -0.9989
  144MOL0     H18985  -1.057   6.386  10.205  1.8153  3.2167 -2.5947
  144MOL0     H18986  -1.237   6.612  10.308 -3.3397  0.3326 -1.1741
  144MOL0     H18987  -1.266   6.532  10.163  0.6885  4.0440 -0.4141
  144MOL0     H18988  -1.307   6.320  10.274 -1.5935 -2.2806  3.0503
  144MOL0     H18989  -1.405   6.456  10.342  0.0750  0.4982 -0.0646
  144MOL0     H18990  -0.213   6.834  10.261 -0.6129  0.2736 -0.3215
  144MOL0     H18991   0.019   6.845  10.160 -0.6933  2.2690 -1.3041
  144MOL0     H18992   0.428   6.923   9.948  1.2267  0.5854  0.8587
  144MOL0     H18993   0.621   6.902   9.781 -1.1960  0.2511 -0.6930
  144MOL0     H18994   2.138   7.373  10.203  0.0627  1.5154 -3.2667
  144MOL0     H18995   2.339   7.440  10.305 -1.1697 -0.7755  0.5893
  144MOL0     H18996   2.649   7.970  10.464  1.9876  3.2255 -2.6445
  144MOL0     H18997   2.894   8.032  10.417 -0.6352  0.3126 -0.8271
  144MOL0     H18998   3.165   8.082  10.231  0.3125  1.9708 -0.9727
  144MOL0     H18999   2.987   8.085  10.225 -0.1660 -0.2883 -2.9907
  144MOL0     H19000   2.973   7.976  10.015  1.2498 -0.7581 -0.2995
  144MOL0     H19001   3.086   8.103  10.006  6.6905 -0.1436  2.3367
  144MOL0     H19002   3.152   7.809  10.030 -1.4122  0.2871  1.8703
  144MOL0     H19003   3.270   7.942  10.030  1.2089  0.5372 -3.5732
  144MOL0     H19004   3.192   8.004   9.814 -1.6453  1.3477  3.9148
  144MOL0     H19005   3.289   7.864   9.822 -1.3243  1.0256 -2.4787
  144MOL0     H19006   2.910   7.683   9.707 -1.7012  0.2323  3.2386
  144MOL0     H19007   2.885   7.706  10.136 -0.1349 -0.6136 -0.6360
  144MOL0     H19008   2.651   7.668  10.177  0.2626  1.9475 -3.2191
  145MOL0     O19009   3.236   5.447   7.546  0.1418 -0.5182 -0.3664
  145MOL0     C19010   3.296   5.349   7.516 -0.3985 -0.2233  0.2605
  145MOL0     O19011   3.295   5.221   7.574  0.2475 -0.0740 -0.1572
  145MOL0     C19012   3.212   5.176   7.678 -0.5513 -0.5705 -1.3638
  145MOL0     C19013   3.143   5.260   7.771 -0.1989 -0.0154 -0.0813
  145MOL0     C19014   3.079   5.201   7.882 -1.0118 -0.0458  0.4796
  145MOL0     C19015   3.062   5.062   7.896 -0.9198 -0.1771 -0.2234
  145MOL0     O19016   3.005   5.010   8.007 -0.3264  0.2226 -0.6722
  145MOL0     C19017   3.076   4.910   8.081 -0.1213  1.0357 -0.1464
  145MOL0     C19018   3.003   4.895   8.224 -0.0834 -1.1933 -0.2236
  145MOL0     C19019   3.089   4.838   8.342  0.1655  0.0517  0.5840
  145MOL0     C19020   3.134   4.693   8.310  0.4259  0.2214  0.2531
  145MOL0     C19021   3.159   4.621   8.441 -0.5302 -0.3743 -0.5941
  145MOL0     C19022   3.271   4.691   8.529 -0.6474  0.4573 -0.5710
  145MOL0     C19023   3.407   4.699   8.457 -0.7498  0.3713  0.2816
  145MOL0     C19024   3.525   4.678   8.551  1.2942  0.3405  0.6903
  145MOL0     N19025   3.650   4.715   8.483 -0.7738  0.2249 -0.1097
  145MOL0     C19026   3.666   4.787   8.367  0.2589  0.0478  0.1714
  145MOL0     C19027   3.802   4.795   8.347 -0.3809  0.0314  0.4690
  145MOL0     C19028   3.857   4.852   8.229  0.0016 -1.0734  0.5053
  145MOL0     C19029   3.840   4.778   8.102  0.8450  0.7318 -0.3700
  145MOL0     C19030   3.952   4.817   8.009  0.1324 -0.6492  0.2060
  145MOL0     C19031   3.936   4.745   7.874 -0.2560 -0.2664 -0.5716
  145MOL0     O19032   4.028   4.814   7.782  0.1277 -0.0313 -0.2490
  145MOL0     C19033   4.038   4.761   7.654 -0.7287 -0.5458  0.6801
  145MOL0     C19034   3.986   4.639   7.607 -0.2920 -0.6779 -0.0731
  145MOL0     C19035   3.995   4.604   7.469  0.1194  0.8874  0.6637
  145MOL0     C19036   4.057   4.694   7.383 -0.6346  0.2157 -0.0662
  145MOL0     C19037   4.057   4.657   7.242  0.5717  0.7952  0.3731
  145MOL0     O19038   4.158   4.705   7.169 -0.2482 -0.2730  0.7314
  145MOL0     C19039   4.181   4.660   7.042  0.7727 -1.1445 -0.9630
  145MOL0     C19040   4.194   4.761   6.932  1.1016  0.5615 -1.3541
  145MOL0     C19041   4.225   4.714   6.801 -0.8832 -1.6371 -0.0916
  145MOL0     C19042   4.248   4.579   6.770 -0.0227 -1.0063  0.8667
  145MOL0     O19043   4.271   4.548   6.638 -0.7534  0.6303  0.3782
  145MOL0     C19044   4.325   4.413   6.602  0.9967  1.0153  0.3146
  145MOL0     C19045   4.345   4.420   6.452 -0.4375 -0.5974 -0.6118
  145MOL0     C19046   4.402   4.293   6.380  0.0126  1.3249  0.1294
  145MOL0     C19047   4.404   4.296   6.223 -0.1951  0.2268  0.3825
  145MOL0     C19048   4.463   4.163   6.175 -0.1625  0.4726 -0.7641
  145MOL0     C19049   4.558   4.178   6.059  0.1300 -0.8156  0.0623
  145MOL0     C19050   4.495   4.224   5.936  0.3703  0.2599 -0.7747
  145MOL0     C19051   4.584   4.228   5.817  0.1053 -0.3514 -0.9023
  145MOL0    Cl19052   4.491   4.287   5.677 -0.3858 -0.1611 -0.4161
  145MOL0     C19053   4.258   4.493   6.885  0.1976 -0.0554 -0.2423
  145MOL0     C19054   4.225   4.534   7.015 -0.0831 -1.1323  0.8068
  145MOL0     O19055   3.973   4.568   7.205 -0.6376  0.2232  0.4153
  145MOL0     C19056   4.110   4.817   7.431  0.5617 -0.0969  0.7601
  145MOL0     C19057   4.099   4.856   7.564  0.6691 -0.1907 -0.0173
  145MOL0     N19058   3.867   4.742   8.459 -0.5716  0.0709 -0.1452
  145MOL0     N19059   3.779   4.687   8.540 -0.4789 -0.0871 -0.0773
  145MOL0     C19060   3.143   4.975   7.808 -0.0376 -0.3914 -0.6679
  145MOL0     C19061   3.215   5.040   7.704  0.7841  0.0172  0.1585
  145MOL0     C19062   3.387   5.363   7.398  0.1352  0.2755 -0.8822
  145MOL0     C19063   3.471   5.256   7.349  0.6534 -0.0973  0.9726
  145MOL0     C19064   3.554   5.269   7.241 -0.4122  0.4639 -0.7240
  145MOL0     C19065   3.569   5.398   7.185  0.6368  0.2665 -0.3311
  145MOL0     O19066   3.678   5.414   7.108 -0.0254 -0.2665  0.6095
  145MOL0     C19067   3.680   5.490   6.984 -0.3292  0.4197  0.4967
  145MOL0     C19068   3.823   5.494   6.929  0.3074 -1.0541  0.2212
  145MOL0     C19069   3.836   5.544   6.788 -0.0793  0.1880 -0.1545
  145MOL0     C19070   3.981   5.498   6.730  1.2592 -0.8761  0.0255
  145MOL0     C19071   4.096   5.569   6.797 -0.1170 -0.9074 -1.6153
  145MOL0     C19072   4.183   5.627   6.854 -0.6513  0.7478 -0.2053
  145MOL0     C19073   3.474   5.499   7.217  0.5798  0.1096 -0.6019
  145MOL0     C19074   3.384   5.481   7.326 -0.4347 -1.2018  0.1854
  145MOL0     H19075   3.147   5.368   7.767 -1.5654  0.3091  3.5915
  145MOL0     H19076   3.036   5.268   7.956 -1.8515  0.4829 -0.4610
  145MOL0     H19077   3.180   4.940   8.098  0.3680 -1.3444  1.4875
  145MOL0     H19078   3.069   4.809   8.040  2.2368  0.2685  1.1150
  145MOL0     H19079   2.918   4.826   8.213  0.9908 -2.3775 -1.5554
  145MOL0     H19080   2.959   4.992   8.248  0.6023 -0.5209 -1.6054
  145MOL0     H19081   3.031   4.822   8.433  3.5241 -2.6473  2.5025
  145MOL0     H19082   3.174   4.901   8.365  0.8509 -1.5074  2.6308
  145MOL0     H19083   3.065   4.646   8.239 -0.6374  2.8702 -0.6044
  145MOL0     H19084   3.224   4.691   8.248 -0.6597 -1.3731 -1.3876
  145MOL0     H19085   3.187   4.515   8.437 -2.5378 -1.0923  1.7903
  145MOL0     H19086   3.059   4.624   8.483 -1.5917  2.1205 -2.9914
  145MOL0     H19087   3.291   4.624   8.614 -1.0324 -3.5092 -3.2984
  145MOL0     H19088   3.244   4.790   8.565  2.1882  2.0001 -2.3083
  145MOL0     H19089   3.417   4.627   8.375 -0.1220  2.3253 -1.4564
  145MOL0     H19090   3.408   4.799   8.412 -1.4722  0.9941  1.5855
  145MOL0     H19091   3.538   4.571   8.566  0.8794  0.0413 -0.9342
  145MOL0     H19092   3.503   4.732   8.644 -4.3550  0.6959 -0.5020
  145MOL0     H19093   3.589   4.806   8.293 -0.3628  0.9473  1.0234
  145MOL0     H19094   3.963   4.879   8.238  0.4563 -2.8362  0.8292
  145MOL0     H19095   3.818   4.953   8.216  1.5553 -0.4874  0.1195
  145MOL0     H19096   3.747   4.809   8.053  0.8183  1.3516  0.0635
  145MOL0     H19097   3.839   4.670   8.119 -0.0800  1.0693  2.1064
  145MOL0     H19098   3.955   4.926   8.004 -0.7872 -0.5394  1.4589
  145MOL0     H19099   4.048   4.784   8.050  0.9308  1.7858  0.4836
  145MOL0     H19100   3.833   4.759   7.839  0.0082  5.1902 -0.0490
  145MOL0     H19101   3.947   4.637   7.886 -1.6013 -0.3793 -0.1500
  145MOL0     H19102   3.919   4.582   7.671 -0.2482 -2.2438 -1.3464
  145MOL0     H19103   3.935   4.521   7.436 -2.2800  2.1826  1.5427
  145MOL0     H19104   4.170   4.866   6.943  2.8403  0.8664 -0.1011
  145MOL0     H19105   4.222   4.788   6.722  1.5981  0.4565  1.6242
  145MOL0     H19106   4.257   4.330   6.624 -0.6978  3.0560  3.6473
  145MOL0     H19107   4.415   4.385   6.658  0.0007 -3.7718 -0.0175
  145MOL0     H19108   4.417   4.499   6.429 -1.0713  0.4839  0.9840
  145MOL0     H19109   4.246   4.442   6.413  0.1080  1.9399 -0.7366
  145MOL0     H19110   4.330   4.219   6.416 -2.6118  2.0339 -3.1577
  145MOL0     H19111   4.507   4.279   6.408  0.1808 -1.7609 -1.6857
  145MOL0     H19112   4.304   4.320   6.187 -0.6225  0.8269  1.8782
  145MOL0     H19113   4.455   4.384   6.184 -2.6954  1.2569 -0.7982
  145MOL0     H19114   4.378   4.096   6.158  0.0489  0.7932 -3.5346
  145MOL0     H19115   4.528   4.119   6.251 -0.6986  2.0031  0.6302
  145MOL0     H19116   4.605   4.080   6.045  0.2129 -0.6700 -0.7323
  145MOL0     H19117   4.640   4.248   6.076 -1.3089  1.2022 -0.8217
  145MOL0     H19118   4.408   4.161   5.917  0.7175 -0.2748 -0.6135
  145MOL0     H19119   4.466   4.327   5.957  1.6900  1.6179 -4.7446
  145MOL0     H19120   4.625   4.128   5.800 -1.3761 -0.9910 -0.9080
  145MOL0     H19121   4.664   4.297   5.844 -3.4385  2.3127  4.2632
  145MOL0     H19122   4.271   4.386   6.875 -3.3080 -0.6638  0.7219
  145MOL0     H19123   4.227   4.454   7.088 -0.4991 -1.6586  0.2551
  145MOL0     H19124   4.148   4.884   7.355 -1.7331  2.7182  1.9177
  145MOL0     H19125   4.107   4.956   7.603 -2.0460 -0.4184  1.4180
  145MOL0     H19126   3.138   4.868   7.821  1.4714 -0.1480  3.3279
  145MOL0     H19127   3.273   4.986   7.630 -1.9006  0.4988 -2.4929
  145MOL0     H19128   3.476   5.164   7.406  0.1370 -0.3751  0.5746
  145MOL0     H19129   3.610   5.185   7.201  2.4135  1.1793  1.4173
  145MOL0     H19130   3.635   5.587   7.009 -3.5894 -0.2948 -1.9002
  145MOL0     H19131   3.612   5.446   6.910  2.3009 -2.4085 -0.4293
  145MOL0     H19132   3.883   5.561   6.991  0.3173 -0.0346 -0.8335
  145MOL0     H19133   3.863   5.393   6.941  3.0510 -0.0250  0.3975
  145MOL0     H19134   3.825   5.653   6.788  0.8208  0.3008  1.1210
  145MOL0     H19135   3.761   5.502   6.720  1.2108 -0.7186 -1.0700
  145MOL0     H19136   3.992   5.390   6.743 -1.7711 -1.2462  0.3419
  145MOL0     H19137   3.969   5.523   6.624 -0.2618  0.1144  0.3921
  145MOL0     H19138   4.279   5.656   6.892  0.5785 -0.5383 -2.1663
  145MOL0     H19139   3.475   5.589   7.157  1.9277  0.3522 -0.2516
  145MOL0     H19140   3.326   5.566   7.361  1.9060  0.3939  0.4388
  146MOL0     O19141   3.094   0.815   2.635  0.0490  0.4903 -0.3311
  146MOL0     C19142   2.970   0.796   2.617 -0.0975 -0.2294  0.3832
  146MOL0     O19143   2.890   0.882   2.540  1.0074 -0.2600  0.4046
  146MOL0     C19144   2.953   0.983   2.473 -0.2989 -0.0491  0.7452
  146MOL0     C19145   3.010   0.977   2.345  0.8052 -0.5162 -0.4219
  146MOL0     C19146   3.086   1.083   2.289  0.0161 -0.2398 -0.0170
  146MOL0     C19147   3.116   1.204   2.352  0.6042 -1.0910 -0.5939
  146MOL0     O19148   3.188   1.307   2.291 -0.0618 -0.0966  0.7328
  146MOL0     C19149   3.197   1.428   2.364  0.5173  0.3357  0.7308
  146MOL0     C19150   3.289   1.512   2.268 -0.9330 -1.1183  0.2445
  146MOL0     C19151   3.343   1.642   2.332  0.0993  0.4873  0.8957
  146MOL0     C19152   3.407   1.750   2.238  0.5410  0.8754  1.0774
  146MOL0     C19153   3.375   1.894   2.252 -0.5275 -0.3305  0.1676
  146MOL0     C19154   3.474   1.984   2.175 -0.1426  0.1209  0.2465
  146MOL0     C19155   3.495   1.968   2.025 -0.4661  0.3860  0.5056
  146MOL0     C19156   3.382   2.014   1.943 -0.5762  0.0591 -0.3420
  146MOL0     N19157   3.256   1.930   1.946  0.1979  0.2896  0.8207
  146MOL0     C19158   3.248   1.797   1.905 -0.0775  1.2457  0.0578
  146MOL0     C19159   3.115   1.784   1.916 -0.0561  0.5822 -0.2555
  146MOL0     C19160   3.032   1.662   1.869  0.0403  0.7595 -0.0761
  146MOL0     C19161   3.050   1.539   1.942  0.4857  0.3653 -1.3912
  146MOL0     C19162   2.979   1.419   1.891  1.0830  0.9315 -0.3945
  146MOL0     C19163   2.829   1.437   1.884 -1.0239 -0.3960 -0.4212
  146MOL0     O19164   2.795   1.326   1.808  0.6931 -0.0434  0.1099
  146MOL0     C19165   2.758   1.208   1.870  0.6050  0.3991  0.9003
  146MOL0     C19166   2.776   1.176   2.003  0.4335 -0.5569 -0.3262
  146MOL0     C19167   2.749   1.056   2.050  1.0145 -1.0094 -0.7459
  146MOL0     C19168   2.689   0.961   1.973  0.2536  0.5950  0.8173
  146MOL0     C19169   2.662   0.828   2.022  1.2252 -0.3517  0.0745
  146MOL0     O19170   2.726   0.793   2.138 -1.3561  0.6506  0.3405
  146MOL0     C19171   2.705   0.684   2.218  0.6142 -0.0747 -0.1412
  146MOL0     C19172   2.571   0.647   2.257 -1.0690  1.0610  1.2787
  146MOL0     C19173   2.538   0.526   2.319 -0.2746 -1.1586 -0.5149
  146MOL0     C19174   2.639   0.441   2.355  0.1572  0.4387 -0.0175
  146MOL0     O19175   2.610   0.324   2.423 -0.0183 -1.0114  0.4538
  146MOL0     C19176   2.492   0.242   2.384  0.0487 -0.4127 -0.6910
  146MOL0     C19177   2.433   0.177   2.510  0.0329  0.3325  0.4310
  146MOL0     C19178   2.307   0.094   2.471  0.4332  0.3731  0.7615
  146MOL0     C19179   2.282  -0.027   2.568 -0.2882 -1.2128  0.2745
  146MOL0     C19180   2.148  -0.089   2.558 -0.7595 -0.0025  1.6255
  146MOL0     C19181   2.133  -0.200   2.656 -0.9287  0.2028 -0.8555
  146MOL0     C19182   2.225  -0.317   2.629  0.7892 -0.3258  0.5668
  146MOL0     C19183   2.192  -0.440   2.710  0.4444  0.0067 -0.3368
  146MOL0    Cl19184   2.327  -0.555   2.682 -0.3255  0.1374 -0.2183
  146MOL0     C19185   2.774   0.471   2.319  0.4888  0.0997  1.2634
  146MOL0     C19186   2.801   0.596   2.252 -1.4687  0.2347  0.1200
  146MOL0     O19187   2.584   0.749   1.964 -0.4868 -0.5414  0.4261
  146MOL0     C19188   2.671   0.986   1.837  0.2815 -0.5202  0.2453
  146MOL0     C19189   2.702   1.115   1.790  0.4682 -0.0189  1.2136
  146MOL0     N19190   3.047   1.902   1.979 -0.1414  0.1986 -0.1354
  146MOL0     N19191   3.141   1.991   1.997 -0.2493 -0.6580 -0.6000
  146MOL0     C19192   3.058   1.204   2.478 -0.9392 -0.4154 -0.2689
  146MOL0     C19193   2.973   1.107   2.529 -0.0915  0.4629 -0.9922
  146MOL0     C19194   2.910   0.671   2.658 -0.8042  0.4569  0.4036
  146MOL0     C19195   2.784   0.616   2.620  1.2134 -0.6936 -0.5680
  146MOL0     C19196   2.729   0.499   2.670  0.5915 -0.2263 -0.1517
  146MOL0     C19197   2.802   0.424   2.768  0.3709 -0.7389  1.0905
  146MOL0     O19198   2.754   0.317   2.845  1.1346  0.5299  0.0210
  146MOL0     C19199   2.679   0.226   2.772  0.0560  1.1468 -0.0535
  146MOL0     C19200   2.677   0.093   2.844  0.3073  0.4018  0.3649
  146MOL0     C19201   2.597   0.090   2.972  0.0771  1.4709  0.3261
  146MOL0     C19202   2.565  -0.058   3.025 -0.0103 -0.5735  0.0622
  146MOL0     C19203   2.506  -0.038   3.156  0.3560  0.5877  1.2072
  146MOL0     C19204   2.446  -0.019   3.256 -0.9820 -0.1608 -1.3975
  146MOL0     C19205   2.926   0.476   2.808  0.0743 -0.3725  0.2683
  146MOL0     C19206   2.982   0.585   2.745 -0.0154 -0.7951  0.2726
  146MOL0     H19207   3.002   0.888   2.283  3.1893 -1.9113  1.1178
  146MOL0     H19208   3.129   1.067   2.191  1.5027  1.1810  0.3547
  146MOL0     H19209   3.250   1.410   2.459  0.3695 -1.0814  0.5720
  146MOL0     H19210   3.097   1.470   2.375  0.5607  0.1394  2.0742
  146MOL0     H19211   3.222   1.546   2.189  2.0093  0.7614 -1.6605
  146MOL0     H19212   3.374   1.452   2.235 -0.9014 -1.9863  1.7995
  146MOL0     H19213   3.423   1.606   2.396  0.5543  0.3219  0.2461
  146MOL0     H19214   3.263   1.684   2.394 -0.3450 -0.0541  0.6947
  146MOL0     H19215   3.516   1.756   2.247  1.0233 -2.7130 -0.6301
  146MOL0     H19216   3.383   1.720   2.136 -1.2471 -0.7795  1.9287
  146MOL0     H19217   3.395   1.915   2.358 -0.2222  2.3384 -0.3288
  146MOL0     H19218   3.270   1.913   2.227 -0.6870  1.0617  1.6890
  146MOL0     H19219   3.572   1.961   2.220 -1.3376 -1.9672  1.9903
  146MOL0     H19220   3.460   2.092   2.185 -1.0765  0.2745 -2.1658
  146MOL0     H19221   3.583   2.023   1.992 -0.8888 -1.0366 -3.5952
  146MOL0     H19222   3.527   1.872   1.983 -0.0794  0.8049 -0.1708
  146MOL0     H19223   3.415   2.008   1.839 -1.3901 -0.1207 -0.5986
  146MOL0     H19224   3.368   2.121   1.962  1.5341  0.2557  0.3802
  146MOL0     H19225   3.318   1.724   1.866  1.5944  2.0884  1.3469
  146MOL0     H19226   3.051   1.640   1.763  1.6222  1.6908 -0.0183
  146MOL0     H19227   2.930   1.702   1.869 -0.3203 -0.0821  1.5796
  146MOL0     H19228   3.030   1.554   2.048  0.0557  1.0378 -1.5568
  146MOL0     H19229   3.157   1.516   1.944  0.1426 -1.4925  2.1067
  146MOL0     H19230   3.022   1.391   1.795  1.3770 -1.9803  0.4837
  146MOL0     H19231   3.015   1.340   1.958 -0.0709  0.0574 -0.7697
  146MOL0     H19232   2.786   1.527   1.839 -1.8585 -1.4083 -1.7429
  146MOL0     H19233   2.789   1.442   1.985  0.6518 -0.4556  0.2772
  146MOL0     H19234   2.820   1.243   2.075  1.9223  0.9058 -2.4717
  146MOL0     H19235   2.748   1.031   2.155  1.2199 -2.6766 -1.1065
  146MOL0     H19236   2.494   0.712   2.215 -0.7951 -0.4749 -1.9481
  146MOL0     H19237   2.431   0.521   2.337 -1.9816  2.9122 -6.2721
  146MOL0     H19238   2.517   0.161   2.316  0.3581  2.5429 -4.4567
  146MOL0     H19239   2.410   0.301   2.340  1.3584  0.8478 -1.5161
  146MOL0     H19240   2.400   0.256   2.578 -2.3408  2.5380 -2.9568
  146MOL0     H19241   2.502   0.106   2.556  0.1792  0.5283  0.5105
  146MOL0     H19242   2.316   0.049   2.372 -2.4093 -0.7280  0.9237
  146MOL0     H19243   2.220   0.159   2.463  0.9854  0.9818 -0.6262
  146MOL0     H19244   2.351  -0.106   2.539  3.7132  1.6349  1.1961
  146MOL0     H19245   2.288   0.016   2.669  0.6842  0.6354 -0.5217
  146MOL0     H19246   2.128  -0.131   2.459 -2.4504  0.6614  1.6549
  146MOL0     H19247   2.067  -0.016   2.567  0.1210  1.3248 -0.5041
  146MOL0     H19248   2.028  -0.230   2.661 -0.6335 -0.6776  2.6917
  146MOL0     H19249   2.145  -0.164   2.759  1.1159 -1.1160 -0.5611
  146MOL0     H19250   2.200  -0.334   2.524  1.5109  2.3999 -0.1308
  146MOL0     H19251   2.332  -0.295   2.629  0.3035  2.5592 -1.3661
  146MOL0     H19252   2.096  -0.484   2.683 -1.6501  0.6261  5.0013
  146MOL0     H19253   2.188  -0.422   2.818 -0.1323  1.7410 -0.6231
  146MOL0     H19254   2.847   0.391   2.329  2.4810  1.9029  2.0942
  146MOL0     H19255   2.904   0.598   2.218 -0.7487 -0.8201  2.0721
  146MOL0     H19256   2.642   0.906   1.769 -2.6256 -0.3897  1.1899
  146MOL0     H19257   2.690   1.137   1.684 -0.3127 -1.3593  0.9947
  146MOL0     H19258   3.076   1.289   2.542 -0.3852  1.6855 -3.0425
  146MOL0     H19259   2.936   1.116   2.630 -1.6704 -1.7080 -1.3002
  146MOL0     H19260   2.730   0.686   2.558  0.5093  0.7775  1.5740
  146MOL0     H19261   2.633   0.459   2.641  0.8235  0.1527 -1.4936
  146MOL0     H19262   2.705   0.216   2.667  1.9709 -0.7719  0.5267
  146MOL0     H19263   2.577   0.264   2.765 -0.9308 -1.4176 -0.9831
  146MOL0     H19264   2.625   0.024   2.775  1.4784 -0.9868  0.8146
  146MOL0     H19265   2.779   0.054   2.852 -0.1823 -1.8729 -2.4685
  146MOL0     H19266   2.508   0.150   2.950  0.1480  0.5519 -2.9138
  146MOL0     H19267   2.660   0.150   3.038  2.3808 -0.8658  0.4193
  146MOL0     H19268   2.503  -0.106   2.949  0.9723  3.5308 -3.7215
  146MOL0     H19269   2.656  -0.118   3.032  0.6399  0.2025 -1.3642
  146MOL0     H19270   2.392  -0.016   3.349  1.8009 -0.2904  0.3428
  146MOL0     H19271   2.982   0.416   2.879 -0.7010  0.6973  1.8400
  146MOL0     H19272   3.084   0.610   2.770  0.7633 -2.0323 -1.4586
  147MOL0     O19273   1.777   4.677   9.142 -0.0966 -0.8916 -0.6341
  147MOL0     C19274   1.694   4.592   9.156  0.9243 -0.4888  0.5997
  147MOL0     O19275   1.619   4.565   9.268 -0.2787  0.1445 -0.6789
  147MOL0     C19276   1.644   4.613   9.393 -0.0074  0.1604  0.4152
  147MOL0     C19277   1.739   4.704   9.439 -0.7764 -0.3461  0.5927
  147MOL0     C19278   1.753   4.744   9.576  0.2603 -0.3342  0.3907
  147MOL0     C19279   1.675   4.675   9.675 -0.6150 -0.8973 -0.1768
  147MOL0     O19280   1.669   4.711   9.815  0.0925 -0.3457  1.3444
  147MOL0     C19281   1.784   4.710   9.883  0.6632  1.0982  0.2200
  147MOL0     C19282   1.759   4.715  10.033 -0.0318  0.5942 -0.7431
  147MOL0     C19283   1.711   4.859  10.071  0.3920 -0.1196 -0.1807
  147MOL0     C19284   1.639   4.859  10.202  0.3181 -0.8376 -0.5314
  147MOL0     C19285   1.590   4.997  10.257  0.1074 -0.7375  0.1923
  147MOL0     C19286   1.507   4.989  10.390  0.7346  0.1256  1.1052
  147MOL0     C19287   1.458   5.133  10.427 -0.3494  0.0698 -0.0017
  147MOL0     C19288   1.352   5.142  10.545  1.0487  0.0786 -0.5176
  147MOL0     N19289   1.218   5.096  10.500 -0.3482  0.0654  0.5218
  147MOL0     C19290   1.184   4.965  10.477  0.3025 -0.2979 -0.1956
  147MOL0     C19291   1.057   4.970  10.416 -0.5878  0.6853 -0.6178
  147MOL0     C19292   0.961   4.865  10.376 -1.1337 -1.0884 -0.0450
  147MOL0     C19293   0.940   4.890  10.228 -0.2494  0.8334  0.5714
  147MOL0     C19294   0.798   4.832  10.197 -0.3712  0.4233 -0.0053
  147MOL0     C19295   0.788   4.682  10.176  0.1421 -0.2618 -0.1562
  147MOL0     O19296   0.651   4.638  10.154  0.7506  0.5428  0.5681
  147MOL0     C19297   0.623   4.512  10.208 -0.8801 -0.3680 -0.2446
  147MOL0     C19298   0.533   4.500  10.319 -0.0390 -0.1047  0.3586
  147MOL0     C19299   0.510   4.374  10.380  0.6407 -0.3412 -0.0278
  147MOL0     C19300   0.593   4.266  10.351  0.5597 -0.4415  0.6648
  147MOL0     C19301   0.576   4.141  10.427 -1.8014 -0.6150 -0.0346
  147MOL0     O19302   0.638   4.026  10.376 -0.0830  0.2839 -0.1598
  147MOL0     C19303   0.621   3.892  10.422  0.2453  0.7786  0.1234
  147MOL0     C19304   0.660   3.784  10.329 -0.5313 -0.2353 -0.4249
  147MOL0     C19305   0.658   3.648  10.365  0.2180  0.4316 -1.0030
  147MOL0     C19306   0.610   3.612  10.482  0.5712  0.1319 -0.1195
  147MOL0     O19307   0.605   3.481  10.523  0.7739  0.5929 -0.1672
  147MOL0     C19308   0.717   3.398  10.497 -1.1315  0.3531 -0.8563
  147MOL0     C19309   0.781   3.325  10.606 -0.5225 -0.2631 -0.7432
  147MOL0     C19310   0.674   3.285  10.713  0.9372 -0.5118  0.8266
  147MOL0     C19311   0.745   3.204  10.825  0.6466  0.0361  0.6749
  147MOL0     C19312   0.766   3.058  10.783  0.7788  0.2882  1.2618
  147MOL0     C19313   0.836   2.984  10.893 -1.9610  0.1974 -0.0181
  147MOL0     C19314   0.863   2.835  10.887 -0.1516 -0.4150 -1.0683
  147MOL0     C19315   0.735   2.747  10.883  0.5602  0.0779 -0.4406
  147MOL0    Cl19316   0.616   2.776  11.023 -0.0265 -0.4623  0.1007
  147MOL0     C19317   0.558   3.707  10.568  1.2569 -0.5525 -0.5611
  147MOL0     C19318   0.566   3.847  10.540 -0.2108 -0.7338  0.1461
  147MOL0     O19319   0.528   4.149  10.535  0.4249 -0.4343 -0.0251
  147MOL0     C19320   0.684   4.281  10.241 -0.7200 -0.2598 -0.7408
  147MOL0     C19321   0.698   4.403  10.174  0.6176  0.4070  0.3758
  147MOL0     N19322   1.019   5.102  10.413 -0.3392  0.1732 -0.0543
  147MOL0     N19323   1.116   5.175  10.455  0.3539 -0.5669 -0.6597
  147MOL0     C19324   1.585   4.581   9.628  0.3319  0.0383  0.5365
  147MOL0     C19325   1.572   4.547   9.492 -0.2972  0.8616 -0.4101
  147MOL0     C19326   1.663   4.519   9.026  0.0122  0.5033  0.7587
  147MOL0     C19327   1.770   4.500   8.937 -0.5380  0.3309  0.3374
  147MOL0     C19328   1.755   4.417   8.815  0.7777  0.0461  0.3249
  147MOL0     C19329   1.628   4.365   8.784 -0.0741 -0.6090  0.4907
  147MOL0     O19330   1.608   4.284   8.674 -0.1321 -0.0122 -0.1139
  147MOL0     C19331   1.660   4.345   8.557  0.3711 -0.4119 -0.2452
  147MOL0     C19332   1.605   4.283   8.431  0.5839 -0.2855 -0.2187
  147MOL0     C19333   1.689   4.277   8.297  0.2752  0.2348 -0.2729
  147MOL0     C19334   1.694   4.413   8.229  0.0072 -0.1145 -0.5542
  147MOL0     C19335   1.755   4.391   8.096  0.1990  0.6071  0.2208
  147MOL0     C19336   1.803   4.376   7.987 -0.4386  0.5950  0.8395
  147MOL0     C19337   1.523   4.389   8.872 -0.0556  1.0100 -0.4903
  147MOL0     C19338   1.542   4.458   8.993 -0.4476 -0.7727  0.2139
  147MOL0     H19339   1.817   4.738   9.372 -3.5346  2.7695 -1.3856
  147MOL0     H19340   1.816   4.822   9.616  0.0149  0.2383 -0.3115
  147MOL0     H19341   1.855   4.789   9.856  3.6703 -1.9140 -1.4982
  147MOL0     H19342   1.835   4.615   9.867 -0.1240  0.7583 -0.3155
  147MOL0     H19343   1.849   4.689  10.088 -0.4090 -0.1489 -0.4697
  147MOL0     H19344   1.684   4.639  10.056  1.3261 -0.6990 -0.4289
  147MOL0     H19345   1.646   4.905   9.996 -1.3853  0.2546  1.4992
  147MOL0     H19346   1.799   4.921  10.086 -0.3843  0.8615  0.4964
  147MOL0     H19347   1.546   4.802  10.194 -0.3659 -0.2350  2.0390
  147MOL0     H19348   1.701   4.818  10.282  0.3986  0.0862 -0.1037
  147MOL0     H19349   1.526   5.046  10.182  4.1752  1.4349 -2.2316
  147MOL0     H19350   1.671   5.065  10.285  0.3922 -2.6692  5.0367
  147MOL0     H19351   1.573   4.950  10.468  2.1166  2.3717  1.1365
  147MOL0     H19352   1.423   4.920  10.375  1.4830 -0.5348 -0.2231
  147MOL0     H19353   1.546   5.194  10.449 -0.7421  0.4639  0.4836
  147MOL0     H19354   1.422   5.175  10.332  0.7816 -0.1770 -0.5575
  147MOL0     H19355   1.335   5.238  10.596 -0.4115 -1.1478  1.4633
  147MOL0     H19356   1.392   5.075  10.622 -0.9217 -1.0552 -0.4211
  147MOL0     H19357   1.246   4.879  10.496  0.5194 -0.0627  0.1735
  147MOL0     H19358   0.876   4.885  10.441 -0.9516  0.6474 -0.3060
  147MOL0     H19359   1.005   4.765  10.388 -1.0772 -1.0860 -0.2369
  147MOL0     H19360   1.008   4.844  10.156 -1.2537  1.7439 -1.0348
  147MOL0     H19361   0.934   4.995  10.195 -0.0519  0.4622 -0.7012
  147MOL0     H19362   0.728   4.851  10.278 -2.7440 -1.0216 -1.5903
  147MOL0     H19363   0.761   4.888  10.110  1.1048  0.4515 -0.6411
  147MOL0     H19364   0.822   4.627  10.264 -1.7577 -2.7526 -0.8672
  147MOL0     H19365   0.848   4.658  10.088  0.9397 -0.2716  0.3795
  147MOL0     H19366   0.475   4.587  10.348 -1.0374  1.0013 -4.1885
  147MOL0     H19367   0.442   4.361  10.464  2.1429 -1.7350  1.0539
  147MOL0     H19368   0.725   3.804  10.245  1.2025  1.7325  1.2528
  147MOL0     H19369   0.698   3.576  10.294  0.3922  0.0912 -0.5570
  147MOL0     H19370   0.796   3.457  10.450 -1.5087  1.7877  0.2498
  147MOL0     H19371   0.683   3.327  10.421  1.1829 -2.1899  0.3187
  147MOL0     H19372   0.853   3.377  10.670  0.5485 -2.0573 -0.4140
  147MOL0     H19373   0.814   3.230  10.563 -0.0745 -0.8369  0.7857
  147MOL0     H19374   0.597   3.219  10.670 -1.8439  2.4817  0.8230
  147MOL0     H19375   0.622   3.373  10.752  0.3910 -0.1640 -0.6288
  147MOL0     H19376   0.848   3.231  10.851  1.3159 -2.3455  0.7095
  147MOL0     H19377   0.679   3.207  10.913  0.3346  1.3550  0.4147
  147MOL0     H19378   0.810   3.056  10.683 -0.7896 -2.2223  0.5153
  147MOL0     H19379   0.673   3.007  10.756  0.9055  1.2439 -1.2267
  147MOL0     H19380   0.796   3.000  10.993  2.1609 -1.0080  2.0496
  147MOL0     H19381   0.935   3.027  10.908 -0.2660 -3.1104 -0.6890
  147MOL0     H19382   0.932   2.793  10.814  0.9824 -1.6550  0.6448
  147MOL0     H19383   0.922   2.799  10.972 -1.2768 -4.2860 -1.6892
  147MOL0     H19384   0.763   2.642  10.877  1.0798  0.1577  0.5124
  147MOL0     H19385   0.683   2.766  10.788 -0.3522 -5.7432 -1.4725
  147MOL0     H19386   0.509   3.670  10.658 -2.1025  0.3364 -1.8710
  147MOL0     H19387   0.517   3.910  10.613  0.5057 -1.7534  1.5648
  147MOL0     H19388   0.754   4.211  10.197 -3.2244 -3.1156 -0.5136
  147MOL0     H19389   0.762   4.412  10.086  0.1997 -2.3652 -0.3294
  147MOL0     H19390   1.525   4.535   9.706  0.7809  1.1564  1.5861
  147MOL0     H19391   1.507   4.463   9.468  0.0295 -0.0005  1.4872
  147MOL0     H19392   1.872   4.533   8.952 -1.1363  2.0209  1.0106
  147MOL0     H19393   1.833   4.405   8.741  0.1759  0.3949 -0.3822
  147MOL0     H19394   1.769   4.338   8.544  0.1416 -2.1428 -1.6173
  147MOL0     H19395   1.631   4.450   8.564  2.5379  0.1108  3.2674
  147MOL0     H19396   1.591   4.185   8.476 -1.8193  0.1732  0.1957
  147MOL0     H19397   1.499   4.308   8.413  0.1953  2.8528  4.5501
  147MOL0     H19398   1.635   4.212   8.228  4.0241 -1.4278 -1.9526
  147MOL0     H19399   1.792   4.241   8.308 -0.5981 -1.9176  1.6063
  147MOL0     H19400   1.590   4.447   8.221  0.2651  0.2557 -3.5562
  147MOL0     H19401   1.744   4.481   8.298 -0.9151  1.3409 -1.2501
  147MOL0     H19402   1.859   4.365   7.896  1.3439 -0.2314  1.9772
  147MOL0     H19403   1.420   4.358   8.855 -0.0215  0.0593  0.8694
  147MOL0     H19404   1.465   4.477   9.068  0.8805  0.6959  1.2684
  148MOL0     O19405  10.829   9.112   1.209  0.3401 -0.3135  0.1467
  148MOL0     C19406  10.757   9.063   1.128  0.9885 -0.0179 -0.5378
  148MOL0     O19407  10.656   9.130   1.059 -0.4033 -0.6330  0.0626
  148MOL0     C19408  10.690   9.261   1.034 -0.9080 -0.8466  0.8160
  148MOL0     C19409  10.789   9.299   0.948 -0.1223  0.2336  0.4718
  148MOL0     C19410  10.815   9.436   0.919 -0.7438 -0.4444 -0.1179
  148MOL0     C19411  10.756   9.535   1.007 -0.1340  0.2204  0.0904
  148MOL0     O19412  10.783   9.671   0.997  0.1267 -0.1609 -0.3073
  148MOL0     C19413  10.843   9.723   0.878 -0.4845 -0.3884 -0.1099
  148MOL0     C19414  10.859   9.877   0.898 -0.3191  0.0130 -0.0866
  148MOL0     C19415  10.961   9.929   0.799 -0.1661  0.4517  0.3254
  148MOL0     C19416  10.973  10.079   0.801 -0.3777 -0.1293 -0.4951
  148MOL0     C19417  11.114  10.134   0.767 -0.8919 -0.3761 -0.8160
  148MOL0     C19418  11.135  10.169   0.613 -0.6930  0.2300 -0.0901
  148MOL0     C19419  11.286  10.178   0.564  0.5424 -0.0829  0.5367
  148MOL0     C19420  11.333  10.316   0.612 -0.6374 -0.1977  0.1076
  148MOL0     N19421  11.468  10.348   0.555 -0.1709  0.2606 -0.1626
  148MOL0     C19422  11.514  10.333   0.423  0.7785 -0.2982  0.3661
  148MOL0     C19423  11.642  10.354   0.423 -0.5684 -0.8814  0.4098
  148MOL0     C19424  11.724  10.345   0.301  0.7558  0.1086 -0.6053
  148MOL0     C19425  11.762  10.487   0.238  0.1256  0.4106 -0.4634
  148MOL0     C19426  11.879  10.544   0.327 -0.6613  0.7136 -0.6735
  148MOL0     C19427  11.918  10.679   0.275  0.5615  0.0573  0.4745
  148MOL0     O19428  12.055  10.684   0.327  0.8510 -0.1459 -0.6551
  148MOL0     C19429  12.080  10.763   0.436  0.1170  0.0030 -0.8286
  148MOL0     C19430  12.208  10.738   0.490 -0.8229  0.3810 -0.3259
  148MOL0     C19431  12.255  10.823   0.598  0.6834 -0.8423  0.7743
  148MOL0     C19432  12.180  10.932   0.636 -0.1692  0.0982  0.2975
  148MOL0     C19433  12.234  11.023   0.740  0.4201 -0.0082  0.2939
  148MOL0     O19434  12.375  11.016   0.756 -0.8348 -0.6724 -0.2597
  148MOL0     C19435  12.419  11.119   0.838 -0.2506  0.7000 -0.3624
  148MOL0     C19436  12.430  11.251   0.791 -1.3090  0.0012  0.0318
  148MOL0     C19437  12.493  11.349   0.869 -0.3045  0.1102  0.2304
  148MOL0     C19438  12.542  11.325   1.000  0.2240 -1.0538  0.0148
  148MOL0     O19439  12.614  11.436   1.056  0.0456  0.4178  0.8679
  148MOL0     C19440  12.652  11.433   1.196 -0.5466 -0.8082 -0.4853
  148MOL0     C19441  12.528  11.489   1.284 -0.2916 -0.7993  0.2657
  148MOL0     C19442  12.461  11.394   1.381  0.3427 -0.0102 -0.6153
  148MOL0     C19443  12.307  11.422   1.402  0.0496 -0.4444  0.9990
  148MOL0     C19444  12.247  11.338   1.510 -0.9026 -0.5823 -0.2652
  148MOL0     C19445  12.113  11.394   1.537 -0.3910 -0.9971 -1.5568
  148MOL0     C19446  12.115  11.525   1.621 -0.2192  0.5041 -0.1524
  148MOL0     C19447  11.972  11.571   1.630 -0.7925 -0.4359 -0.5634
  148MOL0    Cl19448  11.981  11.729   1.698 -0.0534  0.0554  0.4430
  148MOL0     C19449  12.528  11.188   1.041 -1.0992 -0.1610 -0.2234
  148MOL0     C19450  12.467  11.091   0.964 -0.5004 -0.1739  0.5033
  148MOL0     O19451  12.153  11.075   0.814  0.1837  0.2093 -0.0743
  148MOL0     C19452  12.055  10.962   0.582  0.8664 -0.5826 -0.2670
  148MOL0     C19453  12.006  10.873   0.482  0.4133  0.6435 -0.3348
  148MOL0     N19454  11.679  10.396   0.548  1.0329  0.6610  0.2012
  148MOL0     N19455  11.579  10.364   0.631  0.6956 -0.2926 -0.5468
  148MOL0     C19456  10.645   9.489   1.086 -0.9343 -1.2615  0.7632
  148MOL0     C19457  10.610   9.354   1.090 -1.1418  0.0617 -0.1376
  148MOL0     C19458  10.759   8.918   1.125  0.1104 -0.3125 -0.6514
  148MOL0     C19459  10.825   8.836   1.219 -0.6541  0.8702  0.3551
  148MOL0     C19460  10.817   8.696   1.213 -0.6778  0.6605  0.0627
  148MOL0     C19461  10.738   8.638   1.115 -0.4574  0.4828  0.0061
  148MOL0     O19462  10.736   8.502   1.105 -0.5304 -0.0925 -0.0613
  148MOL0     C19463  10.627   8.431   1.051 -0.4110 -1.1120 -0.2255
  148MOL0     C19464  10.623   8.281   1.097 -0.2824  0.1695  0.2462
  148MOL0     C19465  10.516   8.273   1.210 -0.5399  0.1726  1.4978
  148MOL0     C19466  10.565   8.341   1.336 -0.6762 -0.3496 -0.0842
  148MOL0     C19467  10.647   8.233   1.401  0.8113 -0.6498  0.6012
  148MOL0     C19468  10.723   8.150   1.444  0.0656 -0.6954 -0.8461
  148MOL0     C19469  10.666   8.716   1.025 -0.1204 -0.6556  0.1773
  148MOL0     C19470  10.678   8.854   1.035 -0.0103 -0.0642  0.0108
  148MOL0     H19471  10.848   9.226   0.893 -0.8726 -0.7898  0.9990
  148MOL0     H19472  10.884   9.470   0.843 -0.3824 -0.1546  0.3349
  148MOL0     H19473  10.776   9.712   0.792  1.6680  2.4408 -2.3577
  148MOL0     H19474  10.936   9.679   0.841 -1.1150 -0.8404 -1.2066
  148MOL0     H19475  10.887   9.905   1.000 -0.2397 -0.7438  0.0998
  148MOL0     H19476  10.766   9.934   0.887 -0.6169 -0.6309 -0.9808
  148MOL0     H19477  10.946   9.909   0.692  2.9708  0.5536 -0.2286
  148MOL0     H19478  11.055   9.879   0.820 -0.6367 -0.7143 -0.2282
  148MOL0     H19479  10.897  10.125   0.737  2.2571  1.0290 -3.0144
  148MOL0     H19480  10.967  10.103   0.908 -0.8132  0.8329 -0.7230
  148MOL0     H19481  11.191  10.066   0.804 -1.1842 -0.9243 -1.2007
  148MOL0     H19482  11.115  10.224   0.829 -0.5773 -1.7824  1.3325
  148MOL0     H19483  11.076  10.250   0.570  1.1488  0.9222 -1.4637
  148MOL0     H19484  11.096  10.079   0.566  1.0143 -0.7159  0.2362
  148MOL0     H19485  11.341  10.104   0.623 -0.1988 -0.5034  0.7121
  148MOL0     H19486  11.290  10.156   0.457 -0.8690 -0.7893  0.6011
  148MOL0     H19487  11.344  10.325   0.720 -0.5257  2.2891 -0.0482
  148MOL0     H19488  11.262  10.393   0.578 -0.0955 -0.0538 -0.7262
  148MOL0     H19489  11.453  10.307   0.337  1.1171 -1.2809  0.4102
  148MOL0     H19490  11.669  10.295   0.220 -0.8578  2.3686 -0.9787
  148MOL0     H19491  11.816  10.289   0.322  0.6834  0.9347  2.3135
  148MOL0     H19492  11.672  10.548   0.236 -0.5649 -0.5754 -0.2291
  148MOL0     H19493  11.809  10.483   0.139  0.3754  1.9656 -0.4215
  148MOL0     H19494  11.838  10.558   0.427 -1.2329  0.0850 -0.8094
  148MOL0     H19495  11.963  10.474   0.325 -1.0943  0.1976 -1.1289
  148MOL0     H19496  11.844  10.752   0.309 -0.3667 -1.1722  1.1518
  148MOL0     H19497  11.915  10.680   0.165  1.1711  1.4600  0.4492
  148MOL0     H19498  12.271  10.655   0.457  1.0466  1.2618  0.8590
  148MOL0     H19499  12.349  10.800   0.647  0.5076  0.9615  2.0484
  148MOL0     H19500  12.408  11.268   0.686  3.1996  0.5518 -1.0403
  148MOL0     H19501  12.508  11.452   0.839 -2.6991  1.0004  1.7870
  148MOL0     H19502  12.741  11.491   1.221 -2.7649  1.6957  2.2929
  148MOL0     H19503  12.684  11.335   1.233 -1.2289 -0.3784  1.3290
  148MOL0     H19504  12.447  11.513   1.215  0.6335 -1.3382 -1.0384
  148MOL0     H19505  12.559  11.583   1.331 -2.7805  1.4078 -2.1607
  148MOL0     H19506  12.503  11.409   1.481  0.9966 -0.5043 -0.8055
  148MOL0     H19507  12.487  11.289   1.362  0.0905  0.0019 -1.0394
  148MOL0     H19508  12.301  11.527   1.433 -1.3366  0.4121 -1.8191
  148MOL0     H19509  12.251  11.428   1.308  1.0723 -0.7066  0.3542
  148MOL0     H19510  12.304  11.343   1.604 -2.1799  1.3429  0.4599
  148MOL0     H19511  12.249  11.237   1.468  1.8369  0.4660 -3.0592
  148MOL0     H19512  12.069  11.316   1.600  0.1019 -0.1911 -0.1588
  148MOL0     H19513  12.060  11.398   1.441 -1.6574 -0.3908 -0.8647
  148MOL0     H19514  12.165  11.493   1.713 -0.6451 -4.9913 -1.4620
  148MOL0     H19515  12.172  11.607   1.576 -1.1418  0.2874 -1.8117
  148MOL0     H19516  11.920  11.500   1.695  1.4090 -1.0480  0.6431
  148MOL0     H19517  11.922  11.568   1.533 -1.3668 -0.2526 -0.2789
  148MOL0     H19518  12.554  11.149   1.139 -0.9347 -2.1815 -1.0216
  148MOL0     H19519  12.453  10.988   0.993 -1.7462  0.3446  1.9030
  148MOL0     H19520  11.983  11.040   0.605 -2.2544 -2.0409 -3.9786
  148MOL0     H19521  11.910  10.905   0.443  0.2652  0.0175 -0.5094
  148MOL0     H19522  10.586   9.552   1.152 -0.6115 -2.5755  2.3684
  148MOL0     H19523  10.525   9.314   1.144  0.2901 -2.2135  0.5813
  148MOL0     H19524  10.898   8.876   1.288  1.0263  1.1030 -1.4672
  148MOL0     H19525  10.855   8.630   1.291 -1.3264  0.3551  0.1225
  148MOL0     H19526  10.634   8.428   0.942  2.7299 -2.4977 -0.1117
  148MOL0     H19527  10.538   8.470   1.101 -0.2270 -4.1088  2.7664
  148MOL0     H19528  10.565   8.235   1.017 -2.1891 -0.0327  1.6562
  148MOL0     H19529  10.715   8.224   1.110 -1.8359 -2.3541  0.8692
  148MOL0     H19530  10.480   8.172   1.231 -0.8448 -0.6179 -2.1189
  148MOL0     H19531  10.433   8.337   1.181  0.0946 -0.2910 -1.7762
  148MOL0     H19532  10.619   8.434   1.314  1.3155 -2.2801 -4.4306
  148MOL0     H19533  10.478   8.368   1.397 -0.3701  1.4927 -0.3973
  148MOL0     H19534  10.794   8.073   1.463  1.3887  0.6321 -0.1635
  148MOL0     H19535  10.598   8.669   0.955  0.6692 -1.2054 -0.2399
  148MOL0     H19536  10.619   8.912   0.966  0.6496 -0.1067 -0.6008
  149MOL0     O19537   1.706   3.537  10.921 -1.1922  0.4389  0.4558
  149MOL0     C19538   1.657   3.436  10.970  0.0990 -0.7421  0.0717
  149MOL0     O19539   1.605   3.442  11.090  0.5743 -0.4007  0.0928
  149MOL0     C19540   1.620   3.553  11.175 -1.1268  0.4335  0.6305
  149MOL0     C19541   1.731   3.642  11.170 -0.4083 -0.4398  0.0076
  149MOL0     C19542   1.730   3.755  11.237  0.5573  0.6035 -0.5979
  149MOL0     C19543   1.630   3.798  11.328 -0.6926  0.8953 -0.5044
  149MOL0     O19544   1.637   3.914  11.400 -0.6816 -0.6259  0.7849
  149MOL0     C19545   1.514   3.987  11.424  0.8102  0.1072  0.0316
  149MOL0     C19546   1.547   4.124  11.492 -0.5334 -0.0209  0.3376
  149MOL0     C19547   1.425   4.215  11.482  0.4485  0.8935 -0.4515
  149MOL0     C19548   1.402   4.333  11.576 -0.5889 -0.2896  0.5782
  149MOL0     C19549   1.289   4.433  11.515 -0.8206  0.3464  0.0088
  149MOL0     C19550   1.167   4.356  11.459 -0.1807  0.4729 -1.5587
  149MOL0     C19551   1.052   4.454  11.446  0.7051  0.9634 -0.6725
  149MOL0     C19552   1.062   4.522  11.312  0.6430 -0.3655 -0.8150
  149MOL0     N19553   0.958   4.619  11.278 -0.1056  0.3160 -0.0917
  149MOL0     C19554   0.955   4.758  11.295  0.5509  0.6850 -0.1435
  149MOL0     C19555   0.843   4.801  11.232  1.2760  0.3790  0.0659
  149MOL0     C19556   0.811   4.946  11.211  0.7235 -0.2800 -0.1285
  149MOL0     C19557   0.877   5.009  11.087  0.5984 -0.0857  0.8952
  149MOL0     C19558   0.831   4.949  10.947 -1.3196 -0.3115 -0.9254
  149MOL0     C19559   0.900   5.043  10.839  0.4781  0.3595  0.0650
  149MOL0     O19560   1.047   5.035  10.839  1.0499  0.2737 -0.6512
  149MOL0     C19561   1.115   4.916  10.803  0.2235  0.6502 -0.1964
  149MOL0     C19562   1.255   4.916  10.801 -0.0249 -0.4074 -1.1465
  149MOL0     C19563   1.336   4.808  10.757 -0.8923  1.0611 -0.3293
  149MOL0     C19564   1.272   4.688  10.716  0.0121  0.4718 -0.4930
  149MOL0     C19565   1.353   4.577  10.654  1.1176 -0.4047 -0.2266
  149MOL0     O19566   1.289   4.471  10.623 -0.5472  0.2590 -0.0092
  149MOL0     C19567   1.348   4.352  10.586  0.6852  0.5870  0.4154
  149MOL0     C19568   1.445   4.348  10.485 -1.0897 -0.4375  0.0821
  149MOL0     C19569   1.506   4.225  10.448  0.5736 -1.1576  0.1338
  149MOL0     C19570   1.469   4.108  10.519 -0.5913 -0.2108  0.7559
  149MOL0     O19571   1.545   3.994  10.494  0.1297 -1.0594 -0.7319
  149MOL0     C19572   1.583   3.909  10.603  0.0574 -0.3404 -0.7590
  149MOL0     C19573   1.639   3.771  10.563 -0.1301 -0.5092  1.5082
  149MOL0     C19574   1.538   3.668  10.502  0.1114  0.2087 -0.3035
  149MOL0     C19575   1.598   3.546  10.437 -0.9127 -0.4391 -0.0358
  149MOL0     C19576   1.504   3.441  10.382  0.0861 -0.1608 -0.7412
  149MOL0     C19577   1.389   3.488  10.284 -1.0802 -0.6267 -0.2992
  149MOL0     C19578   1.311   3.376  10.236 -0.5868  0.4955 -0.0940
  149MOL0     C19579   1.367   3.321  10.106 -0.6037 -0.3240 -0.0189
  149MOL0    Cl19580   1.347   3.143  10.095  0.1801 -0.1932 -0.1285
  149MOL0     C19581   1.365   4.112  10.610 -0.2026  0.1365 -0.1923
  149MOL0     C19582   1.302   4.231  10.643 -0.4572 -0.6364  0.0072
  149MOL0     O19583   1.473   4.587  10.652 -1.1194 -0.0388  0.1771
  149MOL0     C19584   1.140   4.679  10.730 -0.0739 -0.6996  0.2559
  149MOL0     C19585   1.053   4.789  10.759 -0.9757 -0.9108 -0.2624
  149MOL0     N19586   0.775   4.691  11.181  0.1420  0.6234  0.0330
  149MOL0     N19587   0.848   4.585  11.210 -0.7943  0.8219  0.1053
  149MOL0     C19588   1.523   3.701  11.347 -0.1079 -0.4366  0.3512
  149MOL0     C19589   1.522   3.580  11.268  0.3549  0.0733 -0.5325
  149MOL0     C19590   1.643   3.318  10.886 -0.1715 -0.1024  0.7060
  149MOL0     C19591   1.570   3.206  10.942  0.0287  0.6704  0.4694
  149MOL0     C19592   1.557   3.086  10.871  0.2674  0.0147  0.2302
  149MOL0     C19593   1.617   3.065  10.749  0.2218 -0.5888 -0.3327
  149MOL0     O19594   1.622   2.941  10.686  0.2178  0.6768 -0.4549
  149MOL0     C19595   1.692   2.927  10.560 -0.3027 -0.1525 -0.8993
  149MOL0     C19596   1.666   2.788  10.493  0.2668 -0.4243 -0.6639
  149MOL0     C19597   1.539   2.789  10.400  0.3762  1.2008  0.6054
  149MOL0     C19598   1.542   2.684  10.281 -0.5326 -0.2349 -0.4675
  149MOL0     C19599   1.404   2.665  10.230 -0.0397  0.8025  0.5538
  149MOL0     C19600   1.312   2.662  10.150  0.3348  0.8161  0.7703
  149MOL0     C19601   1.698   3.177  10.704 -0.7979 -1.5901 -0.2409
  149MOL0     C19602   1.711   3.297  10.765  0.3309  0.5853 -0.1661
  149MOL0     H19603   1.816   3.638  11.103 -1.0852 -0.4764 -0.8702
  149MOL0     H19604   1.813   3.822  11.218 -0.4965  1.4493 -2.5104
  149MOL0     H19605   1.449   3.942  11.499  0.3241  2.4861  1.1043
  149MOL0     H19606   1.458   4.007  11.332  0.6971  0.3724  0.1578
  149MOL0     H19607   1.627   4.162  11.429  1.0668 -2.3700  0.8339
  149MOL0     H19608   1.597   4.116  11.589  3.8521 -1.6266 -1.7904
  149MOL0     H19609   1.329   4.163  11.488 -1.2306  3.8751  3.0450
  149MOL0     H19610   1.448   4.252  11.382  5.8113 -2.7588 -0.9503
  149MOL0     H19611   1.378   4.303  11.679  2.4555 -2.4806  0.7945
  149MOL0     H19612   1.494   4.391  11.572  0.6447 -2.1916 -2.7500
  149MOL0     H19613   1.330   4.492  11.432 -3.9124  1.2113 -1.0067
  149MOL0     H19614   1.275   4.504  11.596 -0.0396  2.8019 -1.8841
  149MOL0     H19615   1.147   4.273  11.527 -1.0942  2.8268  1.2498
  149MOL0     H19616   1.190   4.319  11.359 -0.7812 -1.8749 -0.8993
  149MOL0     H19617   0.955   4.404  11.443  0.5342  1.2666 -3.6221
  149MOL0     H19618   1.059   4.531  11.523 -0.0705  3.1446 -2.6552
  149MOL0     H19619   1.058   4.444  11.236  2.3244  0.6484 -2.0225
  149MOL0     H19620   1.165   4.558  11.298 -0.0548  1.6341 -1.1974
  149MOL0     H19621   1.043   4.810  11.334  2.1567 -0.7688 -1.6706
  149MOL0     H19622   0.837   5.004  11.300  3.9062  1.0565 -1.7402
  149MOL0     H19623   0.705   4.965  11.196 -0.1638 -4.0856  0.5036
  149MOL0     H19624   0.983   4.986  11.100 -0.1446 -2.0982  5.2501
  149MOL0     H19625   0.856   5.116  11.084 -2.9019 -0.6787  0.3017
  149MOL0     H19626   0.866   4.845  10.944  0.5793  0.1064  2.2448
  149MOL0     H19627   0.722   4.949  10.943 -1.5052  1.7471  1.4624
  149MOL0     H19628   0.877   5.146  10.866 -0.2966 -0.0672  1.0745
  149MOL0     H19629   0.854   5.004  10.748 -1.9064  0.0366  1.3308
  149MOL0     H19630   1.290   5.010  10.844 -1.1129  0.0151 -1.1372
  149MOL0     H19631   1.444   4.807  10.743 -1.1446 -0.0845 -2.6253
  149MOL0     H19632   1.476   4.427  10.417 -0.6467 -2.7623 -2.5817
  149MOL0     H19633   1.598   4.226  10.390  0.0381 -0.4042 -0.7420
  149MOL0     H19634   1.490   3.907  10.661 -1.5343  3.5654 -2.8039
  149MOL0     H19635   1.656   3.956  10.670  2.3874 -2.5238 -1.6244
  149MOL0     H19636   1.690   3.730  10.650  0.3791 -1.9901  0.5405
  149MOL0     H19637   1.728   3.786  10.502  0.0413  0.7737  2.0254
  149MOL0     H19638   1.469   3.718  10.433 -1.7586 -1.6753  0.0914
  149MOL0     H19639   1.469   3.621  10.574 -2.0217 -1.1829 -3.0518
  149MOL0     H19640   1.658   3.594  10.359  0.7640  0.2502  1.5806
  149MOL0     H19641   1.663   3.498  10.511 -0.1810  3.6367  2.2690
  149MOL0     H19642   1.458   3.387  10.465  1.0835  1.4025  0.9133
  149MOL0     H19643   1.564   3.366  10.330  0.3569 -0.9341  0.6565
  149MOL0     H19644   1.424   3.541  10.195  0.3384 -2.1133 -0.6601
  149MOL0     H19645   1.318   3.556  10.332 -0.9857  2.1470 -3.6532
  149MOL0     H19646   1.306   3.291  10.305 -2.0940  0.7037  0.0902
  149MOL0     H19647   1.214   3.421  10.214  0.2256  0.9599 -3.1729
  149MOL0     H19648   1.472   3.350  10.096 -1.3570  2.5581 -0.4852
  149MOL0     H19649   1.315   3.371  10.024 -0.4599 -0.5502 -0.2503
  149MOL0     H19650   1.322   4.022  10.654 -1.5765  0.2278 -1.2833
  149MOL0     H19651   1.223   4.231  10.718  0.0510 -3.8636  0.6668
  149MOL0     H19652   1.102   4.578  10.716  2.4455 -2.0589  2.4253
  149MOL0     H19653   0.947   4.768  10.757 -1.1163 -0.3162  0.5617
  149MOL0     H19654   1.444   3.716  11.420 -2.8417 -2.8520 -1.8769
  149MOL0     H19655   1.441   3.508  11.277  1.4255 -0.9439  2.4761
  149MOL0     H19656   1.516   3.204  11.037  1.6336 -1.4719  1.4203
  149MOL0     H19657   1.496   3.000  10.898 -0.9075  1.1820  1.4331
  149MOL0     H19658   1.799   2.934  10.577 -0.0299 -2.4580 -1.3557
  149MOL0     H19659   1.654   3.015  10.506 -0.9969  1.1529  1.5511
  149MOL0     H19660   1.752   2.763  10.429  1.4587 -0.4851  0.9103
  149MOL0     H19661   1.648   2.716  10.573 -1.7523  2.8967  2.1456
  149MOL0     H19662   1.547   2.887  10.351  1.7823  0.8236  0.0280
  149MOL0     H19663   1.451   2.770  10.462  1.4794 -3.3804  1.0659
  149MOL0     H19664   1.618   2.710  10.207  0.2701 -1.7868 -0.2278
  149MOL0     H19665   1.570   2.583  10.312 -2.0354 -0.8817 -1.1356
  149MOL0     H19666   1.234   2.678  10.078 -0.2134  0.3564  1.2598
  149MOL0     H19667   1.767   3.171  10.620 -0.0241  2.3563 -0.0624
  149MOL0     H19668   1.752   3.385  10.717 -2.0742  2.3947  0.8793
  150MOL0     O19669   3.053  10.741  10.420  0.4750  0.0004  0.0989
  150MOL0     C19670   3.177  10.753  10.433  0.5489 -1.0402  0.4834
  150MOL0     O19671   3.267  10.802  10.340 -0.3169 -0.6021 -0.1133
  150MOL0     C19672   3.232  10.800  10.209 -0.6059 -0.5094  0.4969
  150MOL0     C19673   3.310  10.890  10.129 -0.0646 -0.0757  0.6498
  150MOL0     C19674   3.276  10.916   9.993  0.5000 -0.5583  0.3357
  150MOL0     C19675   3.191  10.838   9.928  0.5117 -0.1942  0.6382
  150MOL0     O19676   3.180  10.856   9.795  0.1794  0.2791  0.0455
  150MOL0     C19677   3.058  10.920   9.742  0.2920  0.1843  0.2103
  150MOL0     C19678   3.080  10.915   9.593 -0.9149 -0.1183  0.5300
  150MOL0     C19679   2.967  10.970   9.512 -0.2126 -0.1349  1.0030
  150MOL0     C19680   2.949  11.111   9.534 -0.5222  0.2260 -0.2050
  150MOL0     C19681   2.868  11.182   9.431  0.1654  0.4862  0.9717
  150MOL0     C19682   2.837  11.327   9.474 -0.7015  0.4877 -0.2732
  150MOL0     C19683   2.733  11.395   9.386 -0.0441 -0.1171 -0.7051
  150MOL0     C19684   2.740  11.544   9.368  0.3114  0.6776  0.4694
  150MOL0     N19685   2.727  11.619   9.496 -0.0359 -1.2470  0.2535
  150MOL0     C19686   2.645  11.726   9.517  0.5312 -1.2666 -0.8541
  150MOL0     C19687   2.697  11.786   9.627  0.2772  1.0765 -0.3827
  150MOL0     C19688   2.636  11.905   9.687  0.4192  0.4903 -0.3015
  150MOL0     C19689   2.658  12.036   9.613 -0.9234 -0.2050 -0.5735
  150MOL0     C19690   2.805  12.083   9.607 -0.0418  0.0006 -0.7544
  150MOL0     C19691   2.875  12.107   9.744 -0.4655  0.3006 -0.7733
  150MOL0     O19692   2.807  12.202   9.824 -0.8806  0.0052 -0.7525
  150MOL0     C19693   2.792  12.190   9.957  0.5912  0.4995 -0.3975
  150MOL0     C19694   2.786  12.311  10.030  0.1400  0.0173  1.4933
  150MOL0     C19695   2.789  12.311  10.173  0.2893  0.8749  0.2372
  150MOL0     C19696   2.783  12.185  10.241 -0.9829 -0.3736 -0.8927
  150MOL0     C19697   2.795  12.193  10.383 -1.9466 -0.2185  0.2126
  150MOL0     O19698   2.794  12.319  10.444 -1.0821 -0.3744 -0.5884
  150MOL0     C19699   2.811  12.342  10.574  0.1758  0.4170 -0.8700
  150MOL0     C19700   2.869  12.465  10.616  0.6225  1.6041  0.6605
  150MOL0     C19701   2.897  12.488  10.749  0.1886  1.4420 -1.0913
  150MOL0     C19702   2.845  12.398  10.849 -0.5756  0.7965  0.5818
  150MOL0     O19703   2.881  12.420  10.975 -0.4117  0.7263  0.0150
  150MOL0     C19704   3.022  12.446  11.015  0.0937  1.2793  0.0715
  150MOL0     C19705   3.049  12.527  11.138  0.1511  0.7077  0.6147
  150MOL0     C19706   2.979  12.666  11.140  0.8621 -0.9505 -0.5439
  150MOL0     C19707   3.004  12.756  11.014  0.3676 -1.0482  0.5561
  150MOL0     C19708   2.961  12.901  11.030 -0.7384 -0.2072  0.4439
  150MOL0     C19709   2.979  12.987  10.900  0.8214  0.2922 -0.8676
  150MOL0     C19710   2.961  13.134  10.930  0.4122  1.1510 -1.2069
  150MOL0     C19711   3.093  13.184  10.978  0.1220  0.0874 -0.9593
  150MOL0    Cl19712   3.070  13.344  11.044 -0.3235 -0.3362  0.0817
  150MOL0     C19713   2.758  12.291  10.805 -0.0730 -0.5406 -0.5825
  150MOL0     C19714   2.749  12.258  10.674  0.6030 -1.2637  0.5450
  150MOL0     O19715   2.796  12.085  10.436 -0.2173 -0.5222 -0.5840
  150MOL0     C19716   2.788  12.068  10.171 -0.6480 -0.3810  0.5667
  150MOL0     C19717   2.805  12.075  10.028 -0.1748  0.2848  0.4852
  150MOL0     N19718   2.813  11.721   9.676  0.6014 -0.4516  0.8735
  150MOL0     N19719   2.830  11.624   9.589 -1.3046  0.5632  1.0048
  150MOL0     C19720   3.113  10.739   9.998 -0.8813 -0.5839 -0.3922
  150MOL0     C19721   3.133  10.723  10.138 -0.3446  0.0570  0.5352
  150MOL0     C19722   3.217  10.698  10.561  0.4153 -0.6610 -1.4632
  150MOL0     C19723   3.361  10.710  10.597 -0.1651 -0.4655  0.3630
  150MOL0     C19724   3.403  10.675  10.722  0.2620 -0.0937  0.4465
  150MOL0     C19725   3.313  10.618  10.815 -0.1106  0.0348 -0.1365
  150MOL0     O19726   3.354  10.577  10.941  0.6793  0.1913 -0.8463
  150MOL0     C19727   3.480  10.516  10.954  0.3651 -0.2736  0.1937
  150MOL0     C19728   3.498  10.438  11.086  1.2505  0.2144  0.6864
  150MOL0     C19729   3.426  10.300  11.081  0.2329  0.4159  0.8630
  150MOL0     C19730   3.391  10.242  11.210  1.4673 -0.8805 -0.2888
  150MOL0     C19731   3.311  10.111  11.187 -0.6251 -0.0997  1.0227
  150MOL0     C19732   3.235  10.013  11.181  0.0367  0.0098 -0.0743
  150MOL0     C19733   3.182  10.605  10.779  0.3214  0.0747  0.1661
  150MOL0     C19734   3.127  10.639  10.651 -0.1411  0.6059 -0.0882
  150MOL0     H19735   3.388  10.952  10.173 -0.0483 -1.1982  2.2837
  150MOL0     H19736   3.336  10.986   9.937 -0.7594  2.3118  2.3399
  150MOL0     H19737   3.043  11.021   9.782  0.0190  0.1157  0.2846
  150MOL0     H19738   2.969  10.864   9.770 -1.5819  1.8106 -2.1264
  150MOL0     H19739   3.109  10.815   9.562 -0.9854 -0.3091  1.0707
  150MOL0     H19740   3.170  10.973   9.570 -2.5653  2.2911 -0.3068
  150MOL0     H19741   2.875  10.919   9.541 -2.1585  1.8722 -1.1836
  150MOL0     H19742   2.989  10.962   9.405 -0.9800 -1.1474  0.9087
  150MOL0     H19743   2.906  11.128   9.633  0.6525 -2.2448  0.8210
  150MOL0     H19744   3.051  11.151   9.529 -0.0046 -0.4122  3.1295
  150MOL0     H19745   2.776  11.128   9.409 -0.6665  1.2132  2.5149
  150MOL0     H19746   2.918  11.189   9.334 -1.5431  0.9432  0.0957
  150MOL0     H19747   2.937  11.370   9.475 -0.7693  0.6475 -0.2695
  150MOL0     H19748   2.796  11.338   9.575 -3.1300  2.7596 -1.3678
  150MOL0     H19749   2.744  11.356   9.284 -1.1290  1.1871 -1.3483
  150MOL0     H19750   2.634  11.359   9.415 -0.3923 -0.9358 -2.7134
  150MOL0     H19751   2.656  11.571   9.303 -0.6360 -1.1710  0.8546
  150MOL0     H19752   2.834  11.573   9.320  0.5012  0.7619  0.8951
  150MOL0     H19753   2.560  11.754   9.455  1.9963  1.4755 -1.7744
  150MOL0     H19754   2.675  11.901   9.788 -1.5832 -0.9296  0.4774
  150MOL0     H19755   2.527  11.899   9.697  0.4485  1.8597  1.2737
  150MOL0     H19756   2.605  12.113   9.669 -0.0618 -0.6358  0.8795
  150MOL0     H19757   2.614  12.025   9.513  0.3911 -0.3611 -1.1565
  150MOL0     H19758   2.859  12.011   9.544  1.3110  0.0132  0.3269
  150MOL0     H19759   2.809  12.180   9.555 -3.4748  0.0370 -1.1674
  150MOL0     H19760   2.973  12.150   9.720 -1.3065  2.5458 -0.4198
  150MOL0     H19761   2.881  12.011   9.795  0.1064  0.5852 -0.2953
  150MOL0     H19762   2.788  12.409   9.982 -0.5828  0.4424  2.3063
  150MOL0     H19763   2.796  12.401  10.233 -2.9990  0.3856  1.6004
  150MOL0     H19764   2.911  12.521  10.533  4.0540 -2.5600 -0.8182
  150MOL0     H19765   2.956  12.577  10.769 -0.2853  1.6544 -0.6300
  150MOL0     H19766   3.080  12.494  10.936  1.3203 -1.1350 -0.5849
  150MOL0     H19767   3.067  12.347  11.023  2.0412  1.9424 -1.8276
  150MOL0     H19768   3.157  12.547  11.145 -0.1178  1.9695  1.4806
  150MOL0     H19769   3.022  12.472  11.228 -3.8403  0.3076 -0.6285
  150MOL0     H19770   3.011  12.715  11.233  0.3195 -1.4145 -0.0997
  150MOL0     H19771   2.872  12.646  11.155  0.0714  2.3423 -0.9878
  150MOL0     H19772   3.111  12.761  10.989  0.3234 -1.1080  0.3576
  150MOL0     H19773   2.935  12.716  10.939 -1.4864 -0.9917  2.1563
  150MOL0     H19774   3.023  12.931  11.114  2.0723 -1.4687 -1.0499
  150MOL0     H19775   2.860  12.905  11.073  0.1861  0.7061  2.6460
  150MOL0     H19776   2.900  12.956  10.831 -2.8374  3.8679  1.2595
  150MOL0     H19777   3.078  12.966  10.858  2.6112 -0.3593  3.1788
  150MOL0     H19778   2.930  13.183  10.837 -0.6606  1.7073 -0.5750
  150MOL0     H19779   2.886  13.139  11.009 -0.2628  1.2776 -1.8396
  150MOL0     H19780   3.172  13.192  10.902  0.7428  2.0807 -0.1726
  150MOL0     H19781   3.141  13.117  11.050  0.6223  1.9200  0.5022
  150MOL0     H19782   2.719  12.239  10.892  0.9665 -0.4882 -0.0679
  150MOL0     H19783   2.693  12.171  10.642 -0.2242  0.1364 -2.2050
  150MOL0     H19784   2.766  11.971  10.213 -0.4288  0.1300  1.9178
  150MOL0     H19785   2.825  11.978   9.984 -4.0896 -1.2951  1.6969
  150MOL0     H19786   3.040  10.677   9.946 -1.7299 -0.6985  0.8878
  150MOL0     H19787   3.069  10.644  10.177 -2.0164  1.1552  0.1089
  150MOL0     H19788   3.440  10.752  10.535 -0.6002  0.3115  0.3193
  150MOL0     H19789   3.503  10.692  10.762  0.2375 -0.3882  0.6317
  150MOL0     H19790   3.553  10.598  10.961 -0.8202  0.8283  0.0477
  150MOL0     H19791   3.495  10.450  10.869  1.9585 -0.7438  0.7987
  150MOL0     H19792   3.607  10.440  11.101  1.0493  1.2639  2.3110
  150MOL0     H19793   3.455  10.497  11.168 -0.0987 -0.7835  0.7280
  150MOL0     H19794   3.500  10.235  11.034 -0.4080 -0.9954  1.7531
  150MOL0     H19795   3.334  10.298  11.022  0.1987 -2.1368  0.8998
  150MOL0     H19796   3.488  10.237  11.261  2.5299  3.3612 -1.4862
  150MOL0     H19797   3.334  10.317  11.265  1.3872 -1.0506 -0.1379
  150MOL0     H19798   3.184   9.919  11.177  4.4641 -2.6991 -0.1308
  150MOL0     H19799   3.107  10.574  10.850  1.0924 -2.4442 -0.0315
  150MOL0     H19800   3.020  10.647  10.637 -0.8613  1.3001  4.3896
  151MOL0     O19801  10.804   6.847   9.887 -0.5261 -0.8913 -0.0989
  151MOL0     C19802  10.890   6.881   9.801  0.4732  0.0933 -0.4454
  151MOL0     O19803  10.923   6.809   9.686  0.3790 -0.3170 -0.2237
  151MOL0     C19804  10.868   6.687   9.660 -0.6983  0.1702 -0.5857
  151MOL0     C19805  10.802   6.671   9.540 -0.3431 -0.0137 -0.7362
  151MOL0     C19806  10.764   6.540   9.499 -0.0943 -0.3763 -0.7981
  151MOL0     C19807  10.771   6.435   9.592 -0.5487  0.4766  0.3207
  151MOL0     O19808  10.714   6.315   9.558  0.2817  0.6900 -0.0202
  151MOL0     C19809  10.687   6.218   9.660  0.7512 -0.2034  1.1965
  151MOL0     C19810  10.606   6.104   9.597 -0.5176  0.7426 -0.5422
  151MOL0     C19811  10.617   5.965   9.679  0.0037 -0.4090 -0.2394
  151MOL0     C19812  10.700   5.861   9.595  0.6120 -0.0817 -0.4512
  151MOL0     C19813  10.638   5.797   9.469  0.2048  0.1359  0.5514
  151MOL0     C19814  10.510   5.713   9.490 -0.3885  0.1409 -0.5537
  151MOL0     C19815  10.455   5.657   9.353 -0.5282 -0.0122 -0.4510
  151MOL0     C19816  10.324   5.576   9.367  1.0307 -0.5133  0.6743
  151MOL0     N19817  10.219   5.634   9.445 -1.4225 -0.6996  0.0067
  151MOL0     C19818  10.215   5.628   9.583  0.2616 -0.1605 -0.4750
  151MOL0     C19819  10.115   5.712   9.606  0.5319 -0.5251 -0.7959
  151MOL0     C19820  10.072   5.748   9.742 -0.1117 -0.1042  0.1427
  151MOL0     C19821  10.187   5.804   9.822  0.1255  0.0526  0.0881
  151MOL0     C19822  10.117   5.838   9.957  0.4525 -0.3034 -0.4625
  151MOL0     C19823  10.195   5.940  10.041  0.2079 -0.2232  0.6251
  151MOL0     O19824  10.324   5.870  10.065 -0.0180  0.0311 -0.0336
  151MOL0     C19825  10.444   5.930  10.084 -0.2078  0.2245 -0.0155
  151MOL0     C19826  10.467   6.067  10.054 -0.8505 -0.1144  0.2012
  151MOL0     C19827  10.595   6.116  10.076 -0.6161 -0.0590 -0.1270
  151MOL0     C19828  10.710   6.037  10.122  0.1890  0.3154  0.3588
  151MOL0     C19829  10.840   6.088  10.147 -1.2424  0.0825  0.3155
  151MOL0     O19830  10.935   5.996  10.191 -0.1751 -0.3679 -0.2337
  151MOL0     C19831  11.066   6.027  10.172  0.4850  0.5665 -0.3762
  151MOL0     C19832  11.151   5.923  10.230  0.5953 -1.1385 -0.1358
  151MOL0     C19833  11.288   5.925  10.210 -0.6221  0.3047 -0.1765
  151MOL0     C19834  11.349   6.032  10.138  0.7368 -0.1983 -0.6808
  151MOL0     O19835  11.488   6.058  10.126  0.5315 -0.0309  0.5833
  151MOL0     C19836  11.592   5.965  10.160  0.5645  0.4436 -1.1661
  151MOL0     C19837  11.614   5.959  10.314 -0.0570  0.2653  0.3183
  151MOL0     C19838  11.753   6.011  10.352 -0.0423 -0.4927 -0.0404
  151MOL0     C19839  11.751   5.996  10.505 -0.7730 -0.2812 -0.3770
  151MOL0     C19840  11.903   6.000  10.549 -0.3833  0.3575  0.7366
  151MOL0     C19841  11.970   5.855  10.548  0.0978 -0.1634 -0.9408
  151MOL0     C19842  11.914   5.760  10.652  0.1416 -0.0226 -0.0010
  151MOL0     C19843  11.954   5.613  10.648 -0.0502  0.5244 -0.6683
  151MOL0    Cl19844  12.135   5.599  10.653 -0.1226 -0.0421 -0.5313
  151MOL0     C19845  11.271   6.134  10.094  0.4509  0.0241 -0.5435
  151MOL0     C19846  11.128   6.127  10.097 -0.5024  0.5089  0.9541
  151MOL0     O19847  10.859   6.203  10.113 -0.4465  0.1747  0.2119
  151MOL0     C19848  10.674   5.907  10.163 -0.9199  0.1040 -0.0760
  151MOL0     C19849  10.540   5.846  10.146 -1.6852  0.4013  0.1965
  151MOL0     N19850  10.056   5.770   9.498  0.2736 -0.0383 -0.6191
  151MOL0     N19851  10.124   5.719   9.394  0.4677  0.1942  0.1761
  151MOL0     C19852  10.835   6.454   9.715  0.2333 -1.0009 -0.0136
  151MOL0     C19853  10.883   6.581   9.746  0.8349 -0.1509 -0.6236
  151MOL0     C19854  10.961   7.004   9.837 -0.0627  0.8018 -0.6243
  151MOL0     C19855  11.059   7.057   9.750  0.5130  0.9185  0.2347
  151MOL0     C19856  11.106   7.180   9.770  0.5660 -0.7844  0.2385
  151MOL0     C19857  11.073   7.258   9.876  0.3180 -0.3712  0.3551
  151MOL0     O19858  11.134   7.384   9.886 -0.1740 -0.4144  0.1374
  151MOL0     C19859  11.125   7.451  10.015 -0.5654  0.9652 -0.1803
  151MOL0     C19860  11.234   7.409  10.122  1.4163 -0.9925  0.8403
  151MOL0     C19861  11.380   7.419  10.067  0.4898  0.0882 -0.0935
  151MOL0     C19862  11.491   7.387  10.169 -0.5072 -0.1510 -0.5976
  151MOL0     C19863  11.470   7.252  10.217 -1.2401 -0.7541 -0.5912
  151MOL0     C19864  11.429   7.137  10.237 -0.2325 -0.4779  0.1694
  151MOL0     C19865  10.983   7.211   9.966  0.2491  0.0349 -0.5769
  151MOL0     C19866  10.917   7.085   9.947  0.0178 -0.8147 -1.5965
  151MOL0     H19867  10.804   6.751   9.467  0.1152  0.2786 -0.4097
  151MOL0     H19868  10.715   6.520   9.404  0.8940 -1.7523 -1.0392
  151MOL0     H19869  10.632   6.277   9.734 -0.2083 -1.8409  1.8325
  151MOL0     H19870  10.779   6.168   9.691  0.7698 -2.6505 -2.1987
  151MOL0     H19871  10.659   6.086   9.503 -1.2477  0.2558 -0.8752
  151MOL0     H19872  10.506   6.135   9.564  1.2715  3.1964 -4.4235
  151MOL0     H19873  10.511   5.940   9.688 -0.1170  0.2328  0.1437
  151MOL0     H19874  10.646   5.982   9.783 -0.2327 -0.8255 -0.1024
  151MOL0     H19875  10.795   5.895   9.553  0.0640  1.2100 -0.6776
  151MOL0     H19876  10.716   5.776   9.662 -0.4397  0.5162  0.5906
  151MOL0     H19877  10.717   5.732   9.430  0.2359  0.6780 -0.3035
  151MOL0     H19878  10.620   5.874   9.394  0.1896 -0.6546 -0.2759
  151MOL0     H19879  10.435   5.769   9.546  0.8981  0.8015  0.5526
  151MOL0     H19880  10.545   5.636   9.559 -2.9471 -0.6709 -0.0295
  151MOL0     H19881  10.438   5.744   9.289  1.2596 -0.0549 -1.0346
  151MOL0     H19882  10.526   5.601   9.291  2.6953  1.1610  1.9190
  151MOL0     H19883  10.331   5.470   9.393  0.9137 -1.0166 -1.2217
  151MOL0     H19884  10.290   5.573   9.263 -0.2591 -0.0872  1.0531
  151MOL0     H19885  10.271   5.576   9.660 -1.9474 -1.4066  0.3654
  151MOL0     H19886  10.033   5.658   9.790  0.7811 -0.3553  0.4168
  151MOL0     H19887   9.995   5.824   9.728  1.2644  1.5056  0.8764
  151MOL0     H19888  10.220   5.886   9.758 -3.1033 -1.2633 -3.6764
  151MOL0     H19889  10.272   5.736   9.833 -0.2108 -0.6824 -1.6365
  151MOL0     H19890  10.015   5.876   9.950  0.8314  1.3685  1.8820
  151MOL0     H19891  10.108   5.754  10.025  2.1861 -0.1234  0.0373
  151MOL0     H19892  10.148   5.966  10.136 -0.0569 -2.5992  1.1982
  151MOL0     H19893  10.202   6.033   9.983 -0.6341 -0.4079  0.2133
  151MOL0     H19894  10.385   6.125  10.012 -1.4505 -1.1922 -0.1404
  151MOL0     H19895  10.622   6.217  10.045  3.1536 -0.6053  0.8192
  151MOL0     H19896  11.097   5.841  10.275 -0.8144  0.8664  2.0478
  151MOL0     H19897  11.345   5.853  10.267  1.3874  1.5799 -0.4514
  151MOL0     H19898  11.693   5.988  10.125  0.1350  4.2127 -0.3138
  151MOL0     H19899  11.565   5.863  10.128 -1.5364 -0.1383  2.0352
  151MOL0     H19900  11.596   5.859  10.355  1.3545 -0.0354  0.2415
  151MOL0     H19901  11.537   6.026  10.354 -0.0628 -0.7212  2.0416
  151MOL0     H19902  11.757   6.118  10.329  1.0751 -0.0520  2.0201
  151MOL0     H19903  11.837   5.952  10.314  0.1923 -0.3768  0.2973
  151MOL0     H19904  11.693   6.079  10.547  1.6112  2.3576 -1.9558
  151MOL0     H19905  11.704   5.904  10.541 -0.9283 -0.6413 -1.4643
  151MOL0     H19906  11.918   6.035  10.652  3.8226  0.0647  0.3968
  151MOL0     H19907  11.962   6.059  10.478  0.7639 -2.6010 -0.9292
  151MOL0     H19908  12.076   5.873  10.569 -0.5637  3.0274  0.1539
  151MOL0     H19909  11.977   5.813  10.447  1.6060  1.0989 -1.4116
  151MOL0     H19910  11.948   5.803  10.747  1.2126  3.4408 -1.7543
  151MOL0     H19911  11.806   5.774  10.647  0.3225  1.3722 -0.6194
  151MOL0     H19912  11.916   5.569  10.555  5.0795  3.4236 -4.7430
  151MOL0     H19913  11.923   5.575  10.746  1.7506  0.8507  0.0747
  151MOL0     H19914  11.316   6.213  10.035 -1.0723 -1.0688 -3.3704
  151MOL0     H19915  11.078   6.206  10.041  1.4648  1.2519  0.1272
  151MOL0     H19916  10.751   5.837  10.194 -0.0721 -0.5979 -3.3924
  151MOL0     H19917  10.522   5.740  10.156  7.5700 -2.0680 -0.2794
  151MOL0     H19918  10.835   6.379   9.793  0.2410  1.8217  2.8892
  151MOL0     H19919  10.934   6.602   9.839  1.0940 -3.1610  0.0201
  151MOL0     H19920  11.105   6.994   9.674  1.1134  0.4732  0.9594
  151MOL0     H19921  11.189   7.224   9.715 -0.8467 -2.0380 -3.1504
  151MOL0     H19922  11.033   7.440  10.075  1.6902  0.9830  3.6100
  151MOL0     H19923  11.130   7.559  10.000  1.0850  1.2578  2.0867
  151MOL0     H19924  11.220   7.486  10.199 -0.5561 -0.2918 -0.1517
  151MOL0     H19925  11.213   7.314  10.173 -1.8025 -0.5426  0.5415
  151MOL0     H19926  11.395   7.519  10.026 -0.5314  0.0492 -0.5993
  151MOL0     H19927  11.384   7.346   9.985 -1.0323 -2.2971  1.7991
  151MOL0     H19928  11.586   7.402  10.116 -0.5857 -0.4828 -0.8358
  151MOL0     H19929  11.493   7.452  10.257  2.2444 -0.3384 -0.4520
  151MOL0     H19930  11.385   7.041  10.256  0.3719 -0.7100  0.4308
  151MOL0     H19931  10.947   7.274  10.047 -2.1499 -2.2682  0.2645
  151MOL0     H19932  10.832   7.064  10.012 -0.2361  0.9705 -1.2841
  152MOL0     O19933   3.286   9.655   2.042  0.2846 -0.1661  0.3091
  152MOL0     C19934   3.249   9.770   2.066  0.3039  0.7774 -1.0983
  152MOL0     O19935   3.287   9.837   2.180  0.1595 -1.1094  0.4035
  152MOL0     C19936   3.381   9.785   2.261  0.0851 -0.0272  0.3298
  152MOL0     C19937   3.507   9.748   2.204  0.2041  0.4298  0.0183
  152MOL0     C19938   3.609   9.683   2.279 -0.0661  0.3284  0.1094
  152MOL0     C19939   3.581   9.652   2.417 -0.1638  0.5485  0.7177
  152MOL0     O19940   3.677   9.582   2.483  0.0773 -0.3363  0.6500
  152MOL0     C19941   3.659   9.565   2.620  0.1480  0.1027  0.6622
  152MOL0     C19942   3.778   9.484   2.677  0.1842 -0.4191  0.2245
  152MOL0     C19943   3.793   9.335   2.623  0.0443 -0.6189 -0.0759
  152MOL0     C19944   3.897   9.253   2.708  0.8380  0.3464  0.5017
  152MOL0     C19945   3.849   9.106   2.709  0.6850  0.6587 -0.3318
  152MOL0     C19946   3.942   9.029   2.795 -0.3691 -0.2767 -0.2680
  152MOL0     C19947   4.079   8.996   2.739 -0.7247 -0.5484 -1.3321
  152MOL0     C19948   4.061   8.914   2.614  0.7823  0.0919 -0.3869
  152MOL0     N19949   4.005   8.776   2.639 -0.0079 -0.0029 -0.0688
  152MOL0     C19950   4.088   8.682   2.695 -0.0738  0.3839 -0.4141
  152MOL0     C19951   4.010   8.566   2.699  0.1265  1.1412  0.2417
  152MOL0     C19952   4.048   8.429   2.754  0.2950 -0.0433 -0.2009
  152MOL0     C19953   4.102   8.336   2.649 -0.5930 -0.3322 -0.0574
  152MOL0     C19954   4.125   8.199   2.713 -0.0267 -0.0448 -0.2207
  152MOL0     C19955   4.108   8.085   2.615 -0.5768 -0.0241  0.3533
  152MOL0     O19956   4.223   8.100   2.527 -0.0494  0.1302  0.1435
  152MOL0     C19957   4.246   8.027   2.411 -0.3512 -0.3076  0.6083
  152MOL0     C19958   4.143   7.957   2.338  0.0220  0.0138  0.9678
  152MOL0     C19959   4.175   7.887   2.218 -1.2231  0.0963 -0.6611
  152MOL0     C19960   4.306   7.897   2.160  0.6577 -0.2695  0.5815
  152MOL0     C19961   4.340   7.811   2.033  0.0018  0.1706 -0.2278
  152MOL0     O19962   4.240   7.787   1.949 -0.3635  0.0416  0.1767
  152MOL0     C19963   4.247   7.729   1.825  0.5880  0.4687 -0.5538
  152MOL0     C19964   4.135   7.742   1.747 -0.3879 -0.2461 -0.7961
  152MOL0     C19965   4.120   7.685   1.620  0.6396  0.3833  0.1810
  152MOL0     C19966   4.233   7.613   1.557  0.5842  0.2609 -1.3969
  152MOL0     O19967   4.210   7.551   1.436 -0.4074  0.7762 -0.1473
  152MOL0     C19968   4.288   7.610   1.323 -0.0539  0.1908  0.6848
  152MOL0     C19969   4.421   7.529   1.295  0.7058  0.5195  0.1610
  152MOL0     C19970   4.414   7.384   1.263 -0.7382  0.3977  0.0441
  152MOL0     C19971   4.386   7.363   1.108  0.4486  0.3717  0.4022
  152MOL0     C19972   4.428   7.224   1.055  0.2426  0.0255  0.4968
  152MOL0     C19973   4.324   7.115   1.073  0.6663 -0.4811  1.1159
  152MOL0     C19974   4.199   7.149   0.986  0.2897 -0.4381  0.2959
  152MOL0     C19975   4.115   7.026   0.933 -0.6585  0.2309 -0.9430
  152MOL0    Cl19976   4.039   6.943   1.064 -0.1967  0.0544 -0.3169
  152MOL0     C19977   4.343   7.599   1.639 -0.0423  0.9666 -0.0008
  152MOL0     C19978   4.353   7.645   1.773  0.7253  0.4459 -0.7558
  152MOL0     O19979   4.452   7.768   2.019 -1.1594 -0.9091  0.5608
  152MOL0     C19980   4.407   7.969   2.224  0.9487  0.1921 -1.0677
  152MOL0     C19981   4.372   8.036   2.344  0.0798 -0.4934 -0.7122
  152MOL0     N19982   3.892   8.599   2.640  0.3069 -0.7430  0.3934
  152MOL0     N19983   3.874   8.729   2.629  0.4488 -0.2481 -0.1407
  152MOL0     C19984   3.456   9.687   2.468  1.1607  0.0487  0.0322
  152MOL0     C19985   3.357   9.763   2.397  0.3659 -0.7727 -0.6131
  152MOL0     C19986   3.178   9.846   1.968  0.5987 -0.5016 -0.3691
  152MOL0     C19987   3.184   9.985   1.939 -0.4291 -0.2528 -1.0865
  152MOL0     C19988   3.111  10.039   1.836  0.6243 -0.3571  0.0056
  152MOL0     C19989   3.016   9.969   1.758 -0.4984 -0.3751  0.0477
  152MOL0     O19990   2.955  10.037   1.657  0.7341  0.2608  0.7637
  152MOL0     C19991   2.882   9.940   1.576  0.7672 -0.2188 -0.8198
  152MOL0     C19992   2.827  10.019   1.454 -0.5739 -0.1134 -0.5019
  152MOL0     C19993   2.725  10.131   1.481  0.3983  0.2949  0.3737
  152MOL0     C19994   2.610  10.097   1.572 -0.2813  0.4865  0.0040
  152MOL0     C19995   2.531  10.212   1.608  0.3897  0.7308  0.0224
  152MOL0     C19996   2.477  10.314   1.652 -0.1176  0.4194 -1.0524
  152MOL0     C19997   3.014   9.839   1.794  0.6107  1.4168  1.1146
  152MOL0     C19998   3.080   9.779   1.893 -1.4286 -0.3502 -0.0070
  152MOL0     H19999   3.520   9.758   2.096 -0.5609  0.9210 -0.0318
  152MOL0     H20000   3.700   9.658   2.225 -0.1371  3.0964 -1.5171
  152MOL0     H20001   3.575   9.501   2.647 -1.5256  1.1068 -1.8032
  152MOL0     H20002   3.647   9.664   2.664 -1.7649  1.6505 -2.9009
  152MOL0     H20003   3.751   9.474   2.783  0.3142  0.0526  0.3036
  152MOL0     H20004   3.875   9.534   2.665 -1.0112  1.4611 -2.6582
  152MOL0     H20005   3.825   9.326   2.519 -2.3288  0.5690 -0.9986
  152MOL0     H20006   3.695   9.290   2.636  0.9493 -2.2308  1.5664
  152MOL0     H20007   3.989   9.287   2.661  0.1869  3.4630  1.2621
  152MOL0     H20008   3.905   9.296   2.809 -0.4490  1.9111 -0.0089
  152MOL0     H20009   3.844   9.071   2.605  0.0800  1.3954 -0.5640
  152MOL0     H20010   3.751   9.106   2.757  0.7749  1.0984 -0.1409
  152MOL0     H20011   3.903   8.928   2.808  2.6063 -2.5821 -5.5936
  152MOL0     H20012   3.967   9.071   2.892  0.4699  0.9682 -0.9909
  152MOL0     H20013   4.145   9.083   2.744 -3.0504  1.3188 -0.8792
  152MOL0     H20014   4.126   8.929   2.812 -1.4993 -1.4803 -1.6651
  152MOL0     H20015   4.158   8.904   2.565  0.4452  0.2918 -1.1080
  152MOL0     H20016   3.993   8.964   2.544  1.5737  0.6305 -0.7849
  152MOL0     H20017   4.189   8.710   2.724 -0.1614  2.1308 -1.6177
  152MOL0     H20018   3.966   8.377   2.805 -1.1951  0.1130 -2.3110
  152MOL0     H20019   4.130   8.451   2.822 -0.5325 -1.7753  1.4809
  152MOL0     H20020   4.186   8.394   2.610  1.2519 -0.6172  3.0968
  152MOL0     H20021   4.032   8.314   2.568  0.9736 -3.2361 -0.7648
  152MOL0     H20022   4.225   8.193   2.758 -0.8577 -2.7433  1.4744
  152MOL0     H20023   4.055   8.183   2.795 -1.0445 -1.0203 -1.2491
  152MOL0     H20024   4.007   8.077   2.574 -0.1130 -2.6953 -0.4081
  152MOL0     H20025   4.114   7.989   2.668 -0.7704 -0.0090  0.4052
  152MOL0     H20026   4.042   7.951   2.379 -0.3653  0.2111  0.0663
  152MOL0     H20027   4.104   7.821   2.168  0.3932 -0.2542 -2.6161
  152MOL0     H20028   4.049   7.774   1.805  1.3616 -1.1426  2.5819
  152MOL0     H20029   4.019   7.696   1.583  0.5493  1.1570  0.6446
  152MOL0     H20030   4.308   7.716   1.338 -0.7927  0.4343 -0.0149
  152MOL0     H20031   4.224   7.588   1.237 -0.4522  0.9321  0.7837
  152MOL0     H20032   4.484   7.531   1.385  1.5332  2.8490 -0.4100
  152MOL0     H20033   4.470   7.580   1.212 -1.0901 -1.4418 -2.2680
  152MOL0     H20034   4.347   7.335   1.334  1.1368 -0.0401  1.6129
  152MOL0     H20035   4.510   7.336   1.289 -0.1544 -0.0023 -2.5821
  152MOL0     H20036   4.283   7.388   1.082  0.5797  0.8646  0.3577
  152MOL0     H20037   4.448   7.431   1.048  2.4654  0.1702  2.1120
  152MOL0     H20038   4.515   7.187   1.110  0.7776 -0.6039 -0.7384
  152MOL0     H20039   4.444   7.235   0.948 -3.0936  2.2193  0.0720
  152MOL0     H20040   4.304   7.097   1.179 -2.1609 -0.0967  0.7153
  152MOL0     H20041   4.368   7.019   1.044 -0.6006 -1.2492  1.6449
  152MOL0     H20042   4.140   7.209   1.056  3.2377  2.1640  0.7619
  152MOL0     H20043   4.227   7.207   0.898  0.4781  1.6193  1.6408
  152MOL0     H20044   4.188   6.969   0.875  2.0746  3.6058 -1.1667
  152MOL0     H20045   4.041   7.065   0.862  0.5563 -3.1185 -4.4397
  152MOL0     H20046   4.432   7.549   1.601 -0.8232  0.1820 -0.8242
  152MOL0     H20047   4.442   7.627   1.833 -0.3187 -1.3809  0.3190
  152MOL0     H20048   4.507   7.986   2.185  0.1945  5.5240 -1.4376
  152MOL0     H20049   4.439   8.113   2.381 -1.8188  1.0843 -0.4374
  152MOL0     H20050   3.426   9.673   2.572 -0.6686  1.4020 -0.2526
  152MOL0     H20051   3.260   9.783   2.442  1.4229 -0.3965  1.5776
  152MOL0     H20052   3.244  10.054   1.997 -1.8767 -0.0757  0.2806
  152MOL0     H20053   3.127  10.142   1.808  2.9600 -0.5531  0.4181
  152MOL0     H20054   2.803   9.903   1.641 -0.6549  2.6459 -0.7719
  152MOL0     H20055   2.951   9.860   1.545  0.7238  0.5215 -2.9921
  152MOL0     H20056   2.917  10.058   1.407  0.3947 -2.6490 -0.8769
  152MOL0     H20057   2.781   9.952   1.381  1.9291  0.8676 -3.1697
  152MOL0     H20058   2.680  10.152   1.384 -2.5680 -4.4124  0.4422
  152MOL0     H20059   2.785  10.214   1.521 -0.4424  0.3462  1.5862
  152MOL0     H20060   2.547  10.018   1.529 -2.3156  1.9921  0.0660
  152MOL0     H20061   2.654  10.045   1.658  4.8264  1.1322 -1.8599
  152MOL0     H20062   2.428  10.397   1.700 -0.8420 -0.5002 -0.1574
  152MOL0     H20063   2.949   9.775   1.736  1.3917  3.2150 -2.0127
  152MOL0     H20064   3.058   9.674   1.907 -2.7328  0.1936  2.5236
  153MOL0     O20065   1.913   1.524   3.458 -0.3095  0.4088  0.9166
  153MOL0     C20066   1.837   1.586   3.527  1.0411 -0.2585  0.0630
  153MOL0     O20067   1.697   1.562   3.543  0.0034 -0.6515  0.7778
  153MOL0     C20068   1.626   1.506   3.441 -0.8228 -0.0665  0.0418
  153MOL0     C20069   1.656   1.507   3.303  0.4909  1.1381  0.0933
  153MOL0     C20070   1.566   1.447   3.212  0.3907 -0.2791 -0.5914
  153MOL0     C20071   1.445   1.384   3.263  0.7649 -0.7684 -1.2131
  153MOL0     O20072   1.340   1.354   3.182  0.4914 -0.4935 -0.0384
  153MOL0     C20073   1.367   1.331   3.042 -0.5936 -0.5425  0.5296
  153MOL0     C20074   1.254   1.229   3.008  0.3596  0.5855  0.0829
  153MOL0     C20075   1.245   1.199   2.851  0.3725  0.4885 -0.4650
  153MOL0     C20076   1.368   1.108   2.817 -0.5606 -0.1274 -0.2997
  153MOL0     C20077   1.353   1.052   2.681  1.1979  0.3755  0.0508
  153MOL0     C20078   1.485   1.018   2.603  0.1662  0.2447  0.0204
  153MOL0     C20079   1.536   0.878   2.647 -0.3976  0.2543  0.3480
  153MOL0     C20080   1.680   0.851   2.584  0.8156  0.1627  1.1565
  153MOL0     N20081   1.683   0.823   2.439 -0.3449  0.2975  0.1041
  153MOL0     C20082   1.692   0.696   2.383  0.1324 -0.1931  0.8336
  153MOL0     C20083   1.701   0.714   2.243  0.4439 -0.0257  0.1651
  153MOL0     C20084   1.727   0.622   2.130 -0.2468  0.0835 -0.2063
  153MOL0     C20085   1.601   0.621   2.030 -0.2295 -0.1885  0.1437
  153MOL0     C20086   1.645   0.607   1.877  0.0433  0.3700 -0.4006
  153MOL0     C20087   1.517   0.588   1.792 -0.1351  0.2656  0.0505
  153MOL0     O20088   1.434   0.699   1.777  0.0389  0.1152  0.3633
  153MOL0     C20089   1.448   0.795   1.676  0.7973  0.0552 -0.1572
  153MOL0     C20090   1.419   0.924   1.708 -0.7735 -0.0921  0.9835
  153MOL0     C20091   1.423   1.027   1.609  0.5349  0.0038  0.1010
  153MOL0     C20092   1.473   0.986   1.482  1.1958  0.2984  0.5091
  153MOL0     C20093   1.476   1.083   1.366 -1.3299  0.4600  0.7333
  153MOL0     O20094   1.453   1.211   1.390 -0.5388  0.0733  0.3447
  153MOL0     C20095   1.448   1.307   1.287  1.0866 -0.7727 -0.0689
  153MOL0     C20096   1.348   1.405   1.282 -0.0593 -0.3310  0.3868
  153MOL0     C20097   1.321   1.496   1.179  0.8401 -0.3521 -0.6677
  153MOL0     C20098   1.407   1.493   1.069 -0.5998  0.6705  0.4620
  153MOL0     O20099   1.394   1.560   0.951  0.2855  0.4492 -0.0758
  153MOL0     C20100   1.262   1.619   0.923  0.0028 -0.6271 -0.3245
  153MOL0     C20101   1.253   1.666   0.771 -0.2120 -0.4270 -0.0669
  153MOL0     C20102   1.149   1.772   0.743 -0.4759 -0.3303 -0.0850
  153MOL0     C20103   1.134   1.821   0.594  0.0711 -0.3112 -0.6838
  153MOL0     C20104   1.273   1.864   0.536  0.0327  0.3290 -0.5524
  153MOL0     C20105   1.251   1.905   0.399  0.0457 -0.0082  0.5967
  153MOL0     C20106   1.390   1.942   0.342 -0.4041  0.5542  0.2618
  153MOL0     C20107   1.389   2.013   0.202 -0.3009 -0.6693 -0.1970
  153MOL0    Cl20108   1.331   2.182   0.219 -0.1660 -0.0535  0.0801
  153MOL0     C20109   1.517   1.407   1.072 -0.1060 -0.2007 -0.4635
  153MOL0     C20110   1.539   1.325   1.182 -0.7215  0.0189 -1.1608
  153MOL0     O20111   1.513   1.039   1.251 -0.6471  0.3378  0.6723
  153MOL0     C20112   1.506   0.854   1.459 -0.9148  0.3204  0.1551
  153MOL0     C20113   1.489   0.758   1.557  0.8554  0.1284  0.5373
  153MOL0     N20114   1.675   0.852   2.231  0.8035 -0.7161  0.0360
  153MOL0     N20115   1.671   0.923   2.343 -0.8097  0.1212  0.5020
  153MOL0     C20116   1.420   1.382   3.395  0.1839 -0.9503 -0.5087
  153MOL0     C20117   1.511   1.439   3.484 -0.3607 -0.4239  0.2131
  153MOL0     C20118   1.893   1.682   3.616 -0.4900 -0.2183  0.4734
  153MOL0     C20119   2.030   1.715   3.604  0.9979  0.1706  0.6138
  153MOL0     C20120   2.083   1.808   3.696  0.3400 -0.2613 -0.5425
  153MOL0     C20121   2.005   1.866   3.798  0.1861 -0.6057  0.9769
  153MOL0     O20122   2.079   1.947   3.884  0.3253  0.3075  0.2810
  153MOL0     C20123   2.020   2.081   3.907 -0.5825 -0.3705  0.0212
  153MOL0     C20124   2.045   2.173   3.788 -0.0231 -0.4285 -0.5160
  153MOL0     C20125   2.194   2.217   3.786  0.5273  0.6521 -1.0384
  153MOL0     C20126   2.220   2.344   3.871 -0.3793 -0.0438  0.1664
  153MOL0     C20127   2.364   2.346   3.881 -0.6932  0.1293  0.0013
  153MOL0     C20128   2.485   2.359   3.900  0.3492  0.8665 -1.0792
  153MOL0     C20129   1.860   1.852   3.790  0.5758 -0.5008  0.4662
  153MOL0     C20130   1.809   1.750   3.706  0.0789 -0.3759  0.4317
  153MOL0     H20131   1.745   1.555   3.264  1.2822 -1.4050 -1.4871
  153MOL0     H20132   1.594   1.444   3.108  2.3346  1.7865 -0.2022
  153MOL0     H20133   1.464   1.285   3.021 -0.4816 -0.6270  1.1975
  153MOL0     H20134   1.362   1.419   2.977 -1.4145 -0.4713  0.6720
  153MOL0     H20135   1.159   1.256   3.053  0.3143 -1.7700  1.5598
  153MOL0     H20136   1.281   1.136   3.059  3.0808  1.4741  0.4217
  153MOL0     H20137   1.241   1.293   2.796  2.4060  0.2011 -1.2063
  153MOL0     H20138   1.160   1.137   2.820  0.0343  1.7974 -2.3229
  153MOL0     H20139   1.457   1.172   2.814 -1.9883  1.9279 -1.2366
  153MOL0     H20140   1.383   1.032   2.895 -0.6745  1.0491  0.9135
  153MOL0     H20141   1.312   1.135   2.622 -1.8719  0.8546  2.5579
  153MOL0     H20142   1.281   0.970   2.682 -0.7797  2.0026 -0.7654
  153MOL0     H20143   1.565   1.092   2.616 -0.9683  1.7396 -1.1876
  153MOL0     H20144   1.471   0.989   2.498 -2.8414 -1.1915  0.7346
  153MOL0     H20145   1.552   0.876   2.755 -2.4455  0.7170  0.7006
  153MOL0     H20146   1.466   0.802   2.612  1.9976 -1.3340 -1.2939
  153MOL0     H20147   1.714   0.760   2.634 -1.0532 -0.5269  1.2319
  153MOL0     H20148   1.746   0.936   2.601  2.9524 -1.3718  0.9092
  153MOL0     H20149   1.699   0.601   2.435 -0.9704 -1.1256 -0.6056
  153MOL0     H20150   1.734   0.514   2.148  2.7967  0.2130 -0.0401
  153MOL0     H20151   1.824   0.644   2.084  0.0454  1.1374  0.8640
  153MOL0     H20152   1.538   0.709   2.044 -1.4379 -0.9985 -0.0486
  153MOL0     H20153   1.542   0.534   2.061  0.7067 -0.6418  0.7066
  153MOL0     H20154   1.689   0.699   1.836 -0.2791  0.3956 -0.6952
  153MOL0     H20155   1.704   0.519   1.852 -1.3611 -0.5904 -0.4482
  153MOL0     H20156   1.462   0.502   1.830 -1.1587  1.9877  2.7396
  153MOL0     H20157   1.569   0.563   1.699  0.9332  0.8908  0.4623
  153MOL0     H20158   1.387   0.935   1.811 -1.0734  2.3106  0.6801
  153MOL0     H20159   1.386   1.124   1.641  0.7331 -0.5347  2.0742
  153MOL0     H20160   1.272   1.402   1.359 -0.9710 -2.3005 -0.5166
  153MOL0     H20161   1.233   1.557   1.193  1.7778  0.7184  0.9471
  153MOL0     H20162   1.252   1.714   0.976 -3.0134  1.4106 -4.0256
  153MOL0     H20163   1.175   1.560   0.955  0.3860 -0.9570  0.1254
  153MOL0     H20164   1.228   1.575   0.714 -1.2128  0.2938 -0.8198
  153MOL0     H20165   1.352   1.695   0.734 -0.4099 -1.0054 -1.1105
  153MOL0     H20166   1.185   1.862   0.794 -0.1116  1.1236 -2.7269
  153MOL0     H20167   1.049   1.744   0.776  0.0228 -1.5112  0.4740
  153MOL0     H20168   1.094   1.735   0.540 -1.9688 -0.5378  1.0885
  153MOL0     H20169   1.060   1.900   0.582  4.7193  4.4219 -2.3735
  153MOL0     H20170   1.341   1.778   0.541 -3.3783 -2.5840  2.9874
  153MOL0     H20171   1.310   1.941   0.604 -2.0937 -0.6999  1.9708
  153MOL0     H20172   1.185   1.992   0.388 -0.8714 -0.6469  0.9266
  153MOL0     H20173   1.209   1.824   0.340  1.1961  0.0132 -0.2875
  153MOL0     H20174   1.461   2.003   0.399  2.6881  1.5653 -4.2026
  153MOL0     H20175   1.442   1.847   0.330  1.5921  1.7968 -1.7040
  153MOL0     H20176   1.322   1.953   0.139  0.2998 -2.0824  0.4580
  153MOL0     H20177   1.481   2.028   0.145  0.6281  1.1202  1.6503
  153MOL0     H20178   1.572   1.396   0.979  0.9082 -3.5280  0.4124
  153MOL0     H20179   1.603   1.240   1.161  1.3471  0.9783  0.7647
  153MOL0     H20180   1.532   0.819   1.359  0.0983  1.1136  0.1161
  153MOL0     H20181   1.483   0.651   1.537  0.0041  0.1788  0.5126
  153MOL0     H20182   1.324   1.344   3.428  0.2254  0.4537  1.3925
  153MOL0     H20183   1.499   1.432   3.592  1.1105 -0.2970  0.4116
  153MOL0     H20184   2.091   1.674   3.525 -1.9160  2.0677 -2.9283
  153MOL0     H20185   2.190   1.819   3.693  0.1224  2.3501 -2.5130
  153MOL0     H20186   2.065   2.118   4.000  1.4708 -1.3949 -0.5147
  153MOL0     H20187   1.914   2.066   3.932  0.3722 -2.1281  3.6914
  153MOL0     H20188   2.017   2.123   3.695 -1.7597 -1.7143  0.6313
  153MOL0     H20189   1.982   2.262   3.797 -0.2982 -0.5552 -1.1044
  153MOL0     H20190   2.215   2.241   3.682 -2.0544  0.2467 -1.7350
  153MOL0     H20191   2.251   2.128   3.815 -2.1173 -2.6087 -4.7967
  153MOL0     H20192   2.168   2.423   3.816  2.9806  0.6884 -2.2052
  153MOL0     H20193   2.162   2.338   3.964  1.4242 -2.2500  1.2319
  153MOL0     H20194   2.587   2.376   3.927 -0.3689  1.8535  1.3210
  153MOL0     H20195   1.793   1.902   3.858 -0.8084 -2.0801  0.3259
  153MOL0     H20196   1.700   1.744   3.704 -0.0993  1.5939 -2.5579
  154MOL0     O20197   5.047   4.460   7.303 -0.7173 -0.3959 -0.2481
  154MOL0     C20198   5.116   4.393   7.221  0.8640  0.4403 -0.7050
  154MOL0     O20199   5.238   4.421   7.183  0.0111  0.6613 -0.4532
  154MOL0     C20200   5.294   4.529   7.246  0.4901 -0.3705 -0.0342
  154MOL0     C20201   5.282   4.656   7.195 -0.5601 -0.1086  0.1835
  154MOL0     C20202   5.334   4.762   7.256 -0.2122  0.7479 -0.1066
  154MOL0     C20203   5.379   4.750   7.386  0.2064  0.5715 -0.6253
  154MOL0     O20204   5.405   4.874   7.455 -0.1945  0.2115  0.2425
  154MOL0     C20205   5.445   4.858   7.588  0.7076 -0.5368 -0.2438
  154MOL0     C20206   5.478   4.992   7.660  0.4420  0.3874 -0.0114
  154MOL0     C20207   5.545   4.968   7.798  1.3163  0.7103  0.1400
  154MOL0     C20208   5.541   5.100   7.873 -0.2028  0.2370 -0.2764
  154MOL0     C20209   5.602   5.091   8.017  0.5597  0.3353  0.7738
  154MOL0     C20210   5.627   5.231   8.085  0.1918  0.1610  0.5498
  154MOL0     C20211   5.698   5.205   8.223  0.7034  0.4649  0.4623
  154MOL0     C20212   5.700   5.341   8.283  0.2295 -0.3274  0.3355
  154MOL0     N20213   5.791   5.436   8.217 -0.2949 -1.0981  0.8471
  154MOL0     C20214   5.926   5.435   8.222  0.7995 -0.0328 -0.4500
  154MOL0     C20215   5.966   5.543   8.141  0.2451  0.6664 -0.5965
  154MOL0     C20216   6.110   5.551   8.102  0.8212  0.6181  0.0296
  154MOL0     C20217   6.134   5.542   7.950  0.2453  0.0213  0.3281
  154MOL0     C20218   6.103   5.406   7.892 -0.7471  0.0313  1.5940
  154MOL0     C20219   6.215   5.310   7.927 -0.1071  0.5653  0.9325
  154MOL0     O20220   6.246   5.222   7.819  0.1836  0.0494  0.1009
  154MOL0     C20221   6.174   5.104   7.788 -0.2579 -0.4219 -0.2160
  154MOL0     C20222   6.053   5.067   7.844 -0.7991 -0.4536  0.3693
  154MOL0     C20223   5.972   4.964   7.796 -0.0597  0.2119 -0.1187
  154MOL0     C20224   6.019   4.886   7.686  0.4929 -0.2912  0.0599
  154MOL0     C20225   5.934   4.784   7.624  0.3901  1.1932 -0.1362
  154MOL0     O20226   5.995   4.666   7.585  0.0161 -0.4713 -0.6446
  154MOL0     C20227   5.908   4.566   7.543  0.1805  0.8137 -0.0101
  154MOL0     C20228   5.821   4.501   7.635  0.0910  0.7581  0.6633
  154MOL0     C20229   5.730   4.404   7.593  0.3288 -0.2990 -0.7926
  154MOL0     C20230   5.731   4.368   7.463  0.2461 -0.9688  0.6610
  154MOL0     O20231   5.648   4.273   7.421  0.4875  0.1447  0.1125
  154MOL0     C20232   5.650   4.220   7.286  0.1918 -0.5439  0.0777
  154MOL0     C20233   5.553   4.092   7.279 -0.1371 -0.3538  0.3391
  154MOL0     C20234   5.440   4.107   7.373 -0.7904 -0.0705 -0.4073
  154MOL0     C20235   5.334   3.990   7.354  0.0149 -1.1537  0.7889
  154MOL0     C20236   5.399   3.858   7.390 -0.7152  0.7736  0.0097
  154MOL0     C20237   5.285   3.748   7.387 -0.1119  0.1861 -0.0105
  154MOL0     C20238   5.324   3.623   7.457  0.2061  0.8680  0.5008
  154MOL0     C20239   5.432   3.546   7.390  0.2388  0.8245  1.2615
  154MOL0    Cl20240   5.457   3.390   7.478  0.0350 -0.4468  0.2399
  154MOL0     C20241   5.822   4.430   7.369  0.8056 -0.1531  0.0163
  154MOL0     C20242   5.905   4.523   7.412 -0.1636  0.0575 -0.1271
  154MOL0     O20243   5.817   4.813   7.602  0.3994 -0.0100 -0.2340
  154MOL0     C20244   6.142   4.917   7.634 -0.9157  0.0488 -0.1307
  154MOL0     C20245   6.213   5.025   7.681  0.1820  0.1409 -0.3409
  154MOL0     N20246   5.860   5.610   8.100 -0.0949  0.2115  0.3495
  154MOL0     N20247   5.760   5.556   8.158  0.7944  0.7240 -0.3316
  154MOL0     C20248   5.397   4.626   7.446 -0.5870 -0.6303  0.5016
  154MOL0     C20249   5.349   4.516   7.372 -0.2400  0.2785 -1.1040
  154MOL0     C20250   5.056   4.268   7.161 -0.2973  0.2602  0.9726
  154MOL0     C20251   4.915   4.250   7.165 -0.3294  0.4968  0.5711
  154MOL0     C20252   4.861   4.138   7.112 -0.5707 -0.0605  0.7532
  154MOL0     C20253   4.941   4.048   7.037 -0.2912  0.6623  0.2047
  154MOL0     O20254   4.868   3.950   6.977 -0.5203 -0.7133 -0.0238
  154MOL0     C20255   4.927   3.881   6.869  0.2301 -0.0696  0.5234
  154MOL0     C20256   4.809   3.822   6.791 -0.4175  0.8756 -0.0134
  154MOL0     C20257   4.731   3.723   6.877 -0.5210  1.0725  0.3571
  154MOL0     C20258   4.617   3.661   6.801 -0.5522  1.3615  0.6105
  154MOL0     C20259   4.672   3.574   6.696  0.0516 -1.1952 -0.4081
  154MOL0     C20260   4.742   3.497   6.627 -0.5339  0.3995  0.2476
  154MOL0     C20261   5.080   4.071   7.026 -0.0134  0.6134 -0.0397
  154MOL0     C20262   5.137   4.180   7.083 -0.2848  0.2153 -0.0802
  154MOL0     H20263   5.238   4.657   7.096  0.4597 -0.0349 -0.2785
  154MOL0     H20264   5.328   4.854   7.198 -1.6994  1.2050  0.7199
  154MOL0     H20265   5.536   4.797   7.596 -0.5866 -2.4595  0.7116
  154MOL0     H20266   5.366   4.801   7.638  1.3928  0.2984  1.8814
  154MOL0     H20267   5.378   5.032   7.676 -1.1372 -2.2797 -2.3158
  154MOL0     H20268   5.540   5.051   7.592  0.0635 -2.0932 -2.6921
  154MOL0     H20269   5.648   4.940   7.773  0.0012 -1.8191 -3.2755
  154MOL0     H20270   5.496   4.895   7.863  0.5167 -0.0041 -1.1990
  154MOL0     H20271   5.598   5.176   7.819 -3.0361  1.4580 -1.7333
  154MOL0     H20272   5.439   5.137   7.870 -0.2570  0.3532  1.6992
  154MOL0     H20273   5.702   5.048   8.021  1.0425  1.4331  0.9716
  154MOL0     H20274   5.550   5.007   8.064  1.2020 -2.2300 -2.6637
  154MOL0     H20275   5.530   5.280   8.099 -0.2913 -0.7892  0.6255
  154MOL0     H20276   5.688   5.285   8.013 -0.9462 -1.2970 -1.6106
  154MOL0     H20277   5.657   5.123   8.281  1.0033 -0.1855 -0.2175
  154MOL0     H20278   5.801   5.173   8.205  0.6320 -1.6702  3.1827
  154MOL0     H20279   5.727   5.328   8.388 -0.4213 -3.4046  0.2457
  154MOL0     H20280   5.598   5.380   8.284 -0.9223 -3.0632 -0.2021
  154MOL0     H20281   5.979   5.356   8.274 -1.1211 -0.9297  0.2478
  154MOL0     H20282   6.164   5.478   8.163 -1.2610  1.0010  2.4660
  154MOL0     H20283   6.148   5.647   8.137  1.3630  0.6603 -0.6510
  154MOL0     H20284   6.238   5.572   7.933  0.9535 -0.6819  2.9024
  154MOL0     H20285   6.078   5.622   7.901  0.4774 -0.2135 -0.3381
  154MOL0     H20286   6.006   5.369   7.928 -0.7823 -1.1323  0.3735
  154MOL0     H20287   6.095   5.423   7.784 -2.4986 -1.8866  1.3608
  154MOL0     H20288   6.185   5.253   8.016  3.5008  1.9486  3.2384
  154MOL0     H20289   6.305   5.359   7.966 -0.1073 -0.0776  1.7822
  154MOL0     H20290   6.016   5.122   7.930 -0.3342 -0.2984  0.4731
  154MOL0     H20291   5.871   4.950   7.833 -2.1747 -0.8569 -5.3964
  154MOL0     H20292   5.823   4.526   7.741 -1.5335  1.6311  0.5245
  154MOL0     H20293   5.666   4.354   7.665 -1.2933 -2.8567 -3.7777
  154MOL0     H20294   5.749   4.188   7.250 -1.6336 -3.7175 -2.7158
  154MOL0     H20295   5.614   4.295   7.215 -0.0504  2.0956  2.7737
  154MOL0     H20296   5.604   4.000   7.310  0.0378 -1.2901 -2.4269
  154MOL0     H20297   5.535   4.067   7.174 -0.0882  0.7919  0.0523
  154MOL0     H20298   5.392   4.205   7.368  2.3394  1.6882  0.9962
  154MOL0     H20299   5.478   4.103   7.475 -0.1541  2.6315 -0.4566
  154MOL0     H20300   5.240   4.020   7.402 -0.7931 -0.3605 -1.1410
  154MOL0     H20301   5.317   3.997   7.246  0.9941 -0.1252  0.6865
  154MOL0     H20302   5.439   3.865   7.491 -3.7484 -3.3279  1.8280
  154MOL0     H20303   5.477   3.825   7.321 -2.6461 -1.1437 -1.4247
  154MOL0     H20304   5.259   3.728   7.283 -2.9029  0.7535  0.4907
  154MOL0     H20305   5.206   3.802   7.441 -0.1577  0.5954 -0.4804
  154MOL0     H20306   5.348   3.657   7.558 -2.7647  1.9459  0.9470
  154MOL0     H20307   5.238   3.557   7.467  1.6566 -1.9437 -3.2391
  154MOL0     H20308   5.528   3.599   7.391  2.3423 -2.6914  0.7357
  154MOL0     H20309   5.405   3.511   7.290  2.1098 -2.5718  1.8067
  154MOL0     H20310   5.793   4.417   7.265 -1.4791  0.7558  0.4672
  154MOL0     H20311   5.973   4.564   7.338 -1.3613 -0.0100 -1.3047
  154MOL0     H20312   6.181   4.875   7.542 -0.0738  1.7664 -0.5957
  154MOL0     H20313   6.308   5.058   7.638 -0.3833  3.1481  0.4671
  154MOL0     H20314   5.431   4.616   7.549 -0.0708 -0.8079  0.3135
  154MOL0     H20315   5.343   4.417   7.417  0.3271  0.7144 -0.0588
  154MOL0     H20316   4.857   4.326   7.216 -0.5363  0.1855  0.8010
  154MOL0     H20317   4.754   4.117   7.115 -0.3248 -2.0593 -1.2644
  154MOL0     H20318   4.981   3.794   6.906 -0.9011 -0.7809  0.5337
  154MOL0     H20319   4.984   3.948   6.804 -1.0144  2.2855  1.7258
  154MOL0     H20320   4.750   3.907   6.756  2.0529  3.1067  0.9163
  154MOL0     H20321   4.837   3.764   6.703  0.2011  0.7241  0.2796
  154MOL0     H20322   4.708   3.770   6.973  0.2607  0.2448  0.9665
  154MOL0     H20323   4.788   3.633   6.902  0.1891  1.2292 -0.6707
  154MOL0     H20324   4.548   3.615   6.872 -1.5873  3.1067  0.8080
  154MOL0     H20325   4.571   3.742   6.743  2.3763  1.8800 -1.1954
  154MOL0     H20326   4.814   3.435   6.578  0.3123  2.7218 -1.6003
  154MOL0     H20327   5.146   3.996   6.983 -0.4639 -2.8418  4.4636
  154MOL0     H20328   5.245   4.192   7.075  0.1433 -2.4341  0.7959
  155MOL0     O20329   1.213   5.352   2.971 -0.1141  0.3028  0.3543
  155MOL0     C20330   1.238   5.260   3.056 -0.4807 -0.6500 -0.4099
  155MOL0     O20331   1.312   5.153   3.028  0.3154  0.3602 -0.6580
  155MOL0     C20332   1.367   5.128   2.912 -0.7248 -0.0304 -0.7048
  155MOL0     C20333   1.437   5.217   2.833 -1.7245  0.7807 -0.8956
  155MOL0     C20334   1.479   5.170   2.707 -0.2255  0.5193 -0.3177
  155MOL0     C20335   1.451   5.034   2.659  0.6085 -0.7446  0.6259
  155MOL0     O20336   1.492   4.985   2.543  0.0792  0.0111 -0.0311
  155MOL0     C20337   1.620   4.929   2.525  0.1222  0.7837 -0.3679
  155MOL0     C20338   1.643   4.928   2.377 -0.2437  0.0882  0.5158
  155MOL0     C20339   1.734   4.802   2.333  0.0373  0.0746 -0.2457
  155MOL0     C20340   1.780   4.814   2.192  0.6098 -1.1184  0.0126
  155MOL0     C20341   1.877   4.702   2.155 -0.0060  0.4307 -0.2413
  155MOL0     C20342   1.911   4.691   2.005  0.2786 -0.8612  0.2044
  155MOL0     C20343   1.786   4.671   1.912  0.2232 -0.1987 -0.2773
  155MOL0     C20344   1.747   4.520   1.886  0.0402 -0.4052  0.2500
  155MOL0     N20345   1.852   4.429   1.842 -0.2385 -0.2653  0.6225
  155MOL0     C20346   1.953   4.447   1.746  0.0616  0.4013  0.3948
  155MOL0     C20347   2.015   4.330   1.741  0.4086  0.1965  0.1425
  155MOL0     C20348   2.125   4.298   1.645  0.1073  0.0861  0.8755
  155MOL0     C20349   2.260   4.289   1.720 -0.7151 -0.2473 -0.3043
  155MOL0     C20350   2.293   4.142   1.763  1.2400  0.8859  0.3006
  155MOL0     C20351   2.323   4.052   1.636  0.3393  0.5438 -0.1830
  155MOL0     O20352   2.373   3.919   1.675 -0.1181  0.1231  0.1241
  155MOL0     C20353   2.360   3.817   1.582  0.3639  0.2362  0.3075
  155MOL0     C20354   2.340   3.828   1.446 -0.2995 -0.7552  0.4680
  155MOL0     C20355   2.343   3.716   1.363 -0.7190 -0.1639 -0.0513
  155MOL0     C20356   2.388   3.587   1.409 -0.1365 -0.1790  0.4974
  155MOL0     C20357   2.402   3.477   1.312  1.0932 -0.0217  0.6166
  155MOL0     O20358   2.356   3.499   1.182 -0.4332  0.3290 -0.0918
  155MOL0     C20359   2.368   3.399   1.088 -0.5235 -1.0507 -1.4676
  155MOL0     C20360   2.487   3.384   1.013  0.5882 -0.2833  0.4386
  155MOL0     C20361   2.509   3.284   0.915 -0.0136 -0.7308  0.2781
  155MOL0     C20362   2.395   3.212   0.876  1.1827  0.3368 -0.1653
  155MOL0     O20363   2.382   3.121   0.783  0.4669 -0.2233  0.4282
  155MOL0     C20364   2.463   3.137   0.664  0.6278  0.0674 -0.6758
  155MOL0     C20365   2.430   3.015   0.576  0.3229  0.4117 -0.3789
  155MOL0     C20366   2.298   2.943   0.602 -0.2559 -0.6085  0.4410
  155MOL0     C20367   2.269   2.842   0.485 -0.7712 -0.4037 -0.0457
  155MOL0     C20368   2.170   2.899   0.379  0.2444  0.0705 -0.0102
  155MOL0     C20369   2.114   2.790   0.298 -0.0144  0.6882 -0.2044
  155MOL0     C20370   2.051   2.839   0.169 -0.4775 -0.5193 -0.3092
  155MOL0     C20371   1.910   2.893   0.195 -0.4240  0.1622 -0.1290
  155MOL0    Cl20372   1.877   3.021   0.298 -0.2506  0.5233  0.1425
  155MOL0     C20373   2.274   3.235   0.949 -0.3162  0.1770  0.1100
  155MOL0     C20374   2.259   3.329   1.042  0.6802 -0.2989  0.1970
  155MOL0     O20375   2.438   3.366   1.359 -1.1766 -0.1348  0.5343
  155MOL0     C20376   2.411   3.577   1.544 -0.6748 -0.3324  0.2180
  155MOL0     C20377   2.398   3.690   1.628  0.7290  0.5932 -0.0721
  155MOL0     N20378   1.967   4.259   1.842 -0.4612  0.1018 -0.6189
  155MOL0     N20379   1.857   4.301   1.887 -0.5302  0.0849  0.2549
  155MOL0     C20380   1.385   4.952   2.742 -0.2024 -0.2997  0.3236
  155MOL0     C20381   1.347   4.997   2.871 -0.6746  0.3440  0.6544
  155MOL0     C20382   1.180   5.267   3.186  0.8717 -0.9826 -0.5090
  155MOL0     C20383   1.078   5.367   3.217 -0.7908  0.3210 -0.6925
  155MOL0     C20384   1.019   5.376   3.346 -0.2848  1.1476 -0.1370
  155MOL0     C20385   1.048   5.276   3.441  0.3981  1.0164 -0.6829
  155MOL0     O20386   0.995   5.281   3.567 -0.2736 -0.5154 -0.1390
  155MOL0     C20387   0.954   5.163   3.631 -0.0900  0.1336 -0.0762
  155MOL0     C20388   0.848   5.167   3.745 -0.1268  0.3355 -0.3912
  155MOL0     C20389   0.823   5.041   3.825 -0.3078  0.3523  0.5486
  155MOL0     C20390   0.706   5.043   3.926  0.5361  0.1039 -0.5658
  155MOL0     C20391   0.723   5.138   4.029 -0.1032  0.9838 -0.1642
  155MOL0     C20392   0.735   5.185   4.137  0.3319 -0.1317 -0.5236
  155MOL0     C20393   1.140   5.176   3.412  0.4558 -0.3294 -0.1165
  155MOL0     C20394   1.198   5.167   3.287 -0.2071  0.1303 -0.2859
  155MOL0     H20395   1.452   5.312   2.883 -2.3588  0.3635  0.1140
  155MOL0     H20396   1.552   5.228   2.650 -1.2193  0.9575 -1.1888
  155MOL0     H20397   1.624   4.827   2.562 -0.0214  0.8054 -0.2914
  155MOL0     H20398   1.691   4.985   2.586  1.8270 -0.2088 -1.3617
  155MOL0     H20399   1.703   5.018   2.357  4.0194 -2.3183  1.1122
  155MOL0     H20400   1.552   4.918   2.318  1.6948 -0.5134 -2.6351
  155MOL0     H20401   1.682   4.705   2.340  0.9583 -0.6406 -2.3883
  155MOL0     H20402   1.822   4.812   2.398  0.1554  2.6237 -0.7063
  155MOL0     H20403   1.693   4.821   2.126  1.5817 -0.2519 -1.2190
  155MOL0     H20404   1.834   4.909   2.185  1.4595 -1.4732  1.2867
  155MOL0     H20405   1.819   4.613   2.183  0.6181 -0.1079 -0.6339
  155MOL0     H20406   1.974   4.700   2.206 -0.6090 -0.9462  0.9390
  155MOL0     H20407   1.993   4.623   1.980 -0.1989 -1.5758  0.5387
  155MOL0     H20408   1.944   4.795   1.996 -0.3248 -0.6965 -0.1137
  155MOL0     H20409   1.697   4.724   1.948  1.5066  1.7683  0.1690
  155MOL0     H20410   1.807   4.710   1.812 -0.4131 -0.0720 -0.3623
  155MOL0     H20411   1.666   4.508   1.814 -0.5511 -1.3373  1.0503
  155MOL0     H20412   1.704   4.498   1.984  0.3017 -0.5774  0.3287
  155MOL0     H20413   1.979   4.536   1.690 -0.2163  2.1842  2.9266
  155MOL0     H20414   2.122   4.394   1.592  0.7069  1.3399  2.9613
  155MOL0     H20415   2.114   4.211   1.580  0.2907  0.7311 -0.0375
  155MOL0     H20416   2.271   4.354   1.808  5.5424  3.1136 -2.9281
  155MOL0     H20417   2.333   4.340   1.657 -2.6526  0.8156 -1.8018
  155MOL0     H20418   2.383   4.149   1.826  1.6374 -1.2728  0.0481
  155MOL0     H20419   2.217   4.100   1.829  0.4864 -1.7292 -2.0664
  155MOL0     H20420   2.397   4.110   1.580  0.9568  0.9349  1.0002
  155MOL0     H20421   2.230   4.039   1.580 -1.1311 -0.4447  2.3502
  155MOL0     H20422   2.325   3.926   1.403  1.3327 -0.5413  0.3414
  155MOL0     H20423   2.350   3.736   1.257 -0.7334 -0.2974 -0.0763
  155MOL0     H20424   2.580   3.436   1.033  0.7991  0.0964 -1.4119
  155MOL0     H20425   2.602   3.259   0.863  1.0223  1.2373  1.0787
  155MOL0     H20426   2.569   3.150   0.686 -0.2339  1.3235  3.6789
  155MOL0     H20427   2.425   3.229   0.619 -2.6340 -0.5310  0.5811
  155MOL0     H20428   2.510   2.947   0.606  2.3243  4.1126  3.8526
  155MOL0     H20429   2.450   3.052   0.475 -3.6491  2.6259 -0.5378
  155MOL0     H20430   2.220   3.018   0.619  2.1091  1.7439  1.4164
  155MOL0     H20431   2.296   2.879   0.691  0.5961  2.7092  3.0395
  155MOL0     H20432   2.363   2.810   0.438 -2.0097 -1.1054 -2.1775
  155MOL0     H20433   2.214   2.757   0.527 -0.9545 -1.1567 -1.7386
  155MOL0     H20434   2.217   2.969   0.309 -3.0230  0.1353 -2.4091
  155MOL0     H20435   2.083   2.946   0.425  0.3904 -2.5313  3.2849
  155MOL0     H20436   2.043   2.724   0.349  0.5923  0.8590  0.9054
  155MOL0     H20437   2.196   2.722   0.273  1.1085  1.6687  0.6559
  155MOL0     H20438   2.110   2.922   0.130 -0.3890 -0.6752 -0.5104
  155MOL0     H20439   2.050   2.756   0.098 -0.0099 -1.4692  0.7650
  155MOL0     H20440   1.835   2.816   0.218 -0.4815  0.1374 -0.3964
  155MOL0     H20441   1.872   2.930   0.099  1.4535  0.8145 -0.6620
  155MOL0     H20442   2.192   3.174   0.912  0.4167  0.8537 -2.9299
  155MOL0     H20443   2.161   3.333   1.088  0.2601  3.9114 -0.7053
  155MOL0     H20444   2.420   3.482   1.596  0.0945  0.3765  1.4337
  155MOL0     H20445   2.436   3.676   1.729  1.2937 -3.7946 -0.6876
  155MOL0     H20446   1.342   4.857   2.713 -2.9674  0.5132  1.4511
  155MOL0     H20447   1.298   4.921   2.931  1.9004 -2.7667 -0.9029
  155MOL0     H20448   1.042   5.438   3.143 -0.6252  1.8447  0.6177
  155MOL0     H20449   0.950   5.458   3.360  0.2247  1.5698 -0.0616
  155MOL0     H20450   1.047   5.116   3.664  0.8504  2.1215  0.2878
  155MOL0     H20451   0.912   5.101   3.551 -0.3911  0.1239  0.0884
  155MOL0     H20452   0.887   5.249   3.805  0.0322 -0.0054 -0.0286
  155MOL0     H20453   0.749   5.197   3.710 -1.3917 -3.0371 -0.0064
  155MOL0     H20454   0.912   5.012   3.882 -1.4649  1.4660  3.0778
  155MOL0     H20455   0.785   4.973   3.749 -0.6481  1.2928 -0.1397
  155MOL0     H20456   0.621   5.077   3.865  1.8450 -2.1488 -3.9501
  155MOL0     H20457   0.689   4.941   3.959  2.7373  0.0975  0.7021
  155MOL0     H20458   0.728   5.232   4.233  2.7096 -1.4308  0.3842
  155MOL0     H20459   1.164   5.095   3.479 -0.5692 -1.0144 -0.5433
  155MOL0     H20460   1.273   5.095   3.257  2.2567  2.9010 -1.1298
  156MOL0     O20461   3.599   1.790   1.765 -0.3625 -0.0234 -0.0901
  156MOL0     C20462   3.694   1.722   1.719  0.2915 -0.0978 -0.2946
  156MOL0     O20463   3.678   1.633   1.623  0.2289 -0.5849  0.8342
  156MOL0     C20464   3.548   1.577   1.608 -0.2111 -0.0648  1.1220
  156MOL0     C20465   3.458   1.605   1.508 -0.1822 -0.6539  0.2624
  156MOL0     C20466   3.336   1.543   1.498  0.7835  0.1498 -0.0595
  156MOL0     C20467   3.287   1.455   1.593 -0.5902 -0.6877  0.0649
  156MOL0     O20468   3.165   1.409   1.574  0.2685  0.4026  0.8520
  156MOL0     C20469   3.137   1.261   1.568 -0.8970 -0.0510 -0.3835
  156MOL0     C20470   3.205   1.186   1.461 -0.1013  0.1800  0.5673
  156MOL0     C20471   3.153   1.235   1.318 -0.3885  0.0501  0.3571
  156MOL0     C20472   3.161   1.134   1.210 -0.9397 -1.0946 -0.5699
  156MOL0     C20473   3.054   1.154   1.098  0.2407 -0.3018  0.5621
  156MOL0     C20474   3.070   1.285   1.009  0.0903 -0.1774 -1.0807
  156MOL0     C20475   2.978   1.282   0.889  0.5473 -0.2047  0.7289
  156MOL0     C20476   2.831   1.290   0.907  0.5164 -0.3567  0.2619
  156MOL0     N20477   2.766   1.422   0.937 -0.6339 -0.2244 -0.5744
  156MOL0     C20478   2.831   1.532   0.988  0.6276 -0.4654 -0.0024
  156MOL0     C20479   2.721   1.610   1.016 -0.7001  0.2579 -0.6213
  156MOL0     C20480   2.723   1.752   1.082  0.5257 -0.2162  0.7951
  156MOL0     C20481   2.600   1.789   1.164  0.0512 -1.2395  0.1853
  156MOL0     C20482   2.608   1.716   1.295 -0.1241 -1.1500 -0.7172
  156MOL0     C20483   2.514   1.777   1.400  0.6084 -0.4863  0.2803
  156MOL0     O20484   2.405   1.675   1.417 -0.4059  0.4369  0.3726
  156MOL0     C20485   2.308   1.718   1.496  0.9820  0.3426  0.8261
  156MOL0     C20486   2.306   1.842   1.566 -0.4064 -0.7867  0.3928
  156MOL0     C20487   2.196   1.887   1.639  0.6765 -0.6891  0.1899
  156MOL0     C20488   2.101   1.789   1.667  0.5527 -0.7490 -0.5043
  156MOL0     C20489   1.996   1.819   1.770 -0.1589 -0.6606  0.7412
  156MOL0     O20490   1.908   1.719   1.807  0.2703 -0.6123  0.3351
  156MOL0     C20491   1.806   1.740   1.904  0.1057 -0.6851 -0.5354
  156MOL0     C20492   1.748   1.864   1.938 -0.6852  0.1800 -0.0171
  156MOL0     C20493   1.653   1.863   2.041  1.3728  0.0341 -0.2622
  156MOL0     C20494   1.598   1.741   2.098 -0.0363  0.1999 -0.3718
  156MOL0     O20495   1.517   1.744   2.214 -0.4936  0.0275 -0.4437
  156MOL0     C20496   1.604   1.738   2.336  0.5769  0.0436  0.4894
  156MOL0     C20497   1.547   1.852   2.424 -0.0662  0.9495  0.3064
  156MOL0     C20498   1.648   1.883   2.545  0.3966 -0.8649 -0.2424
  156MOL0     C20499   1.607   1.998   2.644 -0.5082 -0.2019  0.2196
  156MOL0     C20500   1.723   2.036   2.751 -0.4587 -0.1509 -0.1765
  156MOL0     C20501   1.818   2.145   2.688  0.7874  0.1914 -1.1857
  156MOL0     C20502   1.763   2.292   2.670  0.1398 -0.6466 -0.9680
  156MOL0     C20503   1.730   2.369   2.796 -0.6138  0.4257 -1.0013
  156MOL0    Cl20504   1.560   2.334   2.868 -0.2366  0.0446  0.4228
  156MOL0     C20505   1.641   1.613   2.053 -0.1246 -0.1282 -0.2195
  156MOL0     C20506   1.749   1.622   1.960 -0.3095  0.2819  0.1758
  156MOL0     O20507   2.008   1.925   1.828 -0.0043  0.7164  0.1775
  156MOL0     C20508   2.092   1.661   1.603 -0.5824 -0.5474  0.0385
  156MOL0     C20509   2.202   1.627   1.524  1.2844  0.4855  0.1073
  156MOL0     N20510   2.608   1.554   0.959 -0.7976 -0.1497  0.3575
  156MOL0     N20511   2.639   1.448   0.902  0.5149 -0.5401 -0.7235
  156MOL0     C20512   3.373   1.430   1.709  0.1564  0.5357  0.0065
  156MOL0     C20513   3.501   1.495   1.717 -0.6585  0.9545 -0.0312
  156MOL0     C20514   3.820   1.715   1.798 -0.5706  0.9444 -0.2607
  156MOL0     C20515   3.828   1.806   1.902  0.0015  0.6619  0.1220
  156MOL0     C20516   3.930   1.797   1.996 -0.0855  0.0332  0.1663
  156MOL0     C20517   4.030   1.706   1.977  0.5398 -0.3848  0.7386
  156MOL0     O20518   4.139   1.706   2.054  0.1917  0.2517  0.7388
  156MOL0     C20519   4.259   1.752   1.981  0.4375  0.1337  0.3924
  156MOL0     C20520   4.382   1.685   2.040 -0.4253  0.0303  0.4270
  156MOL0     C20521   4.394   1.538   1.987  0.1177 -0.2898  0.2255
  156MOL0     C20522   4.496   1.533   1.885 -0.7361 -0.3950  0.9049
  156MOL0     C20523   4.510   1.391   1.839  0.3225 -0.5814 -0.5399
  156MOL0     C20524   4.538   1.282   1.799 -0.0198 -1.1228 -0.0861
  156MOL0     C20525   4.026   1.613   1.868  0.1835 -0.6982  0.6596
  156MOL0     C20526   3.923   1.616   1.780  0.0033 -0.2894 -0.5075
  156MOL0     H20527   3.487   1.687   1.443  2.2230 -0.3201  1.6484
  156MOL0     H20528   3.276   1.574   1.413  1.2067 -0.9735 -0.7843
  156MOL0     H20529   3.030   1.237   1.557 -0.8653 -0.0647 -0.6667
  156MOL0     H20530   3.179   1.216   1.658 -0.6745  1.7651  0.4505
  156MOL0     H20531   3.203   1.078   1.478  2.6498 -0.3568 -1.6961
  156MOL0     H20532   3.310   1.216   1.463 -0.9490  3.4935  0.4468
  156MOL0     H20533   3.188   1.332   1.282 -1.0635  0.6220  1.2262
  156MOL0     H20534   3.049   1.240   1.350 -0.4105 -2.4940  0.8660
  156MOL0     H20535   3.261   1.136   1.166  0.0139  0.2689  1.5264
  156MOL0     H20536   3.148   1.037   1.259 -1.4879  0.3757  2.4332
  156MOL0     H20537   2.956   1.160   1.146 -1.0239 -1.9098 -1.6032
  156MOL0     H20538   3.061   1.069   1.029  2.0706 -0.8077  1.3026
  156MOL0     H20539   3.174   1.288   0.975  0.8307 -3.6999  0.3571
  156MOL0     H20540   3.050   1.367   1.079  0.6548 -0.4679 -0.5630
  156MOL0     H20541   3.002   1.358   0.813 -0.5076 -0.3289  0.2632
  156MOL0     H20542   2.998   1.185   0.844 -1.8857 -0.4011 -0.0749
  156MOL0     H20543   2.816   1.220   0.989  0.6433 -0.6262  0.0584
  156MOL0     H20544   2.770   1.257   0.823  1.5799 -0.7092 -0.4000
  156MOL0     H20545   2.929   1.549   1.032  0.4583 -1.3459  0.7363
  156MOL0     H20546   2.739   1.830   1.007  3.9170 -0.2192  1.3685
  156MOL0     H20547   2.819   1.744   1.134  1.7567  2.1129 -0.9360
  156MOL0     H20548   2.509   1.779   1.104  1.1634  0.7453 -2.0334
  156MOL0     H20549   2.612   1.898   1.171  1.3407 -1.4562  1.9960
  156MOL0     H20550   2.594   1.608   1.289  0.0072 -1.4530  2.5973
  156MOL0     H20551   2.705   1.732   1.343 -1.5812  1.8689  1.6590
  156MOL0     H20552   2.473   1.871   1.362 -0.8127 -0.9314  0.6409
  156MOL0     H20553   2.565   1.798   1.494  0.9006  1.6593 -0.3039
  156MOL0     H20554   2.396   1.901   1.559  0.1705 -1.7839 -1.6157
  156MOL0     H20555   2.193   1.984   1.688  1.7090 -0.8190  0.5333
  156MOL0     H20556   1.783   1.959   1.899 -1.9658  0.4074 -0.6719
  156MOL0     H20557   1.615   1.953   2.088 -0.9778 -1.8955  1.8955
  156MOL0     H20558   1.712   1.747   2.324  0.5900 -1.5029 -0.9252
  156MOL0     H20559   1.575   1.643   2.382  1.0663 -0.5275 -0.3487
  156MOL0     H20560   1.449   1.824   2.464 -1.6688  2.4224 -2.2732
  156MOL0     H20561   1.531   1.947   2.372 -0.3519  2.3886  2.8503
  156MOL0     H20562   1.741   1.911   2.495  1.1220 -0.8313  1.0758
  156MOL0     H20563   1.668   1.788   2.595  0.8778 -1.2911 -1.2028
  156MOL0     H20564   1.581   2.088   2.588  1.8073 -0.7160 -1.8234
  156MOL0     H20565   1.522   1.953   2.697  0.7682 -2.5823  0.3758
  156MOL0     H20566   1.782   1.947   2.773 -0.3782 -0.8287 -2.7302
  156MOL0     H20567   1.681   2.071   2.845 -0.9454  0.8411 -0.7419
  156MOL0     H20568   1.861   2.107   2.595 -1.5036 -0.3963 -2.0733
  156MOL0     H20569   1.908   2.141   2.750 -0.3220 -1.6183  0.3860
  156MOL0     H20570   1.837   2.353   2.617 -0.0689  0.2034 -0.3092
  156MOL0     H20571   1.667   2.299   2.618 -0.5783 -0.3230  0.3511
  156MOL0     H20572   1.728   2.477   2.779 -1.7899  0.2838 -1.8277
  156MOL0     H20573   1.808   2.356   2.873 -0.6233  0.0020 -1.0639
  156MOL0     H20574   1.605   1.518   2.090  2.3264 -0.6212  1.0911
  156MOL0     H20575   1.788   1.528   1.922  1.9461  0.4026  2.0290
  156MOL0     H20576   2.023   1.583   1.634  0.1883 -2.0054 -1.7536
  156MOL0     H20577   2.214   1.527   1.485  0.9710 -1.9941  5.4968
  156MOL0     H20578   3.329   1.373   1.790 -0.6632  3.3057  1.6284
  156MOL0     H20579   3.571   1.483   1.799  1.2590  1.0991 -1.5729
  156MOL0     H20580   3.759   1.885   1.931 -1.9473 -2.3589  4.9277
  156MOL0     H20581   3.935   1.866   2.080  0.1613  0.4379 -0.1773
  156MOL0     H20582   4.251   1.858   2.007 -2.8953 -0.0628  0.5725
  156MOL0     H20583   4.251   1.761   1.872  0.2114  4.2536  0.5664
  156MOL0     H20584   4.466   1.743   2.001 -2.4426  1.3564 -2.2557
  156MOL0     H20585   4.384   1.680   2.149 -4.0044 -0.8389  0.5656
  156MOL0     H20586   4.298   1.518   1.939  0.5824  2.9356 -2.3687
  156MOL0     H20587   4.404   1.461   2.064  0.5224  0.0186  0.4867
  156MOL0     H20588   4.472   1.594   1.797  0.6093  1.8267  1.9937
  156MOL0     H20589   4.590   1.576   1.921 -1.3249  2.0896 -0.2783
  156MOL0     H20590   4.558   1.183   1.763 -0.2614 -1.6038  1.0420
  156MOL0     H20591   4.103   1.539   1.848  1.8665  1.7373 -2.9957
  156MOL0     H20592   3.915   1.534   1.710 -0.5122 -0.1835 -0.5788
  157MOL0     O20593   0.687   8.926   0.826  0.2662 -0.2187  0.3480
  157MOL0     C20594   0.684   8.999   0.926 -0.2586 -0.1706 -0.1790
  157MOL0     O20595   0.772   8.974   1.037  0.3135  0.5185  1.0996
  157MOL0     C20596   0.871   8.881   1.044  0.0050  0.2970  0.8949
  157MOL0     C20597   0.875   8.753   0.988 -0.3282  0.2972 -0.2109
  157MOL0     C20598   0.984   8.657   1.025 -0.0218 -0.1522  0.9193
  157MOL0     C20599   1.090   8.709   1.102  0.0726  0.9048 -0.4597
  157MOL0     O20600   1.187   8.625   1.129 -0.4347 -0.7329 -0.4273
  157MOL0     C20601   1.280   8.610   1.023  0.9121  0.2247 -1.1164
  157MOL0     C20602   1.354   8.481   1.037  0.3768  0.3636 -0.0910
  157MOL0     C20603   1.266   8.356   1.009  0.5093  0.7887 -1.6157
  157MOL0     C20604   1.350   8.222   1.007  0.0166  0.2396 -0.4048
  157MOL0     C20605   1.432   8.191   1.128  0.5790 -0.1285 -0.5841
  157MOL0     C20606   1.361   8.143   1.250 -0.7679  0.2202 -0.9410
  157MOL0     C20607   1.287   8.003   1.241  0.2396 -0.0366 -1.4802
  157MOL0     C20608   1.142   8.028   1.218 -0.1462 -0.3414  0.2164
  157MOL0     N20609   1.053   8.053   1.336  0.1129 -0.5743 -0.4481
  157MOL0     C20610   0.986   8.175   1.372  0.4438  0.2877  0.4948
  157MOL0     C20611   0.932   8.142   1.493 -1.3477  0.6171  0.5408
  157MOL0     C20612   0.847   8.222   1.573  0.5350  0.3628  0.0452
  157MOL0     C20613   0.930   8.324   1.654  0.0322 -0.0140  0.2914
  157MOL0     C20614   0.834   8.379   1.760  0.7605 -0.1514 -0.7483
  157MOL0     C20615   0.880   8.516   1.814 -0.1975  0.1161  0.7550
  157MOL0     O20616   0.771   8.545   1.892 -0.1198 -1.3422  0.2030
  157MOL0     C20617   0.697   8.656   1.860 -1.0390 -0.2605 -0.1758
  157MOL0     C20618   0.556   8.637   1.863 -0.4632 -0.4621  0.5410
  157MOL0     C20619   0.466   8.742   1.848  0.4798 -0.4946 -0.0345
  157MOL0     C20620   0.509   8.875   1.816 -0.2610  1.0579  0.2567
  157MOL0     C20621   0.415   8.983   1.813 -0.2973  0.0077  0.8227
  157MOL0     O20622   0.457   9.110   1.844 -0.5313 -0.1886  0.0983
  157MOL0     C20623   0.367   9.221   1.841 -0.3877  0.6062  0.5980
  157MOL0     C20624   0.327   9.282   1.956  0.6449  0.0965 -0.7646
  157MOL0     C20625   0.233   9.383   1.951 -0.6612  0.3036 -0.7174
  157MOL0     C20626   0.171   9.430   1.835 -0.3033  0.0562 -1.0435
  157MOL0     O20627   0.092   9.540   1.832  1.2291 -0.0180 -0.0724
  157MOL0     C20628   0.134   9.660   1.907 -1.5905 -0.3934 -0.1093
  157MOL0     C20629   0.050   9.684   2.029 -0.0001  0.3412 -0.0725
  157MOL0     C20630  -0.096   9.702   1.987 -0.3537  0.1345 -0.1596
  157MOL0     C20631  -0.189   9.706   2.115 -0.6773  0.4064  0.4649
  157MOL0     C20632  -0.335   9.718   2.069 -0.4012 -0.7735 -0.0029
  157MOL0     C20633  -0.443   9.702   2.167  1.0686 -0.0511  0.1501
  157MOL0     C20634  -0.555   9.610   2.102 -0.3104  0.1855  0.4323
  157MOL0     C20635  -0.651   9.688   2.017 -0.4401  0.1610  0.0083
  157MOL0    Cl20636  -0.729   9.809   2.109 -0.7150 -0.5255 -0.2028
  157MOL0     C20637   0.222   9.378   1.717  0.5465  0.1440  0.1260
  157MOL0     C20638   0.316   9.272   1.715  0.5701 -0.2624  0.4812
  157MOL0     O20639   0.297   8.949   1.798 -1.1318 -0.2895  0.9076
  157MOL0     C20640   0.655   8.894   1.809  0.0311  0.6367 -0.6264
  157MOL0     C20641   0.747   8.791   1.833  0.7711  0.1049 -0.2257
  157MOL0     N20642   0.982   8.023   1.543 -0.1998  0.6489  0.4161
  157MOL0     N20643   1.042   7.971   1.448  0.2166  0.6741 -0.0672
  157MOL0     C20644   1.089   8.832   1.159  0.7950  0.6374  1.0591
  157MOL0     C20645   0.980   8.913   1.130  1.2201  0.2980  0.6554
  157MOL0     C20646   0.583   9.101   0.933  0.0362 -0.4921  0.4587
  157MOL0     C20647   0.597   9.202   1.029  0.1774  0.5539  0.4920
  157MOL0     C20648   0.524   9.319   1.019 -0.4126  0.1290 -0.2992
  157MOL0     C20649   0.420   9.331   0.926 -0.7778 -0.4693 -0.3587
  157MOL0     O20650   0.337   9.440   0.941 -0.2770  0.5567  0.3393
  157MOL0     C20651   0.213   9.443   0.868  0.1034  0.5235  0.5207
  157MOL0     C20652   0.120   9.567   0.877 -0.6064 -0.3638 -0.5856
  157MOL0     C20653   0.180   9.679   0.788  0.1999 -0.5557  0.6731
  157MOL0     C20654   0.060   9.782   0.772 -0.8930  0.0978  0.4361
  157MOL0     C20655   0.111   9.909   0.726  0.2816 -0.6136 -0.8191
  157MOL0     C20656   0.158  10.014   0.684  0.0006 -0.6579  0.5048
  157MOL0     C20657   0.399   9.220   0.837 -0.6269  0.4108 -0.7877
  157MOL0     C20658   0.463   9.103   0.846 -0.4528  0.4690 -0.3172
  157MOL0     H20659   0.799   8.721   0.917  0.0906 -1.9060  0.2507
  157MOL0     H20660   0.980   8.557   0.983 -1.1832 -0.5880  2.0061
  157MOL0     H20661   1.343   8.699   1.015  1.7867 -0.2237  0.4669
  157MOL0     H20662   1.230   8.603   0.926 -2.1458 -1.9885  0.4414
  157MOL0     H20663   1.407   8.479   1.132  0.1696 -0.1309  0.0209
  157MOL0     H20664   1.422   8.487   0.951 -0.9713 -0.2075 -1.2542
  157MOL0     H20665   1.215   8.367   0.913 -1.2337 -0.5776 -0.8888
  157MOL0     H20666   1.183   8.351   1.079 -1.1853 -0.5136 -3.6018
  157MOL0     H20667   1.285   8.138   0.980 -1.3323  1.9152 -2.7648
  157MOL0     H20668   1.419   8.233   0.923  2.8251 -0.2380  1.7179
  157MOL0     H20669   1.497   8.276   1.152 -2.8537  2.0631  1.8590
  157MOL0     H20670   1.492   8.105   1.096  0.8895  0.1091 -0.6482
  157MOL0     H20671   1.290   8.221   1.279  0.3018  0.4771  1.1574
  157MOL0     H20672   1.430   8.138   1.334 -3.6617 -1.9094  1.5089
  157MOL0     H20673   1.317   7.935   1.160  0.1404  0.3256 -1.8210
  157MOL0     H20674   1.297   7.960   1.342 -0.9096  0.3671 -1.1821
  157MOL0     H20675   1.107   7.943   1.158  0.5472  0.0901 -0.8385
  157MOL0     H20676   1.137   8.111   1.147 -1.0243  0.1672  0.8524
  157MOL0     H20677   0.983   8.259   1.304  1.4846 -0.4112 -0.4547
  157MOL0     H20678   0.788   8.159   1.641  0.2385 -0.3045 -0.8124
  157MOL0     H20679   0.776   8.281   1.515  0.0719  0.0383  0.2806
  157MOL0     H20680   0.976   8.394   1.582  1.5208 -0.8289  0.4079
  157MOL0     H20681   1.014   8.272   1.700  0.9388 -0.0708 -1.3290
  157MOL0     H20682   0.740   8.392   1.706  0.4414  0.7073 -0.0069
  157MOL0     H20683   0.821   8.307   1.841  0.5780 -2.1885 -2.4845
  157MOL0     H20684   0.877   8.593   1.737 -1.0495 -1.1279 -0.5313
  157MOL0     H20685   0.977   8.516   1.865  0.7452  3.1121 -0.8615
  157MOL0     H20686   0.507   8.543   1.882  0.2996 -0.8017  0.8635
  157MOL0     H20687   0.361   8.720   1.865  0.1217  1.7238  1.0559
  157MOL0     H20688   0.359   9.271   2.060 -0.0140  1.9540 -0.3196
  157MOL0     H20689   0.223   9.428   2.049  0.1515 -0.0098 -0.4837
  157MOL0     H20690   0.146   9.746   1.841  2.7507  1.9237  3.1494
  157MOL0     H20691   0.235   9.649   1.948 -1.1504 -1.4176 -1.4166
  157MOL0     H20692   0.100   9.768   2.078  3.5822 -1.4676 -0.2699
  157MOL0     H20693   0.059   9.598   2.096 -0.5573  1.0581  0.9485
  157MOL0     H20694  -0.130   9.627   1.915 -0.3367 -2.2440  2.1717
  157MOL0     H20695  -0.101   9.805   1.950  1.3393  0.3524  0.1004
  157MOL0     H20696  -0.173   9.616   2.175  2.6517  0.1957 -0.5715
  157MOL0     H20697  -0.158   9.785   2.184 -0.1205  0.5404  0.0621
  157MOL0     H20698  -0.354   9.655   1.982  0.3274  0.6343 -1.2313
  157MOL0     H20699  -0.332   9.823   2.037  0.4649 -1.0194 -0.7609
  157MOL0     H20700  -0.477   9.801   2.201 -3.6219 -1.4798  0.3020
  157MOL0     H20701  -0.404   9.653   2.257  1.4811  1.0417  0.5847
  157MOL0     H20702  -0.507   9.526   2.051  0.5642 -0.8160  2.7992
  157MOL0     H20703  -0.612   9.564   2.183  0.5471 -0.9848  0.3809
  157MOL0     H20704  -0.727   9.623   1.973 -0.1144  0.3531 -0.8483
  157MOL0     H20705  -0.602   9.744   1.938  0.8884  0.2365  0.8599
  157MOL0     H20706   0.183   9.419   1.624  1.5796  1.7682  0.3642
  157MOL0     H20707   0.346   9.228   1.620 -0.0268  0.9530 -0.2876
  157MOL0     H20708   0.699   8.993   1.797  2.8450 -0.4395  0.0127
  157MOL0     H20709   0.854   8.809   1.841  0.3462  2.6276  0.4742
  157MOL0     H20710   1.169   8.869   1.224 -0.5055  4.2574  0.8529
  157MOL0     H20711   0.990   9.015   1.166 -2.9374  1.6893 -1.5267
  157MOL0     H20712   0.683   9.198   1.096  0.6660 -0.6605 -0.1871
  157MOL0     H20713   0.540   9.398   1.091 -1.3775 -1.2029  1.4521
  157MOL0     H20714   0.143   9.359   0.877 -2.5871  1.9442 -3.8911
  157MOL0     H20715   0.235   9.436   0.761  1.7437 -0.2239  0.8800
  157MOL0     H20716   0.031   9.531   0.824  1.1300 -4.2931 -1.1562
  157MOL0     H20717   0.090   9.589   0.979  3.3540 -1.0767  0.9113
  157MOL0     H20718   0.203   9.654   0.684  0.6346 -1.9934  1.0972
  157MOL0     H20719   0.271   9.726   0.827  2.6970 -2.9585 -1.8046
  157MOL0     H20720  -0.001   9.744   0.689  2.1476  0.6165 -2.2255
  157MOL0     H20721  -0.002   9.786   0.863  1.7330  0.4525  2.3213
  157MOL0     H20722   0.197  10.108   0.651 -0.7453  0.6560  3.0824
  157MOL0     H20723   0.325   9.238   0.760 -0.6180  1.8254 -0.4902
  157MOL0     H20724   0.452   9.021   0.775 -1.1719  2.5036 -2.7226
  158MOL0     O20725   1.106   3.076   8.361 -0.9065  0.1881 -0.2505
  158MOL0     C20726   1.039   3.152   8.298 -0.3281  0.2969  0.1609
  158MOL0     O20727   1.031   3.291   8.320  0.8030  0.1139 -0.6959
  158MOL0     C20728   1.097   3.339   8.425 -0.2402  0.8712 -0.4430
  158MOL0     C20729   1.225   3.402   8.424  0.3057  0.8369  0.8710
  158MOL0     C20730   1.290   3.451   8.545 -0.1264 -0.2211 -0.3335
  158MOL0     C20731   1.235   3.425   8.665  0.0547  0.3460  0.2617
  158MOL0     O20732   1.296   3.493   8.769 -0.7021 -0.2901  0.1500
  158MOL0     C20733   1.213   3.487   8.894  1.1233  0.2818  0.6234
  158MOL0     C20734   1.278   3.579   9.006 -0.2325 -0.3940 -0.2002
  158MOL0     C20735   1.275   3.738   8.960 -0.1766  0.4933 -1.1280
  158MOL0     C20736   1.360   3.819   9.070 -0.3598  0.2044  0.0157
  158MOL0     C20737   1.342   3.972   9.036 -0.1674  1.3703 -0.4271
  158MOL0     C20738   1.437   4.061   9.120 -1.0024 -1.1464  0.4709
  158MOL0     C20739   1.583   4.053   9.064  0.9756  0.0351 -0.3875
  158MOL0     C20740   1.685   4.143   9.133  0.5770  0.3277 -0.2824
  158MOL0     N20741   1.702   4.142   9.279  0.7613  0.5480  0.0173
  158MOL0     C20742   1.780   4.230   9.356 -0.7189 -0.0331 -0.0141
  158MOL0     C20743   1.778   4.179   9.478  0.1844  0.2440 -0.1302
  158MOL0     C20744   1.856   4.251   9.585  0.8903  0.3135  0.5234
  158MOL0     C20745   1.780   4.303   9.705  0.8593 -0.6943  0.5758
  158MOL0     C20746   1.650   4.259   9.739  1.6726  0.5274 -0.2151
  158MOL0     C20747   1.599   4.309   9.867  0.4978 -0.0658  0.1645
  158MOL0     O20748   1.458   4.297   9.886  0.5252  0.1506 -0.0498
  158MOL0     C20749   1.419   4.209   9.978  1.3524  0.3649 -0.6297
  158MOL0     C20750   1.402   4.078   9.934 -0.9687  0.6789 -0.3603
  158MOL0     C20751   1.365   3.983  10.036  0.0603 -0.7869 -0.1980
  158MOL0     C20752   1.318   4.030  10.164  0.2270 -0.7284  0.3330
  158MOL0     C20753   1.271   3.934  10.261  0.3725 -1.0241 -0.0404
  158MOL0     O20754   1.182   3.978  10.353  0.1326  0.3199 -1.3992
  158MOL0     C20755   1.120   3.904  10.451  0.1776  0.0685  0.4981
  158MOL0     C20756   1.124   3.769  10.470  0.0240  0.5689 -1.1130
  158MOL0     C20757   1.043   3.701  10.572 -0.2798  0.2183  0.2939
  158MOL0     C20758   0.979   3.774  10.666 -0.0334 -0.5733  0.1280
  158MOL0     O20759   0.912   3.703  10.763  0.7155 -0.1832  0.4166
  158MOL0     C20760   0.827   3.783  10.842 -0.4637  1.0866 -0.4520
  158MOL0     C20761   0.727   3.694  10.911 -0.1405  0.0763 -0.0356
  158MOL0     C20762   0.784   3.572  11.002  0.2207 -0.3578  1.0074
  158MOL0     C20763   0.892   3.600  11.106 -0.4733  0.0884  0.6141
  158MOL0     C20764   0.923   3.481  11.206  0.2157  0.4335  0.3228
  158MOL0     C20765   1.049   3.511  11.292  0.0626 -0.3468  0.0045
  158MOL0     C20766   1.078   3.394  11.381  0.4862  0.8909  0.5309
  158MOL0     C20767   1.139   3.413  11.519 -0.2786 -1.3201 -0.9513
  158MOL0    Cl20768   1.300   3.489  11.496  0.5295 -0.2316  0.6028
  158MOL0     C20769   0.999   3.915  10.659  0.1950  0.0067  0.2017
  158MOL0     C20770   1.062   3.982  10.552 -0.5454  0.8604 -0.4423
  158MOL0     O20771   1.310   3.819  10.249 -0.3560  0.8642  0.0432
  158MOL0     C20772   1.318   4.168  10.195 -0.5172  0.0656  0.0174
  158MOL0     C20773   1.375   4.259  10.102 -0.0948  0.3472 -0.2098
  158MOL0     N20774   1.729   4.050   9.478 -0.2273 -0.7962 -0.2804
  158MOL0     N20775   1.674   4.038   9.367  0.0100 -0.3558  0.5816
  158MOL0     C20776   1.111   3.349   8.671 -0.0273  0.7656  0.2431
  158MOL0     C20777   1.046   3.305   8.557  0.7527 -0.5470  0.2711
  158MOL0     C20778   0.950   3.092   8.202  0.8252 -0.1765  0.2621
  158MOL0     C20779   0.996   3.001   8.106 -0.4205  0.0802 -1.1733
  158MOL0     C20780   0.908   2.959   8.009  0.5556 -0.1517  0.0624
  158MOL0     C20781   0.773   2.993   8.014  0.0271 -0.0812  0.2070
  158MOL0     O20782   0.688   2.970   7.914 -0.3876  0.5578  0.0766
  158MOL0     C20783   0.631   2.844   7.922 -0.3794  0.1055 -0.3421
  158MOL0     C20784   0.727   2.737   7.866  0.0852 -0.0987 -0.1764
  158MOL0     C20785   0.673   2.590   7.845 -0.2693  0.9776 -0.6880
  158MOL0     C20786   0.615   2.526   7.974 -0.0274 -0.8973  0.2134
  158MOL0     C20787   0.707   2.535   8.090  0.2551  0.5346  0.4108
  158MOL0     C20788   0.777   2.555   8.182 -0.0478  0.1079  0.0551
  158MOL0     C20789   0.722   3.084   8.109 -1.1214 -0.1792  0.3259
  158MOL0     C20790   0.817   3.143   8.197 -0.2517  1.0333  0.0824
  158MOL0     H20791   1.269   3.410   8.326 -0.0742  1.7243  0.7630
  158MOL0     H20792   1.386   3.501   8.542  1.8522 -3.5291  1.5018
  158MOL0     H20793   1.210   3.383   8.929  1.4944 -0.3791 -1.1914
  158MOL0     H20794   1.109   3.518   8.878  0.5915 -1.6060  0.0718
  158MOL0     H20795   1.381   3.546   9.024  0.3263  1.6236  0.6284
  158MOL0     H20796   1.233   3.558   9.104  2.8697 -1.8866  1.0521
  158MOL0     H20797   1.173   3.773   8.942 -1.1621 -2.6958 -2.4324
  158MOL0     H20798   1.320   3.752   8.861 -3.1405  1.3825 -2.4685
  158MOL0     H20799   1.337   3.799   9.175 -0.4416 -0.8427 -0.1912
  158MOL0     H20800   1.465   3.796   9.047 -0.1375  1.7295 -0.6764
  158MOL0     H20801   1.238   4.006   9.042 -0.0404  1.8165 -0.7285
  158MOL0     H20802   1.373   3.994   8.934  1.5544  3.3895  0.4599
  158MOL0     H20803   1.422   4.039   9.227  0.1363 -1.1063  0.6467
  158MOL0     H20804   1.411   4.166   9.105 -1.3362 -1.1616  0.9159
  158MOL0     H20805   1.605   3.948   9.084 -4.0570 -0.7712  2.6398
  158MOL0     H20806   1.580   4.083   8.959  0.7143  3.3060  0.4451
  158MOL0     H20807   1.662   4.244   9.097 -1.6305 -0.5059 -1.3835
  158MOL0     H20808   1.778   4.129   9.077 -0.0260 -1.1950 -0.9720
  158MOL0     H20809   1.814   4.327   9.321 -3.4139  1.3680  0.8707
  158MOL0     H20810   1.925   4.323   9.541 -0.9367  0.7260 -1.8854
  158MOL0     H20811   1.916   4.174   9.634 -0.3554  0.1609  1.8998
  158MOL0     H20812   1.777   4.412   9.698 -2.0948 -0.7662 -1.0587
  158MOL0     H20813   1.840   4.281   9.794 -0.6057 -1.4221  1.4283
  158MOL0     H20814   1.574   4.308   9.676  0.5160  0.1703  0.8619
  158MOL0     H20815   1.627   4.153   9.746 -2.1634  1.3401  3.8687
  158MOL0     H20816   1.628   4.415   9.863  0.3745 -0.0264  0.3055
  158MOL0     H20817   1.659   4.269   9.950  1.4993 -2.4794 -1.6234
  158MOL0     H20818   1.430   4.038   9.837  2.3248  0.0825  0.7000
  158MOL0     H20819   1.347   3.879  10.010 -4.8682  0.0114 -0.9503
  158MOL0     H20820   1.164   3.701  10.395 -0.2247  0.2498 -0.9590
  158MOL0     H20821   1.041   3.592  10.570  1.8345  0.1297 -0.4479
  158MOL0     H20822   0.770   3.849  10.777  0.0718  0.3752 -1.6854
  158MOL0     H20823   0.886   3.832  10.920  0.3656 -0.4257 -0.0829
  158MOL0     H20824   0.658   3.654  10.836  1.1089  0.1483 -1.2494
  158MOL0     H20825   0.667   3.761  10.974 -1.4620 -0.6327 -0.4873
  158MOL0     H20826   0.810   3.480  10.949  2.4972 -0.3626  2.0236
  158MOL0     H20827   0.701   3.545  11.070  1.8380 -1.4647  2.6515
  158MOL0     H20828   0.977   3.651  11.060 -2.5831  1.8502 -1.5954
  158MOL0     H20829   0.857   3.683  11.168 -0.5779 -0.0498  0.7437
  158MOL0     H20830   0.937   3.389  11.148  2.2472  1.6311 -1.2341
  158MOL0     H20831   0.832   3.463  11.265 -0.2572 -4.1987 -1.3908
  158MOL0     H20832   1.032   3.590  11.367  4.1615 -0.9714  1.8617
  158MOL0     H20833   1.132   3.532  11.225 -2.1093 -0.7601 -2.9950
  158MOL0     H20834   0.978   3.355  11.404  0.7073  1.6983  3.2023
  158MOL0     H20835   1.130   3.312  11.331 -1.3001 -0.4589  0.7669
  158MOL0     H20836   1.135   3.319  11.575 -4.0671 -2.1019 -2.2252
  158MOL0     H20837   1.067   3.472  11.577  1.1756 -1.2947  0.9448
  158MOL0     H20838   0.964   3.968  10.747 -0.1688 -3.8672  2.6395
  158MOL0     H20839   1.064   4.090  10.546 -1.6748  0.9565  0.5202
  158MOL0     H20840   1.273   4.198  10.289  1.6676 -1.7717  1.7589
  158MOL0     H20841   1.386   4.365  10.117 -0.9824  0.2141  1.5965
  158MOL0     H20842   1.056   3.347   8.765 -0.9786 -1.0027 -0.2921
  158MOL0     H20843   0.956   3.244   8.563 -1.3711  2.4620  3.5577
  158MOL0     H20844   1.101   2.972   8.107 -0.0661  1.2341  0.3895
  158MOL0     H20845   0.949   2.902   7.926  0.3191 -0.8297  0.4072
  158MOL0     H20846   0.549   2.844   7.849  0.7986 -1.2106 -1.7369
  158MOL0     H20847   0.608   2.830   8.028  3.9728  2.2251  1.1291
  158MOL0     H20848   0.767   2.777   7.773 -2.4471  2.0861 -0.4349
  158MOL0     H20849   0.819   2.732   7.925 -1.1321 -1.9241  1.7324
  158MOL0     H20850   0.756   2.533   7.801 -1.0251 -1.0585  0.4052
  158MOL0     H20851   0.606   2.591   7.758 -0.7039 -1.2939 -0.4211
  158MOL0     H20852   0.524   2.585   7.993  0.1549  0.5814 -2.8760
  158MOL0     H20853   0.583   2.425   7.948 -0.8950 -0.9634  1.4253
  158MOL0     H20854   0.838   2.602   8.256  0.7651 -0.4742 -0.2440
  158MOL0     H20855   0.616   3.107   8.103 -1.1128  0.1774  1.3075
  158MOL0     H20856   0.793   3.225   8.264  0.6201  1.6976 -0.3999
  159MOL0     O20857   5.048   1.824   8.832  0.4546 -0.0884  0.1571
  159MOL0     C20858   5.111   1.898   8.757 -0.6521  0.1896  0.1514
  159MOL0     O20859   5.060   1.981   8.664  0.3302 -0.4597  1.0764
  159MOL0     C20860   4.932   1.961   8.614  0.4072  0.6867  1.3873
  159MOL0     C20861   4.925   1.904   8.487 -0.0003 -0.4637 -0.1002
  159MOL0     C20862   4.794   1.875   8.436 -0.1041  0.1586  0.5200
  159MOL0     C20863   4.679   1.914   8.499  0.1898 -1.6593 -0.3779
  159MOL0     O20864   4.550   1.898   8.452  0.3167 -0.7349  0.0224
  159MOL0     C20865   4.526   1.986   8.339  0.1786  0.1132 -0.8472
  159MOL0     C20866   4.409   1.942   8.259  0.8023  0.8089  0.1266
  159MOL0     C20867   4.455   1.801   8.205  0.0477 -0.0545  0.3685
  159MOL0     C20868   4.357   1.756   8.102  0.0587  0.5153  0.9464
  159MOL0     C20869   4.347   1.602   8.065  0.3504 -0.2794 -0.4012
  159MOL0     C20870   4.243   1.574   7.951 -0.5407 -0.0629 -0.0182
  159MOL0     C20871   4.209   1.419   7.944  0.9988 -0.8587  0.3452
  159MOL0     C20872   4.143   1.386   7.814  0.1849  0.6231  0.4863
  159MOL0     N20873   4.106   1.244   7.794 -0.5552 -1.0248 -0.3207
  159MOL0     C20874   4.025   1.160   7.873  0.2012  0.4520 -0.7144
  159MOL0     C20875   4.029   1.043   7.810 -0.2155  0.7179 -0.2377
  159MOL0     C20876   3.959   0.922   7.860  0.0784  0.7515  0.3576
  159MOL0     C20877   4.051   0.855   7.959 -0.5615 -0.4497  0.3628
  159MOL0     C20878   3.980   0.735   8.021  0.2256 -0.1216  0.6999
  159MOL0     C20879   4.064   0.660   8.131  0.6688 -0.2252 -0.4036
  159MOL0     O20880   4.091   0.721   8.260 -0.2047  0.3196  0.4624
  159MOL0     C20881   3.987   0.750   8.351 -0.6330 -0.2212  0.2301
  159MOL0     C20882   3.874   0.669   8.361 -0.3342 -0.5834  0.1249
  159MOL0     C20883   3.764   0.704   8.449 -1.2553 -0.2362  1.0662
  159MOL0     C20884   3.784   0.811   8.539  0.7585 -0.0748  0.0287
  159MOL0     C20885   3.682   0.848   8.638 -0.5835 -0.2050  0.1120
  159MOL0     O20886   3.712   0.933   8.742  0.0088 -0.0230 -0.5662
  159MOL0     C20887   3.625   1.033   8.785 -0.4438  0.4021 -0.7434
  159MOL0     C20888   3.609   1.071   8.920 -0.5983 -0.1047  0.2123
  159MOL0     C20889   3.529   1.180   8.949  0.6077 -0.5368 -0.4802
  159MOL0     C20890   3.447   1.240   8.852 -0.1692 -0.6379  0.6689
  159MOL0     O20891   3.344   1.331   8.871  0.5404  0.1622  0.2720
  159MOL0     C20892   3.294   1.351   9.010 -0.7695 -0.1118  0.2929
  159MOL0     C20893   3.290   1.490   9.058 -0.6254 -0.5617 -0.4256
  159MOL0     C20894   3.169   1.518   9.159  1.0028 -0.0075  0.1767
  159MOL0     C20895   3.180   1.656   9.217 -0.6657 -0.5984 -0.3026
  159MOL0     C20896   3.072   1.699   9.309  0.3823 -0.4722 -0.6751
  159MOL0     C20897   3.119   1.678   9.454  0.3771 -0.7835 -0.8716
  159MOL0     C20898   3.168   1.529   9.493  0.2269  1.2668 -0.1846
  159MOL0     C20899   3.053   1.423   9.508  0.0915  0.1259  0.1638
  159MOL0    Cl20900   3.122   1.269   9.566 -0.6503  0.0708  0.4276
  159MOL0     C20901   3.450   1.191   8.723 -0.5552 -0.6438  0.2281
  159MOL0     C20902   3.534   1.082   8.693 -0.7977 -1.3072 -0.3890
  159MOL0     O20903   3.571   0.816   8.599  0.9613  0.1421  0.9116
  159MOL0     C20904   3.904   0.881   8.533 -0.2748  0.4666 -0.2179
  159MOL0     C20905   4.005   0.849   8.442 -0.1924  0.2318 -0.1664
  159MOL0     N20906   4.124   1.039   7.704  0.0564  0.2039 -0.5920
  159MOL0     N20907   4.166   1.168   7.691 -0.4523  0.1074 -0.0505
  159MOL0     C20908   4.689   1.983   8.627  0.0302  0.5172  0.0097
  159MOL0     C20909   4.814   1.995   8.685 -0.3387 -0.5023  0.0277
  159MOL0     C20910   5.258   1.895   8.769 -0.0888  1.0836  0.9685
  159MOL0     C20911   5.338   1.996   8.699  0.4810  0.3708  0.2855
  159MOL0     C20912   5.476   1.996   8.711  0.4091 -0.6777 -1.0561
  159MOL0     C20913   5.540   1.906   8.806 -0.9280  0.0095 -0.0283
  159MOL0     O20914   5.676   1.904   8.820  0.0741 -0.4358 -0.2174
  159MOL0     C20915   5.747   2.018   8.776 -0.6126  0.1711  0.6179
  159MOL0     C20916   5.862   2.033   8.885 -0.3545 -0.5978  0.3280
  159MOL0     C20917   5.962   2.140   8.836 -0.3201  0.7530 -0.0537
  159MOL0     C20918   6.049   2.076   8.733  0.0972  0.3336 -0.0715
  159MOL0     C20919   6.156   2.171   8.701 -0.0554  0.0215  0.0573
  159MOL0     C20920   6.225   2.258   8.662 -1.3554  0.1043  0.4103
  159MOL0     C20921   5.460   1.802   8.857 -0.1383  0.0180  0.2492
  159MOL0     C20922   5.318   1.796   8.850 -0.1990  0.6779 -0.9538
  159MOL0     H20923   5.013   1.877   8.430 -0.4801 -1.1389 -0.5408
  159MOL0     H20924   4.798   1.822   8.342 -0.4811  1.6969 -0.3952
  159MOL0     H20925   4.607   1.984   8.266 -0.0272 -0.3731 -1.0598
  159MOL0     H20926   4.519   2.090   8.373  2.3447  0.4354 -1.2277
  159MOL0     H20927   4.396   2.011   8.175 -0.4949 -1.8083 -1.9323
  159MOL0     H20928   4.318   1.937   8.319 -0.6090 -1.6434 -2.0649
  159MOL0     H20929   4.457   1.735   8.291 -3.1438  1.1584  1.5081
  159MOL0     H20930   4.558   1.801   8.168  0.2140 -0.3265  0.8363
  159MOL0     H20931   4.257   1.789   8.129 -0.8517 -1.1335 -0.2331
  159MOL0     H20932   4.389   1.805   8.009 -0.2880  2.3348  1.7463
  159MOL0     H20933   4.304   1.556   8.155 -2.7547 -0.2176 -1.7273
  159MOL0     H20934   4.445   1.562   8.036  2.0017  0.7877  3.1223
  159MOL0     H20935   4.279   1.595   7.850  0.7101 -3.2459 -0.3669
  159MOL0     H20936   4.152   1.628   7.978  0.8505  2.4862 -0.1474
  159MOL0     H20937   4.293   1.355   7.974  2.6754  0.7258 -0.7250
  159MOL0     H20938   4.123   1.400   8.009  0.1283 -0.0200 -0.5349
  159MOL0     H20939   4.212   1.409   7.732 -1.1903 -0.0267 -0.8990
  159MOL0     H20940   4.055   1.450   7.809 -0.8252 -0.6612  1.2671
  159MOL0     H20941   3.973   1.185   7.965  1.2032 -2.0147  0.6297
  159MOL0     H20942   3.951   0.860   7.770 -0.5688 -0.6943  1.3578
  159MOL0     H20943   3.863   0.936   7.911 -1.5361 -0.7752 -2.0132
  159MOL0     H20944   4.070   0.926   8.040 -3.8876  1.6909 -0.5359
  159MOL0     H20945   4.139   0.814   7.908 -1.2306 -1.9324  0.3377
  159MOL0     H20946   3.881   0.760   8.061 -1.6768 -3.5322 -1.3459
  159MOL0     H20947   3.964   0.666   7.938 -0.6509  1.4949 -0.5120
  159MOL0     H20948   4.166   0.665   8.092  0.8195  2.7595  0.1295
  159MOL0     H20949   4.025   0.558   8.139  1.3985 -0.5972 -1.4047
  159MOL0     H20950   3.853   0.591   8.288 -0.2950  0.7665 -1.3966
  159MOL0     H20951   3.668   0.653   8.440 -1.9725  1.3998 -2.4122
  159MOL0     H20952   3.662   1.032   9.006 -0.9674  0.1364  0.5514
  159MOL0     H20953   3.541   1.227   9.046  1.4006  1.0313 -1.2960
  159MOL0     H20954   3.359   1.298   9.080 -1.7547  1.0164  2.1284
  159MOL0     H20955   3.191   1.314   9.012 -0.8257  0.0725  0.9917
  159MOL0     H20956   3.268   1.560   8.977 -3.8124 -0.2867  0.5333
  159MOL0     H20957   3.387   1.514   9.104 -1.0134  0.8690 -0.3028
  159MOL0     H20958   3.168   1.443   9.239  0.2011 -2.9217 -2.3602
  159MOL0     H20959   3.080   1.513   9.096  1.3937  0.5552 -0.4375
  159MOL0     H20960   3.278   1.668   9.264 -0.6666  0.9555 -0.6752
  159MOL0     H20961   3.181   1.726   9.133 -1.0154 -0.3168 -0.0701
  159MOL0     H20962   2.970   1.671   9.282  0.1404 -0.2190 -0.0366
  159MOL0     H20963   3.076   1.807   9.290 -1.6119  0.0439  1.4067
  159MOL0     H20964   3.032   1.696   9.518 -0.1204 -2.3619 -1.0660
  159MOL0     H20965   3.191   1.759   9.472 -0.6936 -0.2668  1.6073
  159MOL0     H20966   3.236   1.478   9.424  0.0440  0.3787  0.2835
  159MOL0     H20967   3.217   1.548   9.589  1.2478 -1.0699 -0.1737
  159MOL0     H20968   3.010   1.407   9.409 -0.9424  2.1865  0.2316
  159MOL0     H20969   2.984   1.461   9.584 -0.1203 -2.5652  1.4339
  159MOL0     H20970   3.403   1.235   8.636  3.7514  0.1785 -1.9386
  159MOL0     H20971   3.538   1.066   8.586  2.2493  0.6309 -0.6657
  159MOL0     H20972   3.925   0.959   8.605  0.5267  0.0922 -0.0412
  159MOL0     H20973   4.099   0.904   8.444  0.4669 -0.8354  1.8669
  159MOL0     H20974   4.593   2.017   8.665 -0.3879 -0.7363  0.0965
  159MOL0     H20975   4.825   2.030   8.787  1.2968  1.7068 -0.8533
  159MOL0     H20976   5.282   2.067   8.640 -0.4986 -2.0711 -1.8876
  159MOL0     H20977   5.527   2.075   8.657  1.7352 -0.7531  0.0509
  159MOL0     H20978   5.693   2.113   8.782 -3.3226 -1.0584 -1.8731
  159MOL0     H20979   5.784   2.020   8.673 -1.5547  2.8712  0.2438
  159MOL0     H20980   5.811   2.077   8.972  0.2351  0.3750  0.2067
  159MOL0     H20981   5.908   1.937   8.911  4.0589  1.0751 -0.3261
  159MOL0     H20982   6.022   2.174   8.921  0.2021  1.5142 -0.7205
  159MOL0     H20983   5.911   2.224   8.789  0.8426  2.2583  1.2594
  159MOL0     H20984   6.090   1.984   8.776 -2.3054  0.5037  2.9267
  159MOL0     H20985   5.991   2.049   8.644  1.1016  0.2095 -0.7141
  159MOL0     H20986   6.280   2.343   8.629  2.9345 -1.8469  1.7534
  159MOL0     H20987   5.506   1.731   8.925 -1.9879 -0.0148  1.5427
  159MOL0     H20988   5.256   1.718   8.893 -0.9727  0.2935 -2.6693
  160MOL0     O20989   3.394   7.753   1.690  0.3020 -0.0934  0.2693
  160MOL0     C20990   3.486   7.676   1.683 -0.2745  0.0569  0.8094
  160MOL0     O20991   3.618   7.719   1.660  0.3805 -0.4296  0.0265
  160MOL0     C20992   3.651   7.841   1.693 -0.9209 -0.1749 -0.1583
  160MOL0     C20993   3.710   7.922   1.585 -0.1461  0.3394 -0.4490
  160MOL0     C20994   3.723   8.061   1.609 -0.7531  0.4030  0.2002
  160MOL0     C20995   3.678   8.125   1.729 -0.4595  0.1704  0.3768
  160MOL0     O20996   3.719   8.249   1.769 -0.3304  1.0677 -0.6018
  160MOL0     C20997   3.700   8.369   1.686  0.7735  0.1391 -0.1251
  160MOL0     C20998   3.549   8.413   1.679 -0.4456 -0.3739 -0.4567
  160MOL0     C20999   3.506   8.561   1.637  0.6387  0.5052  0.8681
  160MOL0     C21000   3.360   8.582   1.651  0.2668 -0.1609 -0.7624
  160MOL0     C21001   3.262   8.489   1.572  0.6242  0.0261 -0.5805
  160MOL0     C21002   3.116   8.539   1.595  0.8688  0.2434 -0.8888
  160MOL0     C21003   3.029   8.429   1.520 -0.7189  0.1506 -0.0738
  160MOL0     C21004   2.895   8.504   1.479  0.1148  0.1052  0.5246
  160MOL0     N21005   2.795   8.399   1.450 -0.4349  0.7850 -0.5614
  160MOL0     C21006   2.735   8.332   1.551 -0.4616 -0.5521  0.5076
  160MOL0     C21007   2.704   8.206   1.507  1.2953  0.0283 -0.0340
  160MOL0     C21008   2.660   8.083   1.578  0.5935 -0.2314  0.2561
  160MOL0     C21009   2.719   7.955   1.522 -0.6769  0.7455  0.2946
  160MOL0     C21010   2.668   7.841   1.604  0.0895  0.5248 -0.4121
  160MOL0     C21011   2.745   7.706   1.580 -0.6779 -0.4591  0.4085
  160MOL0     O21012   2.692   7.615   1.679  0.1014 -0.5098 -0.3451
  160MOL0     C21013   2.704   7.481   1.658 -1.1871  0.0915 -1.0104
  160MOL0     C21014   2.666   7.404   1.768 -0.2641  0.3149  0.4551
  160MOL0     C21015   2.691   7.264   1.751 -0.3924  0.1401 -0.4432
  160MOL0     C21016   2.728   7.201   1.626  0.9633  0.1389  1.3391
  160MOL0     C21017   2.745   7.056   1.620  0.1172  0.7269 -0.3063
  160MOL0     O21018   2.755   7.016   1.492  0.0122 -0.3363 -0.7759
  160MOL0     C21019   2.805   6.888   1.465  0.1116  0.3916 -0.8588
  160MOL0     C21020   2.738   6.835   1.361  0.2227  0.4059 -1.1017
  160MOL0     C21021   2.768   6.713   1.304  0.7648  2.2496  0.2011
  160MOL0     C21022   2.873   6.640   1.370 -0.0430 -0.0028  0.6840
  160MOL0     O21023   2.900   6.509   1.351  0.0983  0.1830 -0.1760
  160MOL0     C21024   2.892   6.442   1.222 -0.2926 -0.1796  0.8700
  160MOL0     C21025   2.786   6.343   1.230  0.0891  0.0845 -0.4279
  160MOL0     C21026   2.762   6.289   1.089  0.2945  0.2172  0.1005
  160MOL0     C21027   2.850   6.161   1.059  0.1845 -0.4784  0.4042
  160MOL0     C21028   2.861   6.122   0.913  0.2427 -0.2118 -1.2599
  160MOL0     C21029   2.729   6.093   0.851 -0.4854  0.2459 -0.1649
  160MOL0     C21030   2.743   6.046   0.704 -0.2713 -0.2811  0.4791
  160MOL0     C21031   2.602   6.016   0.645 -0.6294  0.8372  1.7575
  160MOL0    Cl21032   2.636   5.989   0.472 -0.0438 -0.2196  0.0349
  160MOL0     C21033   2.935   6.690   1.489  0.8288  0.4037  1.2327
  160MOL0     C21034   2.900   6.817   1.540 -0.6833  0.7569  0.1295
  160MOL0     O21035   2.738   6.993   1.720  0.1262  0.5800  0.0969
  160MOL0     C21036   2.735   7.288   1.516 -0.5853  0.5426  0.1855
  160MOL0     C21037   2.731   7.422   1.535  0.8783 -0.0496  0.6687
  160MOL0     N21038   2.760   8.202   1.382  1.1285 -0.3320 -0.2919
  160MOL0     N21039   2.813   8.310   1.353  0.4706 -0.6076  0.4214
  160MOL0     C21040   3.625   8.045   1.830 -0.4504 -0.0979 -0.8399
  160MOL0     C21041   3.605   7.908   1.809 -0.0974  0.6319 -0.7435
  160MOL0     C21042   3.455   7.533   1.665  0.2657  0.1308 -0.0429
  160MOL0     C21043   3.329   7.490   1.726  0.0106 -0.6254  0.5729
  160MOL0     C21044   3.292   7.359   1.701 -0.5365  0.7228 -0.5302
  160MOL0     C21045   3.370   7.272   1.620 -0.1281 -0.2910  0.3038
  160MOL0     O21046   3.309   7.149   1.597 -0.0338  0.7343  0.7208
  160MOL0     C21047   3.366   7.063   1.490 -1.0114  0.4882  0.6789
  160MOL0     C21048   3.322   6.921   1.512  0.8943 -0.2581 -0.3949
  160MOL0     C21049   3.301   6.840   1.379 -0.8022 -0.1814 -0.4416
  160MOL0     C21050   3.177   6.874   1.289 -0.5581 -0.8509  0.0435
  160MOL0     C21051   3.191   6.785   1.173  0.2050  0.6364 -0.1706
  160MOL0     C21052   3.213   6.712   1.076 -0.0178  0.2919 -0.1074
  160MOL0     C21053   3.494   7.315   1.573  0.1272 -0.5323  1.1582
  160MOL0     C21054   3.536   7.441   1.598  0.6165 -0.0430 -0.4357
  160MOL0     H21055   3.734   7.863   1.497  3.6839 -0.5368  0.9640
  160MOL0     H21056   3.764   8.117   1.526 -1.9506 -0.7123 -1.1978
  160MOL0     H21057   3.730   8.371   1.581  0.7226  0.9045 -0.1293
  160MOL0     H21058   3.758   8.448   1.733 -2.0622  2.3824 -0.1425
  160MOL0     H21059   3.508   8.385   1.777 -0.5636 -5.0922 -1.6184
  160MOL0     H21060   3.506   8.345   1.605  1.0801 -2.9463  0.8949
  160MOL0     H21061   3.521   8.567   1.529 -2.0653  0.2022  0.4111
  160MOL0     H21062   3.568   8.638   1.684  1.1839  0.0624  0.8975
  160MOL0     H21063   3.341   8.579   1.759 -1.7196 -1.7152 -1.0935
  160MOL0     H21064   3.335   8.684   1.619  0.8332 -0.4956 -2.3831
  160MOL0     H21065   3.282   8.382   1.582  1.5757  0.1135 -1.3786
  160MOL0     H21066   3.285   8.506   1.467 -1.4259 -0.4213 -1.1376
  160MOL0     H21067   3.097   8.637   1.552  2.0516  0.4701 -0.9172
  160MOL0     H21068   3.094   8.538   1.702  1.8423 -0.9831 -0.6699
  160MOL0     H21069   3.077   8.387   1.431  1.8525 -0.6056  1.5504
  160MOL0     H21070   3.015   8.350   1.595  1.0360 -0.6979 -0.5772
  160MOL0     H21071   2.921   8.563   1.390  2.2911  0.3622  1.2601
  160MOL0     H21072   2.868   8.573   1.559  1.7310  1.7363 -0.2504
  160MOL0     H21073   2.717   8.369   1.652 -1.8494  1.3297 -0.3965
  160MOL0     H21074   2.552   8.067   1.582  0.5197  0.4129  1.0862
  160MOL0     H21075   2.699   8.092   1.680 -0.3789  3.0625  0.4334
  160MOL0     H21076   2.824   7.972   1.546 -1.4126  1.5990  3.3489
  160MOL0     H21077   2.699   7.941   1.415  3.1773 -3.5883 -0.1318
  160MOL0     H21078   2.686   7.867   1.709  0.5328  1.7121 -0.7727
  160MOL0     H21079   2.562   7.824   1.582  0.3821 -0.8477 -0.8895
  160MOL0     H21080   2.854   7.715   1.585 -0.5288 -0.7147 -1.6901
  160MOL0     H21081   2.726   7.675   1.477 -4.3315 -3.0557  1.6444
  160MOL0     H21082   2.654   7.450   1.865  2.2728  1.7911  0.1449
  160MOL0     H21083   2.662   7.200   1.834  0.7633 -1.3724 -1.1550
  160MOL0     H21084   2.651   6.890   1.327 -0.3821 -0.5937 -1.1944
  160MOL0     H21085   2.709   6.668   1.224 -0.1214  2.0216  0.9730
  160MOL0     H21086   2.991   6.402   1.202  0.7301  1.5985  2.0813
  160MOL0     H21087   2.874   6.521   1.149  0.7120 -0.3690  0.4077
  160MOL0     H21088   2.699   6.406   1.250 -0.4835 -1.1472  1.1835
  160MOL0     H21089   2.794   6.268   1.308  0.9796  0.4999 -0.1114
  160MOL0     H21090   2.789   6.367   1.017  1.4971  3.3753  3.6653
  160MOL0     H21091   2.658   6.258   1.076  0.6197 -2.5064  2.7517
  160MOL0     H21092   2.954   6.172   1.092  0.9181  0.5226 -2.0604
  160MOL0     H21093   2.808   6.077   1.116  0.7415  0.3836  2.1448
  160MOL0     H21094   2.926   6.034   0.910  3.1335  1.7284 -0.0620
  160MOL0     H21095   2.910   6.206   0.863 -0.6254  1.8782  1.1425
  160MOL0     H21096   2.654   6.173   0.859  3.1457  3.9525  0.2582
  160MOL0     H21097   2.688   6.009   0.907 -1.4852  0.7413 -0.1311
  160MOL0     H21098   2.795   6.115   0.635 -2.7600 -1.3053 -2.6545
  160MOL0     H21099   2.802   5.955   0.696 -4.6638 -3.2725 -1.8094
  160MOL0     H21100   2.537   6.104   0.644 -0.9167  0.7486 -2.4321
  160MOL0     H21101   2.583   5.921   0.696  2.3432  0.0589  1.6383
  160MOL0     H21102   2.999   6.616   1.538  0.5052 -2.5775 -2.3946
  160MOL0     H21103   2.940   6.846   1.636  1.0007  0.5128 -0.4661
  160MOL0     H21104   2.766   7.232   1.428 -0.9986 -0.8077  0.8612
  160MOL0     H21105   2.741   7.477   1.442  1.2175 -3.8036 -1.6964
  160MOL0     H21106   3.593   8.078   1.928  0.7256 -1.8212  0.1697
  160MOL0     H21107   3.557   7.844   1.882 -0.3866  0.0883 -1.3934
  160MOL0     H21108   3.261   7.557   1.778  0.1674 -0.7777  0.9795
  160MOL0     H21109   3.191   7.326   1.722  0.5408 -1.7428  1.2809
  160MOL0     H21110   3.474   7.057   1.474 -1.3053  0.5268 -1.5534
  160MOL0     H21111   3.316   7.091   1.397 -0.2015  1.5999  0.5655
  160MOL0     H21112   3.388   6.876   1.587  0.5945 -1.3697 -0.7735
  160MOL0     H21113   3.223   6.917   1.559  0.7415 -0.9597 -0.7647
  160MOL0     H21114   3.290   6.737   1.414 -3.7249  1.3266  3.9632
  160MOL0     H21115   3.398   6.836   1.328 -0.6838 -2.5746 -0.1641
  160MOL0     H21116   3.090   6.859   1.354 -1.3353  0.4688 -0.6531
  160MOL0     H21117   3.167   6.973   1.243 -2.2745 -0.4103  1.2748
  160MOL0     H21118   3.243   6.639   1.003 -0.9044 -1.6358  1.3630
  160MOL0     H21119   3.556   7.253   1.509  2.1809 -0.1784  2.6844
  160MOL0     H21120   3.637   7.463   1.565  0.6275  0.5450 -0.0289
  161MOL0     O21121   7.198  10.636   4.963 -0.4404 -0.0939 -0.5091
  161MOL0     C21122   7.215  10.754   4.961  0.7211  0.2781  0.3711
  161MOL0     O21123   7.112  10.846   4.958  0.7420  0.1867  0.4227
  161MOL0     C21124   6.990  10.822   4.895  0.3356 -0.6095 -0.3505
  161MOL0     C21125   6.884  10.911   4.922 -0.6911 -1.2685  0.4799
  161MOL0     C21126   6.756  10.891   4.876  0.1522  0.2048  0.6152
  161MOL0     C21127   6.730  10.775   4.806 -0.2749 -0.2148 -0.6788
  161MOL0     O21128   6.607  10.752   4.759  0.0311 -0.3866  0.8052
  161MOL0     C21129   6.562  10.849   4.657 -0.7708  0.6592 -0.0625
  161MOL0     C21130   6.464  10.780   4.552 -0.4886 -0.1631 -0.4664
  161MOL0     C21131   6.533  10.668   4.469 -0.2360 -1.2367 -0.2400
  161MOL0     C21132   6.648  10.726   4.380  0.5424 -0.7464  0.7973
  161MOL0     C21133   6.733  10.621   4.295  0.9523 -0.4308 -0.2651
  161MOL0     C21134   6.673  10.586   4.159  0.3410 -0.0380 -0.9239
  161MOL0     C21135   6.777  10.537   4.060  0.3664  0.2450 -0.5308
  161MOL0     C21136   6.736  10.507   3.910  0.4788 -0.4489 -0.6112
  161MOL0     N21137   6.683  10.367   3.897  0.2244 -0.2589  0.9616
  161MOL0     C21138   6.591  10.305   3.974  0.6874  0.5861 -0.1098
  161MOL0     C21139   6.563  10.188   3.901  0.0644 -1.5188  0.9962
  161MOL0     C21140   6.461  10.085   3.940  0.8903 -0.0734 -0.1883
  161MOL0     C21141   6.316  10.121   3.895 -0.4719 -0.4618 -0.4567
  161MOL0     C21142   6.228   9.996   3.894 -0.7024 -0.0685  0.3165
  161MOL0     C21143   6.097  10.022   3.821  0.5658 -1.0147 -0.8890
  161MOL0     O21144   6.098   9.965   3.691 -0.9092 -0.0799 -0.5651
  161MOL0     C21145   5.978   9.965   3.621  0.6172  0.5248 -0.5826
  161MOL0     C21146   5.864  10.026   3.672 -0.6204 -0.3578 -0.1582
  161MOL0     C21147   5.733  10.015   3.612  0.1158  0.3460  0.2339
  161MOL0     C21148   5.713   9.936   3.501 -0.0495 -0.5912 -0.7211
  161MOL0     C21149   5.581   9.929   3.438 -0.3426 -0.7057 -0.0408
  161MOL0     O21150   5.587   9.878   3.310  0.9622  0.1139 -1.0410
  161MOL0     C21151   5.482   9.899   3.223 -0.5595 -0.3879 -0.8049
  161MOL0     C21152   5.455   9.784   3.145  0.3243 -0.7976 -0.6134
  161MOL0     C21153   5.349   9.786   3.049  0.8454 -0.8045  0.3366
  161MOL0     C21154   5.269   9.899   3.049  0.2405  0.0072 -0.6337
  161MOL0     O21155   5.160   9.901   2.963  0.6232  0.1132 -0.2110
  161MOL0     C21156   5.181   9.977   2.841  0.0589 -0.8005 -0.2171
  161MOL0     C21157   5.077  10.081   2.804  0.0578 -0.4250 -0.9069
  161MOL0     C21158   4.947  10.021   2.740 -1.1217  0.2343 -0.0914
  161MOL0     C21159   4.844  10.132   2.713 -0.0516  0.4861 -0.2130
  161MOL0     C21160   4.738  10.059   2.633  0.0648  0.1030  0.7230
  161MOL0     C21161   4.780  10.049   2.478  0.5675 -0.7712 -1.1054
  161MOL0     C21162   4.673   9.981   2.387 -0.2173  0.5772  0.7247
  161MOL0     C21163   4.673  10.044   2.252 -0.2109  0.0707  0.4480
  161MOL0    Cl21164   4.841  10.049   2.193  0.3921 -0.3584 -0.1666
  161MOL0     C21165   5.296  10.010   3.129 -0.5953 -0.2020  0.1839
  161MOL0     C21166   5.401  10.011   3.216  0.6899  1.0956  0.1557
  161MOL0     O21167   5.483   9.973   3.494 -0.2925  0.4042  0.9782
  161MOL0     C21168   5.827   9.877   3.449 -0.0689  0.6563  0.4484
  161MOL0     C21169   5.959   9.891   3.502 -0.3879 -0.3896  0.6581
  161MOL0     N21170   6.625  10.197   3.780  0.1792  0.1257 -1.4005
  161MOL0     N21171   6.697  10.302   3.779  0.0197  0.0026 -0.0304
  161MOL0     C21172   6.846  10.691   4.773 -0.3090  0.5242 -0.2429
  161MOL0     C21173   6.969  10.713   4.818 -0.2022 -0.4092 -0.1560
  161MOL0     C21174   7.354  10.808   4.961 -0.1133  0.6553 -0.0368
  161MOL0     C21175   7.479  10.732   4.968 -1.1021 -0.6509  0.1689
  161MOL0     C21176   7.603  10.798   4.961 -0.1784 -0.1761  0.0112
  161MOL0     C21177   7.614  10.934   4.976  0.0285 -0.5015  0.8237
  161MOL0     O21178   7.727  11.004   4.996  0.4177  0.6018 -0.3784
  161MOL0     C21179   7.821  10.953   5.094 -0.6951  0.8544 -0.4299
  161MOL0     C21180   7.932  11.062   5.106 -0.2144  0.1405  0.4373
  161MOL0     C21181   7.906  11.182   5.191  0.1745 -0.2103 -0.7859
  161MOL0     C21182   7.811  11.293   5.136  0.0647 -0.4164  0.3081
  161MOL0     C21183   7.895  11.362   5.034  0.2389  0.1567  0.1952
  161MOL0     C21184   7.960  11.440   4.963  0.9703 -0.0240  0.5264
  161MOL0     C21185   7.498  11.011   4.969 -0.3826 -0.2129  0.5013
  161MOL0     C21186   7.368  10.947   4.948 -0.3735  0.6390 -0.4259
  161MOL0     H21187   6.908  11.004   4.973 -1.5968 -1.1214  0.6562
  161MOL0     H21188   6.679  10.962   4.903  1.9244  1.8503  1.5029
  161MOL0     H21189   6.653  10.888   4.611 -0.6968  0.1351 -0.3726
  161MOL0     H21190   6.507  10.933   4.701  0.7058  0.9049  1.3924
  161MOL0     H21191   6.452  10.864   4.482 -1.8131  0.5840  0.6127
  161MOL0     H21192   6.367  10.748   4.592  1.2020 -2.6501  1.9279
  161MOL0     H21193   6.460  10.608   4.413 -1.1916  2.5607 -3.5431
  161MOL0     H21194   6.579  10.595   4.535  1.7740  0.4245  0.2987
  161MOL0     H21195   6.614  10.799   4.305  2.2875 -1.5748 -0.8979
  161MOL0     H21196   6.717  10.788   4.437  1.2290 -1.3279  0.6143
  161MOL0     H21197   6.737  10.525   4.347  0.1150 -0.2411  0.1682
  161MOL0     H21198   6.829  10.670   4.281  0.3260  0.8187 -0.3070
  161MOL0     H21199   6.612  10.664   4.113 -0.4307 -1.0931 -1.7588
  161MOL0     H21200   6.602  10.505   4.178  1.3634 -0.0865  4.0645
  161MOL0     H21201   6.850  10.618   4.056 -0.7798  1.2489 -3.2334
  161MOL0     H21202   6.825  10.445   4.096 -1.3073 -0.7142 -0.5944
  161MOL0     H21203   6.823  10.519   3.844  2.7446  0.7407  2.3412
  161MOL0     H21204   6.665  10.580   3.869 -1.8037 -4.2826 -4.2542
  161MOL0     H21205   6.541  10.340   4.064  0.3447  0.5060 -0.2677
  161MOL0     H21206   6.469  10.047   4.042  1.3361  0.7040  0.0737
  161MOL0     H21207   6.489   9.996   3.883 -0.1352  0.0622 -0.9436
  161MOL0     H21208   6.329  10.157   3.792 -0.8129 -0.8643 -0.6437
  161MOL0     H21209   6.275  10.190   3.969  2.1865  0.9766 -0.1914
  161MOL0     H21210   6.270   9.900   3.863  1.6363  0.0200  2.8494
  161MOL0     H21211   6.214   9.982   4.002 -1.7226 -0.4942  0.1476
  161MOL0     H21212   6.077  10.129   3.821  1.7447 -0.7332  1.6807
  161MOL0     H21213   6.019   9.981   3.885  1.8400  1.2275  2.3606
  161MOL0     H21214   5.861  10.087   3.762  0.6503  0.4623 -0.6478
  161MOL0     H21215   5.657  10.079   3.655 -1.3620 -2.0555  1.3844
  161MOL0     H21216   5.515   9.696   3.163  2.6901  1.1304  1.7574
  161MOL0     H21217   5.322   9.707   2.980  0.9912  2.0987 -3.3408
  161MOL0     H21218   5.195   9.904   2.760  1.2073  0.3891 -1.1253
  161MOL0     H21219   5.275  10.032   2.850  0.2631 -1.0789 -0.6008
  161MOL0     H21220   5.124  10.160   2.744  0.9364  1.5796  2.1725
  161MOL0     H21221   5.051  10.135   2.896  0.4660 -0.4069 -0.8009
  161MOL0     H21222   4.900   9.944   2.803 -1.1166 -0.7403 -1.2384
  161MOL0     H21223   4.974   9.961   2.652 -1.7337 -1.3464  0.7596
  161MOL0     H21224   4.811  10.176   2.808 -1.6849 -0.1248 -0.4656
  161MOL0     H21225   4.888  10.217   2.660 -1.2969 -0.7471 -3.5282
  161MOL0     H21226   4.647  10.118   2.651  1.6329  2.1449  2.4306
  161MOL0     H21227   4.713   9.961   2.673  0.9090 -0.9108 -1.1006
  161MOL0     H21228   4.870   9.989   2.466  1.1883 -0.7690  2.4391
  161MOL0     H21229   4.802  10.148   2.437 -0.5276  0.0172  0.1261
  161MOL0     H21230   4.702   9.875   2.382 -0.2405  0.5611  0.8986
  161MOL0     H21231   4.574   9.991   2.433 -0.0188 -0.3650  1.4057
  161MOL0     H21232   4.642  10.148   2.262  0.7725  0.2118  2.5293
  161MOL0     H21233   4.599   9.993   2.189 -2.0200 -0.1653  2.6362
  161MOL0     H21234   5.231  10.095   3.141  0.0598  0.0250  2.5397
  161MOL0     H21235   5.403  10.094   3.287 -2.4704  3.8268 -2.5874
  161MOL0     H21236   5.812   9.812   3.363  4.0662 -0.1866  0.1591
  161MOL0     H21237   6.041   9.847   3.446  0.5913  4.0570 -1.9184
  161MOL0     H21238   6.823  10.608   4.706 -0.6211  2.1830 -2.3158
  161MOL0     H21239   7.046  10.641   4.792  1.6458  0.3437  2.7322
  161MOL0     H21240   7.471  10.624   4.957 -0.6385 -0.4120 -4.5590
  161MOL0     H21241   7.696  10.745   4.977  1.3784  2.6131  0.7862
  161MOL0     H21242   7.862  10.858   5.059 -1.0512 -0.5523  2.6668
  161MOL0     H21243   7.769  10.936   5.188  0.2279 -2.0867 -0.3686
  161MOL0     H21244   8.018  11.009   5.149 -0.1023 -0.6554 -0.6945
  161MOL0     H21245   7.972  11.092   5.008  0.1463  3.6828  1.5493
  161MOL0     H21246   7.999  11.236   5.213  1.0860 -2.4266  1.2073
  161MOL0     H21247   7.878  11.154   5.292 -1.0657  3.0893 -0.0965
  161MOL0     H21248   7.727  11.237   5.096  0.5085 -1.8459  1.3100
  161MOL0     H21249   7.774  11.362   5.212  2.4529  0.6204  0.6482
  161MOL0     H21250   8.019  11.511   4.909  1.7558  0.3570  1.8411
  161MOL0     H21251   7.505  11.119   4.959 -0.9309 -0.2197 -0.0600
  161MOL0     H21252   7.278  11.001   4.920 -0.7043 -0.2982 -1.2322
  162MOL0     O21253   6.397   6.292  10.028 -0.3403  0.8537 -0.2535
  162MOL0     C21254   6.410   6.396  10.090  0.1947 -0.7385  0.2871
  162MOL0     O21255   6.519   6.482  10.103 -0.2392  0.0933 -0.1371
  162MOL0     C21256   6.634   6.443  10.038  0.2408 -0.9462 -0.4032
  162MOL0     C21257   6.644   6.455   9.897 -0.3379 -0.8424  0.3596
  162MOL0     C21258   6.765   6.411   9.834 -0.7250 -1.0946  0.3653
  162MOL0     C21259   6.864   6.347   9.906 -0.1172  0.6597  0.8251
  162MOL0     O21260   6.972   6.329   9.822 -0.5224 -0.7974 -0.2650
  162MOL0     C21261   7.101   6.349   9.888  0.1649 -0.1598 -0.4637
  162MOL0     C21262   7.201   6.263   9.815 -1.5774  0.6679 -0.2949
  162MOL0     C21263   7.213   6.118   9.874  0.1028  0.2465 -0.3387
  162MOL0     C21264   7.100   6.022   9.848 -0.0486 -0.4380  0.6149
  162MOL0     C21265   7.121   5.879   9.909 -0.6352  0.9683  0.0828
  162MOL0     C21266   7.009   5.779   9.873 -0.9800 -0.1761 -0.4597
  162MOL0     C21267   7.030   5.663   9.963  0.4368 -0.6025  0.2427
  162MOL0     C21268   6.909   5.571   9.982 -0.1214 -0.4318 -0.2285
  162MOL0     N21269   6.932   5.470  10.087  0.0250 -0.1737  0.1446
  162MOL0     C21270   7.007   5.356  10.072  0.0887 -0.1016 -0.2494
  162MOL0     C21271   6.958   5.281  10.173 -0.6829 -0.4483  0.6623
  162MOL0     C21272   7.005   5.145  10.206  0.1761  0.7460 -1.0093
  162MOL0     C21273   6.878   5.045  10.216  0.9703  0.1497 -0.1993
  162MOL0     C21274   6.920   4.897  10.223  0.0076 -1.5881 -0.0451
  162MOL0     C21275   6.803   4.802  10.275 -0.6811  0.2286 -0.1747
  162MOL0     O21276   6.729   4.724  10.180 -0.5005 -0.9350  0.0730
  162MOL0     C21277   6.812   4.624  10.126  0.1175  0.1914  0.9767
  162MOL0     C21278   6.933   4.579  10.167  0.6117  0.4857 -0.3560
  162MOL0     C21279   6.981   4.459  10.102 -0.2770  0.1573 -0.1151
  162MOL0     C21280   6.919   4.390  10.000  0.6604  0.2785 -0.2276
  162MOL0     C21281   6.974   4.261   9.951  0.4926  0.9765 -0.2702
  162MOL0     O21282   6.877   4.185   9.896  0.4274 -0.7319  0.5091
  162MOL0     C21283   6.917   4.092   9.810  0.2915 -0.2267 -0.4095
  162MOL0     C21284   6.906   3.957   9.864 -0.4264  0.5078 -0.6473
  162MOL0     C21285   6.957   3.854   9.784 -0.0934  0.0466  0.7538
  162MOL0     C21286   6.991   3.864   9.649 -1.0243 -0.1508 -0.2516
  162MOL0     O21287   7.026   3.751   9.585  0.1220 -0.3876 -0.5581
  162MOL0     C21288   7.026   3.763   9.436  0.7579  0.2072 -0.2353
  162MOL0     C21289   7.023   3.621   9.369 -0.6902  0.4734 -0.4004
  162MOL0     C21290   6.906   3.533   9.415  1.7021  0.3336 -0.2473
  162MOL0     C21291   6.874   3.406   9.332  0.7674 -0.4884 -0.2273
  162MOL0     C21292   6.750   3.331   9.380  0.9859 -0.5819  0.1009
  162MOL0     C21293   6.621   3.408   9.390  0.2404 -0.7393 -0.9293
  162MOL0     C21294   6.491   3.324   9.378 -0.3865  0.2510  0.4840
  162MOL0     C21295   6.375   3.424   9.394 -0.3309  0.3715 -0.9831
  162MOL0    Cl21296   6.348   3.478   9.555 -0.2447  0.3851 -0.3238
  162MOL0     C21297   6.995   3.993   9.591 -0.1411 -0.5914  0.1081
  162MOL0     C21298   6.968   4.105   9.675  0.6760 -0.1305  0.3358
  162MOL0     O21299   7.098   4.235   9.952  0.3155 -0.2947  0.9523
  162MOL0     C21300   6.797   4.447   9.952 -0.0609 -0.3944  1.1178
  162MOL0     C21301   6.756   4.559  10.011 -0.8825  0.9126  0.0671
  162MOL0     N21302   6.857   5.342  10.240 -0.9274 -0.0832 -0.5015
  162MOL0     N21303   6.848   5.456  10.196  0.9725  0.8708 -0.4847
  162MOL0     C21304   6.839   6.310  10.044 -0.0639 -0.1146  0.0906
  162MOL0     C21305   6.729   6.371  10.108  0.1822 -0.2056  0.5412
  162MOL0     C21306   6.269   6.456  10.120 -0.2369  0.1799 -0.0232
  162MOL0     C21307   6.158   6.378  10.121  0.6959  0.0144 -0.4906
  162MOL0     C21308   6.036   6.434  10.120 -0.0248  0.7221 -0.1518
  162MOL0     C21309   6.021   6.572  10.122  0.3748  0.2244  0.4841
  162MOL0     O21310   5.903   6.614  10.089  0.0691 -0.5400 -0.1234
  162MOL0     C21311   5.864   6.751  10.123 -0.3507 -0.3093  0.5437
  162MOL0     C21312   5.716   6.779  10.104  0.5734  0.1334  0.3162
  162MOL0     C21313   5.627   6.707  10.213 -0.7449 -0.0653  0.2916
  162MOL0     C21314   5.522   6.611  10.152 -0.1413  0.2779 -0.7566
  162MOL0     C21315   5.410   6.687  10.096 -0.4990  0.6902 -0.7994
  162MOL0     C21316   5.325   6.750  10.044  0.5794 -0.6981  0.2479
  162MOL0     C21317   6.135   6.652  10.128 -0.8286 -0.3824 -0.0369
  162MOL0     C21318   6.257   6.594  10.129  0.2362 -0.2560 -0.5212
  162MOL0     H21319   6.557   6.503   9.853 -0.0922  1.4707  2.1949
  162MOL0     H21320   6.773   6.432   9.728 -0.9254 -3.8344 -0.2884
  162MOL0     H21321   7.093   6.320   9.993 -2.1493 -2.2477 -1.1301
  162MOL0     H21322   7.115   6.457   9.880 -0.5793  0.1925  2.2102
  162MOL0     H21323   7.296   6.317   9.810 -0.3327 -1.5345 -2.6854
  162MOL0     H21324   7.173   6.249   9.710 -3.2532  0.5423  0.1359
  162MOL0     H21325   7.229   6.127   9.982  0.2353  1.1677 -0.4242
  162MOL0     H21326   7.299   6.058   9.842  0.1001 -2.2659  3.6526
  162MOL0     H21327   7.011   6.075   9.881  1.9977  3.3934  0.5098
  162MOL0     H21328   7.084   6.007   9.741 -0.7921  1.3980  0.4391
  162MOL0     H21329   7.125   5.906  10.015 -0.2848 -0.8971  0.5808
  162MOL0     H21330   7.219   5.845   9.876  0.6454  2.8157  1.7163
  162MOL0     H21331   7.033   5.751   9.770  1.1274  0.2442 -0.1320
  162MOL0     H21332   6.910   5.824   9.885 -1.3690 -1.4238  1.4828
  162MOL0     H21333   7.111   5.605   9.917  0.0144 -0.1137 -1.1733
  162MOL0     H21334   7.067   5.689  10.063 -1.3544  2.2335  0.2647
  162MOL0     H21335   6.878   5.532   9.884  3.3750 -1.0437 -1.2272
  162MOL0     H21336   6.824   5.633  10.013  1.8684  2.5357 -0.2603
  162MOL0     H21337   7.086   5.339  10.000 -0.8055 -0.2150 -1.2408
  162MOL0     H21338   7.062   5.146  10.299 -2.5874 -2.3133  0.9453
  162MOL0     H21339   7.072   5.107  10.129  1.8488  1.1942  0.1798
  162MOL0     H21340   6.816   5.059  10.127  0.0340  0.1557  0.4475
  162MOL0     H21341   6.818   5.076  10.302  2.6803  0.2048  1.0261
  162MOL0     H21342   6.930   4.866  10.119 -5.0962  2.9100 -2.3366
  162MOL0     H21343   7.000   4.869  10.293  1.2974  2.0593  0.1617
  162MOL0     H21344   6.732   4.875  10.316  0.7648  2.2560 -1.1370
  162MOL0     H21345   6.838   4.740  10.359 -0.3740  2.0493  1.1164
  162MOL0     H21346   6.991   4.595  10.258  2.0230 -2.5085 -0.6166
  162MOL0     H21347   7.077   4.422  10.136  0.1956  2.2218  0.9931
  162MOL0     H21348   6.873   3.948   9.967 -0.8685 -0.4211 -0.8597
  162MOL0     H21349   6.962   3.755   9.828  0.8237 -0.2478  0.0174
  162MOL0     H21350   7.111   3.822   9.402 -0.2922  0.8430 -1.8419
  162MOL0     H21351   6.934   3.810   9.398  0.4290 -0.4843 -0.3222
  162MOL0     H21352   7.113   3.562   9.389 -0.6505  1.2967  2.2718
  162MOL0     H21353   7.036   3.643   9.263 -0.1170  0.4273 -0.3427
  162MOL0     H21354   6.823   3.603   9.412  1.6365  0.3092  0.6086
  162MOL0     H21355   6.918   3.498   9.518 -0.2689  2.2397  0.7162
  162MOL0     H21356   6.864   3.432   9.226 -0.3306  0.9904  0.1939
  162MOL0     H21357   6.954   3.333   9.344 -0.3945 -1.6834  0.4426
  162MOL0     H21358   6.774   3.271   9.468  1.8819 -0.2029  0.1291
  162MOL0     H21359   6.727   3.251   9.308  0.4209 -2.7332  2.5411
  162MOL0     H21360   6.626   3.476   9.304  0.3863 -1.3297 -1.3909
  162MOL0     H21361   6.612   3.468   9.481 -2.3594  1.3807 -2.4310
  162MOL0     H21362   6.483   3.270   9.283  1.9633  2.3734 -1.0425
  162MOL0     H21363   6.492   3.250   9.459  3.3820 -2.4966 -1.7519
  162MOL0     H21364   6.279   3.391   9.352  0.3974 -2.2780 -0.7689
  162MOL0     H21365   6.404   3.515   9.341  1.2982 -0.4390 -1.5678
  162MOL0     H21366   7.021   4.016   9.489  0.2327 -1.2079  0.0610
  162MOL0     H21367   6.982   4.208   9.644  5.6820 -1.4071 -2.7713
  162MOL0     H21368   6.741   4.406   9.869 -0.3400 -0.9562  1.5734
  162MOL0     H21369   6.659   4.599   9.984 -0.8352 -0.1296 -1.7832
  162MOL0     H21370   6.907   6.253  10.107  3.5454  4.5938  0.9640
  162MOL0     H21371   6.716   6.345  10.212 -0.7850  1.2537  0.8110
  162MOL0     H21372   6.172   6.270  10.116 -0.3160 -0.4318  3.2986
  162MOL0     H21373   5.946   6.373  10.117  0.8344 -0.7002  1.1655
  162MOL0     H21374   5.923   6.828  10.072  1.2548 -1.1211  1.0830
  162MOL0     H21375   5.877   6.763  10.231 -0.7952 -0.6169  0.6324
  162MOL0     H21376   5.676   6.880  10.114 -4.8298 -1.5440 -1.0027
  162MOL0     H21377   5.697   6.754   9.999 -0.3238  2.1055 -0.0239
  162MOL0     H21378   5.583   6.789  10.272 -0.1838  3.0410 -3.2034
  162MOL0     H21379   5.685   6.649  10.285  0.9423  0.1851 -0.8022
  162MOL0     H21380   5.563   6.537  10.082 -3.7308 -0.7477 -2.0008
  162MOL0     H21381   5.488   6.538  10.226 -0.8707  2.1126  0.7939
  162MOL0     H21382   5.245   6.803   9.995 -0.6865 -0.3331  2.5539
  162MOL0     H21383   6.125   6.760  10.135  1.8582  0.0522 -1.3868
  162MOL0     H21384   6.341   6.661  10.145 -0.2899 -0.2316  2.7420
  163MOL0     O21385   0.596  10.048   3.289  0.1942 -0.1135 -0.2960
  163MOL0     C21386   0.493  10.025   3.355 -0.0145  0.0436 -0.6201
  163MOL0     O21387   0.494   9.950   3.471 -0.9676  0.4219 -1.3178
  163MOL0     C21388   0.614   9.892   3.504  0.0660 -0.6043 -0.3919
  163MOL0     C21389   0.684   9.957   3.611  0.3691 -0.5602 -0.9337
  163MOL0     C21390   0.789   9.903   3.676  0.0638 -1.1364  0.0023
  163MOL0     C21391   0.846   9.783   3.631  0.8350 -0.0783  0.0543
  163MOL0     O21392   0.954   9.716   3.684  0.6504 -0.0533  0.4542
  163MOL0     C21393   1.042   9.787   3.769 -0.0299  0.9819 -0.2070
  163MOL0     C21394   1.107   9.679   3.860 -0.0259  0.4602  0.0833
  163MOL0     C21395   1.260   9.664   3.845  0.3689 -0.5814  0.0503
  163MOL0     C21396   1.322   9.597   3.974  0.8796  0.0460  0.2147
  163MOL0     C21397   1.460   9.564   3.967  0.2742  1.1647  0.9552
  163MOL0     C21398   1.511   9.500   4.094  0.2018 -1.0922  0.7649
  163MOL0     C21399   1.662   9.458   4.075  0.4778 -0.3148 -0.8562
  163MOL0     C21400   1.721   9.392   4.206  0.2448  0.2098 -0.2019
  163MOL0     N21401   1.854   9.332   4.190 -0.3314 -0.0085 -0.4113
  163MOL0     C21402   1.896   9.197   4.200  0.0456 -0.8219 -0.3263
  163MOL0     C21403   2.035   9.202   4.205  0.2204  0.3435  0.5271
  163MOL0     C21404   2.123   9.081   4.215 -0.0164  0.5500  0.5496
  163MOL0     C21405   2.102   8.977   4.110  0.5992 -0.4096 -0.2431
  163MOL0     C21406   2.218   8.876   4.110 -0.1366  0.0639  0.4769
  163MOL0     C21407   2.169   8.763   4.016 -0.2453 -0.2867 -0.3924
  163MOL0     O21408   2.274   8.664   4.024  0.1592 -0.3315  0.4282
  163MOL0     C21409   2.266   8.568   3.913  0.0915  0.2693 -0.0371
  163MOL0     C21410   2.297   8.435   3.961  0.3215  0.0063  0.3559
  163MOL0     C21411   2.303   8.336   3.861 -0.1824 -0.1663 -0.2612
  163MOL0     C21412   2.275   8.363   3.726  0.1890 -0.8417 -0.4962
  163MOL0     C21413   2.293   8.268   3.622  0.7177 -0.5031  0.6534
  163MOL0     O21414   2.320   8.144   3.660 -0.3252 -0.2031  0.2409
  163MOL0     C21415   2.421   8.079   3.600  0.3845  0.0279  1.0029
  163MOL0     C21416   2.413   7.940   3.568  0.2783 -0.5825 -0.6717
  163MOL0     C21417   2.509   7.869   3.493 -0.3135  0.0285 -0.2193
  163MOL0     C21418   2.635   7.930   3.477  0.1312  0.3926  0.2359
  163MOL0     O21419   2.723   7.858   3.396 -0.7887  0.2762 -0.3994
  163MOL0     C21420   2.842   7.919   3.349  0.2281  0.4250 -0.9075
  163MOL0     C21421   2.907   7.819   3.247 -0.0228  0.8102 -0.6238
  163MOL0     C21422   2.914   7.675   3.299 -0.7767  0.2920  1.2388
  163MOL0     C21423   3.004   7.598   3.213 -0.6098  0.2186 -0.1688
  163MOL0     C21424   3.017   7.441   3.246 -0.4029 -0.0887  0.3492
  163MOL0     C21425   3.137   7.388   3.182 -0.4948 -0.1608 -0.5371
  163MOL0     C21426   3.151   7.243   3.238  0.4874 -0.5093 -0.1665
  163MOL0     C21427   3.052   7.153   3.179  0.5556  0.6212 -1.0550
  163MOL0    Cl21428   3.100   6.981   3.192 -0.0428 -0.1030  0.2812
  163MOL0     C21429   2.658   8.063   3.523  0.2695 -0.1078  0.0436
  163MOL0     C21430   2.554   8.136   3.582  0.0146  0.2853  0.5444
  163MOL0     O21431   2.253   8.304   3.509 -0.1513 -0.6679 -0.2744
  163MOL0     C21432   2.241   8.496   3.685 -0.3330 -0.6971  0.9019
  163MOL0     C21433   2.231   8.594   3.783 -0.5937  0.6050 -0.5194
  163MOL0     N21434   2.062   9.339   4.221  0.2149 -0.1243  0.1485
  163MOL0     N21435   1.955   9.412   4.219  0.1518 -0.1187 -0.5618
  163MOL0     C21436   0.789   9.730   3.514  1.2078  0.5709  0.7064
  163MOL0     C21437   0.661   9.779   3.455 -1.1620 -0.0710 -0.4134
  163MOL0     C21438   0.375  10.077   3.307  0.4599  0.9681  0.5208
  163MOL0     C21439   0.248  10.022   3.339 -0.8035  0.2390  0.5517
  163MOL0     C21440   0.126  10.089   3.322  0.6502 -0.4401  0.1859
  163MOL0     C21441   0.126  10.206   3.249 -0.9556 -0.2340 -0.0039
  163MOL0     O21442   0.008  10.260   3.227  0.6862 -0.4590 -0.1839
  163MOL0     C21443  -0.000  10.349   3.107  0.0452  0.8158  0.4882
  163MOL0     C21444  -0.028  10.491   3.157  0.9131  0.0686  0.2150
  163MOL0     C21445  -0.155  10.502   3.242 -0.3575  0.1014  0.2191
  163MOL0     C21446  -0.180  10.652   3.271 -1.2918 -0.1198 -0.0212
  163MOL0     C21447  -0.264  10.686   3.388 -0.5293 -0.4442  0.1119
  163MOL0     C21448  -0.331  10.720   3.476 -0.6097  0.3030  0.5655
  163MOL0     C21449   0.249  10.253   3.202  0.2892 -0.3646  0.3664
  163MOL0     C21450   0.372  10.198   3.240  0.4146  0.1583  0.8778
  163MOL0     H21451   0.644  10.052   3.644 -0.7951 -1.6679  0.9953
  163MOL0     H21452   0.826   9.953   3.764 -0.5643  2.6227 -1.6821
  163MOL0     H21453   1.004   9.868   3.832 -0.3575  0.5225  0.1898
  163MOL0     H21454   1.124   9.827   3.708  1.1619 -2.1482 -0.8278
  163MOL0     H21455   1.057   9.582   3.855  3.2869 -1.4563  0.9039
  163MOL0     H21456   1.099   9.712   3.964 -2.3419  1.5490 -0.3741
  163MOL0     H21457   1.306   9.756   3.811 -3.0776  1.9921  1.7113
  163MOL0     H21458   1.272   9.586   3.769 -1.3739 -0.0924 -0.7927
  163MOL0     H21459   1.308   9.668   4.057 -1.8650  0.1804 -0.2916
  163MOL0     H21460   1.264   9.507   3.993  1.8195 -0.4294  0.9231
  163MOL0     H21461   1.516   9.652   3.935  1.2191 -0.0785 -1.0137
  163MOL0     H21462   1.468   9.493   3.883 -2.1675 -1.8027  2.9972
  163MOL0     H21463   1.452   9.411   4.114  1.8159 -1.7580  2.9190
  163MOL0     H21464   1.509   9.573   4.176  3.5006 -1.4093  1.2528
  163MOL0     H21465   1.679   9.400   3.984 -0.1266 -1.4005 -0.2941
  163MOL0     H21466   1.722   9.548   4.059  1.7806  0.3211  5.1768
  163MOL0     H21467   1.648   9.315   4.232  0.1164  0.8228  1.3515
  163MOL0     H21468   1.728   9.465   4.287  0.5641 -1.5628  1.4458
  163MOL0     H21469   1.832   9.109   4.199 -2.8436  1.1583 -1.4806
  163MOL0     H21470   2.101   9.040   4.314 -1.3254  0.4580  0.2310
  163MOL0     H21471   2.226   9.117   4.206 -0.6375  2.3005 -0.0300
  163MOL0     H21472   2.080   9.028   4.016  0.3465  0.5495  0.3150
  163MOL0     H21473   2.011   8.921   4.134  0.9328 -0.2027  1.6734
  163MOL0     H21474   2.315   8.918   4.081  0.9611 -1.5167  1.6609
  163MOL0     H21475   2.222   8.854   4.217 -1.1271  4.8588  1.7516
  163MOL0     H21476   2.153   8.817   3.922  3.5689 -0.1800 -1.1649
  163MOL0     H21477   2.073   8.718   4.043 -1.1406  1.0826 -1.2224
  163MOL0     H21478   2.320   8.426   4.066 -3.1075  0.7289  1.2641
  163MOL0     H21479   2.342   8.237   3.882  1.5838  0.2915 -1.1824
  163MOL0     H21480   2.318   7.886   3.573  0.4637 -0.8649 -0.1414
  163MOL0     H21481   2.488   7.789   3.423 -1.2800  2.9741 -3.5764
  163MOL0     H21482   2.912   7.916   3.433 -2.1981 -0.8467  1.1797
  163MOL0     H21483   2.840   8.025   3.323 -0.5815  0.2704 -1.5192
  163MOL0     H21484   3.011   7.842   3.225  0.8323 -5.2884 -5.6546
  163MOL0     H21485   2.861   7.832   3.149 -0.2065  0.0405 -0.6495
  163MOL0     H21486   2.811   7.640   3.293 -1.3499  2.1305 -0.3340
  163MOL0     H21487   2.946   7.662   3.403 -0.6007  0.9901  1.2737
  163MOL0     H21488   2.977   7.597   3.107 -0.9186  0.1819 -0.0902
  163MOL0     H21489   3.104   7.643   3.221  0.6876 -2.8307  4.3004
  163MOL0     H21490   2.922   7.398   3.213  0.3323 -1.2976 -0.2629
  163MOL0     H21491   3.037   7.433   3.353  1.3436  1.0450  0.1457
  163MOL0     H21492   3.234   7.435   3.202  1.6159 -2.5777 -4.0086
  163MOL0     H21493   3.127   7.389   3.073  1.7864  2.2956 -0.8120
  163MOL0     H21494   3.248   7.197   3.218  0.1461 -2.5976  2.4938
  163MOL0     H21495   3.139   7.244   3.346 -0.4594  0.9938 -0.2483
  163MOL0     H21496   3.062   7.174   3.072  2.5215  2.9171 -0.5226
  163MOL0     H21497   2.955   7.170   3.227  0.5667  2.1713 -1.5455
  163MOL0     H21498   2.757   8.107   3.524  0.0170  0.6780 -2.3306
  163MOL0     H21499   2.568   8.231   3.632 -2.0794  0.8958  0.0550
  163MOL0     H21500   2.224   8.534   3.585  1.1961  3.2250  1.9608
  163MOL0     H21501   2.195   8.694   3.763  2.2847  2.9061  4.0586
  163MOL0     H21502   0.817   9.633   3.475  0.3842 -0.1603  1.8848
  163MOL0     H21503   0.605   9.740   3.370 -1.2401  1.5744 -1.1510
  163MOL0     H21504   0.250   9.932   3.398 -2.4567 -0.5871 -0.5570
  163MOL0     H21505   0.032  10.041   3.349  0.1372 -1.3154 -2.7736
  163MOL0     H21506  -0.087  10.321   3.046  0.7964 -1.3629  0.3402
  163MOL0     H21507   0.092  10.353   3.048 -2.1048 -0.1777 -3.3117
  163MOL0     H21508   0.068  10.520   3.201  2.4109 -4.0256  0.0591
  163MOL0     H21509  -0.026  10.550   3.065 -0.0874 -2.5288 -1.5613
  163MOL0     H21510  -0.133  10.440   3.329  2.5051  1.0063  0.2595
  163MOL0     H21511  -0.233  10.465   3.174 -2.6493  2.5403  1.3476
  163MOL0     H21512  -0.084  10.699   3.294 -1.8039  0.8584  0.1659
  163MOL0     H21513  -0.233  10.701   3.189 -1.0315  2.2347  1.1338
  163MOL0     H21514  -0.377  10.754   3.566 -3.0364  0.9956 -0.8330
  163MOL0     H21515   0.251  10.354   3.161 -2.7246 -0.6427 -0.6896
  163MOL0     H21516   0.468  10.245   3.219 -0.0136  1.8173  2.4125
  164MOL0     O21517   1.281   7.481   3.958 -1.2896  0.5203 -0.3725
  164MOL0     C21518   1.377   7.563   3.964  0.0138 -0.2187  0.5753
  164MOL0     O21519   1.508   7.534   3.994 -0.3429 -0.0298 -0.6004
  164MOL0     C21520   1.565   7.412   4.035  0.2438  0.6090  0.0892
  164MOL0     C21521   1.704   7.415   4.076  0.0620 -0.6311  0.3675
  164MOL0     C21522   1.767   7.312   4.142  0.5720  0.2140 -0.7914
  164MOL0     C21523   1.687   7.197   4.167 -0.7569  1.0401  0.6662
  164MOL0     O21524   1.728   7.089   4.240  0.0447  0.6255  0.0248
  164MOL0     C21525   1.869   7.056   4.230 -0.0916 -0.3361 -0.4706
  164MOL0     C21526   1.898   6.904   4.251  0.7296 -0.4368  0.3472
  164MOL0     C21527   1.824   6.837   4.135  0.8373  0.2945  0.1084
  164MOL0     C21528   1.860   6.687   4.131  0.6261 -0.7995  0.7520
  164MOL0     C21529   1.823   6.629   3.994  0.9984  0.5484 -0.9716
  164MOL0     C21530   1.675   6.599   3.970 -0.0022 -0.1610  0.4549
  164MOL0     C21531   1.647   6.481   3.884 -0.1902 -0.9250 -0.1929
  164MOL0     C21532   1.685   6.484   3.735  1.0380 -0.4026  0.0581
  164MOL0     N21533   1.650   6.602   3.660  0.4822  0.3538  0.3738
  164MOL0     C21534   1.731   6.710   3.621  0.0981  1.5022  0.2735
  164MOL0     C21535   1.652   6.810   3.584  0.0184 -0.8214 -1.3600
  164MOL0     C21536   1.702   6.943   3.544 -0.0858  0.2059 -0.7935
  164MOL0     C21537   1.749   7.032   3.672  0.5991 -0.3392 -0.1290
  164MOL0     C21538   1.639   7.055   3.774  0.6088  0.0779  0.3009
  164MOL0     C21539   1.518   7.126   3.711 -0.0719  0.5115  0.6422
  164MOL0     O21540   1.566   7.233   3.626  0.4296  0.8795  0.5484
  164MOL0     C21541   1.483   7.344   3.608 -0.9494  0.2227 -0.1584
  164MOL0     C21542   1.351   7.343   3.563 -0.1393  0.0665 -0.5169
  164MOL0     C21543   1.291   7.466   3.530 -0.0592 -0.8520 -0.7961
  164MOL0     C21544   1.369   7.580   3.524 -0.4669  0.4908  0.6213
  164MOL0     C21545   1.304   7.709   3.474 -1.7654  0.2487  0.6491
  164MOL0     O21546   1.169   7.711   3.453  0.6151 -0.5439 -0.1931
  164MOL0     C21547   1.112   7.836   3.421 -0.1192  0.6093 -0.5825
  164MOL0     C21548   1.150   7.905   3.303 -0.3424  1.0193 -0.9783
  164MOL0     C21549   1.089   8.015   3.255 -0.2021  0.4129  0.0974
  164MOL0     C21550   0.998   8.086   3.335  0.0322 -0.0138  0.8906
  164MOL0     O21551   0.958   8.210   3.285  0.2095  1.1634 -0.5079
  164MOL0     C21552   0.970   8.321   3.380  1.1834 -0.1040  0.2134
  164MOL0     C21553   0.903   8.453   3.327  0.1873  0.4419  0.5399
  164MOL0     C21554   0.948   8.467   3.183  0.3319 -0.3727 -0.2306
  164MOL0     C21555   0.887   8.598   3.137  0.9709 -0.0546  0.8004
  164MOL0     C21556   0.763   8.565   3.042 -0.0016  0.0667 -0.1890
  164MOL0     C21557   0.822   8.544   2.905  0.5998  0.6576  0.6326
  164MOL0     C21558   0.717   8.527   2.805  0.3815  0.6142  0.6238
  164MOL0     C21559   0.709   8.653   2.719 -0.6741  0.5551 -0.2136
  164MOL0    Cl21560   0.632   8.789   2.800  0.9559  0.2394 -0.3119
  164MOL0     C21561   0.957   8.027   3.452 -0.0604  0.2647 -0.3773
  164MOL0     C21562   1.009   7.901   3.492 -0.0376  0.0658  0.0590
  164MOL0     O21563   1.373   7.812   3.475 -0.0386 -0.4585 -0.6566
  164MOL0     C21564   1.491   7.578   3.591 -0.4276 -0.1600  1.0266
  164MOL0     C21565   1.547   7.466   3.632 -0.1923  0.2521  0.6071
  164MOL0     N21566   1.521   6.765   3.611 -1.0543  0.1831 -0.0573
  164MOL0     N21567   1.526   6.652   3.662  0.4952  0.0668 -0.0246
  164MOL0     C21568   1.553   7.188   4.129 -0.8067  0.3510  1.0531
  164MOL0     C21569   1.490   7.289   4.061  0.3852  0.4277 -0.3839
  164MOL0     C21570   1.335   7.702   3.950  0.1410  0.6777  0.5854
  164MOL0     C21571   1.413   7.800   4.014  0.6319 -0.2628  0.3170
  164MOL0     C21572   1.382   7.933   4.003 -0.2465  1.3849  0.1725
  164MOL0     C21573   1.270   7.968   3.925  0.1526 -0.5233 -0.8869
  164MOL0     O21574   1.249   8.097   3.891  0.1602  0.2457  0.6972
  164MOL0     C21575   1.322   8.134   3.775  0.2122  0.1041 -0.9392
  164MOL0     C21576   1.265   8.270   3.715  0.1405 -0.1403 -0.1354
  164MOL0     C21577   1.358   8.332   3.610  0.1193 -0.6037 -1.0515
  164MOL0     C21578   1.377   8.269   3.472  1.5602 -0.2630 -0.1089
  164MOL0     C21579   1.518   8.230   3.451  0.4169 -0.0374 -0.0064
  164MOL0     C21580   1.639   8.197   3.440  0.2290  0.6452 -0.3099
  164MOL0     C21581   1.183   7.871   3.875  0.7353  0.4757 -0.2643
  164MOL0     C21582   1.215   7.737   3.881  0.3244  0.6694 -0.3950
  164MOL0     H21583   1.762   7.505   4.055 -1.6867  0.1724 -1.2770
  164MOL0     H21584   1.872   7.316   4.169  0.0945  1.9974  1.0266
  164MOL0     H21585   1.928   7.109   4.305  1.5411  1.8813 -3.1123
  164MOL0     H21586   1.915   7.096   4.139 -0.6990  0.8594 -0.2744
  164MOL0     H21587   1.869   6.887   4.355 -0.3881  4.2257  1.0044
  164MOL0     H21588   2.006   6.887   4.251  0.5666 -1.9141  2.4700
  164MOL0     H21589   1.855   6.886   4.043  0.4817  1.5728  0.6509
  164MOL0     H21590   1.715   6.845   4.141  0.4448 -3.8968  2.9596
  164MOL0     H21591   1.969   6.693   4.137  0.4981  3.3725  1.8218
  164MOL0     H21592   1.812   6.632   4.212 -2.3433 -1.6076 -1.3550
  164MOL0     H21593   1.867   6.531   3.976 -0.2816 -0.2732  0.1922
  164MOL0     H21594   1.844   6.678   3.898 -3.0292 -0.4828 -2.5674
  164MOL0     H21595   1.605   6.681   3.950 -0.7918 -0.1869  2.7448
  164MOL0     H21596   1.628   6.576   4.067 -1.3404  1.5771  0.2908
  164MOL0     H21597   1.709   6.397   3.914  2.2703  0.5319 -0.9003
  164MOL0     H21598   1.540   6.464   3.898  0.0744 -1.0491  2.0867
  164MOL0     H21599   1.623   6.406   3.690  0.0374 -0.6581  1.7904
  164MOL0     H21600   1.793   6.475   3.718  1.2558  1.1715  0.4302
  164MOL0     H21601   1.840   6.715   3.625  0.2152  0.5561 -1.0603
  164MOL0     H21602   1.624   6.998   3.491 -1.3346  1.4895  2.1758
  164MOL0     H21603   1.788   6.936   3.477  1.5638 -1.5947  1.3246
  164MOL0     H21604   1.793   7.125   3.634 -0.3324 -0.2053 -0.9099
  164MOL0     H21605   1.831   6.978   3.721  1.2963  1.0966  0.3604
  164MOL0     H21606   1.609   6.959   3.818 -1.5690  0.5199 -0.1071
  164MOL0     H21607   1.673   7.108   3.863 -1.8290  2.0762  0.1364
  164MOL0     H21608   1.457   7.158   3.796 -1.9107  2.6382 -1.3169
  164MOL0     H21609   1.451   7.060   3.656  2.9518 -1.9991 -0.2920
  164MOL0     H21610   1.299   7.248   3.550 -2.5033  1.4396 -1.9377
  164MOL0     H21611   1.190   7.459   3.492  0.6192  0.5599 -3.0856
  164MOL0     H21612   1.230   7.866   3.242 -0.4206 -3.2376  1.2987
  164MOL0     H21613   1.130   8.064   3.168  0.7751 -2.6340 -1.2899
  164MOL0     H21614   1.077   8.339   3.395  0.5246  2.7384  2.2142
  164MOL0     H21615   0.923   8.292   3.474  0.2843 -1.9243 -0.7472
  164MOL0     H21616   0.937   8.536   3.388 -3.6337  1.4269  1.5714
  164MOL0     H21617   0.795   8.449   3.343  0.4537 -0.0391  2.4389
  164MOL0     H21618   0.916   8.379   3.128  0.5215 -0.2778 -0.4966
  164MOL0     H21619   1.057   8.474   3.176  0.3553  0.7654  0.7703
  164MOL0     H21620   0.848   8.657   3.221 -1.5367 -2.2985  1.3447
  164MOL0     H21621   0.952   8.657   3.071 -1.2254 -0.7294 -2.1784
  164MOL0     H21622   0.696   8.651   3.044 -2.5666 -1.8098  1.5758
  164MOL0     H21623   0.691   8.489   3.073 -0.9146 -0.5628 -3.4824
  164MOL0     H21624   0.866   8.444   2.894 -3.8719 -1.3324 -2.1238
  164MOL0     H21625   0.885   8.628   2.878  1.2124  0.9591  2.8200
  164MOL0     H21626   0.749   8.452   2.733  1.9988  2.3027 -0.5375
  164MOL0     H21627   0.618   8.502   2.842 -0.4750  2.6336 -0.1471
  164MOL0     H21628   0.637   8.643   2.637 -2.3662 -1.6622  1.4535
  164MOL0     H21629   0.809   8.690   2.695 -1.0305  1.1596 -0.8051
  164MOL0     H21630   0.879   8.085   3.500 -0.7078  0.1190 -1.2251
  164MOL0     H21631   0.979   7.855   3.586 -1.9813 -2.1622 -1.5405
  164MOL0     H21632   1.529   7.675   3.624 -0.9679  0.7445 -0.8855
  164MOL0     H21633   1.635   7.465   3.696 -0.3546  0.8012  0.8406
  164MOL0     H21634   1.490   7.101   4.143 -4.8268  2.7731 -0.1211
  164MOL0     H21635   1.385   7.284   4.034  1.3261 -2.3831 -4.3360
  164MOL0     H21636   1.507   7.774   4.062 -0.1742 -1.8418  1.1314
  164MOL0     H21637   1.453   8.001   4.050  4.4210 -0.8594 -2.8811
  164MOL0     H21638   1.309   8.057   3.698 -1.0141 -0.4259 -0.2175
  164MOL0     H21639   1.431   8.143   3.786  0.1463 -0.5635  0.4799
  164MOL0     H21640   1.179   8.244   3.652  0.0574 -1.0984  0.3434
  164MOL0     H21641   1.232   8.341   3.791  0.8183 -0.3699  0.3870
  164MOL0     H21642   1.458   8.333   3.654  0.0976 -1.5377 -0.9667
  164MOL0     H21643   1.319   8.433   3.596 -0.2249 -0.5138  0.4585
  164MOL0     H21644   1.310   8.183   3.465 -2.5059  2.5432  0.6263
  164MOL0     H21645   1.347   8.333   3.389 -0.2558  0.8978  1.3597
  164MOL0     H21646   1.742   8.172   3.427  0.3775  0.7741  0.5351
  164MOL0     H21647   1.092   7.895   3.820  0.7904 -2.4544 -1.8371
  164MOL0     H21648   1.155   7.662   3.831  1.2650 -0.0331 -0.4912
  165MOL0     O21649   1.181   6.722   0.364 -0.5875 -0.0834  0.1731
  165MOL0     C21650   1.173   6.621   0.437  0.5828  0.0594 -1.0136
  165MOL0     O21651   1.276   6.544   0.490  0.4866 -1.0965 -0.1617
  165MOL0     C21652   1.404   6.548   0.433  0.5100 -0.3989 -0.4776
  165MOL0     C21653   1.515   6.530   0.510 -0.5351 -0.0113  0.6735
  165MOL0     C21654   1.642   6.536   0.446 -0.9869  0.4346 -0.2296
  165MOL0     C21655   1.647   6.540   0.306 -0.1597  0.5879  0.2144
  165MOL0     O21656   1.771   6.554   0.237  0.3777  0.3930 -0.3419
  165MOL0     C21657   1.826   6.683   0.228  0.6519 -0.2501 -0.2607
  165MOL0     C21658   1.816   6.733   0.078 -1.1800  1.1678 -0.3452
  165MOL0     C21659   1.890   6.642  -0.021 -0.2350 -0.4164  0.2379
  165MOL0     C21660   1.901   6.716  -0.157  0.1609  0.7094  0.2398
  165MOL0     C21661   1.985   6.644  -0.264 -0.4108  0.6885 -0.2729
  165MOL0     C21662   1.952   6.494  -0.262 -0.1610  0.6689  1.2283
  165MOL0     C21663   2.013   6.429  -0.383  0.4830 -0.5689  0.9518
  165MOL0     C21664   1.925   6.429  -0.509  0.2410  0.3863 -0.2911
  165MOL0     N21665   1.999   6.373  -0.627 -0.6036 -1.1811  0.1016
  165MOL0     C21666   1.941   6.331  -0.740  0.0633  1.0670  0.1554
  165MOL0     C21667   2.041   6.307  -0.820 -0.5245 -0.3527 -0.5535
  165MOL0     C21668   2.024   6.264  -0.961 -0.3780 -0.4278  0.4064
  165MOL0     C21669   2.012   6.383  -1.052 -1.2631 -0.2782  0.4202
  165MOL0     C21670   2.096   6.356  -1.181 -0.8082  0.1471 -0.3782
  165MOL0     C21671   2.071   6.475  -1.273 -0.4553 -0.6214  0.1369
  165MOL0     O21672   1.934   6.473  -1.320 -0.1485  0.0860 -0.7429
  165MOL0     C21673   1.890   6.425  -1.438  0.2925  0.5287  0.3666
  165MOL0     C21674   1.944   6.313  -1.506 -1.0008 -0.4540 -1.3100
  165MOL0     C21675   1.883   6.249  -1.612 -0.6464  0.2694 -0.0160
  165MOL0     C21676   1.767   6.302  -1.662  0.6981 -1.0118 -0.1387
  165MOL0     C21677   1.695   6.237  -1.776  1.2799  0.1372 -1.1008
  165MOL0     O21678   1.568   6.268  -1.814 -0.1641 -0.5515 -0.4295
  165MOL0     C21679   1.501   6.177  -1.900  0.0710  0.3354  0.4848
  165MOL0     C21680   1.496   6.205  -2.041  0.2787 -1.0384  0.2716
  165MOL0     C21681   1.435   6.117  -2.129 -0.3815 -1.0254  0.0938
  165MOL0     C21682   1.371   5.999  -2.078  0.3846  0.0283 -0.4199
  165MOL0     O21683   1.310   5.905  -2.148 -0.7496 -0.0891  0.2683
  165MOL0     C21684   1.333   5.896  -2.288  0.0239 -0.9729 -0.2636
  165MOL0     C21685   1.206   5.941  -2.344  0.4361  0.4071 -0.6289
  165MOL0     C21686   1.198   5.951  -2.497 -0.6073 -0.6303 -0.7940
  165MOL0     C21687   1.232   5.823  -2.570  0.8189 -0.2211  0.0049
  165MOL0     C21688   1.222   5.846  -2.716  0.7031  0.6826  1.1291
  165MOL0     C21689   1.079   5.841  -2.757  0.2584  0.4717 -0.0345
  165MOL0     C21690   1.048   5.843  -2.902  1.0123  0.2442 -1.2114
  165MOL0     C21691   1.142   5.753  -2.985  0.3095 -0.6479  0.5944
  165MOL0    Cl21692   1.138   5.581  -2.931  0.0033 -0.3849 -0.1193
  165MOL0     C21693   1.373   5.978  -1.931  0.3969  0.4273  0.7007
  165MOL0     C21694   1.439   6.072  -1.847  0.0731  0.5075 -0.7123
  165MOL0     O21695   1.753   6.152  -1.827  0.3732  1.0825  1.0547
  165MOL0     C21696   1.714   6.421  -1.598 -0.5266  0.0888 -0.3940
  165MOL0     C21697   1.776   6.481  -1.485 -0.1780  0.0508 -0.0651
  165MOL0     N21698   2.163   6.342  -0.752 -0.0216  0.8214  0.9786
  165MOL0     N21699   2.133   6.397  -0.642  0.1253 -0.5780  0.2129
  165MOL0     C21700   1.539   6.527   0.226 -1.6601  0.9813  0.1204
  165MOL0     C21701   1.417   6.548   0.295  0.1245 -0.4032 -0.0081
  165MOL0     C21702   1.036   6.564   0.464  1.0708  0.9093  0.0268
  165MOL0     C21703   1.005   6.513   0.593 -0.9420  0.4082  0.3354
  165MOL0     C21704   0.875   6.480   0.638 -0.5275 -0.3883 -0.5408
  165MOL0     C21705   0.781   6.493   0.541  0.8544  0.9233  0.3720
  165MOL0     O21706   0.648   6.469   0.560 -0.8415 -0.5175  0.2716
  165MOL0     C21707   0.597   6.401   0.679  0.2774 -0.3936 -0.0179
  165MOL0     C21708   0.440   6.381   0.658 -0.7310  0.6066  0.0097
  165MOL0     C21709   0.409   6.234   0.611 -0.0289  0.1824  0.2744
  165MOL0     C21710   0.432   6.218   0.457 -0.1543 -0.1151  1.0261
  165MOL0     C21711   0.478   6.075   0.436  0.0225 -0.0568 -0.0502
  165MOL0     C21712   0.503   5.958   0.407 -0.6235 -0.4081 -0.0927
  165MOL0     C21713   0.814   6.543   0.412 -0.7308  0.2371  0.0249
  165MOL0     C21714   0.940   6.588   0.376  0.8435  0.1284  0.0772
  165MOL0     H21715   1.504   6.544   0.617 -0.8343  3.0996  0.3266
  165MOL0     H21716   1.733   6.523   0.502 -2.7317 -2.7936  2.2289
  165MOL0     H21717   1.933   6.682   0.248  0.6835  1.1895 -0.2083
  165MOL0     H21718   1.780   6.761   0.290 -0.0037  0.6351 -1.7815
  165MOL0     H21719   1.861   6.833   0.074 -1.0875  1.0894 -2.5658
  165MOL0     H21720   1.713   6.740   0.043 -0.7613  1.2348 -1.6134
  165MOL0     H21721   1.824   6.556  -0.039  2.6702 -2.8110  0.2682
  165MOL0     H21722   1.988   6.611   0.017 -0.0643  0.7617  0.8013
  165MOL0     H21723   1.802   6.736  -0.198 -0.0163 -0.5942 -0.0094
  165MOL0     H21724   1.948   6.814  -0.149  1.8574  0.3653 -3.4697
  165MOL0     H21725   2.089   6.665  -0.235  0.2404  1.6287 -2.9999
  165MOL0     H21726   1.947   6.689  -0.356  0.5495  0.2544 -0.9093
  165MOL0     H21727   1.846   6.468  -0.262  0.9288 -5.4706  2.0886
  165MOL0     H21728   1.998   6.443  -0.176  1.6128  0.1675  0.0359
  165MOL0     H21729   2.105   6.484  -0.401 -0.9591  0.7652 -3.4862
  165MOL0     H21730   2.028   6.321  -0.374 -1.5489 -0.9256  0.5077
  165MOL0     H21731   1.888   6.531  -0.516 -0.7744 -0.0714 -3.2724
  165MOL0     H21732   1.840   6.360  -0.501  1.5569 -1.6541 -2.3311
  165MOL0     H21733   1.837   6.323  -0.772  0.9796 -2.6509 -2.6066
  165MOL0     H21734   1.943   6.193  -0.982 -0.5361 -1.9744  5.0249
  165MOL0     H21735   2.112   6.201  -0.979 -1.3537 -0.9741 -3.4396
  165MOL0     H21736   2.067   6.467  -1.007 -0.3720 -1.7273  2.1627
  165MOL0     H21737   1.907   6.403  -1.076 -0.9768  1.5831  0.5801
  165MOL0     H21738   2.201   6.355  -1.147 -2.0994 -2.1501  4.3874
  165MOL0     H21739   2.067   6.264  -1.232  0.6886 -1.3404  1.2862
  165MOL0     H21740   2.134   6.476  -1.363 -1.5117 -1.3595 -0.6439
  165MOL0     H21741   2.094   6.568  -1.221  0.2224 -0.5278 -0.3043
  165MOL0     H21742   2.038   6.278  -1.464 -1.3890  0.3386  0.2943
  165MOL0     H21743   1.924   6.159  -1.657 -0.2984  1.1743 -1.5999
  165MOL0     H21744   1.538   6.297  -2.079 -1.1840 -0.8167 -0.8687
  165MOL0     H21745   1.442   6.155  -2.230  0.5958 -0.8076  0.2307
  165MOL0     H21746   1.360   5.791  -2.299 -1.5010 -1.5902  1.2925
  165MOL0     H21747   1.410   5.963  -2.328 -1.5090 -0.9153 -3.4241
  165MOL0     H21748   1.189   6.037  -2.295 -2.3825  1.0339 -2.5651
  165MOL0     H21749   1.132   5.869  -2.308  1.2887  0.8300  2.1478
  165MOL0     H21750   1.255   6.038  -2.530  0.0028  0.4614  2.7669
  165MOL0     H21751   1.094   5.980  -2.516 -0.3599 -0.2264 -1.5878
  165MOL0     H21752   1.334   5.789  -2.554  2.3146  1.3342 -4.5373
  165MOL0     H21753   1.166   5.745  -2.530 -1.3390  0.8077 -1.3658
  165MOL0     H21754   1.278   5.764  -2.762 -3.3366 -2.6456  1.6065
  165MOL0     H21755   1.272   5.940  -2.743 -1.0161  1.8644  1.8887
  165MOL0     H21756   1.023   5.917  -2.702 -0.0110 -0.0012  0.3543
  165MOL0     H21757   1.031   5.749  -2.721 -3.3649  3.1302  2.6124
  165MOL0     H21758   0.952   5.790  -2.912  2.3577 -3.1818  1.7751
  165MOL0     H21759   1.046   5.947  -2.937  1.7880  0.4790 -0.5981
  165MOL0     H21760   1.246   5.787  -2.984  0.8313 -2.2111  0.8193
  165MOL0     H21761   1.100   5.762  -3.085  1.5795 -0.3462  0.0673
  165MOL0     H21762   1.333   5.882  -1.898  0.7632  0.5582  1.5289
  165MOL0     H21763   1.445   6.048  -1.742  0.6136  3.2706 -0.0405
  165MOL0     H21764   1.616   6.447  -1.636 -1.3211 -1.3411  0.6012
  165MOL0     H21765   1.730   6.567  -1.436  1.6011  1.8626 -1.3970
  165MOL0     H21766   1.551   6.502   0.121  2.4692  1.3612  0.3248
  165MOL0     H21767   1.327   6.557   0.237 -1.3404  0.1661  2.2105
  165MOL0     H21768   1.091   6.508   0.659 -2.0256  1.4814  1.9258
  165MOL0     H21769   0.847   6.444   0.736  0.7527 -0.5952 -0.2427
  165MOL0     H21770   0.595   6.483   0.751 -0.5912  0.5454 -1.0688
  165MOL0     H21771   0.660   6.322   0.720  1.7664  0.1486 -1.1685
  165MOL0     H21772   0.393   6.407   0.753  0.8247  0.4756  0.8568
  165MOL0     H21773   0.418   6.459   0.584  3.2433  2.9858  0.9764
  165MOL0     H21774   0.304   6.205   0.620 -0.0943 -0.1076 -1.2136
  165MOL0     H21775   0.478   6.166   0.662  2.1591  1.0446 -1.3965
  165MOL0     H21776   0.344   6.231   0.394  0.2273 -1.1518  0.2504
  165MOL0     H21777   0.511   6.286   0.425 -0.5086 -0.8851 -1.7217
  165MOL0     H21778   0.535   5.857   0.393  0.7721 -0.0587  0.3323
  165MOL0     H21779   0.734   6.558   0.340 -0.9523  3.2603  0.7461
  165MOL0     H21780   0.955   6.633   0.278  2.8717  0.3414  0.4474
  166MOL0     O21781   3.270  10.992   3.648  0.2791  0.1141  0.5872
  166MOL0     C21782   3.239  10.883   3.697 -0.3813 -0.0381  1.0108
  166MOL0     O21783   3.121  10.854   3.744  0.3038 -0.1775 -1.0819
  166MOL0     C21784   3.025  10.956   3.766 -0.5065  0.2909 -0.3860
  166MOL0     C21785   3.006  11.000   3.896  0.8020  0.4733  0.2636
  166MOL0     C21786   2.933  11.124   3.907 -1.2734 -0.4293  1.2008
  166MOL0     C21787   2.866  11.184   3.798 -0.3196 -1.4426  0.7523
  166MOL0     O21788   2.799  11.309   3.797 -0.0163 -0.2969  0.6199
  166MOL0     C21789   2.696  11.323   3.697 -0.0897  0.8876 -0.3900
  166MOL0     C21790   2.581  11.411   3.735  0.4172 -0.5137 -0.6783
  166MOL0     C21791   2.460  11.441   3.640 -0.7790  0.1891  0.4262
  166MOL0     C21792   2.378  11.565   3.682 -0.0500  0.4772 -0.2083
  166MOL0     C21793   2.260  11.582   3.577  0.0401  0.0992  0.6227
  166MOL0     C21794   2.115  11.514   3.613  1.0526 -0.2542  0.2318
  166MOL0     C21795   2.016  11.526   3.501  0.1051 -0.5541 -0.2085
  166MOL0     C21796   2.050  11.412   3.396  0.2259 -0.0367  0.2854
  166MOL0     N21797   1.966  11.413   3.282 -0.1188 -0.6628 -0.2635
  166MOL0     C21798   1.997  11.456   3.151  0.4158  0.9422 -0.0176
  166MOL0     C21799   1.883  11.439   3.079 -0.1234 -0.2366  0.4058
  166MOL0     C21800   1.870  11.468   2.937  0.3455  0.6717  0.5062
  166MOL0     C21801   1.807  11.352   2.857 -0.5409  0.6096  0.4969
  166MOL0     C21802   1.649  11.367   2.857 -1.3531  0.0665  0.7240
  166MOL0     C21803   1.600  11.443   2.730 -1.0668 -0.6710 -0.4920
  166MOL0     O21804   1.459  11.416   2.713 -0.2455 -0.1080 -0.0066
  166MOL0     C21805   1.412  11.426   2.581  0.4344  0.0431  0.6690
  166MOL0     C21806   1.488  11.443   2.458  0.2850  0.6165  0.1025
  166MOL0     C21807   1.411  11.449   2.341  0.7650  0.1443 -0.1994
  166MOL0     C21808   1.273  11.428   2.334 -0.5433  1.2793 -0.4266
  166MOL0     C21809   1.200  11.414   2.209  0.7899  0.1509 -0.0922
  166MOL0     O21810   1.276  11.368   2.102 -0.5100  0.2678  0.3196
  166MOL0     C21811   1.229  11.316   1.980 -0.5362  0.4196  0.4350
  166MOL0     C21812   1.319  11.277   1.885 -0.4518  0.1625 -0.1177
  166MOL0     C21813   1.273  11.218   1.765  0.5021  0.0724 -0.2837
  166MOL0     C21814   1.134  11.193   1.747  0.7020 -0.4702 -0.6735
  166MOL0     O21815   1.099  11.142   1.623 -0.9027 -0.2789  0.4422
  166MOL0     C21816   0.992  11.046   1.626 -0.4268  0.7509 -0.0685
  166MOL0     C21817   1.049  10.926   1.709 -0.7396  0.5075 -0.3150
  166MOL0     C21818   0.948  10.800   1.699 -0.0088  1.0941 -0.5039
  166MOL0     C21819   0.942  10.727   1.566  0.7351 -0.4307  0.3982
  166MOL0     C21820   0.847  10.776   1.461 -1.0428  0.7311  0.1901
  166MOL0     C21821   0.757  10.668   1.405 -0.0368  0.2026  0.1317
  166MOL0     C21822   0.832  10.564   1.324 -0.9312 -0.0156  0.6629
  166MOL0     C21823   0.736  10.453   1.268  0.3075  0.5798 -0.9320
  166MOL0    Cl21824   0.712  10.305   1.371 -0.4640 -0.5160  0.4805
  166MOL0     C21825   1.034  11.235   1.847  0.0303  0.5327  0.5944
  166MOL0     C21826   1.090  11.290   1.959  0.5465  0.4086  0.4094
  166MOL0     O21827   1.080  11.456   2.195  0.0619  0.9246  0.0358
  166MOL0     C21828   1.205  11.407   2.450 -0.0330 -0.3830 -0.1638
  166MOL0     C21829   1.279  11.402   2.580  0.8717  0.3133 -1.2402
  166MOL0     N21830   1.790  11.377   3.162 -0.2085  0.5203  0.2525
  166MOL0     N21831   1.835  11.373   3.283  0.9376  0.8574 -0.9029
  166MOL0     C21832   2.887  11.128   3.673 -0.9215  0.1159  0.1158
  166MOL0     C21833   2.972  11.015   3.656  0.4871  0.0958  0.1845
  166MOL0     C21834   3.334  10.776   3.686 -0.0199 -0.0500 -0.1149
  166MOL0     C21835   3.288  10.651   3.744 -0.0389 -0.1800  0.3377
  166MOL0     C21836   3.390  10.541   3.756  0.7474  0.0572 -0.5256
  166MOL0     C21837   3.507  10.556   3.679  0.4324  0.1599 -0.2302
  166MOL0     O21838   3.596  10.457   3.644 -0.3305 -0.1409 -0.4823
  166MOL0     C21839   3.607  10.330   3.716 -0.4974  0.1920  0.2641
  166MOL0     C21840   3.548  10.226   3.615 -0.3422  0.3413 -0.3153
  166MOL0     C21841   3.404  10.256   3.576 -0.1389 -0.5453  0.3215
  166MOL0     C21842   3.341  10.134   3.503  0.1256  0.0269  0.3857
  166MOL0     C21843   3.411  10.071   3.397 -0.2773 -0.1331 -0.1072
  166MOL0     C21844   3.457  10.011   3.303 -0.6796  0.1921  0.1547
  166MOL0     C21845   3.543  10.677   3.628  0.1369  0.5287  0.1958
  166MOL0     C21846   3.458  10.789   3.629  0.6677 -0.2403 -0.3198
  166MOL0     H21847   3.058  10.955   3.979  3.3437  0.4483 -1.2524
  166MOL0     H21848   2.925  11.174   4.003 -1.4888  1.5217  0.2001
  166MOL0     H21849   2.642  11.232   3.671  0.2450 -0.0799  2.0376
  166MOL0     H21850   2.747  11.370   3.612  1.5851 -1.2313 -0.6464
  166MOL0     H21851   2.618  11.502   3.783 -2.4812  1.1528 -1.3682
  166MOL0     H21852   2.521  11.357   3.808  1.4490  0.3518  0.8628
  166MOL0     H21853   2.398  11.354   3.622 -0.9258  0.7400 -2.1696
  166MOL0     H21854   2.509  11.463   3.544  0.2578  1.1612  1.1480
  166MOL0     H21855   2.334  11.549   3.781 -2.3552 -2.4241 -1.5555
  166MOL0     H21856   2.434  11.659   3.676 -2.7389  2.0942 -1.7567
  166MOL0     H21857   2.298  11.539   3.484  0.9339  1.4795  0.3182
  166MOL0     H21858   2.254  11.691   3.570  4.2059  0.5432  1.4430
  166MOL0     H21859   2.081  11.556   3.708 -1.3699  0.7542 -0.9848
  166MOL0     H21860   2.137  11.408   3.622 -0.3665 -0.4786  1.5601
  166MOL0     H21861   1.913  11.515   3.535  0.2475  0.1250  0.4707
  166MOL0     H21862   2.021  11.626   3.457  0.6930 -0.3051  0.4109
  166MOL0     H21863   2.040  11.316   3.447 -1.3078  0.7803  1.6291
  166MOL0     H21864   2.147  11.437   3.351 -0.3531  1.5489 -0.1445
  166MOL0     H21865   2.088  11.503   3.114 -0.4944  2.6647 -0.2095
  166MOL0     H21866   1.976  11.474   2.912  1.4095  0.2277  4.2607
  166MOL0     H21867   1.812  11.561   2.931 -1.3994 -0.4501 -1.4466
  166MOL0     H21868   1.838  11.259   2.905  3.0154  2.1689  1.5205
  166MOL0     H21869   1.838  11.348   2.752 -0.9211 -0.5690  0.4086
  166MOL0     H21870   1.602  11.268   2.859  2.0584 -1.8889 -2.6746
  166MOL0     H21871   1.620  11.427   2.944  0.6981 -0.6161  1.9600
  166MOL0     H21872   1.658  11.396   2.650  3.5508  1.6955  1.1437
  166MOL0     H21873   1.628  11.548   2.720  2.8738 -1.6789 -1.7643
  166MOL0     H21874   1.595  11.458   2.447  0.8525  0.0959  3.8239
  166MOL0     H21875   1.470  11.479   2.255  1.9672  0.0873  0.5830
  166MOL0     H21876   1.425  11.294   1.898  0.0258 -1.0882 -1.9771
  166MOL0     H21877   1.345  11.185   1.690 -0.0657 -1.0923 -0.3325
  166MOL0     H21878   0.964  11.003   1.530  0.5395 -3.1795  1.2522
  166MOL0     H21879   0.904  11.092   1.672 -0.7169  0.6622 -0.5299
  166MOL0     H21880   1.056  10.956   1.814  0.0824 -1.3800  0.2187
  166MOL0     H21881   1.147  10.895   1.670 -1.6642 -1.4885 -1.2197
  166MOL0     H21882   0.850  10.821   1.743  0.3236 -1.3472  1.6336
  166MOL0     H21883   1.000  10.722   1.756  0.7115  1.5873 -0.4757
  166MOL0     H21884   1.035  10.749   1.513  0.2991  0.9233  0.1678
  166MOL0     H21885   0.925  10.619   1.575  1.3909 -0.7482 -1.6301
  166MOL0     H21886   0.896  10.815   1.372 -3.7407  2.0223 -0.8220
  166MOL0     H21887   0.782  10.854   1.501  0.6259  0.8849  2.8489
  166MOL0     H21888   0.670  10.704   1.350  2.1017 -2.0346 -5.4600
  166MOL0     H21889   0.716  10.600   1.481  1.6087 -2.5092 -1.2396
  166MOL0     H21890   0.884  10.621   1.247 -1.5446  0.7449  0.7907
  166MOL0     H21891   0.909  10.510   1.379  0.4770  1.8674  0.6392
  166MOL0     H21892   0.789  10.401   1.188  0.2145 -1.5611  0.3277
  166MOL0     H21893   0.638  10.495   1.244  1.5659  2.1713 -3.9264
  166MOL0     H21894   0.928  11.243   1.824  0.4963  2.2017 -1.2461
  166MOL0     H21895   1.011  11.317   2.028  0.2373 -1.5691  0.8974
  166MOL0     H21896   1.100  11.382   2.442 -0.1125  0.2757 -1.3849
  166MOL0     H21897   1.232  11.390   2.677  1.1874 -1.5179 -1.2735
  166MOL0     H21898   2.854  11.161   3.575 -0.3738 -1.7738 -0.7441
  166MOL0     H21899   2.972  10.972   3.556 -1.2216  1.8215 -0.6275
  166MOL0     H21900   3.195  10.648   3.800 -0.3961 -0.6663 -0.2650
  166MOL0     H21901   3.376  10.447   3.809 -1.6108 -1.3307 -3.3092
  166MOL0     H21902   3.549  10.333   3.809 -0.2044 -0.1555  0.4645
  166MOL0     H21903   3.710  10.295   3.727 -1.0686 -1.3491  1.0709
  166MOL0     H21904   3.603  10.247   3.522  0.2981 -0.3755 -0.1183
  166MOL0     H21905   3.571  10.123   3.644  1.5791  0.3003 -1.7792
  166MOL0     H21906   3.405  10.338   3.504 -0.9545  0.9080  1.8823
  166MOL0     H21907   3.343  10.291   3.660 -0.7647  0.4270 -0.5129
  166MOL0     H21908   3.340  10.057   3.581  0.2169 -0.3089  0.0569
  166MOL0     H21909   3.237  10.155   3.476 -0.8662 -2.9017  1.5217
  166MOL0     H21910   3.490   9.960   3.215  0.3547  1.7734 -0.4129
  166MOL0     H21911   3.633  10.701   3.572  1.0564 -1.2911  0.8253
  166MOL0     H21912   3.484  10.888   3.593  0.3482  1.5991  3.9411
  167MOL0     O21913   1.735   8.728   4.479 -0.2564  0.1120 -0.2635
  167MOL0     C21914   1.742   8.794   4.380  0.4379  0.0263 -0.0105
  167MOL0     O21915   1.740   8.928   4.369  0.3070  0.2670 -0.2309
  167MOL0     C21916   1.706   8.992   4.493 -1.2650  0.6276 -0.2336
  167MOL0     C21917   1.582   8.977   4.547 -0.5966 -0.4752  1.0092
  167MOL0     C21918   1.552   9.037   4.673 -0.0877 -0.2289 -0.1586
  167MOL0     C21919   1.645   9.108   4.745 -0.1869  0.4619  0.2054
  167MOL0     O21920   1.600   9.156   4.870  1.0908  0.2591 -0.4873
  167MOL0     C21921   1.640   9.064   4.975  0.7196  0.0876  0.6665
  167MOL0     C21922   1.559   9.109   5.101  0.0599  0.0690  0.8200
  167MOL0     C21923   1.629   9.051   5.225 -0.5962 -1.0280  0.4410
  167MOL0     C21924   1.564   9.108   5.353  0.1804 -0.5701 -0.0619
  167MOL0     C21925   1.630   9.072   5.485 -0.2367 -0.4486 -0.4882
  167MOL0     C21926   1.542   9.112   5.608  0.2957 -0.2548  0.5390
  167MOL0     C21927   1.588   9.057   5.741  0.4854 -0.1061 -0.7634
  167MOL0     C21928   1.537   8.919   5.760  0.0327  0.1089  0.1732
  167MOL0     N21929   1.534   8.875   5.898 -0.3132  0.1418 -0.5327
  167MOL0     C21930   1.423   8.894   5.978  0.1222 -0.5693  0.5305
  167MOL0     C21931   1.456   8.830   6.092  0.5290 -0.0721 -0.1282
  167MOL0     C21932   1.376   8.815   6.220  0.2784  0.1957  0.6162
  167MOL0     C21933   1.240   8.745   6.198  0.1350 -0.3842  0.2474
  167MOL0     C21934   1.109   8.823   6.180  0.0844  0.2544  1.4434
  167MOL0     C21935   0.985   8.740   6.179  0.4294  0.0186 -0.0483
  167MOL0     O21936   1.024   8.600   6.144 -0.0355 -0.4348 -1.0478
  167MOL0     C21937   0.918   8.520   6.110 -0.7462  0.4744  0.2506
  167MOL0     C21938   0.794   8.515   6.182  0.0477  0.3360 -1.1124
  167MOL0     C21939   0.678   8.447   6.146 -0.9319 -0.4512  0.0989
  167MOL0     C21940   0.701   8.364   6.032  1.4522 -0.1293 -0.0409
  167MOL0     C21941   0.591   8.299   5.964 -0.1792 -0.8025  0.4574
  167MOL0     O21942   0.473   8.357   5.986  0.2617 -0.9671  0.3429
  167MOL0     C21943   0.369   8.288   5.925  0.9637 -0.1096  0.2939
  167MOL0     C21944   0.329   8.302   5.797 -0.0483 -0.2331  0.4407
  167MOL0     C21945   0.221   8.234   5.737  0.3471  0.4663 -0.1535
  167MOL0     C21946   0.140   8.148   5.830 -0.4116  0.0543  0.4290
  167MOL0     O21947   0.025   8.089   5.793 -0.0597  0.3579 -0.1384
  167MOL0     C21948  -0.002   8.078   5.648  1.0483  0.1364 -0.4276
  167MOL0     C21949  -0.150   8.043   5.631 -0.0957 -0.3921  0.1839
  167MOL0     C21950  -0.244   8.165   5.632  0.5912  0.0277 -0.2187
  167MOL0     C21951  -0.391   8.121   5.630 -0.2157 -0.4140  0.7045
  167MOL0     C21952  -0.453   8.158   5.503  0.1313  0.6963  0.5658
  167MOL0     C21953  -0.596   8.115   5.511  0.1976 -0.2394  0.5870
  167MOL0     C21954  -0.668   8.171   5.387  0.3897  0.9424  0.1988
  167MOL0     C21955  -0.813   8.148   5.423  0.3461 -0.3518 -0.5058
  167MOL0    Cl21956  -0.911   8.269   5.329 -0.2498  0.4350  0.1507
  167MOL0     C21957   0.189   8.122   5.955 -0.3649  0.4641  0.5048
  167MOL0     C21958   0.301   8.193   6.003  0.8155 -0.7447  0.1616
  167MOL0     O21959   0.603   8.196   5.893 -0.7033  0.7472  0.0634
  167MOL0     C21960   0.822   8.364   5.956  0.2932 -0.1342  0.0827
  167MOL0     C21961   0.933   8.453   5.987  0.5070  0.1290  0.1462
  167MOL0     N21962   1.579   8.771   6.075 -0.3745 -0.4101 -0.4645
  167MOL0     N21963   1.621   8.798   5.956  0.7012  0.2758 -0.0878
  167MOL0     C21964   1.775   9.127   4.693  0.8733  0.1870  0.5766
  167MOL0     C21965   1.795   9.076   4.561 -0.5704 -0.1417 -0.0654
  167MOL0     C21966   1.744   8.716   4.246 -0.6402 -0.8265  0.0326
  167MOL0     C21967   1.729   8.579   4.243 -0.2139  0.0022 -0.6242
  167MOL0     C21968   1.726   8.501   4.120  0.5068  0.3046 -0.0853
  167MOL0     C21969   1.728   8.569   4.003 -0.2443 -0.2702  0.7605
  167MOL0     O21970   1.708   8.505   3.884 -0.6955  0.1494 -0.2920
  167MOL0     C21971   1.822   8.491   3.795  1.6976  0.4962 -0.5632
  167MOL0     C21972   1.930   8.410   3.861 -0.0445  0.4197 -0.1955
  167MOL0     C21973   1.884   8.267   3.893  0.4784 -0.0127 -0.0328
  167MOL0     C21974   1.871   8.174   3.771 -1.6956  0.0376  0.3194
  167MOL0     C21975   1.776   8.069   3.801  0.9309  0.3675 -0.4451
  167MOL0     C21976   1.693   7.985   3.822 -0.5019 -0.5260  0.2915
  167MOL0     C21977   1.743   8.710   4.004  0.3709 -0.3884 -0.7948
  167MOL0     C21978   1.759   8.787   4.118 -0.0844 -0.1240  0.2201
  167MOL0     H21979   1.506   8.923   4.490  1.1290 -2.2606  0.2998
  167MOL0     H21980   1.452   9.013   4.706 -0.6783 -2.1276 -2.9758
  167MOL0     H21981   1.748   9.081   4.987  0.9052  0.0548 -0.8170
  167MOL0     H21982   1.611   8.960   4.955 -1.3641  0.8144 -0.3615
  167MOL0     H21983   1.458   9.067   5.100  1.8061 -4.7611 -0.6743
  167MOL0     H21984   1.552   9.218   5.112  1.4945 -0.0729  5.6320
  167MOL0     H21985   1.732   9.088   5.227 -1.7078  2.3662  3.0981
  167MOL0     H21986   1.623   8.941   5.223  1.0672 -1.1753 -2.6585
  167MOL0     H21987   1.581   9.214   5.333  0.3119  0.1076  3.1239
  167MOL0     H21988   1.458   9.085   5.339 -0.9567  4.5709 -2.2813
  167MOL0     H21989   1.731   9.114   5.490  0.4568 -2.1724  0.8444
  167MOL0     H21990   1.651   8.965   5.478 -0.5032 -0.4402 -1.6672
  167MOL0     H21991   1.435   9.096   5.591  0.2502 -0.0652  0.6381
  167MOL0     H21992   1.532   9.221   5.616  0.3696 -0.3615  2.5822
  167MOL0     H21993   1.694   9.069   5.765 -0.5163  2.1120  3.5276
  167MOL0     H21994   1.540   9.126   5.811  1.3351 -0.6972  0.4527
  167MOL0     H21995   1.608   8.861   5.700  1.4159  3.1211 -1.3300
  167MOL0     H21996   1.435   8.909   5.722  0.4487  0.8859 -1.2293
  167MOL0     H21997   1.338   8.960   5.965  1.2466  1.6349  3.3463
  167MOL0     H21998   1.373   8.914   6.267 -2.0000  0.5996 -0.2667
  167MOL0     H21999   1.443   8.756   6.284  2.0452 -0.6095 -1.8199
  167MOL0     H22000   1.217   8.681   6.284 -1.2259 -2.2036 -1.3664
  167MOL0     H22001   1.241   8.674   6.114 -2.2078 -0.9114  0.5957
  167MOL0     H22002   1.104   8.906   6.250  1.1424  0.4696  1.2865
  167MOL0     H22003   1.112   8.873   6.082 -0.9272  1.3076  1.9367
  167MOL0     H22004   0.911   8.766   6.103  1.4642  2.2510 -0.3717
  167MOL0     H22005   0.935   8.750   6.275 -1.0578 -1.2537 -0.6565
  167MOL0     H22006   0.792   8.594   6.256  0.6420 -0.7295  0.0736
  167MOL0     H22007   0.586   8.458   6.201 -0.6557  2.0871  0.1524
  167MOL0     H22008   0.396   8.356   5.731 -0.2787  0.3199  0.6512
  167MOL0     H22009   0.189   8.253   5.635 -1.9386 -2.3936 -0.1293
  167MOL0     H22010   0.057   7.998   5.604  0.9820  0.9556 -2.0523
  167MOL0     H22011   0.002   8.177   5.602 -1.3004  0.3792 -0.2441
  167MOL0     H22012  -0.184   7.979   5.713  0.5116  2.0460  2.4648
  167MOL0     H22013  -0.157   7.989   5.536  2.8061 -1.7863  0.6482
  167MOL0     H22014  -0.226   8.237   5.551 -1.4242 -2.1690 -2.7875
  167MOL0     H22015  -0.242   8.231   5.720 -3.1572  1.5945 -1.1347
  167MOL0     H22016  -0.408   8.017   5.661 -1.9006 -0.3443  0.1348
  167MOL0     H22017  -0.436   8.181   5.710 -0.5566  1.5061 -0.8558
  167MOL0     H22018  -0.408   8.095   5.425  1.3869  0.2504  1.6160
  167MOL0     H22019  -0.454   8.266   5.486  0.6831  0.6443  0.1340
  167MOL0     H22020  -0.641   8.157   5.601 -0.2395  0.4704  0.0514
  167MOL0     H22021  -0.604   8.006   5.521 -0.7004 -0.2226  0.1766
  167MOL0     H22022  -0.652   8.276   5.361 -2.5219  1.9811  2.1108
  167MOL0     H22023  -0.642   8.107   5.302  1.8986  1.5632  0.1692
  167MOL0     H22024  -0.838   8.161   5.529  0.1898 -2.5170 -0.2381
  167MOL0     H22025  -0.855   8.053   5.391 -1.1694  0.1157 -0.0048
  167MOL0     H22026   0.133   8.059   6.023 -3.5924 -0.9113 -3.0521
  167MOL0     H22027   0.349   8.181   6.099  0.6318 -0.5160  0.2829
  167MOL0     H22028   0.840   8.308   5.865  0.6870 -0.1519  0.1702
  167MOL0     H22029   1.022   8.451   5.925 -0.3974 -1.8528 -1.2087
  167MOL0     H22030   1.854   9.179   4.746  1.9672 -0.3521 -0.4953
  167MOL0     H22031   1.881   9.097   4.498 -1.8121  1.1340 -1.4208
  167MOL0     H22032   1.713   8.534   4.341 -0.1021  3.0667  0.9129
  167MOL0     H22033   1.734   8.393   4.128  1.4450  0.2361 -1.6561
  167MOL0     H22034   1.869   8.588   3.774  1.6497  1.0985  1.8175
  167MOL0     H22035   1.803   8.450   3.695  3.2415  0.2736 -0.7882
  167MOL0     H22036   2.013   8.396   3.791 -0.7089 -3.1700 -0.4553
  167MOL0     H22037   1.956   8.467   3.951 -0.5000  1.7535 -0.8799
  167MOL0     H22038   1.783   8.278   3.934  0.6216  0.5683  0.1803
  167MOL0     H22039   1.937   8.218   3.975 -2.6933 -2.1165  0.9098
  167MOL0     H22040   1.827   8.225   3.686 -1.0714 -0.7626 -0.5028
  167MOL0     H22041   1.965   8.126   3.741 -2.9952 -2.9193  0.5762
  167MOL0     H22042   1.612   7.914   3.828 -2.4583  1.6471  1.4481
  167MOL0     H22043   1.751   8.770   3.914  0.3470  0.9026  0.0268
  167MOL0     H22044   1.780   8.893   4.117 -0.1939 -0.0535  2.0112
  168MOL0     O22045   8.179  10.778   5.733  0.2298  0.0192  0.0906
  168MOL0     C22046   8.078  10.754   5.665  0.0465  0.4822  0.7072
  168MOL0     O22047   8.025  10.832   5.566 -0.2489 -0.4097 -0.8213
  168MOL0     C22048   8.091  10.936   5.504 -0.9043  0.0186 -0.1802
  168MOL0     C22049   8.042  11.062   5.520  0.3227  1.0888  0.0198
  168MOL0     C22050   8.105  11.172   5.456 -0.3541 -0.3421 -0.0799
  168MOL0     C22051   8.225  11.149   5.383  0.6758  0.7411 -0.5129
  168MOL0     O22052   8.294  11.249   5.326 -0.3284  0.0542  0.1611
  168MOL0     C22053   8.226  11.359   5.268 -0.1393 -0.4159 -0.0651
  168MOL0     C22054   8.318  11.480   5.274 -0.3901 -0.8487 -0.2026
  168MOL0     C22055   8.316  11.544   5.415  0.3268 -0.9640 -0.1347
  168MOL0     C22056   8.385  11.682   5.417  0.2421  0.7025 -0.8868
  168MOL0     C22057   8.370  11.745   5.553 -0.3137  0.1818 -0.3619
  168MOL0     C22058   8.414  11.887   5.563 -0.3066 -0.6068 -0.9924
  168MOL0     C22059   8.364  11.960   5.696 -0.8909 -0.5655 -0.4473
  168MOL0     C22060   8.238  12.046   5.671  0.1655  0.8300  0.3610
  168MOL0     N22061   8.128  11.964   5.609 -0.3509 -0.0320 -0.0960
  168MOL0     C22062   8.053  11.872   5.685  0.0596 -0.4576 -0.6599
  168MOL0     C22063   7.936  11.856   5.611  0.1927 -0.8029 -0.1626
  168MOL0     C22064   7.818  11.773   5.635  0.9905 -1.0708 -0.2751
  168MOL0     C22065   7.852  11.624   5.630  0.3518  0.2533 -0.6555
  168MOL0     C22066   7.729  11.533   5.675 -0.0692 -0.3585  0.1975
  168MOL0     C22067   7.738  11.386   5.638  0.8069 -0.2043 -0.5845
  168MOL0     O22068   7.612  11.326   5.656  0.0488  0.1731 -0.0106
  168MOL0     C22069   7.605  11.255   5.777  0.3944 -0.3305 -0.7939
  168MOL0     C22070   7.557  11.311   5.896 -0.1459 -0.5746 -0.7263
  168MOL0     C22071   7.543  11.223   6.009 -0.0120  0.4271 -0.4048
  168MOL0     C22072   7.557  11.081   6.003  0.3424 -1.1766  0.4930
  168MOL0     C22073   7.525  11.000   6.125 -0.4145  0.1049 -1.5271
  168MOL0     O22074   7.557  10.862   6.121  0.0099 -0.0307  0.2521
  168MOL0     C22075   7.517  10.786   6.229  0.6718  0.8856 -0.3679
  168MOL0     C22076   7.453  10.660   6.217  0.6434  0.0303  0.5130
  168MOL0     C22077   7.417  10.589   6.333  1.0767  0.0401  0.0540
  168MOL0     C22078   7.446  10.632   6.460 -0.2509 -0.1185  0.1315
  168MOL0     O22079   7.422  10.572   6.576 -0.2846 -0.1070  0.0235
  168MOL0     C22080   7.344  10.451   6.582 -0.8139 -0.6897  0.1077
  168MOL0     C22081   7.202  10.461   6.614  0.5686 -0.2280 -0.3475
  168MOL0     C22082   7.113  10.491   6.480 -0.3246 -0.4862  0.0984
  168MOL0     C22083   6.971  10.527   6.517 -0.4446 -1.7998  0.8300
  168MOL0     C22084   6.863  10.448   6.449 -1.0180 -0.2419 -0.3423
  168MOL0     C22085   6.731  10.439   6.537 -0.3867 -0.0091 -0.1809
  168MOL0     C22086   6.615  10.357   6.466 -0.5223 -0.0878 -0.1707
  168MOL0     C22087   6.584  10.212   6.518  0.5652  0.2410 -0.2816
  168MOL0    Cl22088   6.519  10.215   6.694  0.0322 -0.0033  0.1269
  168MOL0     C22089   7.513  10.753   6.477  0.2527 -0.9864  0.2475
  168MOL0     C22090   7.546  10.831   6.355  0.5902  0.1016 -0.2321
  168MOL0     O22091   7.458  11.061   6.210  0.3126 -0.2473  0.0026
  168MOL0     C22092   7.609  11.034   5.880 -0.0421  0.2166 -0.1774
  168MOL0     C22093   7.630  11.114   5.773 -0.5430  0.3424 -0.9770
  168MOL0     N22094   7.951  11.926   5.495  0.2103 -0.3187 -0.2975
  168MOL0     N22095   8.064  11.995   5.487 -0.3697  0.0846 -0.8168
  168MOL0     C22096   8.274  11.018   5.382 -0.6988  0.3208  0.6150
  168MOL0     C22097   8.204  10.912   5.433 -0.0614  0.8729  0.4842
  168MOL0     C22098   8.012  10.630   5.709 -0.7987 -0.3171  0.7281
  168MOL0     C22099   8.087  10.535   5.790  0.0333 -0.4335 -0.1798
  168MOL0     C22100   8.037  10.407   5.821  0.2429 -1.3730 -0.8802
  168MOL0     C22101   7.909  10.378   5.780  0.3161 -0.1789  0.0212
  168MOL0     O22102   7.865  10.251   5.808  0.1285  0.0276  0.1920
  168MOL0     C22103   7.944  10.144   5.875  0.8422 -0.6825 -0.2506
  168MOL0     C22104   8.041  10.075   5.778  0.3410 -0.3698  0.1729
  168MOL0     C22105   8.191  10.064   5.841  0.7630 -1.0574  0.4741
  168MOL0     C22106   8.295   9.999   5.747  0.4856 -0.5491 -0.3972
  168MOL0     C22107   8.427  10.022   5.803 -0.2357  0.3777 -0.3982
  168MOL0     C22108   8.545  10.039   5.842 -0.3953  1.5659  1.3978
  168MOL0     C22109   7.829  10.469   5.706  0.4799  0.0506  0.1748
  168MOL0     C22110   7.881  10.597   5.667  0.5528  0.5626  0.7372
  168MOL0     H22111   7.948  11.080   5.571  0.0947 -2.0921  0.9226
  168MOL0     H22112   8.083  11.277   5.473  2.2121 -0.0778  2.0693
  168MOL0     H22113   8.130  11.394   5.306  0.1821 -0.5623  0.8944
  168MOL0     H22114   8.213  11.333   5.162 -0.2692 -2.6516  0.4419
  168MOL0     H22115   8.295  11.551   5.194  1.5222  0.1645  0.0951
  168MOL0     H22116   8.420  11.445   5.253  0.2335  0.7310  0.0662
  168MOL0     H22117   8.379  11.477   5.475 -2.6942 -1.8318  2.3123
  168MOL0     H22118   8.216  11.564   5.456  0.1524  1.6805 -1.6514
  168MOL0     H22119   8.489  11.665   5.386  0.1207  0.5966 -1.2448
  168MOL0     H22120   8.331  11.744   5.344  1.6244  1.1118 -1.5957
  168MOL0     H22121   8.428  11.676   5.615  0.6056  0.0989 -1.2737
  168MOL0     H22122   8.266  11.745   5.586 -1.0940 -0.4650 -2.6568
  168MOL0     H22123   8.364  11.942   5.483 -3.6322 -2.7003 -0.5497
  168MOL0     H22124   8.522  11.905   5.550  0.2675 -3.1546 -0.3846
  168MOL0     H22125   8.347  11.884   5.772 -1.5037 -0.7739 -0.7822
  168MOL0     H22126   8.441  12.023   5.740  0.7572 -2.2565 -0.7525
  168MOL0     H22127   8.252  12.127   5.599 -0.2277 -0.3381 -1.0940
  168MOL0     H22128   8.195  12.080   5.766 -1.2203 -1.9477  0.8204
  168MOL0     H22129   8.085  11.835   5.782  1.7617 -1.7545 -1.6531
  168MOL0     H22130   7.744  11.790   5.556 -0.8086 -0.0829  1.5051
  168MOL0     H22131   7.782  11.800   5.735  3.4924  0.9128  0.2149
  168MOL0     H22132   7.934  11.606   5.701 -0.2778 -0.9064 -0.2011
  168MOL0     H22133   7.880  11.610   5.526 -0.0647 -0.0421 -0.7293
  168MOL0     H22134   7.722  11.540   5.784  1.2700 -0.3782  0.3005
  168MOL0     H22135   7.655  11.579   5.610  1.5532  0.5655 -1.0640
  168MOL0     H22136   7.806  11.331   5.704 -2.3049  1.8307  4.9855
  168MOL0     H22137   7.765  11.394   5.532  1.1611  2.6315 -0.3795
  168MOL0     H22138   7.535  11.418   5.899  0.7920 -0.0900 -4.7666
  168MOL0     H22139   7.522  11.267   6.106  4.9958 -1.3908  1.8987
  168MOL0     H22140   7.430  10.622   6.118  1.1803 -0.2806  0.5009
  168MOL0     H22141   7.380  10.490   6.307 -1.0219  1.4935 -3.1570
  168MOL0     H22142   7.385  10.409   6.674 -0.3720 -1.9257 -0.6258
  168MOL0     H22143   7.356  10.372   6.508 -2.5454 -1.5341  0.6849
  168MOL0     H22144   7.189  10.526   6.701  1.8042 -1.9472  1.2082
  168MOL0     H22145   7.164  10.361   6.638 -2.3154  0.9948  0.6199
  168MOL0     H22146   7.114  10.407   6.410  1.1384 -0.7483  0.4029
  168MOL0     H22147   7.140  10.586   6.432 -0.9497  0.8047  2.1704
  168MOL0     H22148   6.952  10.528   6.624 -1.8544  0.4649  0.6259
  168MOL0     H22149   6.950  10.628   6.481  1.0379 -2.1377 -1.1637
  168MOL0     H22150   6.907  10.349   6.435  0.4694  0.1993  0.8788
  168MOL0     H22151   6.836  10.489   6.351 -2.1236  2.7583  1.1040
  168MOL0     H22152   6.697  10.541   6.556 -0.2643 -0.0949  0.4977
  168MOL0     H22153   6.742  10.407   6.641  0.7304  1.9688  0.3469
  168MOL0     H22154   6.518  10.405   6.481 -0.4460 -0.5848  2.3772
  168MOL0     H22155   6.640  10.336   6.361 -0.8709 -4.6618  0.4937
  168MOL0     H22156   6.675  10.152   6.513  0.2864 -0.1848 -0.2575
  168MOL0     H22157   6.507  10.180   6.447 -1.7339  0.1033  2.1047
  168MOL0     H22158   7.536  10.784   6.578  1.3926 -0.4684 -0.1500
  168MOL0     H22159   7.610  10.919   6.365  2.1783 -1.1508  1.5787
  168MOL0     H22160   7.627  10.927   5.879  1.0509  0.3936 -0.0804
  168MOL0     H22161   7.672  11.075   5.681  1.1136  0.3932 -0.2875
  168MOL0     H22162   8.372  11.007   5.337  0.4213 -1.2077  3.2217
  168MOL0     H22163   8.241  10.811   5.418 -1.0390  0.4968  0.5182
  168MOL0     H22164   8.180  10.563   5.839  0.6871  1.6579 -2.4052
  168MOL0     H22165   8.107  10.337   5.866  3.1484  1.0741 -1.2466
  168MOL0     H22166   7.876  10.069   5.918  0.3934  0.4612  1.1012
  168MOL0     H22167   8.004  10.199   5.947  3.4918 -0.9700 -2.1279
  168MOL0     H22168   8.006   9.976   5.748 -0.7905 -0.3054  1.1809
  168MOL0     H22169   8.056  10.128   5.684  1.8807 -0.6534  0.2307
  168MOL0     H22170   8.177  10.007   5.934 -1.7986 -4.0064 -1.5212
  168MOL0     H22171   8.238  10.158   5.870  2.4493 -0.7417 -2.8954
  168MOL0     H22172   8.277   9.891   5.744 -0.7712 -0.4425  1.7764
  168MOL0     H22173   8.297  10.047   5.648  0.7272 -0.4987 -0.3679
  168MOL0     H22174   8.649  10.045   5.867  0.1417 -0.7076  0.0369
  168MOL0     H22175   7.731  10.433   5.678  1.4483 -2.6178 -0.0563
  168MOL0     H22176   7.822  10.664   5.605  1.1500  0.9090  0.5333
  169MOL0     O22177   3.652   0.130   0.009  0.3349  0.1323  0.1308
  169MOL0     C22178   3.659   0.254  -0.008 -0.5316 -0.1924 -0.5822
  169MOL0     O22179   3.595   0.333  -0.102  0.3133  0.0635  0.0166
  169MOL0     C22180   3.515   0.281  -0.197 -0.1903  0.4221  0.2672
  169MOL0     C22181   3.420   0.382  -0.231 -1.0159 -1.3485 -0.3151
  169MOL0     C22182   3.320   0.339  -0.326  0.4337 -0.1541  0.4689
  169MOL0     C22183   3.328   0.206  -0.388 -0.1044 -0.1986  0.1704
  169MOL0     O22184   3.250   0.161  -0.489 -0.5539 -0.4972 -0.3631
  169MOL0     C22185   3.138   0.239  -0.528 -0.0635  0.4636  0.4827
  169MOL0     C22186   3.078   0.176  -0.649  0.0496 -0.3024 -0.2643
  169MOL0     C22187   2.960   0.265  -0.699 -0.1761  0.5390 -0.5585
  169MOL0     C22188   2.859   0.182  -0.781  0.0033  0.0885 -0.6619
  169MOL0     C22189   2.766   0.280  -0.858 -0.6631 -0.0065  0.4279
  169MOL0     C22190   2.671   0.352  -0.771  0.3448 -0.0828  0.7202
  169MOL0     C22191   2.564   0.412  -0.856  0.3586 -0.6975  0.3742
  169MOL0     C22192   2.450   0.489  -0.781 -0.7064 -0.7154  0.5152
  169MOL0     N22193   2.376   0.406  -0.683  0.7065  0.9098  1.0802
  169MOL0     C22194   2.254   0.357  -0.718 -0.2036  0.8651 -0.6950
  169MOL0     C22195   2.208   0.295  -0.600  0.3599  0.9611 -0.8132
  169MOL0     C22196   2.083   0.199  -0.584 -0.0015 -0.1105 -1.8848
  169MOL0     C22197   2.076   0.106  -0.458  0.5993  0.5014 -0.0622
  169MOL0     C22198   1.950   0.023  -0.440  1.2107 -0.2675  0.2235
  169MOL0     C22199   1.954  -0.098  -0.342 -0.6061  0.2942  0.5578
  169MOL0     O22200   2.090  -0.133  -0.333  0.6037  0.5307  0.1139
  169MOL0     C22201   2.135  -0.231  -0.423  0.0170 -0.2495 -1.1167
  169MOL0     C22202   2.259  -0.279  -0.407 -0.2011  0.1838  0.1278
  169MOL0     C22203   2.324  -0.364  -0.494 -0.3985  0.1087 -0.4727
  169MOL0     C22204   2.252  -0.424  -0.598  0.5015  0.1024 -0.1290
  169MOL0     C22205   2.318  -0.524  -0.687  0.4487 -0.1694 -0.2560
  169MOL0     O22206   2.256  -0.538  -0.818  0.4824  0.2427 -0.4968
  169MOL0     C22207   2.335  -0.603  -0.902 -0.2931 -0.0613 -0.0881
  169MOL0     C22208   2.466  -0.568  -0.947  0.0650 -0.4635  0.1630
  169MOL0     C22209   2.531  -0.639  -1.036 -0.2744  0.5260  0.6040
  169MOL0     C22210   2.472  -0.749  -1.095  0.2946  0.7404 -0.1856
  169MOL0     O22211   2.533  -0.825  -1.193  0.6146  0.3051  0.3246
  169MOL0     C22212   2.577  -0.950  -1.147  0.9871  0.9016  0.7865
  169MOL0     C22213   2.571  -1.039  -1.279 -0.8776 -0.1286 -1.3273
  169MOL0     C22214   2.715  -1.068  -1.324 -0.5737  0.6681 -0.0174
  169MOL0     C22215   2.720  -1.135  -1.468  0.1283 -0.6036  0.8640
  169MOL0     C22216   2.860  -1.139  -1.530  0.4241  0.2173  0.4142
  169MOL0     C22217   2.965  -1.225  -1.460  0.1353 -0.1390  0.6138
  169MOL0     C22218   3.079  -1.237  -1.564 -0.2519 -0.5060 -0.1581
  169MOL0     C22219   3.069  -1.358  -1.656  0.1160  0.5474 -0.1132
  169MOL0    Cl22220   3.176  -1.352  -1.790  0.5990  0.1531 -0.3768
  169MOL0     C22221   2.342  -0.793  -1.057 -0.6438 -0.3787  0.1486
  169MOL0     C22222   2.278  -0.723  -0.951  0.1301 -1.3994  0.1136
  169MOL0     O22223   2.427  -0.567  -0.652 -0.0447 -0.1186  0.4660
  169MOL0     C22224   2.126  -0.390  -0.616  0.9915 -0.0410 -0.6783
  169MOL0     C22225   2.063  -0.291  -0.533 -0.2332 -1.1654 -0.0499
  169MOL0     N22226   2.306   0.306  -0.495  0.9915 -0.0388  0.9845
  169MOL0     N22227   2.395   0.390  -0.543  0.3263  0.2832 -0.0172
  169MOL0     C22228   3.437   0.126  -0.361  0.5062  0.8507 -0.9876
  169MOL0     C22229   3.525   0.160  -0.265 -0.8252  0.0510  1.0403
  169MOL0     C22230   3.690   0.319   0.122 -0.0569 -0.3120  0.3655
  169MOL0     C22231   3.773   0.262   0.221 -0.4719  0.5538  0.9111
  169MOL0     C22232   3.787   0.316   0.348 -0.3534 -0.3916 -0.2407
  169MOL0     C22233   3.726   0.433   0.384 -0.6322  0.2710  0.0036
  169MOL0     O22234   3.739   0.466   0.514  0.0314  0.6210 -0.2407
  169MOL0     C22235   3.703   0.605   0.536 -0.6358  0.4775 -0.2977
  169MOL0     C22236   3.739   0.648   0.670 -0.4932  0.5082 -0.0526
  169MOL0     C22237   3.679   0.563   0.780  0.4018  0.6045 -0.4175
  169MOL0     C22238   3.699   0.638   0.912 -1.1181  0.0766 -0.1584
  169MOL0     C22239   3.641   0.773   0.914  0.3807 -0.7390  0.1346
  169MOL0     C22240   3.608   0.889   0.919 -0.2311 -0.4042 -0.1207
  169MOL0     C22241   3.648   0.497   0.286 -0.1988  0.8471  0.4220
  169MOL0     C22242   3.643   0.448   0.153 -0.3781  0.0367 -1.7951
  169MOL0     H22243   3.424   0.482  -0.189  1.0675 -2.2747  1.9389
  169MOL0     H22244   3.246   0.414  -0.352 -0.2877 -1.0235 -0.0370
  169MOL0     H22245   3.166   0.341  -0.553 -2.5633  1.8866  2.8861
  169MOL0     H22246   3.067   0.230  -0.445 -0.3794 -0.0194  0.1697
  169MOL0     H22247   3.043   0.075  -0.625 -1.4991 -0.4981 -2.8975
  169MOL0     H22248   3.161   0.165  -0.720 -0.1390 -2.2147 -0.2229
  169MOL0     H22249   3.007   0.345  -0.757  2.1437  0.4056  1.0100
  169MOL0     H22250   2.908   0.298  -0.609 -0.1055 -2.3501  0.6539
  169MOL0     H22251   2.918   0.110  -0.837  1.2839 -1.4120  2.3659
  169MOL0     H22252   2.798   0.116  -0.718 -0.0523  0.0486 -0.7587
  169MOL0     H22253   2.710   0.216  -0.927 -2.4531  1.4620  0.4705
  169MOL0     H22254   2.825   0.350  -0.918  1.0340 -0.7101  1.1851
  169MOL0     H22255   2.718   0.436  -0.719  1.6926  0.1880 -0.8570
  169MOL0     H22256   2.613   0.293  -0.700 -5.3733  1.5438 -2.0189
  169MOL0     H22257   2.601   0.482  -0.932 -2.7363 -0.4475 -1.0628
  169MOL0     H22258   2.520   0.328  -0.911 -3.5225  0.3327  1.6413
  169MOL0     H22259   2.394   0.528  -0.866  0.5416  2.7741  1.1063
  169MOL0     H22260   2.506   0.568  -0.730  0.8543 -0.1754 -1.8709
  169MOL0     H22261   2.210   0.368  -0.817 -0.6465 -1.2259 -0.7661
  169MOL0     H22262   2.082   0.137  -0.674  4.8497  0.4440 -2.5831
  169MOL0     H22263   1.994   0.263  -0.574 -1.0025 -1.6984  0.7029
  169MOL0     H22264   2.080   0.158  -0.362  1.4213  0.6005 -0.1414
  169MOL0     H22265   2.167   0.050  -0.479  0.4779  0.6422 -1.0066
  169MOL0     H22266   1.863   0.081  -0.409 -2.5823 -5.0871 -0.1886
  169MOL0     H22267   1.918  -0.018  -0.536  0.1799 -1.9281  1.2227
  169MOL0     H22268   1.884  -0.174  -0.377  1.0172  0.4724 -3.5959
  169MOL0     H22269   1.928  -0.066  -0.240  0.4478 -1.0004  1.2648
  169MOL0     H22270   2.312  -0.243  -0.319 -0.0824  0.2264  0.0378
  169MOL0     H22271   2.427  -0.392  -0.477  0.6691  1.9827 -3.1113
  169MOL0     H22272   2.521  -0.477  -0.924  1.1471 -0.7450 -1.2026
  169MOL0     H22273   2.633  -0.619  -1.068 -0.5458 -2.2150 -2.5851
  169MOL0     H22274   2.519  -1.014  -1.079 -3.8609 -1.7786 -4.9151
  169MOL0     H22275   2.675  -0.932  -1.101  3.0279 -0.8042 -2.4518
  169MOL0     H22276   2.513  -0.994  -1.360 -0.5893  2.6205 -0.1315
  169MOL0     H22277   2.521  -1.128  -1.240  1.3407 -0.4957  1.0029
  169MOL0     H22278   2.764  -1.130  -1.248 -2.4939 -1.3326 -0.2918
  169MOL0     H22279   2.767  -0.973  -1.340  2.6624 -0.9980 -0.2405
  169MOL0     H22280   2.678  -1.233  -1.441 -2.9486  0.8890  2.0173
  169MOL0     H22281   2.661  -1.077  -1.540  0.8940 -3.5125 -2.3709
  169MOL0     H22282   2.908  -1.041  -1.529  0.2616  0.3650  3.6035
  169MOL0     H22283   2.850  -1.179  -1.632  0.9991  0.4704  0.2549
  169MOL0     H22284   2.921  -1.323  -1.439 -4.4096  2.1642  3.1836
  169MOL0     H22285   2.997  -1.176  -1.368  0.9874  3.2819 -1.3268
  169MOL0     H22286   3.093  -1.148  -1.627  0.2001  0.2729  1.0179
  169MOL0     H22287   3.171  -1.240  -1.506  0.6854 -0.9417 -1.5994
  169MOL0     H22288   2.968  -1.362  -1.699 -0.1504  0.1795  0.5238
  169MOL0     H22289   3.086  -1.456  -1.609 -0.1665  0.4148 -0.2811
  169MOL0     H22290   2.299  -0.881  -1.102  1.5448 -1.9479  0.9414
  169MOL0     H22291   2.191  -0.758  -0.898 -2.5790 -1.0929 -3.6733
  169MOL0     H22292   2.064  -0.416  -0.701 -0.5309  2.8447 -0.5913
  169MOL0     H22293   1.962  -0.259  -0.556  0.7879  1.5375 -1.2577
  169MOL0     H22294   3.445   0.033  -0.416 -2.2566  1.2759 -2.3121
  169MOL0     H22295   3.606   0.090  -0.252 -0.3647  0.5580  0.9058
  169MOL0     H22296   3.817   0.166   0.198 -1.7389 -0.4877  2.6147
  169MOL0     H22297   3.856   0.264   0.414  1.6603 -2.5812 -3.7057
  169MOL0     H22298   3.594   0.612   0.532 -0.8431 -0.5932  1.8754
  169MOL0     H22299   3.759   0.663   0.462  3.1260 -3.4805 -0.9754
  169MOL0     H22300   3.848   0.651   0.675 -0.5310  0.5246  0.9822
  169MOL0     H22301   3.712   0.754   0.667  1.9045  1.1643  0.2123
  169MOL0     H22302   3.745   0.477   0.782  2.8934  2.3630  3.3134
  169MOL0     H22303   3.573   0.537   0.775 -0.5700  3.6571  1.6068
  169MOL0     H22304   3.663   0.576   0.995 -1.7220 -0.9215 -1.1310
  169MOL0     H22305   3.807   0.645   0.931 -0.5452 -5.4153  0.3463
  169MOL0     H22306   3.576   0.990   0.902  1.8210 -0.0403 -2.3872
  169MOL0     H22307   3.591   0.587   0.303  0.4836  1.5163 -0.7431
  169MOL0     H22308   3.571   0.494   0.086 -1.2324  3.0049  0.8826
  170MOL0     O22309   9.040  10.525   2.029  0.4268 -0.7386  0.7683
  170MOL0     C22310   8.964  10.611   2.003 -1.3894 -0.2686  0.2197
  170MOL0     O22311   8.996  10.736   1.959 -0.1197  0.1057 -0.6001
  170MOL0     C22312   9.122  10.787   1.962  1.0920  0.3285 -0.1676
  170MOL0     C22313   9.228  10.744   2.043 -0.1490  0.5083  1.1577
  170MOL0     C22314   9.357  10.797   2.018 -0.4123 -0.4429 -0.2989
  170MOL0     C22315   9.380  10.893   1.924 -0.9778 -0.6698 -0.6996
  170MOL0     O22316   9.508  10.938   1.909  0.1175  0.3957  0.3931
  170MOL0     C22317   9.526  11.070   1.844  1.2090 -0.7618  0.7612
  170MOL0     C22318   9.636  11.137   1.921  0.1679 -0.6513 -0.2629
  170MOL0     C22319   9.607  11.287   1.923  0.0259  0.0835  0.0484
  170MOL0     C22320   9.697  11.352   2.018 -0.4157 -0.4552 -1.0429
  170MOL0     C22321   9.631  11.477   2.089 -0.0270  0.4085  0.6809
  170MOL0     C22322   9.551  11.442   2.220  0.2785  0.4436  0.7178
  170MOL0     C22323   9.500  11.555   2.300 -0.1821  0.2368 -0.0445
  170MOL0     C22324   9.622  11.629   2.347 -0.3072  0.1293 -0.4451
  170MOL0     N22325   9.571  11.770   2.379 -0.9836 -0.5523 -0.3316
  170MOL0     C22326   9.489  11.795   2.483 -0.0470  0.8201  0.7201
  170MOL0     C22327   9.501  11.926   2.506 -0.0102  0.0805  0.1675
  170MOL0     C22328   9.438  12.000   2.623 -0.4906 -0.1315 -0.1324
  170MOL0     C22329   9.549  12.018   2.734  0.0432 -0.9682 -0.2883
  170MOL0     C22330   9.485  12.033   2.864  0.7178  0.1263 -0.0305
  170MOL0     C22331   9.580  12.057   2.985  0.3941 -0.7331 -0.2018
  170MOL0     O22332   9.500  12.081   3.103  0.1338 -0.8421 -0.4346
  170MOL0     C22333   9.526  12.198   3.175  0.1090  0.4539  0.2319
  170MOL0     C22334   9.420  12.261   3.235  0.2749 -0.0299 -0.1203
  170MOL0     C22335   9.431  12.368   3.318  0.3754 -0.9589 -0.0720
  170MOL0     C22336   9.558  12.423   3.334 -0.1474  0.0279 -0.4722
  170MOL0     C22337   9.584  12.541   3.416  0.4204 -0.7328  0.1007
  170MOL0     O22338   9.713  12.601   3.391  0.3018  0.5345  0.5909
  170MOL0     C22339   9.752  12.679   3.492 -1.2999 -0.0380 -0.9520
  170MOL0     C22340   9.782  12.625   3.625 -0.5564  0.6437  0.2200
  170MOL0     C22341   9.816  12.715   3.721 -0.2278  0.8708  0.3802
  170MOL0     C22342   9.823  12.856   3.704  0.2180  0.8018 -0.4890
  170MOL0     O22343   9.836  12.919   3.827 -0.2016  0.4301 -0.2410
  170MOL0     C22344   9.831  13.065   3.833 -0.3070 -0.7383  0.1297
  170MOL0     C22345   9.967  13.133   3.803  0.0423 -0.2982 -0.7881
  170MOL0     C22346   9.941  13.277   3.794  0.2582  0.0345 -0.9676
  170MOL0     C22347  10.055  13.328   3.702  0.5460 -0.0718 -0.2484
  170MOL0     C22348  10.032  13.483   3.699 -0.0915 -0.0888  0.0230
  170MOL0     C22349  10.107  13.564   3.599 -0.4224  1.0677  0.0771
  170MOL0     C22350  10.084  13.706   3.608  0.2241 -0.0353  0.8479
  170MOL0     C22351   9.949  13.765   3.562  0.0647  0.9615 -1.1728
  170MOL0    Cl22352   9.951  13.943   3.565 -0.2177 -0.0740  0.0159
  170MOL0     C22353   9.823  12.899   3.575  0.7857 -0.2748  0.6844
  170MOL0     C22354   9.783  12.813   3.465 -0.1520  1.0056 -0.7812
  170MOL0     O22355   9.502  12.570   3.508 -0.7204  0.4376 -0.6256
  170MOL0     C22356   9.672  12.350   3.293  0.1742  0.3808  1.0550
  170MOL0     C22357   9.654  12.244   3.204  0.3813  0.4201  1.1695
  170MOL0     N22358   9.582  11.973   2.407 -0.1783 -0.2501  0.3711
  170MOL0     N22359   9.627  11.880   2.328 -0.3079  0.9492  0.1522
  170MOL0     C22360   9.267  10.940   1.857 -0.5071  0.5872 -0.8044
  170MOL0     C22361   9.144  10.881   1.872 -0.2776 -0.1366 -0.8031
  170MOL0     C22362   8.821  10.562   2.015 -0.2885  1.0624  0.1328
  170MOL0     C22363   8.722  10.657   2.046  0.1959 -1.2099 -1.2210
  170MOL0     C22364   8.591  10.618   2.046  0.7676  0.4235  0.0664
  170MOL0     C22365   8.546  10.489   2.022  0.5371 -0.4859  0.3369
  170MOL0     O22366   8.414  10.461   2.017  0.1042 -0.3804  0.2198
  170MOL0     C22367   8.366  10.349   2.101 -0.3230 -0.7060  0.6478
  170MOL0     C22368   8.217  10.349   2.084 -0.2202  0.5439  0.5568
  170MOL0     C22369   8.143  10.247   2.172  0.3933  0.0793  0.5521
  170MOL0     C22370   8.009  10.288   2.219  0.7757  0.7417  1.0872
  170MOL0     C22371   8.023  10.367   2.343  0.8038 -0.5232 -0.6886
  170MOL0     C22372   8.042  10.441   2.438 -0.3839  0.4537  0.6609
  170MOL0     C22373   8.647  10.397   2.002 -0.0384  0.8799  0.7820
  170MOL0     C22374   8.787  10.428   1.991  1.1538 -0.2939  2.1900
  170MOL0     H22375   9.223  10.653   2.101  1.3593 -1.6580 -1.8021
  170MOL0     H22376   9.445  10.774   2.078 -0.3796  0.4811  0.0216
  170MOL0     H22377   9.441  11.139   1.839  0.2822 -1.9193 -0.0895
  170MOL0     H22378   9.557  11.044   1.742 -1.1834  1.0536 -0.5462
  170MOL0     H22379   9.734  11.121   1.876  1.1785  0.0712  1.5709
  170MOL0     H22380   9.631  11.101   2.024 -1.3230  0.0358 -0.0650
  170MOL0     H22381   9.507  11.304   1.963  0.9554 -0.9679  3.1512
  170MOL0     H22382   9.621  11.331   1.824 -0.5442 -2.6702 -1.3349
  170MOL0     H22383   9.735  11.281   2.092 -4.2131 -1.5464  0.0686
  170MOL0     H22384   9.781  11.393   1.961 -1.8016 -0.5778 -3.2897
  170MOL0     H22385   9.564  11.530   2.020  0.1041  4.0684  3.0576
  170MOL0     H22386   9.714  11.542   2.116  0.0055 -0.3732  2.6302
  170MOL0     H22387   9.611  11.379   2.286  1.4891  2.2431  1.4075
  170MOL0     H22388   9.467  11.387   2.176  0.5441  0.1912  0.5149
  170MOL0     H22389   9.429  11.613   2.240  0.8003  0.4699 -1.0048
  170MOL0     H22390   9.462  11.521   2.397 -0.5860  3.1349  0.8931
  170MOL0     H22391   9.713  11.634   2.287  0.2542 -2.0787  0.1267
  170MOL0     H22392   9.655  11.578   2.438  3.4413  0.4103 -1.5079
  170MOL0     H22393   9.440  11.720   2.545  1.1592 -0.9348 -0.3489
  170MOL0     H22394   9.359  11.936   2.663  1.1363 -1.6034  0.9033
  170MOL0     H22395   9.396  12.098   2.597  0.3367  0.0178 -0.9776
  170MOL0     H22396   9.610  12.105   2.710  0.8367 -1.2449  0.6664
  170MOL0     H22397   9.624  11.938   2.741  1.9380  0.8664  2.3561
  170MOL0     H22398   9.407  12.110   2.860  1.9436  1.3573 -1.3544
  170MOL0     H22399   9.417  11.950   2.888 -2.9362  3.1778  1.3364
  170MOL0     H22400   9.643  12.143   2.962  1.1392 -1.3346 -0.4877
  170MOL0     H22401   9.632  11.961   2.993 -4.0232 -3.3357  1.0650
  170MOL0     H22402   9.321  12.223   3.210 -1.1245  2.4839  1.2045
  170MOL0     H22403   9.347  12.418   3.365 -1.8916 -3.5165 -1.1385
  170MOL0     H22404   9.781  12.518   3.643 -1.1059  0.1772 -2.2285
  170MOL0     H22405   9.829  12.677   3.822 -1.2777  0.9319  0.5437
  170MOL0     H22406   9.812  13.093   3.937 -0.2429 -0.3293  0.0320
  170MOL0     H22407   9.746  13.099   3.775  1.4313  2.7313 -0.6413
  170MOL0     H22408  10.022  13.086   3.722 -0.3158 -0.1878 -1.0986
  170MOL0     H22409  10.020  13.119   3.898  1.6070  0.2964 -1.5455
  170MOL0     H22410   9.958  13.316   3.895 -4.8496 -1.9674  0.9925
  170MOL0     H22411   9.841  13.300   3.755 -0.2536  0.2460  0.3949
  170MOL0     H22412  10.150  13.298   3.748  0.0593 -2.5239 -0.7186
  170MOL0     H22413  10.053  13.297   3.597  1.1709  1.0120 -0.6004
  170MOL0     H22414  10.054  13.527   3.797 -1.4802  1.0137 -0.1216
  170MOL0     H22415   9.928  13.498   3.668 -0.1027 -1.8751 -0.9024
  170MOL0     H22416  10.084  13.523   3.500 -2.4405  0.6609  0.6554
  170MOL0     H22417  10.211  13.535   3.615 -0.4499  1.4006  0.8861
  170MOL0     H22418  10.103  13.735   3.712  2.7827  1.9177 -0.0408
  170MOL0     H22419  10.164  13.759   3.555  0.7446 -0.4089  1.2442
  170MOL0     H22420   9.869  13.738   3.632 -0.4617 -0.1950 -2.1862
  170MOL0     H22421   9.932  13.724   3.462  0.3655 -2.4557  0.0471
  170MOL0     H22422   9.830  13.004   3.547 -0.9276 -0.0392  1.0497
  170MOL0     H22423   9.775  12.854   3.365  0.2900 -0.6881 -1.5409
  170MOL0     H22424   9.772  12.384   3.315  0.7102  0.6634 -1.4923
  170MOL0     H22425   9.740  12.194   3.160 -0.5557  1.6947 -2.4829
  170MOL0     H22426   9.283  11.024   1.790  0.9818  0.4919 -0.5889
  170MOL0     H22427   9.051  10.909   1.825 -0.0737  0.3905 -0.8899
  170MOL0     H22428   8.756  10.754   2.079  2.2020 -1.9820 -0.8609
  170MOL0     H22429   8.519  10.696   2.069  0.6549 -0.8572  5.0744
  170MOL0     H22430   8.396  10.354   2.206 -3.6086  0.2697  1.6437
  170MOL0     H22431   8.395  10.258   2.049 -0.4783  1.5526 -3.8628
  170MOL0     H22432   8.184  10.448   2.117  2.2760  1.1726  1.3909
  170MOL0     H22433   8.184  10.339   1.980 -0.6466 -1.6359  0.8599
  170MOL0     H22434   8.208  10.210   2.252 -0.0949 -0.6907  0.6019
  170MOL0     H22435   8.126  10.157   2.112 -0.2786 -0.4909  1.5609
  170MOL0     H22436   7.962  10.355   2.146 -0.6143  0.8273  2.0273
  170MOL0     H22437   7.939  10.204   2.229  2.8280 -1.0291  1.3433
  170MOL0     H22438   8.060  10.511   2.518 -0.7124  0.4642  0.7267
  170MOL0     H22439   8.626  10.291   1.998  2.5566  0.3579 -1.4297
  170MOL0     H22440   8.868  10.357   1.978  1.4241  0.3552 -0.2017
  171MOL0     O22441  10.951   0.263   9.191 -0.9663  0.0987  0.6058
  171MOL0     C22442  10.851   0.249   9.264  0.3146 -1.0064  0.3102
  171MOL0     O22443  10.826   0.311   9.381 -0.1718  0.1455  0.0026
  171MOL0     C22444  10.925   0.400   9.431 -0.4726  0.3022  0.1755
  171MOL0     C22445  10.882   0.521   9.485 -0.2059 -0.2551  0.5327
  171MOL0     C22446  10.969   0.618   9.522 -0.1287 -0.0006  0.6685
  171MOL0     C22447  11.107   0.598   9.528  0.1106 -0.0330 -0.1789
  171MOL0     O22448  11.215   0.693   9.563 -0.0602  0.4194  0.2305
  171MOL0     C22449  11.182   0.808   9.633  0.5686  0.5022  1.3812
  171MOL0     C22450  11.293   0.816   9.747  0.6256  0.4761 -0.2745
  171MOL0     C22451  11.432   0.854   9.696  0.0445  0.5862  0.1390
  171MOL0     C22452  11.516   0.728   9.672 -0.2727  0.0420 -0.2860
  171MOL0     C22453  11.647   0.769   9.603  0.2704 -0.5733 -0.9240
  171MOL0     C22454  11.742   0.652   9.554 -0.6249 -0.8584  0.2080
  171MOL0     C22455  11.856   0.686   9.450 -0.6313 -0.8987  0.3890
  171MOL0     C22456  11.907   0.561   9.373 -0.3255 -0.7130 -0.5422
  171MOL0     N22457  11.977   0.466   9.466 -0.0575  1.2298  0.5158
  171MOL0     C22458  12.108   0.452   9.478 -0.2812 -0.4954  0.1241
  171MOL0     C22459  12.138   0.336   9.547  0.4545  0.6675  0.2130
  171MOL0     C22460  12.267   0.294   9.579 -0.5020 -0.0794  0.0294
  171MOL0     C22461  12.312   0.367   9.708 -0.1373 -0.1645  0.4886
  171MOL0     C22462  12.457   0.351   9.743 -0.2659 -0.1189 -0.3112
  171MOL0     C22463  12.494   0.203   9.757 -0.2156 -1.1774 -0.3093
  171MOL0     O22464  12.400   0.123   9.834  0.7092  0.6703 -0.3809
  171MOL0     C22465  12.405   0.125   9.979 -0.2607  0.3949 -0.2443
  171MOL0     C22466  12.504   0.192  10.060 -0.6817  0.1217  0.5846
  171MOL0     C22467  12.493   0.191  10.204  0.5430  0.9979 -0.3694
  171MOL0     C22468  12.379   0.127  10.262  0.2699  0.2766 -0.4998
  171MOL0     C22469  12.354   0.144  10.409  0.3461 -1.0989  0.4404
  171MOL0     O22470  12.242   0.086  10.471 -0.0996  0.2970 -0.4321
  171MOL0     C22471  12.206   0.113  10.598 -0.1432  1.1379  0.8034
  171MOL0     C22472  12.292   0.061  10.694  0.4050  0.9085 -0.8772
  171MOL0     C22473  12.258   0.069  10.824 -0.1938 -0.4963  0.4948
  171MOL0     C22474  12.150   0.144  10.864 -0.1089  0.1556  0.1752
  171MOL0     O22475  12.151   0.185  10.995 -0.2356  0.2317  0.1589
  171MOL0     C22476  12.091   0.306  11.043  0.4948 -0.0110 -0.6555
  171MOL0     C22477  12.166   0.419  10.978  0.0440  1.2158  0.9302
  171MOL0     C22478  12.177   0.552  11.060 -0.0122  1.2285  0.9631
  171MOL0     C22479  12.272   0.646  11.016 -0.4345 -0.7685  0.4732
  171MOL0     C22480  12.297   0.761  11.119 -0.3630 -0.7400  0.0238
  171MOL0     C22481  12.360   0.721  11.254  0.8743 -0.4587 -0.9863
  171MOL0     C22482  12.403   0.856  11.331 -1.3758  0.9966 -0.3469
  171MOL0     C22483  12.413   0.827  11.490 -0.1199  0.0629 -0.2214
  171MOL0    Cl22484  12.522   0.679  11.502 -0.0633  0.4446 -0.0171
  171MOL0     C22485  12.062   0.192  10.768 -0.0264 -0.9825  0.4686
  171MOL0     C22486  12.086   0.175  10.631 -0.3784 -0.1810  0.1203
  171MOL0     O22487  12.437   0.222  10.459 -0.0071 -0.7146  0.6200
  171MOL0     C22488  12.291   0.057  10.183 -0.3328  0.1371 -0.6541
  171MOL0     C22489  12.311   0.051  10.046 -0.8209  0.2067  0.5458
  171MOL0     N22490  12.016   0.275   9.578  0.4014  0.6985  0.3320
  171MOL0     N22491  11.925   0.351   9.526 -0.4247 -0.0588 -0.7807
  171MOL0     C22492  11.149   0.471   9.486 -0.1897  0.3083 -0.2472
  171MOL0     C22493  11.062   0.370   9.437 -0.3433 -0.2034 -0.1867
  171MOL0     C22494  10.756   0.145   9.229  0.9774 -1.0656  1.8788
  171MOL0     C22495  10.653   0.094   9.306 -0.5188  0.5960  0.1666
  171MOL0     C22496  10.579  -0.023   9.276 -0.0398  0.2523 -0.8637
  171MOL0     C22497  10.608  -0.094   9.167 -0.2788 -0.1681  0.1230
  171MOL0     O22498  10.529  -0.206   9.136 -0.7867  0.2760 -0.0835
  171MOL0     C22499  10.604  -0.324   9.160 -0.2242  0.0734 -0.7433
  171MOL0     C22500  10.535  -0.435   9.081 -0.2360  0.1958  0.6502
  171MOL0     C22501  10.622  -0.470   8.956 -0.9522 -0.2124  0.4373
  171MOL0     C22502  10.749  -0.543   8.993 -0.5225 -1.1377  0.0574
  171MOL0     C22503  10.818  -0.594   8.878 -1.4995 -0.3866 -0.2552
  171MOL0     C22504  10.887  -0.664   8.801 -0.0631  0.6116 -0.6241
  171MOL0     C22505  10.711  -0.050   9.077 -0.3041  1.2066 -0.1170
  171MOL0     C22506  10.778   0.072   9.107  0.1194  0.2842 -0.2224
  171MOL0     H22507  10.777   0.548   9.479  0.1340  0.9892 -0.4232
  171MOL0     H22508  10.927   0.711   9.560 -0.0362  0.4591 -0.3114
  171MOL0     H22509  11.078   0.809   9.667 -0.6480  0.8556 -2.0401
  171MOL0     H22510  11.197   0.900   9.575 -0.4102 -0.1916 -0.0276
  171MOL0     H22511  11.284   0.722   9.801 -0.0614  1.1457  0.8259
  171MOL0     H22512  11.254   0.895   9.812  0.5309 -0.5180  0.8990
  171MOL0     H22513  11.476   0.905   9.782 -1.6839  1.6587  0.4343
  171MOL0     H22514  11.430   0.921   9.610  1.1576  0.0152 -0.3463
  171MOL0     H22515  11.526   0.684   9.772 -0.3090  2.5072  0.8767
  171MOL0     H22516  11.462   0.666   9.600 -0.6704  2.0885 -1.8581
  171MOL0     H22517  11.716   0.831   9.661  1.9872 -0.5428 -2.8594
  171MOL0     H22518  11.608   0.820   9.514 -0.1013  3.2436  1.2327
  171MOL0     H22519  11.684   0.574   9.504  1.3794 -2.5894  0.4695
  171MOL0     H22520  11.787   0.613   9.646 -0.3979  2.1247  1.4824
  171MOL0     H22521  11.810   0.760   9.383 -1.7663 -0.8159  1.2316
  171MOL0     H22522  11.937   0.738   9.501  0.1374 -0.9811 -0.7098
  171MOL0     H22523  11.963   0.594   9.286 -3.1273  3.6003 -0.9844
  171MOL0     H22524  11.819   0.506   9.336 -1.9941 -0.4154  2.5870
  171MOL0     H22525  12.180   0.522   9.436 -2.3758  1.3082 -0.6520
  171MOL0     H22526  12.344   0.306   9.502  1.2480 -0.6892  1.6120
  171MOL0     H22527  12.252   0.186   9.587 -0.1793 -0.0334  1.5639
  171MOL0     H22528  12.239   0.344   9.787 -0.0004 -1.9314  0.1433
  171MOL0     H22529  12.302   0.475   9.691 -2.4764 -0.7722 -3.1623
  171MOL0     H22530  12.516   0.386   9.658  0.8882 -0.5197  0.3020
  171MOL0     H22531  12.469   0.415   9.831 -0.4280  1.2482 -1.2561
  171MOL0     H22532  12.601   0.191   9.776 -0.4255 -0.5881  1.3507
  171MOL0     H22533  12.475   0.161   9.657 -1.1102  0.7953 -1.0195
  171MOL0     H22534  12.594   0.234  10.016  0.7345 -3.5723 -0.4128
  171MOL0     H22535  12.564   0.248  10.262  0.7661  1.2221 -0.8521
  171MOL0     H22536  12.381   0.007  10.665  0.5675 -0.9416  2.5656
  171MOL0     H22537  12.313   0.013  10.899  2.8762 -0.2897 -1.3966
  171MOL0     H22538  12.102   0.308  11.152  4.4664 -0.1622 -0.9272
  171MOL0     H22539  11.988   0.303  11.007  0.4888 -0.7238 -0.5793
  171MOL0     H22540  12.123   0.434  10.878 -0.8780 -1.0712  0.9246
  171MOL0     H22541  12.267   0.385  10.953 -1.7630 -3.1438 -1.6057
  171MOL0     H22542  12.212   0.519  11.158 -0.9903  3.6361  2.1973
  171MOL0     H22543  12.077   0.595  11.069 -0.6186  0.1322 -0.1024
  171MOL0     H22544  12.367   0.595  10.997  0.0097 -0.2769  1.3181
  171MOL0     H22545  12.238   0.689  10.921  1.3712 -1.6707 -0.6519
  171MOL0     H22546  12.206   0.821  11.130 -0.5910 -1.1487  0.4417
  171MOL0     H22547  12.360   0.838  11.074  0.3544 -0.1925  1.8621
  171MOL0     H22548  12.454   0.671  11.230  1.6399  0.0056  0.8483
  171MOL0     H22549  12.299   0.656  11.317 -0.3151  1.4970  0.0004
  171MOL0     H22550  12.495   0.899  11.291 -2.5440  2.0976 -1.9838
  171MOL0     H22551  12.325   0.931  11.318 -0.7640  1.5163 -1.0766
  171MOL0     H22552  12.318   0.801  11.536 -1.2925  0.5330 -2.2517
  171MOL0     H22553  12.463   0.911  11.538 -0.1167  0.8056 -1.4782
  171MOL0     H22554  11.980   0.255  10.799  1.5353  0.5561  1.6398
  171MOL0     H22555  12.030   0.225  10.553  0.7360 -1.1210 -1.3144
  171MOL0     H22556  12.196   0.016  10.215  0.2224 -1.1326 -0.5715
  171MOL0     H22557  12.242  -0.009   9.987  1.5704 -1.6537 -0.5303
  171MOL0     H22558  11.256   0.451   9.493 -0.6811 -1.9180  3.1429
  171MOL0     H22559  11.107   0.276   9.408  0.6494 -0.0909  0.8849
  171MOL0     H22560  10.628   0.137   9.403 -0.5329 -0.4346  0.6290
  171MOL0     H22561  10.499  -0.058   9.341 -0.1846 -0.0610 -1.2124
  171MOL0     H22562  10.610  -0.365   9.262 -1.6493 -0.1828 -0.7453
  171MOL0     H22563  10.708  -0.314   9.128 -0.3465  3.2744 -0.3964
  171MOL0     H22564  10.512  -0.514   9.154  1.1746 -1.5519 -0.7049
  171MOL0     H22565  10.441  -0.400   9.039  0.2074  0.1035 -0.4477
  171MOL0     H22566  10.638  -0.375   8.905 -2.4111 -0.1523  0.0443
  171MOL0     H22567  10.558  -0.531   8.891 -0.1201 -2.8369  1.9436
  171MOL0     H22568  10.819  -0.481   9.049  0.1117  0.4689 -2.3599
  171MOL0     H22569  10.718  -0.632   9.048  1.9318 -0.9141  1.9971
  171MOL0     H22570  10.943  -0.710   8.722 -1.8788  1.4197 -2.4596
  171MOL0     H22571  10.746  -0.110   8.993 -2.5572 -2.7134  1.4969
  171MOL0     H22572  10.862   0.097   9.043 -1.9669 -2.5368 -4.5712
  172MOL0     O22573   8.531   4.474   9.684  0.2302 -0.0744 -0.7608
  172MOL0     C22574   8.434   4.522   9.621  1.3554 -0.8604 -1.2118
  172MOL0     O22575   8.328   4.452   9.582  1.2223 -0.4108 -0.6850
  172MOL0     C22576   8.323   4.315   9.572 -0.2555  0.3731 -0.4404
  172MOL0     C22577   8.424   4.226   9.564 -0.8351  0.1121  0.6131
  172MOL0     C22578   8.407   4.089   9.521 -0.2452  0.0586  0.4264
  172MOL0     C22579   8.286   4.043   9.498 -0.2193  0.1514 -0.0207
  172MOL0     O22580   8.258   3.911   9.478  0.1174  0.0310  0.0357
  172MOL0     C22581   8.307   3.809   9.564 -1.1118 -0.9993 -0.4382
  172MOL0     C22582   8.248   3.833   9.702  1.6177  0.9006  0.1421
  172MOL0     C22583   8.271   3.712   9.805  0.2419  0.0341  0.5473
  172MOL0     C22584   8.223   3.756   9.945  0.2676 -0.2558  0.1475
  172MOL0     C22585   8.227   3.639  10.050 -0.5281  0.1655  0.2644
  172MOL0     C22586   8.185   3.715  10.178  0.0583 -0.3952  0.9229
  172MOL0     C22587   8.198   3.642  10.303  0.1911 -0.1797 -0.4230
  172MOL0     C22588   8.241   3.727  10.422  0.5856  0.0641 -0.9894
  172MOL0     N22589   8.246   3.632  10.541 -0.5495 -0.7011 -0.4254
  172MOL0     C22590   8.357   3.582  10.601 -0.9282  0.4719 -0.2304
  172MOL0     C22591   8.322   3.546  10.721  1.0245  1.3767 -0.2271
  172MOL0     C22592   8.394   3.503  10.845  0.3541  0.0365 -0.8719
  172MOL0     C22593   8.488   3.392  10.795  0.3895 -0.3141 -0.5084
  172MOL0     C22594   8.565   3.317  10.905 -0.8426  0.5187 -0.0902
  172MOL0     C22595   8.660   3.415  10.992  0.3470 -0.9010  0.0204
  172MOL0     O22596   8.760   3.473  10.911  0.1706  0.2550  0.3163
  172MOL0     C22597   8.846   3.575  10.950 -0.1710  0.2072 -0.9024
  172MOL0     C22598   8.834   3.639  11.073  0.2249  0.0818 -0.1265
  172MOL0     C22599   8.922   3.742  11.111  1.2209  0.1117 -0.8991
  172MOL0     C22600   9.032   3.782  11.038 -0.6579 -0.1404  0.5547
  172MOL0     C22601   9.118   3.894  11.075 -0.5055  0.9492 -0.2488
  172MOL0     O22602   9.160   3.885  11.213  0.1815  0.3384  1.1252
  172MOL0     C22603   9.252   3.972  11.263 -0.7959  0.0409 -0.9473
  172MOL0     C22604   9.367   3.924  11.326 -0.7483 -0.4018  0.7821
  172MOL0     C22605   9.479   4.002  11.364  0.7041  0.2168  0.2440
  172MOL0     C22606   9.476   4.140  11.332  0.4963  0.3199  0.5093
  172MOL0     O22607   9.584   4.223  11.350  0.0612  0.4029  0.1057
  172MOL0     C22608   9.571   4.348  11.410 -0.0876 -0.2768  0.2486
  172MOL0     C22609   9.551   4.328  11.560 -0.3586  0.4439  0.5760
  172MOL0     C22610   9.614   4.444  11.633 -1.0762 -0.7558 -0.3927
  172MOL0     C22611   9.764   4.426  11.673  0.8514  0.9053 -0.4255
  172MOL0     C22612   9.798   4.543  11.769  0.3783 -0.2804  0.0383
  172MOL0     C22613   9.929   4.540  11.841  0.6450 -0.3773 -0.0607
  172MOL0     C22614  10.047   4.498  11.757  0.1629  0.0506 -0.0438
  172MOL0     C22615  10.066   4.572  11.625  0.4052 -1.0008 -0.4980
  172MOL0    Cl22616  10.053   4.757  11.640 -0.6924 -0.1079  0.1991
  172MOL0     C22617   9.353   4.193  11.295 -0.6964  0.7685  0.1868
  172MOL0     C22618   9.245   4.112  11.265  0.6291 -0.0754 -0.3569
  172MOL0     O22619   9.158   3.976  10.990  0.6018  0.4233  0.2927
  172MOL0     C22620   9.046   3.721  10.909 -0.3911 -0.2240 -0.0842
  172MOL0     C22621   8.961   3.615  10.878  0.6134 -0.5830  1.0569
  172MOL0     N22622   8.196   3.581  10.736  0.1893  0.2016 -0.2641
  172MOL0     N22623   8.147   3.631  10.632 -0.2458  0.8350 -0.9600
  172MOL0     C22624   8.174   4.127   9.517 -0.0290  0.2589  0.0492
  172MOL0     C22625   8.201   4.264   9.551  0.9155  0.6420  0.0298
  172MOL0     C22626   8.431   4.673   9.607 -0.5997 -0.3819 -0.9908
  172MOL0     C22627   8.308   4.743   9.575 -0.0438  0.0384  0.3308
  172MOL0     C22628   8.296   4.882   9.577 -0.2699 -1.6263  0.5810
  172MOL0     C22629   8.402   4.953   9.618  0.1534 -0.6751 -0.6035
  172MOL0     O22630   8.371   5.082   9.631  0.6794  0.4337 -1.1501
  172MOL0     C22631   8.457   5.168   9.708 -0.3984  0.2811 -0.6028
  172MOL0     C22632   8.396   5.293   9.772  0.1340  0.2786 -0.6386
  172MOL0     C22633   8.344   5.381   9.661  0.4729 -0.6130  0.5624
  172MOL0     C22634   8.297   5.515   9.720 -0.1254 -0.5982  1.1059
  172MOL0     C22635   8.267   5.601   9.602  0.4506 -0.0727  0.2644
  172MOL0     C22636   8.209   5.668   9.518  0.0864  0.2300  0.2077
  172MOL0     C22637   8.526   4.885   9.647 -0.1283  0.0957 -0.4162
  172MOL0     C22638   8.536   4.752   9.648 -0.3996  0.5976  0.1451
  172MOL0     H22639   8.526   4.258   9.580  0.7187 -3.0190 -2.0494
  172MOL0     H22640   8.495   4.027   9.505 -0.8697 -1.0539  1.1200
  172MOL0     H22641   8.416   3.805   9.568 -0.9874 -0.5076 -2.3593
  172MOL0     H22642   8.280   3.715   9.515 -1.1461  1.1197 -5.0295
  172MOL0     H22643   8.140   3.848   9.691  1.7485  2.1856  0.4050
  172MOL0     H22644   8.290   3.922   9.750 -2.5916  2.6702  1.0709
  172MOL0     H22645   8.380   3.702   9.800  0.2098  0.1984 -2.7238
  172MOL0     H22646   8.215   3.624   9.771 -3.0857 -0.8107  6.8391
  172MOL0     H22647   8.284   3.838   9.984  1.4987  0.1338 -2.3666
  172MOL0     H22648   8.122   3.796   9.935  0.4388  0.0409 -0.4245
  172MOL0     H22649   8.326   3.594  10.054 -0.5364 -0.4764 -3.3465
  172MOL0     H22650   8.161   3.557  10.021  1.7575 -2.2000  1.3441
  172MOL0     H22651   8.081   3.745  10.165  0.0578 -1.1861 -1.4366
  172MOL0     H22652   8.261   3.793  10.185  1.5267 -1.6361 -0.3620
  172MOL0     H22653   8.102   3.598  10.329 -1.9359  2.9709 -2.3402
  172MOL0     H22654   8.273   3.563  10.289  1.0987  0.5032  0.4142
  172MOL0     H22655   8.156   3.793  10.443 -3.0914 -3.9114 -1.8814
  172MOL0     H22656   8.338   3.777  10.416  0.6950  0.4165  2.0470
  172MOL0     H22657   8.462   3.573  10.574 -0.7045 -0.9187  0.9682
  172MOL0     H22658   8.332   3.460  10.925  0.1061  1.2358 -0.3911
  172MOL0     H22659   8.455   3.581  10.890  2.6039 -1.2929 -1.4362
  172MOL0     H22660   8.549   3.442  10.720 -0.3023 -2.3423 -2.5553
  172MOL0     H22661   8.422   3.317  10.750 -1.0477 -1.0490  2.5436
  172MOL0     H22662   8.494   3.266  10.972 -1.3991 -0.9078 -1.6999
  172MOL0     H22663   8.622   3.232  10.867  0.9257  0.4202  2.5406
  172MOL0     H22664   8.710   3.358  11.071  0.7179  0.3427  0.7002
  172MOL0     H22665   8.599   3.489  11.044 -0.1087 -2.8854  2.4923
  172MOL0     H22666   8.745   3.612  11.128 -0.4068 -0.3713 -1.3289
  172MOL0     H22667   8.914   3.795  11.205  0.5057 -1.3835 -0.0816
  172MOL0     H22668   9.385   3.817  11.333 -3.1188 -0.7544  2.6465
  172MOL0     H22669   9.569   3.955  11.402  1.6584 -1.3616 -3.4978
  172MOL0     H22670   9.497   4.418  11.370  3.1579  2.1200 -2.1133
  172MOL0     H22671   9.667   4.399  11.398 -0.7192  1.0181  0.4833
  172MOL0     H22672   9.593   4.240  11.610 -2.1068 -0.5029  0.4304
  172MOL0     H22673   9.443   4.315  11.565 -0.3078  0.3692  1.7470
  172MOL0     H22674   9.561   4.465  11.726  1.6833  1.0810  0.9117
  172MOL0     H22675   9.611   4.528  11.564 -0.3658 -1.3539 -1.1775
  172MOL0     H22676   9.768   4.331  11.729 -1.4802  1.0732  0.1599
  172MOL0     H22677   9.833   4.412  11.590  2.9164  0.2693  1.3202
  172MOL0     H22678   9.719   4.543  11.846  1.8762 -2.3123  1.6871
  172MOL0     H22679   9.785   4.636  11.712  1.1954 -0.4681 -0.4640
  172MOL0     H22680   9.918   4.468  11.922  2.5505  0.0133  0.6114
  172MOL0     H22681   9.945   4.639  11.886 -1.2926  0.0928 -0.3296
  172MOL0     H22682  10.133   4.509  11.823  0.1568  1.8995 -0.2819
  172MOL0     H22683  10.028   4.394  11.728 -1.3650  0.1864  0.3879
  172MOL0     H22684   9.997   4.541  11.547 -0.2532  1.6276 -1.0843
  172MOL0     H22685  10.168   4.548  11.592  2.0342  3.4489  0.5075
  172MOL0     H22686   9.344   4.302  11.298 -4.6014  0.7088 -2.4909
  172MOL0     H22687   9.153   4.152  11.224  1.4550 -0.7535 -3.0472
  172MOL0     H22688   9.125   3.758  10.845 -0.5523  2.8709  1.3301
  172MOL0     H22689   8.992   3.558  10.791  0.3846 -0.4700  0.9003
  172MOL0     H22690   8.068   4.104   9.512  0.2538 -0.9104 -1.3459
  172MOL0     H22691   8.114   4.327   9.566 -0.8130 -1.7651  0.6118
  172MOL0     H22692   8.217   4.684   9.570  0.4384 -0.6206 -1.3311
  172MOL0     H22693   8.199   4.924   9.550  1.5182  4.2875  1.9902
  172MOL0     H22694   8.552   5.187   9.658 -0.0402  0.9073  0.2918
  172MOL0     H22695   8.490   5.113   9.796  1.6604 -1.7922 -2.5284
  172MOL0     H22696   8.308   5.266   9.832  0.6037  1.7583  0.7789
  172MOL0     H22697   8.466   5.350   9.834  1.2969 -1.2208 -0.5355
  172MOL0     H22698   8.256   5.335   9.615 -0.1347  1.3440 -0.3349
  172MOL0     H22699   8.421   5.393   9.585  0.1553 -3.0465 -0.2394
  172MOL0     H22700   8.201   5.513   9.774 -2.0137  2.9941 -1.6223
  172MOL0     H22701   8.374   5.568   9.777 -1.8091  0.5419  2.4666
  172MOL0     H22702   8.153   5.711   9.438 -1.5283  0.3096  1.3167
  172MOL0     H22703   8.611   4.946   9.675  1.1628 -3.0720  3.4456
  172MOL0     H22704   8.634   4.708   9.667 -0.0665  0.8820 -0.8614
  173MOL0     O22705   0.145   7.388   1.080 -0.9202 -0.4112  1.2045
  173MOL0     C22706   0.167   7.490   1.009  0.9062  0.0504 -0.4441
  173MOL0     O22707   0.079   7.587   0.982 -0.3764 -0.0951  0.5507
  173MOL0     C22708  -0.042   7.540   0.974 -0.3880 -0.1407  0.2060
  173MOL0     C22709  -0.085   7.484   0.851 -0.5171  0.1949 -0.4137
  173MOL0     C22710  -0.220   7.455   0.837  0.0081  0.3271  0.0306
  173MOL0     C22711  -0.307   7.464   0.948  0.3731  0.6496  0.6798
  173MOL0     O22712  -0.430   7.396   0.937 -0.3038 -0.4830 -0.2167
  173MOL0     C22713  -0.543   7.455   1.006 -0.0774  0.0058  0.0376
  173MOL0     C22714  -0.639   7.496   0.897 -0.1243 -0.7639 -0.5310
  173MOL0     C22715  -0.781   7.534   0.940  0.6759  0.1687  0.3825
  173MOL0     C22716  -0.874   7.423   0.975 -0.6489 -0.4967 -0.0092
  173MOL0     C22717  -1.019   7.466   0.977 -0.3042  0.7971  0.2675
  173MOL0     C22718  -1.124   7.355   1.003 -0.0735  0.1578 -0.9117
  173MOL0     C22719  -1.254   7.386   0.923 -0.0469  0.5198 -0.6019
  173MOL0     C22720  -1.363   7.275   0.962 -0.2299 -0.1124  0.4314
  173MOL0     N22721  -1.451   7.305   1.074 -0.3102 -0.0516  0.1753
  173MOL0     C22722  -1.435   7.411   1.164  0.0698 -0.3371  0.7610
  173MOL0     C22723  -1.536   7.388   1.257 -0.0128  0.0388  0.0871
  173MOL0     C22724  -1.565   7.461   1.384  0.7767  0.4938 -0.8102
  173MOL0     C22725  -1.449   7.458   1.485 -0.5303 -0.1333  0.6049
  173MOL0     C22726  -1.474   7.531   1.619 -0.6333  1.2767 -0.2458
  173MOL0     C22727  -1.489   7.681   1.599  0.2057  0.2172  0.0114
  173MOL0     O22728  -1.404   7.759   1.681  0.2758  0.8358 -0.3487
  173MOL0     C22729  -1.417   7.893   1.651 -0.4086 -0.3667 -0.9015
  173MOL0     C22730  -1.494   7.951   1.553  0.5156 -0.1011  0.5281
  173MOL0     C22731  -1.501   8.091   1.537 -0.1112 -1.3693 -0.3067
  173MOL0     C22732  -1.426   8.179   1.616  0.1216 -0.2121 -0.0651
  173MOL0     C22733  -1.430   8.332   1.607  0.3317 -0.5149  0.4218
  173MOL0     O22734  -1.365   8.401   1.701  0.1842 -0.9141  0.4089
  173MOL0     C22735  -1.381   8.537   1.712  0.4792 -0.7363  0.4418
  173MOL0     C22736  -1.327   8.589   1.826  0.0558 -0.4692 -1.1582
  173MOL0     C22737  -1.334   8.719   1.880 -0.9872 -0.7976  0.2697
  173MOL0     C22738  -1.391   8.821   1.802  0.0261  0.0104  1.2224
  173MOL0     O22739  -1.377   8.956   1.822 -0.0071  0.0508  0.2577
  173MOL0     C22740  -1.381   8.980   1.968  0.0914  0.1777  0.0443
  173MOL0     C22741  -1.369   9.123   2.005  0.3038 -0.0003  1.0875
  173MOL0     C22742  -1.227   9.177   1.959 -0.2605  0.3954 -0.0629
  173MOL0     C22743  -1.193   9.311   2.040  1.0473 -0.3694  0.0314
  173MOL0     C22744  -1.284   9.428   2.006 -0.1372 -0.2062  0.7302
  173MOL0     C22745  -1.340   9.503   2.126  0.3129 -0.4819 -0.9025
  173MOL0     C22746  -1.447   9.611   2.090 -0.1446 -0.4966  0.9016
  173MOL0     C22747  -1.510   9.674   2.216 -0.1945 -0.5542 -0.2362
  173MOL0    Cl22748  -1.637   9.811   2.192 -0.0825  0.1711  0.0258
  173MOL0     C22749  -1.439   8.778   1.675  0.3828  0.9944 -0.5791
  173MOL0     C22750  -1.442   8.637   1.629  1.0299  0.2156 -0.8494
  173MOL0     O22751  -1.472   8.377   1.495  0.8415  0.3530 -0.6951
  173MOL0     C22752  -1.360   8.121   1.726  0.4755  0.2375  0.2101
  173MOL0     C22753  -1.353   7.983   1.743  0.2100  0.5765  0.6497
  173MOL0     N22754  -1.607   7.263   1.220  0.1012 -0.1488  0.3220
  173MOL0     N22755  -1.557   7.221   1.109  0.0201 -0.1507  1.0223
  173MOL0     C22756  -0.258   7.515   1.070  0.3433 -0.7786 -0.5919
  173MOL0     C22757  -0.129   7.565   1.082 -0.6207  0.2469  0.5999
  173MOL0     C22758   0.299   7.499   0.947  0.2048  0.2922 -0.1060
  173MOL0     C22759   0.391   7.396   0.961 -0.1772  0.8933  0.5072
  173MOL0     C22760   0.503   7.394   0.874  0.2541  0.1393  0.6028
  173MOL0     C22761   0.538   7.505   0.796  0.7185  0.3590 -0.9398
  173MOL0     O22762   0.642   7.503   0.715 -0.1094 -0.9939  0.4729
  173MOL0     C22763   0.697   7.376   0.667 -0.6350  0.4449 -0.6817
  173MOL0     C22764   0.800   7.401   0.550  0.7504  0.8025  0.9315
  173MOL0     C22765   0.881   7.527   0.566  0.1335  0.2398 -0.2454
  173MOL0     C22766   0.987   7.514   0.458 -0.8060 -0.0983 -1.0743
  173MOL0     C22767   1.072   7.643   0.445  0.8348  0.0285  0.8949
  173MOL0     C22768   1.141   7.745   0.417 -0.5581 -0.0957 -0.2305
  173MOL0     C22769   0.451   7.624   0.802 -0.2671  0.2623  0.4419
  173MOL0     C22770   0.331   7.616   0.872  0.2468 -0.3486 -0.1427
  173MOL0     H22771  -0.017   7.463   0.769 -1.0596 -0.5743 -0.6896
  173MOL0     H22772  -0.244   7.399   0.747 -0.0298 -0.7354  0.6811
  173MOL0     H22773  -0.515   7.539   1.070  0.9613 -0.4900  0.2546
  173MOL0     H22774  -0.593   7.386   1.075  1.4343 -2.0848 -0.8495
  173MOL0     H22775  -0.639   7.426   0.813  2.7790  0.9322 -2.1488
  173MOL0     H22776  -0.573   7.579   0.866  1.4953 -0.6227  2.7839
  173MOL0     H22777  -0.825   7.595   0.862  0.3825 -1.3528 -0.6940
  173MOL0     H22778  -0.780   7.597   1.030  0.1679  2.8299 -1.3668
  173MOL0     H22779  -0.860   7.343   0.902 -1.5029  0.6878 -1.5269
  173MOL0     H22780  -0.839   7.395   1.075  1.1569  1.7931  0.0894
  173MOL0     H22781  -1.048   7.515   0.884 -3.9059  2.7241  2.1634
  173MOL0     H22782  -1.034   7.535   1.061 -2.2431  3.1336 -1.8566
  173MOL0     H22783  -1.144   7.374   1.108  2.9425  0.4982 -0.3358
  173MOL0     H22784  -1.088   7.252   1.003 -2.3445 -0.7174  0.8341
  173MOL0     H22785  -1.285   7.490   0.939  1.5088  1.1845 -1.7236
  173MOL0     H22786  -1.228   7.381   0.817  4.2009 -2.6929  0.3037
  173MOL0     H22787  -1.315   7.179   0.986 -1.4485  0.0192  3.9367
  173MOL0     H22788  -1.434   7.269   0.880  1.7443  1.6697 -1.5339
  173MOL0     H22789  -1.360   7.490   1.159  4.0912 -3.8914 -2.0000
  173MOL0     H22790  -1.648   7.406   1.430  1.5629  1.2366  1.6862
  173MOL0     H22791  -1.588   7.566   1.364 -2.0592  0.8704  3.1238
  173MOL0     H22792  -1.355   7.497   1.443  0.6009 -0.6206  2.5393
  173MOL0     H22793  -1.436   7.351   1.506 -0.9171 -0.0695  1.1705
  173MOL0     H22794  -1.559   7.493   1.676 -0.4844 -2.3704 -2.1298
  173MOL0     H22795  -1.377   7.509   1.665  0.0165 -1.2903 -2.5308
  173MOL0     H22796  -1.594   7.709   1.611 -0.3741 -0.9138 -1.8663
  173MOL0     H22797  -1.458   7.706   1.497  2.1508  0.7119  0.6734
  173MOL0     H22798  -1.557   7.893   1.487  2.9682 -0.7425 -1.4055
  173MOL0     H22799  -1.553   8.135   1.452 -0.4390 -0.2925  0.4268
  173MOL0     H22800  -1.275   8.523   1.894  1.2212 -0.2297 -1.7889
  173MOL0     H22801  -1.301   8.745   1.981 -2.0838 -0.1656  0.4895
  173MOL0     H22802  -1.290   8.947   2.017  0.9802  2.8731  0.3614
  173MOL0     H22803  -1.476   8.942   2.007 -2.5368  2.1510 -3.7460
  173MOL0     H22804  -1.399   9.135   2.109 -5.0665  1.7468 -0.3093
  173MOL0     H22805  -1.447   9.174   1.947  0.4207 -0.5749  0.4110
  173MOL0     H22806  -1.219   9.200   1.852 -2.0251 -1.2350 -0.5959
  173MOL0     H22807  -1.153   9.098   1.971  1.6704  1.9298 -1.0920
  173MOL0     H22808  -1.210   9.295   2.147 -2.2752 -1.5424 -0.5549
  173MOL0     H22809  -1.087   9.332   2.029  0.5986  0.5437 -4.6303
  173MOL0     H22810  -1.364   9.395   1.938  3.7330 -3.7685 -2.6426
  173MOL0     H22811  -1.222   9.489   1.941  1.3821 -1.8493  0.5578
  173MOL0     H22812  -1.254   9.547   2.176  1.1789 -4.5039  1.5734
  173MOL0     H22813  -1.374   9.430   2.200 -1.8019 -0.4058 -1.7130
  173MOL0     H22814  -1.398   9.686   2.028  0.3223 -0.8725  0.8088
  173MOL0     H22815  -1.529   9.565   2.034  0.7832 -2.2822  0.9303
  173MOL0     H22816  -1.428   9.705   2.282  1.6257 -0.3252 -2.4852
  173MOL0     H22817  -1.562   9.595   2.270 -0.0379 -0.2482  0.3666
  173MOL0     H22818  -1.479   8.856   1.611  0.8781  2.7399  1.1470
  173MOL0     H22819  -1.479   8.623   1.528 -4.1635  1.6932  0.5362
  173MOL0     H22820  -1.313   8.184   1.801  1.6715 -0.5280  0.1421
  173MOL0     H22821  -1.281   7.938   1.811  0.8019  0.0046 -0.3281
  173MOL0     H22822  -0.313   7.494   1.161  0.6119  0.3748 -0.1537
  173MOL0     H22823  -0.086   7.610   1.171 -1.2897 -2.0449  2.1548
  173MOL0     H22824   0.371   7.299   1.006 -0.5484 -0.2462 -1.9405
  173MOL0     H22825   0.556   7.301   0.862  0.3115  0.1284  0.9201
  173MOL0     H22826   0.626   7.306   0.624 -0.4402  0.3857 -0.9093
  173MOL0     H22827   0.748   7.324   0.749  1.0437  2.8200 -0.1159
  173MOL0     H22828   0.870   7.317   0.546  0.9594  1.0073 -1.1192
  173MOL0     H22829   0.747   7.399   0.454 -0.8530 -2.5015  1.7552
  173MOL0     H22830   0.907   7.546   0.671 -2.0806  3.4052 -0.1174
  173MOL0     H22831   0.822   7.616   0.545 -0.1095  0.5632  1.5897
  173MOL0     H22832   1.056   7.430   0.470  0.8320  1.3244 -0.2213
  173MOL0     H22833   0.930   7.514   0.364 -0.2966  2.0351 -1.4247
  173MOL0     H22834   1.214   7.823   0.412  0.8738 -1.3019  0.8378
  173MOL0     H22835   0.464   7.721   0.755 -1.8854  1.8733  3.0738
  173MOL0     H22836   0.255   7.693   0.869 -0.1278 -0.4515  3.0033
  174MOL0     O22837  11.073   2.456   4.092  0.8938  0.0553 -0.2262
  174MOL0     C22838  10.975   2.412   4.034  0.6477 -0.3687  0.4536
  174MOL0     O22839  10.960   2.424   3.897 -0.0714  0.1293  0.4686
  174MOL0     C22840  11.061   2.472   3.817  0.8829 -0.7138 -0.3027
  174MOL0     C22841  11.065   2.409   3.698  0.2327  0.1480 -0.2937
  174MOL0     C22842  11.160   2.454   3.608 -0.0455 -0.5813 -1.0411
  174MOL0     C22843  11.254   2.567   3.635 -0.0889  0.2735  0.3945
  174MOL0     O22844  11.346   2.623   3.545  1.1071 -0.4838  0.1769
  174MOL0     C22845  11.371   2.550   3.424 -0.0759 -0.0326  0.3851
  174MOL0     C22846  11.486   2.598   3.329 -0.2333 -0.1165  0.7242
  174MOL0     C22847  11.609   2.567   3.402 -0.2073 -0.1422  0.7620
  174MOL0     C22848  11.729   2.593   3.306 -0.2090  0.1329 -0.4724
  174MOL0     C22849  11.857   2.554   3.375 -0.2751 -0.8026 -0.3489
  174MOL0     C22850  11.969   2.574   3.270  0.3595 -0.8769  0.1191
  174MOL0     C22851  12.116   2.560   3.313 -0.7728  1.0946 -0.0576
  174MOL0     C22852  12.134   2.630   3.447  0.7131 -0.2606 -0.6568
  174MOL0     N22853  12.273   2.637   3.500  0.3263  0.7128  0.4260
  174MOL0     C22854  12.376   2.700   3.439  0.1301 -1.9173  0.3688
  174MOL0     C22855  12.482   2.630   3.483  0.2181 -0.5415  0.6818
  174MOL0     C22856  12.624   2.657   3.440 -0.6591  0.2133  0.0234
  174MOL0     C22857  12.722   2.679   3.559  0.0454 -0.5620 -0.0822
  174MOL0     C22858  12.751   2.560   3.636  0.0811  0.4363  0.5078
  174MOL0     C22859  12.901   2.558   3.681 -0.3534 -0.0351 -0.5829
  174MOL0     O22860  12.929   2.674   3.764 -0.3929  0.2670 -0.2451
  174MOL0     C22861  13.054   2.688   3.817 -1.1040 -0.1472 -0.1634
  174MOL0     C22862  13.160   2.594   3.821  0.5705  0.2971 -0.6470
  174MOL0     C22863  13.273   2.631   3.893  0.4741 -0.9536  0.2360
  174MOL0     C22864  13.288   2.755   3.963 -0.3220  0.3215  0.1792
  174MOL0     C22865  13.418   2.793   4.026  0.7932 -0.1876  0.2114
  174MOL0     O22866  13.529   2.719   3.995 -0.5316  0.0292 -0.3474
  174MOL0     C22867  13.641   2.725   4.076 -0.7792  0.4979 -0.0877
  174MOL0     C22868  13.689   2.603   4.127  0.7424  0.3936  0.0848
  174MOL0     C22869  13.800   2.615   4.208  0.8810 -0.0607 -1.4082
  174MOL0     C22870  13.857   2.733   4.246 -1.1846 -0.5465  0.2507
  174MOL0     O22871  13.958   2.712   4.343  0.3621 -0.2593 -0.1792
  174MOL0     C22872  14.067   2.805   4.363  0.1616 -0.5521 -0.0764
  174MOL0     C22873  14.206   2.734   4.381 -0.1807  0.4795 -0.7883
  174MOL0     C22874  14.253   2.658   4.250 -1.0502 -0.0520  0.6434
  174MOL0     C22875  14.368   2.562   4.281 -0.3533 -0.2691 -0.2356
  174MOL0     C22876  14.444   2.538   4.145  0.4660 -0.7024 -0.6567
  174MOL0     C22877  14.523   2.421   4.120  0.0759  0.5219 -0.8818
  174MOL0     C22878  14.573   2.403   3.975  0.4283 -0.8186 -0.6930
  174MOL0     C22879  14.600   2.253   3.923  0.3290 -0.1432 -0.3173
  174MOL0    Cl22880  14.737   2.183   4.001  0.8494  0.3315 -0.1986
  174MOL0     C22881  13.822   2.857   4.186 -0.2455 -1.0162 -0.7031
  174MOL0     C22882  13.705   2.849   4.109 -0.5384 -0.8594  0.4895
  174MOL0     O22883  13.418   2.888   4.105  0.0114  0.6734  0.4982
  174MOL0     C22884  13.178   2.844   3.959  0.2130  0.4149 -0.0197
  174MOL0     C22885  13.065   2.816   3.878 -0.1735 -0.8499  1.1001
  174MOL0     N22886  12.444   2.536   3.572 -0.6563  0.9980  0.3208
  174MOL0     N22887  12.321   2.534   3.577 -0.1871  0.4400 -0.1083
  174MOL0     C22888  11.248   2.628   3.758  0.6118 -0.4261  0.3017
  174MOL0     C22889  11.153   2.578   3.848 -0.6616 -0.0721  0.2509
  174MOL0     C22890  10.876   2.329   4.099 -0.1101  0.2333  0.5213
  174MOL0     C22891  10.756   2.295   4.034  1.1208 -0.0258 -0.0115
  174MOL0     C22892  10.656   2.225   4.103  0.0694 -0.2338  0.2515
  174MOL0     C22893  10.684   2.187   4.231 -0.0068  1.5204 -0.5139
  174MOL0     O22894  10.590   2.119   4.301  0.3594 -0.3038 -0.2147
  174MOL0     C22895  10.530   2.191   4.409 -0.1568 -0.2820 -0.4565
  174MOL0     C22896  10.392   2.125   4.444 -0.4668  0.4700  0.3858
  174MOL0     C22897  10.291   2.142   4.337 -0.2711 -0.5183  0.0221
  174MOL0     C22898  10.166   2.050   4.361 -0.0271  0.8288 -0.2935
  174MOL0     C22899  10.073   2.109   4.453  0.2689 -0.7058  0.3235
  174MOL0     C22900   9.997   2.181   4.517 -0.1290 -0.3464 -0.3294
  174MOL0     C22901  10.810   2.192   4.281  0.3034  0.2817  0.6850
  174MOL0     C22902  10.912   2.258   4.216  0.8383  0.7828  0.2194
  174MOL0     H22903  10.988   2.338   3.669  0.9473  0.2173 -2.5668
  174MOL0     H22904  11.147   2.405   3.512 -1.5305 -0.6724 -0.8039
  174MOL0     H22905  11.275   2.552   3.371 -1.6272 -0.7002  2.9797
  174MOL0     H22906  11.394   2.450   3.463 -2.4034  0.3662  3.0407
  174MOL0     H22907  11.467   2.702   3.302 -0.8945 -0.5902 -0.7787
  174MOL0     H22908  11.482   2.542   3.235 -0.1423 -0.5505  0.9766
  174MOL0     H22909  11.615   2.460   3.421 -2.5114 -0.0137  2.6729
  174MOL0     H22910  11.613   2.623   3.496  0.1945  4.5970 -1.7644
  174MOL0     H22911  11.713   2.534   3.216 -2.6286 -0.4050  0.2407
  174MOL0     H22912  11.736   2.699   3.278  0.3871  0.3903  0.5861
  174MOL0     H22913  11.849   2.456   3.423 -0.6471 -0.4265  0.3714
  174MOL0     H22914  11.879   2.628   3.453  0.8524 -1.0568 -0.4046
  174MOL0     H22915  11.965   2.683   3.255  2.6057 -0.4437  2.0856
  174MOL0     H22916  11.941   2.515   3.182  0.9045  0.3924 -0.9434
  174MOL0     H22917  12.151   2.456   3.313 -1.1327  0.9487 -1.4152
  174MOL0     H22918  12.171   2.605   3.230  1.0982 -0.7848  0.0870
  174MOL0     H22919  12.076   2.567   3.516  1.3970 -2.5239 -2.0388
  174MOL0     H22920  12.097   2.733   3.442  2.9903  0.6334 -0.1190
  174MOL0     H22921  12.371   2.782   3.368  0.7018 -1.9343  0.3029
  174MOL0     H22922  12.628   2.745   3.375 -2.4831  1.1803  1.1229
  174MOL0     H22923  12.668   2.579   3.378 -1.4247 -0.0825 -0.1541
  174MOL0     H22924  12.698   2.759   3.629  5.0757 -0.1188  1.5727
  174MOL0     H22925  12.817   2.716   3.517  1.0794  2.0351  4.0035
  174MOL0     H22926  12.688   2.545   3.724 -1.6250  1.9773 -0.3744
  174MOL0     H22927  12.731   2.474   3.571 -4.2298  1.1185  0.5789
  174MOL0     H22928  12.965   2.548   3.592 -0.5351 -1.4495 -0.5776
  174MOL0     H22929  12.914   2.466   3.737 -2.1941  1.9053  3.3813
  174MOL0     H22930  13.151   2.492   3.785 -2.1919 -0.5259  1.9309
  174MOL0     H22931  13.349   2.554   3.889  0.4039 -1.0024 -0.2596
  174MOL0     H22932  13.643   2.508   4.101  2.5057 -1.0187  1.7314
  174MOL0     H22933  13.839   2.524   4.253 -0.5290  0.0942  0.2099
  174MOL0     H22934  14.039   2.864   4.451  3.8358  0.9245  0.2853
  174MOL0     H22935  14.084   2.877   4.283  0.7604  0.8426  1.2530
  174MOL0     H22936  14.213   2.672   4.471 -2.9913  0.3424 -0.5727
  174MOL0     H22937  14.284   2.808   4.398 -0.0465  0.3426 -0.8145
  174MOL0     H22938  14.274   2.734   4.174 -3.5112  0.5520  0.4701
  174MOL0     H22939  14.184   2.584   4.208  0.6890 -0.8574 -0.9069
  174MOL0     H22940  14.437   2.594   4.360  0.5339 -3.4060  0.3994
  174MOL0     H22941  14.321   2.472   4.322 -1.3690  1.4458  2.7254
  174MOL0     H22942  14.507   2.626   4.127 -2.1370  0.9927 -2.1044
  174MOL0     H22943  14.373   2.556   4.064  0.9682 -0.5205 -1.0667
  174MOL0     H22944  14.460   2.339   4.155 -0.5452  1.1862 -0.4036
  174MOL0     H22945  14.604   2.435   4.192 -2.7139 -1.2031  2.9546
  174MOL0     H22946  14.498   2.444   3.907  1.6561 -1.8417 -2.7592
  174MOL0     H22947  14.666   2.460   3.968 -0.7335  1.0796 -1.3797
  174MOL0     H22948  14.616   2.252   3.815  1.5157  2.2613 -0.2264
  174MOL0     H22949  14.512   2.190   3.941 -1.5913  2.6367  0.8503
  174MOL0     H22950  13.876   2.948   4.211 -0.2160 -0.3488 -2.9280
  174MOL0     H22951  13.655   2.943   4.089 -0.5519 -1.4023 -2.4743
  174MOL0     H22952  13.180   2.930   4.026  1.4165  0.8606 -0.5890
  174MOL0     H22953  12.983   2.886   3.877  0.4936 -0.0473  0.3417
  174MOL0     H22954  11.311   2.712   3.785  3.7178 -2.8649  1.3182
  174MOL0     H22955  11.149   2.633   3.942 -1.0089  2.3713 -1.1123
  174MOL0     H22956  10.723   2.337   3.940 -0.0656 -1.4849 -0.2849
  174MOL0     H22957  10.557   2.209   4.062  0.1915  4.0566 -2.2971
  174MOL0     H22958  10.515   2.295   4.377 -0.7848  0.5570  2.2759
  174MOL0     H22959  10.595   2.190   4.497  1.1164 -0.2350 -1.3832
  174MOL0     H22960  10.409   2.019   4.467  1.9371  0.3840 -1.4387
  174MOL0     H22961  10.355   2.172   4.536  1.1136  0.6805  0.9587
  174MOL0     H22962  10.329   2.109   4.240  0.0107 -0.8482  0.2414
  174MOL0     H22963  10.259   2.246   4.330 -0.0352 -0.3916  0.6824
  174MOL0     H22964  10.117   2.050   4.264  0.4112 -2.0908 -0.6122
  174MOL0     H22965  10.197   1.948   4.389 -2.6852  0.9780  4.2965
  174MOL0     H22966   9.934   2.253   4.566  1.4026  2.0126 -1.6510
  174MOL0     H22967  10.838   2.154   4.379 -2.5781 -1.4165  0.9931
  174MOL0     H22968  11.005   2.286   4.264  0.2551  1.0566  1.2393
  175MOL0     O22969   3.263   9.248   5.630 -0.5904 -0.2552 -0.0641
  175MOL0     C22970   3.307   9.254   5.514 -0.5284 -0.1354  0.1946
  175MOL0     O22971   3.426   9.319   5.481  0.1652 -0.6489 -0.0179
  175MOL0     C22972   3.488   9.403   5.576 -0.8307 -0.1154  0.2735
  175MOL0     C22973   3.432   9.525   5.612 -0.7430  0.1860  0.6276
  175MOL0     C22974   3.497   9.610   5.699  0.4690 -0.6182 -0.6361
  175MOL0     C22975   3.627   9.585   5.748  0.9895 -0.5317  0.8954
  175MOL0     O22976   3.685   9.672   5.843  0.1440  0.9018  0.2818
  175MOL0     C22977   3.810   9.643   5.916  0.1259 -0.4516  1.4435
  175MOL0     C22978   3.794   9.558   6.031  0.3906 -0.4610  0.4329
  175MOL0     C22979   3.923   9.493   6.079 -1.2930  0.7999  0.5067
  175MOL0     C22980   3.908   9.399   6.197 -0.0221 -0.2763  0.6095
  175MOL0     C22981   3.849   9.474   6.329  0.1087 -0.3833 -1.0580
  175MOL0     C22982   3.897   9.411   6.455 -0.4401 -0.3865 -0.6893
  175MOL0     C22983   3.788   9.410   6.561 -0.3140  0.4795 -0.7954
  175MOL0     C22984   3.847   9.354   6.694  0.6328  0.7219 -1.1752
  175MOL0     N22985   3.918   9.440   6.786 -0.4853 -0.1507 -0.6221
  175MOL0     C22986   3.887   9.471   6.912  1.2602 -0.0550  0.2857
  175MOL0     C22987   3.959   9.570   6.961  0.3458  1.2849  0.0138
  175MOL0     C22988   3.964   9.635   7.094  0.3826  0.3035  0.3268
  175MOL0     C22989   3.873   9.565   7.193 -0.4814  0.4377 -0.3849
  175MOL0     C22990   3.891   9.610   7.338 -0.4487 -0.1172  0.5211
  175MOL0     C22991   3.900   9.766   7.357 -0.2356  0.0347 -0.1369
  175MOL0     O22992   3.966   9.785   7.484 -0.8077  0.1032 -0.0507
  175MOL0     C22993   4.017   9.910   7.507  0.3467 -1.0847 -0.0499
  175MOL0     C22994   4.119   9.962   7.430  0.5812 -0.3678 -0.0162
  175MOL0     C22995   4.185  10.078   7.457 -0.2757  0.5401 -0.2090
  175MOL0     C22996   4.138  10.156   7.567 -0.1347 -0.3523 -0.3318
  175MOL0     C22997   4.184  10.294   7.595 -0.5004 -0.8395 -0.5287
  175MOL0     O22998   4.266  10.350   7.500  0.6244 -0.5296 -0.2552
  175MOL0     C22999   4.289  10.488   7.489  0.2074  0.1248 -0.0296
  175MOL0     C23000   4.413  10.527   7.449  0.5919  1.7431  0.5600
  175MOL0     C23001   4.454  10.655   7.446 -0.1317 -0.3424  0.6097
  175MOL0     C23002   4.363  10.754   7.485 -1.0828  0.1943  0.3924
  175MOL0     O23003   4.398  10.891   7.471 -0.1790  0.5567  0.4594
  175MOL0     C23004   4.504  10.930   7.393 -0.0337 -0.5080  0.3127
  175MOL0     C23005   4.526  11.078   7.419  0.5457 -0.1981  0.0067
  175MOL0     C23006   4.661  11.105   7.359 -0.1754  0.4016 -0.4738
  175MOL0     C23007   4.697  11.260   7.341 -0.6215 -0.3727 -0.1888
  175MOL0     C23008   4.583  11.351   7.317 -0.4269  0.9495  0.0962
  175MOL0     C23009   4.616  11.494   7.281  0.2717  0.0775 -0.1422
  175MOL0     C23010   4.485  11.571   7.244  0.5066 -0.9516  0.2292
  175MOL0     C23011   4.467  11.705   7.321 -0.4439 -0.7862  1.4568
  175MOL0    Cl23012   4.571  11.835   7.265 -0.4581 -0.0936 -0.2417
  175MOL0     C23013   4.235  10.716   7.535  0.5704 -0.9802 -0.3198
  175MOL0     C23014   4.197  10.585   7.533 -0.1014 -0.1504 -0.2310
  175MOL0     O23015   4.158  10.348   7.705  0.0673 -0.4864  0.6457
  175MOL0     C23016   4.030  10.115   7.642  0.5989  0.8904  0.0005
  175MOL0     C23017   3.979   9.986   7.614 -0.7765 -0.3854 -0.8880
  175MOL0     N23018   4.042   9.605   6.854 -0.8138  0.1581 -0.3964
  175MOL0     N23019   4.015   9.525   6.755  0.3490  0.2076  0.3784
  175MOL0     C23020   3.694   9.472   5.684 -0.2354  0.2870 -0.5627
  175MOL0     C23021   3.620   9.380   5.611 -0.4994 -0.9576 -0.6775
  175MOL0     C23022   3.233   9.196   5.407  0.0892 -0.0504  0.4502
  175MOL0     C23023   3.266   9.226   5.273  0.0927 -0.4951 -1.3289
  175MOL0     C23024   3.198   9.159   5.170 -0.4050 -0.1165 -0.8117
  175MOL0     C23025   3.095   9.069   5.191 -0.0428 -0.1444  0.5922
  175MOL0     O23026   3.034   9.000   5.089  0.1206 -0.3402  0.3803
  175MOL0     C23027   3.038   9.049   4.953  0.3512  0.7997 -0.0159
  175MOL0     C23028   2.956   9.183   4.942 -1.2277 -0.1494  0.3776
  175MOL0     C23029   2.806   9.154   4.968 -0.2983 -2.0365  0.4581
  175MOL0     C23030   2.727   9.267   4.941  0.4377 -0.5604 -0.0317
  175MOL0     C23031   2.747   9.345   4.821 -0.1504  0.5984  1.0504
  175MOL0     C23032   2.780   9.420   4.738 -0.1764 -0.6813  0.3545
  175MOL0     C23033   3.060   9.049   5.322  0.1133  0.6450  0.1887
  175MOL0     C23034   3.125   9.110   5.425 -0.2780  0.4317  0.0287
  175MOL0     H23035   3.337   9.551   5.566 -0.6830  2.2106  1.5646
  175MOL0     H23036   3.439   9.690   5.743 -0.6140 -2.7396  2.1195
  175MOL0     H23037   3.856   9.737   5.945 -3.3091  0.8918  3.0127
  175MOL0     H23038   3.881   9.600   5.844 -0.4988 -2.3407  1.8802
  175MOL0     H23039   3.709   9.490   6.018 -0.4881  0.7945 -0.7504
  175MOL0     H23040   3.752   9.626   6.106  2.1691  0.7987  0.3491
  175MOL0     H23041   4.000   9.564   6.111 -1.0915  1.3520 -1.1379
  175MOL0     H23042   3.964   9.447   5.989 -1.4810 -0.3022  0.9675
  175MOL0     H23043   3.833   9.321   6.178 -1.1425  0.2861  2.4116
  175MOL0     H23044   4.005   9.352   6.213  0.0963  0.4568  2.3220
  175MOL0     H23045   3.740   9.470   6.331  0.1598 -2.4951  0.2703
  175MOL0     H23046   3.878   9.577   6.354  0.5289 -1.2500  2.7760
  175MOL0     H23047   3.987   9.453   6.500 -2.2253  1.1180  1.7364
  175MOL0     H23048   3.914   9.305   6.431 -0.3509 -0.2873 -1.0771
  175MOL0     H23049   3.742   9.506   6.587 -1.3996  0.2428 -1.8009
  175MOL0     H23050   3.719   9.336   6.521  0.6454 -0.2795 -1.0804
  175MOL0     H23051   3.911   9.268   6.674 -2.8373 -1.9142 -2.0300
  175MOL0     H23052   3.762   9.321   6.755  1.4566 -0.8217 -0.8176
  175MOL0     H23053   3.809   9.422   6.969  1.8573 -2.0322 -0.5405
  175MOL0     H23054   3.941   9.740   7.073 -0.9600  0.3940  2.0021
  175MOL0     H23055   4.068   9.627   7.125  0.5072 -0.6524 -0.2827
  175MOL0     H23056   3.880   9.456   7.189 -2.8103  0.1195  1.7736
  175MOL0     H23057   3.769   9.595   7.174 -0.2399 -0.0382 -2.9018
  175MOL0     H23058   3.811   9.586   7.409  1.3069  2.9435  3.7852
  175MOL0     H23059   3.983   9.569   7.381  0.7844  0.6166 -1.2839
  175MOL0     H23060   3.799   9.808   7.369 -2.5400 -3.6791 -3.6655
  175MOL0     H23061   3.954   9.811   7.273  0.0090 -0.5851 -0.3160
  175MOL0     H23062   4.149   9.904   7.344 -0.1143 -0.3560 -0.2747
  175MOL0     H23063   4.259  10.105   7.382  0.2421  0.0257  0.1025
  175MOL0     H23064   4.479  10.448   7.416 -1.2618 -0.7518  2.4408
  175MOL0     H23065   4.551  10.683   7.405 -0.2939  0.7627  0.9329
  175MOL0     H23066   4.484  10.905   7.289 -1.5973  1.3391  0.1222
  175MOL0     H23067   4.592  10.875   7.428  1.2681  1.8358  0.8938
  175MOL0     H23068   4.513  11.118   7.520  1.2101 -0.5942  0.2563
  175MOL0     H23069   4.457  11.137   7.359  0.7678  0.5822  0.4944
  175MOL0     H23070   4.656  11.059   7.260 -2.5500 -0.0124 -0.2300
  175MOL0     H23071   4.735  11.053   7.419 -0.3204 -2.1937 -2.3847
  175MOL0     H23072   4.743  11.300   7.432  3.2364 -1.1540 -1.6141
  175MOL0     H23073   4.784  11.265   7.276  0.1440  1.3094  0.9006
  175MOL0     H23074   4.519  11.363   7.405 -0.6142  1.8594 -0.1559
  175MOL0     H23075   4.538  11.300   7.231 -1.7594 -0.0525  1.3338
  175MOL0     H23076   4.680  11.485   7.193 -1.4024 -1.4289 -1.2703
  175MOL0     H23077   4.665  11.527   7.373 -0.6179 -0.1894  0.4415
  175MOL0     H23078   4.490  11.588   7.136 -2.5156 -1.0714 -0.0081
  175MOL0     H23079   4.400  11.505   7.257  0.0230 -0.0774  1.7363
  175MOL0     H23080   4.482  11.683   7.427  2.0688 -1.0586  1.1169
  175MOL0     H23081   4.367  11.746   7.309 -0.2395 -0.9666 -1.4830
  175MOL0     H23082   4.185  10.799   7.583  2.3001  0.6541 -1.1926
  175MOL0     H23083   4.106  10.550   7.580 -1.3086 -0.2707 -2.5286
  175MOL0     H23084   3.992  10.166   7.730 -0.3828  2.4820 -1.2846
  175MOL0     H23085   3.921   9.946   7.697 -0.7191 -0.0936 -0.7076
  175MOL0     H23086   3.797   9.455   5.714  0.3119  3.4287 -0.3127
  175MOL0     H23087   3.671   9.290   5.577 -0.7739 -1.4345  0.1233
  175MOL0     H23088   3.346   9.296   5.249  3.3570 -1.3581  4.9052
  175MOL0     H23089   3.231   9.187   5.071 -0.7853  0.8849 -0.6649
  175MOL0     H23090   3.003   8.979   4.876  2.0330  0.4063 -0.4669
  175MOL0     H23091   3.138   9.069   4.911  0.1007  0.2396 -0.9245
  175MOL0     H23092   2.990   9.264   5.007  2.0480  0.5219 -1.9018
  175MOL0     H23093   2.979   9.225   4.844  6.2980 -1.6287  0.9385
  175MOL0     H23094   2.796   9.120   5.071 -1.3667 -1.4274  0.5747
  175MOL0     H23095   2.773   9.075   4.899  0.4247 -2.3405  0.4508
  175MOL0     H23096   2.621   9.239   4.945  0.2541  0.2086  1.6235
  175MOL0     H23097   2.754   9.338   5.020 -1.1755  1.4813 -1.1927
  175MOL0     H23098   2.800   9.498   4.667  2.0121 -2.3348 -0.9625
  175MOL0     H23099   2.983   8.974   5.339 -1.0872  2.3356  2.8357
  175MOL0     H23100   3.114   9.061   5.521 -0.6534 -2.3984 -1.3489
  176MOL0     O23101   0.785   6.360   0.984 -0.2633 -0.7591  0.4076
  176MOL0     C23102   0.676   6.402   1.034  0.0554 -0.1506 -0.3734
  176MOL0     O23103   0.656   6.520   1.103 -0.0002  0.6308  0.8003
  176MOL0     C23104   0.756   6.618   1.120  1.5129 -0.2365  0.7699
  176MOL0     C23105   0.882   6.590   1.166 -0.5936  0.2252  0.9142
  176MOL0     C23106   0.974   6.693   1.179  0.2051 -0.3150  0.2870
  176MOL0     C23107   0.943   6.824   1.157  0.2301 -0.3587  1.1437
  176MOL0     O23108   1.033   6.926   1.190 -0.4539  0.0636 -0.6133
  176MOL0     C23109   1.059   7.021   1.076  0.1207 -0.3387  0.6079
  176MOL0     C23110   1.168   7.113   1.129  1.0014  0.2259 -0.4329
  176MOL0     C23111   1.293   7.035   1.172 -0.7102  0.1366  0.0949
  176MOL0     C23112   1.424   7.126   1.194 -0.3764 -0.1651 -0.0147
  176MOL0     C23113   1.470   7.233   1.088 -0.1940 -0.0342  0.3132
  176MOL0     C23114   1.504   7.163   0.955  0.3362 -0.4963  0.0997
  176MOL0     C23115   1.530   7.250   0.835  0.2273 -0.2079  0.0538
  176MOL0     C23116   1.412   7.336   0.786  0.0601 -0.3565 -0.1001
  176MOL0     N23117   1.290   7.272   0.739  0.2596 -0.0424  0.3842
  176MOL0     C23118   1.288   7.176   0.629  0.4152  0.3245  0.6104
  176MOL0     C23119   1.155   7.148   0.618  0.5508  0.9509  0.1753
  176MOL0     C23120   1.096   7.061   0.515 -0.1476 -1.0463  0.5654
  176MOL0     C23121   1.006   6.954   0.575  0.2208 -0.3756  0.7555
  176MOL0     C23122   0.874   7.004   0.622  0.3331 -0.0346  0.3806
  176MOL0     C23123   0.784   6.891   0.667 -0.7539 -0.2415 -0.3836
  176MOL0     O23124   0.659   6.949   0.695 -0.0194 -0.2087  0.0794
  176MOL0     C23125   0.560   6.882   0.762  0.5336 -0.0586  1.0781
  176MOL0     C23126   0.558   6.751   0.804 -0.1362  1.0229  1.1715
  176MOL0     C23127   0.460   6.697   0.888  0.6186  0.4522  0.1155
  176MOL0     C23128   0.350   6.775   0.931 -0.7212 -0.2936 -0.0288
  176MOL0     C23129   0.252   6.710   1.023 -0.2650 -0.2201  0.3390
  176MOL0     O23130   0.190   6.790   1.120 -0.7233 -0.3371 -0.4683
  176MOL0     C23131   0.095   6.733   1.198 -0.2749  0.5498 -0.3689
  176MOL0     C23132  -0.022   6.682   1.136  0.4476  0.7627 -0.0906
  176MOL0     C23133  -0.120   6.625   1.216  0.5114 -0.6632  0.6002
  176MOL0     C23134  -0.122   6.622   1.359 -0.8621 -0.1233 -0.0422
  176MOL0     O23135  -0.223   6.548   1.416  0.5888 -1.2445  0.5615
  176MOL0     C23136  -0.221   6.504   1.545 -0.1638  1.3626  0.4273
  176MOL0     C23137  -0.174   6.358   1.556  0.4265 -0.1254 -0.1832
  176MOL0     C23138  -0.286   6.246   1.540 -0.3911  0.0055  0.5814
  176MOL0     C23139  -0.216   6.126   1.589  1.2243  0.2887  0.3043
  176MOL0     C23140  -0.283   5.992   1.566  0.7667  0.5554 -0.6125
  176MOL0     C23141  -0.197   5.889   1.636 -0.0363 -0.0857 -0.0680
  176MOL0     C23142  -0.260   5.759   1.670  0.4859  0.2651 -0.9914
  176MOL0     C23143  -0.237   5.664   1.558  0.5129  0.3824  1.2495
  176MOL0    Cl23144  -0.291   5.509   1.626 -0.5426  0.2531  0.2415
  176MOL0     C23145  -0.008   6.678   1.417 -0.0372 -0.6759  0.4005
  176MOL0     C23146   0.100   6.736   1.340  0.1534  0.5916 -0.8232
  176MOL0     O23147   0.243   6.589   1.025 -0.4174  0.2751 -0.2078
  176MOL0     C23148   0.346   6.911   0.889  0.0816 -0.4217  1.0284
  176MOL0     C23149   0.447   6.960   0.800  0.2820  0.2241  0.0980
  176MOL0     N23150   1.088   7.217   0.725 -0.3557  1.0333  0.6445
  176MOL0     N23151   1.169   7.287   0.792  0.3923  0.0046  0.2805
  176MOL0     C23152   0.813   6.860   1.130  0.6983 -0.7292  0.5071
  176MOL0     C23153   0.717   6.758   1.107 -0.0165  0.1629  0.0685
  176MOL0     C23154   0.556   6.304   1.040 -0.3025 -1.0602 -0.3138
  176MOL0     C23155   0.422   6.352   1.066  0.5803  0.7967 -0.1467
  176MOL0     C23156   0.314   6.256   1.066  0.2359 -0.0173  1.3719
  176MOL0     C23157   0.342   6.124   1.041  0.0543 -0.1096  0.3158
  176MOL0     O23158   0.233   6.035   1.034  0.5007  0.6699 -0.3768
  176MOL0     C23159   0.248   5.920   0.944 -0.1409 -0.0982 -0.4844
  176MOL0     C23160   0.186   5.965   0.805 -0.1458 -1.5919 -0.2083
  176MOL0     C23161   0.052   6.041   0.801 -1.0048  0.5577  0.5537
  176MOL0     C23162  -0.071   5.951   0.813  1.1700  0.4200  0.0114
  176MOL0     C23163  -0.073   5.836   0.907  0.6198 -0.5743  1.3053
  176MOL0     C23164  -0.080   5.754   0.988  0.1708  0.1278 -0.0560
  176MOL0     C23165   0.478   6.081   1.041  0.8258  0.8778  1.2169
  176MOL0     C23166   0.588   6.165   1.039 -0.1141 -0.7248 -0.4222
  176MOL0     H23167   0.917   6.487   1.170 -1.0315  0.0911  1.5237
  176MOL0     H23168   1.075   6.671   1.212  0.6566 -2.5386 -2.2246
  176MOL0     H23169   0.965   7.078   1.069  0.2904 -0.0383  0.7373
  176MOL0     H23170   1.100   6.977   0.985  1.0235  0.3012  0.6897
  176MOL0     H23171   1.125   7.164   1.215 -1.3563 -1.4015 -0.5459
  176MOL0     H23172   1.195   7.186   1.052  1.2541 -1.9006 -2.4980
  176MOL0     H23173   1.318   6.949   1.108 -2.2056 -1.0598  1.0508
  176MOL0     H23174   1.266   6.995   1.270 -1.5665  0.6715  0.0836
  176MOL0     H23175   1.405   7.186   1.284 -3.1891  0.1396 -0.7309
  176MOL0     H23176   1.508   7.058   1.209  0.6982  1.0285 -0.4062
  176MOL0     H23177   1.562   7.275   1.130 -0.4892 -1.5936  2.7009
  176MOL0     H23178   1.396   7.313   1.073  1.2252  0.9609 -1.8800
  176MOL0     H23179   1.432   7.083   0.934 -1.5269  1.6022 -2.2099
  176MOL0     H23180   1.593   7.106   0.982 -1.8485 -4.8726 -1.0716
  176MOL0     H23181   1.621   7.308   0.856  0.9119 -1.1248 -0.3506
  176MOL0     H23182   1.545   7.181   0.752 -2.7913  0.7109 -1.3778
  176MOL0     H23183   1.457   7.403   0.712  0.4976 -1.5648 -0.9683
  176MOL0     H23184   1.377   7.401   0.867  2.3540 -0.7482  1.2871
  176MOL0     H23185   1.364   7.147   0.558 -1.9353 -2.2390 -1.0541
  176MOL0     H23186   1.175   7.017   0.454  1.9476  3.8952 -0.8205
  176MOL0     H23187   1.039   7.121   0.444  5.6259  2.4251 -1.8537
  176MOL0     H23188   1.056   6.902   0.657  2.8895  0.0818 -0.4627
  176MOL0     H23189   0.989   6.884   0.492 -0.0424 -0.5826  0.9824
  176MOL0     H23190   0.897   7.061   0.712 -0.9218 -0.0133  0.7078
  176MOL0     H23191   0.830   7.070   0.547  1.8777 -2.2013 -2.6523
  176MOL0     H23192   0.822   6.840   0.756 -2.7997 -1.2707 -0.0338
  176MOL0     H23193   0.780   6.815   0.588 -2.1292  0.2366 -0.8015
  176MOL0     H23194   0.647   6.693   0.781 -0.5378  0.4316  1.0821
  176MOL0     H23195   0.451   6.595   0.924 -2.1477  0.7723  0.5300
  176MOL0     H23196  -0.038   6.679   1.028 -0.2838 -2.3825 -0.0042
  176MOL0     H23197  -0.207   6.586   1.164  1.4256 -1.1506 -0.5972
  176MOL0     H23198  -0.325   6.508   1.580 -0.6901 -2.6964 -0.2765
  176MOL0     H23199  -0.162   6.554   1.623 -0.9415 -1.7892  3.2504
  176MOL0     H23200  -0.120   6.350   1.651 -0.2738  3.5348  0.6849
  176MOL0     H23201  -0.098   6.342   1.479  1.1397  1.9859 -0.0097
  176MOL0     H23202  -0.308   6.231   1.434  3.2275 -0.1974 -0.2615
  176MOL0     H23203  -0.367   6.274   1.609  0.2897 -1.3046  1.9713
  176MOL0     H23204  -0.117   6.118   1.546 -1.1264 -2.7926 -5.5844
  176MOL0     H23205  -0.206   6.133   1.698 -1.8574 -0.2673  0.7424
  176MOL0     H23206  -0.300   5.974   1.459 -2.7426  0.9280 -0.2465
  176MOL0     H23207  -0.381   5.992   1.615  1.4066  0.4444  0.7058
  176MOL0     H23208  -0.175   5.933   1.734 -0.7979  1.1250 -0.4121
  176MOL0     H23209  -0.103   5.882   1.580  0.0170 -0.2979  0.0503
  176MOL0     H23210  -0.218   5.717   1.762  0.9597 -0.0647 -1.3507
  176MOL0     H23211  -0.368   5.772   1.681  0.6309 -0.8103  3.1817
  176MOL0     H23212  -0.130   5.649   1.540  0.0087 -1.3515 -0.6716
  176MOL0     H23213  -0.288   5.697   1.467  2.6895  0.9959  0.1880
  176MOL0     H23214  -0.019   6.675   1.525 -1.6817  0.5127  0.3139
  176MOL0     H23215   0.189   6.779   1.385  1.7398  0.3809 -3.5807
  176MOL0     H23216   0.275   6.987   0.921  0.0954  1.3021 -2.6160
  176MOL0     H23217   0.456   7.062   0.766  0.2228 -0.0735 -0.8157
  176MOL0     H23218   0.789   6.966   1.135  1.2275 -0.6515  1.6254
  176MOL0     H23219   0.614   6.780   1.084  0.3969 -0.4305 -2.6212
  176MOL0     H23220   0.422   6.456   1.097  0.7353  0.7460  0.0265
  176MOL0     H23221   0.216   6.288   1.102 -1.3218 -1.6815 -1.0952
  176MOL0     H23222   0.181   5.838   0.970 -3.3052  1.8394 -1.7907
  176MOL0     H23223   0.348   5.879   0.929 -1.2541 -2.1695 -3.1440
  176MOL0     H23224   0.263   6.038   0.778 -1.2600  0.5316  1.9823
  176MOL0     H23225   0.192   5.876   0.742 -1.9275 -2.5215  0.8890
  176MOL0     H23226   0.055   6.096   0.706  2.6747  0.5600  0.5560
  176MOL0     H23227   0.044   6.107   0.887 -1.3068 -2.7786  3.2739
  176MOL0     H23228  -0.157   6.013   0.843 -0.8042 -1.4567 -1.4597
  176MOL0     H23229  -0.083   5.904   0.715  2.2163  0.2541 -0.0493
  176MOL0     H23230  -0.104   5.683   1.065 -0.3563  0.7951  0.4169
  176MOL0     H23231   0.490   5.979   1.076 -0.9129  0.8587  1.8742
  176MOL0     H23232   0.691   6.130   1.034  0.7801  1.4314  1.1534
  177MOL0     O23233   4.749   5.580  10.137  0.4633  0.3261 -0.5786
  177MOL0     C23234   4.754   5.466  10.094 -0.7547  0.2028 -0.4082
  177MOL0     O23235   4.662   5.408  10.020 -0.4657 -0.4495  0.1184
  177MOL0     C23236   4.534   5.465  10.030  0.6722  0.1988  0.6272
  177MOL0     C23237   4.436   5.411  10.102 -0.3592  0.2052 -0.8137
  177MOL0     C23238   4.310   5.464  10.115  0.1729 -0.0350 -0.4119
  177MOL0     C23239   4.278   5.576  10.034 -0.1648  0.2143 -0.0663
  177MOL0     O23240   4.162   5.653  10.027  0.0898 -0.9571 -1.0649
  177MOL0     C23241   4.054   5.631  10.120 -0.0054 -0.5050 -0.3986
  177MOL0     C23242   3.945   5.730  10.098  0.3562 -0.1837 -0.7139
  177MOL0     C23243   3.839   5.711  10.204  0.3324  0.0802 -0.7968
  177MOL0     C23244   3.737   5.611  10.164  1.4694  0.0257  0.6560
  177MOL0     C23245   3.687   5.528  10.285  0.2227  0.6673  0.1054
  177MOL0     C23246   3.623   5.615  10.390 -0.0068  0.6605 -0.4433
  177MOL0     C23247   3.620   5.532  10.516  0.3935 -0.6282 -0.3801
  177MOL0     C23248   3.522   5.572  10.620 -0.0381 -0.8882 -0.6867
  177MOL0     N23249   3.556   5.695  10.693 -0.2803  0.3940  0.7008
  177MOL0     C23250   3.536   5.812  10.628  0.4516 -1.0844  0.3302
  177MOL0     C23251   3.625   5.898  10.666  0.2903  0.1226 -0.6418
  177MOL0     C23252   3.645   6.038  10.598  0.7528 -1.1472  0.1221
  177MOL0     C23253   3.768   6.060  10.515 -0.4558  0.7861  0.3852
  177MOL0     C23254   3.879   6.110  10.589  0.2435 -0.3272 -0.3530
  177MOL0     C23255   3.883   6.266  10.587 -0.1163  0.2432 -0.3755
  177MOL0     O23256   3.765   6.340  10.608  0.2169 -0.3289  0.1160
  177MOL0     C23257   3.763   6.418  10.720 -0.2793  0.3608 -0.2433
  177MOL0     C23258   3.783   6.553  10.702 -0.5485  0.7239 -0.8548
  177MOL0     C23259   3.786   6.640  10.815 -0.1705 -0.0925  0.3508
  177MOL0     C23260   3.770   6.589  10.948  0.5883  0.7865 -0.5779
  177MOL0     C23261   3.758   6.671  11.066  0.5786 -1.3903  0.0876
  177MOL0     O23262   3.689   6.619  11.174 -0.0689 -0.4004  0.9264
  177MOL0     C23263   3.693   6.693  11.290 -0.8842 -0.5505 -0.0182
  177MOL0     C23264   3.811   6.723  11.357 -0.5905  0.0848 -0.1100
  177MOL0     C23265   3.800   6.781  11.486  0.2463  0.4433  1.0145
  177MOL0     C23266   3.676   6.824  11.536 -0.8084 -0.7091  0.5148
  177MOL0     O23267   3.665   6.895  11.648  0.4777 -1.0019 -0.1771
  177MOL0     C23268   3.762   6.994  11.684 -0.6582  0.3888  0.9870
  177MOL0     C23269   3.741   7.057  11.820  0.4400 -0.1885  0.4128
  177MOL0     C23270   3.849   7.152  11.859 -0.5750 -1.1262  1.0972
  177MOL0     C23271   3.840   7.210  11.998 -0.3731  1.6834 -0.7141
  177MOL0     C23272   3.968   7.288  12.039  0.4529 -0.0365  0.4387
  177MOL0     C23273   3.953   7.362  12.172  1.1371  1.1129  0.2296
  177MOL0     C23274   4.074   7.439  12.207  0.4892  0.0023  0.1101
  177MOL0     C23275   4.068   7.491  12.346 -0.5497  1.3746 -0.0921
  177MOL0    Cl23276   3.966   7.640  12.351 -0.1954 -0.0017  0.4082
  177MOL0     C23277   3.558   6.790  11.470  0.8924 -0.6118  0.1298
  177MOL0     C23278   3.566   6.717  11.352  0.0371 -0.6057 -0.0988
  177MOL0     O23279   3.795   6.792  11.050  0.1713  0.9197 -0.0128
  177MOL0     C23280   3.746   6.452  10.957  0.2172  1.0704 -0.2669
  177MOL0     C23281   3.739   6.371  10.846  0.5331  0.8480 -0.5733
  177MOL0     N23282   3.699   5.833  10.765 -0.4506 -0.4229 -0.1984
  177MOL0     N23283   3.663   5.707  10.776 -0.1674 -0.8850  0.2798
  177MOL0     C23284   4.369   5.628   9.942  0.2842  0.1814  1.1533
  177MOL0     C23285   4.503   5.576   9.950  0.5507 -0.3061 -0.2304
  177MOL0     C23286   4.884   5.408  10.103 -1.0202  0.5119 -0.0250
  177MOL0     C23287   4.992   5.491  10.157 -0.0153  0.2188  0.5278
  177MOL0     C23288   5.113   5.418  10.181  1.0460  0.3496 -1.1841
  177MOL0     C23289   5.137   5.281  10.160  0.2154  0.0889 -0.1854
  177MOL0     O23290   5.254   5.214  10.195 -0.3658 -0.3987 -0.7272
  177MOL0     C23291   5.277   5.211  10.335  0.3657 -1.2085  1.2902
  177MOL0     C23292   5.404   5.142  10.361 -0.5900 -0.5206 -0.1273
  177MOL0     C23293   5.429   5.106  10.513 -0.1055 -0.6915  0.1139
  177MOL0     C23294   5.450   5.232  10.613 -0.2675 -0.6566  0.6219
  177MOL0     C23295   5.325   5.268  10.680 -0.4341 -0.3824  0.6060
  177MOL0     C23296   5.212   5.294  10.712  0.5522  0.0971  0.9092
  177MOL0     C23297   5.036   5.210  10.105 -0.7790  0.3606  0.0795
  177MOL0     C23298   4.911   5.269  10.082  0.0703 -0.4422  0.6096
  177MOL0     H23299   4.455   5.324  10.164 -0.4118  1.4265  0.9743
  177MOL0     H23300   4.227   5.420  10.169 -1.0530  0.9249 -1.4382
  177MOL0     H23301   4.093   5.641  10.222  0.3916  2.6862 -0.7553
  177MOL0     H23302   4.014   5.531  10.107 -2.1178  0.3787 -1.1432
  177MOL0     H23303   3.909   5.723   9.995  1.6475 -2.0325 -1.0912
  177MOL0     H23304   3.991   5.827  10.118 -0.8704 -0.1776  2.7496
  177MOL0     H23305   3.780   5.801  10.225  0.4048 -0.8175  4.4235
  177MOL0     H23306   3.894   5.698  10.297 -1.3952  2.3045  0.6333
  177MOL0     H23307   3.659   5.671  10.115  2.0560  0.8640  0.7188
  177MOL0     H23308   3.776   5.538  10.093  0.2550 -1.7548  1.7531
  177MOL0     H23309   3.780   5.480  10.318 -0.9500 -1.4929  0.4865
  177MOL0     H23310   3.613   5.460  10.241  1.9961  0.1636 -2.3255
  177MOL0     H23311   3.527   5.655  10.356  0.0441 -0.2820 -1.7590
  177MOL0     H23312   3.676   5.708  10.411 -3.0682  2.3798  0.3917
  177MOL0     H23313   3.590   5.434  10.478  0.5438 -0.1116 -1.9051
  177MOL0     H23314   3.720   5.523  10.557 -0.0041 -2.6531  0.2807
  177MOL0     H23315   3.519   5.486  10.688 -3.4192  1.8432  3.0691
  177MOL0     H23316   3.418   5.592  10.591  0.6061  0.3333 -2.2937
  177MOL0     H23317   3.472   5.837  10.544  0.3526  0.6246  0.8725
  177MOL0     H23318   3.652   6.117  10.673  2.1081  0.5717 -1.7086
  177MOL0     H23319   3.550   6.057  10.548  0.2680 -2.0566  0.6549
  177MOL0     H23320   3.747   6.136  10.439  4.4291  1.8377 -0.2772
  177MOL0     H23321   3.785   5.964  10.466 -1.4474  0.5948  0.3902
  177MOL0     H23322   3.877   6.078  10.694 -1.6809  3.1898  0.8393
  177MOL0     H23323   3.975   6.073  10.552  1.6682  2.3700  0.4444
  177MOL0     H23324   3.918   6.291  10.487 -0.9862 -0.8374 -0.9714
  177MOL0     H23325   3.961   6.304  10.653 -0.1780  2.9859 -1.7552
  177MOL0     H23326   3.812   6.594  10.606  1.4549 -0.1842 -0.6852
  177MOL0     H23327   3.810   6.745  10.800  0.9269 -0.5421 -1.3067
  177MOL0     H23328   3.907   6.695  11.317 -1.9822 -2.4304 -1.9908
  177MOL0     H23329   3.890   6.779  11.547  1.6033 -1.7444 -0.9039
  177MOL0     H23330   3.767   7.067  11.603 -0.1461  0.3151  0.9491
  177MOL0     H23331   3.860   6.948  11.676 -0.8956  0.2178 -3.1264
  177MOL0     H23332   3.722   6.982  11.898  2.5310  0.7545  1.9561
  177MOL0     H23333   3.648   7.113  11.808  1.7779  1.8527 -1.2769
  177MOL0     H23334   3.854   7.239  11.792 -0.4259 -1.9192  0.0557
  177MOL0     H23335   3.948   7.106  11.851  0.0496  0.3224  0.0082
  177MOL0     H23336   3.746   7.265  11.991 -3.3312 -3.0015 -1.6925
  177MOL0     H23337   3.812   7.133  12.070  0.1766  0.3145 -1.9241
  177MOL0     H23338   3.982   7.361  11.959  0.2184  1.0911  1.3945
  177MOL0     H23339   4.056   7.223  12.038  2.2803  2.2841  0.4178
  177MOL0     H23340   3.918   7.292  12.248  2.2091  1.1272  0.7540
  177MOL0     H23341   3.878   7.441  12.163  0.6921  0.8118  1.1763
  177MOL0     H23342   4.163   7.376  12.200  0.3197 -0.0667 -2.5042
  177MOL0     H23343   4.089   7.532  12.151 -3.1152  0.5482 -0.1995
  177MOL0     H23344   4.172   7.516  12.368 -0.1262  0.1716 -0.6173
  177MOL0     H23345   4.036   7.417  12.419 -0.0921 -2.4545 -3.3910
  177MOL0     H23346   3.464   6.828  11.509 -0.8480 -2.8860 -1.5124
  177MOL0     H23347   3.475   6.690  11.300 -0.8415  2.1983 -0.1365
  177MOL0     H23348   3.720   6.403  11.050  1.1686 -1.3329 -1.1999
  177MOL0     H23349   3.702   6.269  10.853  2.3198  0.2903  3.3150
  177MOL0     H23350   4.347   5.709   9.874  0.1231 -1.3570 -0.6968
  177MOL0     H23351   4.578   5.617   9.883  0.8296 -1.6342 -0.7652
  177MOL0     H23352   4.980   5.597  10.175  1.4242  0.3282  0.9168
  177MOL0     H23353   5.171   5.488  10.240 -1.6591  2.2062 -0.5205
  177MOL0     H23354   5.187   5.186  10.392  0.4458 -1.2694  1.3915
  177MOL0     H23355   5.316   5.311  10.355 -0.9562 -0.7134  1.5242
  177MOL0     H23356   5.414   5.060  10.290 -0.0894 -2.3663  1.9580
  177MOL0     H23357   5.485   5.214  10.343 -2.3951  2.9976  3.9953
  177MOL0     H23358   5.527   5.056  10.516  1.7568  2.6029 -0.5554
  177MOL0     H23359   5.350   5.038  10.547 -0.9929 -0.1816 -0.8644
  177MOL0     H23360   5.514   5.189  10.690  0.7378 -1.0946 -0.4268
  177MOL0     H23361   5.501   5.318  10.568  0.8038 -2.6880 -2.3206
  177MOL0     H23362   5.121   5.311  10.767 -1.7495 -0.1480 -2.5349
  177MOL0     H23363   5.063   5.106  10.086 -4.5062 -0.3424 -2.5382
  177MOL0     H23364   4.829   5.206  10.048 -0.5991  0.6687  0.1047
  178MOL0     O23365   7.860   5.557   2.681  0.2070 -1.0476 -0.7646
  178MOL0     C23366   7.814   5.620   2.781 -1.1032 -0.1384 -1.1227
  178MOL0     O23367   7.901   5.669   2.883 -0.1419 -0.9183  0.6361
  178MOL0     C23368   8.032   5.665   2.856  0.4111 -0.3893 -0.8055
  178MOL0     C23369   8.097   5.766   2.778  0.9621  0.2477 -0.2406
  178MOL0     C23370   8.236   5.758   2.751 -0.5039  0.3737 -0.0572
  178MOL0     C23371   8.313   5.661   2.815 -0.3723  0.6350  0.1317
  178MOL0     O23372   8.451   5.656   2.782 -0.3979 -0.2857 -0.1936
  178MOL0     C23373   8.481   5.670   2.643  0.1620  0.5497 -0.2478
  178MOL0     C23374   8.636   5.661   2.624  0.2877 -0.7225 -0.5135
  178MOL0     C23375   8.678   5.699   2.487 -0.2547 -0.0158 -0.2545
  178MOL0     C23376   8.831   5.669   2.467 -0.2056 -0.8787 -1.3892
  178MOL0     C23377   8.885   5.740   2.341  0.4865  0.1480  0.4753
  178MOL0     C23378   8.837   5.678   2.204 -0.8931  0.8309 -0.9946
  178MOL0     C23379   8.912   5.548   2.158  0.4597  0.5281 -0.1124
  178MOL0     C23380   8.898   5.540   2.007 -0.3498  0.4755 -0.2126
  178MOL0     N23381   8.989   5.620   1.921  0.5123  0.1312 -0.3783
  178MOL0     C23382   9.087   5.713   1.958 -0.0990  0.2528 -0.0802
  178MOL0     C23383   9.150   5.742   1.837  0.3830  0.5865  0.6747
  178MOL0     C23384   9.265   5.826   1.817  0.5823 -0.1415 -0.2317
  178MOL0     C23385   9.235   5.962   1.732  0.3385  0.2524 -0.3087
  178MOL0     C23386   9.137   6.065   1.808 -0.6717  0.5340  0.0163
  178MOL0     C23387   9.101   6.190   1.736  0.8700 -0.2637 -0.7409
  178MOL0     O23388   9.003   6.181   1.624 -0.6037  0.3985  0.6048
  178MOL0     C23389   9.035   6.127   1.503  0.2903 -0.3366  0.4673
  178MOL0     C23390   8.917   6.075   1.432 -0.2058 -0.3571 -0.0796
  178MOL0     C23391   8.929   6.019   1.312 -1.6421 -0.6795 -0.1293
  178MOL0     C23392   9.061   6.026   1.248  0.6066 -0.5735 -1.2700
  178MOL0     C23393   9.078   5.958   1.117 -0.3777 -0.8477 -0.2550
  178MOL0     O23394   9.000   5.849   1.082  0.2494  0.2563  0.3046
  178MOL0     C23395   9.025   5.784   0.963  0.3383 -0.4745  0.0746
  178MOL0     C23396   8.904   5.743   0.900  0.3823  1.0376  0.1271
  178MOL0     C23397   8.907   5.648   0.795  0.0807  0.2566 -0.0748
  178MOL0     C23398   9.029   5.603   0.749  0.0058 -0.1732  0.2585
  178MOL0     O23399   9.027   5.545   0.619 -0.7511 -1.5469 -0.4220
  178MOL0     C23400   9.066   5.411   0.607  0.3854 -0.4789  0.0894
  178MOL0     C23401   8.966   5.316   0.682 -0.7380 -0.2738 -0.0419
  178MOL0     C23402   8.830   5.288   0.623  0.4835  0.5967  0.5894
  178MOL0     C23403   8.767   5.162   0.679 -0.4371  0.0745 -0.4497
  178MOL0     C23404   8.636   5.123   0.610 -0.8607  0.3372  0.3983
  178MOL0     C23405   8.527   5.232   0.633  0.0568  0.2315  0.2562
  178MOL0     C23406   8.395   5.173   0.582  0.1984 -1.0543  0.5149
  178MOL0     C23407   8.282   5.279   0.544  0.1978  0.5794  0.3784
  178MOL0    Cl23408   8.242   5.382   0.686 -0.1810  0.1847  0.8612
  178MOL0     C23409   9.146   5.637   0.816 -0.0568  0.2718 -0.0336
  178MOL0     C23410   9.153   5.734   0.919 -0.5584 -0.2668 -0.8037
  178MOL0     O23411   9.170   6.000   1.051  0.8279 -0.8484 -0.0363
  178MOL0     C23412   9.178   6.081   1.313  0.0317  0.2697 -0.3431
  178MOL0     C23413   9.164   6.144   1.442 -0.1496  0.9452 -0.6026
  178MOL0     N23414   9.078   5.679   1.733 -0.9381 -0.1077  0.1143
  178MOL0     N23415   8.983   5.607   1.789  0.0802  0.3259  0.9834
  178MOL0     C23416   8.252   5.558   2.888 -0.1988 -0.2921 -0.4257
  178MOL0     C23417   8.115   5.567   2.914 -0.7359  0.2406  0.6156
  178MOL0     C23418   7.673   5.628   2.810 -0.8976 -0.6474  0.7369
  178MOL0     C23419   7.629   5.647   2.941  0.6745  0.8117 -0.5737
  178MOL0     C23420   7.490   5.658   2.968  0.0172  0.4621  0.6572
  178MOL0     C23421   7.391   5.658   2.867 -0.4821  0.5006 -0.6386
  178MOL0     O23422   7.260   5.696   2.888  0.2259 -0.2080  0.7982
  178MOL0     C23423   7.179   5.597   2.947 -0.1801  0.4915 -1.0183
  178MOL0     C23424   7.034   5.628   2.904  0.4566 -0.6649 -0.8276
  178MOL0     C23425   7.023   5.631   2.758  0.6801  0.9180  0.6098
  178MOL0     C23426   6.909   5.723   2.705  0.5220 -0.8914  0.1010
  178MOL0     C23427   6.777   5.674   2.750 -0.0568 -0.4391  0.3655
  178MOL0     C23428   6.686   5.608   2.801 -0.2869 -0.3470 -0.2326
  178MOL0     C23429   7.442   5.640   2.740 -0.0922 -0.5020 -0.8202
  178MOL0     C23430   7.574   5.634   2.715 -0.0889  0.5683  0.3020
  178MOL0     H23431   8.029   5.845   2.748  2.7176  1.4548 -1.2209
  178MOL0     H23432   8.266   5.845   2.694 -2.3569  1.5966  0.7549
  178MOL0     H23433   8.442   5.768   2.613 -2.5366 -0.9227 -2.0325
  178MOL0     H23434   8.427   5.594   2.586  1.1360  0.1070 -0.6006
  178MOL0     H23435   8.662   5.554   2.627  0.6222 -0.6801 -1.3404
  178MOL0     H23436   8.689   5.714   2.703  0.2717 -2.0832  0.4391
  178MOL0     H23437   8.668   5.806   2.467  1.0537 -0.1189 -1.6696
  178MOL0     H23438   8.619   5.645   2.412 -0.4710  0.3861 -0.3774
  178MOL0     H23439   8.869   5.714   2.559 -1.0478 -1.5801 -0.6820
  178MOL0     H23440   8.855   5.562   2.471 -1.3397 -1.2046 -2.6571
  178MOL0     H23441   8.992   5.717   2.338 -0.0303 -2.4380 -1.4999
  178MOL0     H23442   8.862   5.847   2.350  0.9895  0.3061 -0.0159
  178MOL0     H23443   8.856   5.757   2.131 -0.7426  1.6803 -0.0725
  178MOL0     H23444   8.728   5.677   2.214 -0.9422  2.7891 -0.8086
  178MOL0     H23445   9.018   5.553   2.185  0.4511  1.3652 -0.2178
  178MOL0     H23446   8.858   5.460   2.192  2.1130 -0.1443  0.9067
  178MOL0     H23447   8.792   5.561   1.991 -1.3103 -1.5133  2.6114
  178MOL0     H23448   8.898   5.434   1.979 -0.0941  0.4027  0.0645
  178MOL0     H23449   9.105   5.762   2.053 -0.9841 -0.0030  0.2347
  178MOL0     H23450   9.344   5.765   1.772  0.8936  1.2055 -1.6081
  178MOL0     H23451   9.307   5.837   1.917 -2.3021 -2.0139  1.3663
  178MOL0     H23452   9.187   5.940   1.636 -0.4177 -0.9630  0.3304
  178MOL0     H23453   9.332   6.008   1.710  0.6897  0.0561  0.7777
  178MOL0     H23454   9.045   6.011   1.832  0.1016 -1.2133 -0.8047
  178MOL0     H23455   9.196   6.083   1.899 -1.7585 -1.3591  1.1502
  178MOL0     H23456   9.186   6.253   1.711 -0.5474  2.1699  0.2325
  178MOL0     H23457   9.048   6.242   1.816 -0.2692 -4.0400  1.1792
  178MOL0     H23458   8.825   6.075   1.489 -1.0798  1.4567 -1.4021
  178MOL0     H23459   8.852   5.977   1.248 -0.3471  0.2330 -2.4115
  178MOL0     H23460   8.810   5.753   0.951 -0.2931 -1.1769 -0.5634
  178MOL0     H23461   8.806   5.620   0.766  0.0711 -2.5571  2.1878
  178MOL0     H23462   9.162   5.402   0.658  0.2302 -2.1284  0.1279
  178MOL0     H23463   9.076   5.372   0.505  4.3974  0.8382 -0.1932
  178MOL0     H23464   8.949   5.351   0.784  0.0900  0.5291 -0.1721
  178MOL0     H23465   9.008   5.215   0.682 -1.8545 -0.7878  1.1789
  178MOL0     H23466   8.833   5.278   0.514 -0.3398 -0.4091  0.6399
  178MOL0     H23467   8.766   5.371   0.655  3.6996  4.0619 -1.2794
  178MOL0     H23468   8.843   5.084   0.671 -2.3967 -1.8044 -2.0477
  178MOL0     H23469   8.744   5.186   0.784  1.0802  0.7378 -0.2341
  178MOL0     H23470   8.593   5.036   0.660  2.3546 -1.6586 -0.0695
  178MOL0     H23471   8.649   5.097   0.504 -1.4982  3.8868 -0.6993
  178MOL0     H23472   8.549   5.328   0.586 -0.8853 -0.0933 -0.8916
  178MOL0     H23473   8.514   5.258   0.739  0.9586 -1.8023  0.9063
  178MOL0     H23474   8.406   5.112   0.493  0.0016  0.8043 -0.8453
  178MOL0     H23475   8.352   5.109   0.660 -2.3537 -0.9659 -0.7335
  178MOL0     H23476   8.195   5.225   0.505  1.9645 -1.5901 -0.8081
  178MOL0     H23477   8.316   5.344   0.462  0.6569  0.4098  0.4315
  178MOL0     H23478   9.245   5.612   0.781  0.1199  1.5697 -0.5081
  178MOL0     H23479   9.249   5.744   0.968 -1.6824 -2.1164  2.0501
  178MOL0     H23480   9.269   6.097   1.256  1.8657 -2.7654  1.4799
  178MOL0     H23481   9.257   6.183   1.482  1.5115 -1.2357 -2.0478
  178MOL0     H23482   8.325   5.485   2.923  1.2368  1.0563 -0.4754
  178MOL0     H23483   8.076   5.495   2.985 -2.2461  1.5802  1.1895
  178MOL0     H23484   7.702   5.640   3.021  0.0110 -0.7069 -0.0511
  178MOL0     H23485   7.455   5.682   3.068  1.6598 -2.8680  2.1855
  178MOL0     H23486   7.193   5.584   3.055 -3.6063 -1.7251 -0.6764
  178MOL0     H23487   7.195   5.497   2.905 -1.3837 -0.4190  0.5930
  178MOL0     H23488   6.961   5.553   2.936  1.4796 -1.3471 -0.0286
  178MOL0     H23489   7.008   5.721   2.955 -4.2665 -1.2652 -1.6546
  178MOL0     H23490   7.004   5.529   2.723 -3.0239  1.6375  0.0859
  178MOL0     H23491   7.116   5.658   2.708 -1.2277  3.4263 -1.9515
  178MOL0     H23492   6.915   5.827   2.738 -0.8173 -0.6940 -0.2209
  178MOL0     H23493   6.905   5.728   2.596 -1.6778 -2.0462  0.0777
  178MOL0     H23494   6.605   5.555   2.845 -1.4885 -1.4734 -3.5051
  178MOL0     H23495   7.368   5.630   2.661 -0.8254  3.5072 -0.8867
  178MOL0     H23496   7.603   5.610   2.613 -0.5404 -2.1738  0.7354
  179MOL0     O23497   3.515   8.036   2.525 -0.1385  0.6641 -0.0115
  179MOL0     C23498   3.540   7.986   2.634 -0.2361 -0.3809 -0.6703
  179MOL0     O23499   3.589   8.052   2.750  0.4335  0.4705  0.2256
  179MOL0     C23500   3.551   8.181   2.747 -0.0164 -0.6046 -0.5536
  179MOL0     C23501   3.647   8.271   2.726 -0.3305 -0.2357  0.6920
  179MOL0     C23502   3.623   8.410   2.749  0.2847 -0.4002  0.4116
  179MOL0     C23503   3.499   8.460   2.787  0.0822  0.1847  0.7885
  179MOL0     O23504   3.467   8.586   2.800  0.2564  0.1158  0.5863
  179MOL0     C23505   3.547   8.694   2.762 -0.6704  0.0990  0.1042
  179MOL0     C23506   3.551   8.709   2.606  0.4420 -0.7113  0.7372
  179MOL0     C23507   3.411   8.722   2.559 -0.2248 -0.9419  0.2260
  179MOL0     C23508   3.393   8.842   2.474  0.3710  0.4268 -0.3932
  179MOL0     C23509   3.237   8.860   2.442  1.1138 -0.2330  0.2454
  179MOL0     C23510   3.154   8.920   2.568  1.3657 -0.7703  0.3539
  179MOL0     C23511   3.000   8.948   2.542 -0.2492  0.6500  0.2594
  179MOL0     C23512   2.955   9.042   2.433 -0.0195 -0.1994  0.8362
  179MOL0     N23513   2.975   9.182   2.469  0.5929 -0.3532  0.4424
  179MOL0     C23514   3.008   9.265   2.367  0.4040 -0.1183 -1.1873
  179MOL0     C23515   3.005   9.391   2.420  0.0114  0.2087 -0.6026
  179MOL0     C23516   3.032   9.529   2.355  0.3239  0.6386  0.3665
  179MOL0     C23517   2.930   9.548   2.238  0.2480  0.4029  0.7321
  179MOL0     C23518   2.791   9.550   2.280 -0.7090 -1.1359 -0.2611
  179MOL0     C23519   2.696   9.538   2.151  0.0840  0.7416 -0.9734
  179MOL0     O23520   2.708   9.641   2.054 -0.1007 -0.5358  0.3636
  179MOL0     C23521   2.641   9.763   2.069  1.1321 -0.1483  1.3445
  179MOL0     C23522   2.690   9.856   1.980  0.2873  0.0826  0.3065
  179MOL0     C23523   2.641   9.983   1.974  0.1899 -0.5540 -0.5449
  179MOL0     C23524   2.537  10.029   2.065 -0.3188  0.1692 -0.0903
  179MOL0     C23525   2.483  10.160   2.042  0.1305 -0.6091 -0.5376
  179MOL0     O23526   2.344  10.165   2.052  0.5869  0.1458 -0.1764
  179MOL0     C23527   2.285  10.264   1.983  0.0992  0.0345  0.0249
  179MOL0     C23528   2.233  10.246   1.857  0.5342  0.0037 -0.2137
  179MOL0     C23529   2.182  10.356   1.779 -0.5674  0.5843 -0.6581
  179MOL0     C23530   2.163  10.477   1.847 -0.1194 -0.7614 -0.7307
  179MOL0     O23531   2.101  10.576   1.781  0.2979 -0.4146  0.4144
  179MOL0     C23532   2.000  10.654   1.847 -0.0932  0.7768 -0.0327
  179MOL0     C23533   1.914  10.726   1.749 -0.3637 -0.0429  0.4040
  179MOL0     C23534   1.796  10.787   1.815 -0.1229 -0.2222 -0.0067
  179MOL0     C23535   1.720  10.875   1.718  0.2096  0.3646 -0.4841
  179MOL0     C23536   1.577  10.891   1.778  0.6212  0.2472 -0.0482
  179MOL0     C23537   1.567  10.944   1.920  0.4212 -0.4519 -0.3477
  179MOL0     C23538   1.633  11.085   1.949 -0.0860  0.0830 -0.2036
  179MOL0     C23539   1.574  11.154   2.077  0.1828 -0.5539  1.4948
  179MOL0    Cl23540   1.624  11.323   2.106 -0.4612  0.0454 -0.1500
  179MOL0     C23541   2.210  10.494   1.969 -0.2397  0.8533 -0.1779
  179MOL0     C23542   2.261  10.388   2.041  0.7682 -0.5432  0.0239
  179MOL0     O23543   2.552  10.253   2.000  0.1911 -0.1042 -0.2430
  179MOL0     C23544   2.485   9.941   2.165  0.1815 -0.2114 -0.3805
  179MOL0     C23545   2.544   9.812   2.169 -0.4565  1.0374  1.2004
  179MOL0     N23546   2.986   9.375   2.563 -0.6087  0.7079  0.3667
  179MOL0     N23547   2.968   9.244   2.582  0.6384  0.0432 -0.4956
  179MOL0     C23548   3.402   8.367   2.820  0.4978 -0.3444 -0.2965
  179MOL0     C23549   3.426   8.232   2.799  0.5966  0.6954  0.4298
  179MOL0     C23550   3.519   7.837   2.649  0.4820  0.3956 -0.4574
  179MOL0     C23551   3.525   7.786   2.779  0.5022  0.4180  1.1393
  179MOL0     C23552   3.486   7.651   2.804 -0.4440 -0.3165 -0.2954
  179MOL0     C23553   3.445   7.566   2.703  0.2158  0.0785  0.0831
  179MOL0     O23554   3.376   7.448   2.728  0.6397 -0.0108  0.5364
  179MOL0     C23555   3.426   7.370   2.843 -0.3816  0.6576 -0.2678
  179MOL0     C23556   3.368   7.218   2.830 -0.3944 -0.4187 -0.2629
  179MOL0     C23557   3.469   7.157   2.728  0.2227 -0.3076 -0.1897
  179MOL0     C23558   3.398   7.046   2.643  0.4108 -0.9632 -0.0016
  179MOL0     C23559   3.495   6.999   2.548  0.4654 -0.4308  0.4721
  179MOL0     C23560   3.576   6.944   2.473 -0.2728 -0.3467  0.1880
  179MOL0     C23561   3.452   7.615   2.574 -1.6637 -0.0906 -0.2575
  179MOL0     C23562   3.487   7.745   2.547 -0.3958 -0.8966  0.9156
  179MOL0     H23563   3.731   8.243   2.664  0.9119  3.4429  0.4986
  179MOL0     H23564   3.706   8.479   2.737  0.4363 -0.2498  2.0974
  179MOL0     H23565   3.649   8.679   2.798 -1.0779 -0.0290  1.2196
  179MOL0     H23566   3.501   8.776   2.817  0.8123 -0.3584  2.1249
  179MOL0     H23567   3.587   8.618   2.557  1.6315 -0.0204  0.2643
  179MOL0     H23568   3.609   8.793   2.567 -1.5514 -0.7824 -2.7540
  179MOL0     H23569   3.339   8.730   2.641 -0.0961  0.8464  0.1995
  179MOL0     H23570   3.384   8.639   2.493  1.0662 -0.0187 -1.5528
  179MOL0     H23571   3.430   8.928   2.531  0.1680 -2.3633  4.4516
  179MOL0     H23572   3.450   8.833   2.381 -1.5286 -1.6929 -1.4370
  179MOL0     H23573   3.187   8.768   2.410  1.7870  0.1845 -2.1637
  179MOL0     H23574   3.222   8.923   2.354 -1.2553 -2.2604 -0.9266
  179MOL0     H23575   3.197   9.018   2.592  0.0850 -0.3759  1.0897
  179MOL0     H23576   3.158   8.843   2.645 -4.1067 -0.2724  1.5303
  179MOL0     H23577   2.952   8.850   2.529  0.5025  0.1748  0.9620
  179MOL0     H23578   2.955   8.981   2.636  1.2118 -0.4040  1.3724
  179MOL0     H23579   2.849   9.019   2.431  0.3309 -1.9152 -1.3666
  179MOL0     H23580   3.012   9.029   2.341  0.3188  1.3756  0.7969
  179MOL0     H23581   3.037   9.238   2.266  2.9580  0.4793 -0.6905
  179MOL0     H23582   3.132   9.532   2.310  0.1967  2.7429  0.1294
  179MOL0     H23583   3.028   9.612   2.426 -1.2395  1.7281 -0.9154
  179MOL0     H23584   2.944   9.465   2.167 -3.8688  0.8566 -0.8868
  179MOL0     H23585   2.961   9.645   2.198  3.8985 -0.5345  0.9185
  179MOL0     H23586   2.779   9.467   2.350 -3.8175  0.5362  1.4076
  179MOL0     H23587   2.773   9.644   2.335  0.0159 -1.8884  1.3303
  179MOL0     H23588   2.592   9.529   2.184  0.9050  1.2313  2.0682
  179MOL0     H23589   2.725   9.443   2.105  1.0528  0.3062  0.4525
  179MOL0     H23590   2.760   9.820   1.905 -2.4716 -0.1267 -2.3844
  179MOL0     H23591   2.677  10.062   1.908  0.2555  0.5243  0.7438
  179MOL0     H23592   2.246  10.144   1.823 -1.5769  0.1562 -1.6741
  179MOL0     H23593   2.151  10.340   1.676 -3.0921 -0.5005  0.1773
  179MOL0     H23594   2.046  10.723   1.918 -0.2239 -0.0518  0.8844
  179MOL0     H23595   1.929  10.596   1.906  0.6404 -1.0842 -0.8969
  179MOL0     H23596   1.877  10.651   1.679  1.2845 -1.5189  1.0641
  179MOL0     H23597   1.972  10.793   1.684 -2.3940 -0.0577 -1.5543
  179MOL0     H23598   1.829  10.839   1.906 -0.5628  0.6691 -0.3385
  179MOL0     H23599   1.727  10.710   1.851 -0.0991 -0.9946 -1.5551
  179MOL0     H23600   1.773  10.964   1.682  1.8801 -0.1429  0.6447
  179MOL0     H23601   1.712  10.819   1.624 -1.7611  1.5800 -1.1140
  179MOL0     H23602   1.533  10.791   1.783  1.0142  0.0277 -0.7884
  179MOL0     H23603   1.514  10.943   1.704  0.4051 -0.2942 -0.2511
  179MOL0     H23604   1.592  10.871   1.998 -2.6498 -0.6048  0.6072
  179MOL0     H23605   1.463  10.968   1.942  0.9893 -1.3545  4.7182
  179MOL0     H23606   1.741  11.076   1.961  0.4429  1.7657 -2.9226
  179MOL0     H23607   1.610  11.146   1.861 -1.9184 -2.2506 -1.4578
  179MOL0     H23608   1.599  11.082   2.155 -1.9143 -3.6494 -0.4846
  179MOL0     H23609   1.465  11.153   2.075  0.0203 -3.2051 -3.7176
  179MOL0     H23610   2.199  10.584   2.028  4.6809  0.5945  1.5627
  179MOL0     H23611   2.296  10.406   2.142  1.5592  2.1082 -0.6505
  179MOL0     H23612   2.413   9.974   2.239  0.4819 -0.5689  0.0799
  179MOL0     H23613   2.509   9.748   2.249 -4.2247  2.3488  0.8384
  179MOL0     H23614   3.303   8.402   2.849  1.3390  1.0541  1.0459
  179MOL0     H23615   3.355   8.158   2.834  1.0423 -0.0126 -0.1352
  179MOL0     H23616   3.536   7.863   2.856 -0.9090  1.9261 -0.0884
  179MOL0     H23617   3.486   7.615   2.907  1.4609 -1.8723 -0.7739
  179MOL0     H23618   3.394   7.419   2.935  1.0317 -0.1744  0.7205
  179MOL0     H23619   3.535   7.361   2.846 -0.3746  0.9088  0.3203
  179MOL0     H23620   3.371   7.164   2.925 -0.6935 -0.7032 -0.4151
  179MOL0     H23621   3.262   7.219   2.803 -0.2464  3.3567 -1.3528
  179MOL0     H23622   3.555   7.121   2.785 -0.4538  2.6043  3.0286
  179MOL0     H23623   3.506   7.237   2.663  0.3945 -1.7066 -1.8800
  179MOL0     H23624   3.361   6.963   2.703 -0.7921 -1.3406 -1.1931
  179MOL0     H23625   3.311   7.088   2.591  0.0483 -0.7515  0.7741
  179MOL0     H23626   3.645   6.900   2.404 -1.8446  1.2005 -2.5360
  179MOL0     H23627   3.434   7.554   2.486  1.0623 -0.0710 -0.9045
  179MOL0     H23628   3.467   7.779   2.446 -1.7488 -2.6478  0.5416
  180MOL0     O23629   0.427  11.136   0.311  0.8088  0.4432  0.1839
  180MOL0     C23630   0.482  11.121   0.204  0.6428  0.1522  0.4108
  180MOL0     O23631   0.611  11.157   0.172 -0.0279  0.1837  0.3426
  180MOL0     C23632   0.673  11.247   0.251 -0.2528 -0.2602 -0.3888
  180MOL0     C23633   0.630  11.381   0.261  0.2263 -0.5910  0.0223
  180MOL0     C23634   0.695  11.479   0.335 -0.5327 -0.5881  0.0925
  180MOL0     C23635   0.795  11.435   0.422 -0.9168  0.1826 -0.4579
  180MOL0     O23636   0.848  11.515   0.528  0.5536  0.3475  0.5512
  180MOL0     C23637   0.885  11.650   0.507  0.0969 -0.6080  0.0413
  180MOL0     C23638   1.002  11.683   0.600  0.4277  0.2589 -0.6246
  180MOL0     C23639   1.080  11.810   0.567 -0.6336  0.1912 -0.1266
  180MOL0     C23640   0.984  11.931   0.564 -0.6169  0.4057  0.7152
  180MOL0     C23641   1.067  12.056   0.525  0.2177 -0.9406  0.9207
  180MOL0     C23642   0.999  12.196   0.543  0.8765 -0.1382  1.3117
  180MOL0     C23643   0.877  12.191   0.442  0.5938  0.7412  0.2796
  180MOL0     C23644   0.819  12.329   0.443 -0.0429 -0.3271  0.1765
  180MOL0     N23645   0.691  12.312   0.375 -0.1503 -1.2457  0.8283
  180MOL0     C23646   0.579  12.255   0.431  0.3475 -0.1373  0.0422
  180MOL0     C23647   0.480  12.256   0.335  0.4469  0.0503  0.4311
  180MOL0     C23648   0.343  12.204   0.344 -0.4785  0.1633 -0.2069
  180MOL0     C23649   0.253  12.323   0.416  0.6789  0.2985 -0.6884
  180MOL0     C23650   0.249  12.313   0.570  1.1842  0.2434  0.9897
  180MOL0     C23651   0.154  12.193   0.614 -0.5765 -0.8808 -0.1233
  180MOL0     O23652   0.205  12.068   0.574  0.2659  1.1344 -0.1473
  180MOL0     C23653   0.111  11.969   0.574 -0.1364  0.5132  0.1557
  180MOL0     C23654   0.112  11.867   0.482  0.5931  0.3245  0.2672
  180MOL0     C23655   0.037  11.755   0.496  0.4822 -0.3433 -0.3871
  180MOL0     C23656  -0.036  11.744   0.615  0.9863  0.2737  0.2494
  180MOL0     C23657  -0.093  11.605   0.651 -0.4678  0.4148  1.7127
  180MOL0     O23658  -0.125  11.581   0.781  0.0798 -0.3718 -0.7386
  180MOL0     C23659  -0.150  11.453   0.822  0.1835 -0.6292  0.4678
  180MOL0     C23660  -0.271  11.421   0.876 -0.2962  0.5558 -0.8769
  180MOL0     C23661  -0.307  11.289   0.886 -0.5466 -0.4181 -0.6075
  180MOL0     C23662  -0.224  11.183   0.851 -0.5793 -0.1732  0.1533
  180MOL0     O23663  -0.271  11.056   0.878 -0.0002  1.0736 -0.9410
  180MOL0     C23664  -0.177  10.946   0.861  0.1118 -0.1857 -0.7948
  180MOL0     C23665  -0.236  10.820   0.910  0.9201  0.8391 -0.6596
  180MOL0     C23666  -0.294  10.723   0.810  0.8110  0.3362 -0.0681
  180MOL0     C23667  -0.366  10.601   0.865 -0.7216 -0.2918  0.2126
  180MOL0     C23668  -0.454  10.535   0.763 -0.4432 -0.2727  0.3001
  180MOL0     C23669  -0.612  10.544   0.796 -0.9830  0.3683  0.1568
  180MOL0     C23670  -0.667  10.400   0.821  1.0277 -0.3855 -0.4920
  180MOL0     C23671  -0.796  10.382   0.886  0.2536 -0.1242 -0.1791
  180MOL0    Cl23672  -0.833  10.199   0.895  0.1942  0.0311 -0.1712
  180MOL0     C23673  -0.098  11.217   0.813 -0.0241  0.5758 -0.4617
  180MOL0     C23674  -0.057  11.349   0.794  0.3447 -0.0988 -0.9781
  180MOL0     O23675  -0.127  11.534   0.559  0.3285  0.6513  0.0111
  180MOL0     C23676  -0.044  11.839   0.707 -0.6419  1.0297 -0.4350
  180MOL0     C23677   0.027  11.952   0.688  0.4995 -0.1140 -0.6913
  180MOL0     N23678   0.526  12.323   0.222 -0.8083 -0.2931 -0.1286
  180MOL0     N23679   0.642  12.368   0.260  0.2440  0.1788 -0.1633
  180MOL0     C23680   0.844  11.309   0.414  0.5252 -0.1841 -0.4000
  180MOL0     C23681   0.781  11.209   0.332  0.4902  0.4089 -0.5852
  180MOL0     C23682   0.420  11.042   0.102 -0.0368 -0.3655  0.0928
  180MOL0     C23683   0.492  11.021  -0.025  0.9252 -0.0997 -0.4047
  180MOL0     C23684   0.442  10.926  -0.111  0.1532 -1.0952  0.2368
  180MOL0     C23685   0.322  10.855  -0.086 -0.6372  0.0092  0.0250
  180MOL0     O23686   0.290  10.751  -0.172 -0.1534  0.5482  0.0308
  180MOL0     C23687   0.159  10.695  -0.192  0.4057  0.0268 -0.2894
  180MOL0     C23688   0.108  10.722  -0.331 -0.2363  1.0550  0.5735
  180MOL0     C23689  -0.021  10.646  -0.347  0.1751  1.0432 -0.1937
  180MOL0     C23690  -0.097  10.664  -0.484 -0.8454  0.5937  0.4609
  180MOL0     C23691  -0.166  10.792  -0.506 -0.3127  0.2280 -0.0346
  180MOL0     C23692  -0.235  10.893  -0.502  0.4325 -0.0066  0.9860
  180MOL0     C23693   0.253  10.890   0.029 -0.5962 -0.5508 -0.2853
  180MOL0     C23694   0.300  10.981   0.120 -0.2624  0.2960 -0.2546
  180MOL0     H23695   0.552  11.408   0.191  1.4374 -0.6779 -1.4123
  180MOL0     H23696   0.650  11.575   0.312  2.2521  0.8443  0.0944
  180MOL0     H23697   0.798  11.707   0.539  0.0257 -0.2610 -0.7671
  180MOL0     H23698   0.915  11.667   0.403  0.9018 -1.3611  0.1312
  180MOL0     H23699   1.066  11.595   0.610  1.6647  1.4199  4.7430
  180MOL0     H23700   0.970  11.687   0.704  1.1991 -2.6177 -0.1762
  180MOL0     H23701   1.114  11.777   0.468 -2.7918 -3.5227  0.1680
  180MOL0     H23702   1.170  11.812   0.629 -0.8495  0.9066  0.1677
  180MOL0     H23703   0.903  11.911   0.493  1.6605 -2.8038 -1.2496
  180MOL0     H23704   0.945  11.942   0.665  0.9066 -2.6161  1.7501
  180MOL0     H23705   1.115  12.038   0.429  4.4456 -0.1980  2.6777
  180MOL0     H23706   1.153  12.060   0.592  2.9789 -0.5570 -2.3918
  180MOL0     H23707   1.065  12.278   0.513  2.6453 -2.1557 -0.6698
  180MOL0     H23708   0.972  12.218   0.647  1.0049 -2.5967  1.9045
  180MOL0     H23709   0.895  12.163   0.338 -3.4651  1.2736 -0.7371
  180MOL0     H23710   0.818  12.111   0.487  1.6515  0.1603  0.6754
  180MOL0     H23711   0.886  12.394   0.385 -1.1902  2.1254  1.4475
  180MOL0     H23712   0.802  12.368   0.544  0.4680 -1.3057  0.6525
  180MOL0     H23713   0.588  12.211   0.530  3.7077  0.9040  0.3038
  180MOL0     H23714   0.355  12.103   0.385  0.7388 -0.2554 -1.5027
  180MOL0     H23715   0.312  12.179   0.242  0.7441 -1.4613 -0.2237
  180MOL0     H23716   0.149  12.324   0.384 -0.5724 -0.9108  2.8404
  180MOL0     H23717   0.287  12.424   0.394 -2.0839  1.6263  0.6567
  180MOL0     H23718   0.352  12.311   0.609  2.4148  1.7642 -1.8293
  180MOL0     H23719   0.213  12.407   0.612 -0.0062  1.8683 -3.1071
  180MOL0     H23720   0.053  12.224   0.586  0.3213  1.8833 -0.5582
  180MOL0     H23721   0.158  12.186   0.723  0.3593  1.7554  0.0845
  180MOL0     H23722   0.189  11.880   0.407  2.2359  4.6615  2.3219
  180MOL0     H23723   0.051  11.673   0.426  2.1089 -0.8285  0.4473
  180MOL0     H23724  -0.327  11.506   0.913  0.4595  0.9060 -0.5060
  180MOL0     H23725  -0.401  11.259   0.933 -0.2645  1.1541  1.0978
  180MOL0     H23726  -0.081  10.959   0.911 -0.0690 -0.4487 -0.3738
  180MOL0     H23727  -0.157  10.939   0.754 -2.3065  0.7003 -1.3661
  180MOL0     H23728  -0.313  10.855   0.980  0.8285  1.4482 -1.0547
  180MOL0     H23729  -0.159  10.767   0.966 -0.2179  0.1554  0.3121
  180MOL0     H23730  -0.215  10.692   0.741 -1.4015 -0.2828 -2.5027
  180MOL0     H23731  -0.373  10.771   0.751 -1.8775 -2.1408  1.2429
  180MOL0     H23732  -0.292  10.528   0.899 -1.3523 -0.1178  2.0808
  180MOL0     H23733  -0.424  10.631   0.953 -0.4317 -1.0960  0.6925
  180MOL0     H23734  -0.410  10.440   0.730  0.0670 -0.7994  2.3850
  180MOL0     H23735  -0.438  10.591   0.670  4.1386 -0.8240  0.5257
  180MOL0     H23736  -0.665  10.603   0.721  1.8930 -0.7116 -2.9789
  180MOL0     H23737  -0.624  10.593   0.894  0.5516 -3.5780  2.5827
  180MOL0     H23738  -0.689  10.361   0.721 -5.3961 -2.0487  1.1071
  180MOL0     H23739  -0.588  10.334   0.859  0.2299 -1.6578 -0.9584
  180MOL0     H23740  -0.877  10.434   0.835 -1.1954 -2.0208  0.0937
  180MOL0     H23741  -0.795  10.424   0.987 -2.1451  0.7346 -0.4580
  180MOL0     H23742  -0.026  11.136   0.805  2.0576  2.3535 -0.7876
  180MOL0     H23743   0.040  11.364   0.749 -1.0558  1.8162 -3.6536
  180MOL0     H23744  -0.090  11.831   0.805  1.7447 -1.6886  0.5782
  180MOL0     H23745   0.020  12.027   0.766  4.3475 -0.4803  0.2313
  180MOL0     H23746   0.922  11.291   0.487  0.3420  0.0233 -0.1501
  180MOL0     H23747   0.821  11.109   0.344  0.6442  0.1415 -2.8405
  180MOL0     H23748   0.590  11.065  -0.044  0.7674  1.2801  1.5973
  180MOL0     H23749   0.487  10.913  -0.208  2.0787  1.6957  0.6501
  180MOL0     H23750   0.081  10.730  -0.123  1.6673 -3.8437  3.5307
  180MOL0     H23751   0.162  10.586  -0.192 -3.9021 -0.3529  3.0983
  180MOL0     H23752   0.102  10.825  -0.366  3.1850  0.7052 -1.4807
  180MOL0     H23753   0.185  10.682  -0.398 -0.6767  1.3579 -0.1235
  180MOL0     H23754  -0.098  10.669  -0.273 -1.6727 -1.4272 -1.1770
  180MOL0     H23755  -0.001  10.539  -0.335 -3.5001  0.3095  0.5512
  180MOL0     H23756  -0.030  10.631  -0.564  0.6729 -1.1270  2.3238
  180MOL0     H23757  -0.168  10.582  -0.475  2.5452 -2.5602  0.5234
  180MOL0     H23758  -0.267  10.995  -0.508  0.8401  0.0780  0.0480
  180MOL0     H23759   0.173  10.829   0.071  0.6448 -1.9768  0.0968
  180MOL0     H23760   0.244  10.991   0.212 -0.1675  0.1810 -0.1845
  181MOL0     O23761   8.194  11.442   1.161 -0.5122  0.3864 -0.1354
  181MOL0     C23762   8.095  11.492   1.129 -0.1773  0.1153 -0.3946
  181MOL0     O23763   7.978  11.428   1.101  0.6875  0.7889 -0.1562
  181MOL0     C23764   7.958  11.295   1.126  0.1786  0.8255  0.5903
  181MOL0     C23765   8.038  11.210   1.211  0.2281 -0.2839 -0.0905
  181MOL0     C23766   8.032  11.073   1.205  0.0184 -0.0271  0.4602
  181MOL0     C23767   7.934  11.017   1.118 -0.7767 -0.4603  1.7524
  181MOL0     O23768   7.899  10.882   1.113  0.2730 -0.4936  0.0596
  181MOL0     C23769   7.963  10.795   1.205  0.2017 -0.5646  0.1824
  181MOL0     C23770   7.884  10.667   1.215 -0.1166 -0.3231 -0.1911
  181MOL0     C23771   7.962  10.541   1.258  0.0268 -0.0843  0.0769
  181MOL0     C23772   8.017  10.545   1.407 -0.2997  0.1873  0.4041
  181MOL0     C23773   8.111  10.429   1.440  0.3283 -0.0997  0.9591
  181MOL0     C23774   8.164  10.431   1.588 -0.1244  0.7994 -0.8623
  181MOL0     C23775   8.237  10.568   1.629 -0.2547  0.0387  0.4562
  181MOL0     C23776   8.287  10.569   1.770  1.3772 -0.0585 -0.3116
  181MOL0     N23777   8.352  10.688   1.811  1.1148 -0.2254  0.2771
  181MOL0     C23778   8.474  10.732   1.766 -0.0492  0.3539  0.6185
  181MOL0     C23779   8.470  10.872   1.797  0.4328  0.3909  0.3580
  181MOL0     C23780   8.553  10.980   1.736  0.3067  0.4456 -0.7989
  181MOL0     C23781   8.676  11.013   1.821 -0.1093  0.2514 -0.0338
  181MOL0     C23782   8.651  11.126   1.938  0.1363 -0.5415  0.4621
  181MOL0     C23783   8.752  11.134   2.049 -0.6329  0.0419 -0.1616
  181MOL0     O23784   8.707  11.036   2.151  0.8348 -1.0067 -0.2309
  181MOL0     C23785   8.795  10.958   2.222 -0.2024  0.1729 -0.0844
  181MOL0     C23786   8.931  10.958   2.201  0.9061  0.4512  0.9359
  181MOL0     C23787   9.002  10.862   2.266 -0.6474 -0.3399  0.4290
  181MOL0     C23788   8.949  10.778   2.359 -0.2199 -0.3747 -0.1932
  181MOL0     C23789   9.038  10.675   2.417 -1.2940 -0.2497 -0.7274
  181MOL0     O23790   9.134  10.621   2.331 -0.1593 -0.5659  0.2665
  181MOL0     C23791   9.229  10.535   2.383 -0.0434 -0.7016  0.1971
  181MOL0     C23792   9.272  10.531   2.515  0.3656 -0.1842  0.4255
  181MOL0     C23793   9.384  10.456   2.545  0.2584 -0.0034  0.3388
  181MOL0     C23794   9.453  10.385   2.449 -0.7459  0.5566 -0.1062
  181MOL0     O23795   9.563  10.306   2.473 -0.0315  0.3384 -0.5536
  181MOL0     C23796   9.626  10.311   2.610  0.3810 -0.0913  0.6303
  181MOL0     C23797   9.776  10.267   2.599  0.7695 -0.5242 -0.4582
  181MOL0     C23798   9.846  10.226   2.728  0.2785 -0.5698 -0.0393
  181MOL0     C23799   9.840  10.077   2.750 -0.3285  0.8857  0.6649
  181MOL0     C23800   9.937  10.030   2.859 -0.3774 -0.1604  0.7255
  181MOL0     C23801   9.916  10.088   3.000 -1.4737  0.2771 -0.0231
  181MOL0     C23802   9.814  10.018   3.088 -0.0744 -0.3105  0.4025
  181MOL0     C23803   9.858   9.885   3.146 -0.4229  0.5524 -0.1079
  181MOL0    Cl23804   9.728   9.798   3.216  0.2380 -0.0029  0.2901
  181MOL0     C23805   9.402  10.383   2.316 -0.0493  0.8325  0.2677
  181MOL0     C23806   9.294  10.462   2.283  0.5149 -0.4518 -0.0038
  181MOL0     O23807   9.013  10.638   2.533 -0.1775  0.1933 -0.5624
  181MOL0     C23808   8.810  10.794   2.391 -0.3804  0.4684  0.2485
  181MOL0     C23809   8.729  10.879   2.312  0.1643 -0.4121 -0.0855
  181MOL0     N23810   8.366  10.895   1.887  0.6671  0.1812  0.1232
  181MOL0     N23811   8.290  10.786   1.889 -0.4378 -0.1292  0.1811
  181MOL0     C23812   7.863  11.093   1.023  0.2694  0.6333  0.4949
  181MOL0     C23813   7.881  11.230   1.027  0.7285  0.2902 -0.1395
  181MOL0     C23814   8.094  11.642   1.120 -0.2041  0.2011 -0.2403
  181MOL0     C23815   7.985  11.730   1.176 -0.7034  0.3820  0.2064
  181MOL0     C23816   7.995  11.872   1.158  0.0656  0.2698  0.2576
  181MOL0     C23817   8.117  11.929   1.111  0.8180  0.8189  0.0575
  181MOL0     O23818   8.131  12.067   1.113  0.7714 -0.1296  0.2562
  181MOL0     C23819   8.260  12.126   1.107 -0.0143 -0.0932 -0.3681
  181MOL0     C23820   8.268  12.274   1.073  0.2263  0.0218  0.8822
  181MOL0     C23821   8.409  12.321   1.076 -0.6151  0.2116  0.0202
  181MOL0     C23822   8.419  12.473   1.039 -0.4187  0.7178 -0.0805
  181MOL0     C23823   8.359  12.568   1.133  0.0926  0.1091 -0.3239
  181MOL0     C23824   8.295  12.640   1.209 -0.0058 -0.2514  0.3391
  181MOL0     C23825   8.218  11.838   1.064  0.9035 -0.1693  0.0287
  181MOL0     C23826   8.209  11.699   1.065  0.5994 -0.0625 -0.5899
  181MOL0     H23827   8.125  11.254   1.259  0.0818  0.3056 -0.3677
  181MOL0     H23828   8.106  11.023   1.266  2.7830 -0.4825 -2.9225
  181MOL0     H23829   7.970  10.850   1.299 -0.2462 -1.3659  0.6869
  181MOL0     H23830   8.067  10.775   1.177 -0.0246 -0.9537 -0.4088
  181MOL0     H23831   7.838  10.648   1.118 -1.6314  2.5858 -0.1812
  181MOL0     H23832   7.803  10.683   1.287 -1.2236 -0.4479 -1.3833
  181MOL0     H23833   8.041  10.540   1.183 -0.8979  5.8640 -1.5282
  181MOL0     H23834   7.895  10.455   1.248 -1.0527  0.8050 -0.5531
  181MOL0     H23835   8.066  10.640   1.429  1.1043 -0.7941  1.7300
  181MOL0     H23836   7.936  10.523   1.477  1.0430  1.9915  2.6684
  181MOL0     H23837   8.195  10.441   1.371 -0.9324 -2.6998 -1.2000
  181MOL0     H23838   8.057  10.338   1.414 -1.2493  1.4422 -1.5244
  181MOL0     H23839   8.235  10.348   1.581 -0.0296  0.8003 -0.0475
  181MOL0     H23840   8.086  10.407   1.660 -0.2822 -2.9677 -2.0735
  181MOL0     H23841   8.321  10.585   1.562  0.9511  2.9147  2.4726
  181MOL0     H23842   8.168  10.650   1.609  0.2669  1.1891  2.9068
  181MOL0     H23843   8.360  10.488   1.773  1.5138  0.0493 -0.6632
  181MOL0     H23844   8.208  10.538   1.840 -0.0261  4.6425  0.5245
  181MOL0     H23845   8.558  10.679   1.722  0.1075  1.3294 -0.2991
  181MOL0     H23846   8.496  11.073   1.737 -0.2081  0.1315 -0.4326
  181MOL0     H23847   8.575  10.952   1.632  2.3557 -2.3598  0.2292
  181MOL0     H23848   8.752  11.050   1.751 -0.4638 -2.3324 -1.9172
  181MOL0     H23849   8.717  10.918   1.855  1.9568  1.4829  1.1389
  181MOL0     H23850   8.642  11.222   1.885 -2.8436 -0.6067  0.7219
  181MOL0     H23851   8.556  11.100   1.984  0.9595 -1.2197  1.8223
  181MOL0     H23852   8.751  11.240   2.077  0.4149 -0.0529  0.3024
  181MOL0     H23853   8.848  11.099   2.011 -1.1261 -0.4398 -1.0026
  181MOL0     H23854   8.977  11.026   2.130 -3.1175 -0.2516 -2.7662
  181MOL0     H23855   9.108  10.850   2.249 -0.7547 -0.9152  0.1566
  181MOL0     H23856   9.223  10.586   2.594 -0.9102  0.1680 -0.5836
  181MOL0     H23857   9.402  10.454   2.652 -0.8117 -0.4992  0.5241
  181MOL0     H23858   9.565  10.245   2.673 -2.0779  1.4620 -0.0010
  181MOL0     H23859   9.612  10.412   2.649  2.1296  0.3541  0.2120
  181MOL0     H23860   9.834  10.349   2.555 -0.0792  0.2379 -0.1911
  181MOL0     H23861   9.789  10.184   2.528  3.0540 -1.1042  0.5410
  181MOL0     H23862   9.788  10.274   2.808 -3.3343 -3.3605 -0.7269
  181MOL0     H23863   9.949  10.263   2.725  1.1245 -2.8414 -1.3673
  181MOL0     H23864   9.743  10.043   2.789  1.1579 -1.4543  2.5930
  181MOL0     H23865   9.868  10.035   2.654 -2.5596 -2.1501  1.1726
  181MOL0     H23866  10.037  10.055   2.820 -1.8477 -0.8221 -4.1691
  181MOL0     H23867   9.935   9.921   2.861  1.2406 -0.3832 -2.4493
  181MOL0     H23868   9.892  10.195   2.999 -2.1132  0.1370 -0.9874
  181MOL0     H23869  10.008  10.067   3.054 -2.0572  2.0901  1.8147
  181MOL0     H23870   9.789  10.077   3.177  0.7926 -1.4116  1.4055
  181MOL0     H23871   9.724  10.021   3.025  0.9984 -1.5621 -1.2623
  181MOL0     H23872   9.933   9.915   3.220  0.2497  0.0454 -0.5676
  181MOL0     H23873   9.914   9.828   3.072  0.9698 -1.7468  2.5194
  181MOL0     H23874   9.453  10.316   2.247  2.3624  1.0417  1.7565
  181MOL0     H23875   9.258  10.450   2.181 -0.5767 -0.3680  0.3522
  181MOL0     H23876   8.769  10.748   2.480  0.1710  1.4238  1.0285
  181MOL0     H23877   8.622  10.872   2.331 -0.1956  0.9469 -1.4165
  181MOL0     H23878   7.804  11.040   0.949  1.5306  0.4921 -0.4304
  181MOL0     H23879   7.833  11.291   0.952 -0.9005  0.7051  1.1788
  181MOL0     H23880   7.898  11.693   1.230 -0.0878 -2.0427 -0.3736
  181MOL0     H23881   7.925  11.949   1.189  2.4759  1.4648  3.2093
  181MOL0     H23882   8.316  12.080   1.025 -1.3117  0.1185 -1.3902
  181MOL0     H23883   8.309  12.113   1.205  0.7399 -1.0993 -0.8612
  181MOL0     H23884   8.224  12.294   0.975 -1.5843  2.4514  2.0725
  181MOL0     H23885   8.211  12.333   1.145  0.5876  2.5628 -0.7863
  181MOL0     H23886   8.481  12.261   1.020 -2.2333  0.2580 -2.2323
  181MOL0     H23887   8.436  12.304   1.181  0.1312  1.0585 -0.0213
  181MOL0     H23888   8.521  12.503   1.014 -0.5633  0.9575 -0.3807
  181MOL0     H23889   8.364  12.490   0.947 -0.1515  3.7738  0.1988
  181MOL0     H23890   8.240  12.704   1.275 -4.6429 -3.3030 -0.0696
  181MOL0     H23891   8.309  11.883   1.025 -0.2557 -0.9480 -4.0087
  181MOL0     H23892   8.302  11.656   1.030  2.1096  3.6757 -1.7077
  182MOL0     O23893   7.862   7.977   9.084  0.2675 -0.7802 -0.9240
  182MOL0     C23894   7.842   7.867   9.128  0.6140  0.2449  1.0728
  182MOL0     O23895   7.772   7.776   9.053 -0.2067  0.3775 -0.5995
  182MOL0     C23896   7.727   7.810   8.932  0.6446 -0.2575 -0.3202
  182MOL0     C23897   7.772   7.746   8.808  0.3808  0.1660 -1.0042
  182MOL0     C23898   7.716   7.784   8.685  0.9054 -0.8283  0.2772
  182MOL0     C23899   7.616   7.886   8.683  0.0346 -0.5640 -0.1091
  182MOL0     O23900   7.573   7.939   8.564 -0.4831 -0.2750 -0.0008
  182MOL0     C23901   7.437   7.895   8.550  0.5282 -0.1305 -0.4241
  182MOL0     C23902   7.383   7.944   8.422  0.6756 -0.0079 -0.3402
  182MOL0     C23903   7.389   8.101   8.405  0.1469  0.1602  0.4062
  182MOL0     C23904   7.270   8.173   8.468 -0.2564 -0.5142 -1.8446
  182MOL0     C23905   7.237   8.296   8.396  0.2797  0.3457  0.6651
  182MOL0     C23906   7.145   8.411   8.453 -0.3477 -0.0593 -0.2184
  182MOL0     C23907   7.137   8.518   8.340  0.0811  0.1095 -0.3320
  182MOL0     C23908   7.057   8.482   8.224 -0.2184  0.0033  0.0864
  182MOL0     N23909   6.919   8.528   8.232  0.4552 -0.4516  0.3024
  182MOL0     C23910   6.869   8.653   8.198  0.5559 -0.2037  1.3564
  182MOL0     C23911   6.733   8.640   8.191  0.0180  1.6091 -0.3638
  182MOL0     C23912   6.650   8.758   8.153  0.0858  0.2824  0.0031
  182MOL0     C23913   6.675   8.879   8.245 -0.0975 -0.4649 -0.0453
  182MOL0     C23914   6.616   8.854   8.382  0.5560  0.2939  0.7550
  182MOL0     C23915   6.682   8.950   8.477  0.2923  0.4426  1.2384
  182MOL0     O23916   6.817   8.928   8.505  0.0115 -0.0843 -0.2179
  182MOL0     C23917   6.871   9.007   8.606 -1.1554 -0.2996 -0.3525
  182MOL0     C23918   6.993   8.974   8.656  0.0010  1.3184 -0.7017
  182MOL0     C23919   7.052   9.043   8.769  0.1022  0.2439  0.6865
  182MOL0     C23920   6.995   9.154   8.822 -0.5740  1.3374  0.3686
  182MOL0     C23921   7.075   9.237   8.924  0.2426  1.2955 -0.2333
  182MOL0     O23922   7.207   9.209   8.930  0.3864 -1.2335  0.2618
  182MOL0     C23923   7.282   9.293   9.004  0.9370  0.0115 -0.2714
  182MOL0     C23924   7.363   9.383   8.941  0.4111  0.7387 -0.7366
  182MOL0     C23925   7.427   9.483   9.017  0.8143  0.2856 -0.1053
  182MOL0     C23926   7.422   9.484   9.159  0.1736 -0.5506 -0.0585
  182MOL0     O23927   7.478   9.587   9.231 -0.2636  0.1726  0.5859
  182MOL0     C23928   7.531   9.559   9.361 -0.2119  0.5742 -0.0391
  182MOL0     C23929   7.643   9.452   9.370  0.9989  0.9155 -0.6235
  182MOL0     C23930   7.691   9.441   9.513  0.7192 -1.0031 -0.3272
  182MOL0     C23931   7.832   9.382   9.528 -0.0732  0.1825 -0.2512
  182MOL0     C23932   7.891   9.377   9.669  0.3849 -1.0534 -0.1155
  182MOL0     C23933   7.912   9.519   9.730  0.0252 -0.6600 -0.4572
  182MOL0     C23934   7.973   9.492   9.867 -0.4119 -0.7691 -0.0872
  182MOL0     C23935   8.004   9.623   9.924  0.2529 -0.2447  0.0978
  182MOL0    Cl23936   8.079   9.590  10.092 -0.3713 -0.2620 -0.1039
  182MOL0     C23937   7.344   9.384   9.215 -0.4537  0.1550  0.0432
  182MOL0     C23938   7.268   9.295   9.142  0.0837  0.3075 -0.0750
  182MOL0     O23939   7.016   9.313   9.001  0.7371  0.3069 -0.2052
  182MOL0     C23940   6.873   9.197   8.774 -0.1732 -0.7949  0.2149
  182MOL0     C23941   6.807   9.123   8.669  0.2291  0.5560 -0.7265
  182MOL0     N23942   6.692   8.521   8.238  0.3490  0.1825  0.1393
  182MOL0     N23943   6.805   8.452   8.245  1.5185 -0.0799 -0.0534
  182MOL0     C23944   7.579   7.949   8.799  0.8312 -0.4823 -0.0527
  182MOL0     C23945   7.623   7.909   8.918 -1.0776  0.4419  0.1030
  182MOL0     C23946   7.879   7.844   9.268  0.8962 -0.9148 -0.0211
  182MOL0     C23947   7.945   7.940   9.347  1.3817  0.0792  0.2897
  182MOL0     C23948   7.985   7.922   9.477 -0.3456 -0.3129 -0.5158
  182MOL0     C23949   7.947   7.795   9.530 -0.2016 -0.6248 -1.6022
  182MOL0     O23950   7.970   7.767   9.660 -0.3592  0.7160 -0.5125
  182MOL0     C23951   7.929   7.875   9.752  1.1129 -0.0852  0.2789
  182MOL0     C23952   7.989   7.867   9.890  0.4116 -0.8014 -0.5006
  182MOL0     C23953   8.130   7.927   9.894 -0.7427  0.4381 -0.4842
  182MOL0     C23954   8.173   7.936  10.043  0.5310  0.5882  0.0279
  182MOL0     C23955   8.322   7.962  10.065  0.4883  0.5750  0.1174
  182MOL0     C23956   8.428   8.001  10.085  0.1651  0.5756  0.6973
  182MOL0     C23957   7.880   7.699   9.458 -0.5979 -0.7095 -0.0299
  182MOL0     C23958   7.858   7.726   9.330 -0.0803  0.5187  0.0996
  182MOL0     H23959   7.847   7.668   8.810 -0.0849 -0.4232  3.4072
  182MOL0     H23960   7.739   7.740   8.588  2.3887  2.5575 -1.0647
  182MOL0     H23961   7.384   7.949   8.630 -1.3449 -1.6037 -0.5911
  182MOL0     H23962   7.413   7.789   8.563 -2.2136  0.1243 -2.5412
  182MOL0     H23963   7.283   7.903   8.404  0.4300 -0.4295  1.6998
  182MOL0     H23964   7.446   7.899   8.345 -0.5069  0.3939 -1.5830
  182MOL0     H23965   7.385   8.118   8.297  2.7728 -0.9620  0.0618
  182MOL0     H23966   7.485   8.142   8.435  0.2831  1.5201 -1.6906
  182MOL0     H23967   7.178   8.114   8.478  1.2699 -2.6343  1.6208
  182MOL0     H23968   7.298   8.189   8.572  0.2789 -3.5289 -1.4384
  182MOL0     H23969   7.209   8.266   8.294  0.4738  4.2594 -0.6755
  182MOL0     H23970   7.333   8.346   8.381  0.6332 -1.2284 -4.3745
  182MOL0     H23971   7.195   8.454   8.540  3.3267  0.8159 -2.5414
  182MOL0     H23972   7.048   8.382   8.494  0.4379  0.6464  2.3161
  182MOL0     H23973   7.098   8.608   8.389  0.4789 -0.6899  1.5375
  182MOL0     H23974   7.234   8.557   8.307 -0.5445 -1.3179 -4.4252
  182MOL0     H23975   7.064   8.374   8.205 -0.9432 -0.3980  1.9142
  182MOL0     H23976   7.098   8.536   8.139  0.5478  0.3372  0.6559
  182MOL0     H23977   6.918   8.747   8.177 -1.1642  0.5182  0.3291
  182MOL0     H23978   6.544   8.737   8.143 -0.1240  1.6762 -0.9655
  182MOL0     H23979   6.673   8.791   8.051 -0.1085  1.9197  0.4538
  182MOL0     H23980   6.639   8.974   8.204  0.1139 -0.9393 -1.3885
  182MOL0     H23981   6.783   8.892   8.247 -0.0603  0.8127 -3.3512
  182MOL0     H23982   6.509   8.873   8.373  0.0069 -2.5974  0.1667
  182MOL0     H23983   6.636   8.753   8.419  1.7488  0.2529  0.0507
  182MOL0     H23984   6.620   8.948   8.567 -4.6566  3.4553 -1.6388
  182MOL0     H23985   6.672   9.055   8.449  0.7514  0.0125 -0.7240
  182MOL0     H23986   7.054   8.889   8.629  1.4784  2.8202 -2.3448
  182MOL0     H23987   7.150   9.006   8.799 -0.0985  1.6138  3.3346
  182MOL0     H23988   7.374   9.374   8.833  0.8328  1.3177 -0.7454
  182MOL0     H23989   7.493   9.555   8.970  4.4293 -2.4458  0.2842
  182MOL0     H23990   7.449   9.542   9.431  1.1212 -2.0944  0.9987
  182MOL0     H23991   7.577   9.654   9.392 -0.3293  1.0569 -1.2828
  182MOL0     H23992   7.721   9.486   9.301  1.6701  0.3656 -0.1527
  182MOL0     H23993   7.613   9.354   9.330  2.6068 -1.1181  2.7217
  182MOL0     H23994   7.616   9.388   9.573  1.3054 -2.0260 -0.4808
  182MOL0     H23995   7.689   9.541   9.556  1.5726 -1.4471  0.8080
  182MOL0     H23996   7.835   9.282   9.486  0.9280  1.3718 -3.2859
  182MOL0     H23997   7.895   9.457   9.479 -1.4039  1.6265  0.1341
  182MOL0     H23998   7.987   9.326   9.652 -0.0738 -1.9550 -0.0377
  182MOL0     H23999   7.828   9.315   9.733 -2.1450  1.4296 -0.0157
  182MOL0     H24000   7.812   9.561   9.719 -0.8327 -2.8977 -2.0599
  182MOL0     H24001   7.972   9.588   9.670 -0.8831  2.6732  2.1749
  182MOL0     H24002   7.906   9.436   9.933  1.8859 -1.7246  1.5337
  182MOL0     H24003   8.052   9.419   9.848 -2.5553 -3.7996  1.7156
  182MOL0     H24004   7.915   9.687   9.924  1.7838  2.0205 -0.5242
  182MOL0     H24005   8.072   9.663   9.848  1.4377 -1.9248  0.2106
  182MOL0     H24006   7.318   9.398   9.320  1.2189  1.2388  0.3620
  182MOL0     H24007   7.204   9.232   9.203 -0.4690 -2.9770 -3.6355
  182MOL0     H24008   6.844   9.293   8.816 -1.8257 -1.7502  1.3753
  182MOL0     H24009   6.711   9.157   8.629 -0.2006 -0.6017 -0.7176
  182MOL0     H24010   7.511   8.034   8.801  1.9942  0.5246 -1.1258
  182MOL0     H24011   7.569   7.952   9.002 -3.0972 -1.6465 -0.0561
  182MOL0     H24012   7.971   8.037   9.304  1.5542 -0.6365 -1.2760
  182MOL0     H24013   8.043   7.997   9.530 -1.7761 -0.7350  1.7697
  182MOL0     H24014   7.821   7.893   9.757  1.6110  3.2448  1.3598
  182MOL0     H24015   7.968   7.969   9.714  4.1846 -2.3237 -2.6874
  182MOL0     H24016   7.928   7.909   9.970 -0.7893 -2.3027 -0.5719
  182MOL0     H24017   7.995   7.766   9.932 -0.3233 -1.2716 -1.4552
  182MOL0     H24018   8.138   8.027   9.851  1.4965  0.8949  0.8598
  182MOL0     H24019   8.200   7.863   9.840  1.1248 -0.1305  2.4151
  182MOL0     H24020   8.120   8.018  10.091 -3.4622 -1.6547 -0.1756
  182MOL0     H24021   8.146   7.841  10.087  0.9074  0.1775 -0.6020
  182MOL0     H24022   8.531   8.018  10.108  0.0008  1.3948  0.8467
  182MOL0     H24023   7.858   7.597   9.488 -1.5717 -0.7720 -0.9168
  182MOL0     H24024   7.818   7.652   9.260 -1.2072  1.4875 -0.3193
  183MOL0     O24025   5.962   8.714   7.843 -0.2684  0.1193  0.1487
  183MOL0     C24026   5.852   8.724   7.798 -0.7140  0.7228  0.0751
  183MOL0     O24027   5.782   8.843   7.765 -0.0683  0.4809 -0.1133
  183MOL0     C24028   5.849   8.956   7.763  0.2594 -0.6031 -0.6497
  183MOL0     C24029   5.904   9.027   7.877 -0.4715 -0.3935 -0.1158
  183MOL0     C24030   5.960   9.160   7.869  0.0535  0.7419  0.9554
  183MOL0     C24031   5.954   9.233   7.748  0.4032  0.1308  0.6869
  183MOL0     O24032   6.006   9.349   7.724  0.2043 -1.1515  0.2582
  183MOL0     C24033   6.028   9.432   7.835 -0.3437  0.0900  0.7642
  183MOL0     C24034   6.025   9.575   7.772  0.3338  0.6064 -0.1051
  183MOL0     C24035   6.144   9.608   7.694  0.4286  0.0363  0.5705
  183MOL0     C24036   6.132   9.745   7.625 -1.2276 -0.2082  0.1237
  183MOL0     C24037   6.251   9.738   7.521 -0.5182 -0.2270 -0.1356
  183MOL0     C24038   6.394   9.717   7.564 -0.3060  1.6371 -0.1797
  183MOL0     C24039   6.487   9.707   7.439 -0.7840  0.7999 -0.6528
  183MOL0     C24040   6.568   9.575   7.418 -0.1098 -0.5537 -0.4002
  183MOL0     N24041   6.459   9.471   7.387 -0.7418 -0.6927  0.5603
  183MOL0     C24042   6.435   9.364   7.467  0.5697 -0.1246  0.6607
  183MOL0     C24043   6.327   9.310   7.417  0.0566  0.5856  0.4068
  183MOL0     C24044   6.246   9.194   7.466  0.0631  1.0809  1.1946
  183MOL0     C24045   6.278   9.057   7.390 -0.6110  0.6374  0.0143
  183MOL0     C24046   6.168   8.959   7.431 -0.1309  0.4114  1.2754
  183MOL0     C24047   6.204   8.820   7.391  0.0089 -0.3723  0.2509
  183MOL0     O24048   6.116   8.730   7.445 -0.8696  0.0047 -0.5461
  183MOL0     C24049   6.099   8.608   7.379  0.6607  0.3637 -0.8274
  183MOL0     C24050   6.155   8.558   7.259 -0.2543  0.4157 -0.5416
  183MOL0     C24051   6.118   8.428   7.214 -0.8507  0.4181  0.2753
  183MOL0     C24052   6.038   8.341   7.290 -0.0451 -1.1515  0.0479
  183MOL0     C24053   6.007   8.204   7.242  1.2464 -0.3833 -0.6968
  183MOL0     O24054   5.895   8.141   7.291 -0.4803  0.0524 -0.2405
  183MOL0     C24055   5.840   8.035   7.223 -0.0001 -0.2085  0.2086
  183MOL0     C24056   5.733   7.977   7.292 -0.7851 -0.1153 -0.2174
  183MOL0     C24057   5.684   7.849   7.250  0.1768  0.2179 -0.4434
  183MOL0     C24058   5.735   7.790   7.126  0.6650 -0.2878  0.0138
  183MOL0     O24059   5.703   7.665   7.082  0.4278 -0.3177 -0.0804
  183MOL0     C24060   5.567   7.612   7.088  0.7362 -0.2305 -0.6310
  183MOL0     C24061   5.585   7.481   7.170 -0.6859 -0.8212  0.4975
  183MOL0     C24062   5.456   7.397   7.200 -1.2884  0.2237  0.0863
  183MOL0     C24063   5.335   7.492   7.229 -0.3346  0.1824  0.1723
  183MOL0     C24064   5.219   7.409   7.278  1.0860  0.1262 -0.5164
  183MOL0     C24065   5.150   7.310   7.178 -1.1470  0.5667  0.3543
  183MOL0     C24066   5.014   7.271   7.230  0.1470  0.4958 -0.3529
  183MOL0     C24067   5.028   7.144   7.312  0.1409  0.1255 -0.4750
  183MOL0    Cl24068   5.094   7.003   7.229  0.3216 -0.2411  0.3200
  183MOL0     C24069   5.820   7.863   7.050 -0.3363  0.1114  0.0709
  183MOL0     C24070   5.880   7.983   7.097  0.5957 -0.7299 -0.4051
  183MOL0     O24071   6.098   8.155   7.174  0.5813 -0.2158  0.0756
  183MOL0     C24072   5.988   8.397   7.412 -0.1386  0.8064  0.3805
  183MOL0     C24073   6.018   8.524   7.453  0.0709  1.6585  0.3317
  183MOL0     N24074   6.285   9.390   7.306 -0.4577 -0.6994  0.6843
  183MOL0     N24075   6.368   9.489   7.289  0.4711  0.0843  0.1551
  183MOL0     C24076   5.903   9.159   7.640  1.7222 -0.2228  1.0624
  183MOL0     C24077   5.858   9.032   7.646 -0.4970 -0.6043 -0.3289
  183MOL0     C24078   5.770   8.599   7.793 -0.0071  0.0470  0.3212
  183MOL0     C24079   5.828   8.470   7.799  0.5136  0.7236 -0.2185
  183MOL0     C24080   5.752   8.350   7.813  1.2225 -0.0227 -0.4654
  183MOL0     C24081   5.608   8.354   7.814  0.9434  0.2433 -0.4267
  183MOL0     O24082   5.525   8.251   7.822 -0.4368 -0.2316  0.5278
  183MOL0     C24083   5.592   8.120   7.834 -1.1175 -0.2945 -0.6237
  183MOL0     C24084   5.482   8.022   7.869 -0.5569  0.4858 -0.0439
  183MOL0     C24085   5.382   7.974   7.760 -0.1963 -0.4765  0.3547
  183MOL0     C24086   5.271   7.916   7.834  0.5765  0.9039 -0.8118
  183MOL0     C24087   5.158   7.896   7.744 -0.1861  0.0303 -1.3923
  183MOL0     C24088   5.054   7.860   7.687  0.1402 -0.8107  0.5653
  183MOL0     C24089   5.553   8.489   7.811 -0.7810  0.4633  0.6098
  183MOL0     C24090   5.628   8.605   7.788  0.9202  0.5850 -1.2664
  183MOL0     H24091   5.901   8.971   7.969 -1.6171  0.6044  0.4841
  183MOL0     H24092   6.012   9.207   7.951  1.1802  3.2750 -1.0508
  183MOL0     H24093   6.131   9.414   7.870  0.4483  0.4115 -1.2499
  183MOL0     H24094   5.946   9.427   7.907 -1.6769 -1.0946 -0.7741
  183MOL0     H24095   6.024   9.653   7.849  1.3787 -0.4597  1.0293
  183MOL0     H24096   5.937   9.583   7.706 -0.0862 -0.8892  0.2340
  183MOL0     H24097   6.156   9.540   7.609 -0.6174  2.1997 -1.3847
  183MOL0     H24098   6.235   9.613   7.755 -1.4463  0.6115  3.5216
  183MOL0     H24099   6.032   9.766   7.584 -1.4589  0.5531  1.0210
  183MOL0     H24100   6.138   9.830   7.695 -2.8726 -0.4855  0.6441
  183MOL0     H24101   6.240   9.837   7.475  2.5173  1.4671  2.3751
  183MOL0     H24102   6.235   9.664   7.442  0.0868  0.5860 -1.0522
  183MOL0     H24103   6.394   9.615   7.604  1.2221  2.4768  2.2202
  183MOL0     H24104   6.432   9.794   7.632  1.9067  3.2878 -3.0754
  183MOL0     H24105   6.422   9.729   7.354 -1.6003 -0.8839 -0.5180
  183MOL0     H24106   6.558   9.790   7.438 -1.2038  1.1926  0.7149
  183MOL0     H24107   6.623   9.558   7.512 -1.2684  1.0671  0.6128
  183MOL0     H24108   6.640   9.584   7.336  0.4464  0.4305  0.1695
  183MOL0     H24109   6.490   9.334   7.555  0.9911 -1.2721  0.0284
  183MOL0     H24110   6.139   9.215   7.457  0.1011  1.2025  1.0074
  183MOL0     H24111   6.269   9.179   7.571  1.1921  0.7809  0.9213
  183MOL0     H24112   6.371   9.013   7.429  1.1670  1.7892 -2.6217
  183MOL0     H24113   6.273   9.065   7.281  0.0469  2.0202  0.0755
  183MOL0     H24114   6.154   8.961   7.539 -3.6741 -1.8391  1.0068
  183MOL0     H24115   6.079   8.985   7.372  0.0384 -0.2509  0.7093
  183MOL0     H24116   6.304   8.808   7.435 -0.8625  0.1549  2.5115
  183MOL0     H24117   6.208   8.815   7.282 -0.0752 -1.2654  0.2806
  183MOL0     H24118   6.206   8.626   7.191  0.8576  0.4825  0.3280
  183MOL0     H24119   6.153   8.402   7.114 -0.3174  2.9105 -0.2582
  183MOL0     H24120   5.712   8.022   7.389  0.9897 -2.0436  1.1550
  183MOL0     H24121   5.626   7.794   7.323  1.6542 -0.7738  0.0345
  183MOL0     H24122   5.512   7.588   6.997  1.8486 -5.5363 -0.2017
  183MOL0     H24123   5.503   7.683   7.142  0.5856  0.2816 -1.4739
  183MOL0     H24124   5.616   7.522   7.267 -2.3936  0.6699  0.4648
  183MOL0     H24125   5.664   7.416   7.131 -0.5948 -0.6801  0.4467
  183MOL0     H24126   5.481   7.336   7.288 -2.8253 -0.1963  0.2654
  183MOL0     H24127   5.432   7.325   7.122  1.4087 -0.1043 -0.5367
  183MOL0     H24128   5.367   7.567   7.302  1.2170  2.5576 -2.7511
  183MOL0     H24129   5.298   7.551   7.145  1.3952  2.0112  0.6196
  183MOL0     H24130   5.140   7.474   7.318  1.9557  1.6400 -1.1821
  183MOL0     H24131   5.250   7.340   7.356 -2.1680  1.1743  1.9074
  183MOL0     H24132   5.207   7.217   7.167 -3.2022 -1.1433  2.9304
  183MOL0     H24133   5.136   7.335   7.072 -0.7349 -5.9134 -1.7206
  183MOL0     H24134   4.980   7.347   7.301 -1.9235  1.3279 -2.1012
  183MOL0     H24135   4.941   7.250   7.151 -0.1225  0.7165 -0.1662
  183MOL0     H24136   4.931   7.129   7.359  0.5045  1.3655  0.7467
  183MOL0     H24137   5.091   7.177   7.395 -1.6931  0.8981  0.6556
  183MOL0     H24138   5.836   7.819   6.952 -0.0962 -1.7452  0.9074
  183MOL0     H24139   5.963   8.024   7.041 -0.5049  2.2320 -0.0361
  183MOL0     H24140   5.927   8.328   7.469  0.9669  0.2220  0.8805
  183MOL0     H24141   5.981   8.558   7.549 -0.9346 -0.6493  0.8122
  183MOL0     H24142   5.910   9.213   7.546  1.7037 -0.3746  0.9744
  183MOL0     H24143   5.819   8.991   7.554  1.2565 -0.7561 -1.0469
  183MOL0     H24144   5.936   8.469   7.801  0.5780  1.3485 -1.8722
  183MOL0     H24145   5.799   8.254   7.828 -1.1705 -1.1953 -0.1644
  183MOL0     H24146   5.665   8.120   7.916 -0.6228 -4.6604 -0.8724
  183MOL0     H24147   5.645   8.086   7.745  0.3467 -2.9507  1.1410
  183MOL0     H24148   5.525   7.929   7.906 -1.1747 -0.1015 -0.7623
  183MOL0     H24149   5.429   8.076   7.949 -0.8938  0.4630 -0.2507
  183MOL0     H24150   5.438   7.900   7.702  2.3675 -1.2342  3.5319
  183MOL0     H24151   5.347   8.062   7.706  0.8716  1.7934  3.1175
  183MOL0     H24152   5.305   7.817   7.865 -1.1310  0.1994 -1.0795
  183MOL0     H24153   5.240   7.983   7.915  2.8444  0.9178  0.1107
  183MOL0     H24154   4.961   7.828   7.642 -0.7104 -0.0845  1.7397
  183MOL0     H24155   5.445   8.487   7.815 -0.8687 -2.6743 -0.4123
  183MOL0     H24156   5.576   8.701   7.780 -3.2985 -1.4483 -1.2563
  184MOL0     O24157   7.416   7.806   0.168  0.7227 -0.5657 -0.1434
  184MOL0     C24158   7.452   7.852   0.277  0.3184 -0.6992 -0.2741
  184MOL0     O24159   7.486   7.984   0.300  0.3792 -0.1052  0.9660
  184MOL0     C24160   7.424   8.079   0.216 -0.1589  0.0250 -0.4302
  184MOL0     C24161   7.298   8.067   0.146 -0.9163 -0.1379 -0.2268
  184MOL0     C24162   7.263   8.170   0.066 -0.1920  0.5292  0.4075
  184MOL0     C24163   7.341   8.288   0.067  0.5300 -0.1481 -0.1227
  184MOL0     O24164   7.305   8.381  -0.026  0.8627  0.2444  0.1045
  184MOL0     C24165   7.407   8.461  -0.089 -0.7741 -0.0140  0.2170
  184MOL0     C24166   7.345   8.568  -0.190  0.3569 -0.2668 -0.2747
  184MOL0     C24167   7.322   8.695  -0.118  0.1584  0.4154  0.0475
  184MOL0     C24168   7.261   8.821  -0.193 -0.6615  0.8308 -0.3865
  184MOL0     C24169   7.270   8.943  -0.101 -0.6582 -0.1484  1.1323
  184MOL0     C24170   7.169   8.957   0.012 -0.2233 -0.0018  0.0806
  184MOL0     C24171   7.201   9.087   0.088 -0.2675  1.2471 -0.4513
  184MOL0     C24172   7.080   9.123   0.177  0.8098  0.4124 -0.3938
  184MOL0     N24173   7.053   9.035   0.291 -0.3522 -1.1122  0.1660
  184MOL0     C24174   6.963   8.931   0.291 -0.7025 -1.0340 -0.4537
  184MOL0     C24175   6.951   8.892   0.418 -0.7510  0.1545  0.5533
  184MOL0     C24176   6.863   8.779   0.477 -0.2373  0.2541 -0.2955
  184MOL0     C24177   6.921   8.644   0.425  0.9250 -0.1530 -0.3621
  184MOL0     C24178   6.828   8.531   0.475 -0.2651 -1.1494  0.6313
  184MOL0     C24179   6.846   8.406   0.389 -0.2762  0.0565 -0.1023
  184MOL0     O24180   6.984   8.370   0.400 -0.7245 -0.4161 -0.5489
  184MOL0     C24181   7.035   8.302   0.513 -0.3415  0.1192  0.9356
  184MOL0     C24182   7.175   8.279   0.505  0.1051  0.4865  0.8103
  184MOL0     C24183   7.240   8.203   0.601  0.9316 -0.1756  0.3552
  184MOL0     C24184   7.171   8.138   0.703 -0.0672 -0.4797 -0.0546
  184MOL0     C24185   7.246   8.055   0.804 -0.3175 -0.1954  0.1922
  184MOL0     O24186   7.181   8.014   0.921  0.6058 -0.3839  1.3000
  184MOL0     C24187   7.258   7.933   1.008  0.9549 -0.0397  0.5246
  184MOL0     C24188   7.284   7.794   0.990  1.2842 -0.5056 -0.7856
  184MOL0     C24189   7.357   7.716   1.084  0.3662  0.1439 -0.6948
  184MOL0     C24190   7.398   7.774   1.206 -0.3588 -0.6929 -0.1547
  184MOL0     O24191   7.455   7.693   1.303 -0.0674  0.3735  1.2086
  184MOL0     C24192   7.375   7.690   1.425  0.1913 -0.1597 -0.3559
  184MOL0     C24193   7.451   7.609   1.529  0.1263  0.6039 -0.4054
  184MOL0     C24194   7.454   7.465   1.494  0.1794  0.4609  0.2563
  184MOL0     C24195   7.474   7.364   1.617 -0.2973  0.1781 -0.2175
  184MOL0     C24196   7.596   7.406   1.697 -0.4380 -0.4093  0.1678
  184MOL0     C24197   7.633   7.308   1.815  0.0738  0.5780 -0.0096
  184MOL0     C24198   7.656   7.161   1.774  0.0888  0.0579  0.0927
  184MOL0     C24199   7.763   7.148   1.662  0.3791 -0.4310  0.0799
  184MOL0    Cl24200   7.793   6.965   1.626 -0.1698  0.6097  0.0049
  184MOL0     C24201   7.389   7.924   1.225  0.5720  0.2951 -0.0426
  184MOL0     C24202   7.313   7.994   1.121  0.2594 -0.6519 -0.3617
  184MOL0     O24203   7.358   8.011   0.770 -0.2907 -0.3516  0.0182
  184MOL0     C24204   7.034   8.165   0.716  0.4761 -0.7684 -0.4375
  184MOL0     C24205   6.966   8.249   0.622 -0.0423  1.4728  0.5293
  184MOL0     N24206   7.034   8.972   0.492 -0.3822 -0.1171 -0.2134
  184MOL0     N24207   7.092   9.058   0.419 -0.4170  0.1372  0.5075
  184MOL0     C24208   7.455   8.300   0.141  0.3442 -0.1090 -0.7965
  184MOL0     C24209   7.498   8.195   0.217  0.1859  0.2850  0.3411
  184MOL0     C24210   7.453   7.760   0.388  0.1069  0.0706 -1.0889
  184MOL0     C24211   7.474   7.802   0.521 -0.2310  0.1119 -0.4967
  184MOL0     C24212   7.476   7.705   0.622  0.8366  0.6848 -0.1806
  184MOL0     C24213   7.461   7.571   0.603  0.0035  0.2458  0.7143
  184MOL0     O24214   7.460   7.488   0.718 -0.2064 -0.3881 -0.5529
  184MOL0     C24215   7.358   7.395   0.747  0.5551 -0.7720  1.3497
  184MOL0     C24216   7.409   7.267   0.695 -0.2260  0.8476  0.9449
  184MOL0     C24217   7.306   7.162   0.717  0.5949  0.0902  0.0968
  184MOL0     C24218   7.156   7.198   0.681  0.8628  1.1168 -0.6674
  184MOL0     C24219   7.140   7.265   0.548 -0.5682 -0.5168 -0.0127
  184MOL0     C24220   7.118   7.337   0.453  0.1611  0.2327  0.2300
  184MOL0     C24221   7.431   7.525   0.470  0.4552  0.3269 -0.6282
  184MOL0     C24222   7.430   7.623   0.362 -0.4126 -0.8906 -0.1609
  184MOL0     H24223   7.224   7.989   0.161  0.3893 -1.5016 -0.6319
  184MOL0     H24224   7.184   8.167  -0.008  0.1445 -2.9274  0.0433
  184MOL0     H24225   7.475   8.396  -0.145 -0.7402  0.8768 -0.8148
  184MOL0     H24226   7.459   8.511  -0.008 -2.4695  1.2483  0.5809
  184MOL0     H24227   7.253   8.523  -0.231 -0.4703 -0.4483  1.6961
  184MOL0     H24228   7.419   8.573  -0.270  1.4874  2.9982  0.8290
  184MOL0     H24229   7.411   8.727  -0.064 -0.3530 -0.9907  1.8362
  184MOL0     H24230   7.256   8.676  -0.033 -1.0784  2.4194 -0.4006
  184MOL0     H24231   7.322   8.844  -0.281  2.2242 -1.5178  0.7838
  184MOL0     H24232   7.159   8.788  -0.214 -0.6203  0.7512 -0.4586
  184MOL0     H24233   7.257   9.034  -0.161  1.4874  0.8797  2.0956
  184MOL0     H24234   7.370   8.945  -0.057 -1.3812  3.2910  2.9985
  184MOL0     H24235   7.179   8.868   0.074  1.8308 -0.1083 -0.3231
  184MOL0     H24236   7.075   8.960  -0.043  1.9274  0.1731 -4.0107
  184MOL0     H24237   7.292   9.063   0.144  0.3046  2.4503 -0.8129
  184MOL0     H24238   7.216   9.165   0.012 -2.1596 -0.3984 -2.6385
  184MOL0     H24239   6.987   9.127   0.119 -2.2419  1.8815  4.0741
  184MOL0     H24240   7.100   9.222   0.220 -0.4606  1.7397 -2.6616
  184MOL0     H24241   6.911   8.890   0.205  0.9126 -2.3367 -0.8744
  184MOL0     H24242   6.754   8.786   0.469 -0.5205  2.6565  3.2822
  184MOL0     H24243   6.887   8.783   0.583  2.5510 -0.5715 -0.8138
  184MOL0     H24244   7.024   8.650   0.462  1.0648  0.9759 -0.8795
  184MOL0     H24245   6.925   8.640   0.316 -0.2506 -0.5119 -0.4079
  184MOL0     H24246   6.865   8.504   0.574 -1.8954 -0.4211  1.4938
  184MOL0     H24247   6.722   8.550   0.494 -0.4881 -1.8103  0.0902
  184MOL0     H24248   6.821   8.419   0.283 -0.6995  0.7696  0.0828
  184MOL0     H24249   6.784   8.322   0.422 -0.5976  1.0544  2.0267
  184MOL0     H24250   7.225   8.331   0.424 -1.9041  1.7805  0.3128
  184MOL0     H24251   7.347   8.190   0.583  0.8938  1.7780 -1.8450
  184MOL0     H24252   7.233   7.736   0.913 -0.8598 -2.4199  1.8662
  184MOL0     H24253   7.388   7.616   1.054 -0.6914  0.0231 -1.4315
  184MOL0     H24254   7.275   7.655   1.396  0.3930 -0.6251 -0.4905
  184MOL0     H24255   7.366   7.788   1.473  0.6108 -1.5072  2.6700
  184MOL0     H24256   7.385   7.632   1.613  0.7919  1.1695 -0.0310
  184MOL0     H24257   7.549   7.649   1.555 -0.1612 -0.6070  3.0974
  184MOL0     H24258   7.536   7.453   1.422  0.1482  0.9988  0.1236
  184MOL0     H24259   7.359   7.446   1.445 -1.1276  0.9542  2.4674
  184MOL0     H24260   7.386   7.372   1.681  0.4167  0.8704  0.6932
  184MOL0     H24261   7.470   7.258   1.588 -0.9556 -0.5863  2.3589
  184MOL0     H24262   7.584   7.504   1.744  1.3022 -1.1148  2.2512
  184MOL0     H24263   7.681   7.412   1.629  0.2354 -0.1281  1.0103
  184MOL0     H24264   7.548   7.318   1.883 -0.9717  0.4875 -1.2572
  184MOL0     H24265   7.727   7.350   1.851  0.7086 -1.2018  0.4915
  184MOL0     H24266   7.697   7.108   1.859  1.3621  0.8322 -0.0122
  184MOL0     H24267   7.560   7.120   1.739 -0.9449  2.9372 -0.7684
  184MOL0     H24268   7.855   7.202   1.685 -0.4731  0.8088  0.6809
  184MOL0     H24269   7.722   7.185   1.567  1.7080  0.6574 -0.1015
  184MOL0     H24270   7.418   7.975   1.316 -3.1505  1.7210  0.5294
  184MOL0     H24271   7.279   8.096   1.138  1.7661 -0.2143  0.1404
  184MOL0     H24272   6.979   8.111   0.792 -0.8479 -0.4812 -1.1648
  184MOL0     H24273   6.859   8.257   0.635 -0.0842  3.8932 -0.8234
  184MOL0     H24274   7.529   8.378   0.125  2.4232 -1.6515  0.7239
  184MOL0     H24275   7.585   8.200   0.280 -0.6786  1.4793  1.4872
  184MOL0     H24276   7.482   7.909   0.532  1.2729 -0.1023  0.8343
  184MOL0     H24277   7.486   7.740   0.724  3.1559 -1.8025  0.5376
  184MOL0     H24278   7.265   7.433   0.704  0.9210 -0.8797  0.4377
  184MOL0     H24279   7.325   7.388   0.851 -6.8994  2.8014 -0.1018
  184MOL0     H24280   7.430   7.275   0.588 -0.2983 -0.3101  0.8307
  184MOL0     H24281   7.506   7.239   0.737 -0.1931  2.1824  1.8383
  184MOL0     H24282   7.328   7.121   0.816  2.1577 -0.8468 -0.5980
  184MOL0     H24283   7.325   7.085   0.641 -0.8867  2.0428 -2.3904
  184MOL0     H24284   7.095   7.107   0.691  0.3031  1.6396  1.0408
  184MOL0     H24285   7.117   7.264   0.758 -0.0302  1.1416 -1.1272
  184MOL0     H24286   7.079   7.401   0.376  0.3561 -1.3649 -1.2504
  184MOL0     H24287   7.405   7.421   0.454 -2.5455  0.4319  2.4059
  184MOL0     H24288   7.400   7.587   0.264 -1.0121 -2.5068  0.5734
  185MOL0     O24289   8.966   2.356  10.184 -0.4995  0.0717 -0.3836
  185MOL0     C24290   8.915   2.333  10.077  0.7258 -0.4886  0.7134
  185MOL0     O24291   8.963   2.248   9.976 -0.3122 -0.2569 -0.5011
  185MOL0     C24292   9.084   2.187  10.026 -0.4270  0.4524  0.0388
  185MOL0     C24293   9.084   2.054  10.058 -0.4051 -0.6074 -0.5026
  185MOL0     C24294   9.207   1.995  10.082  0.0567 -0.0445  0.9162
  185MOL0     C24295   9.325   2.065  10.067  0.3129  0.0917  0.5403
  185MOL0     O24296   9.447   2.002  10.083  0.2433 -0.1615 -0.8398
  185MOL0     C24297   9.454   1.953  10.213 -0.3023 -0.7903 -0.7867
  185MOL0     C24298   9.589   1.870  10.227 -0.4261  0.0261 -0.5641
  185MOL0     C24299   9.611   1.837  10.371  0.3041  0.1274 -1.6518
  185MOL0     C24300   9.737   1.762  10.409  0.0505  0.4563  1.3831
  185MOL0     C24301   9.800   1.805  10.538  0.0803  0.0842 -0.2337
  185MOL0     C24302   9.902   1.926  10.519  0.5655  0.3028  0.1176
  185MOL0     C24303   9.985   1.949  10.647  0.3725  0.5543 -0.0244
  185MOL0     C24304   9.919   1.946  10.782  0.0787 -0.0437 -0.0987
  185MOL0     N24305   9.832   2.061  10.794  0.0146 -0.4240 -0.4765
  185MOL0     C24306   9.865   2.193  10.829 -1.3749  0.7497  0.6209
  185MOL0     C24307   9.755   2.244  10.889  0.8967 -0.7505 -0.6565
  185MOL0     C24308   9.734   2.374  10.962  0.0402 -0.7878  0.0568
  185MOL0     C24309   9.656   2.479  10.887 -0.0017  1.0960 -0.2118
  185MOL0     C24310   9.520   2.439  10.840  0.8639  0.2257  1.2122
  185MOL0     C24311   9.434   2.340  10.921  0.1903 -0.5158  0.0817
  185MOL0     O24312   9.298   2.384  10.907 -0.3265 -0.0199 -0.2204
  185MOL0     C24313   9.242   2.450  11.012 -0.0660  0.4722  0.2705
  185MOL0     C24314   9.230   2.412  11.149 -0.1558 -0.1925 -0.1508
  185MOL0     C24315   9.173   2.503  11.237 -0.3225  0.1391  0.7883
  185MOL0     C24316   9.134   2.630  11.202 -0.1491 -0.3260 -1.0726
  185MOL0     C24317   9.094   2.722  11.316 -0.1966  0.4275  0.1940
  185MOL0     O24318   9.063   2.680  11.447 -0.4178  0.2000  0.8888
  185MOL0     C24319   9.036   2.786  11.528 -0.1482  1.0945 -1.4521
  185MOL0     C24320   8.916   2.864  11.512  0.3844 -0.1876 -0.3572
  185MOL0     C24321   8.888   2.960  11.608  0.4356 -0.1089 -0.2025
  185MOL0     C24322   8.971   2.995  11.706  0.2373 -0.7569 -0.7701
  185MOL0     O24323   8.932   3.085  11.794  0.0728  0.4979 -0.9891
  185MOL0     C24324   9.025   3.182  11.839 -0.6150  0.2396  0.1554
  185MOL0     C24325   8.950   3.310  11.891  0.0458  0.2976  0.3871
  185MOL0     C24326   8.870   3.274  12.017 -0.0103  0.4150 -0.4976
  185MOL0     C24327   8.948   3.277  12.146 -0.2014 -0.6243 -0.2329
  185MOL0     C24328   8.859   3.226  12.262 -0.8144 -0.1361 -0.2412
  185MOL0     C24329   8.721   3.298  12.289 -0.2633  0.9730  0.5946
  185MOL0     C24330   8.653   3.214  12.398 -0.2434 -0.4026 -0.2291
  185MOL0     C24331   8.559   3.318  12.471 -1.0683  0.2407 -0.8032
  185MOL0    Cl24332   8.673   3.378  12.599  0.6499 -0.1181  0.0347
  185MOL0     C24333   9.084   2.913  11.721  1.2062 -0.1851  0.2164
  185MOL0     C24334   9.111   2.809  11.640  0.3234  0.1512  0.6507
  185MOL0     O24335   9.099   2.840  11.281  0.8408  0.1362 -1.1075
  185MOL0     C24336   9.156   2.675  11.073  0.3419 -0.5602 -0.0799
  185MOL0     C24337   9.200   2.579  10.976 -0.2638 -0.4568 -0.2059
  185MOL0     N24338   9.663   2.141  10.886  0.7027 -0.6429 -0.2094
  185MOL0     N24339   9.696   2.046  10.815 -0.9922  0.6914 -0.3912
  185MOL0     C24340   9.328   2.201  10.045  0.2197 -0.2730 -0.2088
  185MOL0     C24341   9.207   2.267  10.025  0.3509 -0.0945  0.2298
  185MOL0     C24342   8.778   2.399  10.044  0.3074  0.1291  0.3343
  185MOL0     C24343   8.694   2.364   9.933 -0.1444 -0.9632 -1.0301
  185MOL0     C24344   8.588   2.438   9.895 -0.5458 -0.1877  0.9406
  185MOL0     C24345   8.531   2.524   9.987 -1.2997  0.8938  0.2452
  185MOL0     O24346   8.397   2.551   9.991  0.7541 -0.0112 -0.1441
  185MOL0     C24347   8.317   2.428   9.983 -0.5947 -0.6737 -0.6543
  185MOL0     C24348   8.176   2.453  10.032 -0.3370  0.4436  0.2853
  185MOL0     C24349   8.090   2.319  10.029 -1.0674 -0.0205  0.4611
  185MOL0     C24350   7.976   2.322  10.124 -0.0280  0.3354  0.3521
  185MOL0     C24351   7.912   2.190  10.141 -0.2816  0.7188  0.5531
  185MOL0     C24352   7.861   2.086  10.164  0.2084  0.4041  0.0462
  185MOL0     C24353   8.602   2.552  10.107 -0.0371 -0.0423  0.5068
  185MOL0     C24354   8.731   2.504  10.125 -0.3172  0.0916 -0.5064
  185MOL0     H24355   8.990   2.001  10.074  0.0185 -2.7883 -4.0416
  185MOL0     H24356   9.220   1.890  10.106  1.6820  0.3442  1.9113
  185MOL0     H24357   9.373   1.890  10.252  0.6169 -0.9739  0.9350
  185MOL0     H24358   9.468   2.037  10.282 -2.1212 -1.7493  0.8601
  185MOL0     H24359   9.663   1.929  10.173  0.5190 -1.7531 -1.2836
  185MOL0     H24360   9.574   1.773  10.178 -2.7371 -0.5269  1.0446
  185MOL0     H24361   9.523   1.782  10.406  0.0411  3.6081  4.5051
  185MOL0     H24362   9.618   1.932  10.425 -1.3934  0.4935 -2.0291
  185MOL0     H24363   9.717   1.654  10.411 -0.8516  0.5780  0.2506
  185MOL0     H24364   9.813   1.774  10.331  0.5356  1.6441  2.0094
  185MOL0     H24365   9.845   1.713  10.577  0.1883 -0.8356 -2.4036
  185MOL0     H24366   9.722   1.836  10.608 -0.4954  0.6560 -1.1202
  185MOL0     H24367   9.848   2.017  10.492  2.0715  0.4325 -2.7915
  185MOL0     H24368   9.966   1.901  10.434  1.0652  0.7553  0.3526
  185MOL0     H24369  10.064   1.874  10.647  0.2102  0.3811  0.3383
  185MOL0     H24370  10.022   2.052  10.645  0.1879  0.6857  1.9033
  185MOL0     H24371   9.985   1.960  10.868  0.9662  3.6707 -1.2250
  185MOL0     H24372   9.876   1.846  10.798  0.6859 -0.7124 -2.3549
  185MOL0     H24373   9.964   2.233  10.812 -0.6758  1.1485  4.6658
  185MOL0     H24374   9.831   2.406  11.000  0.4373 -1.7155 -0.1521
  185MOL0     H24375   9.678   2.346  11.052  1.0004  0.4972  1.0967
  185MOL0     H24376   9.725   2.511  10.809  1.0387  2.2784  1.1420
  185MOL0     H24377   9.648   2.566  10.953  1.5890  0.3685  1.0118
  185MOL0     H24378   9.464   2.530  10.820 -1.7010 -0.9089  2.7695
  185MOL0     H24379   9.540   2.389  10.744  1.2312 -1.4157  2.1042
  185MOL0     H24380   9.470   2.334  11.024  4.4785 -0.6321 -1.2126
  185MOL0     H24381   9.451   2.236  10.888  1.1722 -1.1150  2.3179
  185MOL0     H24382   9.277   2.324  11.192  3.8719  3.1999  3.4536
  185MOL0     H24383   9.165   2.475  11.341 -0.0628  3.1259  1.7040
  185MOL0     H24384   8.847   2.851  11.430 -0.9538  2.0134  0.3357
  185MOL0     H24385   8.801   3.023  11.594  2.2394  2.8069  0.8102
  185MOL0     H24386   9.104   3.215  11.771 -0.2514 -0.4468  0.2340
  185MOL0     H24387   9.077   3.129  11.920  0.5499  1.2972  0.1380
  185MOL0     H24388   8.885   3.344  11.810  1.3883 -0.7237 -1.1811
  185MOL0     H24389   9.027   3.387  11.904  4.3591 -3.7111  0.9607
  185MOL0     H24390   8.813   3.181  12.004 -2.2126  1.3349  1.7727
  185MOL0     H24391   8.795   3.353  12.027  0.1594  0.2660  2.8125
  185MOL0     H24392   9.032   3.208  12.133 -1.3780 -2.2584  0.4025
  185MOL0     H24393   8.985   3.377  12.168  0.3750 -1.7289  5.2886
  185MOL0     H24394   8.918   3.215  12.354 -0.8272 -2.1141 -0.4396
  185MOL0     H24395   8.848   3.124  12.226 -0.6528  0.3156 -1.6333
  185MOL0     H24396   8.659   3.324  12.204  2.4996  3.8322 -0.7416
  185MOL0     H24397   8.737   3.398  12.332  3.3587  0.8330 -0.0944
  185MOL0     H24398   8.585   3.139  12.356  3.2752 -4.7706  1.0450
  185MOL0     H24399   8.724   3.158  12.460 -1.1959 -1.2633  0.1183
  185MOL0     H24400   8.472   3.281  12.527 -1.8028  2.4891 -0.3306
  185MOL0     H24401   8.512   3.389  12.402  0.2324  1.9553  0.0031
  185MOL0     H24402   9.158   2.926  11.800 -0.3437  2.5906  1.3574
  185MOL0     H24403   9.197   2.744  11.651 -0.7260 -1.0349  2.4538
  185MOL0     H24404   9.131   2.773  11.034  0.4069 -2.2047 -4.8377
  185MOL0     H24405   9.218   2.614  10.874  1.4028 -2.2195 -0.5781
  185MOL0     H24406   9.422   2.252  10.025 -0.6950  1.7310  0.3068
  185MOL0     H24407   9.195   2.374  10.013 -1.6798 -0.4096 -1.1268
  185MOL0     H24408   8.716   2.284   9.864 -2.0841 -2.7966  0.3499
  185MOL0     H24409   8.528   2.425   9.806  0.8349  1.8923 -0.3647
  185MOL0     H24410   8.364   2.365  10.059  2.9524  1.8982 -0.4735
  185MOL0     H24411   8.317   2.388   9.880 -4.2020  1.9471 -1.8971
  185MOL0     H24412   8.186   2.488  10.135  0.2339  2.7755 -0.4997
  185MOL0     H24413   8.126   2.540   9.989  1.3569  2.6649  2.5522
  185MOL0     H24414   8.164   2.240  10.047  2.4085  3.1551  1.2686
  185MOL0     H24415   8.056   2.299   9.926  1.2635  1.3997 -0.6687
  185MOL0     H24416   8.018   2.349  10.222 -1.1869 -0.4375  1.0826
  185MOL0     H24417   7.897   2.395  10.106  0.6665  0.5409 -2.1148
  185MOL0     H24418   7.807   1.995  10.185  0.8451  0.3842  1.7435
  185MOL0     H24419   8.549   2.605  10.187 -0.5927  0.4084 -0.1487
  185MOL0     H24420   8.783   2.545  10.210 -0.6465  2.0552 -1.1932
  186MOL0     O24421   1.490   4.208   1.019  0.0620 -0.6287  0.6786
  186MOL0     C24422   1.413   4.306   1.026  0.0850  0.9839  0.2899
  186MOL0     O24423   1.434   4.435   0.970 -0.2691  0.1558 -0.1101
  186MOL0     C24424   1.509   4.459   0.860 -0.4063  0.1616  0.1582
  186MOL0     C24425   1.589   4.578   0.838  0.4878  0.6036  0.3122
  186MOL0     C24426   1.669   4.598   0.730  0.8748  0.1734  0.2196
  186MOL0     C24427   1.653   4.505   0.620  0.8773  0.1787  0.6639
  186MOL0     O24428   1.709   4.509   0.498 -0.4566 -0.8348 -0.0079
  186MOL0     C24429   1.829   4.574   0.497  0.6127 -0.3233 -0.1379
  186MOL0     C24430   1.888   4.565   0.356  0.6596  0.9055 -0.0937
  186MOL0     C24431   1.798   4.607   0.237 -0.0936  0.1698  0.3976
  186MOL0     C24432   1.821   4.549   0.093 -0.1964  0.2115  0.2667
  186MOL0     C24433   1.949   4.600   0.025  0.5905 -0.0834  0.2291
  186MOL0     C24434   2.005   4.495  -0.075 -0.1604 -0.1612 -0.2215
  186MOL0     C24435   2.127   4.538  -0.156 -1.2526 -0.6406 -0.0559
  186MOL0     C24436   2.258   4.503  -0.075  0.0107  0.9598  0.5902
  186MOL0     N24437   2.278   4.575   0.041 -0.3891  0.1883 -0.0754
  186MOL0     C24438   2.311   4.703   0.058  0.2801  0.8527  0.5120
  186MOL0     C24439   2.321   4.723   0.189 -0.1518 -0.0979  0.3118
  186MOL0     C24440   2.357   4.856   0.265  0.1624 -0.5617  0.1571
  186MOL0     C24441   2.470   4.951   0.220 -0.0138  0.5520  0.1894
  186MOL0     C24442   2.608   4.883   0.213  0.3780 -0.3432  0.6983
  186MOL0     C24443   2.656   4.833   0.343  0.4002  0.4448 -0.3348
  186MOL0     O24444   2.702   4.938   0.430  0.9856  0.2239  0.9270
  186MOL0     C24445   2.781   4.890   0.534  0.6126 -1.0296  0.5979
  186MOL0     C24446   2.919   4.894   0.524  0.4277  0.5514  0.2183
  186MOL0     C24447   2.998   4.850   0.628 -0.4678 -0.1924  0.7162
  186MOL0     C24448   2.941   4.797   0.747  0.1904  0.4328 -0.0445
  186MOL0     C24449   3.024   4.770   0.864  1.0498 -0.2495  0.0623
  186MOL0     O24450   2.998   4.663   0.940 -0.2236  0.8319 -0.8270
  186MOL0     C24451   3.072   4.634   1.054 -0.0250  0.6794  0.2040
  186MOL0     C24452   3.198   4.585   1.034  0.5800  1.0817 -1.0800
  186MOL0     C24453   3.292   4.579   1.135  0.0397 -0.3486  0.1195
  186MOL0     C24454   3.252   4.617   1.262 -0.8003 -0.8786 -0.9211
  186MOL0     O24455   3.348   4.630   1.360  0.3984  0.7349  0.2396
  186MOL0     C24456   3.318   4.588   1.495 -0.5192  0.0728  0.4080
  186MOL0     C24457   3.300   4.438   1.495 -0.8875  0.5987 -0.6410
  186MOL0     C24458   3.255   4.399   1.645  0.2437  0.2690 -0.1086
  186MOL0     C24459   3.250   4.247   1.672 -1.1756 -0.8177 -0.4134
  186MOL0     C24460   3.213   4.161   1.562  0.3675  0.1429  0.3686
  186MOL0     C24461   3.065   4.180   1.516 -0.4383  0.5913 -0.4287
  186MOL0     C24462   3.019   4.092   1.394 -0.2730 -0.3513 -0.1157
  186MOL0     C24463   3.045   4.154   1.261 -0.1030  0.3951 -0.3277
  186MOL0    Cl24464   2.957   4.095   1.126 -0.2612  0.0125  0.5866
  186MOL0     C24465   3.118   4.658   1.290 -0.3548 -0.5054 -0.1394
  186MOL0     C24466   3.033   4.671   1.178  0.0151  0.7425 -0.0592
  186MOL0     O24467   3.120   4.849   0.880 -0.4640 -0.2707 -0.0562
  186MOL0     C24468   2.800   4.799   0.757  0.1089 -0.4466  0.3773
  186MOL0     C24469   2.714   4.849   0.652  0.1724 -0.5480 -1.1883
  186MOL0     N24470   2.295   4.604   0.252 -0.6178 -0.0771 -0.0221
  186MOL0     N24471   2.262   4.518   0.166  0.3095 -0.6084  0.6493
  186MOL0     C24472   1.568   4.394   0.630 -0.7238  0.8567 -0.0976
  186MOL0     C24473   1.498   4.370   0.752 -0.5364 -0.1577 -0.5513
  186MOL0     C24474   1.286   4.289   1.092  1.0126 -0.0987 -0.3401
  186MOL0     C24475   1.260   4.176   1.180 -0.1383 -0.6188 -0.4328
  186MOL0     C24476   1.139   4.170   1.253  0.1007 -0.0527  0.0881
  186MOL0     C24477   1.045   4.270   1.239  0.7753 -0.6911  0.9252
  186MOL0     O24478   0.928   4.257   1.302  0.7911  0.1864  0.0565
  186MOL0     C24479   0.877   4.369   1.370  0.9761  0.7158 -0.6695
  186MOL0     C24480   0.848   4.334   1.517  0.3870  0.0850 -0.7805
  186MOL0     C24481   0.775   4.447   1.589  0.5763 -0.1541  0.0309
  186MOL0     C24482   0.630   4.444   1.564  0.6892 -1.0703  0.1016
  186MOL0     C24483   0.559   4.567   1.612  0.9422  0.0874  0.0792
  186MOL0     C24484   0.485   4.650   1.672 -0.9351 -0.4976  0.3572
  186MOL0     C24485   1.061   4.370   1.138  0.3092  1.1584 -0.1440
  186MOL0     C24486   1.180   4.381   1.069  0.1868  0.1899 -0.4637
  186MOL0     H24487   1.602   4.650   0.919  0.6018 -0.6425  1.4421
  186MOL0     H24488   1.730   4.687   0.730  0.5552  0.4071  1.2318
  186MOL0     H24489   1.898   4.528   0.568  0.2337 -0.2227  0.3006
  186MOL0     H24490   1.811   4.677   0.529  0.7424 -1.3079  3.6025
  186MOL0     H24491   1.911   4.460   0.331 -0.7076  0.7280 -0.7056
  186MOL0     H24492   1.987   4.612   0.358  1.1773 -0.1624  1.9059
  186MOL0     H24493   1.792   4.716   0.233  1.1889  0.2570  0.5399
  186MOL0     H24494   1.698   4.563   0.248 -1.9277  3.0574 -2.7702
  186MOL0     H24495   1.822   4.440   0.103 -0.4628  0.1380 -0.4518
  186MOL0     H24496   1.737   4.570   0.027  0.3870  0.5386 -0.3815
  186MOL0     H24497   2.021   4.630   0.102  0.5580  0.9062 -0.1234
  186MOL0     H24498   1.948   4.701  -0.015  1.5307  0.6121  1.8395
  186MOL0     H24499   1.932   4.470  -0.153 -0.1076  2.2673 -1.1708
  186MOL0     H24500   2.032   4.402  -0.026  0.1428 -1.5255 -2.7906
  186MOL0     H24501   2.121   4.491  -0.255 -1.1089 -3.2919  1.1209
  186MOL0     H24502   2.122   4.646  -0.173  0.1625 -0.7707 -1.6016
  186MOL0     H24503   2.342   4.524  -0.142  0.0680 -0.4894  0.1635
  186MOL0     H24504   2.280   4.396  -0.067  0.1387  0.8129 -1.2921
  186MOL0     H24505   2.337   4.779  -0.015 -0.4708  0.2480 -0.4222
  186MOL0     H24506   2.373   4.821   0.367  2.2952 -0.2067 -0.0145
  186MOL0     H24507   2.266   4.915   0.276  1.7980  2.1109  0.2324
  186MOL0     H24508   2.468   5.044   0.278  1.3854  0.5821  0.2361
  186MOL0     H24509   2.437   4.966   0.117 -2.1137 -0.4558  0.6803
  186MOL0     H24510   2.613   4.804   0.138 -2.5371 -0.3654  0.4164
  186MOL0     H24511   2.685   4.958   0.191 -0.6656  1.2274  2.0923
  186MOL0     H24512   2.739   4.767   0.315 -0.3253 -0.3219 -0.6944
  186MOL0     H24513   2.582   4.771   0.394 -1.5049 -0.6388 -4.0256
  186MOL0     H24514   2.972   4.908   0.430  0.6504  0.8122  0.3839
  186MOL0     H24515   3.106   4.850   0.614 -0.6750 -1.1717 -1.0232
  186MOL0     H24516   3.227   4.559   0.933 -3.1987 -0.4485 -1.9320
  186MOL0     H24517   3.388   4.534   1.110  0.5490  0.8950 -0.2302
  186MOL0     H24518   3.229   4.640   1.532 -2.0033 -2.1247  0.1436
  186MOL0     H24519   3.392   4.615   1.571 -0.5584  1.0614  0.1110
  186MOL0     H24520   3.389   4.381   1.466  0.0645  0.3065  2.4839
  186MOL0     H24521   3.227   4.412   1.418  0.4772  1.7003 -2.3500
  186MOL0     H24522   3.160   4.450   1.660 -0.2902  0.4881 -3.4316
  186MOL0     H24523   3.319   4.442   1.722  2.8428 -0.4717 -1.7196
  186MOL0     H24524   3.354   4.222   1.698  0.0180  1.4162 -2.5883
  186MOL0     H24525   3.172   4.229   1.747 -4.6384 -2.4469 -4.0884
  186MOL0     H24526   3.222   4.054   1.585  0.4386 -0.4114 -1.9813
  186MOL0     H24527   3.281   4.188   1.480 -1.2576  1.9249 -0.4661
  186MOL0     H24528   3.064   4.283   1.480  1.1456  1.4336  1.7049
  186MOL0     H24529   2.991   4.193   1.596 -1.2360  6.1048 -1.6677
  186MOL0     H24530   3.069   3.996   1.408  0.7479  0.0185 -1.0988
  186MOL0     H24531   2.911   4.075   1.390 -0.4896  0.6825  0.9685
  186MOL0     H24532   3.151   4.148   1.235 -0.8065 -2.6934 -3.2120
  186MOL0     H24533   3.030   4.262   1.270 -1.5496  0.2097 -0.3146
  186MOL0     H24534   3.083   4.702   1.383 -1.2074  1.4139 -1.2975
  186MOL0     H24535   2.935   4.713   1.201 -0.4588  1.1549 -2.5806
  186MOL0     H24536   2.755   4.775   0.853 -1.7910 -0.1012 -0.3739
  186MOL0     H24537   2.608   4.840   0.670  0.1005  0.4725 -1.0780
  186MOL0     H24538   1.570   4.326   0.545  1.7741  1.9283 -0.9784
  186MOL0     H24539   1.446   4.275   0.755  0.8898 -0.9276  1.4953
  186MOL0     H24540   1.323   4.088   1.187  2.9267  1.5345  1.2767
  186MOL0     H24541   1.119   4.087   1.321 -0.8239 -0.0090 -0.1263
  186MOL0     H24542   0.786   4.391   1.312 -0.8178 -2.3509  0.7369
  186MOL0     H24543   0.936   4.461   1.363  0.8038  0.9840  0.9977
  186MOL0     H24544   0.787   4.244   1.528 -1.5835  1.5036  0.3087
  186MOL0     H24545   0.943   4.312   1.567 -1.2354 -0.4927  2.2480
  186MOL0     H24546   0.807   4.546   1.558 -2.3626  1.4896  1.7571
  186MOL0     H24547   0.775   4.442   1.699  1.1084 -0.1378  0.0326
  186MOL0     H24548   0.605   4.437   1.458  0.5310 -4.5268  0.2757
  186MOL0     H24549   0.591   4.356   1.617 -0.2626 -0.6945  0.0431
  186MOL0     H24550   0.420   4.707   1.735  1.6325  0.4087  2.3986
  186MOL0     H24551   0.981   4.437   1.109  1.3984  3.2485  1.4561
  186MOL0     H24552   1.187   4.453   0.988  1.2018 -0.0335 -0.5929
  187MOL0     O24553   1.549   8.324  10.964 -0.0918  0.1403  0.4800
  187MOL0     C24554   1.549   8.241  11.054  1.5942 -0.4291 -0.3790
  187MOL0     O24555   1.480   8.254  11.170 -0.0540  0.2495  0.4537
  187MOL0     C24556   1.388   8.351  11.189 -0.2091 -0.1291  0.9056
  187MOL0     C24557   1.314   8.331  11.306  0.1288 -0.8269 -0.4276
  187MOL0     C24558   1.227   8.431  11.362  0.0996 -0.4606 -1.4480
  187MOL0     C24559   1.228   8.563  11.315  0.2962 -0.2099 -0.3296
  187MOL0     O24560   1.155   8.673  11.365 -0.4854 -0.5310 -0.3963
  187MOL0     C24561   1.018   8.627  11.373  0.0900 -0.1047 -0.5799
  187MOL0     C24562   0.927   8.738  11.395  0.5839 -0.2195 -0.5708
  187MOL0     C24563   0.910   8.823  11.276  0.6809  0.2586  0.6220
  187MOL0     C24564   0.790   8.925  11.310 -1.0724 -0.4424 -0.8571
  187MOL0     C24565   0.756   9.007  11.178  0.2374 -0.0423 -0.4329
  187MOL0     C24566   0.656   9.117  11.202  0.0018  0.3377  1.2419
  187MOL0     C24567   0.585   9.143  11.069 -0.4509 -0.2199 -0.6906
  187MOL0     C24568   0.669   9.215  10.964 -0.0117  0.4443 -0.7858
  187MOL0     N24569   0.615   9.263  10.841  0.4816  0.3219 -0.3946
  187MOL0     C24570   0.503   9.223  10.789  0.0562  0.6289  0.5623
  187MOL0     C24571   0.495   9.297  10.681 -0.2861 -0.5560  0.4605
  187MOL0     C24572   0.385   9.266  10.582  0.8153  0.2677  0.3511
  187MOL0     C24573   0.433   9.288  10.440  0.3159  0.7743  0.5544
  187MOL0     C24574   0.335   9.379  10.364 -0.0040 -0.9402  1.1588
  187MOL0     C24575   0.200   9.314  10.343 -0.8326  0.5362 -0.1396
  187MOL0     O24576   0.216   9.234  10.222  0.7206 -0.4698 -0.0970
  187MOL0     C24577   0.110   9.161  10.179 -0.2073  0.7300 -1.6000
  187MOL0     C24578   0.120   9.087  10.058  0.3905 -0.6588  0.0964
  187MOL0     C24579   0.015   9.012  10.005  0.8575  0.3507  0.0949
  187MOL0     C24580  -0.103   9.000  10.076 -0.5469  1.1403  0.8192
  187MOL0     C24581  -0.216   8.938  10.003 -0.8580  0.0304  0.1515
  187MOL0     O24582  -0.216   8.951   9.864 -0.6821  0.4717 -0.0325
  187MOL0     C24583  -0.327   8.905   9.796  0.4533 -0.4492 -1.1536
  187MOL0     C24584  -0.458   8.944   9.840 -0.9042  0.5946 -0.5945
  187MOL0     C24585  -0.576   8.909   9.784  0.3704  0.3656 -0.4888
  187MOL0     C24586  -0.573   8.835   9.672 -0.8684  0.5042  0.3062
  187MOL0     O24587  -0.689   8.820   9.600 -0.6573  0.3061  0.5240
  187MOL0     C24588  -0.683   8.734   9.481 -0.2528 -0.2360 -0.4764
  187MOL0     C24589  -0.810   8.755   9.414  0.4187  0.8010  0.4401
  187MOL0     C24590  -0.916   8.659   9.474 -0.8255  0.4424  0.1652
  187MOL0     C24591  -1.049   8.673   9.395  0.2635  0.7498  0.0917
  187MOL0     C24592  -1.148   8.561   9.437 -0.1238  0.7918  0.5755
  187MOL0     C24593  -1.278   8.584   9.356  1.4534  0.8670  0.2800
  187MOL0     C24594  -1.384   8.478   9.397 -0.4229  0.3896 -0.1969
  187MOL0     C24595  -1.500   8.507   9.302 -0.5087 -0.1578  0.7471
  187MOL0    Cl24596  -1.662   8.449   9.382 -0.0922  0.2856  0.1195
  187MOL0     C24597  -0.447   8.769   9.642 -0.0335  0.1143 -0.8519
  187MOL0     C24598  -0.325   8.802   9.709 -1.0439 -1.1865 -0.1524
  187MOL0     O24599  -0.301   8.884  10.069  0.4187  0.0178 -0.9347
  187MOL0     C24600  -0.102   9.054  10.208 -0.3446 -0.3945  0.2734
  187MOL0     C24601  -0.006   9.136  10.256 -0.0242 -0.7566 -0.5068
  187MOL0     N24602   0.602   9.379  10.665 -0.6201 -0.6247  0.2653
  187MOL0     N24603   0.675   9.367  10.779 -0.3247  0.4053  0.8639
  187MOL0     C24604   1.311   8.589  11.202 -0.0656 -0.6740  0.3496
  187MOL0     C24605   1.387   8.485  11.138  0.5156 -0.3021  0.0014
  187MOL0     C24606   1.629   8.113  11.032 -0.0985  0.3803 -0.5055
  187MOL0     C24607   1.634   7.998  11.123 -0.4032 -0.8454  0.5991
  187MOL0     C24608   1.690   7.875  11.087  1.0311 -0.0786 -1.2087
  187MOL0     C24609   1.742   7.860  10.957  0.8441  0.0340  0.2799
  187MOL0     O24610   1.800   7.748  10.899 -0.5482 -0.4133 -0.3653
  187MOL0     C24611   1.771   7.620  10.960  0.0884 -0.8182  0.4051
  187MOL0     C24612   1.899   7.581  11.045  0.3260 -0.2165  0.6435
  187MOL0     C24613   1.886   7.434  11.110  0.0083 -0.4285 -0.6429
  187MOL0     C24614   1.978   7.423  11.235 -0.0906  0.2012 -0.2063
  187MOL0     C24615   1.984   7.296  11.304  0.3635 -0.5082  0.2309
  187MOL0     C24616   1.989   7.190  11.358  0.8735  0.3196  0.0005
  187MOL0     C24617   1.737   7.975  10.873  0.6983  0.8718 -0.4077
  187MOL0     C24618   1.687   8.103  10.904 -0.0419  0.1033 -0.7900
  187MOL0     H24619   1.311   8.232  11.349  0.9875 -1.8177 -2.4829
  187MOL0     H24620   1.163   8.392  11.441 -0.8740 -0.4093 -2.2015
  187MOL0     H24621   1.014   8.560  11.459  2.9105  0.0011 -0.2782
  187MOL0     H24622   1.004   8.571  11.280 -1.9854  2.2417 -1.8252
  187MOL0     H24623   0.960   8.792  11.484  1.7085  0.9815 -1.6918
  187MOL0     H24624   0.828   8.703  11.426  1.1731 -0.9526  0.5593
  187MOL0     H24625   0.909   8.760  11.186  1.0548  0.1862  0.6661
  187MOL0     H24626   0.997   8.888  11.264 -0.9387  2.7203  1.4526
  187MOL0     H24627   0.696   8.874  11.334 -0.4126 -1.1476  0.3233
  187MOL0     H24628   0.823   8.986  11.395  1.5040 -2.2206 -0.4705
  187MOL0     H24629   0.707   8.935  11.111 -0.5292  0.3316 -0.2802
  187MOL0     H24630   0.845   9.051  11.133  0.4750  2.4967  2.2234
  187MOL0     H24631   0.698   9.211  11.240 -1.2386  1.1230  0.7249
  187MOL0     H24632   0.585   9.083  11.278 -0.1342 -0.8307  0.6230
  187MOL0     H24633   0.554   9.048  11.026 -3.0668  0.9423 -1.6141
  187MOL0     H24634   0.491   9.196  11.087 -1.3137 -2.2531  1.3171
  187MOL0     H24635   0.746   9.147  10.926 -1.0752 -1.1263 -0.2654
  187MOL0     H24636   0.721   9.297  11.014  2.7322 -0.5514 -1.8327
  187MOL0     H24637   0.428   9.151  10.822 -0.4959  0.9996  0.1249
  187MOL0     H24638   0.295   9.323  10.608  1.2597  0.4201  1.6010
  187MOL0     H24639   0.347   9.166  10.601 -0.2261  0.4925 -0.4493
  187MOL0     H24640   0.450   9.189  10.396  0.2273  0.3472  1.4702
  187MOL0     H24641   0.532   9.334  10.431  0.6751 -0.3573 -2.1927
  187MOL0     H24642   0.332   9.466  10.431 -0.6630  2.8320 -3.2718
  187MOL0     H24643   0.365   9.417  10.267 -1.0054  0.8654  1.5035
  187MOL0     H24644   0.121   9.387  10.322 -2.7657 -1.4775 -0.1963
  187MOL0     H24645   0.170   9.259  10.433 -0.2638 -1.1494 -0.9541
  187MOL0     H24646   0.205   9.081   9.991 -0.3247  1.0062 -1.0555
  187MOL0     H24647   0.024   8.970   9.905  2.2012 -2.4807  1.2785
  187MOL0     H24648  -0.471   9.017   9.920 -4.7380 -1.2546  0.7662
  187MOL0     H24649  -0.673   8.947   9.816  1.6705  1.9699  1.8827
  187MOL0     H24650  -0.682   8.626   9.500  1.2150 -0.0772  0.4809
  187MOL0     H24651  -0.598   8.766   9.421 -0.5614 -0.3745 -0.9913
  187MOL0     H24652  -0.804   8.729   9.308 -1.1696 -7.4961  1.7515
  187MOL0     H24653  -0.844   8.858   9.432 -1.3206  0.2671  0.3666
  187MOL0     H24654  -0.922   8.675   9.582 -0.3527 -2.3423  0.6892
  187MOL0     H24655  -0.881   8.559   9.446 -1.4139  1.0164 -3.0152
  187MOL0     H24656  -1.095   8.768   9.424 -1.9372 -0.8950  2.4606
  187MOL0     H24657  -1.035   8.662   9.287  2.3232  2.6238  0.1043
  187MOL0     H24658  -1.156   8.582   9.544 -1.1769  2.8166  0.1663
  187MOL0     H24659  -1.113   8.460   9.416 -1.4777  0.5292 -0.5796
  187MOL0     H24660  -1.252   8.580   9.250 -1.4232 -0.8229 -0.4704
  187MOL0     H24661  -1.318   8.684   9.374  2.0898  0.7520  2.6451
  187MOL0     H24662  -1.356   8.373   9.381 -0.0452  0.7565 -2.1743
  187MOL0     H24663  -1.413   8.496   9.501  2.9058 -0.0439  0.9384
  187MOL0     H24664  -1.483   8.444   9.215 -3.5874 -1.5157  0.9928
  187MOL0     H24665  -1.504   8.613   9.276  0.5184 -0.3311 -0.1614
  187MOL0     H24666  -0.437   8.715   9.548 -4.6279  0.4407 -1.7236
  187MOL0     H24667  -0.230   8.750   9.702  0.6602  1.5297  0.8238
  187MOL0     H24668  -0.198   9.044  10.258  0.4276  1.4740  2.2480
  187MOL0     H24669  -0.032   9.195  10.343 -0.3413 -1.6417  0.0032
  187MOL0     H24670   1.314   8.690  11.162  1.7138 -0.5050  0.7901
  187MOL0     H24671   1.443   8.503  11.047  2.1162 -2.6784  0.4199
  187MOL0     H24672   1.576   8.013  11.213  0.3989  1.8400  0.7624
  187MOL0     H24673   1.692   7.785  11.148  0.7222 -2.3891 -4.3242
  187MOL0     H24674   1.763   7.547  10.879  0.2287  0.6571 -0.9760
  187MOL0     H24675   1.680   7.616  11.021 -0.9001  0.6714 -0.8933
  187MOL0     H24676   1.982   7.583  10.975  0.4275 -2.7669  0.6224
  187MOL0     H24677   1.895   7.661  11.120 -1.1449 -1.1558  1.6288
  187MOL0     H24678   1.922   7.366  11.033  0.3976 -2.0029  0.8622
  187MOL0     H24679   1.782   7.404  11.127 -0.2697 -0.7431 -2.6851
  187MOL0     H24680   2.077   7.447  11.196 -0.2695 -0.1172 -0.8627
  187MOL0     H24681   1.958   7.495  11.316  0.9725  1.6967 -1.2090
  187MOL0     H24682   1.996   7.096  11.408 -3.6180 -1.5290 -2.2187
  187MOL0     H24683   1.771   7.962  10.771 -3.8025 -1.1135 -1.9032
  187MOL0     H24684   1.685   8.182  10.830  4.1627  0.9422 -0.2722
  188MOL0     O24685   7.219   0.261   2.401  0.9186  0.2385 -0.2658
  188MOL0     C24686   7.219   0.321   2.510  0.4805 -0.6603 -0.6805
  188MOL0     O24687   7.249   0.263   2.626  0.7120 -0.1982  0.4431
  188MOL0     C24688   7.281   0.127   2.643  0.1556  0.6164 -0.0565
  188MOL0     C24689   7.192   0.042   2.700  0.0750 -0.0052  0.3524
  188MOL0     C24690   7.231  -0.091   2.717 -0.4151  0.3201  0.9773
  188MOL0     C24691   7.361  -0.146   2.671  0.8610 -0.9726 -0.5756
  188MOL0     O24692   7.404  -0.270   2.708 -0.7550  0.3549 -0.2373
  188MOL0     C24693   7.443  -0.360   2.597  0.2839 -0.1470 -0.9949
  188MOL0     C24694   7.579  -0.332   2.531 -0.3872 -0.9694  0.4261
  188MOL0     C24695   7.699  -0.336   2.623  0.6361 -1.2894 -0.1797
  188MOL0     C24696   7.823  -0.332   2.533  1.3430 -0.9137 -0.0973
  188MOL0     C24697   7.946  -0.390   2.604 -0.6398 -0.3489 -0.3267
  188MOL0     C24698   8.070  -0.396   2.530  0.2617  0.3036  0.5416
  188MOL0     C24699   8.113  -0.256   2.465 -0.2284  0.9639 -0.4081
  188MOL0     C24700   8.234  -0.270   2.376 -0.7050  0.7732 -0.0307
  188MOL0     N24701   8.356  -0.267   2.442 -0.1042 -0.0585  0.1149
  188MOL0     C24702   8.465  -0.223   2.380  0.2513 -1.0324 -0.1694
  188MOL0     C24703   8.549  -0.183   2.472 -0.8106 -0.3702  0.6786
  188MOL0     C24704   8.687  -0.131   2.446 -0.7917  1.0411  0.1848
  188MOL0     C24705   8.761  -0.087   2.568 -0.5134  1.0225  0.4703
  188MOL0     C24706   8.721   0.055   2.614 -1.0539 -0.4257  0.2876
  188MOL0     C24707   8.664   0.043   2.754  0.0015 -1.7443  0.0008
  188MOL0     O24708   8.778   0.026   2.832  0.1473 -0.2654 -1.0048
  188MOL0     C24709   8.767   0.010   2.966  0.6256 -0.4988 -0.4278
  188MOL0     C24710   8.651  -0.030   3.032 -0.1826 -0.1070  0.5516
  188MOL0     C24711   8.663  -0.075   3.166  0.6867 -0.8179  0.5475
  188MOL0     C24712   8.783  -0.069   3.237 -0.7307  0.0779  0.3016
  188MOL0     C24713   8.802  -0.130   3.367 -1.4921  0.2731 -0.0270
  188MOL0     O24714   8.909  -0.088   3.450 -0.6550  0.4994 -0.2633
  188MOL0     C24715   8.906  -0.129   3.585  1.4620 -0.4543 -0.0593
  188MOL0     C24716   8.817  -0.065   3.674  0.0352 -0.7672  0.4237
  188MOL0     C24717   8.787  -0.117   3.804 -0.3655 -0.1622  0.5664
  188MOL0     C24718   8.852  -0.237   3.850 -0.1166 -0.2178 -0.4256
  188MOL0     O24719   8.834  -0.304   3.966 -0.3821  0.0609 -0.1627
  188MOL0     C24720   8.729  -0.260   4.054  0.1447 -0.2508  0.3562
  188MOL0     C24721   8.585  -0.320   4.029 -0.0242 -0.1445 -0.1470
  188MOL0     C24722   8.579  -0.473   4.037  0.9226 -0.3490  0.4055
  188MOL0     C24723   8.429  -0.519   4.019  0.6046 -0.1322  0.0905
  188MOL0     C24724   8.347  -0.500   4.153 -0.2999 -0.4815 -0.7838
  188MOL0     C24725   8.206  -0.558   4.151  0.9387  1.4402  0.8373
  188MOL0     C24726   8.135  -0.557   4.283 -1.0739 -0.0633  1.5788
  188MOL0     C24727   8.018  -0.654   4.300 -0.6103 -0.4277  0.3909
  188MOL0    Cl24728   8.061  -0.834   4.310 -0.4152  0.1724  0.2727
  188MOL0     C24729   8.931  -0.310   3.758  0.3789 -0.0293  0.4239
  188MOL0     C24730   8.946  -0.259   3.623 -0.3336  0.4318 -0.0701
  188MOL0     O24731   8.717  -0.209   3.403  0.0328 -0.9932  0.4514
  188MOL0     C24732   8.890  -0.008   3.168  0.0534  1.2215 -0.4822
  188MOL0     C24733   8.875   0.029   3.037 -1.0177  0.6428  0.7388
  188MOL0     N24734   8.495  -0.216   2.595 -0.7486  0.3190  1.0071
  188MOL0     N24735   8.380  -0.275   2.575 -0.6359  0.5692 -0.6392
  188MOL0     C24736   7.443  -0.050   2.614 -0.4926  0.6118  0.0180
  188MOL0     C24737   7.391   0.077   2.593 -0.3033  0.5946  0.6455
  188MOL0     C24738   7.174   0.465   2.510 -2.0642  0.2136  0.3132
  188MOL0     C24739   7.188   0.542   2.624  0.0409 -0.1506 -0.6483
  188MOL0     C24740   7.143   0.678   2.628 -0.2699  0.2497 -0.1095
  188MOL0     C24741   7.099   0.735   2.513  0.7887  0.1209 -0.0964
  188MOL0     O24742   7.051   0.867   2.501 -0.0740 -0.2265 -0.1539
  188MOL0     C24743   7.002   0.937   2.612 -0.7946 -0.0396  0.0938
  188MOL0     C24744   6.851   0.900   2.632  0.0437 -0.1977  0.0691
  188MOL0     C24745   6.775   0.932   2.504  0.3026 -0.3394  0.0572
  188MOL0     C24746   6.630   0.900   2.518  0.0450 -0.0369  0.2244
  188MOL0     C24747   6.550   1.013   2.572 -0.1621 -0.6364 -0.1690
  188MOL0     C24748   6.524   1.121   2.621 -0.7329 -0.0689 -1.0985
  188MOL0     C24749   7.088   0.656   2.400 -0.0425 -0.3068  0.0978
  188MOL0     C24750   7.125   0.525   2.393 -0.7462  0.2799 -0.4286
  188MOL0     H24751   7.095   0.074   2.738  0.4605  1.6034  0.0657
  188MOL0     H24752   7.164  -0.162   2.765  0.0898  0.2105  1.5269
  188MOL0     H24753   7.368  -0.358   2.517  1.7931  0.2530 -2.4769
  188MOL0     H24754   7.445  -0.460   2.641  1.5065 -0.8278 -2.5040
  188MOL0     H24755   7.570  -0.240   2.472  1.3269 -0.2890  1.1565
  188MOL0     H24756   7.589  -0.412   2.457 -0.2473  0.5374 -1.2713
  188MOL0     H24757   7.699  -0.432   2.675 -0.7326 -0.5705  1.2202
  188MOL0     H24758   7.695  -0.258   2.699 -0.8922  1.5863 -2.9762
  188MOL0     H24759   7.796  -0.383   2.440  0.3945  0.3979 -0.5696
  188MOL0     H24760   7.844  -0.226   2.514  0.4558 -0.6129  0.5435
  188MOL0     H24761   7.914  -0.488   2.638  0.3517 -1.2761 -1.9221
  188MOL0     H24762   7.974  -0.331   2.692 -1.1711 -3.9544  2.4497
  188MOL0     H24763   8.058  -0.482   2.463 -0.3671  0.0770  0.9309
  188MOL0     H24764   8.152  -0.423   2.597  1.0696  1.4713  0.0487
  188MOL0     H24765   8.037  -0.225   2.394  0.5814 -1.3430 -2.4096
  188MOL0     H24766   8.112  -0.175   2.539 -3.5153 -0.0507  0.8149
  188MOL0     H24767   8.244  -0.186   2.306  0.0366 -1.1452 -2.3930
  188MOL0     H24768   8.224  -0.359   2.312 -1.6989  1.4504 -0.8447
  188MOL0     H24769   8.469  -0.196   2.275 -4.2222  0.0311 -0.2969
  188MOL0     H24770   8.680  -0.062   2.361 -2.6819 -2.0192 -2.3843
  188MOL0     H24771   8.745  -0.219   2.415 -1.8769 -0.0534  1.1623
  188MOL0     H24772   8.867  -0.080   2.540  0.7847 -0.2420  4.4119
  188MOL0     H24773   8.745  -0.154   2.652 -0.0426  0.5833  0.2171
  188MOL0     H24774   8.809   0.117   2.597 -0.1285 -1.8334 -0.3304
  188MOL0     H24775   8.650   0.093   2.540 -1.7045  1.0193  1.6156
  188MOL0     H24776   8.590  -0.037   2.768 -1.1794 -0.7285 -0.2703
  188MOL0     H24777   8.621   0.143   2.761 -3.6010 -3.1185 -0.4173
  188MOL0     H24778   8.557  -0.039   2.977  0.6221  3.0952 -1.6681
  188MOL0     H24779   8.571  -0.104   3.217 -0.8240  2.4523 -0.0702
  188MOL0     H24780   8.751   0.011   3.634  0.0840 -1.9451 -2.1563
  188MOL0     H24781   8.719  -0.053   3.860  3.0096  1.4022  3.2746
  188MOL0     H24782   8.729  -0.151   4.058 -1.8148 -0.2192  0.7558
  188MOL0     H24783   8.739  -0.281   4.161 -0.3281  1.9586  0.8730
  188MOL0     H24784   8.552  -0.285   3.930 -1.7166  1.6044  0.9705
  188MOL0     H24785   8.515  -0.272   4.098  0.7985  1.2647 -0.2398
  188MOL0     H24786   8.628  -0.496   4.132  3.0809  3.7198  0.5035
  188MOL0     H24787   8.642  -0.513   3.957  0.5792  2.6948 -1.5435
  188MOL0     H24788   8.399  -0.463   3.930  2.9468  0.4972 -0.3827
  188MOL0     H24789   8.434  -0.625   3.997  2.6250 -0.1153  0.3157
  188MOL0     H24790   8.339  -0.393   4.177 -0.8397  0.0482 -3.0777
  188MOL0     H24791   8.410  -0.542   4.232 -0.9888  1.5611  0.9409
  188MOL0     H24792   8.215  -0.663   4.122 -1.2598  1.2240  0.7228
  188MOL0     H24793   8.148  -0.512   4.070  2.4312  5.2825  1.7472
  188MOL0     H24794   8.211  -0.602   4.349 -0.1075 -1.0132 -0.1119
  188MOL0     H24795   8.110  -0.454   4.309 -0.6094  0.8274 -1.2241
  188MOL0     H24796   7.950  -0.646   4.215 -1.1687  0.3072  0.8946
  188MOL0     H24797   7.954  -0.636   4.388 -0.5453  2.9104 -0.1162
  188MOL0     H24798   8.968  -0.409   3.784  0.0553 -0.9580 -2.3093
  188MOL0     H24799   8.997  -0.326   3.554 -0.5571  0.6903 -0.4892
  188MOL0     H24800   8.991  -0.008   3.208  0.2928  1.0933 -1.0649
  188MOL0     H24801   8.968   0.053   2.986 -2.5666  0.3555 -2.4464
  188MOL0     H24802   7.545  -0.078   2.589 -1.0592 -3.0935  1.2518
  188MOL0     H24803   7.453   0.146   2.537 -0.2064  1.0771  1.3343
  188MOL0     H24804   7.225   0.503   2.719 -1.4954  1.7381  0.8164
  188MOL0     H24805   7.129   0.736   2.718 -3.7603  1.6614 -1.4184
  188MOL0     H24806   7.015   1.043   2.589 -2.5121 -0.2250 -2.1033
  188MOL0     H24807   7.065   0.931   2.701  0.1352 -1.9885 -0.6427
  188MOL0     H24808   6.835   0.794   2.650  0.0991 -0.7460 -2.6195
  188MOL0     H24809   6.811   0.953   2.719 -1.2234 -3.3771  1.5617
  188MOL0     H24810   6.819   0.878   2.420  0.3248 -1.0596  0.5207
  188MOL0     H24811   6.803   1.038   2.492  1.6027 -0.6702  0.0154
  188MOL0     H24812   6.574   0.879   2.427 -2.0445  2.2413  0.8776
  188MOL0     H24813   6.622   0.815   2.586  2.4023  0.2095  0.9035
  188MOL0     H24814   6.511   1.210   2.678  0.5794 -1.0289  0.8044
  188MOL0     H24815   7.040   0.709   2.319 -1.3591  1.7795  2.1243
  188MOL0     H24816   7.129   0.472   2.299 -0.9816  2.1090 -1.5228
  189MOL0     O24817   5.326  10.681   3.480 -0.1992  0.9427 -0.2994
  189MOL0     C24818   5.426  10.623   3.527  0.1363 -0.1101  0.1337
  189MOL0     O24819   5.475  10.631   3.655  1.3503 -0.3249 -0.1944
  189MOL0     C24820   5.403  10.697   3.751 -0.3417  1.2119 -0.6422
  189MOL0     C24821   5.263  10.698   3.751  0.2192  0.0692  0.0154
  189MOL0     C24822   5.189  10.770   3.852  0.4990  0.0736 -0.6737
  189MOL0     C24823   5.250  10.827   3.968 -0.5795  0.5844  0.3747
  189MOL0     O24824   5.193  10.877   4.080 -0.1308 -0.3583  0.0875
  189MOL0     C24825   5.056  10.893   4.062  0.4978 -0.6543  0.9690
  189MOL0     C24826   4.975  10.931   4.184 -0.1429 -0.3000  0.0302
  189MOL0     C24827   5.015  11.070   4.233 -0.8874 -1.4772 -0.7218
  189MOL0     C24828   4.942  11.103   4.367 -0.3062 -0.0387  0.9938
  189MOL0     C24829   4.981  11.015   4.481  0.1638  0.5446 -0.1742
  189MOL0     C24830   4.956  11.078   4.612 -0.7781  0.1981  0.7614
  189MOL0     C24831   4.995  10.985   4.728 -0.6375  1.2490  0.5314
  189MOL0     C24832   5.152  10.987   4.753  0.0419 -0.6621  1.2539
  189MOL0     N24833   5.197  10.939   4.882 -0.6849 -0.9744  0.9124
  189MOL0     C24834   5.157  10.819   4.937 -0.1295  0.5045 -0.2516
  189MOL0     C24835   5.252  10.781   5.022  0.1770 -0.2008  0.8159
  189MOL0     C24836   5.251  10.651   5.094 -0.4898 -0.1161  0.5120
  189MOL0     C24837   5.379  10.612   5.162 -0.6927  0.3593 -0.0654
  189MOL0     C24838   5.378  10.479   5.222  0.2389  0.2302 -0.5998
  189MOL0     C24839   5.497  10.446   5.313  0.6260 -0.9275 -0.3890
  189MOL0     O24840   5.498  10.301   5.338 -0.0351  0.0110  0.5773
  189MOL0     C24841   5.616  10.249   5.384 -0.2972 -0.2290  0.4490
  189MOL0     C24842   5.619  10.117   5.418 -0.4839  0.4845 -0.0088
  189MOL0     C24843   5.737  10.054   5.479  0.7795  0.1879  0.8207
  189MOL0     C24844   5.843  10.136   5.517  0.9592  0.7429  0.9881
  189MOL0     C24845   5.963  10.074   5.580  0.4138  0.1119 -0.0131
  189MOL0     O24846   6.074  10.153   5.581 -0.4480 -0.4871  0.2700
  189MOL0     C24847   6.171  10.145   5.671 -0.0547  0.5663  0.1963
  189MOL0     C24848   6.154  10.095   5.803 -1.0152 -0.1689  0.0447
  189MOL0     C24849   6.257  10.100   5.898  0.3635  0.9919 -0.2597
  189MOL0     C24850   6.379  10.154   5.866  0.8128  0.0382 -0.4503
  189MOL0     O24851   6.462  10.151   5.969  0.2463  0.0363  0.0701
  189MOL0     C24852   6.598  10.183   5.935  0.7484  0.3491  1.0226
  189MOL0     C24853   6.683  10.062   5.994  1.1081 -0.3840  0.5390
  189MOL0     C24854   6.720  10.095   6.140  0.0734  0.1797 -0.9827
  189MOL0     C24855   6.800   9.975   6.193 -0.4529  0.3859  0.2604
  189MOL0     C24856   6.827   9.955   6.339 -0.9655  0.1894  0.6374
  189MOL0     C24857   6.720   9.867   6.408 -1.1271 -0.2386 -0.9002
  189MOL0     C24858   6.749   9.870   6.567  1.2705  1.3492  0.3794
  189MOL0     C24859   6.633   9.822   6.651 -0.2240 -0.8470  0.3029
  189MOL0    Cl24860   6.615   9.653   6.592 -0.0202  0.0865 -0.1940
  189MOL0     C24861   6.395  10.204   5.728 -0.0028 -0.0031  0.3254
  189MOL0     C24862   6.299  10.185   5.631  1.0004  0.4336  0.0409
  189MOL0     O24863   5.944   9.968   5.638 -0.3425  0.6131 -0.0530
  189MOL0     C24864   5.840  10.271   5.480 -1.1849 -0.5052 -0.2618
  189MOL0     C24865   5.725  10.328   5.419 -0.1274  0.4966 -0.2252
  189MOL0     N24866   5.356  10.876   5.016 -0.1333 -0.0732 -0.3818
  189MOL0     N24867   5.322  10.969   4.932  1.0180 -0.0785 -0.1982
  189MOL0     C24868   5.396  10.824   3.965 -0.0111 -0.8191 -0.1896
  189MOL0     C24869   5.465  10.766   3.861  1.0799 -0.2349  1.0595
  189MOL0     C24870   5.499  10.529   3.441 -0.0351 -0.2440 -0.0059
  189MOL0     C24871   5.605  10.450   3.487  0.0451 -1.3746 -0.0146
  189MOL0     C24872   5.676  10.361   3.410 -1.1387 -0.3042  0.6987
  189MOL0     C24873   5.649  10.346   3.273  0.2093  0.3011 -0.0595
  189MOL0     O24874   5.711  10.261   3.182  0.2675  0.5119  0.2707
  189MOL0     C24875   5.820  10.182   3.202 -0.3367  0.7217 -0.2812
  189MOL0     C24876   5.956  10.250   3.184  1.0202  0.0922 -0.9749
  189MOL0     C24877   5.978  10.325   3.060  0.0856  0.8167 -0.2081
  189MOL0     C24878   6.088  10.421   3.062  0.2775  0.8004 -0.1189
  189MOL0     C24879   6.126  10.446   2.929 -0.7789 -0.0638  0.2346
  189MOL0     C24880   6.139  10.468   2.809  1.0937 -0.3130  0.3214
  189MOL0     C24881   5.549  10.424   3.219 -0.0739 -0.1827 -1.0743
  189MOL0     C24882   5.471  10.510   3.303  1.3302 -0.7899  0.0687
  189MOL0     H24883   5.202  10.651   3.674  3.0706 -2.1352 -1.0590
  189MOL0     H24884   5.083  10.751   3.840 -0.1057  1.2746  1.9756
  189MOL0     H24885   5.015  10.795   4.034  2.7745 -1.6884  0.9627
  189MOL0     H24886   5.050  10.968   3.983  4.3127 -0.8690  0.2982
  189MOL0     H24887   4.997  10.858   4.262  2.3968  1.4296  1.1000
  189MOL0     H24888   4.869  10.925   4.159  0.0417  0.8666 -1.1629
  189MOL0     H24889   4.993  11.146   4.158 -0.3758 -1.0872 -0.4838
  189MOL0     H24890   5.125  11.073   4.240 -0.6626 -0.3306 -3.4925
  189MOL0     H24891   4.963  11.207   4.394  0.3860  0.4284 -1.1545
  189MOL0     H24892   4.839  11.104   4.331  0.6166  2.5206 -2.0801
  189MOL0     H24893   5.085  10.983   4.477  0.1342  0.5486 -2.4970
  189MOL0     H24894   4.937  10.916   4.471  1.5215 -0.0597 -0.3347
  189MOL0     H24895   4.855  11.117   4.629 -0.8578  0.9564 -1.1245
  189MOL0     H24896   5.024  11.164   4.611 -1.1977  0.5313  0.5033
  189MOL0     H24897   4.936  11.025   4.811 -0.7902 -0.5896  1.3378
  189MOL0     H24898   4.955  10.884   4.719  0.7484  0.4175  2.8132
  189MOL0     H24899   5.174  11.094   4.752 -0.8060 -0.4737  1.2840
  189MOL0     H24900   5.194  10.939   4.664 -3.4844  1.1741 -1.7213
  189MOL0     H24901   5.059  10.774   4.926  1.1231 -2.0171 -1.7849
  189MOL0     H24902   5.241  10.589   5.004 -5.7645 -2.0074  2.0285
  189MOL0     H24903   5.160  10.651   5.153 -1.0957  2.2840 -0.2766
  189MOL0     H24904   5.396  10.687   5.239 -1.9889  2.0943 -1.3769
  189MOL0     H24905   5.464  10.604   5.094 -1.2438  2.4977 -1.0848
  189MOL0     H24906   5.286  10.457   5.277  1.0026  1.7462  1.3879
  189MOL0     H24907   5.378  10.413   5.135  0.7848  1.0833 -1.2675
  189MOL0     H24908   5.495  10.501   5.408  0.0846 -3.8934  1.4627
  189MOL0     H24909   5.584  10.481   5.258 -0.7625  0.2847 -1.9090
  189MOL0     H24910   5.532  10.057   5.393 -0.6310 -0.1578  1.9032
  189MOL0     H24911   5.736   9.946   5.490 -1.1007  0.0168 -0.5200
  189MOL0     H24912   6.060  10.062   5.845 -1.9841  3.1175  0.7351
  189MOL0     H24913   6.244  10.077   6.003 -2.4404 -1.2255 -0.9866
  189MOL0     H24914   6.631  10.280   5.974 -0.4189  0.6344  1.3153
  189MOL0     H24915   6.621  10.185   5.828  0.9526  0.7179  1.0705
  189MOL0     H24916   6.771  10.063   5.930  0.5129  2.1140 -0.3713
  189MOL0     H24917   6.617   9.977   5.977  2.4473 -1.1854 -0.9095
  189MOL0     H24918   6.630  10.103   6.202 -2.0824  0.0892 -3.9129
  189MOL0     H24919   6.781  10.185   6.152 -0.2480  0.0869  2.3505
  189MOL0     H24920   6.750   9.888   6.149 -2.4899  0.0786  2.9571
  189MOL0     H24921   6.891   9.981   6.133 -2.4675 -3.8358 -3.8321
  189MOL0     H24922   6.841  10.056   6.378  1.7389 -0.2141  0.9313
  189MOL0     H24923   6.921   9.900   6.350  0.4447  2.2482 -0.2897
  189MOL0     H24924   6.731   9.764   6.371  2.9760 -0.6289  0.8111
  189MOL0     H24925   6.622   9.913   6.393 -1.4041 -0.8803 -1.0920
  189MOL0     H24926   6.824   9.793   6.589 -1.1815 -1.5334 -0.7575
  189MOL0     H24927   6.790   9.969   6.590  1.7015  2.0664 -2.9318
  189MOL0     H24928   6.541   9.878   6.633 -0.0465 -1.0603 -1.4956
  189MOL0     H24929   6.645   9.820   6.760 -0.9941  0.0769  0.4127
  189MOL0     H24930   6.471  10.277   5.701 -0.0269  0.3056  1.0510
  189MOL0     H24931   6.318  10.217   5.529  0.1261 -0.1092 -0.3072
  189MOL0     H24932   5.926  10.336   5.491 -4.1148  3.5393  1.6728
  189MOL0     H24933   5.741  10.434   5.406  1.0181  0.8536  3.0169
  189MOL0     H24934   5.448  10.879   4.043 -2.6801  0.5133  0.8197
  189MOL0     H24935   5.572  10.783   3.866  1.1502  0.7390 -1.8671
  189MOL0     H24936   5.630  10.446   3.592  0.8572 -0.6107 -0.1693
  189MOL0     H24937   5.755  10.300   3.452  2.6156  1.7095 -2.7773
  189MOL0     H24938   5.805  10.111   3.120  0.7300  0.5242 -0.3200
  189MOL0     H24939   5.814  10.124   3.295 -3.3221  3.8079  1.6936
  189MOL0     H24940   5.970  10.310   3.274 -0.8385  0.3238 -0.7985
  189MOL0     H24941   6.028  10.167   3.183 -0.3806 -1.2568 -4.1753
  189MOL0     H24942   5.886  10.375   3.027  0.0506  0.3694 -0.8188
  189MOL0     H24943   5.992  10.246   2.985  2.6144  2.0776 -1.1841
  189MOL0     H24944   6.063  10.516   3.112 -0.1973  0.0728  1.0535
  189MOL0     H24945   6.175  10.384   3.115  0.7729  0.3338 -1.2380
  189MOL0     H24946   6.129  10.511   2.711 -2.3461  3.0556  1.9274
  189MOL0     H24947   5.542  10.428   3.111 -1.3098  1.8002 -0.9707
  189MOL0     H24948   5.401  10.575   3.252  1.1467 -0.3129  0.9053
  190MOL0     O24949   8.936   7.469   7.878  0.7331 -0.4542  0.0665
  190MOL0     C24950   9.030   7.437   7.809 -0.5267  0.0299 -1.0390
  190MOL0     O24951   9.043   7.311   7.743  0.3049  0.4008  0.2925
  190MOL0     C24952   8.938   7.217   7.758 -1.2512 -0.1168  0.1525
  190MOL0     C24953   8.841   7.219   7.657 -0.1719  0.3098 -0.5281
  190MOL0     C24954   8.725   7.144   7.671 -1.0561 -0.4414 -0.0219
  190MOL0     C24955   8.696   7.077   7.797  0.9219 -0.9201 -0.1644
  190MOL0     O24956   8.581   7.008   7.813  0.1768 -0.8617  0.2079
  190MOL0     C24957   8.607   6.871   7.810 -0.5426  1.0618  0.4482
  190MOL0     C24958   8.570   6.793   7.942  0.1603  0.0123  0.0677
  190MOL0     C24959   8.583   6.636   7.944 -0.5848  0.0951 -0.5536
  190MOL0     C24960   8.486   6.561   7.849 -0.5995 -0.7941 -0.3867
  190MOL0     C24961   8.468   6.410   7.871 -0.9202  0.4729  0.5170
  190MOL0     C24962   8.605   6.334   7.871 -0.0200  0.2275 -0.7361
  190MOL0     C24963   8.600   6.186   7.916  0.0533  0.4251 -0.5430
  190MOL0     C24964   8.682   6.104   7.818 -0.0221  0.2163  0.0397
  190MOL0     N24965   8.646   5.962   7.838 -0.5605  0.2294 -0.0580
  190MOL0     C24966   8.583   5.882   7.742  0.2454 -0.5168 -0.0617
  190MOL0     C24967   8.601   5.757   7.791  0.1080 -0.7225  0.4760
  190MOL0     C24968   8.565   5.636   7.714 -0.9388  0.9604  0.5437
  190MOL0     C24969   8.425   5.601   7.766 -0.2099  0.2388 -0.4588
  190MOL0     C24970   8.357   5.489   7.681 -0.1374 -0.3379  0.3894
  190MOL0     C24971   8.232   5.418   7.748 -0.3462  0.0329  0.0786
  190MOL0     O24972   8.124   5.513   7.725 -0.5038 -0.6390  0.4428
  190MOL0     C24973   7.994   5.480   7.764 -1.0538  0.2065  0.8700
  190MOL0     C24974   7.892   5.576   7.760  0.3281  0.1415  0.2839
  190MOL0     C24975   7.766   5.547   7.790  0.1187 -0.2254  0.1450
  190MOL0     C24976   7.724   5.425   7.854  0.1809  0.5816  0.2364
  190MOL0     C24977   7.580   5.403   7.890 -0.0457  0.4344 -0.0325
  190MOL0     O24978   7.499   5.510   7.850  0.1626  0.3025 -0.5489
  190MOL0     C24979   7.363   5.477   7.836 -0.5047  0.4793 -0.0492
  190MOL0     C24980   7.338   5.411   7.711  0.3518 -0.7674 -0.3971
  190MOL0     C24981   7.203   5.390   7.677  0.8432  0.6717  0.1337
  190MOL0     C24982   7.099   5.428   7.771  0.8467 -0.5234 -0.1902
  190MOL0     O24983   6.963   5.398   7.747 -0.4149 -0.0413  0.6892
  190MOL0     C24984   6.924   5.356   7.609  0.7830 -0.2700  0.1397
  190MOL0     C24985   6.766   5.372   7.589 -0.7247 -0.5671  0.5543
  190MOL0     C24986   6.688   5.280   7.493 -0.9525 -0.1486 -1.5261
  190MOL0     C24987   6.540   5.289   7.509  0.5794 -0.2779  0.0294
  190MOL0     C24988   6.476   5.173   7.430  0.6529 -0.1078 -0.1737
  190MOL0     C24989   6.342   5.207   7.385  0.0134 -0.3399  0.3317
  190MOL0     C24990   6.282   5.095   7.313  0.5426 -0.3822  0.9090
  190MOL0     C24991   6.323   5.088   7.169 -0.3534  0.3570  0.2845
  190MOL0    Cl24992   6.278   4.927   7.103 -0.0782  0.0171  0.2173
  190MOL0     C24993   7.129   5.492   7.892  0.4528 -0.4586  0.5244
  190MOL0     C24994   7.264   5.500   7.933  0.8798  0.6032 -0.3099
  190MOL0     O24995   7.546   5.293   7.947  0.5212 -0.2365 -0.5141
  190MOL0     C24996   7.830   5.333   7.871 -0.5626  0.4153 -0.8662
  190MOL0     C24997   7.958   5.359   7.829 -0.3946  1.3851  0.3260
  190MOL0     N24998   8.684   5.769   7.896 -0.6944 -0.5792  0.4588
  190MOL0     N24999   8.708   5.886   7.940  0.9405  0.6588  0.6001
  190MOL0     C25000   8.781   7.093   7.902 -0.5393  0.6763 -0.0553
  190MOL0     C25001   8.902   7.169   7.885 -0.3017  0.5382 -0.1398
  190MOL0     C25002   9.135   7.537   7.784  0.5310  0.1285 -0.1060
  190MOL0     C25003   9.127   7.666   7.833 -0.6878  0.0832  0.6278
  190MOL0     C25004   9.224   7.756   7.810 -0.0615 -0.9346 -0.7308
  190MOL0     C25005   9.325   7.734   7.726  0.2581  0.6008  0.7717
  190MOL0     O25006   9.421   7.826   7.700  0.1403  0.2307 -0.2275
  190MOL0     C25007   9.402   7.965   7.729  0.9522  1.5307  0.7660
  190MOL0     C25008   9.491   8.037   7.624 -0.4471 -0.1871  0.3219
  190MOL0     C25009   9.454   8.184   7.618  0.0060 -0.4070  0.1457
  190MOL0     C25010   9.527   8.250   7.507 -0.3754  0.4224  0.8063
  190MOL0     C25011   9.667   8.221   7.514  0.3179  0.1223  0.8579
  190MOL0     C25012   9.790   8.210   7.504  0.7982  0.2235 -0.5548
  190MOL0     C25013   9.346   7.603   7.676 -0.1986 -0.5246 -0.2556
  190MOL0     C25014   9.247   7.510   7.698 -0.1184  1.1577  0.5537
  190MOL0     H25015   8.857   7.266   7.560  0.8055 -0.4250 -0.7330
  190MOL0     H25016   8.650   7.132   7.593 -0.5321 -2.6651 -0.2538
  190MOL0     H25017   8.713   6.851   7.791 -0.4236  2.6411 -0.7892
  190MOL0     H25018   8.536   6.826   7.740  2.7228 -1.7747 -1.3741
  190MOL0     H25019   8.463   6.814   7.948  0.2879  1.0391 -1.0366
  190MOL0     H25020   8.625   6.842   8.023 -1.1003  2.7028 -0.6002
  190MOL0     H25021   8.579   6.584   8.041  1.2324 -1.0291 -1.0217
  190MOL0     H25022   8.685   6.605   7.919 -0.2638 -0.9014  1.6742
  190MOL0     H25023   8.385   6.602   7.858 -0.1119  0.8267 -1.7019
  190MOL0     H25024   8.519   6.595   7.750 -2.9045  0.0310 -0.9367
  190MOL0     H25025   8.399   6.373   7.795 -0.0437 -0.2682  0.0615
  190MOL0     H25026   8.426   6.394   7.971 -2.6755 -0.3211 -0.3047
  190MOL0     H25027   8.675   6.386   7.937 -1.2600 -0.7739  1.5007
  190MOL0     H25028   8.644   6.333   7.769  3.4521 -1.0487  0.4792
  190MOL0     H25029   8.620   6.180   8.023 -3.8989  0.4656  0.3202
  190MOL0     H25030   8.500   6.142   7.913  0.4888 -0.5261 -2.4135
  190MOL0     H25031   8.788   6.117   7.843 -0.2986  3.1923  0.0238
  190MOL0     H25032   8.655   6.137   7.717 -4.4919 -2.2898  0.1693
  190MOL0     H25033   8.549   5.922   7.648 -0.2225 -0.4797  0.1202
  190MOL0     H25034   8.649   5.567   7.727  2.7835  4.8579 -0.3893
  190MOL0     H25035   8.555   5.655   7.607  1.4307  1.1227  0.3108
  190MOL0     H25036   8.363   5.690   7.754 -3.4652 -1.8550 -0.5345
  190MOL0     H25037   8.425   5.575   7.873 -1.3599 -2.7281 -1.0972
  190MOL0     H25038   8.345   5.533   7.582  1.8097  1.4485  0.8785
  190MOL0     H25039   8.428   5.405   7.682 -1.4943 -1.5376  0.0409
  190MOL0     H25040   8.263   5.412   7.853  0.4577  1.8388 -0.0108
  190MOL0     H25041   8.204   5.321   7.707  0.6431 -0.0547 -0.4266
  190MOL0     H25042   7.906   5.673   7.715  0.8597  0.2309  0.6323
  190MOL0     H25043   7.692   5.620   7.758  1.7099  1.6044  0.4070
  190MOL0     H25044   7.418   5.392   7.640  0.7997 -2.2977  0.4630
  190MOL0     H25045   7.186   5.353   7.577  1.3627 -1.9396  0.9329
  190MOL0     H25046   6.950   5.250   7.603  0.1091 -0.4684  0.6378
  190MOL0     H25047   6.967   5.423   7.533 -1.2370 -1.9957 -2.6997
  190MOL0     H25048   6.754   5.473   7.549  1.7957 -0.6527 -0.5430
  190MOL0     H25049   6.731   5.382   7.693 -0.4502  2.9236  0.4315
  190MOL0     H25050   6.724   5.178   7.511 -2.1697 -0.1868  1.1525
  190MOL0     H25051   6.717   5.314   7.393  2.2022  2.5896  0.1160
  190MOL0     H25052   6.520   5.282   7.616 -0.3679  1.3377 -0.0072
  190MOL0     H25053   6.515   5.389   7.473  5.4582  2.1106  2.3346
  190MOL0     H25054   6.459   5.091   7.501 -2.4228  0.8168  0.3233
  190MOL0     H25055   6.536   5.148   7.343 -0.4029 -0.2958 -0.8697
  190MOL0     H25056   6.347   5.288   7.312  0.2750  0.1203  0.8516
  190MOL0     H25057   6.293   5.228   7.481  1.0540 -0.2103  0.8582
  190MOL0     H25058   6.316   4.999   7.354  2.7767 -0.7936 -1.6653
  190MOL0     H25059   6.173   5.109   7.310  0.7228  1.3050  1.4176
  190MOL0     H25060   6.432   5.098   7.161 -0.0881 -2.4113 -0.5054
  190MOL0     H25061   6.279   5.177   7.123  0.4279  0.8460  0.4519
  190MOL0     H25062   7.044   5.532   7.946  1.0707  2.9551 -0.7358
  190MOL0     H25063   7.278   5.534   8.035 -1.4159  2.7011 -0.6071
  190MOL0     H25064   7.812   5.241   7.925  3.6602 -1.2837 -1.9629
  190MOL0     H25065   8.018   5.268   7.827 -3.0161 -0.4983  1.0803
  190MOL0     H25066   8.769   7.052   8.002  0.1840 -1.6755 -0.8627
  190MOL0     H25067   8.967   7.183   7.970 -0.6641  1.7231 -0.0344
  190MOL0     H25068   9.039   7.694   7.890 -1.9063 -2.2558  0.0189
  190MOL0     H25069   9.205   7.860   7.835  1.9237 -0.0417 -2.6125
  190MOL0     H25070   9.448   7.994   7.824 -1.5310  0.9287  2.2464
  190MOL0     H25071   9.296   7.992   7.727 -0.5898 -3.3329  1.0450
  190MOL0     H25072   9.595   8.013   7.648  0.5312  3.2321  0.0579
  190MOL0     H25073   9.458   7.998   7.528  1.6443  1.5378 -1.2014
  190MOL0     H25074   9.471   8.223   7.719 -1.3389 -2.1740  1.1206
  190MOL0     H25075   9.347   8.201   7.604  0.1339  1.8585  1.4334
  190MOL0     H25076   9.492   8.211   7.411  0.4390 -2.3033  1.5003
  190MOL0     H25077   9.506   8.356   7.518 -1.1968  0.4124 -0.4141
  190MOL0     H25078   9.895   8.202   7.487  0.6804  2.2720 -2.6668
  190MOL0     H25079   9.436   7.576   7.621  1.1468  2.2498  0.4153
  190MOL0     H25080   9.253   7.410   7.656  0.5339  1.4211  0.0063
  191MOL0     O25081   3.597   0.507   8.283  0.4945 -0.6047 -0.1489
  191MOL0     C25082   3.553   0.487   8.170 -0.0373  0.3332 -0.5086
  191MOL0     O25083   3.622   0.439   8.056 -0.2168 -0.2462  0.0095
  191MOL0     C25084   3.751   0.394   8.054  0.0717  0.4325 -0.5817
  191MOL0     C25085   3.825   0.322   8.163  0.5902 -1.0262 -0.0820
  191MOL0     C25086   3.955   0.278   8.151 -0.1987  0.2586 -0.0729
  191MOL0     C25087   4.018   0.276   8.023  0.0742  0.3572 -0.0857
  191MOL0     O25088   4.141   0.226   8.012  0.0255  0.6543  0.1222
  191MOL0     C25089   4.135   0.078   8.038  0.2415  0.5468  0.3026
  191MOL0     C25090   4.203   0.033   8.168  0.1825  0.5084 -0.4072
  191MOL0     C25091   4.207  -0.115   8.166  0.9851 -0.1179  0.1183
  191MOL0     C25092   4.289  -0.163   8.281  0.1017 -0.2322  0.9159
  191MOL0     C25093   4.306  -0.314   8.283  0.5147 -0.5268 -0.0656
  191MOL0     C25094   4.418  -0.343   8.377 -0.1816  0.5084  0.2150
  191MOL0     C25095   4.448  -0.491   8.392 -0.1774 -0.2373 -0.0450
  191MOL0     C25096   4.584  -0.516   8.318 -0.2099  0.2305 -0.2592
  191MOL0     N25097   4.627  -0.659   8.336  0.1821  0.4814 -0.0569
  191MOL0     C25098   4.713  -0.717   8.239 -0.1336 -0.0008 -0.4893
  191MOL0     C25099   4.796  -0.786   8.318 -0.2325 -1.1858  0.2346
  191MOL0     C25100   4.896  -0.876   8.272  0.5271  0.3951  1.2105
  191MOL0     C25101   4.844  -0.959   8.150  0.3125  0.8483 -1.2331
  191MOL0     C25102   4.926  -1.092   8.155 -0.4549 -0.8379 -0.5990
  191MOL0     C25103   4.896  -1.187   8.044 -1.0796  0.2725 -0.1102
  191MOL0     O25104   4.772  -1.256   8.064  0.1507  0.4090 -0.4784
  191MOL0     C25105   4.755  -1.380   8.004  0.2600 -0.3298  0.1891
  191MOL0     C25106   4.673  -1.471   8.060 -0.1878  0.0951  0.5672
  191MOL0     C25107   4.660  -1.602   8.004  0.1627 -0.3794 -0.8648
  191MOL0     C25108   4.706  -1.622   7.873 -0.0909  0.0869  0.0231
  191MOL0     C25109   4.668  -1.738   7.798  0.4475  0.1710  0.1715
  191MOL0     O25110   4.613  -1.844   7.867 -0.8449  0.0874  0.6714
  191MOL0     C25111   4.580  -1.964   7.816  1.1219 -0.3962  0.4812
  191MOL0     C25112   4.664  -2.039   7.732 -0.5867 -0.0113  0.0618
  191MOL0     C25113   4.627  -2.169   7.683  0.4218  0.0747  0.0531
  191MOL0     C25114   4.505  -2.219   7.701 -0.4939 -0.5372  0.4862
  191MOL0     O25115   4.470  -2.335   7.644  0.4700 -0.9368 -0.4262
  191MOL0     C25116   4.409  -2.429   7.742 -0.2421  0.6897 -0.2763
  191MOL0     C25117   4.364  -2.548   7.654 -0.1939  0.1209 -0.4790
  191MOL0     C25118   4.286  -2.652   7.734 -0.1611  0.3016  0.2549
  191MOL0     C25119   4.249  -2.783   7.659 -0.1722 -0.7660 -0.8441
  191MOL0     C25120   4.364  -2.869   7.641 -0.3346  0.3275  0.9036
  191MOL0     C25121   4.326  -3.006   7.598  0.8464 -0.1699  0.7650
  191MOL0     C25122   4.299  -3.010   7.454  0.4362  0.9043 -0.3797
  191MOL0     C25123   4.266  -3.153   7.406  0.0761  1.3050  0.5438
  191MOL0    Cl25124   4.104  -3.186   7.464 -0.1034  0.1591 -0.3610
  191MOL0     C25125   4.414  -2.148   7.788  0.5074 -0.5278  0.1121
  191MOL0     C25126   4.453  -2.024   7.850  0.2920 -0.1025 -0.9587
  191MOL0     O25127   4.680  -1.731   7.673  0.3507  1.1815  0.2495
  191MOL0     C25128   4.793  -1.533   7.818 -0.0830 -0.1166  0.0539
  191MOL0     C25129   4.819  -1.411   7.882 -0.6217 -0.8318  0.3355
  191MOL0     N25130   4.767  -0.775   8.459  0.0424  0.2964  0.9657
  191MOL0     N25131   4.664  -0.700   8.460  0.0099  1.3032  0.7245
  191MOL0     C25132   3.945   0.335   7.914  0.1638 -0.0222 -0.0955
  191MOL0     C25133   3.819   0.393   7.930 -0.7644  0.1348  0.9103
  191MOL0     C25134   3.409   0.514   8.141 -0.3539 -0.4332 -0.5999
  191MOL0     C25135   3.350   0.468   8.025 -0.5112  1.0207 -0.1146
  191MOL0     C25136   3.212   0.464   8.007 -0.1093 -0.9423  0.5536
  191MOL0     C25137   3.129   0.538   8.093 -0.3988  0.4238  0.6285
  191MOL0     O25138   2.989   0.545   8.087  0.3888 -0.7912  0.3223
  191MOL0     C25139   2.919   0.441   8.029  0.5161 -0.6229 -0.0048
  191MOL0     C25140   2.933   0.309   8.110 -0.3191 -0.0885 -0.7483
  191MOL0     C25141   2.947   0.187   8.016  0.4352 -0.0493  0.7529
  191MOL0     C25142   2.984   0.073   8.105  1.0938  0.2277  0.2838
  191MOL0     C25143   2.930  -0.052   8.039 -0.5137  0.7797  0.3212
  191MOL0     C25144   2.899  -0.152   7.986 -1.6934  0.7819  0.6712
  191MOL0     C25145   3.189   0.588   8.217 -0.2908  0.4549  0.3623
  191MOL0     C25146   3.320   0.568   8.244 -0.5378  0.4224 -0.6633
  191MOL0     H25147   3.777   0.309   8.260 -3.9288 -1.0501 -2.0301
  191MOL0     H25148   4.014   0.244   8.235  0.3346  1.8924  0.2445
  191MOL0     H25149   4.173   0.024   7.950 -0.0609  0.2550  0.3476
  191MOL0     H25150   4.033   0.042   8.057  1.3225 -1.1322  3.6025
  191MOL0     H25151   4.152   0.087   8.249  2.5024  1.8132  0.2661
  191MOL0     H25152   4.305   0.070   8.177 -0.2059  2.2034 -2.1329
  191MOL0     H25153   4.248  -0.146   8.069  1.8250 -2.6188  1.2091
  191MOL0     H25154   4.103  -0.148   8.175 -0.6392  4.2078 -0.3750
  191MOL0     H25155   4.384  -0.108   8.282  0.6268 -1.1183  1.5806
  191MOL0     H25156   4.246  -0.135   8.378 -5.8676 -2.0601 -0.7734
  191MOL0     H25157   4.334  -0.359   8.187 -0.6484  0.2807 -0.8108
  191MOL0     H25158   4.222  -0.374   8.316  1.0804 -1.3503 -0.0937
  191MOL0     H25159   4.391  -0.297   8.472  0.0794  1.4439 -0.1526
  191MOL0     H25160   4.505  -0.283   8.348  0.5484 -1.5435 -2.2154
  191MOL0     H25161   4.456  -0.512   8.499  1.7500  2.2015  0.3770
  191MOL0     H25162   4.366  -0.550   8.349  0.5045 -2.0296  0.9891
  191MOL0     H25163   4.661  -0.458   8.371  0.4172 -0.9470  0.1580
  191MOL0     H25164   4.564  -0.500   8.212 -2.9858  1.1891  0.3129
  191MOL0     H25165   4.717  -0.712   8.130  1.1970 -2.3432 -0.6193
  191MOL0     H25166   4.923  -0.940   8.356  0.0575  0.7649  1.6482
  191MOL0     H25167   4.976  -0.816   8.227  0.0666  1.5036  1.8280
  191MOL0     H25168   4.850  -0.909   8.053  3.4034 -0.9984 -2.1327
  191MOL0     H25169   4.744  -0.996   8.175 -0.0504  1.1342 -2.2284
  191MOL0     H25170   5.033  -1.067   8.150 -0.1610 -1.8557  0.1504
  191MOL0     H25171   4.923  -1.139   8.254  0.2118 -3.5192 -1.7736
  191MOL0     H25172   4.982  -1.253   8.055  0.8689  2.7081  0.1360
  191MOL0     H25173   4.913  -1.129   7.953  1.5844  1.2490  0.9212
  191MOL0     H25174   4.643  -1.462   8.164  2.4034 -1.0944  1.4990
  191MOL0     H25175   4.597  -1.679   8.048  0.8110  0.0543  0.9143
  191MOL0     H25176   4.765  -2.004   7.711 -0.7341 -0.3411 -1.3005
  191MOL0     H25177   4.691  -2.225   7.617 -2.9888 -3.6769 -0.4635
  191MOL0     H25178   4.312  -2.388   7.774 -1.2868 -0.1416 -2.2368
  191MOL0     H25179   4.476  -2.450   7.826 -1.8899 -1.6559  0.5659
  191MOL0     H25180   4.454  -2.600   7.619 -0.9554 -2.0566  0.5709
  191MOL0     H25181   4.302  -2.507   7.573  1.8269  5.5236  0.3385
  191MOL0     H25182   4.192  -2.600   7.755 -0.0094 -0.5599  3.6450
  191MOL0     H25183   4.343  -2.678   7.824  2.5673  1.7905 -0.9402
  191MOL0     H25184   4.172  -2.830   7.721  1.8322 -2.7764  0.3026
  191MOL0     H25185   4.201  -2.756   7.565  2.1944 -3.0284 -2.8474
  191MOL0     H25186   4.414  -2.887   7.737 -0.2142 -1.2430  0.5780
  191MOL0     H25187   4.441  -2.835   7.572  0.0115 -2.3625 -0.1677
  191MOL0     H25188   4.239  -3.034   7.658  1.2284  0.6095  1.7067
  191MOL0     H25189   4.412  -3.068   7.622 -0.0206 -2.0850 -0.7996
  191MOL0     H25190   4.217  -2.942   7.430 -3.6269 -1.7691  4.1461
  191MOL0     H25191   4.385  -2.971   7.399  2.3479 -0.7717  1.2635
  191MOL0     H25192   4.334  -3.223   7.456 -0.9704  0.1808  0.4303
  191MOL0     H25193   4.278  -3.155   7.297  0.8721  2.8955  0.5705
  191MOL0     H25194   4.317  -2.187   7.815 -0.5128  1.1220 -1.0247
  191MOL0     H25195   4.389  -1.982   7.926 -0.7215 -4.8209  1.1305
  191MOL0     H25196   4.850  -1.548   7.727  0.0395 -1.2281  0.2996
  191MOL0     H25197   4.901  -1.350   7.846  2.1113 -2.1645  3.7881
  191MOL0     H25198   3.977   0.319   7.811 -1.2737 -0.2269 -0.5385
  191MOL0     H25199   3.771   0.419   7.836 -2.5605 -4.9689  0.0803
  191MOL0     H25200   3.401   0.427   7.938 -0.3556  2.4880 -0.7367
  191MOL0     H25201   3.177   0.403   7.924  3.4647  0.6373 -2.4305
  191MOL0     H25202   2.960   0.423   7.930 -0.0663  0.1953 -0.4113
  191MOL0     H25203   2.811   0.455   8.023  0.7213  0.5054 -2.2075
  191MOL0     H25204   3.027   0.305   8.165 -0.6953  0.6751 -0.0252
  191MOL0     H25205   2.846   0.294   8.175 -0.7065  1.4443 -0.8590
  191MOL0     H25206   3.023   0.211   7.942 -2.8676  0.5912 -2.6972
  191MOL0     H25207   2.847   0.177   7.974 -0.0278 -3.6540  2.2866
  191MOL0     H25208   3.088   0.050   8.128  0.4829  0.2636  3.7234
  191MOL0     H25209   2.942   0.081   8.206 -2.0238 -0.2288 -0.8667
  191MOL0     H25210   2.871  -0.246   7.944 -0.2003  1.4403 -2.0324
  191MOL0     H25211   3.125   0.638   8.289 -0.0919  2.3402 -0.7175
  191MOL0     H25212   3.364   0.609   8.334 -1.3054 -1.2468  0.5171
  192MOL0     O25213   3.583   3.882   0.834 -0.2692  0.4014  0.0186
  192MOL0     C25214   3.659   3.932   0.752 -0.1280 -0.5682 -0.3576
  192MOL0     O25215   3.792   3.943   0.771  0.2463 -0.0424  0.5255
  192MOL0     C25216   3.863   3.907   0.880  0.1137  0.6235  0.9018
  192MOL0     C25217   3.817   3.936   1.011  0.0048 -0.7982 -0.6086
  192MOL0     C25218   3.891   3.897   1.129 -0.0620  0.1591 -0.4723
  192MOL0     C25219   4.017   3.849   1.105 -0.1473 -0.3314 -0.2416
  192MOL0     O25220   4.107   3.806   1.207 -0.2329 -0.5281 -0.3660
  192MOL0     C25221   4.093   3.863   1.343 -0.3658 -0.0891 -0.8443
  192MOL0     C25222   4.216   3.848   1.433 -0.6791 -0.1512  0.4306
  192MOL0     C25223   4.188   3.889   1.577 -0.5676  0.7353 -0.3676
  192MOL0     C25224   4.305   3.858   1.677 -0.6568 -0.0776 -0.3243
  192MOL0     C25225   4.302   3.925   1.805  0.1166  0.5521 -0.6187
  192MOL0     C25226   4.422   3.892   1.896  0.4067  0.0130  0.2706
  192MOL0     C25227   4.414   3.977   2.020 -1.1728 -0.8019 -0.8334
  192MOL0     C25228   4.472   3.923   2.150  0.8169  0.5269 -0.7631
  192MOL0     N25229   4.374   3.831   2.221  0.6220  0.5798  0.3073
  192MOL0     C25230   4.302   3.881   2.329 -0.7052 -0.6556 -0.6737
  192MOL0     C25231   4.243   3.772   2.383 -0.5365  0.9848  0.8085
  192MOL0     C25232   4.168   3.766   2.511 -0.4056  0.2144  1.1445
  192MOL0     C25233   4.100   3.904   2.552  0.7764 -0.3278 -1.5146
  192MOL0     C25234   3.989   3.888   2.656  0.4093 -0.4235 -0.6902
  192MOL0     C25235   3.902   4.017   2.676  0.1824  0.0425  0.5953
  192MOL0     O25236   3.976   4.128   2.740 -1.1423  0.6848 -0.4720
  192MOL0     C25237   3.964   4.140   2.874 -0.0604  0.8200 -0.8451
  192MOL0     C25238   3.903   4.052   2.961 -0.0882 -0.2508 -0.7786
  192MOL0     C25239   3.889   4.086   3.095  0.2426  0.2950  1.0930
  192MOL0     C25240   3.955   4.192   3.151 -0.3479  0.4488 -0.0321
  192MOL0     C25241   3.960   4.211   3.294 -0.9199 -0.6109 -0.9812
  192MOL0     O25242   3.882   4.129   3.373  0.0285 -0.0377 -0.5948
  192MOL0     C25243   3.891   4.128   3.512 -0.0611  0.2427 -0.2878
  192MOL0     C25244   4.015   4.118   3.567 -0.0581 -0.3658  0.3167
  192MOL0     C25245   4.026   4.132   3.715  0.4856 -0.0318  0.1131
  192MOL0     C25246   3.913   4.155   3.793 -1.0985 -0.0700  0.6823
  192MOL0     O25247   3.929   4.174   3.932  0.5359  0.0358 -0.3856
  192MOL0     C25248   3.908   4.312   3.966  0.1853  0.7405 -0.3950
  192MOL0     C25249   3.916   4.328   4.122 -0.4965 -0.0297 -0.0767
  192MOL0     C25250   3.796   4.252   4.184  0.4940  1.0670 -0.6297
  192MOL0     C25251   3.687   4.350   4.227 -0.1658  0.2468 -0.0730
  192MOL0     C25252   3.569   4.290   4.303  0.5572  0.4186  0.5722
  192MOL0     C25253   3.464   4.409   4.317 -0.2202 -0.1705  0.4275
  192MOL0     C25254   3.337   4.383   4.410  1.0602  0.3881 -1.3228
  192MOL0     C25255   3.351   4.389   4.563 -0.0648 -0.6186  0.6954
  192MOL0    Cl25256   3.414   4.232   4.625  0.1269  0.4675 -0.4171
  192MOL0     C25257   3.786   4.154   3.725 -0.2138 -0.7922  0.2587
  192MOL0     C25258   3.780   4.141   3.583  1.5310 -0.2115 -0.3843
  192MOL0     O25259   4.026   4.304   3.332 -0.1114 -0.3528 -0.8123
  192MOL0     C25260   4.014   4.292   3.066  0.5019 -0.5116 -0.2961
  192MOL0     C25261   4.022   4.258   2.926 -0.5832  0.1092 -0.6734
  192MOL0     N25262   4.290   3.662   2.315 -0.8572  0.6014 -0.5616
  192MOL0     N25263   4.365   3.698   2.213  0.8106  0.5580 -0.6282
  192MOL0     C25264   4.064   3.824   0.980 -0.6260 -0.0151 -0.1025
  192MOL0     C25265   3.987   3.859   0.867  0.7597 -0.4642  0.0011
  192MOL0     C25266   3.594   3.997   0.634  0.0765  0.3452  0.6328
  192MOL0     C25267   3.673   4.076   0.553  0.4363 -0.8651  0.2069
  192MOL0     C25268   3.611   4.153   0.445  0.0380  0.3001 -0.1095
  192MOL0     C25269   3.474   4.149   0.432  0.0941 -1.1843  0.5056
  192MOL0     O25270   3.413   4.257   0.363  0.0793  0.4714 -0.4516
  192MOL0     C25271   3.451   4.275   0.226 -0.0573  0.1706 -0.3324
  192MOL0     C25272   3.535   4.398   0.202 -0.6570 -1.1284  0.3961
  192MOL0     C25273   3.551   4.444   0.058 -0.3239 -0.6400  0.2203
  192MOL0     C25274   3.668   4.385  -0.001 -0.8906  0.2052 -0.9443
  192MOL0     C25275   3.794   4.446   0.025  0.1285 -0.4878 -0.2810
  192MOL0     C25276   3.898   4.495   0.063  0.7465  0.4200 -1.1589
  192MOL0     C25277   3.398   4.069   0.517 -0.7923  0.3495  1.0398
  192MOL0     C25278   3.457   3.987   0.609 -0.2395 -0.2260  0.5338
  192MOL0     H25279   3.727   3.991   1.032  2.2666  3.6211 -1.3758
  192MOL0     H25280   3.854   3.920   1.229  4.1089  0.6086  1.1738
  192MOL0     H25281   4.003   3.819   1.386 -1.8759  0.2606 -3.4272
  192MOL0     H25282   4.067   3.969   1.328 -0.1130  0.3333  1.3001
  192MOL0     H25283   4.295   3.911   1.391  1.3443 -3.0847 -0.4314
  192MOL0     H25284   4.255   3.746   1.442 -0.7732 -0.3836 -1.5207
  192MOL0     H25285   4.110   3.823   1.614  0.5930 -0.5763 -0.1748
  192MOL0     H25286   4.170   3.997   1.584 -0.3486  0.8335 -1.1749
  192MOL0     H25287   4.312   3.749   1.692 -0.6996 -0.1502 -0.8097
  192MOL0     H25288   4.401   3.894   1.638  1.2058  0.0571  3.8215
  192MOL0     H25289   4.218   3.878   1.855  0.1805 -0.1728 -1.1783
  192MOL0     H25290   4.285   4.033   1.795 -2.4114  0.4201  1.4058
  192MOL0     H25291   4.515   3.922   1.847 -0.1363  0.1466 -0.7043
  192MOL0     H25292   4.413   3.785   1.916 -0.6759  0.0220 -0.1065
  192MOL0     H25293   4.474   4.066   2.001  1.1428 -2.2002 -0.5565
  192MOL0     H25294   4.310   3.995   2.045 -1.1679 -2.5300  0.6026
  192MOL0     H25295   4.495   3.992   2.231 -1.3184  1.5153 -0.9306
  192MOL0     H25296   4.559   3.859   2.129  0.2472 -0.7679  0.6687
  192MOL0     H25297   4.283   3.986   2.348 -0.0290 -0.4428 -1.1408
  192MOL0     H25298   4.234   3.733   2.592  5.0453 -1.7512 -3.4032
  192MOL0     H25299   4.095   3.688   2.493 -0.2669  0.2951  0.1558
  192MOL0     H25300   4.038   3.936   2.467  4.2844  0.2718 -4.0531
  192MOL0     H25301   4.173   3.980   2.577  0.3220  0.3013 -2.0513
  192MOL0     H25302   3.930   3.809   2.608  1.6335 -2.0593  0.4057
  192MOL0     H25303   4.023   3.860   2.756  4.1250  0.4651 -1.5250
  192MOL0     H25304   3.811   3.982   2.726  0.0363 -1.3736 -0.5965
  192MOL0     H25305   3.871   4.058   2.579 -0.5300 -2.7907 -0.4610
  192MOL0     H25306   3.864   3.959   2.921 -0.7804 -0.1848 -0.2758
  192MOL0     H25307   3.827   4.026   3.162  1.4723 -1.3696  0.8094
  192MOL0     H25308   4.102   4.086   3.510  0.6253 -2.9620  2.6113
  192MOL0     H25309   4.122   4.124   3.765  1.9171 -0.4454 -2.5128
  192MOL0     H25310   3.812   4.351   3.931  1.0315  1.5270 -1.9584
  192MOL0     H25311   3.983   4.377   3.919 -0.8958 -0.7937 -4.7784
  192MOL0     H25312   3.929   4.431   4.157 -1.8808  0.4331 -0.8280
  192MOL0     H25313   4.003   4.273   4.159 -1.0973 -1.3327 -0.5410
  192MOL0     H25314   3.836   4.213   4.278 -1.3669 -1.9802 -0.9636
  192MOL0     H25315   3.761   4.162   4.131  2.6563  1.4290 -2.8739
  192MOL0     H25316   3.731   4.435   4.281 -0.3651 -0.3791  1.1174
  192MOL0     H25317   3.636   4.396   4.142 -0.6507 -0.4488 -0.1675
  192MOL0     H25318   3.592   4.258   4.405 -1.8429 -2.6694  0.2845
  192MOL0     H25319   3.516   4.215   4.244 -1.7234  1.9034  0.5850
  192MOL0     H25320   3.426   4.440   4.219 -0.0640  0.1141  0.4566
  192MOL0     H25321   3.511   4.498   4.360  4.1427 -1.8419 -0.2652
  192MOL0     H25322   3.255   4.453   4.394  1.1854  0.1991 -2.9017
  192MOL0     H25323   3.305   4.282   4.386  3.9233 -0.1244 -3.5954
  192MOL0     H25324   3.257   4.401   4.618 -1.6098 -0.8692 -1.7479
  192MOL0     H25325   3.413   4.473   4.593 -1.9174  0.1455  2.6343
  192MOL0     H25326   3.689   4.166   3.772 -0.0501 -0.3177  0.4867
  192MOL0     H25327   3.688   4.168   3.533 -1.5367 -0.5510  4.4255
  192MOL0     H25328   4.063   4.382   3.103 -3.2254  2.9432 -2.9578
  192MOL0     H25329   4.082   4.321   2.860 -0.6813  0.7723 -0.1415
  192MOL0     H25330   4.153   3.762   0.970 -0.4956  0.4229 -2.3310
  192MOL0     H25331   4.037   3.840   0.772  0.6969  1.7235 -0.5048
  192MOL0     H25332   3.780   4.076   0.568  0.3020 -3.1808  1.7384
  192MOL0     H25333   3.675   4.215   0.385 -0.5234  0.9460 -0.0492
  192MOL0     H25334   3.362   4.282   0.164 -1.3229 -2.4920  1.0190
  192MOL0     H25335   3.509   4.187   0.195 -0.0404  0.5903 -1.5408
  192MOL0     H25336   3.487   4.484   0.251  3.1927  2.0892 -0.9626
  192MOL0     H25337   3.630   4.365   0.243 -0.0456 -2.0166 -1.6041
  192MOL0     H25338   3.555   4.553   0.048 -1.4466 -0.6018 -0.0131
  192MOL0     H25339   3.465   4.411  -0.001 -2.3254  0.8870  2.1090
  192MOL0     H25340   3.691   4.279   0.014  0.5430  0.4576 -1.2464
  192MOL0     H25341   3.666   4.390  -0.110  0.6723 -0.8420 -1.0510
  192MOL0     H25342   3.990   4.527   0.108 -0.4950  0.2765  1.7338
  192MOL0     H25343   3.291   4.061   0.504 -0.4255 -2.9480 -1.0148
  192MOL0     H25344   3.399   3.907   0.654 -1.8832  1.2345  1.1095
  193MOL0     O25345   5.806   1.981   5.179  0.9807  0.2929 -1.1591
  193MOL0     C25346   5.716   1.972   5.105 -0.6802 -0.4946  0.1513
  193MOL0     O25347   5.629   2.068   5.085 -0.0769 -0.6979 -0.9243
  193MOL0     C25348   5.630   2.185   5.167 -0.4159  0.7223  0.1991
  193MOL0     C25349   5.746   2.254   5.185  0.3522  0.0086  0.1913
  193MOL0     C25350   5.737   2.383   5.237  0.4697 -0.1255 -0.5911
  193MOL0     C25351   5.621   2.439   5.277  0.3874 -0.1731 -0.9809
  193MOL0     O25352   5.638   2.568   5.327 -0.0434  1.0166  0.0890
  193MOL0     C25353   5.532   2.628   5.394 -0.9721 -0.6472  0.1910
  193MOL0     C25354   5.435   2.697   5.299  0.9947  1.3826 -0.0851
  193MOL0     C25355   5.333   2.773   5.377 -1.0559 -0.0242  0.0617
  193MOL0     C25356   5.231   2.838   5.293  0.7946  0.0908 -0.9985
  193MOL0     C25357   5.088   2.841   5.341  1.1267 -0.1634  0.3888
  193MOL0     C25358   5.020   2.706   5.351  0.5184 -0.0975 -0.1516
  193MOL0     C25359   4.874   2.712   5.370  0.8244  0.0559 -0.5219
  193MOL0     C25360   4.847   2.756   5.512 -0.1136 -0.6122  1.1038
  193MOL0     N25361   4.701   2.763   5.528  0.2738  1.0305  0.6405
  193MOL0     C25362   4.618   2.674   5.603  0.1425 -0.4707  0.6637
  193MOL0     C25363   4.501   2.737   5.608 -0.1637  0.5752 -1.3569
  193MOL0     C25364   4.382   2.706   5.702  0.6141  0.4591  0.1923
  193MOL0     C25365   4.321   2.567   5.691  0.1277 -0.3926  0.7966
  193MOL0     C25366   4.218   2.545   5.582  0.1236 -0.3225 -0.3272
  193MOL0     C25367   4.130   2.417   5.598  0.8826 -0.3024 -0.3327
  193MOL0     O25368   4.032   2.391   5.496 -0.0803  0.2880 -0.9102
  193MOL0     C25369   3.903   2.389   5.552 -0.4074  0.4697 -0.1222
  193MOL0     C25370   3.803   2.449   5.477  0.7301  0.0445 -0.1798
  193MOL0     C25371   3.669   2.450   5.520  0.6391  0.6542 -0.3472
  193MOL0     C25372   3.634   2.374   5.632 -0.4006 -0.2377 -0.0871
  193MOL0     C25373   3.490   2.351   5.656 -0.1086  0.3156 -0.1796
  193MOL0     O25374   3.410   2.349   5.549 -0.7909  0.3973  0.4219
  193MOL0     C25375   3.274   2.323   5.533  0.7225 -0.5737  0.5092
  193MOL0     C25376   3.211   2.332   5.406 -0.6381  0.5945  1.1354
  193MOL0     C25377   3.069   2.309   5.401 -0.5802 -0.0082  0.1965
  193MOL0     C25378   2.996   2.269   5.505 -0.8859 -0.6676 -1.0658
  193MOL0     O25379   2.869   2.243   5.485 -0.5637 -0.5130  0.3252
  193MOL0     C25380   2.775   2.281   5.585  0.9274  0.9714 -0.4208
  193MOL0     C25381   2.623   2.266   5.556  0.2400  0.4629 -0.1053
  193MOL0     C25382   2.582   2.344   5.439 -0.2770 -0.8015  0.3223
  193MOL0     C25383   2.501   2.466   5.472  0.4622  0.8869  0.0657
  193MOL0     C25384   2.488   2.549   5.341 -0.8698 -0.4385 -0.3697
  193MOL0     C25385   2.396   2.676   5.355 -0.7960 -0.2863 -0.0608
  193MOL0     C25386   2.265   2.669   5.275 -0.3450  0.0284  0.5331
  193MOL0     C25387   2.179   2.546   5.329  0.0880  0.8085  0.4728
  193MOL0    Cl25388   2.108   2.606   5.479  0.0842  0.0635 -0.2809
  193MOL0     C25389   3.065   2.253   5.629  1.8075  0.3291 -0.1555
  193MOL0     C25390   3.195   2.282   5.640 -0.0868 -0.6648 -0.0329
  193MOL0     O25391   3.453   2.335   5.769  0.0107 -0.6582 -0.9375
  193MOL0     C25392   3.729   2.329   5.717  0.3637 -0.6737 -0.5582
  193MOL0     C25393   3.867   2.327   5.679 -0.4853 -0.9543  0.6944
  193MOL0     N25394   4.505   2.846   5.530 -0.0087 -0.4118  0.3021
  193MOL0     N25395   4.627   2.871   5.497 -0.3904 -0.7838 -0.3989
  193MOL0     C25396   5.507   2.368   5.270 -0.4872 -0.6518  0.1857
  193MOL0     C25397   5.511   2.239   5.211  0.1456 -0.1778 -0.2636
  193MOL0     C25398   5.704   1.838   5.035 -0.3824 -0.5596  0.5692
  193MOL0     C25399   5.594   1.815   4.943 -0.4535  0.3832 -1.4731
  193MOL0     C25400   5.577   1.707   4.875  0.8171  0.0184  0.4130
  193MOL0     C25401   5.678   1.612   4.871  0.5776 -0.0496 -0.7597
  193MOL0     O25402   5.637   1.495   4.815  0.1278  0.4321  0.0798
  193MOL0     C25403   5.738   1.400   4.778 -0.9638  0.1376 -0.5015
  193MOL0     C25404   5.829   1.456   4.674  0.6082  0.0017  0.3921
  193MOL0     C25405   5.886   1.350   4.573 -0.4516 -0.3149  0.0334
  193MOL0     C25406   5.937   1.404   4.435  0.0702  0.6572  0.1320
  193MOL0     C25407   5.996   1.295   4.348  0.7473  0.7623 -0.3330
  193MOL0     C25408   6.045   1.204   4.284  0.1879  0.0186  0.5132
  193MOL0     C25409   5.802   1.632   4.941 -0.8575 -0.3493  0.5330
  193MOL0     C25410   5.813   1.742   5.025  0.8333  0.0281  0.3277
  193MOL0     H25411   5.843   2.236   5.140  0.9500 -0.8151  1.7333
  193MOL0     H25412   5.820   2.452   5.248 -2.4437  3.5348  0.4432
  193MOL0     H25413   5.581   2.696   5.464  0.5537 -2.9105  1.4422
  193MOL0     H25414   5.487   2.555   5.462 -0.0673 -1.3528  0.0399
  193MOL0     H25415   5.384   2.612   5.253  0.5328  0.6363  1.7300
  193MOL0     H25416   5.484   2.762   5.225  4.9934 -0.6148  0.5658
  193MOL0     H25417   5.383   2.850   5.436 -0.1004  0.5247 -1.3932
  193MOL0     H25418   5.270   2.703   5.433 -1.9406  1.0259  0.3946
  193MOL0     H25419   5.255   2.943   5.272 -0.7415  0.9011  0.9583
  193MOL0     H25420   5.218   2.781   5.201 -0.0312  1.7586 -1.9679
  193MOL0     H25421   5.033   2.905   5.273 -1.0855 -0.6655  1.6036
  193MOL0     H25422   5.074   2.883   5.441 -0.0573  3.4667 -1.1395
  193MOL0     H25423   5.072   2.671   5.440  3.0990  0.8981 -1.1813
  193MOL0     H25424   5.051   2.639   5.270 -1.5074 -1.4684  0.1263
  193MOL0     H25425   4.836   2.793   5.306 -1.2117  1.2339  1.9907
  193MOL0     H25426   4.830   2.616   5.342 -2.1675  1.8981 -2.8874
  193MOL0     H25427   4.896   2.851   5.536  2.0124 -0.7928 -1.9687
  193MOL0     H25428   4.880   2.676   5.580  0.5571 -1.4677 -0.1950
  193MOL0     H25429   4.655   2.581   5.645 -2.7183 -1.5973  0.9251
  193MOL0     H25430   4.302   2.781   5.698  1.2255  1.4475  3.5141
  193MOL0     H25431   4.419   2.710   5.805  2.5427 -3.1702 -0.1795
  193MOL0     H25432   4.268   2.548   5.784 -1.2450 -1.8952 -0.2241
  193MOL0     H25433   4.396   2.493   5.658 -1.4587 -0.7401 -2.5028
  193MOL0     H25434   4.160   2.637   5.570  2.8332  1.3261 -1.7808
  193MOL0     H25435   4.269   2.534   5.486  4.4031  2.3398  1.3472
  193MOL0     H25436   4.087   2.432   5.698  0.8977  0.5102 -0.4441
  193MOL0     H25437   4.198   2.332   5.596  1.2040 -0.0321 -0.8907
  193MOL0     H25438   3.832   2.502   5.387 -3.0626  3.1157  0.1381
  193MOL0     H25439   3.603   2.499   5.450  1.1301  2.1529  0.1965
  193MOL0     H25440   3.269   2.368   5.322 -1.8934 -2.1372 -1.0893
  193MOL0     H25441   3.014   2.317   5.308 -4.0412  1.8041  2.2241
  193MOL0     H25442   2.799   2.377   5.631  4.4831 -0.5667  1.3489
  193MOL0     H25443   2.789   2.216   5.672 -1.0422 -1.7798 -1.9847
  193MOL0     H25444   2.569   2.282   5.649  1.8552  1.0409  0.7822
  193MOL0     H25445   2.615   2.160   5.530 -3.0746  0.4814  0.3963
  193MOL0     H25446   2.533   2.281   5.364 -2.6450 -3.1254  3.5402
  193MOL0     H25447   2.667   2.393   5.390  0.2468 -3.3660 -1.5222
  193MOL0     H25448   2.405   2.442   5.518  1.3840 -3.6486  0.0828
  193MOL0     H25449   2.557   2.524   5.547  0.4998  2.8335 -1.3796
  193MOL0     H25450   2.467   2.491   5.250 -0.1564 -1.0176 -0.1712
  193MOL0     H25451   2.590   2.582   5.322  0.4942 -1.8757  3.5419
  193MOL0     H25452   2.445   2.761   5.307 -0.3832  1.0941  2.6209
  193MOL0     H25453   2.382   2.702   5.461  1.6178  0.2842  0.1719
  193MOL0     H25454   2.203   2.759   5.289 -1.7222 -1.1557  2.5635
  193MOL0     H25455   2.280   2.667   5.167 -2.5121  2.3423  0.0659
  193MOL0     H25456   2.240   2.457   5.347 -1.3270 -0.1338  0.7374
  193MOL0     H25457   2.103   2.509   5.259  1.7113 -1.8352 -0.0572
  193MOL0     H25458   3.006   2.220   5.713  0.4317 -2.8836 -2.2266
  193MOL0     H25459   3.224   2.274   5.745 -0.5528 -1.0486  0.0713
  193MOL0     H25460   3.694   2.266   5.798 -2.1671 -0.0835 -1.0891
  193MOL0     H25461   3.947   2.287   5.740  1.9786  1.8604 -0.4142
  193MOL0     H25462   5.414   2.411   5.305 -0.6502  3.0421 -3.9088
  193MOL0     H25463   5.426   2.182   5.177 -1.0367 -0.3190  2.6776
  193MOL0     H25464   5.509   1.882   4.945 -1.4806 -0.4748 -5.9636
  193MOL0     H25465   5.479   1.690   4.833  0.9064 -1.6166  0.8206
  193MOL0     H25466   5.680   1.311   4.754  1.0255 -1.8920  1.7210
  193MOL0     H25467   5.807   1.372   4.858 -0.6716 -1.1802 -1.1884
  193MOL0     H25468   5.769   1.526   4.616  1.5741  0.5726  0.0619
  193MOL0     H25469   5.912   1.513   4.716  0.6245 -0.9399  1.7102
  193MOL0     H25470   5.797   1.295   4.542  0.0368  0.0534 -2.2743
  193MOL0     H25471   5.953   1.280   4.624  0.6874  2.7665  3.2424
  193MOL0     H25472   5.848   1.450   4.392 -0.8142  0.4660  1.6575
  193MOL0     H25473   6.009   1.485   4.450  0.2817  0.8667 -1.8161
  193MOL0     H25474   6.088   1.123   4.229 -1.3802  1.0293 -2.4414
  193MOL0     H25475   5.888   1.566   4.943 -0.6176 -0.0217  2.1835
  193MOL0     H25476   5.905   1.747   5.084 -0.0002  2.0778  1.5690
  194MOL0     O25477   5.984   9.435   8.787  0.3575 -0.0446 -0.3666
  194MOL0     C25478   5.896   9.488   8.857 -0.1905 -0.8480  0.2645
  194MOL0     O25479   5.767   9.440   8.867  0.6423  0.2191 -0.5076
  194MOL0     C25480   5.717   9.373   8.758 -0.5318  0.6295 -0.2288
  194MOL0     C25481   5.614   9.287   8.785 -0.8919  0.0916  0.1359
  194MOL0     C25482   5.556   9.216   8.680  0.3090  0.9878 -1.0526
  194MOL0     C25483   5.589   9.240   8.543 -0.4095 -0.0496 -0.2410
  194MOL0     O25484   5.514   9.184   8.433  0.1124  0.2777  0.0928
  194MOL0     C25485   5.421   9.089   8.480 -0.0246 -0.1011  0.1671
  194MOL0     C25486   5.352   9.033   8.358  0.6336 -0.7262  0.0499
  194MOL0     C25487   5.246   8.921   8.396 -0.1034 -0.2445  0.3387
  194MOL0     C25488   5.286   8.813   8.498  0.0985  0.1557 -0.2662
  194MOL0     C25489   5.168   8.745   8.580  0.5227 -0.0542  0.0059
  194MOL0     C25490   5.062   8.687   8.483  0.7315 -0.3482  0.4209
  194MOL0     C25491   4.941   8.622   8.547  1.1785 -1.0227  0.2710
  194MOL0     C25492   4.971   8.493   8.622  0.9746  0.2292  0.8620
  194MOL0     N25493   4.843   8.424   8.648 -0.6971  0.0067  0.3715
  194MOL0     C25494   4.747   8.487   8.725  1.0519  0.1005 -0.1549
  194MOL0     C25495   4.632   8.432   8.676 -0.5691 -0.2034 -0.1514
  194MOL0     C25496   4.485   8.473   8.704 -1.4925 -1.0777  0.3243
  194MOL0     C25497   4.455   8.616   8.648 -0.5105 -0.5724 -1.2490
  194MOL0     C25498   4.439   8.618   8.496  0.2427 -0.2324 -0.0731
  194MOL0     C25499   4.404   8.750   8.423 -0.2617 -0.6175 -0.6962
  194MOL0     O25500   4.486   8.855   8.472 -0.2792  0.2457 -0.1757
  194MOL0     C25501   4.454   8.975   8.411  0.5997 -0.0196  0.1649
  194MOL0     C25502   4.428   9.077   8.508  0.1439  0.5903 -0.1979
  194MOL0     C25503   4.415   9.211   8.473 -0.4786  0.4174  0.3958
  194MOL0     C25504   4.414   9.244   8.339 -0.2555 -1.1200 -0.7859
  194MOL0     C25505   4.397   9.392   8.309 -0.3090  1.6200 -0.2817
  194MOL0     O25506   4.335   9.461   8.406 -0.2027  0.0780  0.1232
  194MOL0     C25507   4.300   9.593   8.404  0.2608 -1.2733  0.4457
  194MOL0     C25508   4.183   9.635   8.458 -0.0441  1.1016  0.7246
  194MOL0     C25509   4.135   9.769   8.453  0.5150 -0.1423 -0.0536
  194MOL0     C25510   4.219   9.869   8.401  0.1030  0.3060  0.2730
  194MOL0     O25511   4.196  10.006   8.404  0.1540 -0.1519 -0.7926
  194MOL0     C25512   4.077  10.051   8.468  1.1128 -0.3859  0.8825
  194MOL0     C25513   4.075  10.203   8.470  0.2512  0.0281  0.3398
  194MOL0     C25514   3.956  10.261   8.533 -0.2510 -0.2798  0.8861
  194MOL0     C25515   3.963  10.412   8.524 -0.1309  0.2792 -0.2600
  194MOL0     C25516   3.833  10.469   8.587  0.0917  0.0823 -0.5051
  194MOL0     C25517   3.842  10.627   8.575  0.5116  1.1528  0.7747
  194MOL0     C25518   3.751  10.706   8.678 -0.2143 -1.0703 -0.3088
  194MOL0     C25519   3.607  10.675   8.678  0.6611 -0.1468  0.4362
  194MOL0    Cl25520   3.526  10.763   8.823 -0.3466 -0.0060 -0.2782
  194MOL0     C25521   4.336   9.825   8.337  0.8473  0.2082  0.6876
  194MOL0     C25522   4.374   9.692   8.335  1.3182 -0.4275  0.5198
  194MOL0     O25523   4.421   9.434   8.198  0.3264  0.4876 -0.1008
  194MOL0     C25524   4.443   9.147   8.242 -0.5672 -0.7803 -0.2316
  194MOL0     C25525   4.466   9.009   8.281  0.8066  0.3029  0.4151
  194MOL0     N25526   4.662   8.332   8.587 -0.1735 -0.4067  0.7260
  194MOL0     N25527   4.792   8.329   8.559 -0.1007 -0.0152  0.0071
  194MOL0     C25528   5.678   9.343   8.520  0.6058  0.5417  0.2335
  194MOL0     C25529   5.745   9.412   8.618  0.5318 -0.4548  0.0341
  194MOL0     C25530   5.945   9.606   8.931  0.1040 -0.3976  0.0655
  194MOL0     C25531   6.070   9.668   8.912 -0.2748  0.7351  0.3645
  194MOL0     C25532   6.128   9.770   8.992  0.5225  1.3447 -0.9726
  194MOL0     C25533   6.058   9.838   9.084  0.9411 -1.4128 -1.0343
  194MOL0     O25534   6.128   9.938   9.165  1.4983  0.5558 -0.3434
  194MOL0     C25535   6.047   9.988   9.271  0.0728 -0.5339 -0.6328
  194MOL0     C25536   6.114  10.108   9.357  0.4650 -0.5568  0.0711
  194MOL0     C25537   6.153  10.240   9.280  0.1720  1.2539 -0.5306
  194MOL0     C25538   6.069  10.277   9.162  0.6956 -0.3928  1.0000
  194MOL0     C25539   6.097  10.205   9.036 -0.0890 -0.4144 -0.1092
  194MOL0     C25540   6.114  10.167   8.926 -0.2452  0.3352  0.2620
  194MOL0     C25541   5.924   9.782   9.103 -0.4299 -0.3279  0.1147
  194MOL0     C25542   5.864   9.682   9.025 -0.1540  0.3276 -0.4683
  194MOL0     H25543   5.594   9.258   8.887 -0.9608  0.6190  0.2723
  194MOL0     H25544   5.481   9.147   8.716 -1.5756  3.8529  0.9388
  194MOL0     H25545   5.344   9.129   8.545  0.6362 -0.2797  1.0872
  194MOL0     H25546   5.473   9.005   8.527 -2.5592 -1.1661  1.2550
  194MOL0     H25547   5.431   9.002   8.288 -0.6013 -0.2330 -1.6457
  194MOL0     H25548   5.301   9.115   8.308 -1.1816 -1.7028  0.1940
  194MOL0     H25549   5.204   8.869   8.310 -0.8710 -1.0181  1.1600
  194MOL0     H25550   5.160   8.978   8.432 -1.9807 -2.9308  0.3729
  194MOL0     H25551   5.350   8.737   8.453  1.8064  1.0179  0.5844
  194MOL0     H25552   5.339   8.869   8.576 -0.3968  3.2107 -1.9635
  194MOL0     H25553   5.118   8.831   8.625 -0.7858  0.7953 -2.8346
  194MOL0     H25554   5.221   8.689   8.658  1.3507  2.9271  1.7346
  194MOL0     H25555   5.116   8.608   8.430  2.0827  2.1550 -2.1780
  194MOL0     H25556   5.026   8.747   8.399  0.1905 -1.8122 -0.4391
  194MOL0     H25557   4.908   8.691   8.627  6.1161  2.6547 -0.3625
  194MOL0     H25558   4.859   8.609   8.476 -1.6935 -1.4751  3.4210
  194MOL0     H25559   5.036   8.505   8.710  1.3965 -0.5604  0.6704
  194MOL0     H25560   5.031   8.420   8.568 -1.1716 -1.5504  0.7519
  194MOL0     H25561   4.745   8.571   8.794  0.8852  1.6460 -1.9500
  194MOL0     H25562   4.478   8.471   8.813  0.4221 -2.5152  0.4761
  194MOL0     H25563   4.419   8.399   8.659  0.1039 -0.8604 -2.6382
  194MOL0     H25564   4.534   8.681   8.686  0.6014 -1.4490 -1.9911
  194MOL0     H25565   4.359   8.646   8.690 -0.2693 -1.5317  0.0602
  194MOL0     H25566   4.535   8.580   8.458  0.9935  4.2029 -3.4590
  194MOL0     H25567   4.361   8.548   8.465 -1.9204  1.4590  1.2445
  194MOL0     H25568   4.301   8.781   8.442  0.3922  0.3516  1.6474
  194MOL0     H25569   4.424   8.721   8.320  2.2332  1.3165 -0.8397
  194MOL0     H25570   4.403   9.038   8.607 -5.9508 -0.7011 -1.8334
  194MOL0     H25571   4.420   9.278   8.558  1.3921 -0.1191  0.7552
  194MOL0     H25572   4.129   9.559   8.513  1.1485 -1.2937 -1.1928
  194MOL0     H25573   4.053   9.795   8.518 -0.8233 -0.7819 -1.4170
  194MOL0     H25574   4.071  10.015   8.572  1.7527 -2.2632  0.3182
  194MOL0     H25575   3.995  10.016   8.404  0.8183  1.1212  0.4049
  194MOL0     H25576   4.082  10.242   8.368 -3.3441 -0.1212 -0.1104
  194MOL0     H25577   4.168  10.226   8.523  0.7810  0.6938 -0.8478
  194MOL0     H25578   3.927  10.216   8.628 -0.1133 -1.5061  0.3675
  194MOL0     H25579   3.872  10.234   8.468  0.3996 -1.7235  0.5973
  194MOL0     H25580   4.055  10.434   8.578  0.3277 -4.1022  1.0732
  194MOL0     H25581   3.963  10.430   8.416 -1.0713 -0.5955 -0.4233
  194MOL0     H25582   3.822  10.434   8.690 -0.4572  0.7549 -0.3324
  194MOL0     H25583   3.746  10.432   8.533 -0.5562  0.1869  0.4451
  194MOL0     H25584   3.817  10.654   8.471 -1.2348 -0.8835  0.5772
  194MOL0     H25585   3.946  10.655   8.592  1.7993 -2.6774  0.3407
  194MOL0     H25586   3.787  10.688   8.780  1.2196  1.3411 -0.2997
  194MOL0     H25587   3.761  10.814   8.664 -1.4481 -0.8774  0.1625
  194MOL0     H25588   3.578  10.570   8.687  1.6109 -0.2696  2.9658
  194MOL0     H25589   3.564  10.719   8.588  1.0375 -1.9664 -0.6783
  194MOL0     H25590   4.405   9.894   8.290  1.9592 -1.1975  0.1796
  194MOL0     H25591   4.461   9.662   8.276 -0.2476 -2.3838 -0.9475
  194MOL0     H25592   4.460   9.151   8.135  0.7571  4.9595 -0.1191
  194MOL0     H25593   4.501   8.927   8.219 -0.7230 -0.4019  0.4423
  194MOL0     H25594   5.697   9.371   8.417 -0.7521  3.5522  0.6874
  194MOL0     H25595   5.823   9.484   8.599  1.3388 -0.9439  1.3308
  194MOL0     H25596   6.148   9.628   8.847  2.1948  0.4881  3.2269
  194MOL0     H25597   6.234   9.793   8.988  0.9933 -0.4114  0.3459
  194MOL0     H25598   6.014   9.913   9.343 -2.8019  1.0067 -0.2065
  194MOL0     H25599   5.957  10.020   9.218 -0.2527 -0.5330 -0.0816
  194MOL0     H25600   6.032  10.133   9.425  0.2500 -0.4629 -0.2197
  194MOL0     H25601   6.198  10.066   9.414 -0.9906 -3.5183  0.2557
  194MOL0     H25602   6.258  10.236   9.251  0.5701 -3.1300  0.8378
  194MOL0     H25603   6.151  10.320   9.353  1.5986  0.3383  0.5706
  194MOL0     H25604   5.962  10.264   9.183  1.0747 -3.6807  1.3883
  194MOL0     H25605   6.082  10.385   9.152 -2.3106  0.0899  1.3174
  194MOL0     H25606   6.146  10.125   8.833  0.3112  1.6773 -0.1780
  194MOL0     H25607   5.862   9.845   9.166 -2.3744  1.4327 -3.3019
  194MOL0     H25608   5.762   9.648   9.042 -0.0066  1.0179  2.2020
  195MOL0     O25609   9.259   7.212   7.464 -1.1986  0.1174  0.9147
  195MOL0     C25610   9.217   7.112   7.519 -0.8360  1.2069 -0.0618
  195MOL0     O25611   9.284   7.049   7.627  0.0049 -0.3630  0.2614
  195MOL0     C25612   9.375   7.127   7.693  0.1965  0.0627  0.0952
  195MOL0     C25613   9.497   7.161   7.632 -0.5388 -0.5771  0.2205
  195MOL0     C25614   9.597   7.229   7.714  0.3202 -0.0368  0.7423
  195MOL0     C25615   9.558   7.264   7.846 -1.3112 -0.2428 -1.2094
  195MOL0     O25616   9.645   7.317   7.936  0.6559 -0.2584  0.0658
  195MOL0     C25617   9.789   7.318   7.912 -0.4945  0.0641  1.1474
  195MOL0     C25618   9.852   7.378   8.038 -0.2191 -0.2792  0.0253
  195MOL0     C25619   9.994   7.322   8.060  0.0668  0.2809 -0.2756
  195MOL0     C25620  10.052   7.362   8.200 -0.3307  0.3318  0.7437
  195MOL0     C25621  10.023   7.504   8.243  0.0908 -1.2715 -0.0338
  195MOL0     C25622  10.111   7.616   8.188  0.4312  0.2888 -0.3486
  195MOL0     C25623  10.096   7.754   8.250  0.3118  0.7253  0.8801
  195MOL0     C25624  10.181   7.856   8.167 -0.3432 -1.3198  0.4850
  195MOL0     N25625  10.211   7.984   8.239  0.5632  0.3147 -0.6147
  195MOL0     C25626  10.304   8.064   8.206 -0.0762 -0.8817  1.1807
  195MOL0     C25627  10.280   8.180   8.273 -0.0673 -0.8719 -0.5250
  195MOL0     C25628  10.383   8.294   8.280 -0.3108 -0.4981 -0.2330
  195MOL0     C25629  10.492   8.248   8.377 -0.2620  1.2594  0.4096
  195MOL0     C25630  10.459   8.223   8.525 -0.1732  0.3482 -0.6853
  195MOL0     C25631  10.582   8.165   8.604  1.2108 -0.5649  0.6038
  195MOL0     O25632  10.667   8.274   8.623 -0.0241 -0.4320  0.4756
  195MOL0     C25633  10.782   8.241   8.689  0.7610  0.6957 -0.4902
  195MOL0     C25634  10.891   8.188   8.625 -0.2202 -0.7368  0.1181
  195MOL0     C25635  11.015   8.160   8.701 -0.6370 -0.4337  1.0702
  195MOL0     C25636  11.032   8.184   8.838  0.5571  0.2444 -0.3433
  195MOL0     C25637  11.151   8.162   8.916 -1.1321  0.1343 -0.2072
  195MOL0     O25638  11.158   8.233   9.031 -0.1403 -0.0042  0.4590
  195MOL0     C25639  11.267   8.251   9.108 -0.5980  0.6343 -0.0377
  195MOL0     C25640  11.348   8.152   9.154 -0.4957  0.3408 -0.0011
  195MOL0     C25641  11.465   8.171   9.219  0.1499 -0.1737 -0.6677
  195MOL0     C25642  11.492   8.309   9.244  0.3902  0.4739  0.3922
  195MOL0     O25643  11.608   8.340   9.312  0.1181  0.6430  0.3591
  195MOL0     C25644  11.730   8.318   9.240  0.5780 -0.3194  0.7865
  195MOL0     C25645  11.835   8.297   9.350 -0.4004  0.6714  0.3642
  195MOL0     C25646  11.806   8.181   9.445 -0.5994 -0.7691 -0.1162
  195MOL0     C25647  11.938   8.150   9.517  0.1307 -0.1427  1.0530
  195MOL0     C25648  11.938   8.054   9.633  0.2132 -1.1037 -0.5213
  195MOL0     C25649  11.863   7.925   9.604 -0.2472 -0.8486  0.3303
  195MOL0     C25650  11.961   7.847   9.508  0.3721 -0.0466  1.1719
  195MOL0     C25651  11.939   7.701   9.507 -0.6719 -0.6488 -0.7476
  195MOL0    Cl25652  12.037   7.599   9.630 -0.2702  0.2977  0.2883
  195MOL0     C25653  11.409   8.411   9.208 -0.4303 -0.1205  0.4582
  195MOL0     C25654  11.291   8.386   9.136 -0.8918  0.0804  0.2569
  195MOL0     O25655  11.243   8.092   8.868  0.2160  0.4135 -0.8572
  195MOL0     C25656  10.914   8.235   8.903 -0.7323 -0.2781 -1.4159
  195MOL0     C25657  10.788   8.265   8.834 -0.1561  0.9235  0.2219
  195MOL0     N25658  10.156   8.173   8.331 -0.5458  0.2432 -0.2802
  195MOL0     N25659  10.121   8.046   8.330 -0.4041 -0.3961  0.3432
  195MOL0     C25660   9.435   7.236   7.898  1.0161 -0.3508 -0.2922
  195MOL0     C25661   9.349   7.164   7.821 -0.1531  0.7091 -0.1129
  195MOL0     C25662   9.090   7.064   7.466 -0.0469 -0.0375 -0.2321
  195MOL0     C25663   9.017   7.140   7.367 -0.9266  0.2360 -0.8660
  195MOL0     C25664   8.891   7.100   7.332  0.8602 -1.2472 -0.1236
  195MOL0     C25665   8.835   6.989   7.395  0.2548 -0.4338  0.1667
  195MOL0     O25666   8.708   6.962   7.360 -0.0010 -0.1146 -0.1321
  195MOL0     C25667   8.646   6.861   7.439  0.3726  0.0291  0.0427
  195MOL0     C25668   8.504   6.850   7.373 -1.0128  0.8578  1.0006
  195MOL0     C25669   8.397   6.767   7.452  0.9962  0.2833  0.3792
  195MOL0     C25670   8.437   6.613   7.483  0.4645 -0.5379 -0.6693
  195MOL0     C25671   8.330   6.540   7.554  0.7967  0.3308 -1.4467
  195MOL0     C25672   8.243   6.477   7.616 -0.3339  0.5889 -0.0690
  195MOL0     C25673   8.903   6.911   7.487  1.3484 -0.5775 -0.2151
  195MOL0     C25674   9.025   6.955   7.528 -0.1179 -0.0469  0.0983
  195MOL0     H25675   9.518   7.132   7.529  1.8684 -0.8055  0.7008
  195MOL0     H25676   9.688   7.252   7.660 -0.7930 -1.8890 -2.1908
  195MOL0     H25677   9.819   7.370   7.821 -0.0438 -1.4846  0.3728
  195MOL0     H25678   9.820   7.214   7.897 -0.8234 -0.2064  2.2455
  195MOL0     H25679   9.788   7.367   8.126 -0.6532 -0.9184 -0.3596
  195MOL0     H25680   9.854   7.486   8.021 -0.6155 -0.7510 -3.8359
  195MOL0     H25681  10.057   7.367   7.982  2.3132 -0.8581  0.8082
  195MOL0     H25682  10.000   7.214   8.047 -0.0485  0.2960 -0.4680
  195MOL0     H25683  10.002   7.298   8.273  0.3470  2.7820  3.5497
  195MOL0     H25684  10.157   7.334   8.211 -0.7029 -0.9038  1.2778
  195MOL0     H25685  10.038   7.504   8.351 -3.0458 -0.9740  0.4965
  195MOL0     H25686   9.921   7.539   8.227  1.2142  2.9459  0.7243
  195MOL0     H25687  10.091   7.617   8.080 -0.6236 -2.0817 -0.2241
  195MOL0     H25688  10.213   7.579   8.203 -0.0349 -0.2554  1.7994
  195MOL0     H25689   9.993   7.793   8.244  0.1098  0.2496  1.1962
  195MOL0     H25690  10.124   7.738   8.354 -2.0377 -3.3938  1.1133
  195MOL0     H25691  10.141   7.882   8.069 -3.1872  0.0592  1.8773
  195MOL0     H25692  10.276   7.806   8.147 -0.7169 -1.1135 -2.0738
  195MOL0     H25693  10.378   8.041   8.131 -1.2843  1.9842 -1.0682
  195MOL0     H25694  10.340   8.382   8.329 -0.6998 -1.5284  1.3606
  195MOL0     H25695  10.425   8.328   8.184  1.2353 -2.0111 -0.1510
  195MOL0     H25696  10.570   8.326   8.376 -0.8027  1.8101 -0.5728
  195MOL0     H25697  10.528   8.154   8.336 -1.6931  0.8757 -0.0249
  195MOL0     H25698  10.408   8.307   8.572 -1.0918  0.2424 -1.4487
  195MOL0     H25699  10.378   8.149   8.530  0.6152 -0.4436  2.6523
  195MOL0     H25700  10.632   8.085   8.548  1.4535  0.2655 -0.3982
  195MOL0     H25701  10.545   8.132   8.702  1.5480  2.7477  1.9745
  195MOL0     H25702  10.902   8.177   8.517  0.3028 -2.7847  0.3463
  195MOL0     H25703  11.098   8.133   8.636 -1.5579  0.8203 -0.7162
  195MOL0     H25704  11.318   8.051   9.128  3.1926 -0.5364 -1.5369
  195MOL0     H25705  11.521   8.090   9.264  0.6994  0.9767  0.8148
  195MOL0     H25706  11.749   8.408   9.181 -1.6549  0.1660  0.7453
  195MOL0     H25707  11.733   8.239   9.164  0.9742  1.0501 -0.6711
  195MOL0     H25708  11.845   8.383   9.417  0.7703 -0.6351  1.9370
  195MOL0     H25709  11.934   8.286   9.307 -0.4020 -0.6966  0.6863
  195MOL0     H25710  11.778   8.091   9.389 -0.0666 -0.5275 -0.7807
  195MOL0     H25711  11.729   8.210   9.517 -0.6968 -2.3633  0.4697
  195MOL0     H25712  12.004   8.120   9.436  1.4428  3.1826  0.7358
  195MOL0     H25713  11.980   8.243   9.555  0.8351  0.4181 -0.9754
  195MOL0     H25714  11.891   8.106   9.717  1.5392 -1.4919  0.4914
  195MOL0     H25715  12.039   8.021   9.660  1.9719 -0.8790 -5.6518
  195MOL0     H25716  11.764   7.933   9.559  1.0286  0.4309 -2.4450
  195MOL0     H25717  11.847   7.878   9.702 -3.0221 -5.2248 -1.8844
  195MOL0     H25718  11.961   7.881   9.404 -0.0705  0.3214  1.2917
  195MOL0     H25719  12.065   7.867   9.538  0.9411  2.7226 -1.9804
  195MOL0     H25720  11.971   7.675   9.405  1.7143  2.1402 -0.8625
  195MOL0     H25721  11.836   7.668   9.522 -0.6685 -0.5256 -0.4477
  195MOL0     H25722  11.444   8.510   9.239  1.0777 -0.2770 -0.6776
  195MOL0     H25723  11.219   8.453   9.090 -1.0970 -1.2178 -1.4333
  195MOL0     H25724  10.910   8.262   9.008  1.8310 -3.2020 -0.4157
  195MOL0     H25725  10.688   8.300   8.861 -1.9783 -2.8500 -0.8625
  195MOL0     H25726   9.428   7.250   8.005  0.0203 -0.9196 -0.2654
  195MOL0     H25727   9.256   7.135   7.869  0.8335 -0.3689  1.2444
  195MOL0     H25728   9.069   7.222   7.318  1.3558 -0.6008  0.0392
  195MOL0     H25729   8.855   7.171   7.258  2.8676  0.8520  0.7792
  195MOL0     H25730   8.626   6.889   7.543  0.7410 -1.2190  0.4714
  195MOL0     H25731   8.697   6.764   7.436 -0.7854 -0.6061  0.2141
  195MOL0     H25732   8.465   6.949   7.351 -0.3856  0.4137 -2.8727
  195MOL0     H25733   8.523   6.798   7.278  1.4270  1.3583  1.1489
  195MOL0     H25734   8.307   6.771   7.390  0.8433 -3.6169  0.1320
  195MOL0     H25735   8.368   6.824   7.541 -0.4679 -0.8372  0.6518
  195MOL0     H25736   8.452   6.559   7.390 -2.2921  0.1839 -1.6286
  195MOL0     H25737   8.529   6.610   7.542  0.2702  0.4799 -0.2939
  195MOL0     H25738   8.175   6.429   7.684  0.6113  3.4536  3.1742
  195MOL0     H25739   8.859   6.833   7.549 -2.6493  1.3259 -0.3390
  195MOL0     H25740   9.069   6.898   7.609  0.3260  0.6726  0.3671
  196MOL0     O25741   7.723   2.868   7.777 -0.1704 -0.1963  0.6436
  196MOL0     C25742   7.661   2.774   7.838 -0.6458 -0.1100  0.6111
  196MOL0     O25743   7.651   2.775   7.976  0.4690  0.1320  0.0499
  196MOL0     C25744   7.708   2.874   8.058  0.8455  0.1486 -0.4373
  196MOL0     C25745   7.781   2.840   8.172 -1.7428 -0.0166  0.2383
  196MOL0     C25746   7.818   2.942   8.261  0.0662  0.8529  0.7087
  196MOL0     C25747   7.774   3.070   8.245  0.5146 -0.3442  0.0575
  196MOL0     O25748   7.807   3.169   8.340  0.3462 -0.1218  0.9695
  196MOL0     C25749   7.775   3.310   8.331  0.0482  0.3786  0.2497
  196MOL0     C25750   7.893   3.384   8.271 -0.4779  0.1845  0.0753
  196MOL0     C25751   7.989   3.412   8.392 -0.5828 -0.0960  0.0050
  196MOL0     C25752   8.104   3.503   8.335  0.3415 -0.0494  0.0582
  196MOL0     C25753   8.185   3.569   8.446 -0.3852 -0.8135  0.5990
  196MOL0     C25754   8.268   3.696   8.402 -0.3576 -0.1746  0.5617
  196MOL0     C25755   8.377   3.738   8.501 -0.6447 -1.2629  0.0060
  196MOL0     C25756   8.444   3.624   8.583 -0.2534  0.3830  0.0330
  196MOL0     N25757   8.523   3.689   8.691 -0.3847 -0.0892  0.3424
  196MOL0     C25758   8.475   3.690   8.813  0.3715 -0.4677 -0.4407
  196MOL0     C25759   8.579   3.746   8.884 -1.1184  0.5143  0.1624
  196MOL0     C25760   8.587   3.741   9.032  0.1535  0.8627 -0.6693
  196MOL0     C25761   8.557   3.880   9.075 -0.0478 -0.6018 -0.2779
  196MOL0     C25762   8.611   3.922   9.199 -0.5217 -1.3252 -0.9779
  196MOL0     C25763   8.584   4.076   9.221  0.6956  0.4338 -0.0305
  196MOL0     O25764   8.666   4.121   9.322  0.6614  0.1566 -0.1944
  196MOL0     C25765   8.688   4.252   9.323  0.1796  0.6030 -0.4700
  196MOL0     C25766   8.817   4.295   9.360  0.2436  0.2215 -0.6615
  196MOL0     C25767   8.842   4.426   9.386 -0.3933 -0.6366  0.4164
  196MOL0     C25768   8.763   4.536   9.357  0.5395 -0.3181 -0.1801
  196MOL0     C25769   8.803   4.670   9.381 -0.1438 -0.0895  1.1744
  196MOL0     O25770   8.711   4.774   9.359 -0.5727  0.0274 -0.7216
  196MOL0     C25771   8.743   4.910   9.392 -0.8578  0.3349  0.1762
  196MOL0     C25772   8.641   5.001   9.358 -0.0196 -0.4975 -0.0074
  196MOL0     C25773   8.658   5.140   9.377 -0.1908  0.1034 -0.1330
  196MOL0     C25774   8.775   5.192   9.438  0.4892 -0.0831 -0.3739
  196MOL0     O25775   8.768   5.322   9.458 -0.0404 -0.0009  0.6543
  196MOL0     C25776   8.874   5.388   9.537 -0.7228  0.2714 -0.1382
  196MOL0     C25777   8.833   5.534   9.566 -1.2746 -0.0014 -0.1785
  196MOL0     C25778   8.956   5.618   9.588  0.2242  0.0030  0.0785
  196MOL0     C25779   9.031   5.576   9.714 -0.9662  1.0548  0.4414
  196MOL0     C25780   9.144   5.662   9.759  0.5186 -0.8351  0.0702
  196MOL0     C25781   9.283   5.591   9.795  0.7933  0.0829  0.0139
  196MOL0     C25782   9.281   5.465   9.892  0.3194 -0.0257 -0.1095
  196MOL0     C25783   9.164   5.443   9.993 -0.2732  0.0349  0.9506
  196MOL0    Cl25784   9.068   5.305   9.942  0.3891 -0.5592 -0.7475
  196MOL0     C25785   8.884   5.110   9.466 -0.2073 -0.2141  0.0275
  196MOL0     C25786   8.859   4.969   9.457  0.4264 -0.0388  0.6293
  196MOL0     O25787   8.915   4.691   9.407  0.0352  0.0452  0.2150
  196MOL0     C25788   8.635   4.497   9.301 -0.2490  0.9084 -0.3703
  196MOL0     C25789   8.597   4.360   9.305 -0.8385  0.0120 -0.1043
  196MOL0     N25790   8.677   3.791   8.803 -1.1567  0.1239  0.8865
  196MOL0     N25791   8.644   3.743   8.687  0.2332 -0.7327  0.9978
  196MOL0     C25792   7.718   3.101   8.122 -0.2977 -0.1211 -0.2087
  196MOL0     C25793   7.684   3.001   8.025 -1.3145 -0.4344 -0.7557
  196MOL0     C25794   7.582   2.678   7.761 -0.2354  0.0813  0.2371
  196MOL0     C25795   7.562   2.711   7.624  0.1536 -0.2659  0.3002
  196MOL0     C25796   7.486   2.625   7.539  0.1515  0.2986 -0.0849
  196MOL0     C25797   7.403   2.526   7.586  0.3123  0.0990 -1.1518
  196MOL0     O25798   7.325   2.449   7.508  0.0943 -0.5151  0.1743
  196MOL0     C25799   7.286   2.316   7.543  0.2179 -0.5822 -0.5824
  196MOL0     C25800   7.222   2.228   7.429  0.1646  0.8853  0.2215
  196MOL0     C25801   7.329   2.159   7.345  0.2457 -0.6144  0.1947
  196MOL0     C25802   7.464   2.125   7.399  0.6862 -0.3883 -1.0417
  196MOL0     C25803   7.470   2.012   7.501  0.8571 -0.8046 -0.5722
  196MOL0     C25804   7.472   1.938   7.592 -0.1934  0.4687  0.4655
  196MOL0     C25805   7.418   2.498   7.718  0.3044 -0.3675 -1.2871
  196MOL0     C25806   7.506   2.574   7.804 -0.3162  0.1333  0.4254
  196MOL0     H25807   7.798   2.735   8.190 -2.7010 -0.5999 -1.9745
  196MOL0     H25808   7.878   2.913   8.347  1.6103 -0.9855 -0.9255
  196MOL0     H25809   7.754   3.352   8.430  2.0440  2.9721 -0.3124
  196MOL0     H25810   7.690   3.324   8.264 -0.1592  1.2872  0.6757
  196MOL0     H25811   7.863   3.480   8.229 -3.0906 -0.6280 -0.1077
  196MOL0     H25812   7.942   3.318   8.199  1.5854 -0.8564  2.2644
  196MOL0     H25813   8.026   3.322   8.442 -0.9629  0.6918  1.7904
  196MOL0     H25814   7.929   3.466   8.465 -1.0653  1.1630 -1.2750
  196MOL0     H25815   8.170   3.441   8.274 -0.1871 -0.4174 -0.1429
  196MOL0     H25816   8.062   3.587   8.280  1.0371 -0.3250 -0.9238
  196MOL0     H25817   8.252   3.489   8.479  0.1352  0.2734  2.3146
  196MOL0     H25818   8.124   3.600   8.532  1.1285  2.1577  0.7464
  196MOL0     H25819   8.207   3.781   8.371  1.1536  0.0137 -2.2769
  196MOL0     H25820   8.322   3.671   8.310  5.8688  2.4865  2.9708
  196MOL0     H25821   8.459   3.792   8.452  1.6320 -0.9274  3.7594
  196MOL0     H25822   8.333   3.812   8.570  0.4939  0.2251 -0.8013
  196MOL0     H25823   8.515   3.568   8.522  3.2791  0.8347  3.3176
  196MOL0     H25824   8.370   3.562   8.634  3.1622 -0.1188  5.0914
  196MOL0     H25825   8.385   3.649   8.858  1.2302  0.8723  2.8301
  196MOL0     H25826   8.684   3.698   9.058 -1.2370 -2.7365 -0.7246
  196MOL0     H25827   8.519   3.664   9.070 -2.8828  1.3781 -4.4468
  196MOL0     H25828   8.449   3.887   9.095  0.3804  1.1750  1.6912
  196MOL0     H25829   8.601   3.940   8.995 -1.7636 -0.4534 -1.1673
  196MOL0     H25830   8.557   3.879   9.284 -1.5602  1.0739 -0.3244
  196MOL0     H25831   8.719   3.908   9.201 -0.0704  1.4060 -2.2203
  196MOL0     H25832   8.482   4.087   9.259  0.4458 -3.4128  0.8127
  196MOL0     H25833   8.615   4.126   9.129  1.2239  0.4425  0.1488
  196MOL0     H25834   8.898   4.232   9.396  0.2228  1.7235  2.3510
  196MOL0     H25835   8.944   4.436   9.421  0.4573 -1.0986 -1.7600
  196MOL0     H25836   8.551   4.957   9.316  1.7882 -1.5048 -3.1875
  196MOL0     H25837   8.580   5.214   9.362 -0.1714  0.3098  0.7305
  196MOL0     H25838   8.967   5.389   9.481 -0.4773  0.9119  0.2701
  196MOL0     H25839   8.897   5.333   9.629  0.2825 -0.2680 -0.6990
  196MOL0     H25840   8.771   5.527   9.655  1.6300 -2.9682  1.8291
  196MOL0     H25841   8.778   5.578   9.482 -0.8203 -1.9826 -1.5758
  196MOL0     H25842   8.934   5.725   9.591  3.8060  0.8875 -0.4928
  196MOL0     H25843   9.021   5.610   9.500 -1.6593  0.2989 -1.3872
  196MOL0     H25844   8.953   5.586   9.790 -0.7667 -1.6316  1.0851
  196MOL0     H25845   9.056   5.470   9.706 -2.2698  0.7966 -0.7169
  196MOL0     H25846   9.098   5.717   9.842 -2.4140 -1.4669 -1.0055
  196MOL0     H25847   9.167   5.735   9.682  1.4154 -0.7834  0.3731
  196MOL0     H25848   9.349   5.672   9.827  2.9908 -1.3999 -0.5146
  196MOL0     H25849   9.333   5.562   9.702  0.4777 -1.3752  0.2716
  196MOL0     H25850   9.294   5.371   9.836 -0.8951  0.4625 -1.2690
  196MOL0     H25851   9.363   5.492   9.958  0.4818  1.2714 -0.8131
  196MOL0     H25852   9.107   5.536   9.986 -0.4037  0.0079  1.5519
  196MOL0     H25853   9.208   5.437  10.093  2.1130 -1.5252 -0.0806
  196MOL0     H25854   8.967   5.141   9.528 -0.2614 -1.2758  0.6583
  196MOL0     H25855   8.933   4.922   9.521  2.1213  1.6516  0.0240
  196MOL0     H25856   8.563   4.577   9.288 -3.8529 -1.9236  0.5038
  196MOL0     H25857   8.494   4.331   9.289 -0.5493 -1.8297  1.0701
  196MOL0     H25858   7.685   3.200   8.093 -2.9895 -0.7609  0.3925
  196MOL0     H25859   7.642   3.029   7.929  0.5405 -0.7306 -1.6832
  196MOL0     H25860   7.599   2.804   7.582 -2.3476  0.3793 -0.6438
  196MOL0     H25861   7.475   2.650   7.434 -1.9284 -1.0414 -0.2363
  196MOL0     H25862   7.206   2.330   7.616  2.0136 -2.2902  1.8600
  196MOL0     H25863   7.362   2.256   7.593 -0.6771 -0.6056  0.8135
  196MOL0     H25864   7.168   2.154   7.489  0.8842 -0.7367 -1.0856
  196MOL0     H25865   7.158   2.292   7.368 -2.0823  0.8972  2.4419
  196MOL0     H25866   7.336   2.217   7.253 -0.8589  0.1933  0.5989
  196MOL0     H25867   7.287   2.067   7.303 -0.1941  1.2516 -3.8595
  196MOL0     H25868   7.525   2.088   7.316 -1.7654  0.0003 -3.1454
  196MOL0     H25869   7.507   2.211   7.450  3.9789 -0.4350 -3.3947
  196MOL0     H25870   7.453   1.858   7.661 -0.2825  1.8845  2.1568
  196MOL0     H25871   7.360   2.420   7.766 -2.4457  1.9454 -0.5460
  196MOL0     H25872   7.510   2.542   7.907 -2.3201  1.7178  1.0524
  197MOL0     O25873   1.861   9.338   6.236 -0.9841 -0.2582  0.2590
  197MOL0     C25874   1.801   9.235   6.215 -1.0358 -0.0577  0.4655
  197MOL0     O25875   1.692   9.226   6.137 -0.6948  0.5061  0.1357
  197MOL0     C25876   1.650   9.320   6.057  1.4239 -0.2683  0.5004
  197MOL0     C25877   1.518   9.307   6.020  0.0260 -0.3365 -0.1008
  197MOL0     C25878   1.450   9.401   5.943 -0.5635  1.0712 -0.2700
  197MOL0     C25879   1.528   9.503   5.889 -0.3074  0.3463  0.1743
  197MOL0     O25880   1.456   9.585   5.803 -0.4485 -0.4606  0.0771
  197MOL0     C25881   1.484   9.724   5.794 -0.9041 -0.3400 -0.8833
  197MOL0     C25882   1.397   9.779   5.676  0.4609 -0.1799  0.5239
  197MOL0     C25883   1.244   9.744   5.695 -0.2057 -0.1664 -1.0062
  197MOL0     C25884   1.156   9.796   5.577 -0.2515  0.4604  0.3317
  197MOL0     C25885   1.007   9.779   5.621  0.5101  0.1572 -0.2802
  197MOL0     C25886   0.899   9.825   5.506 -0.0980 -0.4879  0.2321
  197MOL0     C25887   0.898   9.731   5.382 -0.6659 -0.7063 -0.3331
  197MOL0     C25888   0.760   9.720   5.314 -0.6685  0.9918  0.3639
  197MOL0     N25889   0.663   9.642   5.385  0.5238 -0.0903  0.5271
  197MOL0     C25890   0.530   9.653   5.364 -0.1690  0.3434 -0.5567
  197MOL0     C25891   0.473   9.581   5.453  0.3249  0.0771 -0.9163
  197MOL0     C25892   0.314   9.563   5.453 -0.1796 -0.7699 -1.5698
  197MOL0     C25893   0.274   9.417   5.420 -0.6515 -0.2902 -0.4465
  197MOL0     C25894   0.305   9.377   5.278 -0.5388 -0.3016 -0.1530
  197MOL0     C25895   0.279   9.228   5.244 -0.6479 -1.1054 -0.2683
  197MOL0     O25896   0.164   9.174   5.298 -0.7137 -0.0623 -0.9109
  197MOL0     C25897   0.071   9.144   5.200 -0.7964 -0.6073 -0.6146
  197MOL0     C25898   0.045   9.207   5.072  0.5033  0.6767 -0.1741
  197MOL0     C25899  -0.075   9.180   5.004 -0.5910 -0.2712  0.2820
  197MOL0     C25900  -0.168   9.083   5.046  0.2081 -0.6024 -1.2378
  197MOL0     C25901  -0.288   9.050   4.959  0.3190  1.0212 -0.1272
  197MOL0     O25902  -0.347   8.933   4.982 -0.3150  0.0901  0.1835
  197MOL0     C25903  -0.463   8.904   4.915 -0.1250  0.2494  0.5514
  197MOL0     C25904  -0.588   8.954   4.943  0.2546  0.3447  0.4828
  197MOL0     C25905  -0.701   8.928   4.865 -0.5695  0.4253 -0.6174
  197MOL0     C25906  -0.692   8.822   4.774  0.1115  0.2356 -0.5612
  197MOL0     O25907  -0.807   8.772   4.728  0.8346 -0.0743 -0.0339
  197MOL0     C25908  -0.809   8.690   4.614 -0.2946 -1.6901  0.0533
  197MOL0     C25909  -0.954   8.677   4.578 -0.0105  0.4131  0.4575
  197MOL0     C25910  -1.041   8.795   4.560 -0.2905  0.5388 -0.1411
  197MOL0     C25911  -1.181   8.762   4.509 -0.0183  1.1838  0.7916
  197MOL0     C25912  -1.262   8.883   4.465 -0.2381  0.2581  0.2611
  197MOL0     C25913  -1.399   8.843   4.424  0.1957  0.3739  1.1056
  197MOL0     C25914  -1.477   8.966   4.375 -0.2070  0.3968  0.2403
  197MOL0     C25915  -1.631   8.936   4.366  0.0000  0.2760 -0.0775
  197MOL0    Cl25916  -1.671   8.791   4.274  0.5476 -0.3669 -0.0833
  197MOL0     C25917  -0.567   8.770   4.733 -0.7653 -0.1657 -0.2352
  197MOL0     C25918  -0.459   8.821   4.802 -0.4794 -0.0048 -0.0893
  197MOL0     O25919  -0.324   9.129   4.871 -0.3100  0.8665 -0.6960
  197MOL0     C25920  -0.144   9.027   5.174  0.5349  0.7943 -1.0530
  197MOL0     C25921  -0.026   9.053   5.241  0.3034 -1.1821  0.0805
  197MOL0     N25922   0.564   9.522   5.542 -0.1098  0.1863 -0.6303
  197MOL0     N25923   0.680   9.567   5.501  0.8170  0.1996  0.2945
  197MOL0     C25924   1.674   9.514   5.905  0.3044  0.6702 -0.5715
  197MOL0     C25925   1.723   9.425   5.993 -0.6065  0.4103 -0.0925
  197MOL0     C25926   1.860   9.112   6.267  0.5790  0.0446  0.3654
  197MOL0     C25927   1.920   9.106   6.393 -0.9359  0.0738  0.1332
  197MOL0     C25928   1.954   8.986   6.456  0.1455  0.0428 -0.6860
  197MOL0     C25929   1.938   8.863   6.389 -0.2717 -1.0967  0.1917
  197MOL0     O25930   1.973   8.740   6.439  0.5785  0.0222  0.1134
  197MOL0     C25931   2.066   8.673   6.366 -0.7051 -0.2381  0.4743
  197MOL0     C25932   2.204   8.649   6.434  0.1903  0.3612 -0.3116
  197MOL0     C25933   2.247   8.742   6.544 -0.7573  0.5004 -0.3202
  197MOL0     C25934   2.375   8.688   6.607  0.0770 -0.9891  0.8224
  197MOL0     C25935   2.436   8.799   6.690 -0.7430 -0.8453 -0.4792
  197MOL0     C25936   2.509   8.881   6.744 -0.0642  0.1151 -0.1822
  197MOL0     C25937   1.877   8.874   6.263 -0.3198 -0.7283  0.0965
  197MOL0     C25938   1.839   8.993   6.202 -0.6693 -0.3351  0.1320
  197MOL0     H25939   1.458   9.230   6.066  2.4857 -1.1785  1.8987
  197MOL0     H25940   1.349   9.388   5.904 -0.0053  4.4003 -3.3366
  197MOL0     H25941   1.591   9.734   5.773 -0.8680 -0.6352 -0.8473
  197MOL0     H25942   1.457   9.780   5.884 -1.2824 -1.1295 -0.4995
  197MOL0     H25943   1.435   9.735   5.584  1.9642  2.1310 -0.0497
  197MOL0     H25944   1.419   9.886   5.679  0.9413 -0.2213 -0.8521
  197MOL0     H25945   1.220   9.798   5.787  4.2183  1.1334 -0.3898
  197MOL0     H25946   1.217   9.642   5.721  0.5292 -0.4444 -1.3291
  197MOL0     H25947   1.167   9.901   5.548  2.3219 -0.6637 -3.5221
  197MOL0     H25948   1.185   9.739   5.489  1.0152  3.7519 -1.5580
  197MOL0     H25949   1.001   9.840   5.711  2.5917  3.8898 -2.4105
  197MOL0     H25950   0.990   9.675   5.647 -0.9021  0.1905 -0.9922
  197MOL0     H25951   0.918   9.925   5.468  0.5855 -1.0326 -0.9330
  197MOL0     H25952   0.801   9.823   5.555  0.7947  0.3642  2.1518
  197MOL0     H25953   0.959   9.791   5.315 -1.0119  0.6026  0.4752
  197MOL0     H25954   0.938   9.635   5.415 -0.5867 -0.7082 -0.4400
  197MOL0     H25955   0.776   9.686   5.212  0.2095  1.9355  0.1709
  197MOL0     H25956   0.735   9.827   5.312  0.3740  1.2914  1.6044
  197MOL0     H25957   0.475   9.712   5.291 -2.1412 -0.3450  0.2960
  197MOL0     H25958   0.273   9.636   5.383  2.0445  4.9192  2.3157
  197MOL0     H25959   0.276   9.580   5.554  0.1226  0.2697 -1.6165
  197MOL0     H25960   0.168   9.403   5.441 -0.1466 -3.2148  0.6675
  197MOL0     H25961   0.326   9.348   5.488 -0.4380  0.1636 -0.1482
  197MOL0     H25962   0.236   9.429   5.210  2.6476 -0.2305 -3.6601
  197MOL0     H25963   0.410   9.405   5.263 -0.6881  1.4011  1.5749
  197MOL0     H25964   0.357   9.164   5.286 -1.0415 -1.3226  0.1340
  197MOL0     H25965   0.292   9.228   5.135  0.6256  2.9853 -0.2964
  197MOL0     H25966   0.115   9.277   5.028  0.5539 -0.8600 -2.7946
  197MOL0     H25967  -0.111   9.220   4.909 -0.7064 -2.4021 -0.6429
  197MOL0     H25968  -0.594   9.027   5.022  1.0847 -0.7615  1.6019
  197MOL0     H25969  -0.799   8.969   4.884 -1.6970 -2.5218  0.3748
  197MOL0     H25970  -0.774   8.587   4.625  0.9219 -1.6864 -2.8554
  197MOL0     H25971  -0.752   8.743   4.537 -3.9541  3.7814  0.5106
  197MOL0     H25972  -0.996   8.612   4.655  0.2994  0.2218  0.4672
  197MOL0     H25973  -0.958   8.619   4.485 -2.2929  0.6921  0.3350
  197MOL0     H25974  -0.993   8.862   4.488  3.2661  0.3921  1.8319
  197MOL0     H25975  -1.053   8.856   4.650  1.7082 -0.2970  0.7651
  197MOL0     H25976  -1.194   8.693   4.425 -2.1170  1.5000  0.7922
  197MOL0     H25977  -1.239   8.723   4.593  0.4678 -0.1930  0.5095
  197MOL0     H25978  -1.220   8.925   4.374 -0.9134 -0.1632 -0.2562
  197MOL0     H25979  -1.291   8.956   4.541 -2.6824 -2.1632  1.8842
  197MOL0     H25980  -1.442   8.789   4.509 -0.8882  0.3058  0.5246
  197MOL0     H25981  -1.388   8.769   4.344  1.1773 -1.2920  2.7054
  197MOL0     H25982  -1.458   9.052   4.440 -3.4171  0.9552  0.5912
  197MOL0     H25983  -1.425   8.985   4.281  0.6668 -2.2690  0.1004
  197MOL0     H25984  -1.672   9.022   4.312  0.6033  1.3558  1.1248
  197MOL0     H25985  -1.679   8.942   4.464 -2.8134 -1.5649 -1.2278
  197MOL0     H25986  -0.564   8.682   4.671  1.0740 -0.0405 -0.3881
  197MOL0     H25987  -0.357   8.791   4.778  0.1346  1.8380  0.0522
  197MOL0     H25988  -0.216   8.955   5.213  1.4857  0.1751 -0.3684
  197MOL0     H25989  -0.006   8.994   5.329  0.8619  0.7298  1.2905
  197MOL0     H25990   1.736   9.578   5.844  1.6948 -2.5875 -2.8769
  197MOL0     H25991   1.830   9.417   6.006 -0.4088 -2.0098 -2.3624
  197MOL0     H25992   1.939   9.202   6.438  4.3027 -1.1840  1.2914
  197MOL0     H25993   1.999   8.977   6.555  0.0426  1.2813 -0.5071
  197MOL0     H25994   2.088   8.711   6.266  1.2599  0.5554  1.1487
  197MOL0     H25995   2.034   8.575   6.331  2.4048 -0.7404 -1.2851
  197MOL0     H25996   2.199   8.548   6.475  0.0665  0.3808 -0.2774
  197MOL0     H25997   2.290   8.645   6.367  1.9844  0.8841  1.8461
  197MOL0     H25998   2.173   8.763   6.622  0.7178 -0.0679  1.2756
  197MOL0     H25999   2.265   8.836   6.491 -0.6946  0.1988 -0.8420
  197MOL0     H26000   2.358   8.600   6.668 -0.3745 -0.9016  0.8282
  197MOL0     H26001   2.439   8.662   6.522 -0.5978 -3.5658  1.0353
  197MOL0     H26002   2.579   8.945   6.794  1.5680 -3.8232  3.1941
  197MOL0     H26003   1.866   8.779   6.211  1.9293 -0.5654 -0.7822
  197MOL0     H26004   1.788   8.995   6.106 -1.0802  0.8169  0.3641
  198MOL0     O26005   9.884   5.619   0.188 -0.1064  0.0163 -0.6228
  198MOL0     C26006   9.945   5.658   0.084  0.2379 -0.0013 -0.3271
  198MOL0     O26007   9.882   5.683  -0.029  0.0325  0.3286 -0.0396
  198MOL0     C26008   9.747   5.647  -0.046 -0.8627  0.3262  0.3133
  198MOL0     C26009   9.671   5.746  -0.107 -0.0831 -0.6957  0.0126
  198MOL0     C26010   9.534   5.733  -0.115 -0.5301  0.1881 -0.6400
  198MOL0     C26011   9.469   5.609  -0.091 -0.2258 -0.0887 -0.0243
  198MOL0     O26012   9.339   5.586  -0.113  0.4127 -0.0923 -0.3413
  198MOL0     C26013   9.299   5.455  -0.161  0.0700 -0.2569 -0.0714
  198MOL0     C26014   9.153   5.453  -0.214 -0.0521  1.0270 -0.7506
  198MOL0     C26015   9.153   5.417  -0.366  0.1848  0.9134 -0.9324
  198MOL0     C26016   9.023   5.375  -0.422 -0.3729  0.5266 -0.2066
  198MOL0     C26017   9.042   5.329  -0.566 -0.4200 -0.1706  1.1125
  198MOL0     C26018   9.100   5.439  -0.663 -0.0058  0.0921 -0.5243
  198MOL0     C26019   9.004   5.554  -0.691  0.5270 -0.3087 -0.4784
  198MOL0     C26020   9.019   5.619  -0.829 -0.0266 -0.1009  0.3515
  198MOL0     N26021   9.157   5.622  -0.877 -0.8334  0.0815 -0.2953
  198MOL0     C26022   9.199   5.574  -1.002 -1.4054 -0.3752  0.6295
  198MOL0     C26023   9.337   5.607  -0.996  0.6113  0.7497 -0.3748
  198MOL0     C26024   9.448   5.572  -1.094  0.6095  0.9434 -0.6253
  198MOL0     C26025   9.470   5.676  -1.207 -0.2321 -0.4426  0.8492
  198MOL0     C26026   9.568   5.790  -1.167  0.4508 -0.1325 -0.0753
  198MOL0     C26027   9.693   5.757  -1.081  0.3550 -0.2977 -0.2028
  198MOL0     O26028   9.746   5.639  -1.121  0.1635  0.1320 -0.1029
  198MOL0     C26029   9.875   5.619  -1.086  0.1679 -0.9757  0.6293
  198MOL0     C26030   9.974   5.692  -1.161 -0.3101  0.4573  0.5476
  198MOL0     C26031  10.107   5.660  -1.150 -1.4062  0.4900 -0.3849
  198MOL0     C26032  10.148   5.564  -1.055  1.1551  0.3835 -0.3957
  198MOL0     C26033  10.293   5.536  -1.029  0.5341 -0.5038 -0.9408
  198MOL0     O26034  10.390   5.616  -1.089  0.5556 -0.0314  0.3083
  198MOL0     C26035  10.520   5.597  -1.057 -0.4125  0.7366  0.2115
  198MOL0     C26036  10.593   5.714  -1.019 -0.8446 -0.2575 -1.0868
  198MOL0     C26037  10.731   5.718  -0.995  0.9334  0.2999  0.3669
  198MOL0     C26038  10.795   5.589  -1.009 -0.1738 -0.4534  0.0836
  198MOL0     O26039  10.927   5.560  -0.985 -0.8228 -0.6979  0.9279
  198MOL0     C26040  11.000   5.658  -0.906  0.0441  0.2418 -0.3816
  198MOL0     C26041  11.147   5.627  -0.900 -0.3817 -0.1300 -0.6765
  198MOL0     C26042  11.181   5.490  -0.844 -0.8205  0.0391 -0.4311
  198MOL0     C26043  11.138   5.462  -0.699  0.5774 -0.3993 -0.3799
  198MOL0     C26044  11.137   5.316  -0.669 -0.3254  1.1343  0.1013
  198MOL0     C26045  11.049   5.277  -0.558  0.6421  0.9078 -0.3234
  198MOL0     C26046  11.046   5.124  -0.526  0.0915  0.2468  0.0170
  198MOL0     C26047  10.932   5.110  -0.422  0.6040 -0.1883 -0.5595
  198MOL0    Cl26048  10.915   4.954  -0.330  0.3638 -0.4385 -0.0014
  198MOL0     C26049  10.728   5.469  -1.043 -0.1925 -1.1026  0.0575
  198MOL0     C26050  10.587   5.472  -1.072  0.3589 -0.5635  0.6419
  198MOL0     O26051  10.321   5.454  -0.943  0.4547  0.0575  0.1460
  198MOL0     C26052  10.049   5.494  -0.974 -0.0318 -0.2454 -0.1884
  198MOL0     C26053   9.915   5.531  -0.987  0.3235 -0.0033 -0.3451
  198MOL0     N26054   9.362   5.670  -0.877 -0.6175 -0.0265 -0.9219
  198MOL0     N26055   9.262   5.667  -0.798 -0.2608  0.3180 -0.3183
  198MOL0     C26056   9.552   5.504  -0.035 -0.5567 -0.2705  0.1779
  198MOL0     C26057   9.688   5.531  -0.009  0.4729  0.1240 -0.9872
  198MOL0     C26058  10.082   5.712   0.091 -0.4114  0.7840  0.1819
  198MOL0     C26059  10.171   5.663   0.192 -0.4727 -1.0663 -1.3166
  198MOL0     C26060  10.299   5.709   0.202 -0.0421 -1.3035 -0.4858
  198MOL0     C26061  10.351   5.812   0.118 -0.1494  0.7048 -0.2075
  198MOL0     O26062  10.481   5.840   0.153 -0.6746  0.1632  0.3517
  198MOL0     C26063  10.538   5.972   0.100  0.3289 -0.5763 -0.3092
  198MOL0     C26064  10.694   5.977   0.110  0.4250  0.5544 -0.4741
  198MOL0     C26065  10.747   6.099   0.040 -0.3056 -0.5300  0.4410
  198MOL0     C26066  10.900   6.111   0.044  1.1640 -1.1793  0.2538
  198MOL0     C26067  10.959   6.113  -0.087 -0.8165 -0.7239  0.3756
  198MOL0     C26068  11.020   6.106  -0.193  0.3296  0.6840  0.1524
  198MOL0     C26069  10.261   5.868   0.031 -0.4820 -0.0183  0.9865
  198MOL0     C26070  10.136   5.819   0.007  0.6373  0.1876  0.3957
  198MOL0     H26071   9.709   5.839  -0.147 -3.3132 -0.4449 -2.9446
  198MOL0     H26072   9.469   5.816  -0.144 -0.7180  0.7048  1.1468
  198MOL0     H26073   9.303   5.385  -0.077  0.5354 -1.6471 -1.2139
  198MOL0     H26074   9.365   5.408  -0.234 -1.1560 -0.7011 -0.9306
  198MOL0     H26075   9.102   5.546  -0.188 -1.2264 -0.2075  1.6672
  198MOL0     H26076   9.090   5.371  -0.179  0.8518  0.0672 -1.3201
  198MOL0     H26077   9.227   5.337  -0.376  2.4469  2.9122 -0.8263
  198MOL0     H26078   9.182   5.508  -0.419  0.0567  1.1597 -0.5846
  198MOL0     H26079   8.985   5.287  -0.369 -1.6692  0.8980 -0.4741
  198MOL0     H26080   8.962   5.463  -0.399  1.1760  1.1476  1.8097
  198MOL0     H26081   8.943   5.309  -0.608  0.3782 -0.6353 -0.6331
  198MOL0     H26082   9.107   5.240  -0.571 -0.9283 -0.5353  0.9428
  198MOL0     H26083   9.122   5.385  -0.755 -2.0374 -1.2767 -0.2946
  198MOL0     H26084   9.189   5.482  -0.617  0.1254 -1.1617  0.4434
  198MOL0     H26085   8.901   5.517  -0.687 -0.5188  2.3205 -1.2738
  198MOL0     H26086   9.012   5.618  -0.603 -3.1277 -1.0295  0.5472
  198MOL0     H26087   8.973   5.717  -0.828 -0.1098 -0.1171 -0.9304
  198MOL0     H26088   8.956   5.555  -0.891 -1.5766  0.4609  1.2989
  198MOL0     H26089   9.148   5.515  -1.078  0.4091 -1.5064  0.2455
  198MOL0     H26090   9.421   5.478  -1.143  1.5375  0.5620 -0.4340
  198MOL0     H26091   9.536   5.554  -1.032 -0.6697  2.0063  1.5990
  198MOL0     H26092   9.383   5.720  -1.256  0.8231  0.2481 -0.4679
  198MOL0     H26093   9.514   5.629  -1.295  1.0948  3.7413 -0.9935
  198MOL0     H26094   9.616   5.830  -1.258  2.0719  0.7051  1.0890
  198MOL0     H26095   9.497   5.850  -1.111 -1.1703 -2.0194 -0.0058
  198MOL0     H26096   9.664   5.746  -0.976 -1.4512  1.8428 -0.3718
  198MOL0     H26097   9.765   5.838  -1.096  0.3449 -0.6609 -2.5929
  198MOL0     H26098   9.940   5.768  -1.231  0.9118  2.7645  2.3375
  198MOL0     H26099  10.176   5.723  -1.205 -0.8897  1.2359  1.0587
  198MOL0     H26100  10.537   5.805  -1.003  2.7834  2.1863 -1.1175
  198MOL0     H26101  10.785   5.810  -0.977  1.1978  0.2769 -0.2731
  198MOL0     H26102  10.957   5.673  -0.807  1.4313 -0.3820  0.3411
  198MOL0     H26103  10.993   5.755  -0.957  0.7591  0.5865  0.1720
  198MOL0     H26104  11.200   5.698  -0.835  2.8874  0.2566 -3.4810
  198MOL0     H26105  11.192   5.645  -0.998  1.2101 -1.4270 -0.2363
  198MOL0     H26106  11.289   5.471  -0.852 -0.7102  1.3240 -3.1244
  198MOL0     H26107  11.136   5.412  -0.906  3.8201 -1.1590 -2.7824
  198MOL0     H26108  11.207   5.522  -0.638 -0.0103  3.5877 -3.2404
  198MOL0     H26109  11.040   5.502  -0.670  1.0021  0.5587 -0.2241
  198MOL0     H26110  11.241   5.288  -0.648 -0.7142 -1.1934 -0.8196
  198MOL0     H26111  11.102   5.248  -0.747 -1.8484  1.1518  0.7298
  198MOL0     H26112  10.950   5.318  -0.579  0.2992  0.1040 -0.3065
  198MOL0     H26113  11.073   5.325  -0.462 -5.5942  3.5643  0.3980
  198MOL0     H26114  11.021   5.063  -0.613 -3.6300  2.1887 -0.4752
  198MOL0     H26115  11.137   5.095  -0.473 -0.0531  4.4177  3.1100
  198MOL0     H26116  10.835   5.127  -0.468  0.1796  0.2969  0.4644
  198MOL0     H26117  10.944   5.188  -0.346  2.2132  1.8886 -2.7875
  198MOL0     H26118  10.788   5.381  -1.062  1.8823  0.2469 -0.0084
  198MOL0     H26119  10.534   5.388  -1.117 -0.5206  0.7769 -0.9116
  198MOL0     H26120  10.077   5.412  -0.908  1.1251  0.4891  0.2622
  198MOL0     H26121   9.848   5.471  -0.927  1.7766 -1.0968  0.2125
  198MOL0     H26122   9.506   5.416   0.009  2.3050 -0.0550  4.0452
  198MOL0     H26123   9.754   5.459   0.037 -1.1050  0.4224  2.0054
  198MOL0     H26124  10.143   5.590   0.267  0.2344  2.4409  2.6902
  198MOL0     H26125  10.353   5.669   0.288 -0.5723  1.3459  1.2270
  198MOL0     H26126  10.499   6.058   0.155 -0.3252 -0.9780 -0.1371
  198MOL0     H26127  10.505   5.971  -0.005  2.0560  0.7784 -0.9220
  198MOL0     H26128  10.729   5.967   0.213  4.2422  1.3267 -1.5446
  198MOL0     H26129  10.738   5.889   0.062 -1.2581  0.9896 -3.0503
  198MOL0     H26130  10.697   6.186   0.084 -2.9065 -0.9615 -1.3903
  198MOL0     H26131  10.716   6.095  -0.065  0.4397 -0.1250  0.2013
  198MOL0     H26132  10.942   6.201   0.092  2.4717 -0.8321 -1.4604
  198MOL0     H26133  10.935   6.020   0.094  2.0230 -0.7936  0.3759
  198MOL0     H26134  11.084   6.123  -0.277  0.2059 -0.9221 -0.2996
  198MOL0     H26135  10.295   5.940  -0.043  0.6241 -2.4820 -1.0605
  198MOL0     H26136  10.085   5.871  -0.073  2.4551  1.2202 -0.1684
  199MOL0     O26137   8.833   3.503   3.609 -0.1192 -0.7947  0.3800
  199MOL0     C26138   8.952   3.521   3.645  0.9061 -0.4734  0.6879
  199MOL0     O26139   9.031   3.419   3.675  0.2906  0.2355  0.1845
  199MOL0     C26140   8.978   3.295   3.664  0.1485  0.1575  0.8478
  199MOL0     C26141   8.919   3.227   3.770 -0.6513 -0.1172 -0.2612
  199MOL0     C26142   8.858   3.104   3.749  0.4902 -1.1726 -1.0785
  199MOL0     C26143   8.843   3.040   3.626 -0.5638 -0.9479 -0.0265
  199MOL0     O26144   8.775   2.917   3.617 -0.1548  0.6637  0.7204
  199MOL0     C26145   8.806   2.819   3.516 -0.1961 -0.4268  0.0242
  199MOL0     C26146   8.693   2.716   3.509 -0.4835 -0.2626  0.5443
  199MOL0     C26147   8.562   2.780   3.480 -0.3093 -0.8304 -0.1673
  199MOL0     C26148   8.447   2.673   3.488  0.0123 -0.0539 -0.5168
  199MOL0     C26149   8.320   2.734   3.433  0.9042 -0.5281 -0.5392
  199MOL0     C26150   8.225   2.618   3.431  0.4712  0.9309 -0.3832
  199MOL0     C26151   8.089   2.645   3.358  0.4094  0.5273  0.2558
  199MOL0     C26152   7.977   2.546   3.412 -0.7143 -0.4344 -0.1273
  199MOL0     N26153   7.839   2.566   3.359 -0.8322  0.0662 -1.1612
  199MOL0     C26154   7.762   2.674   3.388  0.2210  0.6978  0.0248
  199MOL0     C26155   7.635   2.643   3.336 -0.3173 -0.1549  0.2472
  199MOL0     C26156   7.498   2.703   3.351  0.2217  0.4915 -0.3625
  199MOL0     C26157   7.494   2.832   3.257 -0.4973 -0.2270 -0.1382
  199MOL0     C26158   7.518   2.958   3.355 -0.1145 -0.2671  0.3764
  199MOL0     C26159   7.387   3.002   3.405 -0.9291  0.0589  0.1109
  199MOL0     O26160   7.406   3.111   3.498  0.3788 -0.3091  0.1007
  199MOL0     C26161   7.307   3.155   3.577  0.0951  0.3569 -0.0284
  199MOL0     C26162   7.220   3.068   3.644  0.7524 -0.8254  0.3152
  199MOL0     C26163   7.121   3.117   3.735 -0.4975 -0.1949 -1.0348
  199MOL0     C26164   7.105   3.263   3.753 -0.4481  0.1687  0.0764
  199MOL0     C26165   7.006   3.311   3.843 -0.4412 -0.2876  0.0482
  199MOL0     O26166   7.006   3.441   3.862 -0.5375 -0.7714 -0.0215
  199MOL0     C26167   6.963   3.502   3.979  0.1433  0.7470  0.8927
  199MOL0     C26168   7.040   3.598   4.051 -0.7383  0.6296  0.5191
  199MOL0     C26169   6.991   3.656   4.172  0.2913  0.3475 -0.0248
  199MOL0     C26170   6.861   3.621   4.219 -0.4074  0.7096 -1.0351
  199MOL0     O26171   6.822   3.681   4.336 -0.1132 -0.5795  0.4113
  199MOL0     C26172   6.680   3.700   4.344 -0.4116  0.1520  0.3921
  199MOL0     C26173   6.651   3.783   4.468  0.4648  0.5532 -0.2233
  199MOL0     C26174   6.681   3.707   4.601 -0.2885 -0.4604 -0.0583
  199MOL0     C26175   6.635   3.784   4.727 -0.0505 -0.9800  0.9241
  199MOL0     C26176   6.659   3.708   4.858 -0.2535 -0.7124  0.3023
  199MOL0     C26177   6.615   3.802   4.975  0.0135 -0.2528 -0.5486
  199MOL0     C26178   6.657   3.952   4.978 -0.8405 -0.2572 -0.5240
  199MOL0     C26179   6.645   4.000   5.123  0.1019  0.1323  0.6957
  199MOL0    Cl26180   6.784   3.945   5.228  0.4139 -0.2950  0.0425
  199MOL0     C26181   6.791   3.518   4.157  0.0886  0.1935 -0.2919
  199MOL0     C26182   6.838   3.465   4.035  0.7207 -0.2946 -0.4606
  199MOL0     O26183   6.939   3.229   3.901  0.0482  0.3831 -0.1066
  199MOL0     C26184   7.199   3.343   3.673 -0.6546  0.4733  0.6806
  199MOL0     C26185   7.298   3.287   3.596 -0.6219  0.3165 -1.0759
  199MOL0     N26186   7.652   2.523   3.274  0.8175  0.6825  0.0486
  199MOL0     N26187   7.764   2.474   3.295 -0.6271 -0.6060 -1.0316
  199MOL0     C26188   8.905   3.107   3.518 -0.1715  0.5225 -1.1396
  199MOL0     C26189   8.970   3.231   3.533 -0.0218 -0.6362  0.0124
  199MOL0     C26190   9.004   3.660   3.634 -0.4121 -1.1906 -0.2749
  199MOL0     C26191   9.132   3.689   3.603  0.0412 -1.1514 -0.7350
  199MOL0     C26192   9.178   3.828   3.600  0.3355  0.4167 -0.2317
  199MOL0     C26193   9.093   3.937   3.606  0.5934  0.1001  0.2859
  199MOL0     O26194   9.141   4.070   3.588  0.5156 -0.2603 -0.3193
  199MOL0     C26195   9.191   4.092   3.456  0.4135  0.3753 -0.8344
  199MOL0     C26196   9.094   4.073   3.342 -0.9177  0.9022 -0.3043
  199MOL0     C26197   8.981   4.165   3.344  0.2442 -0.3967 -0.3082
  199MOL0     C26198   9.027   4.314   3.323  0.6317 -0.6302 -0.2315
  199MOL0     C26199   8.910   4.400   3.337  0.5913  0.5361 -0.4695
  199MOL0     C26200   8.815   4.477   3.348 -0.1516  0.2632  0.4026
  199MOL0     C26201   8.960   3.906   3.630 -0.2893 -0.8845  0.0465
  199MOL0     C26202   8.917   3.769   3.652 -0.2680 -0.3497 -0.2934
  199MOL0     H26203   8.915   3.280   3.865 -2.0840 -1.7992  0.6734
  199MOL0     H26204   8.810   3.069   3.839  0.3311  1.1182 -0.2127
  199MOL0     H26205   8.904   2.774   3.535 -0.1412  0.3778  1.9762
  199MOL0     H26206   8.809   2.858   3.414  2.3372  0.6800  0.4548
  199MOL0     H26207   8.685   2.671   3.609 -4.2054  0.2583  0.6361
  199MOL0     H26208   8.716   2.628   3.448 -2.7072 -0.6785  0.2190
  199MOL0     H26209   8.581   2.822   3.380  0.2805 -3.6505 -1.3588
  199MOL0     H26210   8.540   2.869   3.539  2.5265 -1.4924  2.1074
  199MOL0     H26211   8.479   2.577   3.445 -2.3563 -1.1744  0.0616
  199MOL0     H26212   8.434   2.664   3.597  2.0447  1.6398 -0.0697
  199MOL0     H26213   8.346   2.778   3.336  1.2291  1.5802  0.4438
  199MOL0     H26214   8.275   2.824   3.475  1.0382  0.4612 -2.4026
  199MOL0     H26215   8.204   2.608   3.538 -0.7107 -1.1681 -0.7463
  199MOL0     H26216   8.272   2.524   3.402  1.3677  1.2042  0.1749
  199MOL0     H26217   8.061   2.745   3.393  1.0278  0.2661  1.5741
  199MOL0     H26218   8.100   2.640   3.250  1.6290  0.1387  0.3834
  199MOL0     H26219   7.960   2.531   3.519 -0.6426 -2.5463 -0.3609
  199MOL0     H26220   8.013   2.444   3.393 -1.8596 -1.5838  3.1916
  199MOL0     H26221   7.786   2.764   3.445 -1.0318  1.0012  0.0951
  199MOL0     H26222   7.470   2.726   3.454  1.9813  1.7423 -0.1090
  199MOL0     H26223   7.419   2.635   3.321 -1.1292  1.9747 -0.3216
  199MOL0     H26224   7.402   2.841   3.199  0.2150 -0.8936 -1.4200
  199MOL0     H26225   7.580   2.822   3.190 -0.7514  0.9087 -0.6518
  199MOL0     H26226   7.592   2.937   3.432  2.1507  0.0726 -1.5598
  199MOL0     H26227   7.564   3.044   3.305 -0.5484  1.2897  2.5309
  199MOL0     H26228   7.343   2.915   3.455 -1.5391 -0.4777 -1.3162
  199MOL0     H26229   7.321   3.043   3.328  0.0694  1.6317  0.0389
  199MOL0     H26230   7.220   2.961   3.627  1.4694 -0.9187  0.8429
  199MOL0     H26231   7.067   3.037   3.785  1.5976 -0.2648  1.2921
  199MOL0     H26232   7.136   3.625   4.007 -0.1491 -0.2616  1.2358
  199MOL0     H26233   7.061   3.724   4.220 -1.6160  1.3853  1.4402
  199MOL0     H26234   6.635   3.601   4.355  3.0723 -1.3739  2.9138
  199MOL0     H26235   6.642   3.745   4.252  4.2253 -0.3491 -2.0571
  199MOL0     H26236   6.545   3.805   4.480  0.0673 -2.3094  2.7665
  199MOL0     H26237   6.699   3.882   4.464  0.2337  0.6577 -0.4891
  199MOL0     H26238   6.787   3.680   4.605  0.2082  1.4587  0.7943
  199MOL0     H26239   6.620   3.617   4.594 -1.7598  0.4421  0.8257
  199MOL0     H26240   6.689   3.879   4.733 -1.2634 -0.3440  2.8392
  199MOL0     H26241   6.528   3.803   4.712 -0.2882 -1.9847  1.2435
  199MOL0     H26242   6.765   3.680   4.863 -0.9811 -3.7743  0.5914
  199MOL0     H26243   6.592   3.622   4.867 -0.2738 -1.1066 -2.5929
  199MOL0     H26244   6.650   3.758   5.069 -1.4280 -4.4807 -1.7254
  199MOL0     H26245   6.507   3.792   4.963 -0.2115 -2.4674  2.2187
  199MOL0     H26246   6.762   3.973   4.955 -1.6403  3.1562 -1.6297
  199MOL0     H26247   6.590   4.009   4.912  1.0421  1.4831 -1.0229
  199MOL0     H26248   6.550   3.963   5.162 -0.3598  1.0107  0.4345
  199MOL0     H26249   6.647   4.109   5.126  0.6261  0.1849 -0.8608
  199MOL0     H26250   6.703   3.466   4.193  0.7302 -0.2424  0.6939
  199MOL0     H26251   6.772   3.394   3.986  2.4864 -0.7782 -2.2862
  199MOL0     H26252   7.201   3.450   3.691  0.9809  0.5399  0.2396
  199MOL0     H26253   7.372   3.353   3.551 -0.1565  0.9755  0.5889
  199MOL0     H26254   8.906   3.058   3.421 -0.0302 -2.0221  0.0687
  199MOL0     H26255   9.038   3.259   3.453 -1.4201  0.1128 -0.9610
  199MOL0     H26256   9.205   3.609   3.593  1.7271 -0.7445  5.0128
  199MOL0     H26257   9.279   3.823   3.559  0.8057 -4.0139  0.9682
  199MOL0     H26258   9.277   4.025   3.443  0.0994 -0.4409  0.9652
  199MOL0     H26259   9.232   4.193   3.451  1.9596 -0.1040  1.1422
  199MOL0     H26260   9.155   4.081   3.251  1.0713 -2.7702  0.4826
  199MOL0     H26261   9.059   3.970   3.351 -1.4784  0.6619 -3.7172
  199MOL0     H26262   8.922   4.165   3.436  0.2704 -0.1622 -0.2915
  199MOL0     H26263   8.915   4.145   3.259  0.5669  1.2654 -0.9806
  199MOL0     H26264   9.098   4.347   3.399  0.6679  0.7323 -0.8244
  199MOL0     H26265   9.074   4.325   3.225  0.0590  0.8644 -0.3689
  199MOL0     H26266   8.728   4.537   3.328 -2.3803 -3.3237 -1.5978
  199MOL0     H26267   8.894   3.991   3.617  0.3734 -0.5488 -1.3848
  199MOL0     H26268   8.811   3.749   3.662 -0.1591 -1.5358 -1.2744
  200MOL0     O26269   7.984   3.840   3.663  0.1613 -0.0929  0.0975
  200MOL0     C26270   7.939   3.956   3.681  0.0832 -0.4941  0.2319
  200MOL0     O26271   7.872   4.027   3.582  0.2116  0.4078 -0.2149
  200MOL0     C26272   7.824   3.957   3.479  0.1414  0.2442 -0.5204
  200MOL0     C26273   7.896   3.960   3.363 -0.4630  0.3807 -0.2398
  200MOL0     C26274   7.849   3.884   3.251  0.7877  0.4669  0.1466
  200MOL0     C26275   7.718   3.838   3.249  0.1871  0.3475 -0.6936
  200MOL0     O26276   7.658   3.774   3.145 -0.3871 -0.1685 -0.4159
  200MOL0     C26277   7.715   3.775   3.014  0.2633 -0.6651  1.0300
  200MOL0     C26278   7.623   3.718   2.903  1.0004  0.3808 -0.3488
  200MOL0     C26279   7.496   3.784   2.883  0.1581 -0.4460 -0.1501
  200MOL0     C26280   7.499   3.939   2.862  1.2787 -0.3298 -0.2205
  200MOL0     C26281   7.353   3.997   2.867 -0.3356 -0.0785  0.3878
  200MOL0     C26282   7.311   4.031   3.011  0.0577 -0.4868  0.6582
  200MOL0     C26283   7.181   4.101   3.008 -0.4206  0.9102 -0.1307
  200MOL0     C26284   7.147   4.116   3.146  0.7843 -0.3289 -0.6188
  200MOL0     N26285   7.027   4.207   3.163 -0.3090  0.4519 -0.1310
  200MOL0     C26286   7.042   4.339   3.200  0.0419 -0.3960  0.5449
  200MOL0     C26287   6.917   4.383   3.223  0.3563 -0.3819 -0.2368
  200MOL0     C26288   6.879   4.514   3.283 -0.0341 -0.6942  0.1169
  200MOL0     C26289   6.796   4.512   3.412  0.6406 -0.1075  0.0617
  200MOL0     C26290   6.875   4.487   3.544  0.5663 -0.1183 -0.1605
  200MOL0     C26291   6.777   4.448   3.654 -0.7755  0.4193 -0.6225
  200MOL0     O26292   6.641   4.484   3.628  0.2582  0.0390  0.5504
  200MOL0     C26293   6.556   4.502   3.730  0.4224 -0.6250 -0.7250
  200MOL0     C26294   6.576   4.472   3.859 -0.7362  0.3927  0.7407
  200MOL0     C26295   6.488   4.495   3.960  0.5465  0.3318 -0.4613
  200MOL0     C26296   6.362   4.537   3.925  0.8325  0.2275  0.0914
  200MOL0     C26297   6.249   4.562   4.019  0.9095  0.2573 -0.0612
  200MOL0     O26298   6.123   4.576   3.974 -0.6996 -0.5080 -0.3222
  200MOL0     C26299   6.021   4.554   4.066 -0.4813  0.5205  0.2772
  200MOL0     C26300   5.938   4.440   4.044  0.7869 -0.3684  0.6895
  200MOL0     C26301   5.828   4.419   4.139  0.1059 -0.1672  0.4321
  200MOL0     C26302   5.800   4.513   4.248 -0.9978 -0.4582  0.1721
  200MOL0     O26303   5.704   4.467   4.337  0.0742 -0.3525  0.2719
  200MOL0     C26304   5.598   4.556   4.333 -0.0587 -0.5707  0.5591
  200MOL0     C26305   5.476   4.488   4.396  0.6775 -0.8221 -0.0412
  200MOL0     C26306   5.349   4.571   4.374 -0.5771  0.2444 -0.0463
  200MOL0     C26307   5.239   4.488   4.430 -0.4014 -0.3208  0.5168
  200MOL0     C26308   5.108   4.566   4.423  0.0869  0.1203 -0.0934
  200MOL0     C26309   4.993   4.500   4.494  0.0614 -0.2506 -0.4531
  200MOL0     C26310   4.861   4.565   4.468 -0.2646 -0.4407  0.5719
  200MOL0     C26311   4.737   4.501   4.548 -0.5584 -0.2949  0.5243
  200MOL0    Cl26312   4.688   4.348   4.472 -0.3604 -0.6896  0.1806
  200MOL0     C26313   5.889   4.617   4.265  0.0795 -0.9528  0.7370
  200MOL0     C26314   5.997   4.642   4.171  0.5971  0.9329 -0.4644
  200MOL0     O26315   6.282   4.536   4.137  0.8563 -0.5545 -0.8256
  200MOL0     C26316   6.334   4.570   3.786  0.5381 -0.3322  1.1737
  200MOL0     C26317   6.435   4.552   3.697  1.1238 -0.2126 -0.0954
  200MOL0     N26318   6.831   4.282   3.191 -0.4168 -0.0117 -0.1454
  200MOL0     N26319   6.895   4.173   3.152  0.0723  1.3952 -0.8966
  200MOL0     C26320   7.636   3.854   3.361 -0.1608 -0.0667 -0.0454
  200MOL0     C26321   7.691   3.908   3.478  0.1578  0.3215 -0.6761
  200MOL0     C26322   7.977   4.023   3.811 -1.5714 -0.0387 -0.4856
  200MOL0     C26323   8.077   3.974   3.898  0.6495  0.8673 -0.5112
  200MOL0     C26324   8.080   4.036   4.032 -0.1358 -0.1394  1.4440
  200MOL0     C26325   7.986   4.129   4.068 -0.2278  0.0083 -1.1594
  200MOL0     O26326   7.974   4.174   4.198  0.2740 -0.0891  0.3439
  200MOL0     C26327   7.927   4.085   4.301 -0.4343  0.0728 -0.0058
  200MOL0     C26328   7.957   4.135   4.442 -0.3560 -0.1551  0.2379
  200MOL0     C26329   8.101   4.108   4.490 -0.8380  0.3012  0.5667
  200MOL0     C26330   8.132   4.203   4.610  0.2678  0.2517 -0.1988
  200MOL0     C26331   8.275   4.215   4.610  0.1349  0.2482 -0.2146
  200MOL0     C26332   8.396   4.229   4.619 -0.4520  0.9192 -0.2714
  200MOL0     C26333   7.884   4.169   3.985 -0.4146 -1.3685 -0.0135
  200MOL0     C26334   7.879   4.113   3.862 -0.3118 -0.7727 -0.5113
  200MOL0     H26335   7.998   3.999   3.363  0.1985 -1.1156 -2.6253
  200MOL0     H26336   7.906   3.860   3.162  1.5601  1.3043  0.4007
  200MOL0     H26337   7.810   3.720   3.005 -0.9814 -2.9652  1.2386
  200MOL0     H26338   7.732   3.880   2.987 -0.1600 -0.5465  1.2176
  200MOL0     H26339   7.603   3.614   2.929  1.3959  0.3603 -0.1158
  200MOL0     H26340   7.688   3.709   2.816 -0.1587 -1.6998 -1.0699
  200MOL0     H26341   7.427   3.774   2.968  2.2765  2.7164  2.1501
  200MOL0     H26342   7.446   3.726   2.804 -1.6796 -0.1090  0.7150
  200MOL0     H26343   7.556   3.990   2.940  0.8239 -4.1849  2.9708
  200MOL0     H26344   7.558   3.954   2.771 -0.4282 -1.4021 -1.5697
  200MOL0     H26345   7.278   3.936   2.815  0.0840 -1.5029  1.3833
  200MOL0     H26346   7.371   4.092   2.817 -2.0762 -1.6684 -3.8050
  200MOL0     H26347   7.396   4.077   3.063  1.7028 -0.0622 -2.1676
  200MOL0     H26348   7.296   3.940   3.070  0.0958 -1.4900 -0.8208
  200MOL0     H26349   7.186   4.200   2.963 -0.7154  0.6742 -0.6981
  200MOL0     H26350   7.100   4.046   2.958 -0.1573 -0.0441  0.4669
  200MOL0     H26351   7.230   4.155   3.206 -0.6566  2.9168 -0.5313
  200MOL0     H26352   7.113   4.016   3.173  1.3926 -1.2543 -3.0767
  200MOL0     H26353   7.127   4.405   3.208 -0.1549 -0.1666  0.7373
  200MOL0     H26354   6.810   4.564   3.214  0.2816  0.7571  0.8094
  200MOL0     H26355   6.967   4.571   3.312  0.1743 -0.3363 -1.1646
  200MOL0     H26356   6.721   4.435   3.391 -1.0945  2.1341 -2.6938
  200MOL0     H26357   6.746   4.609   3.411  2.9435  1.2596 -3.3641
  200MOL0     H26358   6.951   4.409   3.537  1.9880  0.9565  2.0931
  200MOL0     H26359   6.928   4.582   3.558  2.9699 -1.2734 -0.8795
  200MOL0     H26360   6.821   4.491   3.745  0.6414 -0.4114 -0.9006
  200MOL0     H26361   6.778   4.340   3.669  2.5393  0.7483  3.4853
  200MOL0     H26362   6.668   4.419   3.880 -2.3041 -3.9210 -1.8759
  200MOL0     H26363   6.526   4.485   4.061  0.4759  0.6266 -0.4056
  200MOL0     H26364   5.955   4.379   3.956  1.6579  1.6985 -0.6448
  200MOL0     H26365   5.774   4.324   4.136 -0.8511  0.3842 -0.5553
  200MOL0     H26366   5.571   4.569   4.227 -1.8471 -1.8218  0.8100
  200MOL0     H26367   5.626   4.653   4.374 -0.1660  0.0571 -0.7891
  200MOL0     H26368   5.497   4.487   4.503  3.3453 -0.5364 -0.4979
  200MOL0     H26369   5.454   4.388   4.357  1.3148 -0.5336 -1.1860
  200MOL0     H26370   5.329   4.597   4.270  2.7148  0.5213 -0.7274
  200MOL0     H26371   5.354   4.662   4.435 -1.3357  0.1866  0.1089
  200MOL0     H26372   5.223   4.392   4.379 -0.6945 -1.2812  2.3339
  200MOL0     H26373   5.259   4.450   4.530 -2.0693 -4.7122 -0.5661
  200MOL0     H26374   5.084   4.562   4.316 -1.1797 -3.4215  0.1933
  200MOL0     H26375   5.128   4.664   4.468 -0.5641 -0.5725  1.7390
  200MOL0     H26376   5.019   4.502   4.600 -3.2646 -1.5182  0.5344
  200MOL0     H26377   4.981   4.399   4.454 -0.6468 -0.1671 -0.4739
  200MOL0     H26378   4.874   4.672   4.484 -3.5783  0.3182 -0.8322
  200MOL0     H26379   4.854   4.554   4.359  0.7087 -2.5927  0.6725
  200MOL0     H26380   4.661   4.579   4.534  2.8117  2.8699 -2.2184
  200MOL0     H26381   4.755   4.490   4.655 -0.8520  0.3395  0.6474
  200MOL0     H26382   5.851   4.680   4.345 -1.7391  0.3573 -1.0246
  200MOL0     H26383   6.078   4.712   4.187  0.0535  1.0367  2.3789
  200MOL0     H26384   6.233   4.587   3.749 -0.0585 -1.2161  2.2944
  200MOL0     H26385   6.407   4.561   3.593 -0.7574  0.2721  0.4319
  200MOL0     H26386   7.535   3.816   3.351  1.0281 -4.2917  1.8535
  200MOL0     H26387   7.633   3.903   3.570 -1.3315  2.6940 -1.3790
  200MOL0     H26388   8.147   3.895   3.871 -1.3107 -1.2105  0.2070
  200MOL0     H26389   8.173   4.014   4.084  1.2397 -2.8632 -1.8543
  200MOL0     H26390   7.965   3.983   4.286 -2.7937 -0.6230 -1.9962
  200MOL0     H26391   7.820   4.064   4.289 -0.3640  0.7142 -2.0144
  200MOL0     H26392   7.925   4.240   4.441  0.5333  0.1329 -1.5225
  200MOL0     H26393   7.886   4.071   4.495 -2.1318  0.2435 -1.5246
  200MOL0     H26394   8.177   4.123   4.412  1.5746 -0.2465  2.6896
  200MOL0     H26395   8.113   4.006   4.526  3.1237 -0.3406 -1.9582
  200MOL0     H26396   8.088   4.301   4.592  2.1276  0.9731 -1.0683
  200MOL0     H26397   8.092   4.157   4.701 -0.6465 -0.3084 -0.8662
  200MOL0     H26398   8.503   4.228   4.625 -0.4212 -0.3569 -0.6473
  200MOL0     H26399   7.804   4.239   4.004 -1.8061 -2.1788 -2.4423
  200MOL0     H26400   7.800   4.141   3.794 -1.5060  1.5944  1.7090
  201MOL0     O26401   9.434  10.305   1.365  0.6172 -1.0812  0.1819
  201MOL0     C26402   9.368  10.391   1.420 -0.5546 -0.2305 -2.0262
  201MOL0     O26403   9.237  10.426   1.389  0.5422  0.2226 -0.4239
  201MOL0     C26404   9.192  10.370   1.277 -0.6911  0.5483 -0.1560
  201MOL0     C26405   9.150  10.239   1.258  0.7995 -0.3295  0.0519
  201MOL0     C26406   9.091  10.200   1.133  0.4137  1.3649 -1.4676
  201MOL0     C26407   9.087  10.282   1.022  0.3313  0.5704 -0.5410
  201MOL0     O26408   9.025  10.224   0.914  0.2091  0.3050 -0.3088
  201MOL0     C26409   9.121  10.179   0.810  0.1808 -0.5058  1.3645
  201MOL0     C26410   9.036  10.138   0.693  0.0305  0.0658  0.9775
  201MOL0     C26411   8.984  10.265   0.619  0.3213  0.0479  0.7937
  201MOL0     C26412   8.924  10.227   0.482  0.2526  0.7078 -0.3106
  201MOL0     C26413   8.937  10.333   0.381 -0.2929 -0.1129  0.1443
  201MOL0     C26414   9.076  10.308   0.301 -0.5774 -0.0458  0.0852
  201MOL0     C26415   9.109  10.432   0.211  0.2104 -1.0127 -1.0933
  201MOL0     C26416   9.226  10.429   0.109 -0.0856  0.1669  0.2341
  201MOL0     N26417   9.352  10.473   0.173 -0.0387  0.1954  0.6762
  201MOL0     C26418   9.423  10.405   0.261 -0.3542  0.7050 -0.4191
  201MOL0     C26419   9.526  10.491   0.285  0.3340  1.1361  0.1525
  201MOL0     C26420   9.622  10.486   0.395 -0.6596  1.1459 -0.6746
  201MOL0     C26421   9.704  10.348   0.403  0.3796 -0.8019  0.1279
  201MOL0     C26422   9.758  10.295   0.264  0.6208  0.9513  0.0974
  201MOL0     C26423   9.796  10.146   0.288  0.0849  0.6667 -0.0572
  201MOL0     O26424   9.901  10.141   0.378 -0.2491  0.2114  0.1716
  201MOL0     C26425   9.957  10.023   0.426  0.2689  0.2977  0.0613
  201MOL0     C26426   9.932   9.999   0.561  1.0935 -0.2906  0.4197
  201MOL0     C26427   9.993   9.889   0.629 -0.4403 -1.0110 -0.1430
  201MOL0     C26428  10.062   9.789   0.555 -0.2820  0.1221  0.5331
  201MOL0     C26429  10.124   9.673   0.623 -0.4572 -0.3128 -0.4274
  201MOL0     O26430  10.169   9.560   0.557  0.8542 -0.0628  0.6571
  201MOL0     C26431  10.218   9.443   0.620  1.0343 -0.8226  0.2592
  201MOL0     C26432  10.344   9.444   0.668  0.2333  0.0482  0.3875
  201MOL0     C26433  10.385   9.327   0.732 -1.2662  0.2510  0.1543
  201MOL0     C26434  10.309   9.213   0.762 -1.7961 -0.1441 -0.2001
  201MOL0     O26435  10.371   9.109   0.825  0.9766  0.5707  0.0213
  201MOL0     C26436  10.297   8.987   0.841 -0.7895  0.6698  0.0915
  201MOL0     C26437  10.270   8.908   0.706 -0.3738 -0.5710 -0.2987
  201MOL0     C26438  10.412   8.841   0.669 -0.4171  0.3420 -0.0041
  201MOL0     C26439  10.391   8.771   0.536 -0.4648  0.2759  0.3247
  201MOL0     C26440  10.518   8.705   0.473 -0.1991  0.0234  0.3545
  201MOL0     C26441  10.551   8.576   0.541  0.4739  0.1251 -0.2680
  201MOL0     C26442  10.673   8.519   0.489 -0.0741 -0.2822  0.3591
  201MOL0     C26443  10.713   8.413   0.598 -0.1152  0.5279 -0.8526
  201MOL0    Cl26444  10.892   8.387   0.576 -0.0728 -0.0899 -0.1826
  201MOL0     C26445  10.177   9.227   0.723 -0.1334 -0.2370  0.3857
  201MOL0     C26446  10.125   9.340   0.643  0.0752 -0.6726  1.0462
  201MOL0     O26447  10.123   9.689   0.745 -0.6117  0.6459 -0.4096
  201MOL0     C26448  10.082   9.817   0.416 -0.1540  0.1172  0.1101
  201MOL0     C26449  10.032   9.933   0.350  0.9703 -0.3810 -0.2408
  201MOL0     N26450   9.520  10.602   0.205  0.1663  0.2197  0.0510
  201MOL0     N26451   9.412  10.589   0.136  0.2019 -0.5121  0.0651
  201MOL0     C26452   9.154  10.406   1.034 -0.1188  0.3336  0.2629
  201MOL0     C26453   9.197  10.450   1.160  0.7010  0.0042 -0.1495
  201MOL0     C26454   9.406  10.441   1.550  1.0783 -0.3560 -0.3555
  201MOL0     C26455   9.321  10.491   1.657  1.1440  0.1615  1.1982
  201MOL0     C26456   9.373  10.540   1.781 -0.6028  0.3104  0.8057
  201MOL0     C26457   9.514  10.533   1.805 -0.4408 -0.0924 -0.4311
  201MOL0     O26458   9.556  10.571   1.931 -0.7334 -0.5416 -0.0855
  201MOL0     C26459   9.693  10.560   1.981 -0.1207  0.7648 -0.5151
  201MOL0     C26460   9.722  10.415   2.016  0.1497 -0.3919 -0.4133
  201MOL0     C26461   9.824  10.385   2.125  1.6746  0.1733  0.7362
  201MOL0     C26462   9.825  10.241   2.165 -0.0016 -0.2103 -0.1948
  201MOL0     C26463   9.927  10.165   2.086  0.4254 -0.5348  0.9544
  201MOL0     C26464  10.003  10.114   2.003  0.5888 -0.6048 -0.0029
  201MOL0     C26465   9.592  10.466   1.709 -0.1725 -0.4205 -0.4373
  201MOL0     C26466   9.536  10.429   1.590  0.0890 -0.1185 -0.0478
  201MOL0     H26467   9.149  10.176   1.346 -3.1349 -0.9046 -0.2143
  201MOL0     H26468   9.031  10.110   1.129 -0.7479  2.0117  0.1757
  201MOL0     H26469   9.179  10.096   0.851  1.6669  1.2285  2.9566
  201MOL0     H26470   9.184  10.255   0.763  1.6260 -2.2464  0.3938
  201MOL0     H26471   8.951  10.077   0.725 -2.7060  1.5168 -2.8385
  201MOL0     H26472   9.090  10.066   0.631 -1.2189 -1.9277  2.0749
  201MOL0     H26473   9.061  10.339   0.595 -0.2533  0.8225  1.3265
  201MOL0     H26474   8.915  10.312   0.688 -0.8216 -1.2633  0.5934
  201MOL0     H26475   8.954  10.132   0.437 -0.2406  0.8906 -1.0416
  201MOL0     H26476   8.818  10.208   0.500  0.0500 -1.0828 -2.8583
  201MOL0     H26477   8.947  10.428   0.434  1.1422  0.2731 -0.7581
  201MOL0     H26478   8.853  10.331   0.312 -0.6408 -2.7591  0.5268
  201MOL0     H26479   9.078  10.224   0.231  1.5912 -0.2260  0.3132
  201MOL0     H26480   9.158  10.284   0.369  2.4360  1.0276 -2.9040
  201MOL0     H26481   9.017  10.466   0.162 -0.9952 -0.0172  1.6787
  201MOL0     H26482   9.125  10.522   0.271  0.0740  0.2068 -2.8037
  201MOL0     H26483   9.198  10.494   0.026  1.6842  1.6729  0.7205
  201MOL0     H26484   9.233  10.326   0.075 -0.2457 -0.3724  1.7398
  201MOL0     H26485   9.414  10.305   0.304  1.3133  1.0472  0.8466
  201MOL0     H26486   9.581  10.488   0.497  2.5913 -0.9044  0.8285
  201MOL0     H26487   9.699  10.561   0.376 -0.1191 -0.1139 -4.0226
  201MOL0     H26488   9.645  10.267   0.446 -0.1382  0.8885  2.8226
  201MOL0     H26489   9.783  10.362   0.476  0.2867 -1.2315  0.3147
  201MOL0     H26490   9.677  10.276   0.193 -1.0580 -1.9955  2.5478
  201MOL0     H26491   9.843  10.349   0.223  3.6263 -1.0631  3.0607
  201MOL0     H26492   9.839  10.120   0.190  0.8436  0.5648  0.2940
  201MOL0     H26493   9.706  10.090   0.312 -1.7633  3.0721 -1.0047
  201MOL0     H26494   9.874  10.071   0.617  1.5637 -0.0008  0.5432
  201MOL0     H26495   9.999   9.894   0.737  1.6823  0.9281 -0.2720
  201MOL0     H26496  10.410   9.525   0.637  0.1527 -0.2698 -0.6539
  201MOL0     H26497  10.484   9.336   0.776 -0.8176  1.1413 -0.9763
  201MOL0     H26498  10.205   9.012   0.894 -1.0757 -0.4774  0.1781
  201MOL0     H26499  10.342   8.915   0.911 -0.9138 -0.7524 -1.2528
  201MOL0     H26500  10.241   8.980   0.629  0.0379  0.5856  0.6072
  201MOL0     H26501  10.201   8.824   0.713  1.0288 -1.6380  2.3443
  201MOL0     H26502  10.427   8.767   0.748 -3.4651 -0.2093  0.2000
  201MOL0     H26503  10.496   8.910   0.660 -0.2253  0.1652  0.4100
  201MOL0     H26504  10.303   8.708   0.552 -0.7883 -0.2189 -2.8530
  201MOL0     H26505  10.356   8.845   0.464  0.4644 -1.7868 -2.3984
  201MOL0     H26506  10.599   8.777   0.486 -0.6105  0.1467  2.8194
  201MOL0     H26507  10.525   8.695   0.365 -2.5288  0.1168  0.1324
  201MOL0     H26508  10.468   8.507   0.520  1.6330 -0.2187 -4.6550
  201MOL0     H26509  10.548   8.594   0.649 -2.8059 -3.0189  0.3958
  201MOL0     H26510  10.647   8.467   0.396  1.1150 -1.3937  0.6186
  201MOL0     H26511  10.755   8.585   0.462  0.5637 -1.0546  0.3586
  201MOL0     H26512  10.654   8.327   0.565  2.8996 -2.3109  0.5322
  201MOL0     H26513  10.694   8.446   0.701  1.9061 -3.4382  1.0696
  201MOL0     H26514  10.096   9.157   0.739  0.8249 -1.3915  0.3230
  201MOL0     H26515  10.029   9.358   0.595 -0.3660  0.6257  2.3340
  201MOL0     H26516  10.139   9.747   0.356  2.4074  1.5971  0.6815
  201MOL0     H26517  10.045   9.954   0.244 -0.0426  2.3082  0.0973
  201MOL0     H26518   9.161  10.475   0.951 -0.4085 -0.9329 -0.8434
  201MOL0     H26519   9.255  10.542   1.164 -1.8526  1.7106  4.0323
  201MOL0     H26520   9.216  10.501   1.634  0.5621 -3.9987  1.3225
  201MOL0     H26521   9.302  10.578   1.854 -3.4634 -2.8403 -0.0740
  201MOL0     H26522   9.697  10.612   2.077  2.3414  1.2877 -0.8397
  201MOL0     H26523   9.774  10.602   1.921  1.7355 -0.8574  0.7397
  201MOL0     H26524   9.629  10.369   2.053  1.0900 -1.2648  0.9719
  201MOL0     H26525   9.757  10.358   1.930  4.9744 -2.0781  2.3099
  201MOL0     H26526   9.796  10.454   2.204 -0.1386  0.2055  0.1204
  201MOL0     H26527   9.925  10.413   2.094  0.8760  1.3515 -0.9499
  201MOL0     H26528   9.854  10.239   2.271 -1.2212 -0.3561  0.1527
  201MOL0     H26529   9.730  10.187   2.163 -1.2586  1.8441 -3.0668
  201MOL0     H26530  10.051  10.071   1.917  0.6431 -1.2767  0.3606
  201MOL0     H26531   9.698  10.461   1.731  0.2644  2.8414 -1.3352
  201MOL0     H26532   9.616  10.400   1.523 -0.7994 -0.4443 -1.0007
  202MOL0     O26533   1.510   6.792   5.722 -0.2496 -0.2818  0.8263
  202MOL0     C26534   1.572   6.723   5.643  0.6383  0.0982  0.9597
  202MOL0     O26535   1.601   6.594   5.658  0.9186 -0.6767 -0.3260
  202MOL0     C26536   1.560   6.511   5.757 -0.2857 -0.1144  0.1016
  202MOL0     C26537   1.459   6.535   5.848 -0.5411 -0.0803  0.8948
  202MOL0     C26538   1.416   6.434   5.939  0.9329 -0.4797  1.4279
  202MOL0     C26539   1.480   6.318   5.959  0.9256 -0.3578 -0.0305
  202MOL0     O26540   1.441   6.233   6.061 -0.2263 -0.7777 -0.0338
  202MOL0     C26541   1.515   6.113   6.090  0.8665  0.3316  0.0107
  202MOL0     C26542   1.494   6.094   6.242  0.5916 -0.5756 -0.1687
  202MOL0     C26543   1.540   6.214   6.328  0.0040  0.2650 -0.3505
  202MOL0     C26544   1.449   6.220   6.450 -0.2983 -0.1606 -0.2851
  202MOL0     C26545   1.454   6.360   6.519 -0.1821 -0.0870 -0.3040
  202MOL0     C26546   1.346   6.347   6.627  0.4179 -0.9406  0.4911
  202MOL0     C26547   1.333   6.484   6.707 -0.4973  0.3446  0.2401
  202MOL0     C26548   1.202   6.463   6.786 -0.9889 -0.4161 -0.1429
  202MOL0     N26549   1.194   6.553   6.904  0.6771  0.8485  0.2665
  202MOL0     C26550   1.213   6.524   7.038  0.1446  0.7626 -0.1338
  202MOL0     C26551   1.197   6.646   7.105  0.1781 -0.3223 -0.5410
  202MOL0     C26552   1.225   6.688   7.244 -0.2045  0.1463 -0.4554
  202MOL0     C26553   1.377   6.714   7.260  1.0839 -0.3753  1.1098
  202MOL0     C26554   1.409   6.770   7.397  0.7355 -0.2870 -0.0107
  202MOL0     C26555   1.557   6.791   7.431 -0.3591 -0.2452  1.3343
  202MOL0     O26556   1.582   6.832   7.564 -0.5122 -0.0951  0.2711
  202MOL0     C26557   1.643   6.743   7.644 -0.2695 -0.1728  0.0610
  202MOL0     C26558   1.624   6.608   7.639  0.3623 -0.3585  0.3663
  202MOL0     C26559   1.696   6.523   7.725  0.3444  0.5588 -0.3149
  202MOL0     C26560   1.792   6.580   7.815  0.8196  0.5923  0.6044
  202MOL0     C26561   1.862   6.491   7.906 -0.6186  0.3058 -0.4096
  202MOL0     O26562   1.970   6.544   7.966  0.0825 -0.4885 -0.3759
  202MOL0     C26563   2.058   6.469   8.046 -0.8318 -0.3489  0.0041
  202MOL0     C26564   2.146   6.374   7.986  0.0944  0.8316 -0.5579
  202MOL0     C26565   2.210   6.276   8.068 -0.0250  0.9619  0.4391
  202MOL0     C26566   2.196   6.281   8.207 -0.0275 -0.4300  0.1364
  202MOL0     O26567   2.259   6.183   8.281  0.1709 -0.7698 -0.3165
  202MOL0     C26568   2.217   6.161   8.421 -0.3658 -0.4935 -1.1827
  202MOL0     C26569   2.303   6.052   8.481  0.0183  0.3156 -0.8702
  202MOL0     C26570   2.445   6.098   8.500 -0.0375 -0.0672 -0.5101
  202MOL0     C26571   2.542   5.995   8.567 -0.4007 -0.0356 -0.3763
  202MOL0     C26572   2.569   6.031   8.716  0.1003 -0.7613  0.0825
  202MOL0     C26573   2.432   6.015   8.792 -0.2840  1.3267 -1.2943
  202MOL0     C26574   2.456   6.046   8.948  0.3508 -0.4217  0.4624
  202MOL0     C26575   2.493   5.913   9.024 -0.4683  0.0942 -0.4092
  202MOL0    Cl26576   2.518   5.921   9.208  0.3288 -0.6706  0.0127
  202MOL0     C26577   2.115   6.379   8.265  1.1840  0.2570 -0.1881
  202MOL0     C26578   2.040   6.468   8.182  0.4195 -0.1850 -0.0084
  202MOL0     O26579   1.821   6.374   7.926  0.6820  0.8607  0.1205
  202MOL0     C26580   1.807   6.716   7.830  0.6491 -0.9495 -0.7418
  202MOL0     C26581   1.731   6.796   7.742 -0.1938  0.1483 -0.5549
  202MOL0     N26582   1.179   6.745   7.008 -0.3500  0.0772  0.1270
  202MOL0     N26583   1.161   6.682   6.893 -0.8908  0.0972  0.2432
  202MOL0     C26584   1.588   6.295   5.867  1.1193 -0.1355 -0.4470
  202MOL0     C26585   1.625   6.386   5.774  0.7570  0.2295  0.7349
  202MOL0     C26586   1.651   6.795   5.537 -0.6341  1.5209 -0.6090
  202MOL0     C26587   1.652   6.933   5.532 -0.1006 -0.5108  0.0402
  202MOL0     C26588   1.721   6.996   5.426  0.4036  0.6048 -0.2986
  202MOL0     C26589   1.789   6.922   5.323 -0.9275 -0.5371 -0.9051
  202MOL0     O26590   1.870   6.979   5.229  0.4666 -0.1196  0.4501
  202MOL0     C26591   1.813   7.101   5.160  1.2224  0.5006  0.4800
  202MOL0     C26592   1.699   7.047   5.066  0.3594 -0.4981 -0.5009
  202MOL0     C26593   1.661   7.160   4.972 -0.3287  0.2055  0.3706
  202MOL0     C26594   1.578   7.266   5.041  0.1173  0.3822 -0.8271
  202MOL0     C26595   1.437   7.226   5.053  0.2424  0.2707 -0.3205
  202MOL0     C26596   1.322   7.193   5.061  1.1811  0.0782  0.3584
  202MOL0     C26597   1.778   6.788   5.321 -0.4422  0.7835  0.1074
  202MOL0     C26598   1.709   6.722   5.429 -0.4125 -0.4409  0.2865
  202MOL0     H26599   1.423   6.637   5.851  2.6912  1.5303 -3.5248
  202MOL0     H26600   1.336   6.464   6.007 -0.8798  4.0691 -2.1543
  202MOL0     H26601   1.624   6.104   6.078  0.7650 -3.1116  0.4716
  202MOL0     H26602   1.462   6.030   6.042  0.7107  2.0784 -3.0788
  202MOL0     H26603   1.565   6.018   6.273  1.4755  0.3779  0.1910
  202MOL0     H26604   1.390   6.062   6.255 -0.2832  2.1161  0.1939
  202MOL0     H26605   1.534   6.306   6.269 -1.0274  0.2340 -0.3135
  202MOL0     H26606   1.645   6.199   6.352 -0.1349 -2.0528 -0.9846
  202MOL0     H26607   1.341   6.208   6.432 -0.4420  1.5605 -0.7221
  202MOL0     H26608   1.479   6.143   6.522  0.4722 -0.1326 -0.5794
  202MOL0     H26609   1.430   6.439   6.447 -1.1125  0.2215  0.3298
  202MOL0     H26610   1.558   6.373   6.549 -0.1122 -3.2550  1.1053
  202MOL0     H26611   1.382   6.270   6.696  1.0503 -0.8853  0.2200
  202MOL0     H26612   1.249   6.314   6.588 -0.4246  0.2767  1.4422
  202MOL0     H26613   1.415   6.476   6.780 -0.6528  1.8774  0.6245
  202MOL0     H26614   1.323   6.569   6.639  1.3379 -0.1612 -0.7446
  202MOL0     H26615   1.198   6.359   6.822 -0.0112 -0.7615 -0.9938
  202MOL0     H26616   1.118   6.473   6.717  1.3364  1.4950 -2.9232
  202MOL0     H26617   1.244   6.428   7.077 -2.0306  0.9962  2.4757
  202MOL0     H26618   1.189   6.619   7.321 -0.9409  1.1654  0.1418
  202MOL0     H26619   1.176   6.783   7.267 -2.6226 -1.4191  1.3189
  202MOL0     H26620   1.396   6.791   7.184 -2.0478 -2.2787 -1.9179
  202MOL0     H26621   1.442   6.629   7.241  1.4246 -0.4618  2.5460
  202MOL0     H26622   1.355   6.865   7.390  1.7097  0.1593 -2.5320
  202MOL0     H26623   1.374   6.701   7.474  0.9459 -0.3861 -0.0061
  202MOL0     H26624   1.586   6.879   7.374  0.3566 -1.5670 -0.4505
  202MOL0     H26625   1.620   6.707   7.401  4.1729  3.1357  0.3887
  202MOL0     H26626   1.549   6.559   7.578  2.5949 -0.4511 -2.5526
  202MOL0     H26627   1.675   6.417   7.728  2.5631  0.0798  2.6436
  202MOL0     H26628   2.168   6.372   7.880  4.5771 -1.8118  0.1728
  202MOL0     H26629   2.274   6.202   8.022 -2.7220 -1.2073 -0.0836
  202MOL0     H26630   2.112   6.133   8.438 -0.0313 -0.4444  1.4947
  202MOL0     H26631   2.227   6.247   8.488 -0.6509 -0.5947 -1.0086
  202MOL0     H26632   2.299   5.985   8.395  0.1404  1.3053 -1.6624
  202MOL0     H26633   2.251   6.012   8.568  1.0525  2.5626  0.8849
  202MOL0     H26634   2.442   6.188   8.563 -0.5928  0.4946 -1.3144
  202MOL0     H26635   2.476   6.121   8.397  3.5071  0.1834  0.4882
  202MOL0     H26636   2.495   5.896   8.563  0.9482 -0.6679 -0.9349
  202MOL0     H26637   2.638   5.987   8.516  1.9756  0.9896  3.5147
  202MOL0     H26638   2.623   6.126   8.711 -0.2999 -0.5890 -1.3502
  202MOL0     H26639   2.645   5.964   8.757  1.1433  0.1902 -0.2414
  202MOL0     H26640   2.398   5.911   8.787 -2.7201  2.0607 -1.4317
  202MOL0     H26641   2.355   6.080   8.750  0.2564  2.8760 -0.0036
  202MOL0     H26642   2.520   6.134   8.962 -0.4799 -0.0425  2.2338
  202MOL0     H26643   2.368   6.083   9.001  0.5466  3.6400 -1.6342
  202MOL0     H26644   2.587   5.873   8.984  0.2544  2.7482 -1.5378
  202MOL0     H26645   2.423   5.835   8.994  0.0281 -1.0116  1.1627
  202MOL0     H26646   2.098   6.375   8.372 -0.2964  0.4113 -0.3929
  202MOL0     H26647   1.964   6.540   8.211  0.4923 -0.1668  0.1378
  202MOL0     H26648   1.878   6.760   7.899 -0.6062 -0.0740  0.0385
  202MOL0     H26649   1.730   6.904   7.752 -3.2516  0.0569  1.6514
  202MOL0     H26650   1.634   6.197   5.865  2.1268  0.2825  0.7134
  202MOL0     H26651   1.706   6.366   5.704  0.8308  1.8872  0.2925
  202MOL0     H26652   1.602   6.990   5.609  0.7314 -0.9682  0.9468
  202MOL0     H26653   1.714   7.104   5.417 -1.8559  0.7443  1.7941
  202MOL0     H26654   1.884   7.159   5.101 -0.0934  2.1145  0.4056
  202MOL0     H26655   1.771   7.174   5.230  3.0506  1.1911  0.9034
  202MOL0     H26656   1.724   6.952   5.017 -2.1987 -0.2802 -2.4978
  202MOL0     H26657   1.609   7.032   5.126 -0.9742  2.3932 -1.5631
  202MOL0     H26658   1.609   7.114   4.887 -0.5394  0.4772  0.3520
  202MOL0     H26659   1.754   7.207   4.938 -0.9193  0.8763 -0.3648
  202MOL0     H26660   1.625   7.294   5.136 -1.1712 -1.4790  0.4315
  202MOL0     H26661   1.570   7.356   4.981 -3.3234 -0.9892 -2.7094
  202MOL0     H26662   1.222   7.155   5.064  1.6504 -1.1591  0.8591
  202MOL0     H26663   1.820   6.731   5.239  1.2940  0.0706  1.4332
  202MOL0     H26664   1.695   6.614   5.430  0.1040 -0.5069  0.9101
  203MOL0     O26665   8.910   5.648   3.017  0.1894 -0.1580 -0.1931
  203MOL0     C26666   8.872   5.530   3.022  0.8733 -0.1770  0.3846
  203MOL0     O26667   8.948   5.421   3.011  0.1613  0.3409 -0.3008
  203MOL0     C26668   9.071   5.448   2.969  0.5422  0.4205  0.0548
  203MOL0     C26669   9.172   5.389   3.050  0.3502 -0.5658 -0.4990
  203MOL0     C26670   9.310   5.406   3.016  0.0111  1.0554 -0.1291
  203MOL0     C26671   9.346   5.485   2.902  1.1590  0.3414 -0.0193
  203MOL0     O26672   9.481   5.491   2.884  0.3394 -0.1730  0.0886
  203MOL0     C26673   9.525   5.562   2.765 -1.0697 -1.0590 -0.7600
  203MOL0     C26674   9.529   5.468   2.645  0.6549 -0.0161 -0.3544
  203MOL0     C26675   9.605   5.344   2.680  0.9127  1.1979 -0.5998
  203MOL0     C26676   9.600   5.247   2.561  0.5347 -0.0946  0.5584
  203MOL0     C26677   9.691   5.121   2.595  0.2535 -0.1907  0.2954
  203MOL0     C26678   9.848   5.140   2.608  1.4044 -0.3761 -0.0147
  203MOL0     C26679   9.938   5.021   2.639  0.2125  0.8937 -0.3215
  203MOL0     C26680  10.069   5.060   2.687 -1.0402  0.1402 -0.2695
  203MOL0     N26681  10.157   5.084   2.575  0.2251 -0.1737  0.3848
  203MOL0     C26682  10.197   5.205   2.535 -0.8705  0.3493 -0.5841
  203MOL0     C26683  10.292   5.182   2.434 -0.5530 -0.8011 -0.3673
  203MOL0     C26684  10.386   5.275   2.359  0.7824  0.9473  0.3395
  203MOL0     C26685  10.522   5.296   2.424  0.3115 -0.5700 -0.4573
  203MOL0     C26686  10.610   5.401   2.345  0.1507  0.8815  0.1608
  203MOL0     C26687  10.664   5.515   2.426 -0.0455  0.0569  0.1480
  203MOL0     O26688  10.752   5.472   2.526  0.7827 -0.5710  0.3697
  203MOL0     C26689  10.889   5.471   2.504  0.4026 -0.2360  0.6551
  203MOL0     C26690  10.972   5.433   2.613 -0.2327  0.1451 -0.3691
  203MOL0     C26691  11.118   5.437   2.601 -0.3544  0.8255  0.1207
  203MOL0     C26692  11.176   5.498   2.487  0.0276 -0.2499  0.3549
  203MOL0     C26693  11.327   5.520   2.483 -0.4402 -1.3017 -0.1663
  203MOL0     O26694  11.392   5.502   2.602 -0.9292 -0.0170 -0.2166
  203MOL0     C26695  11.527   5.545   2.600  0.0988 -0.9586 -0.1906
  203MOL0     C26696  11.556   5.664   2.668  0.2125 -0.2943  0.3643
  203MOL0     C26697  11.687   5.714   2.681 -0.3889 -0.2943 -0.8097
  203MOL0     C26698  11.792   5.641   2.623 -0.5362  0.5506  0.4088
  203MOL0     O26699  11.927   5.681   2.626  0.5912 -0.3800 -0.4175
  203MOL0     C26700  11.977   5.720   2.750 -0.9756 -0.7680 -0.3157
  203MOL0     C26701  12.125   5.687   2.761  0.7617  0.0935 -0.3341
  203MOL0     C26702  12.189   5.724   2.897  0.9198  0.0904  0.0466
  203MOL0     C26703  12.190   5.883   2.931 -0.4357 -0.5380 -0.1710
  203MOL0     C26704  12.288   5.912   3.052 -0.0028  0.4549 -0.4792
  203MOL0     C26705  12.238   5.859   3.188  0.4972 -0.2215  0.1945
  203MOL0     C26706  12.354   5.874   3.284 -0.1978 -0.2899 -0.0376
  203MOL0     C26707  12.315   5.800   3.410 -0.0038  0.9685 -1.3064
  203MOL0    Cl26708  12.200   5.905   3.507  0.3820 -0.1999 -0.0926
  203MOL0     C26709  11.758   5.534   2.545  0.6565  0.5766 -0.6062
  203MOL0     C26710  11.624   5.480   2.533 -0.3018 -0.4157 -0.3038
  203MOL0     O26711  11.374   5.572   2.381  0.8401 -0.2989 -0.3036
  203MOL0     C26712  11.089   5.537   2.388 -0.2913  0.5515  0.0948
  203MOL0     C26713  10.955   5.527   2.395  0.8119 -0.3921  0.8431
  203MOL0     N26714  10.322   5.048   2.451  0.2304  0.1207  0.1361
  203MOL0     N26715  10.253   4.988   2.537  0.5323 -0.5909 -0.1418
  203MOL0     C26716   9.244   5.530   2.813 -0.8930  0.3719 -0.4266
  203MOL0     C26717   9.110   5.519   2.852 -0.2331  1.0389 -1.1522
  203MOL0     C26718   8.739   5.509   3.075  0.2437 -0.0143 -0.0994
  203MOL0     C26719   8.666   5.624   3.120  0.6550 -0.2620 -0.1013
  203MOL0     C26720   8.533   5.608   3.156 -0.1741  0.1775 -0.4215
  203MOL0     C26721   8.473   5.484   3.164 -0.7629  0.1978  0.5104
  203MOL0     O26722   8.348   5.475   3.230  0.1456 -0.5892 -0.3834
  203MOL0     C26723   8.357   5.404   3.355 -0.4617 -0.0032  0.0921
  203MOL0     C26724   8.222   5.410   3.425  0.3478  0.2360 -0.7453
  203MOL0     C26725   8.106   5.341   3.343  0.7781  0.3290  0.6783
  203MOL0     C26726   7.967   5.394   3.390  0.4562 -0.0209  0.0275
  203MOL0     C26727   7.934   5.497   3.298  1.0320  0.7080 -0.2403
  203MOL0     C26728   7.910   5.586   3.224  0.0008 -0.2722  0.2169
  203MOL0     C26729   8.544   5.371   3.126  1.0842  0.6267  0.0807
  203MOL0     C26730   8.670   5.382   3.067 -0.4758 -0.2635  0.4005
  203MOL0     H26731   9.140   5.340   3.141  1.0622  0.2223  0.1898
  203MOL0     H26732   9.397   5.372   3.072 -0.8962  0.4893  0.9769
  203MOL0     H26733   9.629   5.592   2.779 -1.1117 -0.3568 -1.7770
  203MOL0     H26734   9.467   5.655   2.762  0.2496  0.2175  4.3545
  203MOL0     H26735   9.565   5.514   2.553 -0.7318  0.1009 -0.8662
  203MOL0     H26736   9.424   5.440   2.629 -0.1512  2.8290 -0.5611
  203MOL0     H26737   9.560   5.288   2.762  1.2916 -1.4016 -2.0529
  203MOL0     H26738   9.706   5.376   2.707 -0.2853  4.2509  0.7794
  203MOL0     H26739   9.496   5.220   2.538  1.1630 -0.2402 -2.5385
  203MOL0     H26740   9.631   5.279   2.461 -1.4373 -1.8377 -0.7145
  203MOL0     H26741   9.671   5.036   2.529  2.7076 -1.1578  0.6698
  203MOL0     H26742   9.648   5.092   2.692 -0.1320 -2.9694 -0.6223
  203MOL0     H26743   9.859   5.211   2.692  1.6739  0.0755 -0.4251
  203MOL0     H26744   9.884   5.189   2.517 -1.7072  2.1783 -0.0505
  203MOL0     H26745   9.889   4.960   2.716  1.2253  0.0768 -0.3004
  203MOL0     H26746   9.946   4.961   2.547 -2.6868  1.5555 -1.1032
  203MOL0     H26747  10.122   4.983   2.744 -1.0428  0.2284 -0.1468
  203MOL0     H26748  10.061   5.145   2.755  1.8116 -0.4269  0.9144
  203MOL0     H26749  10.177   5.300   2.584  1.1475  0.6306 -0.1957
  203MOL0     H26750  10.329   5.368   2.352 -0.0629  0.7994  3.4856
  203MOL0     H26751  10.384   5.252   2.252 -0.5096  1.5012  0.2175
  203MOL0     H26752  10.567   5.196   2.426 -0.5625 -0.9769 -0.8401
  203MOL0     H26753  10.516   5.338   2.524  3.3165  4.0883 -1.8720
  203MOL0     H26754  10.689   5.345   2.294  0.0362  1.2033 -0.3767
  203MOL0     H26755  10.545   5.433   2.263 -0.5257  1.9967  1.1064
  203MOL0     H26756  10.577   5.550   2.481  0.4594  0.7165  0.5432
  203MOL0     H26757  10.707   5.593   2.363 -0.5971 -1.2502 -1.9604
  203MOL0     H26758  10.936   5.396   2.708  0.8860 -2.0600 -0.7524
  203MOL0     H26759  11.165   5.406   2.694 -2.6956 -0.6038  0.9158
  203MOL0     H26760  11.470   5.712   2.714  1.2722  3.0230 -0.8519
  203MOL0     H26761  11.704   5.802   2.742 -2.2239 -1.0086  0.8307
  203MOL0     H26762  11.925   5.669   2.831 -0.2933  0.0032  0.6307
  203MOL0     H26763  11.943   5.824   2.756  0.6142 -0.2099  5.7891
  203MOL0     H26764  12.165   5.752   2.682  0.9193  1.9555  1.2060
  203MOL0     H26765  12.144   5.581   2.745  0.6099  0.1049 -0.6136
  203MOL0     H26766  12.288   5.676   2.894  1.0531  0.3890 -1.8536
  203MOL0     H26767  12.128   5.679   2.976  1.6875 -1.7872 -0.3773
  203MOL0     H26768  12.221   5.943   2.845 -2.7635  1.6624  0.4028
  203MOL0     H26769  12.086   5.910   2.955 -0.4171 -0.1451 -0.5206
  203MOL0     H26770  12.293   6.022   3.053 -1.0214  0.5483 -1.7672
  203MOL0     H26771  12.383   5.863   3.029  0.2391  0.9974 -0.6576
  203MOL0     H26772  12.210   5.755   3.169 -1.7112  0.6239 -1.6417
  203MOL0     H26773  12.144   5.908   3.219 -0.0836 -0.8908 -0.4861
  203MOL0     H26774  12.448   5.831   3.247  1.0216  1.5744  0.7645
  203MOL0     H26775  12.366   5.976   3.322  0.6615 -1.1767  2.2787
  203MOL0     H26776  12.397   5.791   3.482  0.7680  1.6741 -2.0705
  203MOL0     H26777  12.265   5.704   3.393 -0.0717  0.3562  1.8157
  203MOL0     H26778  11.828   5.471   2.490  3.1328  2.7309 -0.1056
  203MOL0     H26779  11.594   5.393   2.475 -0.2759 -0.0966 -0.7974
  203MOL0     H26780  11.124   5.578   2.294 -3.0535  0.4955 -1.0383
  203MOL0     H26781  10.900   5.567   2.310 -1.6221  1.0967  2.9675
  203MOL0     H26782   9.273   5.591   2.728  0.8418  0.0519 -0.0865
  203MOL0     H26783   9.035   5.564   2.787 -1.3864  0.6932 -0.0897
  203MOL0     H26784   8.706   5.725   3.110 -2.1825  1.2914  2.3513
  203MOL0     H26785   8.490   5.705   3.178 -1.6334 -0.2913 -1.1204
  203MOL0     H26786   8.434   5.451   3.417  0.0486 -1.0284  0.2579
  203MOL0     H26787   8.380   5.297   3.348 -1.3927 -0.2869  1.0406
  203MOL0     H26788   8.230   5.360   3.522 -1.4457  0.8275 -0.2562
  203MOL0     H26789   8.197   5.513   3.454 -4.1036 -0.4170 -1.5217
  203MOL0     H26790   8.114   5.239   3.382 -3.9227 -0.5537 -0.0788
  203MOL0     H26791   8.125   5.341   3.236 -0.5220 -0.9130  0.4239
  203MOL0     H26792   7.890   5.317   3.384  3.0587 -2.9619  1.5536
  203MOL0     H26793   7.967   5.447   3.486 -1.9091 -0.9881  0.6210
  203MOL0     H26794   7.894   5.667   3.156  2.2466  3.6693  3.8531
  203MOL0     H26795   8.484   5.281   3.125  2.5028 -0.3475 -0.7497
  203MOL0     H26796   8.714   5.298   3.014 -1.4708 -0.1698 -0.6071
  204MOL0     O26797   0.219   3.309   8.945  0.3581 -0.2462 -0.2631
  204MOL0     C26798   0.191   3.426   8.967 -0.2874  0.6874 -0.8208
  204MOL0     O26799   0.111   3.506   8.888 -0.6240 -0.0421  0.0746
  204MOL0     C26800   0.089   3.465   8.760 -0.3712 -1.4729  0.7166
  204MOL0     C26801   0.159   3.370   8.682 -0.5559 -0.9268 -0.0465
  204MOL0     C26802   0.114   3.322   8.558  0.4776 -0.3318  0.7049
  204MOL0     C26803  -0.010   3.377   8.515  0.7674  0.8962  0.7965
  204MOL0     O26804  -0.067   3.331   8.396  0.1826  1.2750  0.1630
  204MOL0     C26805  -0.137   3.411   8.304  0.4758 -0.7893  0.4387
  204MOL0     C26806  -0.117   3.352   8.159  0.1848  0.8324  0.0051
  204MOL0     C26807  -0.266   3.353   8.085  0.8769  0.5178  0.3213
  204MOL0     C26808  -0.365   3.227   8.124 -0.7195 -0.1839 -0.1103
  204MOL0     C26809  -0.307   3.095   8.076 -0.2724  1.4313 -0.8834
  204MOL0     C26810  -0.399   3.027   7.982  0.4977  1.2816  0.1243
  204MOL0     C26811  -0.345   2.901   7.909 -0.0828  0.1564  0.0355
  204MOL0     C26812  -0.285   2.934   7.763  0.6350  0.1719  0.5615
  204MOL0     N26813  -0.206   3.060   7.773 -0.0462 -0.3457  0.0311
  204MOL0     C26814  -0.071   3.072   7.817 -1.0186  0.0244  0.1117
  204MOL0     C26815  -0.037   3.199   7.779 -0.2403 -0.4872  0.6473
  204MOL0     C26816   0.106   3.250   7.785 -0.1802 -0.6409  0.0588
  204MOL0     C26817   0.178   3.194   7.663 -0.2985  0.5886 -0.3531
  204MOL0     C26818   0.147   3.231   7.513  0.7789 -1.0944  0.0522
  204MOL0     C26819   0.237   3.153   7.406  0.2053 -0.6280 -0.2614
  204MOL0     O26820   0.227   3.222   7.275 -1.1055  0.1351 -0.1404
  204MOL0     C26821   0.166   3.144   7.177 -0.3833 -0.3374 -0.3057
  204MOL0     C26822   0.232   3.063   7.080 -0.1196  0.0085 -0.5129
  204MOL0     C26823   0.166   2.972   7.011  0.1746  0.2672  0.6588
  204MOL0     C26824   0.027   2.966   7.016  0.2412  0.3465 -0.4121
  204MOL0     C26825  -0.048   2.870   6.936 -0.4340 -0.0896 -0.2288
  204MOL0     O26826   0.023   2.785   6.859  0.0765  0.7340 -0.2062
  204MOL0     C26827  -0.045   2.687   6.792  1.2608  0.4454  0.1410
  204MOL0     C26828  -0.050   2.698   6.656 -0.4166 -0.3986  0.6772
  204MOL0     C26829  -0.120   2.606   6.576 -0.0261  1.0716 -0.5567
  204MOL0     C26830  -0.187   2.492   6.638 -1.7047  0.2067 -0.2140
  204MOL0     O26831  -0.249   2.411   6.552 -0.0145  0.4547 -0.1552
  204MOL0     C26832  -0.169   2.297   6.504 -0.6757  0.0664 -0.5968
  204MOL0     C26833  -0.243   2.159   6.519 -0.1281  0.1956 -0.2895
  204MOL0     C26834  -0.180   2.048   6.431  0.6897 -0.0357  0.2515
  204MOL0     C26835  -0.060   1.986   6.496  0.2163  0.1009 -0.5565
  204MOL0     C26836  -0.018   1.855   6.434  0.2652  0.3711  0.5035
  204MOL0     C26837   0.095   1.798   6.525 -0.1048 -0.1982 -0.1022
  204MOL0     C26838   0.158   1.665   6.468  0.3948 -0.8640 -0.4822
  204MOL0     C26839   0.299   1.642   6.502  0.0797 -0.5555  0.5202
  204MOL0    Cl26840   0.378   1.792   6.436  0.2061  0.8089 -0.0810
  204MOL0     C26841  -0.171   2.476   6.779  0.5988 -0.0084  0.4817
  204MOL0     C26842  -0.102   2.573   6.863  0.8314  0.1088  0.6173
  204MOL0     O26843  -0.171   2.871   6.945  0.9921 -0.1417  0.7003
  204MOL0     C26844  -0.048   3.052   7.095 -0.1251 -0.4176  0.2368
  204MOL0     C26845   0.022   3.132   7.188 -0.0652 -0.3348  0.4799
  204MOL0     N26846  -0.146   3.260   7.714 -0.7446  0.7612 -0.8405
  204MOL0     N26847  -0.244   3.177   7.709  0.1339  0.2878  0.5710
  204MOL0     C26848  -0.070   3.483   8.588  0.6998  0.1569 -1.1780
  204MOL0     C26849  -0.020   3.539   8.708  0.8754  0.4316 -0.4433
  204MOL0     C26850   0.240   3.461   9.105  0.9193 -0.1562 -0.9250
  204MOL0     C26851   0.260   3.359   9.206 -0.1524 -1.2962  0.1749
  204MOL0     C26852   0.291   3.404   9.333 -0.5074  0.1907  0.3795
  204MOL0     C26853   0.315   3.536   9.366 -0.1182 -0.2924  0.8594
  204MOL0     O26854   0.340   3.574   9.496  0.1014  0.2041  0.3348
  204MOL0     C26855   0.330   3.707   9.545  0.3922 -0.3312 -0.4420
  204MOL0     C26856   0.403   3.734   9.673 -0.7471  0.1168  0.4489
  204MOL0     C26857   0.561   3.714   9.667  1.0347 -0.8176 -0.0141
  204MOL0     C26858   0.630   3.763   9.797  0.7364 -0.9307 -0.8949
  204MOL0     C26859   0.630   3.913   9.804  0.5574 -1.0411 -1.1896
  204MOL0     C26860   0.645   4.034   9.798 -0.4391  0.0311  0.0059
  204MOL0     C26861   0.308   3.629   9.260 -0.6865 -0.5885  0.1213
  204MOL0     C26862   0.278   3.594   9.129 -0.3357  0.1549 -0.0710
  204MOL0     H26863   0.248   3.322   8.721 -1.1950 -0.6690  1.8838
  204MOL0     H26864   0.166   3.250   8.497  0.7842  1.7981 -1.7091
  204MOL0     H26865  -0.111   3.517   8.319 -1.6464 -0.3894  1.6608
  204MOL0     H26866  -0.242   3.399   8.332  0.6634 -3.6806  0.1487
  204MOL0     H26867  -0.095   3.246   8.176 -5.4393 -0.8990 -1.4145
  204MOL0     H26868  -0.047   3.404   8.093  0.7027 -1.9495 -1.7658
  204MOL0     H26869  -0.247   3.342   7.978  1.8434 -0.6772  0.5935
  204MOL0     H26870  -0.328   3.443   8.090 -0.6220 -0.3947 -0.8897
  204MOL0     H26871  -0.372   3.230   8.233  0.2019 -1.9050  0.0391
  204MOL0     H26872  -0.468   3.234   8.089 -0.7240 -1.8852 -0.5082
  204MOL0     H26873  -0.286   3.034   8.164 -1.7333 -0.5493 -1.8461
  204MOL0     H26874  -0.213   3.108   8.020  0.9735 -1.0051  0.4554
  204MOL0     H26875  -0.431   3.089   7.898 -2.1242 -0.8841 -0.6256
  204MOL0     H26876  -0.494   2.999   8.029 -0.1555  0.4211 -1.6350
  204MOL0     H26877  -0.267   2.868   7.978 -1.9912 -2.0785  1.3025
  204MOL0     H26878  -0.411   2.813   7.904 -0.9700  0.8218 -0.1147
  204MOL0     H26879  -0.369   2.940   7.694 -1.5398 -1.1595  2.8950
  204MOL0     H26880  -0.216   2.854   7.734  0.7583 -0.5690  2.6759
  204MOL0     H26881  -0.003   3.001   7.862 -2.2075 -0.3445  1.3848
  204MOL0     H26882   0.157   3.219   7.876  2.8024 -1.5103 -1.7701
  204MOL0     H26883   0.097   3.359   7.775 -0.3291 -0.3637  2.6347
  204MOL0     H26884   0.184   3.085   7.666  0.7690  0.6495  1.6182
  204MOL0     H26885   0.278   3.235   7.678 -0.9636  2.3785 -0.4729
  204MOL0     H26886   0.042   3.215   7.483 -1.0400  1.1472  4.3868
  204MOL0     H26887   0.167   3.339   7.514 -2.5026 -0.3451 -1.1464
  204MOL0     H26888   0.211   3.048   7.390  0.7129 -0.4913 -2.1862
  204MOL0     H26889   0.342   3.159   7.435  0.2544 -0.3027 -0.4951
  204MOL0     H26890   0.339   3.058   7.063  0.1627 -4.6838  1.2814
  204MOL0     H26891   0.210   2.912   6.932 -1.0853  1.1706 -0.8046
  204MOL0     H26892  -0.009   2.772   6.587  2.6722 -1.4959  1.2051
  204MOL0     H26893  -0.126   2.607   6.468 -0.1622  0.6562 -0.5536
  204MOL0     H26894  -0.072   2.292   6.554 -0.3014  1.1469 -1.1922
  204MOL0     H26895  -0.161   2.310   6.396  1.4704  3.7020 -0.1695
  204MOL0     H26896  -0.346   2.157   6.482  0.3607 -3.0313 -1.9097
  204MOL0     H26897  -0.246   2.139   6.626  1.6593 -1.0319 -0.4055
  204MOL0     H26898  -0.153   2.085   6.331  2.6047  1.5682  1.3027
  204MOL0     H26899  -0.246   1.962   6.412  1.4437 -0.3307 -1.2082
  204MOL0     H26900   0.025   2.055   6.494  1.4267 -1.3556 -1.4528
  204MOL0     H26901  -0.092   1.977   6.600 -1.7429 -0.9730 -1.2008
  204MOL0     H26902   0.018   1.866   6.332 -0.2858 -0.3903  0.2155
  204MOL0     H26903  -0.103   1.786   6.427  1.5088 -1.1749 -0.0541
  204MOL0     H26904   0.068   1.783   6.630 -1.2494 -3.4413 -0.7581
  204MOL0     H26905   0.179   1.868   6.528 -0.0913 -0.2157 -0.0646
  204MOL0     H26906   0.096   1.585   6.508  1.1540 -0.5613  1.4019
  204MOL0     H26907   0.149   1.669   6.359  1.7454  2.7230 -0.6127
  204MOL0     H26908   0.346   1.553   6.460 -1.7207 -1.7431  0.9125
  204MOL0     H26909   0.312   1.641   6.611 -1.3389 -4.0036  0.7655
  204MOL0     H26910  -0.226   2.389   6.814  0.8709 -1.3720 -2.2234
  204MOL0     H26911  -0.091   2.558   6.970  2.6882 -1.1133  0.3007
  204MOL0     H26912  -0.155   3.038   7.105  0.1142 -1.8468  1.0846
  204MOL0     H26913  -0.028   3.194   7.261  0.9200 -0.6972  1.4934
  204MOL0     H26914  -0.170   3.513   8.559 -2.4191 -3.9994  3.4568
  204MOL0     H26915  -0.076   3.606   8.772  2.1315  0.7765  0.3127
  204MOL0     H26916   0.232   3.255   9.198  1.6915 -2.1537  3.2564
  204MOL0     H26917   0.298   3.324   9.406  0.6346 -1.3505 -1.3518
  204MOL0     H26918   0.223   3.720   9.565  0.7284 -0.9048  2.0519
  204MOL0     H26919   0.366   3.776   9.469  0.3236 -3.0854 -3.1894
  204MOL0     H26920   0.384   3.841   9.686 -0.4343  0.1516  0.6414
  204MOL0     H26921   0.358   3.681   9.758 -1.0584 -3.0945 -1.5367
  204MOL0     H26922   0.612   3.750   9.578  0.0791  1.2819  0.2246
  204MOL0     H26923   0.576   3.606   9.662 -0.9591 -1.1027 -0.9912
  204MOL0     H26924   0.595   3.708   9.885 -0.5815 -1.6316 -1.8300
  204MOL0     H26925   0.732   3.724   9.786  1.7139  1.4682 -0.9741
  204MOL0     H26926   0.634   4.139   9.781  1.0885  0.4774  1.4465
  204MOL0     H26927   0.316   3.736   9.272 -1.0022 -0.6431  0.8842
  204MOL0     H26928   0.288   3.674   9.056  1.1678  0.7143  0.7114
  205MOL0     O26929   6.365  10.783  10.478  0.6491 -0.6153 -0.4711
  205MOL0     C26930   6.281  10.776  10.565  0.2586  0.2008  0.5776
  205MOL0     O26931   6.148  10.801  10.547  0.1157 -0.0034 -0.1058
  205MOL0     C26932   6.117  10.846  10.423  1.1304  0.9214  0.5760
  205MOL0     C26933   6.071  10.984  10.410 -0.0578 -0.3058 -0.0824
  205MOL0     C26934   6.051  11.039  10.287  0.9031 -0.3872  0.6077
  205MOL0     C26935   6.050  10.948  10.179 -0.0576  0.0761 -0.6892
  205MOL0     O26936   6.018  10.996  10.061 -0.7836 -0.8238  0.7156
  205MOL0     C26937   5.916  10.927   9.979 -0.0011  0.5903 -0.3756
  205MOL0     C26938   5.940  10.946   9.827 -0.5508 -0.0237 -0.2939
  205MOL0     C26939   5.905  11.086   9.789 -0.9583  1.0835 -1.1709
  205MOL0     C26940   5.878  11.117   9.646 -1.0643 -1.1526 -0.3976
  205MOL0     C26941   5.850  11.267   9.627  0.3525  0.5165  0.1945
  205MOL0     C26942   5.816  11.287   9.475 -0.2472 -0.8922  0.4050
  205MOL0     C26943   5.766  11.433   9.454 -0.2615  0.0874 -0.4652
  205MOL0     C26944   5.614  11.452   9.507  0.2553 -0.7364 -0.5453
  205MOL0     N26945   5.589  11.597   9.503 -0.1108  0.5016 -0.2938
  205MOL0     C26946   5.570  11.665   9.380 -0.4255 -0.1956  0.1128
  205MOL0     C26947   5.608  11.793   9.422 -0.4743 -0.2623 -0.3877
  205MOL0     C26948   5.620  11.903   9.341 -0.3077  0.5131  0.1527
  205MOL0     C26949   5.775  11.930   9.310 -0.0312 -0.0867 -1.1629
  205MOL0     C26950   5.848  11.816   9.241  0.5724  0.0037  0.3391
  205MOL0     C26951   5.996  11.814   9.220 -1.0136  0.7169  0.7571
  205MOL0     O26952   6.042  11.685   9.166 -0.1475  0.2807  0.2207
  205MOL0     C26953   6.097  11.595   9.255 -0.1171 -0.7809  0.3712
  205MOL0     C26954   6.195  11.509   9.199  0.1696  0.3771 -0.0953
  205MOL0     C26955   6.272  11.427   9.288  0.7354 -1.0756 -0.4319
  205MOL0     C26956   6.249  11.422   9.431 -0.6062 -0.0881 -0.4593
  205MOL0     C26957   6.311  11.323   9.519  0.0053  0.0059  0.8382
  205MOL0     O26958   6.365  11.357   9.641  0.4796  0.6101  0.2719
  205MOL0     C26959   6.386  11.258   9.728 -0.6981 -0.0450  0.2823
  205MOL0     C26960   6.297  11.163   9.777  0.2220  0.0740  0.4128
  205MOL0     C26961   6.336  11.063   9.861  0.4117  0.9619 -0.6366
  205MOL0     C26962   6.466  11.054   9.911  0.2188  0.1031  0.1999
  205MOL0     O26963   6.524  10.956   9.988  0.6308  0.0486 -0.9313
  205MOL0     C26964   6.437  10.845  10.015 -0.9072 -0.1731 -0.4043
  205MOL0     C26965   6.503  10.746  10.108 -0.8335 -0.1690 -0.9231
  205MOL0     C26966   6.442  10.614  10.101 -0.3144 -0.2012  0.0796
  205MOL0     C26967   6.490  10.538  10.231  0.4303 -0.3663 -0.4713
  205MOL0     C26968   6.436  10.396  10.240 -0.5253  0.0052 -0.9151
  205MOL0     C26969   6.511  10.307  10.337  0.0687 -0.0862  0.5837
  205MOL0     C26970   6.506  10.348  10.485  0.1495  0.1899  0.8059
  205MOL0     C26971   6.362  10.356  10.540 -0.1016 -0.6869  0.0316
  205MOL0    Cl26972   6.363  10.322  10.708  0.3844 -0.0664  0.1639
  205MOL0     C26973   6.554  11.147   9.867  0.4810  0.7410  1.1211
  205MOL0     C26974   6.512  11.246   9.778 -0.1600 -0.1245  0.1160
  205MOL0     O26975   6.308  11.208   9.469  1.0051 -0.1118 -0.2098
  205MOL0     C26976   6.154  11.510   9.480 -0.2059  0.1027 -0.1104
  205MOL0     C26977   6.078  11.592   9.396  1.0608 -0.0546 -0.1757
  205MOL0     N26978   5.650  11.791   9.548  0.8054  0.9527  0.3505
  205MOL0     N26979   5.626  11.676   9.604  0.8632 -0.5921 -0.2486
  205MOL0     C26980   6.084  10.814  10.196 -0.2909 -0.2161  0.0515
  205MOL0     C26981   6.121  10.762  10.312 -0.6406 -0.7622  0.8619
  205MOL0     C26982   6.329  10.732  10.695  0.7875 -0.1152  0.5653
  205MOL0     C26983   6.461  10.697  10.726  0.3822  0.0892 -0.2521
  205MOL0     C26984   6.497  10.644  10.847  0.5528  0.2419  0.4019
  205MOL0     C26985   6.403  10.629  10.951  0.7038  0.2796 -0.5055
  205MOL0     O26986   6.443  10.583  11.078  0.4565  0.9415 -0.1502
  205MOL0     C26987   6.414  10.663  11.190 -0.1058  0.0110  0.1206
  205MOL0     C26988   6.391  10.589  11.322  0.0714  0.1514 -0.0471
  205MOL0     C26989   6.467  10.458  11.340  0.9324  0.2835 -0.0604
  205MOL0     C26990   6.395  10.376  11.449  0.0865  1.6702 -0.6453
  205MOL0     C26991   6.419  10.448  11.577 -0.1568  0.0424 -0.4198
  205MOL0     C26992   6.464  10.507  11.679 -0.5498  0.1873 -0.6843
  205MOL0     C26993   6.270  10.661  10.929  0.9174 -0.2394 -1.0909
  205MOL0     C26994   6.232  10.716  10.801 -0.6902  0.0390 -0.2573
  205MOL0     H26995   6.057  11.047  10.497  1.1608 -2.2464  1.6351
  205MOL0     H26996   6.024  11.144  10.281  1.1880 -0.3552 -0.2455
  205MOL0     H26997   5.813  10.941  10.012 -0.2593  0.5767 -1.1620
  205MOL0     H26998   5.933  10.820   9.991  2.6980  0.8564 -1.1022
  205MOL0     H26999   5.877  10.872   9.778 -0.0895  0.2203 -1.2702
  205MOL0     H27000   6.047  10.937   9.808 -0.1973  1.8708  0.5614
  205MOL0     H27001   5.996  11.137   9.820 -0.7061 -1.1652  2.4675
  205MOL0     H27002   5.819  11.113   9.852  0.2782  1.5176  0.3826
  205MOL0     H27003   5.968  11.093   9.589  0.4207  2.3335  0.2205
  205MOL0     H27004   5.791  11.055   9.620 -1.6050 -0.0385 -1.3553
  205MOL0     H27005   5.944  11.319   9.646  0.4666 -0.4151  2.5091
  205MOL0     H27006   5.765  11.293   9.691 -4.0271 -1.5679 -4.0124
  205MOL0     H27007   5.746  11.208   9.446 -1.0447 -0.7857  1.9282
  205MOL0     H27008   5.901  11.272   9.408 -1.1142 -1.8228 -0.5081
  205MOL0     H27009   5.835  11.494   9.512  0.7658 -1.1826 -0.3126
  205MOL0     H27010   5.780  11.463   9.350  1.5462  0.3672 -0.1709
  205MOL0     H27011   5.615  11.419   9.612 -0.3284 -2.2519 -0.9973
  205MOL0     H27012   5.539  11.407   9.443 -1.7726 -0.0817  1.2576
  205MOL0     H27013   5.524  11.634   9.288 -2.3629  0.9221  0.6455
  205MOL0     H27014   5.564  11.992   9.373  0.0301  1.3356 -1.4245
  205MOL0     H27015   5.569  11.873   9.248 -3.5668 -2.7552  2.6949
  205MOL0     H27016   5.822  11.943   9.408 -1.2369  1.1695 -0.7187
  205MOL0     H27017   5.771  12.023   9.254  0.9397 -0.1913 -1.4261
  205MOL0     H27018   5.817  11.725   9.294 -3.4514  1.0397  0.1024
  205MOL0     H27019   5.803  11.827   9.141 -1.5153 -0.2039  1.2001
  205MOL0     H27020   6.045  11.829   9.317 -1.5822  0.1323  1.1467
  205MOL0     H27021   6.025  11.904   9.165 -2.3954  1.6212  1.4432
  205MOL0     H27022   6.205  11.513   9.091 -2.1615  1.9985 -0.3124
  205MOL0     H27023   6.343  11.362   9.239  1.7175 -0.4201  0.0923
  205MOL0     H27024   6.194  11.172   9.744  0.6300  1.1892 -0.6311
  205MOL0     H27025   6.259  10.992   9.890  1.2060  0.4718  0.3542
  205MOL0     H27026   6.418  10.796   9.919  1.0394  0.1202 -0.9690
  205MOL0     H27027   6.347  10.873  10.070 -0.0404  0.0452  0.9316
  205MOL0     H27028   6.483  10.774  10.211  1.9928 -2.7318  0.4830
  205MOL0     H27029   6.608  10.732  10.080 -0.7230  1.8509 -1.6558
  205MOL0     H27030   6.473  10.557  10.012  0.7708 -3.2697  2.2539
  205MOL0     H27031   6.333  10.616  10.106 -0.2641 -0.1494  1.3347
  205MOL0     H27032   6.598  10.553  10.240  0.2371  1.8298 -1.1911
  205MOL0     H27033   6.460  10.589  10.323  0.4234  1.3097 -1.3592
  205MOL0     H27034   6.440  10.367  10.134 -2.2098 -0.2648 -0.9414
  205MOL0     H27035   6.332  10.398  10.274 -0.6699  0.7105 -1.3734
  205MOL0     H27036   6.616  10.313  10.306 -0.9844 -0.3877 -3.8248
  205MOL0     H27037   6.485  10.201  10.327 -0.3743  0.1183 -0.6402
  205MOL0     H27038   6.554  10.261  10.531  1.4614  1.0179  1.0597
  205MOL0     H27039   6.578  10.427  10.511 -1.3211  1.5257  0.9893
  205MOL0     H27040   6.293  10.284  10.495 -1.7088  0.7937  0.0119
  205MOL0     H27041   6.324  10.456  10.519  1.8480  0.4468  1.5175
  205MOL0     H27042   6.657  11.133   9.900  1.2449 -1.1587 -1.6899
  205MOL0     H27043   6.592  11.313   9.748 -1.2301  0.9222 -0.5242
  205MOL0     H27044   6.134  11.515   9.587 -1.5528  1.9456 -0.3946
  205MOL0     H27045   5.997  11.655   9.433  2.1033  1.6162 -0.6554
  205MOL0     H27046   6.102  10.754  10.107  0.8735  0.1997 -0.0075
  205MOL0     H27047   6.154  10.659  10.317  0.7205 -0.3454  1.0222
  205MOL0     H27048   6.536  10.714  10.650 -1.3059  5.0958 -1.1624
  205MOL0     H27049   6.599  10.624  10.878  2.8239  2.2392 -4.5593
  205MOL0     H27050   6.329  10.731  11.194 -0.4023 -0.2044  5.8522
  205MOL0     H27051   6.503  10.723  11.213  1.2994 -2.6086  1.9968
  205MOL0     H27052   6.434  10.666  11.386  0.2767  0.8924 -1.0537
  205MOL0     H27053   6.284  10.567  11.331  0.5909 -3.9796 -1.7940
  205MOL0     H27054   6.570  10.485  11.364  1.1277  0.2064 -0.7690
  205MOL0     H27055   6.467  10.399  11.247 -1.7363  0.1059 -0.0138
  205MOL0     H27056   6.292  10.356  11.420 -0.1704 -1.9623  2.0768
  205MOL0     H27057   6.438  10.276  11.459 -0.8966  0.8252 -3.8777
  205MOL0     H27058   6.497  10.558  11.767  3.3999  1.3753 -2.6352
  205MOL0     H27059   6.186  10.632  10.991  1.0758  2.1963  0.3836
  205MOL0     H27060   6.128  10.741  10.782 -0.8586  0.5888  1.2137
  206MOL0     O27061   7.116   0.800   0.246 -0.1163 -0.4052 -0.0475
  206MOL0     C27062   7.208   0.724   0.220 -1.1407  0.3598 -0.5336
  206MOL0     O27063   7.220   0.652   0.107 -1.3516  0.1565 -0.4164
  206MOL0     C27064   7.202   0.697  -0.012 -0.4055 -0.1349  0.0104
  206MOL0     C27065   7.155   0.827  -0.054  0.0656  0.3280 -0.5615
  206MOL0     C27066   7.147   0.857  -0.192 -0.1191 -0.0569 -0.2066
  206MOL0     C27067   7.171   0.762  -0.291  0.3199 -0.2320  1.1684
  206MOL0     O27068   7.162   0.795  -0.424 -0.0351 -0.3783  0.1461
  206MOL0     C27069   7.103   0.919  -0.457  0.6262  0.6822  0.3325
  206MOL0     C27070   7.089   0.937  -0.606 -0.1400 -0.2946  0.6295
  206MOL0     C27071   7.232   0.951  -0.671 -0.0989  0.4121 -0.3800
  206MOL0     C27072   7.229   0.966  -0.821 -0.6746  0.3337  0.6998
  206MOL0     C27073   7.359   0.917  -0.877  0.0497 -0.7567  0.4424
  206MOL0     C27074   7.480   1.004  -0.863 -0.5593 -0.3644  0.4085
  206MOL0     C27075   7.460   1.160  -0.859 -0.1735  0.1607 -0.2801
  206MOL0     C27076   7.577   1.228  -0.788  0.1104  0.3382 -0.2373
  206MOL0     N27077   7.681   1.264  -0.894  0.7172 -0.3469  0.0849
  206MOL0     C27078   7.743   1.395  -0.886 -0.0969 -0.0887  0.6434
  206MOL0     C27079   7.810   1.392  -1.002 -0.0554  0.2094 -0.2797
  206MOL0     C27080   7.886   1.506  -1.062 -0.0031  0.3745 -0.1405
  206MOL0     C27081   7.893   1.637  -0.982  0.4321  0.4091  0.3344
  206MOL0     C27082   7.940   1.754  -1.064 -0.5643 -0.1691  0.2720
  206MOL0     C27083   8.093   1.761  -1.093  0.2119  0.2431 -0.7912
  206MOL0     O27084   8.169   1.724  -0.966  0.0362 -0.6624  0.8252
  206MOL0     C27085   8.307   1.747  -0.954 -0.2383  0.9922  0.4857
  206MOL0     C27086   8.360   1.783  -0.828  0.3665  0.1764  0.7532
  206MOL0     C27087   8.500   1.820  -0.810 -0.2745 -0.2128 -0.3020
  206MOL0     C27088   8.591   1.821  -0.913 -0.1981 -0.3398 -0.3203
  206MOL0     C27089   8.738   1.857  -0.909  0.1068 -0.6253 -0.2154
  206MOL0     O27090   8.812   1.827  -1.014  0.2973 -0.6300  0.3905
  206MOL0     C27091   8.945   1.854  -1.000 -0.1378 -1.1159  0.2626
  206MOL0     C27092   9.006   1.963  -1.077 -0.4334 -0.1670 -0.2266
  206MOL0     C27093   9.142   1.992  -1.066  0.1110 -0.0798  0.5029
  206MOL0     C27094   9.220   1.920  -0.980 -0.3931  0.1087  0.3033
  206MOL0     O27095   9.347   1.968  -0.942 -0.1489 -0.7526 -0.2524
  206MOL0     C27096   9.348   2.062  -0.830 -0.0192  0.8970 -0.4258
  206MOL0     C27097   9.456   2.163  -0.881 -0.2014 -1.0122  0.3585
  206MOL0     C27098   9.427   2.269  -0.984  0.6221 -0.2900  1.5999
  206MOL0     C27099   9.297   2.347  -0.941 -0.3301  0.0273  0.1537
  206MOL0     C27100   9.280   2.488  -1.007 -0.5810  0.7598  0.4683
  206MOL0     C27101   9.147   2.534  -0.959  0.1434 -0.5541  0.5366
  206MOL0     C27102   9.099   2.666  -1.003  0.4104 -0.0008  0.4031
  206MOL0     C27103   8.945   2.680  -1.005  0.6937 -0.5771 -0.4507
  206MOL0    Cl27104   8.869   2.653  -0.850  0.3525  0.3647 -0.0678
  206MOL0     C27105   9.171   1.817  -0.908  0.5809  0.5434  0.5621
  206MOL0     C27106   9.034   1.783  -0.918  0.3455 -0.1585  0.1377
  206MOL0     O27107   8.783   1.906  -0.802  0.0973  1.1133  0.4949
  206MOL0     C27108   8.536   1.794  -1.041  0.2101 -1.2689 -0.0250
  206MOL0     C27109   8.400   1.758  -1.066  0.5764  0.9845 -0.1871
  206MOL0     N27110   7.803   1.268  -1.070 -0.7537  0.2777 -0.0172
  206MOL0     N27111   7.722   1.190  -1.003 -0.3052 -0.1495 -0.6037
  206MOL0     C27112   7.226   0.637  -0.251  0.6276  0.1393 -0.5258
  206MOL0     C27113   7.239   0.608  -0.113  0.3720 -1.4533  1.0969
  206MOL0     C27114   7.327   0.704   0.320 -1.2622  0.0797  0.6066
  206MOL0     C27115   7.439   0.626   0.288 -0.9551 -0.1665  0.2775
  206MOL0     C27116   7.552   0.623   0.376 -0.5146  1.0010 -0.2498
  206MOL0     C27117   7.545   0.699   0.495  0.0885 -0.3561  0.8232
  206MOL0     O27118   7.640   0.687   0.591  0.1660 -0.1521  0.3972
  206MOL0     C27119   7.740   0.794   0.575 -0.8062 -0.3558  0.2470
  206MOL0     C27120   7.876   0.730   0.545  0.4289  0.8990  0.0581
  206MOL0     C27121   7.925   0.632   0.661  0.4287  0.0482  0.6935
  206MOL0     C27122   8.066   0.640   0.705 -0.0576 -0.5713  0.4002
  206MOL0     C27123   8.156   0.628   0.594 -0.0974  0.1104  0.2897
  206MOL0     C27124   8.242   0.600   0.514 -0.0215  0.7720 -0.2508
  206MOL0     C27125   7.433   0.764   0.530 -0.3049 -0.8033  0.6584
  206MOL0     C27126   7.325   0.766   0.438  0.1304 -0.6866 -0.6301
  206MOL0     H27127   7.136   0.909   0.015 -0.7245 -1.4073  1.3696
  206MOL0     H27128   7.127   0.963  -0.209  1.5910  0.7588  2.1871
  206MOL0     H27129   7.163   1.007  -0.433 -0.9987  3.1444 -3.6637
  206MOL0     H27130   7.004   0.917  -0.410  1.4610 -3.0080  2.3135
  206MOL0     H27131   7.034   1.030  -0.624 -0.1093 -0.1779  1.1477
  206MOL0     H27132   7.034   0.863  -0.666 -0.4899  0.5187 -0.0880
  206MOL0     H27133   7.304   0.875  -0.637  0.4358  1.6244  1.3754
  206MOL0     H27134   7.274   1.042  -0.627  0.5388  0.3237 -0.7924
  206MOL0     H27135   7.144   0.902  -0.849 -0.8374 -1.2755  4.3206
  206MOL0     H27136   7.209   1.068  -0.856 -0.2306  0.9765  2.2405
  206MOL0     H27137   7.352   0.912  -0.986  0.5623  1.1424  0.2757
  206MOL0     H27138   7.386   0.819  -0.836  2.3106 -1.1597 -1.7404
  206MOL0     H27139   7.555   0.977  -0.937 -0.9229  0.6173 -0.3382
  206MOL0     H27140   7.527   0.963  -0.773 -0.3077 -2.7166 -0.7348
  206MOL0     H27141   7.443   1.196  -0.961 -0.7740  0.2114 -0.1691
  206MOL0     H27142   7.370   1.193  -0.805 -0.4822  0.1950 -0.8033
  206MOL0     H27143   7.622   1.159  -0.717 -1.5746  0.2997  0.8552
  206MOL0     H27144   7.545   1.320  -0.738  0.4474  0.2213  0.2031
  206MOL0     H27145   7.716   1.471  -0.813 -0.6293 -2.9498  3.7267
  206MOL0     H27146   7.850   1.523  -1.164  0.3589  1.0041 -0.1656
  206MOL0     H27147   7.988   1.469  -1.075 -0.3098 -1.2485  1.5925
  206MOL0     H27148   7.958   1.619  -0.896  0.1487  0.2557  0.5172
  206MOL0     H27149   7.800   1.661  -0.931  1.7810  2.1598  2.1089
  206MOL0     H27150   7.894   1.742  -1.163  2.8000 -0.7222 -1.3851
  206MOL0     H27151   7.912   1.849  -1.019  0.4735  1.9579 -3.2140
  206MOL0     H27152   8.118   1.860  -1.133 -3.2660  1.2881 -0.7179
  206MOL0     H27153   8.119   1.694  -1.175 -0.7386  0.1519 -1.0331
  206MOL0     H27154   8.283   1.798  -0.754 -1.8461  3.7753 -1.9536
  206MOL0     H27155   8.550   1.859  -0.721  0.7673  2.4303 -1.9255
  206MOL0     H27156   8.952   2.021  -1.151 -0.9332 -1.3941 -0.8624
  206MOL0     H27157   9.200   2.060  -1.127  1.6774 -1.0989  0.7927
  206MOL0     H27158   9.383   2.011  -0.739 -2.9214 -2.3120 -0.9319
  206MOL0     H27159   9.249   2.103  -0.807 -1.8158 -2.6443 -1.1031
  206MOL0     H27160   9.551   2.113  -0.902  1.2975  1.8544 -0.1841
  206MOL0     H27161   9.480   2.213  -0.787  0.4715  2.6024 -1.5617
  206MOL0     H27162   9.414   2.233  -1.086  0.4834 -0.2993  1.6204
  206MOL0     H27163   9.509   2.342  -0.985  1.1216 -0.6707 -2.8310
  206MOL0     H27164   9.213   2.282  -0.969  0.3921 -0.8675  0.0261
  206MOL0     H27165   9.311   2.360  -0.833  1.5180 -1.6513  0.1777
  206MOL0     H27166   9.284   2.489  -1.116  2.7869 -2.1255  0.3664
  206MOL0     H27167   9.364   2.551  -0.976  1.1849 -1.5932  0.7816
  206MOL0     H27168   9.151   2.534  -0.849 -0.1405  0.3248  0.5561
  206MOL0     H27169   9.069   2.463  -0.990 -1.4556  0.3235  2.2948
  206MOL0     H27170   9.143   2.744  -0.940  1.9165 -0.9904  0.6182
  206MOL0     H27171   9.138   2.683  -1.104  3.1594 -3.2651  0.7578
  206MOL0     H27172   8.902   2.609  -1.077  2.3516 -1.2559 -0.8315
  206MOL0     H27173   8.919   2.783  -1.031  2.8678  0.6288  1.7494
  206MOL0     H27174   9.236   1.758  -0.845  2.2546 -1.4889 -2.7771
  206MOL0     H27175   8.990   1.699  -0.865  0.0304 -1.2036 -1.7044
  206MOL0     H27176   8.599   1.806  -1.128 -1.6876 -0.4053 -1.3615
  206MOL0     H27177   8.370   1.718  -1.163  0.7959 -1.0019  0.5089
  206MOL0     H27178   7.254   0.561  -0.323  1.5715 -2.0274  1.9736
  206MOL0     H27179   7.286   0.512  -0.095  0.7726 -2.0465 -2.3615
  206MOL0     H27180   7.450   0.570   0.196  2.9088 -0.8929  0.9853
  206MOL0     H27181   7.638   0.560   0.356 -0.1772  0.6904  1.9927
  206MOL0     H27182   7.765   0.850   0.665  1.2159  1.7576 -1.4762
  206MOL0     H27183   7.709   0.868   0.501 -4.4334  1.9024  3.6356
  206MOL0     H27184   7.867   0.681   0.448 -2.2092 -0.7773  1.0370
  206MOL0     H27185   7.945   0.815   0.545 -0.1027  1.3363 -0.1177
  206MOL0     H27186   7.915   0.529   0.627 -2.7596  0.3529  0.3439
  206MOL0     H27187   7.856   0.643   0.745  0.1418 -2.9051  0.9578
  206MOL0     H27188   8.090   0.732   0.760 -0.2804  0.1879 -0.7258
  206MOL0     H27189   8.067   0.566   0.785  1.2681  0.4848  1.4006
  206MOL0     H27190   8.320   0.560   0.453  1.4469 -1.2423  2.6909
  206MOL0     H27191   7.429   0.822   0.622  0.8564 -0.8933  0.7788
  206MOL0     H27192   7.238   0.825   0.465  0.8600  0.2890 -0.3194
  207MOL0     O27193   7.009   8.407   4.093 -0.5747  0.1682 -0.8467
  207MOL0     C27194   6.903   8.469   4.081 -0.5096 -0.2224  0.0845
  207MOL0     O27195   6.825   8.529   4.182 -0.7395 -0.0854 -0.0340
  207MOL0     C27196   6.875   8.511   4.315 -0.1865 -0.5867  0.1250
  207MOL0     C27197   6.903   8.382   4.361  0.4295 -0.0602 -0.2049
  207MOL0     C27198   6.944   8.352   4.493  0.3692  0.8441  0.0381
  207MOL0     C27199   6.953   8.460   4.580 -0.0233  0.9550  0.8524
  207MOL0     O27200   7.006   8.432   4.708  0.5587  0.1403 -0.4163
  207MOL0     C27201   7.029   8.545   4.792  0.4352 -0.3161  0.3487
  207MOL0     C27202   7.059   8.488   4.928 -0.2381 -0.2451 -0.3983
  207MOL0     C27203   6.936   8.442   5.008 -0.2539 -0.4479 -0.5214
  207MOL0     C27204   6.976   8.413   5.154  0.8824 -0.9219  0.5180
  207MOL0     C27205   6.861   8.379   5.239  0.7857  0.2732  0.8740
  207MOL0     C27206   6.767   8.268   5.183 -0.1137 -0.2173 -0.0233
  207MOL0     C27207   6.682   8.216   5.307  0.0466 -0.0370  0.1205
  207MOL0     C27208   6.592   8.099   5.253 -0.5244 -0.8547  0.2159
  207MOL0     N27209   6.469   8.118   5.338  0.7764  0.1893  0.0860
  207MOL0     C27210   6.343   8.117   5.299  0.9761 -0.0972 -0.4562
  207MOL0     C27211   6.272   8.048   5.395  0.2841  0.6378 -0.0497
  207MOL0     C27212   6.123   8.023   5.380 -0.4148  0.4984  0.2726
  207MOL0     C27213   6.059   8.122   5.486 -0.2657  0.2125  0.2870
  207MOL0     C27214   5.914   8.108   5.506  0.1168  0.7539 -0.9453
  207MOL0     C27215   5.856   8.212   5.601 -0.3793  0.5884  0.4961
  207MOL0     O27216   5.906   8.174   5.732 -0.8424  0.4331 -0.2418
  207MOL0     C27217   5.958   8.275   5.810 -0.0555 -0.2603  0.3675
  207MOL0     C27218   6.057   8.243   5.897 -0.1459  1.0446 -0.7169
  207MOL0     C27219   6.100   8.339   5.984  0.0616 -0.8230 -0.5821
  207MOL0     C27220   6.047   8.465   5.994  0.1186 -0.9841  0.0726
  207MOL0     C27221   6.083   8.551   6.101 -0.9371 -0.3192 -0.1928
  207MOL0     O27222   6.030   8.676   6.097  0.1484  0.0660  0.1501
  207MOL0     C27223   6.077   8.780   6.180 -0.6294  0.2374 -0.1867
  207MOL0     C27224   5.995   8.896   6.188 -0.3506  0.0243  0.6118
  207MOL0     C27225   6.045   9.012   6.248 -0.7706  0.1877 -1.4405
  207MOL0     C27226   6.171   9.017   6.300 -0.2037 -0.6933  0.1317
  207MOL0     O27227   6.197   9.136   6.370  0.4051  0.2267 -0.0765
  207MOL0     C27228   6.323   9.172   6.422  0.4234 -0.5802  0.0379
  207MOL0     C27229   6.358   9.315   6.405 -0.3121  0.2395  0.4209
  207MOL0     C27230   6.480   9.359   6.309  0.3132  0.0327 -0.3153
  207MOL0     C27231   6.413   9.373   6.170 -0.5925 -0.2044  0.1113
  207MOL0     C27232   6.503   9.392   6.050  0.1532  0.9708  0.0362
  207MOL0     C27233   6.587   9.262   6.008  0.8184  0.1353 -0.3672
  207MOL0     C27234   6.672   9.260   5.875  0.3215 -1.1694  0.3441
  207MOL0     C27235   6.741   9.121   5.864 -0.7021 -0.1122  0.8243
  207MOL0    Cl27236   6.610   8.998   5.832  0.3453 -0.4271  0.3179
  207MOL0     C27237   6.257   8.903   6.300  0.9234 -0.2537 -0.4827
  207MOL0     C27238   6.214   8.789   6.232  0.1008  0.0069 -0.0827
  207MOL0     O27239   6.150   8.497   6.188  0.5437 -0.2570  0.1175
  207MOL0     C27240   5.954   8.505   5.893 -0.1051  0.0401 -1.0590
  207MOL0     C27241   5.909   8.406   5.805 -0.3362 -0.0289  0.3673
  207MOL0     N27242   6.354   8.033   5.505  0.0427 -0.3522  0.2908
  207MOL0     N27243   6.475   8.064   5.465  0.1291  0.6173 -0.4086
  207MOL0     C27244   6.913   8.592   4.532 -0.0341 -0.2121  0.1052
  207MOL0     C27245   6.879   8.614   4.403  0.9510  0.2599  1.9797
  207MOL0     C27246   6.841   8.476   3.946  0.6055  0.6330  0.3215
  207MOL0     C27247   6.891   8.404   3.833  0.1363 -0.0864  0.4617
  207MOL0     C27248   6.817   8.400   3.708 -0.4252 -0.7207 -1.2145
  207MOL0     C27249   6.714   8.492   3.693  0.5754 -0.9467  0.5323
  207MOL0     O27250   6.627   8.499   3.585  0.3515  0.5606 -0.3370
  207MOL0     C27251   6.638   8.423   3.464  0.2143 -0.0407 -0.6646
  207MOL0     C27252   6.501   8.404   3.404  0.3016 -0.2162 -0.1731
  207MOL0     C27253   6.455   8.544   3.352  0.0929  0.7031 -0.0574
  207MOL0     C27254   6.306   8.545   3.320  0.5945 -0.3027  0.9344
  207MOL0     C27255   6.298   8.644   3.222 -1.0854  0.1124  0.7299
  207MOL0     C27256   6.297   8.733   3.139  0.5132 -0.2320  0.3793
  207MOL0     C27257   6.676   8.577   3.796  0.5247 -0.9887  0.8058
  207MOL0     C27258   6.739   8.564   3.925 -0.2076  0.5845 -0.2011
  207MOL0     H27259   6.888   8.307   4.284  0.1152  0.7044 -0.8975
  207MOL0     H27260   6.967   8.250   4.521  2.0233  0.7112 -1.6094
  207MOL0     H27261   6.937   8.601   4.807  1.5113  1.5842  0.1221
  207MOL0     H27262   7.110   8.605   4.748  1.2382 -0.2738  1.8005
  207MOL0     H27263   7.105   8.566   4.991  1.8551 -2.6435  1.2380
  207MOL0     H27264   7.135   8.410   4.925  1.6647  1.2941  2.3466
  207MOL0     H27265   6.904   8.344   4.972 -1.8350 -1.0377  2.2493
  207MOL0     H27266   6.860   8.521   5.001  1.3314  1.3012  0.9223
  207MOL0     H27267   7.050   8.332   5.149  1.4728 -0.5249  2.2362
  207MOL0     H27268   7.034   8.498   5.190 -0.8819  1.3964 -1.6925
  207MOL0     H27269   6.800   8.469   5.251 -2.8710 -1.6844 -1.2298
  207MOL0     H27270   6.889   8.344   5.339 -0.3672 -0.2237  1.0396
  207MOL0     H27271   6.830   8.192   5.137 -0.1756 -0.2358 -0.0770
  207MOL0     H27272   6.707   8.313   5.103  0.5708 -1.0926 -1.0630
  207MOL0     H27273   6.735   8.184   5.397 -3.1531  0.2910  2.2756
  207MOL0     H27274   6.610   8.292   5.339 -0.4865  0.2904 -1.7109
  207MOL0     H27275   6.631   7.997   5.268 -1.8803 -1.4947 -0.4755
  207MOL0     H27276   6.581   8.110   5.145  2.4437 -1.1822 -0.2152
  207MOL0     H27277   6.303   8.120   5.198 -2.5996 -1.7315  0.7397
  207MOL0     H27278   6.110   7.919   5.410  2.3157  0.8143  3.1689
  207MOL0     H27279   6.093   8.058   5.281 -1.9931 -0.5748  0.3431
  207MOL0     H27280   6.082   8.223   5.449 -0.4744 -0.2291 -1.0842
  207MOL0     H27281   6.120   8.111   5.577  1.6916  1.0378 -0.8465
  207MOL0     H27282   5.872   8.112   5.405 -0.4656 -0.6586 -0.7782
  207MOL0     H27283   5.883   8.010   5.543 -1.1535  1.4434 -0.1342
  207MOL0     H27284   5.747   8.201   5.602 -0.4124  0.8854  1.8805
  207MOL0     H27285   5.886   8.311   5.567  3.0954 -0.6169 -0.3879
  207MOL0     H27286   6.087   8.142   5.922 -0.2849  1.5684  1.7871
  207MOL0     H27287   6.164   8.300   6.063 -2.5982  0.6709  2.5711
  207MOL0     H27288   5.905   8.884   6.130  0.9506  0.8510 -1.6972
  207MOL0     H27289   5.971   9.090   6.262  1.4426  2.3537 -1.0771
  207MOL0     H27290   6.406   9.127   6.367  2.0136  0.5970  1.3401
  207MOL0     H27291   6.329   9.142   6.527 -2.6141  2.3640  1.2412
  207MOL0     H27292   6.400   9.335   6.504 -0.2197  0.2816  0.3728
  207MOL0     H27293   6.264   9.369   6.390 -0.3923  0.4096  1.4565
  207MOL0     H27294   6.566   9.292   6.310 -0.7930 -1.4566 -1.6044
  207MOL0     H27295   6.527   9.449   6.349 -0.8895  0.1766  0.8747
  207MOL0     H27296   6.353   9.286   6.143 -3.8541  1.7298  0.5954
  207MOL0     H27297   6.343   9.456   6.179 -1.1984 -0.9059  3.1823
  207MOL0     H27298   6.559   9.484   6.064 -1.1632  1.6807  0.8455
  207MOL0     H27299   6.442   9.407   5.960 -0.5847 -3.8579 -0.5632
  207MOL0     H27300   6.521   9.175   6.018 -0.2824  0.8317 -1.2784
  207MOL0     H27301   6.663   9.258   6.086  3.0155 -4.9552 -2.2939
  207MOL0     H27302   6.611   9.286   5.788 -0.5516  1.1159  1.5694
  207MOL0     H27303   6.749   9.336   5.888 -2.1899  1.4476  0.8772
  207MOL0     H27304   6.806   9.096   5.949  1.9307  1.9167 -0.4350
  207MOL0     H27305   6.814   9.130   5.783  0.4719 -0.1011  1.8633
  207MOL0     H27306   6.356   8.909   6.344  1.9208 -0.8917 -2.5505
  207MOL0     H27307   6.284   8.708   6.214 -0.6136 -0.0608 -3.1413
  207MOL0     H27308   5.897   8.598   5.898 -1.7876 -0.7428 -3.6149
  207MOL0     H27309   5.829   8.428   5.735  0.0997  1.3691  0.2766
  207MOL0     H27310   6.917   8.667   4.610 -0.9841 -1.0715  1.0264
  207MOL0     H27311   6.849   8.716   4.382  1.7983 -0.2905 -3.2414
  207MOL0     H27312   6.976   8.337   3.823 -1.1832 -1.4763 -3.2860
  207MOL0     H27313   6.851   8.353   3.616  0.6495  0.1890 -1.3025
  207MOL0     H27314   6.674   8.322   3.487 -0.4473 -0.1659 -0.1627
  207MOL0     H27315   6.695   8.463   3.379 -3.1587  0.4490 -2.8842
  207MOL0     H27316   6.503   8.335   3.319  2.6715  0.1057 -0.4513
  207MOL0     H27317   6.432   8.360   3.477 -2.1654  0.9785 -1.6543
  207MOL0     H27318   6.512   8.566   3.261  0.3916  1.0059  0.2010
  207MOL0     H27319   6.495   8.614   3.426  2.0617 -2.1121  1.7480
  207MOL0     H27320   6.273   8.452   3.274  3.0097  0.2515 -2.2980
  207MOL0     H27321   6.248   8.573   3.408 -1.6836 -0.5123 -0.4413
  207MOL0     H27322   6.304   8.821   3.079 -2.1122 -0.9168 -1.0835
  207MOL0     H27323   6.607   8.657   3.771  0.3883 -0.2750  3.1533
  207MOL0     H27324   6.706   8.621   4.011 -0.1808 -0.9013  0.8321
  208MOL0     O27325  10.016   6.742   2.847 -0.8640  0.3408  0.4718
  208MOL0     C27326  10.006   6.624   2.826  0.4464  0.4320  0.9889
  208MOL0     O27327  10.114   6.534   2.835  0.6928 -0.4633 -0.1794
  208MOL0     C27328  10.248   6.572   2.858  0.0481  0.3557 -0.4575
  208MOL0     C27329  10.324   6.673   2.797  0.4037  0.0899 -0.0361
  208MOL0     C27330  10.451   6.706   2.847 -0.0265  0.5574 -1.4681
  208MOL0     C27331  10.511   6.633   2.948  0.1186  0.5065 -0.6294
  208MOL0     O27332  10.638   6.665   2.996  0.5146 -0.1762  0.3785
  208MOL0     C27333  10.678   6.802   2.980 -0.5575  0.7153  0.0840
  208MOL0     C27334  10.801   6.808   3.071 -0.4089 -0.4398 -1.0546
  208MOL0     C27335  10.932   6.887   3.022 -0.3364  0.6260 -0.1619
  208MOL0     C27336  10.900   6.991   2.920 -0.3293  0.1707 -0.0215
  208MOL0     C27337  11.009   7.096   2.890 -0.0697 -0.2128  1.4855
  208MOL0     C27338  11.132   7.031   2.832 -1.2583 -0.2846  0.6459
  208MOL0     C27339  11.246   7.132   2.814 -0.5122  0.0407  1.5623
  208MOL0     C27340  11.360   7.058   2.756 -0.7987  0.0508  0.0190
  208MOL0     N27341  11.430   6.980   2.857  0.0462  0.0836 -0.1648
  208MOL0     C27342  11.401   6.839   2.885 -0.1717  0.0406 -0.6690
  208MOL0     C27343  11.485   6.800   2.983 -0.5102 -0.8903 -1.1053
  208MOL0     C27344  11.493   6.662   3.052  0.0100 -0.2591  0.4668
  208MOL0     C27345  11.603   6.573   2.980 -0.7956 -0.6389  0.0734
  208MOL0     C27346  11.637   6.447   3.056 -0.0316 -0.2648  0.2791
  208MOL0     C27347  11.520   6.353   3.076 -0.0851 -1.6382  0.2733
  208MOL0     O27348  11.498   6.287   2.948 -0.6752  0.5542 -0.4361
  208MOL0     C27349  11.393   6.195   2.933  0.8128  1.0949 -0.2419
  208MOL0     C27350  11.297   6.182   3.034  0.4245  0.1474  0.5149
  208MOL0     C27351  11.195   6.082   3.018  0.1645 -0.6453  0.3716
  208MOL0     C27352  11.187   6.001   2.908  0.1265  1.2090  0.5491
  208MOL0     C27353  11.086   5.888   2.907  0.1044  1.7654  0.1575
  208MOL0     O27354  11.001   5.886   3.014  0.4010 -0.2959 -0.3815
  208MOL0     C27355  10.938   5.777   3.065  0.2082  0.7766 -0.0096
  208MOL0     C27356  10.982   5.644   3.059 -0.1985  0.5231 -0.3312
  208MOL0     C27357  10.892   5.545   3.096 -0.6326 -0.3509 -0.4785
  208MOL0     C27358  10.766   5.578   3.172  0.1549 -0.1439 -0.5230
  208MOL0     O27359  10.674   5.490   3.219  0.2960 -0.0147 -0.5779
  208MOL0     C27360  10.721   5.350   3.244 -0.9018 -0.7122 -0.2495
  208MOL0     C27361  10.601   5.266   3.204 -0.1612  0.8296  0.0013
  208MOL0     C27362  10.609   5.113   3.255 -0.2793 -0.1768 -0.1837
  208MOL0     C27363  10.687   5.092   3.383 -0.1838  0.0739 -0.3153
  208MOL0     C27364  10.653   4.952   3.446 -0.2892 -0.4343 -0.3554
  208MOL0     C27365  10.647   4.958   3.596 -0.1363  0.1084 -0.4171
  208MOL0     C27366  10.783   4.992   3.652 -0.1914  0.1201 -1.4010
  208MOL0     C27367  10.770   4.997   3.810 -0.6150  0.4530  1.0623
  208MOL0    Cl27368  10.935   5.068   3.859  0.1722  0.2967 -0.1444
  208MOL0     C27369  10.729   5.707   3.187 -0.9765 -0.1771 -0.9500
  208MOL0     C27370  10.817   5.807   3.129 -0.0426 -0.2615 -0.2996
  208MOL0     O27371  11.105   5.789   2.832 -0.5238 -0.0892  0.4386
  208MOL0     C27372  11.281   6.013   2.813 -0.8350 -0.3703  0.6104
  208MOL0     C27373  11.393   6.102   2.824  0.2432 -0.3256  0.3130
  208MOL0     N27374  11.570   6.911   3.008 -0.4444 -0.9037  0.1341
  208MOL0     N27375  11.523   7.019   2.951 -0.1778  0.5323  1.3798
  208MOL0     C27376  10.448   6.521   2.999  0.5145 -0.3339 -0.1454
  208MOL0     C27377  10.309   6.496   2.961  0.0704 -0.1757  0.0709
  208MOL0     C27378   9.868   6.578   2.790  1.2818 -0.9277  1.0541
  208MOL0     C27379   9.844   6.444   2.772 -0.0396  0.2180 -0.4435
  208MOL0     C27380   9.711   6.411   2.764 -0.4664  1.0005 -0.5772
  208MOL0     C27381   9.598   6.496   2.765  0.0771 -0.2985 -0.0028
  208MOL0     O27382   9.471   6.440   2.772  0.1928 -0.6740  0.5562
  208MOL0     C27383   9.370   6.537   2.754 -0.4214 -0.2335 -0.6314
  208MOL0     C27384   9.236   6.464   2.748 -1.0902  0.2827 -0.1980
  208MOL0     C27385   9.200   6.388   2.879  0.3025  0.4162 -0.6042
  208MOL0     C27386   9.054   6.326   2.859 -0.3547 -1.2049  0.7572
  208MOL0     C27387   9.020   6.227   2.966 -0.7066  0.3065  0.2410
  208MOL0     C27388   8.986   6.147   3.048 -0.2026 -0.1714  0.6001
  208MOL0     C27389   9.619   6.631   2.756  0.6238 -1.0774 -0.4609
  208MOL0     C27390   9.759   6.679   2.774  0.3061 -0.0497  0.5855
  208MOL0     H27391  10.276   6.739   2.724  1.3524 -0.3195 -1.0482
  208MOL0     H27392  10.508   6.778   2.789 -1.1566  0.1772 -3.1393
  208MOL0     H27393  10.607   6.881   3.008  0.4812  1.0531  1.8451
  208MOL0     H27394  10.709   6.812   2.875 -0.2545 -2.8939 -0.2929
  208MOL0     H27395  10.824   6.708   3.109  1.6945 -0.0151 -1.0816
  208MOL0     H27396  10.778   6.859   3.165  2.4743 -0.1234 -0.4062
  208MOL0     H27397  11.006   6.820   2.978  1.9598  1.1734  2.6081
  208MOL0     H27398  10.973   6.941   3.108 -1.4844  3.4690 -1.2573
  208MOL0     H27399  10.872   6.940   2.828 -0.8770 -1.5817  1.0658
  208MOL0     H27400  10.809   7.041   2.957  1.4083  0.1506  5.1298
  208MOL0     H27401  11.047   7.151   2.976  2.3503 -0.1968  0.4642
  208MOL0     H27402  10.984   7.174   2.818 -0.9336 -1.4262  0.3988
  208MOL0     H27403  11.113   6.978   2.738 -2.2985 -2.1622  1.8512
  208MOL0     H27404  11.156   6.952   2.904 -1.3229 -2.3400 -1.4652
  208MOL0     H27405  11.214   7.209   2.744 -1.9271 -2.4086 -0.6747
  208MOL0     H27406  11.275   7.179   2.909  3.0081  2.4731 -0.4779
  208MOL0     H27407  11.433   7.133   2.724 -0.0890 -0.2500  0.8747
  208MOL0     H27408  11.339   6.995   2.669 -2.8126  1.1076 -0.3199
  208MOL0     H27409  11.315   6.790   2.842 -0.0082 -0.9394  0.0686
  208MOL0     H27410  11.393   6.619   3.061 -0.5750  1.4368  3.6279
  208MOL0     H27411  11.529   6.670   3.155  2.1655 -1.7391 -0.0970
  208MOL0     H27412  11.698   6.626   2.982  0.9794 -3.5746  1.2895
  208MOL0     H27413  11.567   6.551   2.879 -2.6677  0.9547  0.3410
  208MOL0     H27414  11.735   6.408   3.028 -0.1092  0.4990 -1.1775
  208MOL0     H27415  11.655   6.481   3.159 -4.8664 -1.8976  1.9440
  208MOL0     H27416  11.437   6.415   3.111 -3.0870 -5.3828  0.3995
  208MOL0     H27417  11.549   6.287   3.159  1.8838  1.7479  2.5141
  208MOL0     H27418  11.316   6.234   3.127  0.2129 -1.3994  1.4513
  208MOL0     H27419  11.114   6.082   3.090 -1.6192  0.6445 -1.4913
  208MOL0     H27420  11.075   5.608   3.017 -0.3876 -1.4508  0.8126
  208MOL0     H27421  10.925   5.445   3.073  1.0895  0.4585 -1.7080
  208MOL0     H27422  10.744   5.341   3.351 -1.5550  1.1983  0.0750
  208MOL0     H27423  10.807   5.330   3.180 -0.4587  0.0469  0.0994
  208MOL0     H27424  10.596   5.272   3.095  1.0866  2.8738 -0.0111
  208MOL0     H27425  10.510   5.303   3.252 -1.9154 -1.9639 -0.9255
  208MOL0     H27426  10.658   5.061   3.172 -1.4547  0.5730 -1.3785
  208MOL0     H27427  10.506   5.078   3.265 -0.3794 -0.1780 -1.1050
  208MOL0     H27428  10.793   5.100   3.354 -0.8760  2.6017 -2.5736
  208MOL0     H27429  10.657   5.179   3.442 -0.0760 -0.0381 -0.0940
  208MOL0     H27430  10.728   4.882   3.409  0.3295  0.3476 -0.6208
  208MOL0     H27431  10.561   4.913   3.401  1.2849 -0.5958 -3.7416
  208MOL0     H27432  10.607   4.866   3.638 -2.4458 -0.1048 -2.8365
  208MOL0     H27433  10.582   5.044   3.618 -0.2628 -0.2238  0.5470
  208MOL0     H27434  10.861   4.921   3.624  1.0172 -0.1671  2.1444
  208MOL0     H27435  10.810   5.085   3.602  0.2862  0.3102 -0.8049
  208MOL0     H27436  10.755   4.895   3.847 -2.0074 -0.6010 -2.0457
  208MOL0     H27437  10.685   5.056   3.847 -0.2013  0.4651  2.0258
  208MOL0     H27438  10.643   5.733   3.248 -0.5809  0.0644 -0.4879
  208MOL0     H27439  10.789   5.912   3.120  1.3021  0.0522 -1.1400
  208MOL0     H27440  11.273   5.951   2.724 -1.4169  1.0050 -0.3476
  208MOL0     H27441  11.468   6.124   2.750 -0.5794  1.8209  0.0673
  208MOL0     H27442  10.505   6.452   3.059 -0.2619 -2.2954 -1.5584
  208MOL0     H27443  10.269   6.402   2.999 -1.3956 -0.8137 -2.8082
  208MOL0     H27444   9.921   6.369   2.769 -2.1015 -2.0090 -3.1943
  208MOL0     H27445   9.684   6.306   2.769 -3.4715  1.6422 -1.4775
  208MOL0     H27446   9.388   6.592   2.661  2.2036 -0.5293 -0.3618
  208MOL0     H27447   9.356   6.610   2.834  0.2198  0.2996 -0.9978
  208MOL0     H27448   9.164   6.543   2.724  0.2719  2.4795  2.3898
  208MOL0     H27449   9.246   6.400   2.659 -0.8685 -2.0568  1.4067
  208MOL0     H27450   9.206   6.447   2.970 -0.3242 -0.1348 -0.1900
  208MOL0     H27451   9.266   6.301   2.891 -0.8341 -0.6648 -1.7566
  208MOL0     H27452   8.976   6.403   2.856 -1.0136 -1.6816 -4.3905
  208MOL0     H27453   9.043   6.284   2.758  0.3410 -3.3851  1.5476
  208MOL0     H27454   8.969   6.062   3.110  2.1757  1.0180  3.0999
  208MOL0     H27455   9.539   6.704   2.752  0.6237 -1.0436  0.1078
  208MOL0     H27456   9.778   6.786   2.773  3.8568 -0.5483  1.6126
  209MOL0     O27457  11.283   6.300   6.754  0.4917  0.5830 -0.4617
  209MOL0     C27458  11.247   6.380   6.666  0.5223 -0.6038  0.3100
  209MOL0     O27459  11.318   6.481   6.613 -0.3428 -0.2133 -0.1510
  209MOL0     C27460  11.443   6.502   6.665 -0.1287 -0.1818 -1.1300
  209MOL0     C27461  11.551   6.403   6.684 -0.9579  0.9621 -0.6607
  209MOL0     C27462  11.679   6.428   6.724 -0.8353  0.1276  0.5556
  209MOL0     C27463  11.713   6.568   6.733  0.6841  0.7095  0.2542
  209MOL0     O27464  11.834   6.615   6.776 -0.4568 -0.8432  0.4439
  209MOL0     C27465  11.917   6.549   6.870 -0.2328  0.8137 -0.3355
  209MOL0     C27466  12.007   6.649   6.943 -0.7154 -0.0516 -0.0142
  209MOL0     C27467  12.123   6.579   7.013  0.4836  0.2260  0.8786
  209MOL0     C27468  12.071   6.510   7.139 -1.2376  0.7472 -0.6159
  209MOL0     C27469  12.189   6.480   7.244 -0.4388  0.5881  0.4060
  209MOL0     C27470  12.155   6.402   7.370  0.7923  0.6496 -0.4682
  209MOL0     C27471  12.278   6.386   7.463  1.9080  0.4689 -0.7533
  209MOL0     C27472  12.397   6.297   7.414 -0.5451  0.4708  0.9269
  209MOL0     N27473  12.522   6.330   7.486 -0.4438  0.3040  0.2085
  209MOL0     C27474  12.566   6.278   7.607 -0.0264 -0.0418  0.3542
  209MOL0     C27475  12.673   6.348   7.641  0.1589  1.3272  0.4014
  209MOL0     C27476  12.745   6.325   7.760 -0.9972 -1.2064 -0.3197
  209MOL0     C27477  12.790   6.179   7.765 -0.1714  0.4022 -0.7463
  209MOL0     C27478  12.864   6.159   7.895 -0.6460 -0.7437 -0.4939
  209MOL0     C27479  12.924   6.014   7.913 -0.1053 -0.1429  1.1521
  209MOL0     O27480  12.816   5.919   7.941  0.1395 -0.2581 -0.5966
  209MOL0     C27481  12.853   5.787   7.952  0.4692 -0.0300 -0.7879
  209MOL0     C27482  12.867   5.694   7.843 -0.4918 -0.2457 -0.3262
  209MOL0     C27483  12.908   5.563   7.861 -0.7521  0.0002 -0.8053
  209MOL0     C27484  12.938   5.514   7.988 -0.6079  0.2300  0.0674
  209MOL0     C27485  12.967   5.369   7.995 -0.0535 -0.8597  1.2492
  209MOL0     O27486  12.965   5.291   7.878 -0.4795 -0.2103  0.0145
  209MOL0     C27487  12.968   5.153   7.874 -1.0429  1.0426  0.2293
  209MOL0     C27488  13.016   5.102   7.748 -0.6712 -0.2775 -0.3115
  209MOL0     C27489  13.027   4.962   7.737 -0.0497 -0.0838 -0.0666
  209MOL0     C27490  12.985   4.876   7.833 -0.5699 -0.8409  1.4431
  209MOL0     O27491  12.994   4.743   7.805  0.3787  0.0381 -0.1303
  209MOL0     C27492  12.958   4.641   7.894 -0.4808  0.2688 -0.0057
  209MOL0     C27493  12.918   4.519   7.809 -0.3878 -0.0551  0.5011
  209MOL0     C27494  12.999   4.508   7.675 -0.1779 -0.7093  0.5423
  209MOL0     C27495  12.989   4.372   7.614 -0.0959  0.4184  0.1019
  209MOL0     C27496  13.073   4.364   7.484 -0.1117 -0.7574 -0.1669
  209MOL0     C27497  13.025   4.245   7.401 -0.3408  0.6153 -0.8512
  209MOL0     C27498  13.088   4.236   7.266 -1.0663  0.3510 -0.5541
  209MOL0     C27499  13.030   4.131   7.171 -1.2561  0.8561 -0.0703
  209MOL0    Cl27500  13.011   3.964   7.241  0.1560 -0.1416  0.1980
  209MOL0     C27501  12.947   4.932   7.952 -0.1622  0.2230 -0.7799
  209MOL0     C27502  12.935   5.067   7.975  0.9713 -0.2929 -0.4411
  209MOL0     O27503  12.991   5.333   8.105  0.4124  0.1402 -0.8176
  209MOL0     C27504  12.926   5.601   8.099  0.6970  0.1063 -0.5427
  209MOL0     C27505  12.883   5.730   8.079 -0.0034 -0.0082  0.0975
  209MOL0     N27506  12.689   6.449   7.548 -0.3388  0.1786 -0.7336
  209MOL0     N27507  12.605   6.431   7.457  0.1596  0.7010 -0.3902
  209MOL0     C27508  11.618   6.669   6.707 -0.3473  1.2077 -0.7804
  209MOL0     C27509  11.484   6.637   6.677 -0.5297 -0.5482 -0.4527
  209MOL0     C27510  11.113   6.387   6.621  0.0111 -0.4699 -0.0820
  209MOL0     C27511  11.009   6.317   6.696  0.8486 -0.4422  0.0922
  209MOL0     C27512  10.881   6.321   6.645  1.1780  0.1148  0.9196
  209MOL0     C27513  10.843   6.394   6.526  0.2428  0.0394 -0.2368
  209MOL0     O27514  10.723   6.403   6.467 -0.6375 -0.5971 -0.8368
  209MOL0     C27515  10.609   6.340   6.520  0.5401 -0.3052  0.0446
  209MOL0     C27516  10.488   6.410   6.463  0.5580  0.2050  0.3354
  209MOL0     C27517  10.489   6.402   6.312  0.0643  0.4074 -0.4399
  209MOL0     C27518  10.357   6.462   6.258 -0.6238  0.2601  0.6444
  209MOL0     C27519  10.343   6.611   6.274  0.2123  0.7325  0.8264
  209MOL0     C27520  10.327   6.730   6.288  0.0290  0.0365  0.3965
  209MOL0     C27521  10.946   6.456   6.453  0.0712 -0.2459 -0.6402
  209MOL0     C27522  11.080   6.442   6.499 -0.2854  0.3039 -0.6350
  209MOL0     H27523  11.519   6.303   6.656  1.2848  0.0330 -0.1361
  209MOL0     H27524  11.752   6.348   6.724 -0.9992 -0.0287 -0.4212
  209MOL0     H27525  11.981   6.482   6.811 -1.0910 -0.9636  0.6823
  209MOL0     H27526  11.855   6.504   6.948  1.0841  1.6223  1.2360
  209MOL0     H27527  11.956   6.712   7.016 -1.9604  0.7145 -1.4936
  209MOL0     H27528  12.046   6.721   6.871 -0.0547  1.7679  2.0471
  209MOL0     H27529  12.210   6.641   7.038  1.4833  0.4220 -2.6240
  209MOL0     H27530  12.165   6.508   6.941 -0.9161  1.6259 -1.4401
  209MOL0     H27531  12.005   6.581   7.192  1.8292  3.0906  0.3856
  209MOL0     H27532  12.015   6.424   7.103  1.8577 -1.9342  0.4390
  209MOL0     H27533  12.231   6.577   7.271 -1.3140  0.9140  0.6312
  209MOL0     H27534  12.264   6.419   7.192 -0.0126  1.0661  0.4557
  209MOL0     H27535  12.104   6.312   7.336 -4.1618  2.7851  0.3011
  209MOL0     H27536  12.081   6.455   7.433  1.7250  1.7330 -0.2475
  209MOL0     H27537  12.319   6.486   7.483  1.3122  0.4347  0.8471
  209MOL0     H27538  12.243   6.350   7.561  1.5990 -2.3804 -1.8302
  209MOL0     H27539  12.415   6.315   7.308  0.1233  1.5101  1.1988
  209MOL0     H27540  12.372   6.191   7.418 -1.5968  0.7361  1.8669
  209MOL0     H27541  12.535   6.190   7.662  0.1405 -0.3157  0.0167
  209MOL0     H27542  12.678   6.353   7.841  0.8999 -0.0364  0.9114
  209MOL0     H27543  12.831   6.391   7.774 -0.3343 -2.5255  2.7090
  209MOL0     H27544  12.851   6.158   7.677  0.1168  1.5239 -0.8332
  209MOL0     H27545  12.700   6.117   7.771  0.5226 -0.4876  1.2617
  209MOL0     H27546  12.949   6.228   7.892 -0.5833 -0.8776 -2.4669
  209MOL0     H27547  12.802   6.180   7.983 -0.4616  0.6878 -0.6715
  209MOL0     H27548  13.008   6.021   7.983 -1.0309  0.6564  2.2280
  209MOL0     H27549  12.967   5.980   7.818  0.6104  2.8140  0.3032
  209MOL0     H27550  12.835   5.709   7.741  1.0723 -2.5289 -1.2467
  209MOL0     H27551  12.912   5.499   7.773  0.0040 -0.2887 -0.5666
  209MOL0     H27552  13.031   5.171   7.665 -0.4392  1.8301  1.3857
  209MOL0     H27553  13.073   4.915   7.650  1.8123 -1.1226  1.3987
  209MOL0     H27554  12.865   4.679   7.938 -0.1479  1.9288 -0.6953
  209MOL0     H27555  13.029   4.616   7.974 -1.7537 -2.0035  0.5263
  209MOL0     H27556  12.810   4.508   7.790 -1.1259  4.0368  1.4007
  209MOL0     H27557  12.947   4.430   7.865  1.1995 -0.3805 -0.7699
  209MOL0     H27558  13.104   4.520   7.703 -0.2995  1.5139  0.2686
  209MOL0     H27559  12.953   4.587   7.615 -0.7682 -0.7723  0.9038
  209MOL0     H27560  13.023   4.301   7.689  2.2245  0.3676 -0.9162
  209MOL0     H27561  12.883   4.348   7.599 -0.6690  0.7535  3.0500
  209MOL0     H27562  13.180   4.360   7.507 -0.1972 -0.4130  0.3074
  209MOL0     H27563  13.052   4.450   7.420 -0.6752 -2.0910 -1.8391
  209MOL0     H27564  12.916   4.251   7.394 -0.6575 -2.1675  0.2783
  209MOL0     H27565  13.039   4.154   7.461  1.8133  1.4645  0.0348
  209MOL0     H27566  13.058   4.332   7.222 -0.9429  1.0099  0.7466
  209MOL0     H27567  13.196   4.226   7.283 -0.9334 -0.6083 -1.8128
  209MOL0     H27568  13.073   4.123   7.070 -1.9197  2.1598 -0.4844
  209MOL0     H27569  12.927   4.163   7.151 -0.6657  2.1449 -1.2536
  209MOL0     H27570  12.932   4.873   8.042 -1.1149  0.0090 -1.0645
  209MOL0     H27571  12.902   5.096   8.075 -1.6208 -5.5346  0.5756
  209MOL0     H27572  12.947   5.576   8.202 -2.0273 -1.8306 -0.3709
  209MOL0     H27573  12.885   5.805   8.158  1.9713  0.0587  0.0329
  209MOL0     H27574  11.648   6.771   6.725  0.0781  1.1284 -1.0189
  209MOL0     H27575  11.426   6.726   6.653 -0.0381 -0.8986 -3.3021
  209MOL0     H27576  11.027   6.274   6.794 -1.8612 -0.8725  0.4912
  209MOL0     H27577  10.805   6.257   6.689  2.2976  0.3813  3.4137
  209MOL0     H27578  10.607   6.370   6.625  0.8153 -1.1021  0.2848
  209MOL0     H27579  10.611   6.233   6.498 -3.3475 -0.5917  0.4017
  209MOL0     H27580  10.395   6.369   6.505  1.4590 -0.8054  1.4285
  209MOL0     H27581  10.520   6.512   6.486  0.8221  0.7053 -1.9988
  209MOL0     H27582  10.495   6.295   6.288  3.5603  0.0924  1.2269
  209MOL0     H27583  10.574   6.459   6.273  0.6498  0.9316  1.5035
  209MOL0     H27584  10.357   6.446   6.150  1.3852  0.4310  0.5827
  209MOL0     H27585  10.277   6.406   6.307 -0.2531 -0.1415  0.8018
  209MOL0     H27586  10.303   6.833   6.304  2.8288  0.3389  4.1697
  209MOL0     H27587  10.920   6.510   6.363  2.9331  3.0509  0.3126
  209MOL0     H27588  11.151   6.510   6.452  0.0231  0.8144  0.5306
  210MOL0     O27589   7.951   9.918  10.174  0.1202  0.0279  0.2365
  210MOL0     C27590   7.901  10.009  10.108  1.3196  0.1869 -0.5692
  210MOL0     O27591   7.770  10.057  10.128  0.2750  0.2458  0.0682
  210MOL0     C27592   7.705  10.027  10.247 -0.0397 -1.4292  0.5072
  210MOL0     C27593   7.768  10.036  10.375  0.4433 -0.9060 -0.0609
  210MOL0     C27594   7.688  10.023  10.493  0.2618 -0.2052  0.3282
  210MOL0     C27595   7.554   9.985  10.489 -0.7018  1.4740  0.1219
  210MOL0     O27596   7.470   9.962  10.598 -0.0444  0.2428 -0.3692
  210MOL0     C27597   7.355  10.045  10.616  0.8132  0.0678  0.1372
  210MOL0     C27598   7.293  10.016  10.748 -0.3476  0.0476 -1.0575
  210MOL0     C27599   7.156  10.081  10.774  0.4295  0.3871 -0.8698
  210MOL0     C27600   7.170  10.212  10.855 -0.4049 -0.5725 -0.8182
  210MOL0     C27601   7.042  10.300  10.846 -0.6802  0.8660 -0.3792
  210MOL0     C27602   6.909  10.227  10.839  0.2296 -0.3972  0.4238
  210MOL0     C27603   6.785  10.322  10.831 -0.3958  0.1722 -0.0420
  210MOL0     C27604   6.700  10.306  10.959  0.2399  0.2624 -0.5534
  210MOL0     N27605   6.757  10.360  11.077  0.2821  0.4706 -0.0117
  210MOL0     C27606   6.827  10.293  11.172 -0.3061  0.2686 -0.8716
  210MOL0     C27607   6.855  10.380  11.277  0.8999  0.0561 -0.1926
  210MOL0     C27608   6.889  10.356  11.419 -0.2923  0.3371  0.5909
  210MOL0     C27609   7.026  10.290  11.439 -0.8930 -1.0652  0.2096
  210MOL0     C27610   7.138  10.373  11.361  0.1491 -0.1302 -0.3573
  210MOL0     C27611   7.261  10.285  11.394 -0.4430 -0.0885 -0.1371
  210MOL0     O27612   7.342  10.265  11.277  0.3420  0.4261  0.4882
  210MOL0     C27613   7.412  10.365  11.217 -0.4245 -0.0553  0.7657
  210MOL0     C27614   7.429  10.484  11.280 -0.8854 -0.2791 -1.1503
  210MOL0     C27615   7.509  10.591  11.225  0.1443  0.5462  0.1024
  210MOL0     C27616   7.554  10.577  11.094 -1.2855  0.5629 -0.8366
  210MOL0     C27617   7.651  10.668  11.034 -0.1168  0.2307  0.0215
  210MOL0     O27618   7.686  10.658  10.907 -0.9926  0.0403 -0.2024
  210MOL0     C27619   7.767  10.756  10.840 -0.3733 -0.2591 -0.1038
  210MOL0     C27620   7.758  10.895  10.844 -0.2487  0.3131  0.7842
  210MOL0     C27621   7.866  10.981  10.789  0.4278  0.0935 -0.3645
  210MOL0     C27622   7.977  10.919  10.724 -0.4993  0.1911 -0.6921
  210MOL0     O27623   8.076  10.995  10.673  0.3923  1.3398 -0.4212
  210MOL0     C27624   8.204  10.937  10.671 -0.4428 -0.3927 -0.0341
  210MOL0     C27625   8.256  10.945  10.521 -0.4260 -0.7556 -0.0181
  210MOL0     C27626   8.311  11.074  10.490 -0.5468 -0.5131  0.3588
  210MOL0     C27627   8.459  11.075  10.535 -0.2646 -0.3918  0.2881
  210MOL0     C27628   8.533  11.183  10.458  0.5058 -0.2511 -0.4799
  210MOL0     C27629   8.681  11.178  10.469  0.7490  0.7578 -0.3653
  210MOL0     C27630   8.744  11.274  10.380  0.2945 -0.5053  0.6148
  210MOL0     C27631   8.895  11.271  10.381 -0.1725 -0.5094 -0.4081
  210MOL0    Cl27632   8.976  11.397  10.272  0.6032 -0.2268 -0.3189
  210MOL0     C27633   7.977  10.781  10.707 -0.2258  0.2540  1.3531
  210MOL0     C27634   7.879  10.703  10.765  0.0903 -0.1157  0.1266
  210MOL0     O27635   7.705  10.741  11.115  0.4630  0.7471 -1.3761
  210MOL0     C27636   7.521  10.460  11.027 -0.1679 -1.1991  0.3246
  210MOL0     C27637   7.456  10.351  11.087  0.1130 -0.3461  0.2548
  210MOL0     N27638   6.818  10.506  11.222 -0.1737 -0.4363  0.0819
  210MOL0     N27639   6.763  10.493  11.106  0.1151  0.4181 -0.3387
  210MOL0     C27640   7.502   9.957  10.366 -0.0499  0.0313  0.7734
  210MOL0     C27641   7.570   9.988  10.242  0.3059 -0.2637  0.0037
  210MOL0     C27642   7.993  10.077  10.010  0.0580  1.4588  0.2785
  210MOL0     C27643   8.101  10.006   9.960 -0.6607  0.2220 -0.2442
  210MOL0     C27644   8.189  10.060   9.869  0.0141  0.0682  0.3963
  210MOL0     C27645   8.177  10.196   9.822 -0.3181  0.7581 -0.5329
  210MOL0     O27646   8.257  10.255   9.729 -0.0163 -0.2708  1.3375
  210MOL0     C27647   8.394  10.206   9.688  0.8512  0.8535 -0.3244
  210MOL0     C27648   8.493  10.321   9.687  0.3286  0.1173 -0.2407
  210MOL0     C27649   8.508  10.378   9.826 -0.2351 -0.0702 -0.0200
  210MOL0     C27650   8.613  10.490   9.844 -0.2473  0.1145 -0.6867
  210MOL0     C27651   8.568  10.615   9.797  1.0197 -0.4177 -0.3114
  210MOL0     C27652   8.534  10.730   9.777  0.0893 -0.3789 -0.0718
  210MOL0     C27653   8.073  10.269   9.877  0.6068 -0.5349  0.5617
  210MOL0     C27654   7.983  10.211   9.962  1.0393  0.0948  0.1281
  210MOL0     H27655   7.865  10.085  10.386 -1.3018  2.8016  0.1158
  210MOL0     H27656   7.742  10.059  10.581  1.0307  1.9114 -0.9309
  210MOL0     H27657   7.280  10.010  10.545 -1.1510  2.3627  0.9236
  210MOL0     H27658   7.377  10.152  10.614 -1.8628  0.6745 -1.4421
  210MOL0     H27659   7.365  10.046  10.825 -1.4340 -0.8054  0.3438
  210MOL0     H27660   7.286   9.907  10.753  3.7879 -0.3396 -0.1203
  210MOL0     H27661   7.112  10.003  10.837  5.6082 -3.3168 -1.2265
  210MOL0     H27662   7.107  10.095  10.677  1.0763 -2.0246 -1.5986
  210MOL0     H27663   7.185  10.187  10.961 -1.3344 -1.9639 -0.9848
  210MOL0     H27664   7.249  10.275  10.814 -0.4709  0.0880  0.0464
  210MOL0     H27665   7.045  10.366  10.759 -2.3620 -2.9618 -3.6935
  210MOL0     H27666   7.031  10.371  10.928  1.1550  2.0602 -1.1001
  210MOL0     H27667   6.913  10.155  10.922  2.8939 -0.8185  0.0095
  210MOL0     H27668   6.915  10.171  10.745  2.7992 -2.6241  1.7686
  210MOL0     H27669   6.824  10.423  10.825 -0.2724  0.0990 -0.4934
  210MOL0     H27670   6.719  10.312  10.744  1.2189  1.8623 -1.5180
  210MOL0     H27671   6.677  10.199  10.970 -1.3135  0.2075 -3.4284
  210MOL0     H27672   6.605  10.353  10.932 -0.6473 -1.2576 -0.2163
  210MOL0     H27673   6.828  10.186  11.184  0.5729  0.2430 -1.1169
  210MOL0     H27674   6.820  10.282  11.461  0.4670 -0.1046  1.0728
  210MOL0     H27675   6.891  10.442  11.487  2.3387  0.5069  0.3873
  210MOL0     H27676   7.010  10.190  11.397 -2.2502 -0.4326 -0.8850
  210MOL0     H27677   7.051  10.301  11.544 -1.3643 -0.6199  0.2788
  210MOL0     H27678   7.114  10.379  11.255 -2.0517 -0.9722  0.0224
  210MOL0     H27679   7.146  10.476  11.397  0.5067 -0.4648  0.5415
  210MOL0     H27680   7.242  10.179  11.415 -0.5318 -0.2929 -1.1727
  210MOL0     H27681   7.325  10.314  11.478 -0.6312  0.6572 -0.2472
  210MOL0     H27682   7.393  10.503  11.380  0.7990  0.8174 -0.7016
  210MOL0     H27683   7.536  10.668  11.297 -0.7515 -0.1836  1.2617
  210MOL0     H27684   7.680  10.953  10.892 -0.0231  0.4458  0.9925
  210MOL0     H27685   7.877  11.082  10.827  0.5363 -0.2336  0.4872
  210MOL0     H27686   8.208  10.832  10.701 -1.2657 -0.5204 -0.3438
  210MOL0     H27687   8.267  10.988  10.744 -0.8941 -1.6023  1.2364
  210MOL0     H27688   8.168  10.937  10.456 -1.4290 -0.8463  1.3116
  210MOL0     H27689   8.322  10.863  10.493 -1.5716 -1.9950  0.7518
  210MOL0     H27690   8.247  11.151  10.534  0.8465  2.1256 -1.9050
  210MOL0     H27691   8.314  11.086  10.381  0.7385 -0.6060  0.3746
  210MOL0     H27692   8.467  11.085  10.643  3.3529  2.5738 -0.0507
  210MOL0     H27693   8.498  10.975  10.511  1.4554 -0.6946  3.8648
  210MOL0     H27694   8.500  11.274  10.508 -1.7564 -1.3544  0.1729
  210MOL0     H27695   8.501  11.198  10.354  1.0549 -2.0488 -0.9463
  210MOL0     H27696   8.712  11.077  10.441 -0.1660  0.1440  0.7523
  210MOL0     H27697   8.705  11.188  10.575  1.6028  0.5685 -0.5296
  210MOL0     H27698   8.696  11.261  10.283 -0.3329  1.7958  0.5700
  210MOL0     H27699   8.718  11.378  10.402  1.7207 -0.2531  1.2270
  210MOL0     H27700   8.915  11.169  10.347 -2.6481 -1.4953  0.8077
  210MOL0     H27701   8.940  11.273  10.481 -1.7949 -0.8765  0.3629
  210MOL0     H27702   8.038  10.735  10.630 -2.1533 -0.9452  0.4629
  210MOL0     H27703   7.871  10.596  10.751 -0.1810 -0.1494  0.5174
  210MOL0     H27704   7.544  10.445  10.922 -0.7502  2.1465 -0.3855
  210MOL0     H27705   7.424  10.267  11.027  1.4160 -0.0803 -0.8739
  210MOL0     H27706   7.399   9.927  10.348  1.1951 -3.2470 -2.0785
  210MOL0     H27707   7.513   9.981  10.150  0.8780 -0.8189 -0.3197
  210MOL0     H27708   8.118   9.906   9.999  1.3221  1.5019  2.4693
  210MOL0     H27709   8.262   9.987   9.837  0.1911  0.6155 -0.4989
  210MOL0     H27710   8.385  10.152   9.593 -2.3184 -2.8999  1.8271
  210MOL0     H27711   8.420  10.125   9.757  0.5425 -0.1523 -1.3478
  210MOL0     H27712   8.585  10.289   9.639  0.1844 -2.1077  0.8328
  210MOL0     H27713   8.451  10.395   9.618  1.8679 -0.9686 -2.4489
  210MOL0     H27714   8.540  10.295   9.889  3.3279  0.8871 -0.3137
  210MOL0     H27715   8.410  10.416   9.855 -0.2038  1.4517 -1.7611
  210MOL0     H27716   8.625  10.515   9.949 -0.5302  1.6725 -0.9988
  210MOL0     H27717   8.706  10.454   9.800 -1.0060 -0.4157 -1.9118
  210MOL0     H27718   8.504  10.829   9.749 -0.0578 -0.8160 -1.5144
  210MOL0     H27719   8.068  10.374   9.850  1.1213 -0.0724  2.1441
  210MOL0     H27720   7.909  10.273  10.013 -0.7597 -1.8039 -0.0211
  211MOL0     O27721   9.710   9.028   2.017  0.0000  0.7868 -0.2470
  211MOL0     C27722   9.706   8.991   1.900 -0.3754  1.4688 -0.7299
  211MOL0     O27723   9.706   9.067   1.789 -0.4989  0.1979 -0.3343
  211MOL0     C27724   9.751   9.202   1.793 -0.5627  0.0981 -0.8378
  211MOL0     C27725   9.818   9.256   1.679  0.5483  0.3141 -0.8185
  211MOL0     C27726   9.857   9.393   1.671  0.2795 -0.0069 -0.3053
  211MOL0     C27727   9.820   9.482   1.774  1.3543 -0.4035  0.4763
  211MOL0     O27728   9.839   9.614   1.776  0.4032  1.1269  0.4177
  211MOL0     C27729   9.886   9.685   1.659 -0.1760 -0.0540  0.2155
  211MOL0     C27730   9.880   9.834   1.685  1.0926 -0.0114  0.1930
  211MOL0     C27731   9.746   9.888   1.740 -0.3613  0.3832  0.4167
  211MOL0     C27732   9.748  10.040   1.716 -0.6804  0.3109 -0.2617
  211MOL0     C27733   9.618  10.093   1.768  0.5262 -0.3323 -0.6921
  211MOL0     C27734   9.486  10.077   1.691 -0.5122 -0.3260 -0.8714
  211MOL0     C27735   9.363  10.143   1.766 -1.2444  0.2959 -0.0822
  211MOL0     C27736   9.316  10.099   1.910 -0.0168 -1.0550 -0.2739
  211MOL0     N27737   9.259   9.969   1.895 -0.9394  0.0446  0.0836
  211MOL0     C27738   9.332   9.855   1.894  0.8132 -0.0663  0.1005
  211MOL0     C27739   9.237   9.757   1.898  0.0918  0.4898 -0.3302
  211MOL0     C27740   9.277   9.613   1.879  1.2116 -0.6467 -0.0033
  211MOL0     C27741   9.348   9.578   1.756 -0.3312  0.9566 -0.0667
  211MOL0     C27742   9.322   9.428   1.717  0.0498 -0.7951  0.5015
  211MOL0     C27743   9.429   9.368   1.622 -1.1747  0.3897 -0.4118
  211MOL0     O27744   9.374   9.252   1.560 -0.0369  0.2490 -0.1542
  211MOL0     C27745   9.338   9.147   1.640  0.1188 -0.0410  0.6841
  211MOL0     C27746   9.403   9.111   1.755  0.3209 -0.0237  0.1758
  211MOL0     C27747   9.370   8.999   1.817  0.6809  0.6007 -0.0665
  211MOL0     C27748   9.275   8.904   1.760 -0.0750 -0.4043 -0.7000
  211MOL0     C27749   9.247   8.769   1.808 -0.4649  0.4385  0.7341
  211MOL0     O27750   9.280   8.753   1.937 -0.1010 -0.8393 -1.0796
  211MOL0     C27751   9.312   8.639   2.002  0.2415 -0.5318  0.2201
  211MOL0     C27752   9.369   8.646   2.129  0.3109 -0.5250  0.3814
  211MOL0     C27753   9.403   8.534   2.198 -0.5805 -0.2509  0.1585
  211MOL0     C27754   9.379   8.412   2.149 -0.7462  0.5814 -1.2474
  211MOL0     O27755   9.400   8.290   2.218  0.5554 -0.1312 -1.1429
  211MOL0     C27756   9.533   8.227   2.212 -0.4594  0.7851 -0.2505
  211MOL0     C27757   9.561   8.153   2.073 -0.0027 -0.7560 -0.2645
  211MOL0     C27758   9.673   8.051   2.071  0.7148 -0.1139  0.6363
  211MOL0     C27759   9.670   7.980   1.930  0.6606  0.2932 -0.5891
  211MOL0     C27760   9.808   7.903   1.909  0.4838  0.1566  0.1797
  211MOL0     C27761   9.808   7.769   1.992 -0.5004  0.9204  0.2376
  211MOL0     C27762   9.949   7.742   2.030 -0.1332 -0.3536 -0.3056
  211MOL0     C27763   9.970   7.632   2.135 -0.1185 -0.2416  0.2341
  211MOL0    Cl27764   9.986   7.698   2.302 -0.7932 -0.4899 -0.1977
  211MOL0     C27765   9.336   8.399   2.026 -0.4340 -0.4022 -0.0919
  211MOL0     C27766   9.299   8.510   1.955 -0.2299 -0.2806  0.7151
  211MOL0     O27767   9.193   8.684   1.734 -0.2242 -0.4618  0.5840
  211MOL0     C27768   9.207   8.946   1.643 -0.7658  0.1015 -0.4171
  211MOL0     C27769   9.241   9.071   1.579  0.6855  0.9713 -0.0425
  211MOL0     N27770   9.111   9.809   1.896  1.4673 -0.9250 -0.1244
  211MOL0     N27771   9.128   9.937   1.905 -0.2865  0.6299 -0.8444
  211MOL0     C27772   9.751   9.427   1.889 -1.1509  0.0363 -0.7782
  211MOL0     C27773   9.728   9.288   1.893 -0.1965 -0.8452 -0.0624
  211MOL0     C27774   9.701   8.842   1.895  0.6200  0.1944  0.4064
  211MOL0     C27775   9.758   8.766   1.985  0.3308  0.7377 -0.5900
  211MOL0     C27776   9.752   8.620   1.978  0.5397  0.5795  0.4941
  211MOL0     C27777   9.712   8.563   1.854  0.0168 -0.6505  0.8853
  211MOL0     O27778   9.729   8.427   1.840 -0.5981  0.7606 -0.2454
  211MOL0     C27779   9.684   8.352   1.728  0.7126 -0.2681 -0.2041
  211MOL0     C27780   9.526   8.347   1.724  0.3206 -0.5621  0.8441
  211MOL0     C27781   9.501   8.228   1.635  0.0324  0.4661  0.1161
  211MOL0     C27782   9.361   8.185   1.648 -0.1637  0.4640  0.6988
  211MOL0     C27783   9.270   8.291   1.603  0.8582 -0.0499 -0.7832
  211MOL0     C27784   9.197   8.393   1.590  0.3628  1.2003  0.0660
  211MOL0     C27785   9.652   8.644   1.764 -0.4090  0.5118 -0.2327
  211MOL0     C27786   9.645   8.781   1.783 -0.8947 -0.0359  0.2184
  211MOL0     H27787   9.822   9.192   1.591 -0.8587 -0.3558 -0.4248
  211MOL0     H27788   9.909   9.422   1.581 -0.7069  0.3515 -0.7695
  211MOL0     H27789   9.821   9.651   1.578 -2.1886 -1.1634  2.1460
  211MOL0     H27790   9.990   9.671   1.629  0.2214  1.4872  0.7928
  211MOL0     H27791   9.901   9.890   1.593 -1.5482  0.5638 -0.1370
  211MOL0     H27792   9.957   9.872   1.753  2.8403 -1.7183 -0.7264
  211MOL0     H27793   9.742   9.859   1.846  3.3309 -0.5216  0.4545
  211MOL0     H27794   9.658   9.840   1.697  0.2277  1.0276 -1.6177
  211MOL0     H27795   9.831  10.079   1.776 -1.2355 -2.7078  2.7645
  211MOL0     H27796   9.759  10.066   1.610  1.2279 -2.2035 -0.7694
  211MOL0     H27797   9.620  10.201   1.786 -2.7886 -0.3860  0.6979
  211MOL0     H27798   9.615  10.051   1.868  0.5614  0.3666 -0.3891
  211MOL0     H27799   9.462   9.973   1.668 -1.0254 -0.3037 -0.4564
  211MOL0     H27800   9.499  10.127   1.595 -1.2872  2.0357  0.1732
  211MOL0     H27801   9.389  10.249   1.770 -1.4464  0.3239  0.7182
  211MOL0     H27802   9.285  10.124   1.692 -2.9203 -2.3376  2.1563
  211MOL0     H27803   9.242  10.171   1.947  2.5041  0.8740  1.3694
  211MOL0     H27804   9.394  10.096   1.986 -1.0217 -2.5049  0.7713
  211MOL0     H27805   9.438   9.833   1.897  0.3059 -2.9900 -0.4193
  211MOL0     H27806   9.184   9.556   1.884  1.9166 -1.7769  0.9791
  211MOL0     H27807   9.339   9.577   1.962 -1.6336 -0.1543  2.4744
  211MOL0     H27808   9.452   9.599   1.782  0.5986 -1.4018 -1.5254
  211MOL0     H27809   9.318   9.643   1.673 -0.8409  4.4164  2.5863
  211MOL0     H27810   9.304   9.374   1.811 -0.5024 -0.2570  0.7164
  211MOL0     H27811   9.232   9.419   1.656 -0.9285  5.2321  0.3907
  211MOL0     H27812   9.528   9.358   1.668 -2.5323  4.1722  4.1710
  211MOL0     H27813   9.452   9.449   1.553 -0.2073  2.7639  2.4852
  211MOL0     H27814   9.483   9.170   1.799  0.3320 -1.5852  2.4717
  211MOL0     H27815   9.435   8.960   1.894  3.0843  0.0510 -2.2468
  211MOL0     H27816   9.370   8.742   2.180  0.0800  2.3554 -4.4459
  211MOL0     H27817   9.460   8.544   2.290  1.1467  0.1997 -0.9164
  211MOL0     H27818   9.547   8.165   2.301  1.3669  1.4568 -0.0242
  211MOL0     H27819   9.608   8.307   2.214 -2.4565  2.7921 -1.2635
  211MOL0     H27820   9.579   8.214   1.984 -0.8356 -0.6561 -0.3660
  211MOL0     H27821   9.464   8.107   2.056  1.3237 -3.1205 -2.0691
  211MOL0     H27822   9.654   7.975   2.147  1.2419 -0.8212  0.0686
  211MOL0     H27823   9.770   8.100   2.082  0.2311  0.8905  0.6246
  211MOL0     H27824   9.581   7.916   1.929 -0.0734  1.1872  1.4371
  211MOL0     H27825   9.657   8.056   1.851  1.6289  0.8307 -0.2463
  211MOL0     H27826   9.890   7.968   1.943  1.7356  0.0293 -2.3285
  211MOL0     H27827   9.828   7.884   1.803  0.4813  2.4329 -0.2820
  211MOL0     H27828   9.772   7.685   1.932 -0.9556  1.3808 -0.1437
  211MOL0     H27829   9.750   7.776   2.085 -1.9556 -0.7581 -0.4813
  211MOL0     H27830  10.006   7.717   1.940 -0.0208 -4.0106  0.6095
  211MOL0     H27831   9.995   7.833   2.070 -2.4853  1.5922 -1.7698
  211MOL0     H27832  10.062   7.580   2.107  0.6760  1.6228 -0.7916
  211MOL0     H27833   9.891   7.555   2.128  2.4717 -2.9630 -4.4213
  211MOL0     H27834   9.311   8.309   1.969  3.2390 -1.8606  0.3721
  211MOL0     H27835   9.265   8.508   1.852  2.8345  2.4709 -0.5287
  211MOL0     H27836   9.134   8.877   1.601 -1.6904  0.5802  0.3654
  211MOL0     H27837   9.211   9.090   1.477  0.9869  1.7026  0.0043
  211MOL0     H27838   9.719   9.484   1.976 -0.6436 -1.2626  0.2976
  211MOL0     H27839   9.690   9.259   1.991 -1.2441  0.1481 -0.1459
  211MOL0     H27840   9.790   8.802   2.082 -3.2112 -1.9743  1.8717
  211MOL0     H27841   9.788   8.549   2.052  0.8482  1.5450  1.2920
  211MOL0     H27842   9.736   8.258   1.751  3.1719  1.0694 -0.0016
  211MOL0     H27843   9.723   8.390   1.634 -1.1760  2.7029  0.0868
  211MOL0     H27844   9.477   8.349   1.822 -0.3618  1.4980  0.5152
  211MOL0     H27845   9.499   8.436   1.666 -3.1609 -1.7877  0.3497
  211MOL0     H27846   9.565   8.140   1.644 -1.1449 -0.4107  0.0867
  211MOL0     H27847   9.514   8.264   1.533 -2.0732  0.3611 -0.2261
  211MOL0     H27848   9.326   8.116   1.570  1.4478 -0.6753  0.9297
  211MOL0     H27849   9.344   8.147   1.749  4.0891 -1.5957  0.8880
  211MOL0     H27850   9.142   8.484   1.576  0.4158  1.2670  0.2998
  211MOL0     H27851   9.615   8.606   1.669 -0.2283  2.7093 -1.2518
  211MOL0     H27852   9.628   8.852   1.702  0.7200  0.5139  0.3329
  212MOL0     O27853   2.500   8.829   5.084 -0.9932 -0.7274 -0.2470
  212MOL0     C27854   2.621   8.844   5.124 -0.1454 -0.3177 -1.0417
  212MOL0     O27855   2.658   8.943   5.218 -0.2640  0.1907 -0.5836
  212MOL0     C27856   2.605   9.062   5.243  0.5777  0.0908 -0.1783
  212MOL0     C27857   2.508   9.118   5.161  0.3846 -0.1635  1.3343
  212MOL0     C27858   2.435   9.226   5.192 -0.1826  0.5570  0.3609
  212MOL0     C27859   2.474   9.309   5.296 -0.5351 -0.2556  1.2853
  212MOL0     O27860   2.400   9.418   5.341  0.5609  0.4389  0.6588
  212MOL0     C27861   2.293   9.468   5.247 -0.3113  0.2233  0.2601
  212MOL0     C27862   2.142   9.431   5.269  0.5096 -0.3406  0.1139
  212MOL0     C27863   2.048   9.516   5.182  1.0353  0.2933  0.8741
  212MOL0     C27864   1.910   9.456   5.198  0.0319  0.6056 -0.0353
  212MOL0     C27865   1.811   9.521   5.111 -0.4008 -0.6768  0.0253
  212MOL0     C27866   1.822   9.473   4.965 -0.2595 -1.2745  0.0079
  212MOL0     C27867   1.723   9.569   4.889  0.1695  0.5811  0.1953
  212MOL0     C27868   1.668   9.514   4.750  0.0505  0.2501  0.4558
  212MOL0     N27869   1.750   9.569   4.638  0.0498  0.5489 -1.0161
  212MOL0     C27870   1.892   9.563   4.642 -0.3484  0.6479 -1.0493
  212MOL0     C27871   1.933   9.624   4.531 -0.2673 -0.4505 -0.9850
  212MOL0     C27872   2.070   9.611   4.469 -0.5040 -0.6069 -0.4578
  212MOL0     C27873   2.162   9.731   4.504  0.3735  0.3349 -0.5060
  212MOL0     C27874   2.299   9.712   4.443 -0.3868 -0.5464  0.7548
  212MOL0     C27875   2.383   9.840   4.480  1.1656  0.7380  0.1521
  212MOL0     O27876   2.336   9.955   4.410  0.0793  0.4675 -0.3335
  212MOL0     C27877   2.330  10.069   4.487 -0.2667  0.8271  0.4987
  212MOL0     C27878   2.204  10.115   4.529 -0.2133 -0.9438 -0.0240
  212MOL0     C27879   2.196  10.237   4.593  0.4327  0.7184 -0.0033
  212MOL0     C27880   2.305  10.320   4.617  0.0376  0.3163 -0.1993
  212MOL0     C27881   2.282  10.450   4.675 -0.4506  0.4971  0.4385
  212MOL0     O27882   2.375  10.555   4.643  0.0270 -0.0582  0.7316
  212MOL0     C27883   2.361  10.675   4.705 -0.2268  0.5469  0.7296
  212MOL0     C27884   2.275  10.761   4.653 -1.1165  0.7363 -0.1079
  212MOL0     C27885   2.247  10.887   4.697  0.0144  0.3005  0.8160
  212MOL0     C27886   2.314  10.935   4.809 -0.1416 -0.2776  0.5330
  212MOL0     O27887   2.304  11.062   4.862  0.9187  0.1848  0.2511
  212MOL0     C27888   2.218  11.148   4.787  1.0384 -0.0710 -0.2382
  212MOL0     C27889   2.159  11.263   4.877  0.0171 -0.2109 -0.5253
  212MOL0     C27890   2.254  11.366   4.937  0.1484 -0.0042  0.4220
  212MOL0     C27891   2.176  11.492   4.987  0.2453  0.1257  0.5392
  212MOL0     C27892   2.110  11.476   5.129  0.0793  0.1705 -0.4862
  212MOL0     C27893   2.008  11.581   5.163 -0.5145 -0.2263 -1.1674
  212MOL0     C27894   2.066  11.718   5.206  0.2397  0.2744 -0.1780
  212MOL0     C27895   2.011  11.848   5.130 -0.4031 -0.1211 -0.2406
  212MOL0    Cl27896   2.124  11.984   5.159 -0.1351 -0.4160 -0.3330
  212MOL0     C27897   2.403  10.852   4.869  0.2876  0.5194 -1.7335
  212MOL0     C27898   2.424  10.716   4.827 -0.1834 -0.2213 -0.0217
  212MOL0     O27899   2.182  10.468   4.742 -0.9757 -0.4948 -0.0606
  212MOL0     C27900   2.427  10.278   4.573  0.8349  0.0985  0.3312
  212MOL0     C27901   2.443  10.154   4.512 -0.4454  0.4726 -0.5634
  212MOL0     N27902   1.823   9.681   4.471  0.3062  0.7787  0.3812
  212MOL0     N27903   1.718   9.650   4.542 -0.4553 -0.2818 -0.3040
  212MOL0     C27904   2.580   9.270   5.374  0.5640  0.1267 -0.5699
  212MOL0     C27905   2.645   9.146   5.343 -0.5868 -0.8406  0.4049
  212MOL0     C27906   2.723   8.750   5.072  0.7704 -0.4729 -2.1201
  212MOL0     C27907   2.853   8.744   5.125 -0.2689 -0.1291 -0.0406
  212MOL0     C27908   2.937   8.645   5.090  0.5982 -0.7696 -0.3963
  212MOL0     C27909   2.903   8.546   4.997  0.4490  0.8132  0.2057
  212MOL0     O27910   2.987   8.440   4.964 -0.2217 -0.0329 -0.8588
  212MOL0     C27911   3.128   8.473   4.955  1.1146  0.4404  1.1344
  212MOL0     C27912   3.206   8.343   4.928 -0.2603 -0.3066  0.3971
  212MOL0     C27913   3.171   8.264   4.801 -0.2005 -0.5480 -0.9083
  212MOL0     C27914   3.193   8.334   4.667  0.6400  0.1318 -0.2003
  212MOL0     C27915   3.323   8.401   4.670 -0.9670 -0.1897 -0.0015
  212MOL0     C27916   3.435   8.451   4.672  0.7944  0.2053 -1.3555
  212MOL0     C27917   2.774   8.551   4.943 -0.4576  0.8695 -0.1789
  212MOL0     C27918   2.689   8.654   4.975  0.5562  0.0189  0.1413
  212MOL0     H27919   2.476   9.064   5.073  2.3745 -1.5408  1.4007
  212MOL0     H27920   2.342   9.241   5.138  0.6538 -0.2004 -1.3715
  212MOL0     H27921   2.321   9.460   5.141  0.5645  2.5089  0.2610
  212MOL0     H27922   2.285   9.575   5.268 -0.3226 -0.0813  1.9351
  212MOL0     H27923   2.108   9.437   5.372 -3.5276 -0.4007 -1.0445
  212MOL0     H27924   2.123   9.326   5.247 -0.2424 -0.5780  1.8186
  212MOL0     H27925   2.077   9.497   5.078 -2.3456  0.1277 -0.1391
  212MOL0     H27926   2.047   9.623   5.205  1.4207 -0.0831  2.8200
  212MOL0     H27927   1.915   9.348   5.179  1.3181  0.5226  0.6244
  212MOL0     H27928   1.877   9.477   5.300  1.7130  1.3893  0.3928
  212MOL0     H27929   1.807   9.630   5.101 -1.8970 -0.6542  0.5827
  212MOL0     H27930   1.711   9.495   5.146 -0.4924  1.1220  1.2236
  212MOL0     H27931   1.803   9.366   4.974 -1.1446 -1.6389 -4.0748
  212MOL0     H27932   1.922   9.492   4.925 -2.3051  1.0570 -4.8954
  212MOL0     H27933   1.638   9.586   4.955  0.4897  0.5171  0.6261
  212MOL0     H27934   1.761   9.669   4.868  1.9941 -0.2859 -0.7982
  212MOL0     H27935   1.566   9.550   4.739 -0.0262  0.1963  0.9413
  212MOL0     H27936   1.678   9.406   4.737  0.6800  0.4518 -0.9282
  212MOL0     H27937   1.953   9.499   4.705  0.8399 -1.2840 -3.9727
  212MOL0     H27938   2.056   9.604   4.361 -1.3184  0.2744 -0.4243
  212MOL0     H27939   2.112   9.520   4.513 -0.7279 -0.7014 -0.4343
  212MOL0     H27940   2.166   9.729   4.614 -1.7510 -2.5148 -0.3865
  212MOL0     H27941   2.110   9.824   4.479  3.0212  1.4413 -2.4447
  212MOL0     H27942   2.348   9.623   4.484  1.5416  0.1727  0.1037
  212MOL0     H27943   2.295   9.712   4.334  0.4479 -0.7303  0.7175
  212MOL0     H27944   2.487   9.809   4.467  2.1311  3.6181  0.2546
  212MOL0     H27945   2.365   9.856   4.587  1.5634  2.3830  0.0008
  212MOL0     H27946   2.111  10.062   4.519 -2.5245  2.5212  1.1687
  212MOL0     H27947   2.101  10.255   4.643  2.8072 -1.6378  6.4316
  212MOL0     H27948   2.231  10.734   4.558 -1.7306  0.1978  0.3266
  212MOL0     H27949   2.176  10.933   4.629 -0.7195 -2.6835 -0.6081
  212MOL0     H27950   2.133  11.089   4.750  0.6257  0.1059  0.4064
  212MOL0     H27951   2.263  11.199   4.702 -2.3767 -3.0850 -4.2749
  212MOL0     H27952   2.113  11.211   4.961 -1.4459 -0.8995 -1.7083
  212MOL0     H27953   2.084  11.309   4.812 -0.1065  3.1567  1.7046
  212MOL0     H27954   2.323  11.412   4.865  0.5344 -0.3838  0.5446
  212MOL0     H27955   2.328  11.330   5.009 -1.8706 -0.5366  2.3322
  212MOL0     H27956   2.256  11.566   4.998 -1.0360  1.6735 -0.1551
  212MOL0     H27957   2.106  11.522   4.909  1.0284 -3.5007 -1.7659
  212MOL0     H27958   2.181  11.465   5.212  0.4108 -3.8553 -1.1108
  212MOL0     H27959   2.048  11.386   5.131 -0.4908  0.5478 -0.8977
  212MOL0     H27960   1.971  11.534   5.254  1.7820 -0.2727 -0.1987
  212MOL0     H27961   1.931  11.591   5.085  1.6997  0.5339 -3.4050
  212MOL0     H27962   2.056  11.739   5.313 -3.5083  1.7671 -0.6624
  212MOL0     H27963   2.173  11.722   5.184 -0.0811 -1.4353 -2.3220
  212MOL0     H27964   1.910  11.870   5.165 -0.2366 -2.6571  2.2016
  212MOL0     H27965   2.009  11.827   5.023  1.6215  0.9017 -0.5412
  212MOL0     H27966   2.458  10.885   4.956 -0.8424  1.0262 -1.1970
  212MOL0     H27967   2.507  10.664   4.872  1.8164  3.1489  0.5436
  212MOL0     H27968   2.514  10.339   4.591  0.9317  0.0394  0.0691
  212MOL0     H27969   2.538  10.136   4.463 -0.0873  3.4823 -1.1529
  212MOL0     H27970   2.618   9.325   5.459  1.1370 -2.5251  1.0138
  212MOL0     H27971   2.730   9.121   5.406  0.1209  1.3953  0.4176
  212MOL0     H27972   2.883   8.821   5.194 -0.4766  1.0050 -1.1790
  212MOL0     H27973   3.040   8.649   5.126  0.5357  1.2214 -0.2869
  212MOL0     H27974   3.162   8.500   5.055 -0.0002 -1.1862  2.0081
  212MOL0     H27975   3.141   8.540   4.870 -1.0814  2.4272  2.2236
  212MOL0     H27976   3.314   8.362   4.929 -0.4257  0.6824  0.2650
  212MOL0     H27977   3.182   8.279   5.013 -1.4177  1.0096  1.1047
  212MOL0     H27978   3.069   8.228   4.819 -0.6879  0.5032 -1.4900
  212MOL0     H27979   3.237   8.179   4.786  0.0162 -0.2055 -2.0089
  212MOL0     H27980   3.184   8.255   4.592 -1.0636 -0.0663  0.1650
  212MOL0     H27981   3.107   8.399   4.648  0.9347  0.4956 -0.2974
  212MOL0     H27982   3.513   8.524   4.670 -0.1815  1.2683 -2.3361
  212MOL0     H27983   2.741   8.465   4.887  0.0617  1.0929 -0.8453
  212MOL0     H27984   2.592   8.650   4.925  0.8537 -3.0867 -0.3447
  213MOL0     O27985  11.238   3.395   5.737  0.4047 -0.5705 -0.0441
  213MOL0     C27986  11.194   3.497   5.796  0.4929  1.5433  0.5561
  213MOL0     O27987  11.242   3.625   5.771  0.7342 -0.0849 -0.0975
  213MOL0     C27988  11.347   3.648   5.691  0.7748  0.6159  0.0166
  213MOL0     C27989  11.471   3.581   5.715 -0.3956 -0.2608 -0.1979
  213MOL0     C27990  11.582   3.601   5.627 -0.2063 -1.6505 -0.1154
  213MOL0     C27991  11.570   3.680   5.513 -0.0746  0.0972 -0.0512
  213MOL0     O27992  11.677   3.709   5.434  0.0548  0.6976  0.0690
  213MOL0     C27993  11.785   3.617   5.402  0.9942  0.3585  0.3988
  213MOL0     C27994  11.863   3.654   5.271  0.1354 -1.0754 -0.4011
  213MOL0     C27995  11.939   3.778   5.302  0.0125  0.3731  0.1885
  213MOL0     C27996  12.047   3.810   5.187 -0.4482 -0.4115  0.0098
  213MOL0     C27997  12.009   3.917   5.087  0.3728  1.0357  0.0625
  213MOL0     C27998  12.118   3.934   4.976 -0.4138  0.8485  0.2320
  213MOL0     C27999  12.091   4.054   4.887  0.2334  0.1876  0.1842
  213MOL0     C28000  12.169   4.061   4.759  0.8920 -0.0048 -0.3523
  213MOL0     N28001  12.087   4.103   4.642 -0.1974 -0.5022 -0.8973
  213MOL0     C28002  12.019   4.028   4.559  1.1013 -0.8089 -0.2000
  213MOL0     C28003  11.976   4.104   4.455  0.0369 -0.1371  0.2140
  213MOL0     C28004  11.873   4.060   4.349 -0.0473 -1.2155  0.1398
  213MOL0     C28005  11.942   4.000   4.235 -0.4248  0.2125  0.7877
  213MOL0     C28006  12.005   3.860   4.262  0.1634  0.1487 -0.1004
  213MOL0     C28007  11.910   3.745   4.318 -0.4321  0.5273  0.7201
  213MOL0     O28008  11.869   3.660   4.218  0.1003 -0.6653 -0.1590
  213MOL0     C28009  11.766   3.694   4.132 -0.0325 -0.0799  0.4283
  213MOL0     C28010  11.649   3.748   4.183 -0.4379  0.1776  0.1493
  213MOL0     C28011  11.554   3.806   4.103  0.4111  0.9733 -0.2196
  213MOL0     C28012  11.567   3.795   3.960 -0.4942  1.0838 -0.5568
  213MOL0     C28013  11.468   3.853   3.870  1.3899 -0.2375  0.3528
  213MOL0     O28014  11.503   3.874   3.740 -0.4744  0.0792 -0.6389
  213MOL0     C28015  11.429   3.947   3.649 -0.0103  0.3935 -0.4083
  213MOL0     C28016  11.465   3.914   3.520  0.1262  0.1048 -1.1248
  213MOL0     C28017  11.389   3.954   3.411 -0.2697  0.4988 -0.0957
  213MOL0     C28018  11.278   4.046   3.431  0.5893 -0.1178 -0.5073
  213MOL0     O28019  11.193   4.087   3.329  0.9803  0.1077  0.4463
  213MOL0     C28020  11.158   3.988   3.228  0.1466 -0.5043  0.2238
  213MOL0     C28021  11.037   4.053   3.151 -0.1919  1.0265 -0.4360
  213MOL0     C28022  10.997   3.982   3.021 -1.1463 -0.5063  0.2047
  213MOL0     C28023  10.856   4.024   2.973 -0.2096  1.0259  0.6629
  213MOL0     C28024  10.839   3.985   2.824 -0.0107 -0.1215  0.1713
  213MOL0     C28025  10.690   3.996   2.783  0.5775 -0.2607  0.0932
  213MOL0     C28026  10.680   3.941   2.637  0.0741  0.3421 -0.2420
  213MOL0     C28027  10.745   4.036   2.541  0.2051 -0.1124 -0.0028
  213MOL0    Cl28028  10.679   4.016   2.379 -0.1113  0.3207  0.7189
  213MOL0     C28029  11.237   4.079   3.562 -0.9089  0.2512 -1.0042
  213MOL0     C28030  11.304   4.025   3.671  0.3847 -0.2410  0.0977
  213MOL0     O28031  11.359   3.895   3.920 -1.1018 -0.0888  0.0843
  213MOL0     C28032  11.683   3.732   3.905 -0.5478  0.4300  0.0532
  213MOL0     C28033  11.784   3.691   3.993  0.9433 -0.2479  0.0505
  213MOL0     N28034  12.024   4.231   4.473 -0.7617 -0.4978  0.3618
  213MOL0     N28035  12.095   4.231   4.586 -0.3614 -0.5894  0.4969
  213MOL0     C28036  11.449   3.750   5.493 -0.1138 -0.2599 -0.0909
  213MOL0     C28037  11.339   3.732   5.580 -0.2809  0.4933  0.4608
  213MOL0     C28038  11.083   3.477   5.888  0.9001  0.1739 -0.1770
  213MOL0     C28039  10.995   3.584   5.923 -0.1717  0.9723  0.2512
  213MOL0     C28040  10.900   3.560   6.014 -0.2809 -0.6500 -0.0769
  213MOL0     C28041  10.845   3.431   6.046 -0.1010  0.4290  0.4502
  213MOL0     O28042  10.715   3.421   6.101  1.1964 -0.6710 -0.0749
  213MOL0     C28043  10.663   3.297   6.148  1.2339  0.3040 -0.3227
  213MOL0     C28044  10.588   3.227   6.029  0.1577 -0.4952  0.8878
  213MOL0     C28045  10.475   3.319   5.972  0.1457 -0.1099  0.2404
  213MOL0     C28046  10.391   3.240   5.879  0.1374  0.2278 -0.3436
  213MOL0     C28047  10.459   3.219   5.755 -0.5498  0.5651  0.2520
  213MOL0     C28048  10.530   3.197   5.663  0.6150 -1.0505  0.5483
  213MOL0     C28049  10.921   3.315   6.004 -0.8037 -0.6746  1.1130
  213MOL0     C28050  11.051   3.342   5.934  0.1686 -0.0802 -0.0400
  213MOL0     H28051  11.485   3.510   5.796  0.2448  0.2761  0.1841
  213MOL0     H28052  11.680   3.591   5.674 -0.0658  1.3581  0.4469
  213MOL0     H28053  11.746   3.516   5.385 -1.0227  1.2213 -0.2867
  213MOL0     H28054  11.852   3.602   5.487  1.5817 -0.9228 -0.2442
  213MOL0     H28055  11.801   3.673   5.183 -0.2143  1.0256  0.2456
  213MOL0     H28056  11.929   3.569   5.252 -3.1829 -4.7689  2.5803
  213MOL0     H28057  12.001   3.750   5.387  0.4115 -0.4109 -0.3485
  213MOL0     H28058  11.883   3.871   5.319 -0.0152  0.5282 -0.7074
  213MOL0     H28059  12.146   3.840   5.222 -0.4448 -2.3234  1.8545
  213MOL0     H28060  12.063   3.724   5.122 -2.4876 -1.0414  0.2668
  213MOL0     H28061  11.980   4.007   5.143  0.6048 -0.1009  2.1339
  213MOL0     H28062  11.917   3.882   5.039 -0.2526  3.1206 -0.3656
  213MOL0     H28063  12.134   3.840   4.923 -0.0174  0.3435  1.2019
  213MOL0     H28064  12.208   3.958   5.035 -0.7662  0.4130  0.9692
  213MOL0     H28065  11.987   4.049   4.854 -0.5881 -2.4226  2.7174
  213MOL0     H28066  12.100   4.147   4.944 -2.7241  1.0733 -0.6320
  213MOL0     H28067  12.203   3.959   4.738 -1.0977 -0.8223  0.1922
  213MOL0     H28068  12.264   4.112   4.778  1.0039 -0.2744 -0.1824
  213MOL0     H28069  12.001   3.921   4.553  4.7080 -1.5254 -0.5909
  213MOL0     H28070  11.806   4.145   4.331 -1.1931 -1.9601  0.7971
  213MOL0     H28071  11.807   3.986   4.395  4.1156 -3.1852  3.7072
  213MOL0     H28072  12.012   4.069   4.187 -2.2214  0.7735 -1.2120
  213MOL0     H28073  11.872   3.980   4.153  1.4266 -2.8096 -0.1966
  213MOL0     H28074  12.058   3.826   4.172 -0.3481 -1.4494  0.1777
  213MOL0     H28075  12.089   3.876   4.330  1.8034 -1.4526 -1.6550
  213MOL0     H28076  11.830   3.785   4.382 -0.0577  1.0773  0.8580
  213MOL0     H28077  11.972   3.679   4.379  1.0046  0.9406 -0.2576
  213MOL0     H28078  11.625   3.757   4.289 -5.3926  1.3404 -0.7921
  213MOL0     H28079  11.468   3.860   4.141 -1.6360 -0.6827 -2.2089
  213MOL0     H28080  11.549   3.851   3.493  3.2163  1.4207  4.0653
  213MOL0     H28081  11.406   3.918   3.310 -6.4131  1.4528 -1.9242
  213MOL0     H28082  11.125   3.893   3.271 -4.3122  1.7471  2.5324
  213MOL0     H28083  11.246   3.987   3.163  0.8086 -2.7525  1.0842
  213MOL0     H28084  11.067   4.155   3.127 -0.4143  0.7256 -2.1035
  213MOL0     H28085  10.952   4.057   3.220 -1.2112  1.6163 -1.6755
  213MOL0     H28086  11.000   3.873   3.029 -3.4173 -0.8249 -1.9684
  213MOL0     H28087  11.075   4.005   2.948 -0.6671  1.9002  1.3782
  213MOL0     H28088  10.785   3.969   3.037 -2.8283  0.4386 -2.4877
  213MOL0     H28089  10.842   4.130   2.994 -0.9563  0.8036  1.3464
  213MOL0     H28090  10.878   3.883   2.820 -0.6061 -0.6668  4.1945
  213MOL0     H28091  10.892   4.052   2.756  0.6314  0.9115  1.6186
  213MOL0     H28092  10.650   4.098   2.783  0.0760 -0.4435  0.8784
  213MOL0     H28093  10.634   3.925   2.846 -0.2089  0.4126  0.1629
  213MOL0     H28094  10.730   3.844   2.628 -1.5859 -0.3623 -2.9672
  213MOL0     H28095  10.576   3.933   2.606 -0.3615 -0.3494  1.2841
  213MOL0     H28096  10.854   4.031   2.542  0.1865 -0.6338  1.2388
  213MOL0     H28097  10.719   4.140   2.562  1.1830 -0.2261  2.0409
  213MOL0     H28098  11.158   4.153   3.573 -2.0392  0.1162 -5.9336
  213MOL0     H28099  11.272   4.037   3.773  0.4255  0.9521 -0.0226
  213MOL0     H28100  11.701   3.712   3.800  0.9624 -2.3344  0.7194
  213MOL0     H28101  11.880   3.660   3.952 -0.0295  0.7917 -3.2787
  213MOL0     H28102  11.438   3.835   5.426 -0.9512 -0.9680 -0.8784
  213MOL0     H28103  11.249   3.790   5.564 -0.8537 -0.7640 -1.1659
  213MOL0     H28104  11.012   3.684   5.883 -3.5233  2.1112  1.3309
  213MOL0     H28105  10.839   3.643   6.047 -2.2139 -0.4810 -3.6429
  213MOL0     H28106  10.593   3.314   6.230  0.1309  0.2395 -1.2295
  213MOL0     H28107  10.736   3.225   6.186  0.2912 -1.3076 -1.4853
  213MOL0     H28108  10.658   3.206   5.948  1.0079  2.1759  0.8289
  213MOL0     H28109  10.567   3.126   6.063  1.1123 -0.7603  0.7335
  213MOL0     H28110  10.513   3.407   5.919  1.5290 -0.3182  0.8451
  213MOL0     H28111  10.418   3.338   6.063 -2.2040 -1.8035 -0.7794
  213MOL0     H28112  10.368   3.140   5.917 -0.0235  1.4323  3.0609
  213MOL0     H28113  10.298   3.297   5.869  0.4727  1.2259  1.6440
  213MOL0     H28114  10.594   3.183   5.577  0.0232 -0.4141  0.0020
  213MOL0     H28115  10.890   3.214   6.030 -0.7713 -1.2542 -0.9293
  213MOL0     H28116  11.112   3.254   5.919 -0.5382 -0.4557 -0.8427
  214MOL0     O28117   1.533  10.123  10.526  0.5107 -0.9897 -0.3991
  214MOL0     C28118   1.614  10.111  10.617 -0.4942  0.2492 -0.3759
  214MOL0     O28119   1.597  10.059  10.739 -0.3773 -0.2469 -0.2358
  214MOL0     C28120   1.468  10.045  10.777  0.6042  0.4236 -0.0937
  214MOL0     C28121   1.385   9.946  10.718 -0.1252 -0.8576 -0.7256
  214MOL0     C28122   1.267   9.904  10.782  0.1536 -0.7763 -0.5687
  214MOL0     C28123   1.217   9.973  10.895  0.2132 -0.3286  0.6925
  214MOL0     O28124   1.087   9.947  10.929 -0.0729  0.4523  0.2118
  214MOL0     C28125   1.011  10.039  11.001 -0.4422 -0.4213 -0.0384
  214MOL0     C28126   0.876   9.987  11.025  0.1597 -0.1529 -0.6308
  214MOL0     C28127   0.792   9.951  10.897 -0.8598 -0.2097  0.2838
  214MOL0     C28128   0.689   9.848  10.942 -0.2018 -0.5760  0.7505
  214MOL0     C28129   0.568   9.832  10.849  0.2550 -0.1555  0.9514
  214MOL0     C28130   0.498   9.705  10.875  0.3248  1.0583  0.3430
  214MOL0     C28131   0.372   9.699  10.786  0.6557 -0.0407  0.1371
  214MOL0     C28132   0.280   9.587  10.827  0.2440  0.6766  0.7168
  214MOL0     N28133   0.151   9.594  10.751 -0.4981  0.1423  0.9940
  214MOL0     C28134   0.045   9.657  10.813 -0.8539  0.5954  0.5636
  214MOL0     C28135  -0.045   9.701  10.720 -0.3363  0.0295 -0.5318
  214MOL0     C28136  -0.159   9.799  10.728  0.2458 -0.4201  0.7339
  214MOL0     C28137  -0.198   9.857  10.863  0.6228  0.5528  0.6546
  214MOL0     C28138  -0.305   9.768  10.923  0.0230  0.3131 -1.3091
  214MOL0     C28139  -0.259   9.705  11.062  0.7669 -0.5154 -0.0432
  214MOL0     O28140  -0.127   9.640  11.054  0.2377 -0.5457  0.0545
  214MOL0     C28141  -0.090   9.566  11.167  1.2748 -0.6607  1.4108
  214MOL0     C28142  -0.117   9.608  11.294 -0.4901  0.3819  0.3993
  214MOL0     C28143  -0.061   9.547  11.406 -0.6186  0.5400  0.2675
  214MOL0     C28144   0.028   9.438  11.384 -0.0654  0.0076 -0.3779
  214MOL0     C28145   0.098   9.373  11.504 -0.0651 -0.2746  0.1253
  214MOL0     O28146   0.188   9.286  11.474 -0.8648  0.0574  0.0772
  214MOL0     C28147   0.240   9.201  11.560 -1.0819  1.4086 -1.3466
  214MOL0     C28148   0.176   9.139  11.674 -0.3583 -1.0063 -0.0619
  214MOL0     C28149   0.241   9.057  11.759 -0.6587  0.5849 -0.2773
  214MOL0     C28150   0.377   9.017  11.734  0.9930 -0.1664 -0.4459
  214MOL0     O28151   0.445   8.929  11.809 -0.2176 -0.1364 -0.1937
  214MOL0     C28152   0.399   8.906  11.941  0.1018 -0.0944 -0.7372
  214MOL0     C28153   0.464   8.767  11.968 -0.4176 -0.1286 -0.2230
  214MOL0     C28154   0.445   8.716  12.115 -0.4243 -0.3403 -0.2062
  214MOL0     C28155   0.532   8.590  12.124  0.3012 -1.0672  0.3823
  214MOL0     C28156   0.527   8.535  12.268 -0.8379  0.3699  0.5430
  214MOL0     C28157   0.626   8.431  12.287 -0.6048  0.0581  0.1027
  214MOL0     C28158   0.594   8.358  12.424  0.6502  1.6877  0.2655
  214MOL0     C28159   0.643   8.414  12.559 -0.5578 -0.5500  0.4070
  214MOL0    Cl28160   0.713   8.286  12.659 -0.6729 -0.1717 -0.1161
  214MOL0     C28161   0.433   9.058  11.616 -0.4910 -0.5668 -0.3534
  214MOL0     C28162   0.367   9.163  11.537 -0.8018  0.2732  1.0218
  214MOL0     O28163   0.054   9.398  11.617  0.5312 -0.0664 -0.1920
  214MOL0     C28164   0.057   9.395  11.251  0.1311 -0.2226 -0.6668
  214MOL0     C28165  -0.007   9.463  11.139 -0.7777 -0.4155 -0.5314
  214MOL0     N28166   0.002   9.642  10.603 -0.4185  1.1825  0.1896
  214MOL0     N28167   0.122   9.594  10.615  0.0532  0.2020 -0.7571
  214MOL0     C28168   1.293  10.076  10.950 -0.4346  0.3310  0.2032
  214MOL0     C28169   1.425  10.101  10.898 -0.1372 -0.5750 -0.1961
  214MOL0     C28170   1.755  10.147  10.597  0.6962 -0.7493 -0.3889
  214MOL0     C28171   1.834  10.214  10.696 -0.0842  0.0663 -0.6609
  214MOL0     C28172   1.970  10.236  10.677  0.2084 -0.2079  0.2635
  214MOL0     C28173   2.030  10.213  10.550 -0.8524 -1.0264  0.4147
  214MOL0     O28174   2.158  10.256  10.517  0.4414 -0.0645  0.8196
  214MOL0     C28175   2.258  10.214  10.602 -0.2315 -0.4907 -0.0183
  214MOL0     C28176   2.394  10.276  10.545  0.7783  0.1145 -0.6104
  214MOL0     C28177   2.507  10.262  10.642  0.0072 -0.1304  0.5330
  214MOL0     C28178   2.508  10.359  10.758  0.1493  0.4636  0.6787
  214MOL0     C28179   2.517  10.504  10.722 -0.0745  0.0825 -0.2922
  214MOL0     C28180   2.548  10.618  10.698  0.0527  0.6190  0.2005
  214MOL0     C28181   1.952  10.147  10.453  0.2818 -0.5793 -0.1083
  214MOL0     C28182   1.819  10.117  10.476  0.4645  0.1272  0.2466
  214MOL0     H28183   1.421   9.884  10.637 -0.0430  2.7460 -3.6972
  214MOL0     H28184   1.208   9.825  10.736  0.4566 -2.3604  1.5745
  214MOL0     H28185   1.016  10.131  10.943  2.1698 -0.1752  0.4504
  214MOL0     H28186   1.060  10.061  11.096 -0.7907  1.4058 -0.2499
  214MOL0     H28187   0.817  10.052  11.089  2.1515  1.1203 -0.0101
  214MOL0     H28188   0.899   9.889  11.068  2.6416  0.9607  0.8033
  214MOL0     H28189   0.855   9.910  10.818 -0.4056  3.0261 -1.1750
  214MOL0     H28190   0.732  10.034  10.860 -0.1089 -0.4346 -1.5174
  214MOL0     H28191   0.751   9.758  10.952  1.7300  0.6478  0.3599
  214MOL0     H28192   0.650   9.868  11.042 -1.8490 -0.1267  0.0568
  214MOL0     H28193   0.596   9.830  10.743 -2.5604  1.3496  0.0795
  214MOL0     H28194   0.502   9.918  10.864  0.3209  0.7394 -2.8375
  214MOL0     H28195   0.477   9.726  10.981  0.2366  0.8427  0.3690
  214MOL0     H28196   0.566   9.622  10.852 -0.2623  1.3768 -3.0327
  214MOL0     H28197   0.310   9.789  10.794  1.0360  0.5182 -2.5218
  214MOL0     H28198   0.408   9.684  10.684 -0.8430  1.7287 -0.7129
  214MOL0     H28199   0.265   9.589  10.935 -3.3902 -2.1593  0.4656
  214MOL0     H28200   0.319   9.489  10.796 -2.6336  0.2391 -1.9581
  214MOL0     H28201   0.056   9.674  10.920  0.3111  2.2181  0.2201
  214MOL0     H28202  -0.246   9.757  10.677  0.7658  1.3776 -1.8392
  214MOL0     H28203  -0.131   9.882  10.661  0.2235 -0.2931  0.8832
  214MOL0     H28204  -0.234   9.961  10.867  1.0848  0.7520 -0.1892
  214MOL0     H28205  -0.101   9.854  10.913  1.6626 -2.3431 -1.2764
  214MOL0     H28206  -0.399   9.824  10.925 -1.0010 -1.3185  1.0481
  214MOL0     H28207  -0.323   9.681  10.860  0.5406 -1.1352  0.4760
  214MOL0     H28208  -0.335   9.638  11.102  0.6108  0.1991  0.9010
  214MOL0     H28209  -0.258   9.785  11.137 -1.4410 -0.2609 -0.2346
  214MOL0     H28210  -0.192   9.682  11.320 -3.4250 -2.7390  1.5570
  214MOL0     H28211  -0.074   9.583  11.507  3.5755 -0.7193  1.4565
  214MOL0     H28212   0.070   9.160  11.684 -0.4333 -0.7417 -1.2141
  214MOL0     H28213   0.181   9.020  11.842  1.3975  0.6365  1.3167
  214MOL0     H28214   0.293   8.887  11.958 -0.8561  3.4787 -1.7625
  214MOL0     H28215   0.442   8.989  11.997 -1.0457  0.6293 -0.8866
  214MOL0     H28216   0.569   8.763  11.936 -0.2228 -0.4606  0.4354
  214MOL0     H28217   0.411   8.690  11.911 -1.7277  0.4002  0.2533
  214MOL0     H28218   0.338   8.697  12.132 -0.8440  1.4603 -0.6485
  214MOL0     H28219   0.474   8.794  12.186  1.6506  1.9699 -3.3532
  214MOL0     H28220   0.487   8.504  12.075 -4.5838  0.7972  1.0142
  214MOL0     H28221   0.633   8.610  12.089  0.6080  0.3675  1.9079
  214MOL0     H28222   0.428   8.496  12.290 -0.6796  0.6125  1.7479
  214MOL0     H28223   0.542   8.615  12.341  1.5935  0.8693 -0.4044
  214MOL0     H28224   0.726   8.474  12.278 -1.4866  2.5748  1.4577
  214MOL0     H28225   0.595   8.361  12.208 -3.1144 -0.1415  1.1900
  214MOL0     H28226   0.487   8.339  12.428  0.6942 -0.5936 -3.7487
  214MOL0     H28227   0.628   8.254  12.420 -0.5450  1.1865  1.9854
  214MOL0     H28228   0.551   8.452  12.605 -0.7225 -1.0434  0.4981
  214MOL0     H28229   0.721   8.488  12.539  0.3509 -1.1365  1.6678
  214MOL0     H28230   0.529   9.025  11.579 -1.1030  0.0131 -2.5708
  214MOL0     H28231   0.415   9.197  11.446 -0.9143 -0.0228  0.8515
  214MOL0     H28232   0.133   9.322  11.226  1.2604  0.9957 -0.9103
  214MOL0     H28233   0.020   9.434  11.037  0.6491  0.4547 -0.4364
  214MOL0     H28234   1.255  10.130  11.037  3.7395  2.7802  0.8143
  214MOL0     H28235   1.480  10.178  10.950 -1.3010 -0.9675  1.7070
  214MOL0     H28236   1.789  10.238  10.791  1.3124 -0.0809  0.0701
  214MOL0     H28237   2.035  10.269  10.757 -0.6479 -1.2874  1.4375
  214MOL0     H28238   2.264  10.104  10.597 -0.0642 -0.4471 -0.8125
  214MOL0     H28239   2.254  10.254  10.704  0.5962 -0.7748  0.1365
  214MOL0     H28240   2.424  10.223  10.454 -0.4945 -1.5383 -0.1218
  214MOL0     H28241   2.382  10.381  10.514  0.6289 -0.1632 -1.5248
  214MOL0     H28242   2.599  10.263  10.584 -0.4289 -1.0599 -0.2105
  214MOL0     H28243   2.501  10.157  10.673  0.5465 -0.2372  0.2727
  214MOL0     H28244   2.421  10.336  10.820  0.5570 -3.7908 -0.0051
  214MOL0     H28245   2.596  10.337  10.819  0.3080 -3.1451 -0.6062
  214MOL0     H28246   2.578  10.719  10.681 -2.2283  1.4336  0.6470
  214MOL0     H28247   1.995  10.149  10.353 -1.6204 -2.3222 -1.0464
  214MOL0     H28248   1.775  10.064  10.393  2.2160 -0.7353 -0.1686
  215MOL0     O28249   6.440   5.559   7.134  0.3906 -0.3715  0.3151
  215MOL0     C28250   6.460   5.587   7.254 -0.2231 -0.2215  0.5363
  215MOL0     O28251   6.590   5.598   7.308  0.0928 -0.4311 -0.6253
  215MOL0     C28252   6.688   5.565   7.228 -0.3885  0.0720  0.0098
  215MOL0     C28253   6.791   5.661   7.205  0.7681 -0.7262 -0.7126
  215MOL0     C28254   6.922   5.618   7.163  0.9137  0.7213 -0.2375
  215MOL0     C28255   6.935   5.491   7.106  0.8585  0.1356 -0.0269
  215MOL0     O28256   7.048   5.446   7.055 -0.2175  0.3633  0.0748
  215MOL0     C28257   7.133   5.538   6.978  0.0352 -0.4295  0.2822
  215MOL0     C28258   7.252   5.456   6.916 -0.3735 -0.5660 -0.1998
  215MOL0     C28259   7.341   5.542   6.825 -0.1118 -0.5098  0.1036
  215MOL0     C28260   7.430   5.437   6.750  0.8797 -0.1714  0.3927
  215MOL0     C28261   7.529   5.513   6.657 -0.1580  0.5124 -0.0860
  215MOL0     C28262   7.603   5.423   6.554  0.4056  0.7882  0.6105
  215MOL0     C28263   7.698   5.477   6.448 -0.2262 -0.1314  0.2746
  215MOL0     C28264   7.829   5.546   6.509  1.1765 -0.0011 -0.8458
  215MOL0     N28265   7.911   5.455   6.593  0.1415  0.4223 -1.0624
  215MOL0     C28266   8.011   5.377   6.547 -0.0691 -0.4505  0.1833
  215MOL0     C28267   8.079   5.335   6.653  0.0345  0.7729  0.7409
  215MOL0     C28268   8.194   5.245   6.643 -0.1048  0.2147 -0.1697
  215MOL0     C28269   8.330   5.297   6.593  0.0960 -0.7364  0.3949
  215MOL0     C28270   8.386   5.393   6.685  0.3341  0.1822  0.0596
  215MOL0     C28271   8.482   5.314   6.779 -0.3302  0.2778 -0.1444
  215MOL0     O28272   8.619   5.303   6.717  1.2150 -0.1005 -0.6011
  215MOL0     C28273   8.710   5.250   6.802  0.3130  0.2933 -0.0500
  215MOL0     C28274   8.845   5.283   6.775 -1.2018  0.8159 -0.2688
  215MOL0     C28275   8.954   5.220   6.852  0.2039  0.1651  0.0895
  215MOL0     C28276   8.916   5.121   6.955  0.7203  0.3387 -0.3206
  215MOL0     C28277   9.019   5.054   7.034 -0.7397  0.6546  0.8311
  215MOL0     O28278   9.145   5.096   7.022 -0.1050 -0.5750  0.3305
  215MOL0     C28279   9.245   5.046   7.102  0.0359 -0.4449 -0.4469
  215MOL0     C28280   9.266   5.098   7.234  0.3321  0.0742  0.8664
  215MOL0     C28281   9.348   5.033   7.327  1.2765 -0.4740  0.5525
  215MOL0     C28282   9.408   4.914   7.290  0.4595 -0.3583  0.4695
  215MOL0     O28283   9.486   4.849   7.387 -0.4562  0.5730  0.0967
  215MOL0     C28284   9.528   4.920   7.510  1.0698 -0.3058 -0.4680
  215MOL0     C28285   9.647   4.851   7.573 -0.6135 -0.7289  0.4587
  215MOL0     C28286   9.678   4.923   7.699  0.2455 -1.2632  0.0981
  215MOL0     C28287   9.756   4.841   7.798 -0.3766  0.3585 -0.1499
  215MOL0     C28288   9.772   4.913   7.935 -0.2314  0.5290  0.0848
  215MOL0     C28289   9.832   5.047   7.939  0.2756 -0.9700 -0.6708
  215MOL0     C28290   9.820   5.111   8.082 -0.6140  0.7903  0.4067
  215MOL0     C28291   9.872   5.021   8.194  0.7311 -0.2511 -0.2869
  215MOL0    Cl28292  10.041   4.971   8.180 -0.2322  0.5221  0.0905
  215MOL0     C28293   9.402   4.867   7.162  0.7119  0.5559  0.3035
  215MOL0     C28294   9.317   4.925   7.066  0.1971  0.6840  0.2882
  215MOL0     O28295   8.977   4.986   7.122  0.7663  0.4394 -0.3192
  215MOL0     C28296   8.778   5.100   6.974  0.2155 -0.0510 -0.3773
  215MOL0     C28297   8.685   5.161   6.900  0.6169 -0.1081  0.5451
  215MOL0     N28298   8.013   5.383   6.767  0.3138 -0.0607  0.1286
  215MOL0     N28299   7.910   5.450   6.728  0.5925 -0.0968 -0.1767
  215MOL0     C28300   6.822   5.402   7.107  0.4314 -0.2514  0.6895
  215MOL0     C28301   6.703   5.437   7.171 -0.0561  1.3774  0.3011
  215MOL0     C28302   6.344   5.613   7.338  1.0460  0.4971 -0.3349
  215MOL0     C28303   6.212   5.620   7.289 -0.0157 -0.4270  0.5463
  215MOL0     C28304   6.102   5.639   7.373 -0.3798  0.0256 -0.1850
  215MOL0     C28305   6.120   5.658   7.515  0.0510  0.8151 -0.2899
  215MOL0     O28306   6.008   5.689   7.591  0.0003 -0.3236 -0.0824
  215MOL0     C28307   6.003   5.824   7.643 -0.1623 -0.2126  0.2473
  215MOL0     C28308   5.968   5.919   7.525 -0.1885 -0.5498 -0.3794
  215MOL0     C28309   5.823   5.905   7.453 -0.9573  1.3036 -0.7237
  215MOL0     C28310   5.829   5.951   7.304 -0.3887  0.2839 -0.6472
  215MOL0     C28311   5.867   6.091   7.290 -0.2304  0.1014  0.0980
  215MOL0     C28312   5.901   6.203   7.263 -0.1854  0.7336  0.3969
  215MOL0     C28313   6.247   5.650   7.566  0.5323  0.7679  0.0120
  215MOL0     C28314   6.359   5.625   7.475  0.0635  0.0557 -0.0131
  215MOL0     H28315   6.782   5.766   7.233 -2.4119 -0.3982 -2.5616
  215MOL0     H28316   7.002   5.692   7.158  2.1027 -0.5983 -1.4797
  215MOL0     H28317   7.195   5.605   7.039  1.4208 -0.4135 -1.0691
  215MOL0     H28318   7.079   5.589   6.897  0.7409 -1.0656 -0.6219
  215MOL0     H28319   7.209   5.374   6.858 -1.1635  0.3932 -1.0259
  215MOL0     H28320   7.311   5.418   7.000 -2.7121 -1.2746  1.2157
  215MOL0     H28321   7.394   5.619   6.881 -0.1757  0.7783 -1.5290
  215MOL0     H28322   7.287   5.590   6.743  2.4964  0.5696 -1.0923
  215MOL0     H28323   7.471   5.366   6.822 -1.4053 -0.4273  1.5100
  215MOL0     H28324   7.373   5.382   6.674  4.2976 -0.9340 -1.8997
  215MOL0     H28325   7.603   5.560   6.722 -0.1088  0.5958 -0.2021
  215MOL0     H28326   7.471   5.585   6.599 -3.3389 -1.0409  0.9094
  215MOL0     H28327   7.524   5.374   6.496  4.9582 -1.9053 -4.0693
  215MOL0     H28328   7.651   5.344   6.611  1.3978  1.4863  0.7613
  215MOL0     H28329   7.728   5.401   6.375 -1.8879  0.5933 -1.2519
  215MOL0     H28330   7.653   5.559   6.392 -0.7064  3.0361  4.7378
  215MOL0     H28331   7.799   5.630   6.572 -0.2686  0.2907 -1.8993
  215MOL0     H28332   7.874   5.604   6.428  1.0084  1.7315  0.2550
  215MOL0     H28333   8.037   5.356   6.444  1.8389  0.4546  0.4260
  215MOL0     H28334   8.171   5.161   6.577  2.0493 -0.9591  0.4693
  215MOL0     H28335   8.213   5.195   6.739  0.1388 -1.4492 -1.0440
  215MOL0     H28336   8.322   5.342   6.494  2.2606 -1.6693 -0.2722
  215MOL0     H28337   8.400   5.213   6.582  3.0023  1.2846  2.0618
  215MOL0     H28338   8.461   5.446   6.625  0.6819  1.4649  1.5633
  215MOL0     H28339   8.322   5.467   6.733  1.6582  0.2596  1.8062
  215MOL0     H28340   8.441   5.223   6.822 -3.1287  1.1242 -0.7822
  215MOL0     H28341   8.500   5.365   6.874 -1.7240 -2.5467  1.7554
  215MOL0     H28342   8.869   5.356   6.697 -0.1796 -0.6516 -1.3945
  215MOL0     H28343   9.060   5.239   6.843  0.2640  0.7027  1.5652
  215MOL0     H28344   9.203   5.184   7.255 -3.1300 -1.6494 -1.5140
  215MOL0     H28345   9.350   5.070   7.429  1.9170  0.2421  0.2837
  215MOL0     H28346   9.435   4.908   7.567  0.0004  2.2575 -1.4847
  215MOL0     H28347   9.547   5.025   7.487 -1.0116 -0.0451 -1.2779
  215MOL0     H28348   9.737   4.851   7.510 -0.9886  1.1021 -0.1494
  215MOL0     H28349   9.620   4.746   7.587  0.6557 -1.7166 -3.1957
  215MOL0     H28350   9.593   4.955   7.759  1.4121  0.1366  1.0877
  215MOL0     H28351   9.727   5.017   7.673 -0.5667 -1.1069 -0.9355
  215MOL0     H28352   9.716   4.740   7.812 -3.5354  1.8662  3.3728
  215MOL0     H28353   9.857   4.825   7.761 -0.8795  0.1542 -1.4803
  215MOL0     H28354   9.832   4.851   8.003 -1.7780  3.1624  4.1988
  215MOL0     H28355   9.671   4.928   7.973 -0.6684  0.1645 -0.8839
  215MOL0     H28356   9.792   5.122   7.871  1.5378  2.2132  1.8260
  215MOL0     H28357   9.937   5.042   7.908  1.2598 -6.2823  2.2039
  215MOL0     H28358   9.883   5.201   8.085  0.0327  0.5082 -2.1074
  215MOL0     H28359   9.716   5.127   8.112 -0.5883  0.3007  0.7768
  215MOL0     H28360   9.810   4.931   8.203  1.1695 -0.5212  0.0958
  215MOL0     H28361   9.855   5.070   8.290 -0.2148 -0.7260 -0.2035
  215MOL0     H28362   9.455   4.776   7.134 -2.1355 -0.5875 -1.8837
  215MOL0     H28363   9.313   4.886   6.965 -0.0771 -3.4512  1.6830
  215MOL0     H28364   8.748   5.039   7.059  1.1100 -1.2485 -0.8938
  215MOL0     H28365   8.585   5.126   6.921  0.1514 -1.4347 -3.1713
  215MOL0     H28366   6.829   5.300   7.072  0.6274  0.2879 -0.8877
  215MOL0     H28367   6.619   5.370   7.182  0.1684  0.8809 -0.8760
  215MOL0     H28368   6.197   5.621   7.182 -0.8392 -0.9788  0.6484
  215MOL0     H28369   6.005   5.654   7.325 -1.1917  1.8175  1.8337
  215MOL0     H28370   6.095   5.859   7.691  0.6836  3.5094 -3.5134
  215MOL0     H28371   5.920   5.830   7.713  0.5301  1.7700  0.9455
  215MOL0     H28372   5.979   6.024   7.553 -1.8725 -0.8570  1.6759
  215MOL0     H28373   6.036   5.884   7.447 -2.8447  1.7709 -4.1215
  215MOL0     H28374   5.761   5.963   7.522 -0.3771 -1.6476  2.5901
  215MOL0     H28375   5.781   5.804   7.459  0.0910  0.9097  0.4542
  215MOL0     H28376   5.897   5.891   7.244 -1.1966 -0.5774 -0.7272
  215MOL0     H28377   5.730   5.943   7.257 -0.1517 -3.1697 -0.7787
  215MOL0     H28378   5.912   6.303   7.224  1.0448  0.5361  0.2067
  215MOL0     H28379   6.260   5.670   7.672  1.8869  0.1500 -0.0272
  215MOL0     H28380   6.459   5.630   7.517  0.4670  2.7737 -1.1300
  216MOL0     O28381   8.364  10.491   1.145 -0.3106 -0.6195  0.7264
  216MOL0     C28382   8.466  10.546   1.193  0.5053 -0.2328  0.1164
  216MOL0     O28383   8.578  10.487   1.220  0.5909  0.1449 -0.2892
  216MOL0     C28384   8.578  10.350   1.228 -0.3195  0.3248  0.0986
  216MOL0     C28385   8.667  10.287   1.136 -0.3015 -0.0458  0.3046
  216MOL0     C28386   8.690  10.157   1.151 -0.0599  0.9091 -0.3119
  216MOL0     C28387   8.636  10.077   1.258 -0.3449  0.2952 -1.3009
  216MOL0     O28388   8.685   9.950   1.266 -0.2116 -0.3011  0.0764
  216MOL0     C28389   8.655   9.881   1.390  0.2172 -0.3990 -0.2160
  216MOL0     C28390   8.524   9.809   1.397  1.0416  1.6708 -0.7506
  216MOL0     C28391   8.506   9.702   1.298 -0.0853  1.1299  0.8580
  216MOL0     C28392   8.612   9.587   1.283  0.0816 -0.5037  0.3111
  216MOL0     C28393   8.534   9.451   1.249 -0.7283 -0.0178 -0.2751
  216MOL0     C28394   8.629   9.336   1.223  0.6551 -0.2335  0.1102
  216MOL0     C28395   8.554   9.208   1.196 -1.1145  0.4318 -0.2264
  216MOL0     C28396   8.660   9.089   1.183 -0.2240  0.8664 -0.7787
  216MOL0     N28397   8.731   9.051   1.304 -0.7022 -0.0790 -0.3447
  216MOL0     C28398   8.686   8.971   1.406 -0.4815  0.1436  0.3267
  216MOL0     C28399   8.785   8.971   1.505 -0.3365 -0.2985  0.9369
  216MOL0     C28400   8.784   8.918   1.644  0.3418  0.1390 -0.2349
  216MOL0     C28401   8.791   8.764   1.639  1.0802 -0.2248  0.9702
  216MOL0     C28402   8.851   8.709   1.773 -0.4702  0.3981  0.9776
  216MOL0     C28403   8.844   8.555   1.776 -0.0278 -0.5259  1.0345
  216MOL0     O28404   8.907   8.509   1.894 -0.1711 -0.9146  0.7011
  216MOL0     C28405   8.955   8.378   1.901 -0.7769  1.3156 -0.0165
  216MOL0     C28406   9.015   8.331   2.014 -1.0324 -0.7788 -0.1228
  216MOL0     C28407   9.075   8.203   2.031  0.2934 -0.4212 -0.2197
  216MOL0     C28408   9.071   8.113   1.921  0.0979 -0.6607  0.0052
  216MOL0     C28409   9.124   7.980   1.926 -0.5423 -0.2619 -0.3154
  216MOL0     O28410   9.165   7.924   2.043  1.0897 -0.1933 -0.7938
  216MOL0     C28411   9.210   7.801   2.071 -0.3997  0.6284 -0.6311
  216MOL0     C28412   9.304   7.780   2.177  0.1613 -0.1852 -0.1512
  216MOL0     C28413   9.349   7.651   2.209 -0.2749 -0.0702  0.1221
  216MOL0     C28414   9.307   7.542   2.134  0.9734  1.2530 -0.0908
  216MOL0     O28415   9.357   7.418   2.157 -0.1585 -0.5778 -0.0708
  216MOL0     C28416   9.273   7.345   2.241 -0.8326 -0.7655 -0.3963
  216MOL0     C28417   9.339   7.222   2.296 -0.4123 -0.9205 -0.3612
  216MOL0     C28418   9.429   7.265   2.422  0.1713  0.8577  0.1263
  216MOL0     C28419   9.552   7.369   2.400 -0.9840 -0.2713 -0.2994
  216MOL0     C28420   9.673   7.351   2.484 -1.4227  0.8985  0.0676
  216MOL0     C28421   9.642   7.362   2.630  0.3943 -1.1884 -0.1310
  216MOL0     C28422   9.577   7.497   2.664  0.3603 -0.0788 -0.6437
  216MOL0     C28423   9.598   7.542   2.807  0.3001 -0.7477 -0.3415
  216MOL0    Cl28424   9.571   7.414   2.930 -0.3740 -0.2761  0.4363
  216MOL0     C28425   9.211   7.554   2.029 -0.0533  0.3618 -0.4754
  216MOL0     C28426   9.166   7.683   2.006 -0.1943 -0.2707 -0.2712
  216MOL0     O28427   9.121   7.921   1.810  0.9384  0.4267 -0.5123
  216MOL0     C28428   8.997   8.158   1.804  0.4685  0.1982  0.9620
  216MOL0     C28429   8.940   8.289   1.792  0.5109 -0.0480 -1.1112
  216MOL0     N28430   8.887   9.052   1.456  0.4454  0.1271  0.4660
  216MOL0     N28431   8.858   9.093   1.334  0.6978 -0.3679  0.1680
  216MOL0     C28432   8.541  10.143   1.340  0.2607 -0.3314 -0.7348
  216MOL0     C28433   8.519  10.279   1.330  0.5879 -0.5970  0.4656
  216MOL0     C28434   8.468  10.693   1.179 -0.3877 -0.4314 -0.4288
  216MOL0     C28435   8.555  10.776   1.257 -1.3218 -0.3894  0.2238
  216MOL0     C28436   8.544  10.916   1.274 -0.5792 -0.0068  0.7155
  216MOL0     C28437   8.445  10.983   1.200 -0.7556  0.0743  0.4067
  216MOL0     O28438   8.406  11.117   1.217  0.1648  0.6039  0.3078
  216MOL0     C28439   8.473  11.209   1.299 -0.6775  0.3736  0.0387
  216MOL0     C28440   8.577  11.278   1.213 -0.1811  0.1465  0.4970
  216MOL0     C28441   8.663  11.384   1.288 -0.2787 -0.4565 -0.1805
  216MOL0     C28442   8.782  11.442   1.218  0.4561 -0.1586  0.0577
  216MOL0     C28443   8.854  11.532   1.308 -0.0666 -1.2173 -0.1254
  216MOL0     C28444   8.920  11.612   1.365  1.5744 -0.3332 -0.0350
  216MOL0     C28445   8.368  10.912   1.112  0.3643 -0.8700 -0.0190
  216MOL0     C28446   8.377  10.771   1.108 -0.4160  0.0253  0.3634
  216MOL0     H28447   8.724  10.345   1.064  1.8646  1.8198  3.3289
  216MOL0     H28448   8.764  10.107   1.090 -1.0028 -1.2377  0.2022
  216MOL0     H28449   8.658   9.941   1.482 -1.6840 -2.1753  1.0920
  216MOL0     H28450   8.734   9.808   1.406 -1.3975 -1.9434  1.1624
  216MOL0     H28451   8.445   9.881   1.373 -2.2622 -1.8736 -1.5109
  216MOL0     H28452   8.519   9.771   1.499 -0.2656  0.1302 -1.3543
  216MOL0     H28453   8.504   9.757   1.203  2.1721  2.3139  1.4185
  216MOL0     H28454   8.409   9.659   1.324  0.6935  0.1355  2.2412
  216MOL0     H28455   8.677   9.602   1.196  1.1335  1.0820  1.3200
  216MOL0     H28456   8.674   9.580   1.373 -0.5759 -2.4419  0.6531
  216MOL0     H28457   8.479   9.473   1.157 -2.2699 -0.8419  0.4074
  216MOL0     H28458   8.460   9.425   1.325 -0.2347 -1.8493 -0.3798
  216MOL0     H28459   8.697   9.323   1.308  0.5284  0.8488  0.3894
  216MOL0     H28460   8.697   9.363   1.142  1.1964  0.8068  0.8887
  216MOL0     H28461   8.486   9.173   1.274 -3.6563  0.6574 -2.1855
  216MOL0     H28462   8.493   9.214   1.105  0.2860 -3.1027 -1.5748
  216MOL0     H28463   8.731   9.117   1.105  0.5007  0.7899 -0.1577
  216MOL0     H28464   8.608   9.003   1.140  1.4857 -0.8550  0.4173
  216MOL0     H28465   8.594   8.913   1.418 -0.8204  1.1607  3.6682
  216MOL0     H28466   8.685   8.931   1.690 -0.0567 -1.0343 -0.7303
  216MOL0     H28467   8.862   8.961   1.708  2.9341 -3.6503 -0.5092
  216MOL0     H28468   8.846   8.736   1.549 -0.4336  1.4028 -0.5280
  216MOL0     H28469   8.688   8.730   1.622  1.2335  0.8414 -3.1039
  216MOL0     H28470   8.954   8.742   1.790  0.9858 -2.0701 -2.0342
  216MOL0     H28471   8.793   8.744   1.859  1.2045  1.1914  1.8511
  216MOL0     H28472   8.906   8.539   1.687 -2.0342 -2.0376 -0.1947
  216MOL0     H28473   8.743   8.512   1.771 -0.1318 -0.2769  0.9695
  216MOL0     H28474   9.022   8.405   2.092 -2.2170 -0.9012  0.1274
  216MOL0     H28475   9.128   8.176   2.122 -1.6324 -0.5400  0.9285
  216MOL0     H28476   9.323   7.867   2.239 -3.9739  0.2576  0.7783
  216MOL0     H28477   9.428   7.648   2.285 -0.7639 -0.0974  0.6338
  216MOL0     H28478   9.193   7.306   2.177 -0.7614 -0.5151 -0.6443
  216MOL0     H28479   9.223   7.420   2.303 -0.8535 -0.2242 -1.0555
  216MOL0     H28480   9.400   7.170   2.222  4.2556  0.6990  1.9419
  216MOL0     H28481   9.264   7.146   2.320 -1.2095 -1.7159 -4.6245
  216MOL0     H28482   9.458   7.170   2.468 -3.8319 -1.5240 -1.6875
  216MOL0     H28483   9.364   7.321   2.490  1.2642 -0.3413  2.2629
  216MOL0     H28484   9.577   7.344   2.296  1.5939 -3.2366  0.8355
  216MOL0     H28485   9.513   7.469   2.381  0.7382  1.1581  2.8356
  216MOL0     H28486   9.761   7.413   2.464  0.1012 -1.1874 -0.1028
  216MOL0     H28487   9.706   7.246   2.479  0.5702  1.2895  2.7656
  216MOL0     H28488   9.741   7.362   2.677  0.8792 -2.8740 -1.0919
  216MOL0     H28489   9.576   7.276   2.647 -0.2344 -1.4428 -3.2208
  216MOL0     H28490   9.613   7.579   2.602 -2.3723  2.0178  0.3383
  216MOL0     H28491   9.468   7.498   2.648  0.0428  0.6236  1.2472
  216MOL0     H28492   9.534   7.629   2.824  3.6131  1.7824  0.3845
  216MOL0     H28493   9.701   7.581   2.812  0.2123 -0.5874  0.2508
  216MOL0     H28494   9.174   7.462   1.986 -0.8516  0.0667  0.7867
  216MOL0     H28495   9.086   7.702   1.936 -1.9696  0.8134  1.9277
  216MOL0     H28496   9.005   8.094   1.717  1.5340 -3.1260  3.3046
  216MOL0     H28497   8.883   8.317   1.704 -0.7205  0.4452 -0.1897
  216MOL0     H28498   8.489  10.092   1.420  2.7169  1.9348  2.5927
  216MOL0     H28499   8.454  10.332   1.400 -1.5899 -0.0727 -1.7999
  216MOL0     H28500   8.625  10.726   1.324  0.5873  2.3339  0.4302
  216MOL0     H28501   8.604  10.966   1.349  2.6676 -2.1761 -0.2431
  216MOL0     H28502   8.523  11.160   1.383 -2.7912  0.8715  1.6551
  216MOL0     H28503   8.402  11.275   1.350 -1.9153 -2.9834  3.0351
  216MOL0     H28504   8.644  11.202   1.172 -0.0600  1.5707 -2.1594
  216MOL0     H28505   8.535  11.322   1.122 -2.7709  0.3438  1.7100
  216MOL0     H28506   8.705  11.356   1.385  0.2271  3.5411  0.9318
  216MOL0     H28507   8.596  11.464   1.321  0.2717 -0.9155  2.2913
  216MOL0     H28508   8.852  11.369   1.177 -0.6168 -0.7674 -0.7385
  216MOL0     H28509   8.774  11.512   1.134  1.8658 -1.6421 -1.4045
  216MOL0     H28510   8.976  11.699   1.393  2.3253 -1.2858  1.5710
  216MOL0     H28511   8.291  10.967   1.058  0.5938  0.5111  1.0160
  216MOL0     H28512   8.303  10.714   1.053 -0.7513 -1.6426  2.4081
  217MOL0     O28513   9.656   9.700   6.503 -0.6341  0.8514 -0.5429
  217MOL0     C28514   9.594   9.799   6.534  0.3756 -0.4614  1.0024
  217MOL0     O28515   9.629   9.929   6.504 -0.9918  0.0089  0.4256
  217MOL0     C28516   9.752   9.948   6.441 -0.6042 -0.9433 -1.1045
  217MOL0     C28517   9.874   9.919   6.519  1.1663 -0.4680  0.4028
  217MOL0     C28518   9.989   9.935   6.467 -0.3918  0.6019 -0.5843
  217MOL0     C28519  10.004   9.994   6.339  1.4572  1.1202 -0.4324
  217MOL0     O28520  10.124  10.038   6.294 -0.2031  0.3919 -0.2702
  217MOL0     C28521  10.229   9.941   6.278 -0.1882  1.8894  0.4344
  217MOL0     C28522  10.285   9.928   6.137 -0.3431 -0.8254 -0.6050
  217MOL0     C28523  10.376   9.814   6.095  0.1661  0.0194 -1.0724
  217MOL0     C28524  10.436   9.845   5.957  0.5966  0.6800  1.2044
  217MOL0     C28525  10.527   9.738   5.892  0.2341 -0.2360  0.2896
  217MOL0     C28526  10.568   9.799   5.756 -0.1289  0.8730  0.3845
  217MOL0     C28527  10.699   9.727   5.700  0.1758 -0.9078  0.5012
  217MOL0     C28528  10.699   9.573   5.695  0.0166 -0.6140 -0.0615
  217MOL0     N28529  10.585   9.525   5.614 -0.1442 -0.6350  0.3831
  217MOL0     C28530  10.561   9.546   5.481  0.5760 -1.5524  0.7201
  217MOL0     C28531  10.425   9.517   5.455  0.0980  0.0293  0.6846
  217MOL0     C28532  10.353   9.526   5.320 -0.8970  0.2470 -1.2524
  217MOL0     C28533  10.213   9.579   5.322 -0.4335  0.5454  0.1761
  217MOL0     C28534  10.106   9.489   5.389  0.2174 -0.2497 -0.4848
  217MOL0     C28535   9.968   9.568   5.405 -0.1429 -0.6518  0.9206
  217MOL0     O28536   9.866   9.483   5.470 -0.0045 -0.0114  0.1701
  217MOL0     C28537   9.738   9.532   5.481 -0.3552 -0.1595 -1.0583
  217MOL0     C28538   9.684   9.657   5.438 -0.5664 -1.0102 -0.0421
  217MOL0     C28539   9.552   9.697   5.463 -0.1009 -0.9988  0.2929
  217MOL0     C28540   9.455   9.613   5.529 -0.2232 -0.3197  1.6580
  217MOL0     C28541   9.313   9.651   5.545  0.4588 -0.2764 -0.0251
  217MOL0     O28542   9.287   9.781   5.537 -0.6477  0.6669 -0.5958
  217MOL0     C28543   9.189   9.825   5.624 -0.8717  0.0823 -0.6626
  217MOL0     C28544   9.197   9.817   5.763  0.7889  0.5256  0.7637
  217MOL0     C28545   9.105   9.874   5.850  0.1642 -0.5117 -0.1628
  217MOL0     C28546   8.997   9.945   5.794 -0.1549  0.2011  0.3005
  217MOL0     O28547   8.890   9.999   5.866 -0.4901  0.7895 -0.1641
  217MOL0     C28548   8.904  10.015   6.009 -0.1875  0.3896 -0.5260
  217MOL0     C28549   8.864   9.883   6.066 -0.2302 -0.2862 -0.3283
  217MOL0     C28550   8.805   9.903   6.205  0.0131 -0.2031  0.5203
  217MOL0     C28551   8.728   9.793   6.263 -0.0163 -0.2260  0.7588
  217MOL0     C28552   8.818   9.665   6.255  0.0929  0.7555 -0.0955
  217MOL0     C28553   8.758   9.532   6.312  0.6628 -0.1978  0.1252
  217MOL0     C28554   8.835   9.402   6.294 -0.2116  0.7629  0.0523
  217MOL0     C28555   8.970   9.411   6.381  0.0056 -0.1712  1.1462
  217MOL0    Cl28556   8.985   9.281   6.490 -0.3343  0.3529  0.6695
  217MOL0     C28557   8.996   9.965   5.660 -0.3139  0.4059 -0.3523
  217MOL0     C28558   9.087   9.901   5.576 -0.4372  0.5996  0.0279
  217MOL0     O28559   9.225   9.564   5.565  0.0105 -0.3047  0.4448
  217MOL0     C28560   9.505   9.489   5.574 -0.8913 -0.3181  0.4788
  217MOL0     C28561   9.642   9.456   5.550 -0.3920 -0.8728 -0.3825
  217MOL0     N28562  10.368   9.496   5.580 -0.3275  0.0118  0.4010
  217MOL0     N28563  10.462   9.497   5.664 -0.2828 -0.7529  1.0944
  217MOL0     C28564   9.900  10.000   6.248 -0.0289 -0.2603  0.3846
  217MOL0     C28565   9.766   9.990   6.301 -0.9203 -0.3640 -0.1216
  217MOL0     C28566   9.466   9.783   6.604 -0.1908  0.1311  0.0226
  217MOL0     C28567   9.400   9.657   6.606  0.3959 -0.3968 -1.8491
  217MOL0     C28568   9.273   9.653   6.658  0.1408  0.4158  0.7722
  217MOL0     C28569   9.209   9.760   6.719 -0.7559 -0.4909 -0.4818
  217MOL0     O28570   9.075   9.761   6.779 -0.0047  0.2893  0.5265
  217MOL0     C28571   8.979   9.662   6.767 -0.3903  0.2520  0.1664
  217MOL0     C28572   8.842   9.724   6.811 -0.1169  0.2745 -0.3852
  217MOL0     C28573   8.807   9.840   6.707 -0.2895 -1.0333  1.1367
  217MOL0     C28574   8.658   9.860   6.679 -0.2891  1.0649  0.2908
  217MOL0     C28575   8.574   9.866   6.798 -0.5060 -0.6742  0.2802
  217MOL0     C28576   8.492   9.849   6.881 -0.0598 -0.4779  0.5372
  217MOL0     C28577   9.277   9.884   6.714  0.0497  0.7197  0.6751
  217MOL0     C28578   9.406   9.891   6.665  0.4805  0.1291  0.0592
  217MOL0     H28579   9.859   9.886   6.621  2.1357 -1.5507  0.2068
  217MOL0     H28580  10.083   9.919   6.519  0.4194  0.2081 -2.1135
  217MOL0     H28581  10.192   9.852   6.328  1.6752  1.5593  1.3248
  217MOL0     H28582  10.319   9.970   6.335  0.9523  0.7092 -0.7027
  217MOL0     H28583  10.342  10.019   6.115  0.5582 -0.6717  2.0958
  217MOL0     H28584  10.204   9.928   6.063  0.1964 -2.4426 -1.2404
  217MOL0     H28585  10.313   9.725   6.088  1.0016 -0.5383 -1.7380
  217MOL0     H28586  10.457   9.795   6.167 -1.5884  0.7202  1.2023
  217MOL0     H28587  10.359   9.870   5.884  1.0751  2.3511  1.2159
  217MOL0     H28588  10.490   9.940   5.967  0.3176  1.1706 -1.2627
  217MOL0     H28589  10.480   9.640   5.875  1.3696 -0.9273  1.0280
  217MOL0     H28590  10.613   9.710   5.953  1.1586 -1.9246 -1.6508
  217MOL0     H28591  10.600   9.903   5.760 -0.1847  0.9191 -0.2669
  217MOL0     H28592  10.481   9.784   5.691  1.0485 -0.8763 -0.9070
  217MOL0     H28593  10.728   9.760   5.600 -1.4853 -2.5428 -0.5962
  217MOL0     H28594  10.779   9.757   5.768  0.4434 -0.4949  0.0133
  217MOL0     H28595  10.701   9.535   5.797  1.4748 -0.1287  0.1150
  217MOL0     H28596  10.787   9.548   5.635 -1.1307 -1.3817 -1.4926
  217MOL0     H28597  10.625   9.571   5.398  0.3161 -2.1886  0.3205
  217MOL0     H28598  10.350   9.422   5.288  4.8691 -1.1233  1.3813
  217MOL0     H28599  10.422   9.577   5.253 -0.6154 -1.2115 -2.1006
  217MOL0     H28600  10.172   9.605   5.224 -1.5002 -0.3163  0.3814
  217MOL0     H28601  10.216   9.678   5.370  1.1078  0.3785  0.4904
  217MOL0     H28602  10.086   9.390   5.345 -1.2859 -0.9133  1.5053
  217MOL0     H28603  10.139   9.471   5.491  1.2450  1.4381 -0.4934
  217MOL0     H28604   9.935   9.604   5.307  2.4290  0.6218  0.4277
  217MOL0     H28605   9.991   9.657   5.464  0.9804  0.4689 -1.1020
  217MOL0     H28606   9.750   9.716   5.377 -1.1339 -0.2310  0.0879
  217MOL0     H28607   9.525   9.797   5.430 -0.9534 -0.9657  1.0431
  217MOL0     H28608   9.286   9.773   5.807  1.9663  1.6987 -0.3710
  217MOL0     H28609   9.121   9.859   5.956  4.4244  0.7439 -0.4225
  217MOL0     H28610   8.829  10.087   6.044  0.9230  2.0620 -1.4356
  217MOL0     H28611   9.001  10.041   6.052 -0.1780 -0.2582 -0.1427
  217MOL0     H28612   8.958   9.826   6.070  0.3738  0.7064  0.3816
  217MOL0     H28613   8.789   9.834   6.004  1.6077 -0.4488 -2.5555
  217MOL0     H28614   8.740   9.991   6.207  0.2094  0.1895 -3.5695
  217MOL0     H28615   8.887   9.919   6.276  1.4402  3.9035 -1.7503
  217MOL0     H28616   8.704   9.810   6.368  0.2819 -2.7999  1.3034
  217MOL0     H28617   8.635   9.788   6.206  1.1462  0.8120 -1.3863
  217MOL0     H28618   8.910   9.680   6.312 -1.2014 -1.2025  2.7422
  217MOL0     H28619   8.842   9.642   6.151  0.9714 -2.5694  0.7091
  217MOL0     H28620   8.662   9.524   6.260  0.3558 -0.9094  0.7812
  217MOL0     H28621   8.729   9.540   6.418 -0.0368  2.1445 -0.1932
  217MOL0     H28622   8.790   9.309   6.331  1.0349  0.6651  1.4206
  217MOL0     H28623   8.873   9.380   6.194  1.6929 -2.2991  1.3002
  217MOL0     H28624   8.968   9.509   6.431 -3.3568  0.3778  0.2289
  217MOL0     H28625   9.050   9.426   6.309 -0.4408  2.4030  1.1007
  217MOL0     H28626   8.921  10.029   5.615 -2.0772 -0.0085  1.8253
  217MOL0     H28627   9.081   9.924   5.470  1.8595  0.1294 -0.2652
  217MOL0     H28628   9.436   9.425   5.628 -1.3029  0.7987  1.3371
  217MOL0     H28629   9.668   9.364   5.600  0.6514 -1.0770 -1.2652
  217MOL0     H28630   9.912  10.039   6.147 -0.3903 -0.9103  0.0852
  217MOL0     H28631   9.683  10.021   6.239  1.1208  0.6601 -2.5177
  217MOL0     H28632   9.440   9.563   6.567  0.4425 -0.5999 -1.3176
  217MOL0     H28633   9.211   9.565   6.672  0.2515  0.1819 -0.1596
  217MOL0     H28634   9.029   9.586   6.829  0.2417 -0.1218 -0.7772
  217MOL0     H28635   8.969   9.611   6.671 -0.8129  1.0275 -0.2030
  217MOL0     H28636   8.763   9.649   6.822  2.8824 -3.3916 -1.4963
  217MOL0     H28637   8.842   9.771   6.909 -1.8948  1.8280 -1.0727
  217MOL0     H28638   8.834   9.823   6.602  0.4959  1.9057  0.7715
  217MOL0     H28639   8.859   9.930   6.741  0.5527 -1.2754  0.5112
  217MOL0     H28640   8.630   9.940   6.610 -0.0297 -0.1623 -1.2990
  217MOL0     H28641   8.633   9.771   6.621 -2.3714  0.3306  2.1738
  217MOL0     H28642   8.420   9.843   6.959  2.5553 -0.0861  3.1746
  217MOL0     H28643   9.239   9.978   6.754  1.5426  1.7421 -0.2115
  217MOL0     H28644   9.448   9.989   6.645 -2.7683  2.0499  1.9013
  218MOL0     O28645   5.787   2.173  11.356  0.0872  1.2382 -0.8507
  218MOL0     C28646   5.789   2.167  11.236 -0.3751 -0.5081 -0.0738
  218MOL0     O28647   5.722   2.258  11.152  0.9340  0.2363  0.2720
  218MOL0     C28648   5.638   2.360  11.194 -0.1715  0.2335 -0.4270
  218MOL0     C28649   5.567   2.343  11.312 -0.0234 -0.8562 -0.4862
  218MOL0     C28650   5.482   2.443  11.359 -0.2432  0.8265 -0.2090
  218MOL0     C28651   5.464   2.556  11.289 -1.1567 -0.9694  0.0523
  218MOL0     O28652   5.378   2.652  11.338 -0.3799 -0.7011 -0.3686
  218MOL0     C28653   5.236   2.640  11.306 -0.2878 -0.3182 -0.9200
  218MOL0     C28654   5.170   2.772  11.329  0.1168 -0.0995  0.4284
  218MOL0     C28655   5.234   2.887  11.242 -0.8244 -0.1059 -0.3399
  218MOL0     C28656   5.178   3.023  11.287 -1.0536  0.1257 -0.1088
  218MOL0     C28657   5.263   3.135  11.226 -0.1686 -0.1797 -0.2568
  218MOL0     C28658   5.408   3.141  11.266 -0.3734  0.6262  0.1878
  218MOL0     C28659   5.464   3.283  11.257 -0.2145 -0.1509 -0.2541
  218MOL0     C28660   5.585   3.287  11.357  0.0280  0.0336 -0.2473
  218MOL0     N28661   5.694   3.207  11.312 -0.4326  0.6276 -0.8007
  218MOL0     C28662   5.724   3.091  11.377  0.1941 -0.0506  1.0106
  218MOL0     C28663   5.833   3.047  11.321 -0.2545  0.6535 -0.1523
  218MOL0     C28664   5.891   2.906  11.336  0.7885  0.1707 -0.8538
  218MOL0     C28665   5.956   2.839  11.213  0.7861 -0.5703 -0.6303
  218MOL0     C28666   5.850   2.774  11.118  0.2949 -0.3295 -0.1197
  218MOL0     C28667   5.770   2.874  11.033 -0.4578 -0.0152 -0.0656
  218MOL0     O28668   5.697   2.815  10.926  0.5166 -0.6612 -1.0463
  218MOL0     C28669   5.746   2.777  10.804  0.1514  0.0433 -0.3239
  218MOL0     C28670   5.884   2.784  10.772 -0.4853  0.8118 -0.1147
  218MOL0     C28671   5.925   2.736  10.650  0.7235  0.4612 -0.5781
  218MOL0     C28672   5.834   2.662  10.569 -0.1717  0.7781 -0.9827
  218MOL0     C28673   5.885   2.589  10.450  0.4957  0.3883 -0.0801
  218MOL0     O28674   5.784   2.527  10.373 -0.1912  0.3688  0.1479
  218MOL0     C28675   5.809   2.491  10.241 -0.3815  0.1335 -0.2706
  218MOL0     C28676   5.843   2.356  10.213  0.1054 -0.5669 -0.1132
  218MOL0     C28677   5.838   2.318  10.078 -0.2145  0.8162 -0.8982
  218MOL0     C28678   5.816   2.420   9.980  0.0085  0.0001  0.2009
  218MOL0     O28679   5.812   2.373   9.847 -0.2886 -0.1109 -0.7734
  218MOL0     C28680   5.839   2.464   9.739 -0.5118  0.2964 -0.3966
  218MOL0     C28681   5.985   2.505   9.752  0.4031 -1.0525  0.7853
  218MOL0     C28682   6.049   2.542   9.613 -0.6722  0.4883  0.2012
  218MOL0     C28683   6.197   2.569   9.630 -0.4664 -0.0908  0.1490
  218MOL0     C28684   6.244   2.698   9.563  0.5867  0.1658  0.3035
  218MOL0     C28685   6.213   2.828   9.642 -0.4705  0.3726  0.5501
  218MOL0     C28686   6.303   2.829   9.771  0.5429  0.3575  0.5779
  218MOL0     C28687   6.257   2.943   9.853 -0.5724 -0.4604 -0.3279
  218MOL0    Cl28688   6.107   2.878   9.942 -0.3252  0.3527 -0.6983
  218MOL0     C28689   5.792   2.552  10.014 -0.2298 -0.1054 -0.3555
  218MOL0     C28690   5.784   2.584  10.148 -0.5313  0.4662 -0.1348
  218MOL0     O28691   6.006   2.594  10.422  0.7333  0.0772 -0.8304
  218MOL0     C28692   5.694   2.653  10.603  0.1534 -0.2094 -0.5688
  218MOL0     C28693   5.657   2.723  10.715  0.9924  0.3258  0.5142
  218MOL0     N28694   5.882   3.131  11.220 -0.5044  0.1731  0.3040
  218MOL0     N28695   5.798   3.234  11.226 -0.8332 -0.2103 -1.2858
  218MOL0     C28696   5.523   2.574  11.164  0.2481 -0.3418  0.2743
  218MOL0     C28697   5.615   2.476  11.120  0.2935  0.1047  0.3273
  218MOL0     C28698   5.871   2.055  11.183 -0.4912  0.3470  0.9013
  218MOL0     C28699   5.876   2.038  11.042 -0.7761 -0.0582 -0.2920
  218MOL0     C28700   5.939   1.936  10.974  0.4143 -0.9324 -1.4199
  218MOL0     C28701   5.998   1.833  11.051 -0.4834 -0.4738 -0.6221
  218MOL0     O28702   6.062   1.725  10.999  0.6503  0.1520  0.4144
  218MOL0     C28703   5.984   1.657  10.896 -0.4850  0.3445  0.1892
  218MOL0     C28704   6.051   1.526  10.872 -0.2528  0.6619 -0.9462
  218MOL0     C28705   6.044   1.436  10.996 -0.4491  0.0653  0.5580
  218MOL0     C28706   5.919   1.351  10.991  0.4787  0.3921 -1.1361
  218MOL0     C28707   5.920   1.266  11.114 -1.0557  0.2457  1.5022
  218MOL0     C28708   5.918   1.190  11.210  0.4137  0.1680  0.7944
  218MOL0     C28709   6.007   1.851  11.189  0.1648 -0.2733 -1.4930
  218MOL0     C28710   5.951   1.964  11.256  0.1999  1.0546  0.1953
  218MOL0     H28711   5.559   2.249  11.366  0.2177 -1.0664 -0.8152
  218MOL0     H28712   5.419   2.428  11.446 -1.8096  1.8654 -1.1096
  218MOL0     H28713   5.184   2.570  11.372 -1.2829  1.4420  0.2309
  218MOL0     H28714   5.225   2.617  11.199  2.6329 -0.6996 -1.2169
  218MOL0     H28715   5.153   2.804  11.432  3.2182  1.1391  0.6537
  218MOL0     H28716   5.068   2.754  11.293 -0.5461 -1.6497  2.8604
  218MOL0     H28717   5.206   2.875  11.137  0.8587 -1.3126 -0.6924
  218MOL0     H28718   5.342   2.871  11.236 -1.2753 -3.9722 -0.2148
  218MOL0     H28719   5.074   3.019  11.251 -0.4929 -0.1860 -1.7728
  218MOL0     H28720   5.182   3.019  11.397  0.2766 -1.4933 -0.1875
  218MOL0     H28721   5.197   3.221  11.241 -3.0242 -1.2251 -4.7163
  218MOL0     H28722   5.269   3.130  11.117 -1.0913  2.7934 -0.5176
  218MOL0     H28723   5.461   3.068  11.205 -1.1224  1.5531 -1.6692
  218MOL0     H28724   5.419   3.117  11.372 -2.0623  3.6340  1.1807
  218MOL0     H28725   5.501   3.315  11.159  0.3516 -0.9800 -0.3250
  218MOL0     H28726   5.385   3.353  11.282 -0.6089 -0.2738 -1.1108
  218MOL0     H28727   5.563   3.251  11.458  2.8059  1.3167  0.9203
  218MOL0     H28728   5.614   3.392  11.365 -0.3523  0.0179  1.7512
  218MOL0     H28729   5.664   3.030  11.444  2.2840 -4.6930 -0.9144
  218MOL0     H28730   5.800   2.852  11.366  0.8038  1.7188  2.5134
  218MOL0     H28731   5.957   2.896  11.422  1.5948  1.3061 -1.3230
  218MOL0     H28732   6.019   2.756  11.246  0.4108 -1.0831 -1.1873
  218MOL0     H28733   6.006   2.914  11.151  2.3956 -0.9024  0.2122
  218MOL0     H28734   5.903   2.706  11.050 -0.8886 -0.2976 -1.0936
  218MOL0     H28735   5.781   2.709  11.173  3.0477 -1.2105  2.6615
  218MOL0     H28736   5.833   2.957  11.000 -0.2508  0.7595  2.1174
  218MOL0     H28737   5.694   2.922  11.096  1.2357 -1.3184  3.1962
  218MOL0     H28738   5.960   2.826  10.837  0.4241 -3.4681  1.9363
  218MOL0     H28739   6.030   2.749  10.626  0.4614  3.1037 -0.5935
  218MOL0     H28740   5.847   2.284  10.293  0.2810 -1.5970 -1.0335
  218MOL0     H28741   5.849   2.211  10.069 -1.4236  0.6077 -0.1349
  218MOL0     H28742   5.777   2.554   9.746  0.1593  1.0517 -2.9958
  218MOL0     H28743   5.811   2.434   9.637  0.5592  2.2303 -1.3302
  218MOL0     H28744   6.040   2.420   9.793  3.2698  1.0285  1.6134
  218MOL0     H28745   5.991   2.584   9.827 -2.5900  0.8486 -0.8053
  218MOL0     H28746   6.009   2.634   9.569  0.9438  2.1554  2.0116
  218MOL0     H28747   6.043   2.461   9.540  5.3270  0.6120 -0.9963
  218MOL0     H28748   6.233   2.547   9.730  0.2563 -2.2749 -0.5382
  218MOL0     H28749   6.251   2.494   9.571 -0.5440 -1.0315  1.2593
  218MOL0     H28750   6.208   2.705   9.460 -0.3653  0.3918  0.6381
  218MOL0     H28751   6.353   2.691   9.551  0.4212  0.1702 -1.3503
  218MOL0     H28752   6.108   2.843   9.669 -0.5658 -0.4480  0.6873
  218MOL0     H28753   6.243   2.918   9.588  1.2256 -1.4342 -1.7078
  218MOL0     H28754   6.296   2.737   9.829  0.7665 -1.1474 -1.6773
  218MOL0     H28755   6.410   2.831   9.745  0.3456 -3.7144 -1.2344
  218MOL0     H28756   6.241   3.031   9.791  0.3774 -0.6639 -0.8812
  218MOL0     H28757   6.330   2.975   9.927 -1.1223  3.1327 -1.1511
  218MOL0     H28758   5.782   2.621   9.931 -1.2899 -3.3758 -3.2238
  218MOL0     H28759   5.762   2.686  10.177  0.0266  0.5334  0.0753
  218MOL0     H28760   5.620   2.593  10.551  0.3355  1.1698 -2.5229
  218MOL0     H28761   5.551   2.733  10.732  1.0753  1.0917  0.6296
  218MOL0     H28762   5.499   2.643  11.084 -0.6879 -2.0553 -0.9938
  218MOL0     H28763   5.678   2.486  11.031 -0.5601 -0.7259 -0.3899
  218MOL0     H28764   5.814   2.102  10.981 -1.1693  2.2650  2.3396
  218MOL0     H28765   5.948   1.935  10.866 -3.0451 -0.3534 -1.8368
  218MOL0     H28766   5.986   1.705  10.798  0.8541 -0.9189 -0.4526
  218MOL0     H28767   5.881   1.643  10.930 -1.3528  3.5864 -0.7526
  218MOL0     H28768   6.000   1.476  10.789  2.6796 -2.7095 -0.9518
  218MOL0     H28769   6.151   1.544  10.833  0.4540  0.4594  0.6952
  218MOL0     H28770   6.050   1.492  11.090  2.2236 -1.5591  1.4689
  218MOL0     H28771   6.126   1.364  10.988 -2.3624 -2.0238 -1.5518
  218MOL0     H28772   5.825   1.406  11.003  0.0282 -0.7950  1.6528
  218MOL0     H28773   5.901   1.296  10.899  0.1995  0.1102 -0.9181
  218MOL0     H28774   5.905   1.125  11.295  2.2731  0.9372  1.7303
  218MOL0     H28775   6.073   1.791  11.251 -0.7688 -1.6344 -1.7639
  218MOL0     H28776   5.978   1.981  11.360  3.5554 -3.2907  0.3246
  219MOL0     O28777   0.597   8.656   7.861  0.6162  0.4135 -0.8732
  219MOL0     C28778   0.626   8.570   7.949  1.2637  0.1357  0.5288
  219MOL0     O28779   0.543   8.461   7.980  0.0244 -1.1397 -0.5413
  219MOL0     C28780   0.422   8.439   7.915  0.3652  0.3609 -1.0931
  219MOL0     C28781   0.338   8.545   7.881 -0.9570 -0.3131 -0.0520
  219MOL0     C28782   0.211   8.521   7.826 -0.1871 -0.2687  0.1235
  219MOL0     C28783   0.169   8.392   7.792 -0.3566  0.4062 -0.1524
  219MOL0     O28784   0.052   8.378   7.718 -1.0959 -0.0695 -0.4878
  219MOL0     C28785  -0.064   8.380   7.795  0.2644  0.7924  0.2208
  219MOL0     C28786  -0.169   8.438   7.708 -0.2139  0.9909  0.9120
  219MOL0     C28787  -0.307   8.372   7.738  0.9892  0.5383 -0.1420
  219MOL0     C28788  -0.402   8.365   7.617  0.6043 -0.1855  0.4205
  219MOL0     C28789  -0.547   8.322   7.643  0.1153  0.5251  0.3814
  219MOL0     C28790  -0.554   8.180   7.706 -0.7844  0.5048  0.0372
  219MOL0     C28791  -0.697   8.122   7.710  0.7638  0.7195  0.3191
  219MOL0     C28792  -0.693   7.980   7.785  0.1671 -0.3418  0.1151
  219MOL0     N28793  -0.820   7.925   7.795 -0.8488  0.0727  0.1842
  219MOL0     C28794  -0.909   7.861   7.705 -0.3645 -1.1180 -0.3634
  219MOL0     C28795  -1.010   7.816   7.778  0.0654  0.0516  0.8144
  219MOL0     C28796  -1.122   7.733   7.717 -0.3086 -0.5386 -0.7216
  219MOL0     C28797  -1.163   7.619   7.819 -0.7730  0.0256 -0.1702
  219MOL0     C28798  -1.249   7.514   7.744  0.3220  0.3520 -0.5810
  219MOL0     C28799  -1.391   7.575   7.709 -0.3508  0.1837 -0.8174
  219MOL0     O28800  -1.471   7.487   7.625 -0.4098 -0.2054 -0.0956
  219MOL0     C28801  -1.588   7.536   7.559  0.2269  0.0850  0.4505
  219MOL0     C28802  -1.648   7.668   7.568  0.1030  0.6222  0.2585
  219MOL0     C28803  -1.766   7.713   7.511 -0.2396  0.8997  0.2532
  219MOL0     C28804  -1.817   7.619   7.418  0.2918  0.3889 -0.0790
  219MOL0     C28805  -1.934   7.651   7.328 -0.1054  0.1002 -0.3366
  219MOL0     O28806  -1.987   7.558   7.250  0.5918  0.2896  0.8498
  219MOL0     C28807  -2.114   7.571   7.196 -1.0106  0.2735 -0.5884
  219MOL0     C28808  -2.132   7.613   7.069 -0.7196 -0.3941 -0.3110
  219MOL0     C28809  -2.261   7.622   7.018 -0.5351 -0.9472  0.6563
  219MOL0     C28810  -2.368   7.587   7.103  0.3172  0.2800  0.6790
  219MOL0     O28811  -2.489   7.615   7.039  0.0406  0.3222 -0.9619
  219MOL0     C28812  -2.613   7.574   7.094 -0.6331  0.4392  0.4466
  219MOL0     C28813  -2.648   7.676   7.207 -0.3944  0.1085 -1.1334
  219MOL0     C28814  -2.702   7.811   7.151  0.5770  0.0384  0.3043
  219MOL0     C28815  -2.759   7.903   7.261  0.0191 -0.7224 -0.2641
  219MOL0     C28816  -2.831   8.026   7.205 -0.3811 -0.4517 -0.8914
  219MOL0     C28817  -2.938   8.074   7.309 -0.0777 -0.2888 -0.1380
  219MOL0     C28818  -3.029   8.184   7.268 -0.2008 -0.4007 -0.5289
  219MOL0     C28819  -2.932   8.303   7.225 -0.1354 -0.4544  0.2497
  219MOL0    Cl28820  -3.025   8.474   7.224  0.0289 -0.3695 -0.3043
  219MOL0     C28821  -2.348   7.535   7.230  0.0631 -0.8011 -0.5795
  219MOL0     C28822  -2.217   7.526   7.282 -0.0473  0.2325  0.2427
  219MOL0     O28823  -1.967   7.768   7.343  0.4448  0.2695  0.3943
  219MOL0     C28824  -1.773   7.491   7.415 -0.0594  0.1525 -0.0357
  219MOL0     C28825  -1.662   7.450   7.479 -1.4624  0.8231 -0.7707
  219MOL0     N28826  -0.996   7.864   7.908 -0.1435  0.6688 -0.6904
  219MOL0     N28827  -0.885   7.929   7.913 -0.5251  1.4373  0.2412
  219MOL0     C28828   0.258   8.284   7.826 -0.0386 -0.1509 -0.4576
  219MOL0     C28829   0.378   8.303   7.902  0.4744  0.5231  0.5773
  219MOL0     C28830   0.745   8.599   8.029 -0.1503  0.8835  0.1904
  219MOL0     C28831   0.824   8.710   8.008  0.7944 -0.8225 -0.5826
  219MOL0     C28832   0.947   8.740   8.077  0.2089  0.3664  0.2738
  219MOL0     C28833   0.986   8.648   8.179  0.3733  0.4709 -0.5614
  219MOL0     O28834   1.094   8.677   8.244 -0.2116  0.4189  0.1121
  219MOL0     C28835   1.135   8.595   8.353 -0.2929 -0.1188 -0.1521
  219MOL0     C28836   1.220   8.476   8.314 -0.8054 -0.1832 -1.1403
  219MOL0     C28837   1.341   8.518   8.216  0.7000  0.3544 -0.2303
  219MOL0     C28838   1.430   8.638   8.268  0.5943  0.3447 -0.7334
  219MOL0     C28839   1.494   8.605   8.394 -1.7276 -0.8300  0.4890
  219MOL0     C28840   1.534   8.546   8.493  0.2889 -0.7073  0.2999
  219MOL0     C28841   0.901   8.533   8.214 -0.7482 -0.1031  0.8306
  219MOL0     C28842   0.788   8.513   8.131  0.0132  0.5142  0.5394
  219MOL0     H28843   0.365   8.649   7.895  2.0762 -0.7135 -2.0189
  219MOL0     H28844   0.134   8.593   7.799 -2.2249 -1.7749  1.5284
  219MOL0     H28845  -0.053   8.427   7.893 -0.1382 -1.6305  1.4977
  219MOL0     H28846  -0.090   8.275   7.813  2.7802  0.2095  0.8836
  219MOL0     H28847  -0.145   8.414   7.605 -0.5128  2.1186  0.5655
  219MOL0     H28848  -0.164   8.547   7.708 -2.3861  1.1636 -0.3799
  219MOL0     H28849  -0.367   8.428   7.810 -2.9447  1.2645 -3.5873
  219MOL0     H28850  -0.281   8.273   7.775 -2.7329 -0.7285 -0.4988
  219MOL0     H28851  -0.406   8.460   7.562  2.7248 -0.0715  0.3746
  219MOL0     H28852  -0.368   8.294   7.541 -1.5675 -0.9078  0.0557
  219MOL0     H28853  -0.598   8.299   7.549 -0.1893  0.5158  0.5464
  219MOL0     H28854  -0.602   8.395   7.703 -0.8610  0.3195 -0.2355
  219MOL0     H28855  -0.519   8.198   7.808 -0.5190 -2.1617  0.4894
  219MOL0     H28856  -0.479   8.119   7.654  4.5403  3.0886  3.6871
  219MOL0     H28857  -0.757   8.188   7.772 -1.4045  0.5715 -1.5226
  219MOL0     H28858  -0.745   8.106   7.614  0.8328  1.5223  0.1470
  219MOL0     H28859  -0.658   7.988   7.889 -3.2777 -1.6664  1.5212
  219MOL0     H28860  -0.630   7.917   7.721  0.9410  2.8210 -2.5146
  219MOL0     H28861  -0.901   7.839   7.599 -1.7840 -1.0184 -0.5157
  219MOL0     H28862  -1.087   7.701   7.619  3.6928  0.0105  0.3468
  219MOL0     H28863  -1.206   7.802   7.709  0.3105  0.5791  1.4984
  219MOL0     H28864  -1.222   7.660   7.901 -0.5886 -1.3302  0.6636
  219MOL0     H28865  -1.074   7.567   7.856 -0.4868  1.3394  1.0541
  219MOL0     H28866  -1.192   7.482   7.656  2.1522  3.8020 -0.8051
  219MOL0     H28867  -1.270   7.426   7.806  1.6998 -3.3888 -4.8331
  219MOL0     H28868  -1.382   7.671   7.657  1.7514  1.7922  2.1959
  219MOL0     H28869  -1.443   7.590   7.804  2.4418  3.1001  0.4436
  219MOL0     H28870  -1.595   7.739   7.630 -2.5386  2.5476  0.4554
  219MOL0     H28871  -1.811   7.811   7.515 -0.7447  0.6938 -0.3466
  219MOL0     H28872  -2.048   7.633   7.003 -2.8729  1.8628 -2.6351
  219MOL0     H28873  -2.284   7.662   6.920  2.4981  0.7952  0.5213
  219MOL0     H28874  -2.602   7.474   7.136 -0.6386  0.6513  0.9530
  219MOL0     H28875  -2.698   7.592   7.027 -1.0045 -1.0755  0.4933
  219MOL0     H28876  -2.554   7.695   7.260  0.5104 -1.5296 -2.0818
  219MOL0     H28877  -2.717   7.650   7.288  1.1373 -0.4448  0.0603
  219MOL0     H28878  -2.784   7.781   7.086  1.4555 -0.6031 -0.5279
  219MOL0     H28879  -2.629   7.860   7.085 -0.2329 -0.2341 -0.8213
  219MOL0     H28880  -2.837   7.841   7.306 -0.1831  0.7434  1.5303
  219MOL0     H28881  -2.687   7.943   7.333  1.6670 -0.5817 -1.9245
  219MOL0     H28882  -2.887   8.014   7.112  1.0191  0.4444 -1.8846
  219MOL0     H28883  -2.759   8.107   7.188 -2.4955  1.8829  0.4122
  219MOL0     H28884  -2.882   8.107   7.397 -1.5331 -3.1153  2.0276
  219MOL0     H28885  -2.999   7.990   7.343  1.0287 -0.8226  0.5740
  219MOL0     H28886  -3.086   8.158   7.178  0.4704 -1.7196 -0.6009
  219MOL0     H28887  -3.088   8.224   7.351 -0.0479  1.7556 -1.3901
  219MOL0     H28888  -2.897   8.288   7.122 -0.6385  1.4941 -0.2530
  219MOL0     H28889  -2.844   8.322   7.286  0.8573 -3.1846 -0.2143
  219MOL0     H28890  -2.435   7.514   7.291  0.1409  0.6048  0.0632
  219MOL0     H28891  -2.185   7.487   7.379  1.1043 -0.5535 -0.4232
  219MOL0     H28892  -1.810   7.418   7.344 -0.4388 -2.3043  2.5087
  219MOL0     H28893  -1.631   7.351   7.446  0.2222  0.5284  1.4618
  219MOL0     H28894   0.232   8.185   7.792  2.8313 -1.0872 -0.2304
  219MOL0     H28895   0.445   8.222   7.929 -0.0266 -0.7985 -1.8805
  219MOL0     H28896   0.791   8.788   7.940  1.1755  0.3499  0.5313
  219MOL0     H28897   0.981   8.839   8.049 -5.6081  3.1916  1.7656
  219MOL0     H28898   1.054   8.566   8.419  0.5783  1.0268  1.5013
  219MOL0     H28899   1.184   8.661   8.426 -0.3151 -2.6361  2.3061
  219MOL0     H28900   1.264   8.435   8.405 -0.0416 -0.9746 -1.8438
  219MOL0     H28901   1.154   8.408   8.260 -0.7399 -1.1009 -0.0972
  219MOL0     H28902   1.299   8.538   8.117  0.0924 -2.8635 -0.7476
  219MOL0     H28903   1.402   8.431   8.189 -0.5590 -1.3338  2.0188
  219MOL0     H28904   1.506   8.647   8.190  2.0344 -3.8286 -0.1113
  219MOL0     H28905   1.361   8.722   8.270 -1.8573 -1.4968  2.2516
  219MOL0     H28906   1.565   8.491   8.580 -0.1019  1.7576  2.1069
  219MOL0     H28907   0.928   8.462   8.291  0.1528  0.9709  1.5248
  219MOL0     H28908   0.741   8.415   8.138  0.0756  0.4864  0.5693
  220MOL0     O28909   6.586   9.334   8.892 -0.0909  0.6128  0.0105
  220MOL0     C28910   6.469   9.353   8.860 -0.8062  0.5775 -0.5450
  220MOL0     O28911   6.401   9.473   8.858 -0.4159 -0.4305 -0.0430
  220MOL0     C28912   6.457   9.590   8.909  0.8084  0.1793  0.3201
  220MOL0     C28913   6.545   9.611   9.018 -0.4938 -0.5368 -0.6336
  220MOL0     C28914   6.589   9.742   9.058  0.4686  0.0141 -0.1002
  220MOL0     C28915   6.549   9.855   8.981  0.4452 -0.0510  0.1844
  220MOL0     O28916   6.601   9.982   9.016 -0.5156  0.6550  0.1098
  220MOL0     C28917   6.501  10.088   9.025  0.5687  0.2375 -0.5000
  220MOL0     C28918   6.567  10.223   9.081 -0.0456  0.1131  0.2931
  220MOL0     C28919   6.474  10.343   9.050  0.3737  0.1677 -0.7118
  220MOL0     C28920   6.570  10.462   9.040 -0.5195  0.4846  0.0526
  220MOL0     C28921   6.523  10.590   8.975 -0.2270 -0.0041 -0.3768
  220MOL0     C28922   6.621  10.702   8.942  0.0538  0.3158  0.2714
  220MOL0     C28923   6.561  10.834   8.909  0.2704 -0.4154  0.0748
  220MOL0     C28924   6.472  10.834   8.781 -0.1469 -0.7091  0.7002
  220MOL0     N28925   6.558  10.832   8.660 -0.3493 -0.0721 -0.4071
  220MOL0     C28926   6.652  10.924   8.627 -1.0749  0.2427  0.3878
  220MOL0     C28927   6.724  10.881   8.512 -0.0531  0.2437 -0.2961
  220MOL0     C28928   6.832  10.953   8.435  0.7246 -0.2433  1.0751
  220MOL0     C28929   6.785  10.983   8.288  0.2772  0.5008  0.7847
  220MOL0     C28930   6.904  11.033   8.202 -0.7400 -0.3211 -0.0053
  220MOL0     C28931   6.940  11.177   8.238  0.7411  1.0549 -0.6205
  220MOL0     O28932   6.869  11.261   8.161  0.2502 -0.4277  0.7968
  220MOL0     C28933   6.919  11.386   8.126 -0.7961  0.6194  0.3437
  220MOL0     C28934   6.899  11.500   8.205  0.3714  0.1017  1.5698
  220MOL0     C28935   6.962  11.621   8.174  0.1353 -0.0536  0.7885
  220MOL0     C28936   7.046  11.632   8.059 -0.8481 -0.0552  0.2433
  220MOL0     C28937   7.117  11.759   8.024  0.6365 -0.1221 -0.7015
  220MOL0     O28938   7.060  11.869   8.081  0.8404 -0.3850 -0.3545
  220MOL0     C28939   7.107  11.986   8.030 -0.0867 -0.6132 -0.8067
  220MOL0     C28940   7.201  12.053   8.103  0.0846 -0.5584  0.5453
  220MOL0     C28941   7.245  12.182   8.060  0.1093 -0.0073  0.1741
  220MOL0     C28942   7.192  12.232   7.944  0.8099 -0.2452  0.2857
  220MOL0     O28943   7.203  12.366   7.918  0.2453  0.0445  0.3150
  220MOL0     C28944   7.340  12.414   7.907 -0.0510 -0.0297 -0.3224
  220MOL0     C28945   7.380  12.426   7.760 -0.2986 -0.4182  0.3021
  220MOL0     C28946   7.518  12.501   7.754  0.6015  0.8298 -0.5665
  220MOL0     C28947   7.625  12.397   7.734 -0.1953 -0.4026  0.5109
  220MOL0     C28948   7.764  12.457   7.715  0.7132  0.5917 -0.2783
  220MOL0     C28949   7.879  12.364   7.703  0.1009  0.4487  0.1206
  220MOL0     C28950   8.002  12.443   7.695 -0.4378  0.9976  0.5202
  220MOL0     C28951   8.124  12.363   7.671 -0.4348 -0.2450 -0.3176
  220MOL0    Cl28952   8.256  12.459   7.716  0.4362  0.1906 -0.0866
  220MOL0     C28953   7.109  12.161   7.860 -0.9476 -0.1521  1.1906
  220MOL0     C28954   7.067  12.031   7.904  0.3769 -0.5798 -0.4348
  220MOL0     O28955   7.197  11.758   7.932 -0.1499  0.1193 -0.9218
  220MOL0     C28956   7.066  11.517   7.980 -0.4620  0.3339 -0.6338
  220MOL0     C28957   7.016  11.394   8.029 -0.4662 -0.7329  0.3806
  220MOL0     N28958   6.672  10.755   8.490 -0.4225 -0.2802 -0.3033
  220MOL0     N28959   6.579  10.727   8.578 -0.7887  1.0505  0.1773
  220MOL0     C28960   6.471   9.841   8.868 -0.8792  0.0021  0.1243
  220MOL0     C28961   6.425   9.708   8.836  0.1290  0.4678 -0.6180
  220MOL0     C28962   6.394   9.232   8.835  0.3310  0.2322 -0.8571
  220MOL0     C28963   6.256   9.242   8.859  1.0262 -0.4621 -0.4012
  220MOL0     C28964   6.173   9.128   8.842  0.1298  0.4040 -0.5488
  220MOL0     C28965   6.234   9.004   8.804 -0.5558 -0.1550  0.0110
  220MOL0     O28966   6.170   8.893   8.771  0.5740  0.1386 -0.3252
  220MOL0     C28967   6.029   8.896   8.754 -0.7711  0.0654 -0.2351
  220MOL0     C28968   5.968   8.859   8.890 -0.3241  0.0746 -0.6112
  220MOL0     C28969   5.816   8.853   8.890  0.8918  0.4861  0.0162
  220MOL0     C28970   5.767   8.720   8.810 -0.2733 -0.5321 -0.1618
  220MOL0     C28971   5.630   8.672   8.838  0.4528  0.0150 -0.1643
  220MOL0     C28972   5.520   8.635   8.861  0.1693 -0.6612  0.4399
  220MOL0     C28973   6.371   8.989   8.778  0.8405 -0.1930 -0.8812
  220MOL0     C28974   6.447   9.106   8.794 -0.7849  0.0087 -0.2500
  220MOL0     H28975   6.580   9.531   9.082 -0.1248  2.5359  3.3565
  220MOL0     H28976   6.652   9.754   9.145 -3.3529 -0.1666  3.0103
  220MOL0     H28977   6.417  10.067   9.091 -0.2941  0.2773 -1.5533
  220MOL0     H28978   6.453  10.119   8.932 -1.7942  0.1113  0.6043
  220MOL0     H28979   6.659  10.217   9.023 -0.2426 -4.4061  0.0783
  220MOL0     H28980   6.587  10.212   9.188  0.2632 -0.2344  0.2003
  220MOL0     H28981   6.403  10.364   9.130  0.8988 -0.3672 -0.0856
  220MOL0     H28982   6.428  10.318   8.954  1.2434  0.3375 -1.1828
  220MOL0     H28983   6.612  10.484   9.138  0.9687  0.3152 -0.5213
  220MOL0     H28984   6.661  10.426   8.992  0.0640 -1.0138  2.1684
  220MOL0     H28985   6.449  10.642   9.038  1.7740  2.1070  0.3979
  220MOL0     H28986   6.477  10.568   8.879  0.0704 -0.1817 -0.4775
  220MOL0     H28987   6.678  10.662   8.858 -1.3887 -1.7992  0.2249
  220MOL0     H28988   6.688  10.723   9.026 -0.9735  2.0181  0.7068
  220MOL0     H28989   6.505  10.877   8.992  1.0176  1.2253 -0.2233
  220MOL0     H28990   6.643  10.902   8.887  0.8883 -0.2858  2.5086
  220MOL0     H28991   6.420  10.930   8.777 -0.5258 -0.9516 -0.4551
  220MOL0     H28992   6.407  10.747   8.774  1.4738 -2.3098  3.6662
  220MOL0     H28993   6.666  11.015   8.684  1.2891 -0.5999  1.2832
  220MOL0     H28994   6.912  10.880   8.454  0.2045 -0.7167  1.5008
  220MOL0     H28995   6.857  11.051   8.477 -1.3969  0.8918 -0.2094
  220MOL0     H28996   6.708  11.061   8.286 -2.2887 -1.6657  3.9311
  220MOL0     H28997   6.739  10.898   8.236 -1.8780  0.8582  1.9791
  220MOL0     H28998   6.990  10.966   8.213 -0.6842 -0.8209 -2.8023
  220MOL0     H28999   6.887  11.034   8.094 -0.4759 -0.6325 -0.0530
  220MOL0     H29000   7.048  11.186   8.225  1.6677 -1.9093  3.2478
  220MOL0     H29001   6.916  11.205   8.341  0.6301 -1.2554  0.0409
  220MOL0     H29002   6.819  11.479   8.276  1.9983  1.0117  3.7849
  220MOL0     H29003   6.936  11.706   8.236 -0.4087 -0.2373  0.8176
  220MOL0     H29004   7.244  12.010   8.193 -2.3503  1.6335  2.9571
  220MOL0     H29005   7.305  12.239   8.129 -1.4123 -0.0791  1.6329
  220MOL0     H29006   7.405  12.350   7.968  1.3594  1.3144 -0.3631
  220MOL0     H29007   7.360  12.508   7.958  1.6711 -1.5195  1.9473
  220MOL0     H29008   7.308  12.476   7.694  1.4935 -1.9001 -3.0333
  220MOL0     H29009   7.396  12.323   7.727  0.8098 -0.3107  0.4783
  220MOL0     H29010   7.528  12.568   7.840  0.3928  0.9620 -0.6478
  220MOL0     H29011   7.515  12.562   7.664  0.6754  1.5529 -0.0941
  220MOL0     H29012   7.634  12.316   7.807  2.6513 -0.0675  0.6579
  220MOL0     H29013   7.610  12.356   7.634 -0.4555 -0.4995  0.5885
  220MOL0     H29014   7.778  12.520   7.803  2.4126 -1.2476  0.8745
  220MOL0     H29015   7.776  12.516   7.624  4.7475  2.1599  1.0629
  220MOL0     H29016   7.848  12.297   7.623  1.0025 -0.9279  0.8894
  220MOL0     H29017   7.888  12.300   7.791  3.2497  0.5140 -0.0134
  220MOL0     H29018   7.988  12.529   7.628 -0.4537  0.2514 -0.4521
  220MOL0     H29019   8.016  12.496   7.790  0.0805  1.2908  0.2843
  220MOL0     H29020   8.138  12.321   7.571 -1.2160 -1.2099 -0.0314
  220MOL0     H29021   8.126  12.280   7.742  1.9268 -1.8159 -2.0436
  220MOL0     H29022   7.057  12.205   7.776 -0.5724  1.4268  1.7393
  220MOL0     H29023   7.002  11.970   7.841  0.3564 -0.8251 -0.1757
  220MOL0     H29024   7.125  11.503   7.890  0.4991  0.2667 -0.0022
  220MOL0     H29025   7.043  11.297   7.988  0.1391 -0.1562 -0.6258
  220MOL0     H29026   6.455   9.924   8.800 -0.9506 -1.1540 -1.3230
  220MOL0     H29027   6.363   9.704   8.747  0.9502  0.1110 -1.1919
  220MOL0     H29028   6.215   9.337   8.892  2.7374 -0.7899  3.1926
  220MOL0     H29029   6.072   9.151   8.876  0.6142  2.8538 -0.6442
  220MOL0     H29030   6.012   8.816   8.682  0.5992 -1.2497  0.8586
  220MOL0     H29031   5.984   8.983   8.704  2.0972  1.7993 -0.0159
  220MOL0     H29032   6.007   8.771   8.943  1.6121  1.5153  0.5204
  220MOL0     H29033   6.000   8.941   8.955 -0.7394 -1.5189  1.7247
  220MOL0     H29034   5.765   8.941   8.850 -2.0028  0.0530  2.4332
  220MOL0     H29035   5.785   8.847   8.994  2.6015  0.9788  0.5932
  220MOL0     H29036   5.776   8.751   8.706  0.6879 -0.0480  0.0568
  220MOL0     H29037   5.842   8.641   8.825  1.1942  0.8576  0.1608
  220MOL0     H29038   5.437   8.577   8.896  0.2487 -1.5016 -0.7031
  220MOL0     H29039   6.403   8.890   8.746 -1.9461 -0.4675 -3.2512
  220MOL0     H29040   6.553   9.091   8.774  0.0064  0.9024  2.7470
  221MOL0     O29041   2.673  10.100  11.108  0.2359  0.0236  0.3854
  221MOL0     C29042   2.652  10.070  11.228  0.2736  0.7702 -0.2858
  221MOL0     O29043   2.534  10.039  11.285 -0.9473  0.6560  0.2661
  221MOL0     C29044   2.424  10.031  11.201 -0.8086 -0.7555  0.7398
  221MOL0     C29045   2.323   9.942  11.240  0.5324  0.4211 -0.1487
  221MOL0     C29046   2.211   9.915  11.159  0.0295  0.5058  0.0467
  221MOL0     C29047   2.181  10.005  11.057  0.3476 -0.3390 -0.2628
  221MOL0     O29048   2.074   9.996  10.967  0.0015 -0.2674 -1.0045
  221MOL0     C29049   2.050   9.868  10.911  0.5460 -0.4764  0.6255
  221MOL0     C29050   1.921   9.879  10.836  0.2183  0.6862  0.5265
  221MOL0     C29051   1.851   9.759  10.777 -0.6409  0.5228 -0.4356
  221MOL0     C29052   1.728   9.791  10.689 -1.0875  0.4173  0.5812
  221MOL0     C29053   1.661   9.668  10.620 -0.5347 -1.0144 -0.4030
  221MOL0     C29054   1.583   9.592  10.722 -0.1062  0.2805 -0.3626
  221MOL0     C29055   1.500   9.462  10.650 -0.6804  0.3269 -0.7747
  221MOL0     C29056   1.394   9.406  10.735 -0.5305  0.0396 -0.3808
  221MOL0     N29057   1.279   9.331  10.664  0.9063 -0.5934  0.7541
  221MOL0     C29058   1.278   9.292  10.530  0.3091 -0.2085  1.0342
  221MOL0     C29059   1.159   9.221  10.518 -0.8086  0.2948  0.2710
  221MOL0     C29060   1.107   9.153  10.387  0.0899  0.9273  0.3532
  221MOL0     C29061   1.014   9.242  10.293  0.3984  0.5603 -0.4360
  221MOL0     C29062   0.872   9.246  10.352 -0.2798  1.2015 -0.5374
  221MOL0     C29063   0.789   9.124  10.299 -1.0295  0.6325 -0.2758
  221MOL0     O29064   0.794   9.110  10.154  0.3287 -0.8389  0.6321
  221MOL0     C29065   0.694   9.191  10.098 -0.8403 -0.7784 -0.0513
  221MOL0     C29066   0.737   9.319  10.049  0.0916  0.2992  1.1132
  221MOL0     C29067   0.644   9.411  10.006 -0.5129  0.7525 -0.5103
  221MOL0     C29068   0.513   9.373   9.985 -0.1332  0.4711 -0.3000
  221MOL0     C29069   0.422   9.465   9.910  0.5864  0.3562  0.9712
  221MOL0     O29070   0.290   9.418   9.915 -0.6031  0.5465  0.1859
  221MOL0     C29071   0.190   9.491   9.849 -0.9825 -0.3855  0.0539
  221MOL0     C29072   0.070   9.509   9.918 -0.7091 -0.5765 -0.2380
  221MOL0     C29073  -0.033   9.571   9.858  0.0607  0.6921 -0.0549
  221MOL0     C29074  -0.027   9.632   9.728  0.0974 -0.0679 -0.7502
  221MOL0     O29075  -0.127   9.702   9.673 -0.6313 -0.2683  0.0269
  221MOL0     C29076  -0.252   9.630   9.656  0.6290  0.0251 -0.5144
  221MOL0     C29077  -0.372   9.720   9.606  0.3586  0.3784  0.8117
  221MOL0     C29078  -0.407   9.826   9.712  0.7161  0.6402 -0.9678
  221MOL0     C29079  -0.541   9.894   9.681  0.6152  1.2878  0.6628
  221MOL0     C29080  -0.595   9.995   9.785  0.0085 -0.0339 -0.2109
  221MOL0     C29081  -0.756  10.022   9.787  0.3786  0.0240 -0.6979
  221MOL0     C29082  -0.797  10.139   9.881  0.6092  0.8245  0.3052
  221MOL0     C29083  -0.941  10.182   9.867 -0.3866 -0.7499  0.2704
  221MOL0    Cl29084  -0.957  10.313   9.992  0.1058 -0.1001  0.0565
  221MOL0     C29085   0.099   9.623   9.666  0.2418  0.4176 -0.2196
  221MOL0     C29086   0.197   9.552   9.722 -0.8335  0.0439 -0.2049
  221MOL0     O29087   0.463   9.577   9.866 -0.4147  0.4000 -0.0614
  221MOL0     C29088   0.470   9.243  10.027 -0.1324 -0.3668 -0.0126
  221MOL0     C29089   0.559   9.155  10.083  0.5304 -0.3329 -0.4107
  221MOL0     N29090   1.095   9.238  10.633 -0.6804 -0.5467 -0.7359
  221MOL0     N29091   1.169   9.294  10.721 -0.6754 -0.3836 -0.4794
  221MOL0     C29092   2.273  10.102  11.024 -0.9442  0.5561 -0.7647
  221MOL0     C29093   2.385  10.121  11.103 -0.3098 -0.5531 -0.1899
  221MOL0     C29094   2.763  10.072  11.330 -0.4786  0.6312  0.7595
  221MOL0     C29095   2.883  10.145  11.310 -0.4274 -0.0744  1.0381
  221MOL0     C29096   2.992  10.135  11.405 -0.8573 -0.0986 -0.0193
  221MOL0     C29097   2.990  10.043  11.511  0.1413  0.2768 -0.3394
  221MOL0     O29098   3.094  10.037  11.595 -0.3458  0.2914 -0.3893
  221MOL0     C29099   3.099   9.928  11.695  0.2860 -0.1616  0.3541
  221MOL0     C29100   3.218   9.945  11.777  0.6446  0.3458  0.4689
  221MOL0     C29101   3.346   9.906  11.695 -1.2655  0.7399  0.0023
  221MOL0     C29102   3.393  10.011  11.585  0.3144  0.1285  0.0042
  221MOL0     C29103   3.520   9.961  11.531 -0.1760 -1.0458 -0.6378
  221MOL0     C29104   3.628   9.911  11.496  0.4010  0.6358 -0.3400
  221MOL0     C29105   2.868   9.983  11.534  1.1449 -1.0800 -0.4235
  221MOL0     C29106   2.758   9.990  11.451  0.3739 -0.5976  0.9410
  221MOL0     H29107   2.342   9.890  11.333  3.4644  1.5580 -0.0165
  221MOL0     H29108   2.134   9.842  11.183  3.5399 -3.5978  0.0200
  221MOL0     H29109   2.038   9.798  10.994 -0.1362  0.1793  1.0976
  221MOL0     H29110   2.138   9.852  10.848  0.9779  3.9138 -0.2397
  221MOL0     H29111   1.918   9.956  10.758  0.1769  2.4807  2.1993
  221MOL0     H29112   1.851   9.911  10.914 -0.5453  0.3962 -0.0242
  221MOL0     H29113   1.814   9.695  10.858  3.0570 -1.8206 -0.3308
  221MOL0     H29114   1.920   9.697  10.718  2.2824  3.1470 -0.0223
  221MOL0     H29115   1.651   9.842  10.747  0.6260  0.1571  3.2351
  221MOL0     H29116   1.756   9.857  10.606  1.1488 -1.5016 -0.3359
  221MOL0     H29117   1.739   9.602  10.582  1.2809  0.0704  1.2815
  221MOL0     H29118   1.595   9.694  10.537  0.2928  1.1141 -0.4519
  221MOL0     H29119   1.514   9.663  10.767 -0.8330 -1.4415  1.3999
  221MOL0     H29120   1.643   9.549  10.804 -1.2795 -0.4710  0.1220
  221MOL0     H29121   1.452   9.515  10.567 -3.8182 -1.1627 -0.0586
  221MOL0     H29122   1.571   9.390  10.609 -0.3613 -0.1877  0.6335
  221MOL0     H29123   1.350   9.486  10.796  0.1784 -0.3972  0.7406
  221MOL0     H29124   1.437   9.333  10.804  1.8235 -0.6820 -2.4282
  221MOL0     H29125   1.363   9.300  10.463  0.4494 -0.4365  1.1828
  221MOL0     H29126   1.051   9.065  10.419 -3.1623  2.1484 -1.5220
  221MOL0     H29127   1.190   9.125  10.321 -0.7182  1.2634 -0.8316
  221MOL0     H29128   1.016   9.208  10.189 -0.1920  0.6501 -0.4816
  221MOL0     H29129   1.047   9.346  10.285  2.0148  0.3915  2.5339
  221MOL0     H29130   0.880   9.253  10.461  0.2996  1.3564 -0.5869
  221MOL0     H29131   0.813   9.336  10.328 -0.1272  0.6646 -3.2016
  221MOL0     H29132   0.684   9.126  10.332 -1.8091  0.5162 -2.5428
  221MOL0     H29133   0.836   9.035  10.341 -0.7921  0.4214 -0.9712
  221MOL0     H29134   0.835   9.364  10.066  0.9575  0.0973 -2.5324
  221MOL0     H29135   0.673   9.511   9.976  0.8527  0.1178 -1.4554
  221MOL0     H29136   0.067   9.471  10.019 -0.5692 -0.4890 -0.2004
  221MOL0     H29137  -0.123   9.590   9.916 -0.2434  0.6484 -0.5073
  221MOL0     H29138  -0.284   9.577   9.747 -0.6753  0.2010 -0.8484
  221MOL0     H29139  -0.241   9.554   9.578 -0.2505  0.6605 -1.2817
  221MOL0     H29140  -0.463   9.664   9.583 -1.0856  3.2006 -0.9370
  221MOL0     H29141  -0.344   9.769   9.512 -0.1193  0.0114  0.4726
  221MOL0     H29142  -0.325   9.899   9.725  3.9709 -3.1764  3.0659
  221MOL0     H29143  -0.417   9.780   9.811 -3.2925 -0.1086 -1.5562
  221MOL0     H29144  -0.534   9.943   9.583 -1.5247  0.7430  0.1807
  221MOL0     H29145  -0.624   9.823   9.681  0.5975  1.2794  2.1993
  221MOL0     H29146  -0.543  10.091   9.773 -3.1351  1.5598 -2.4105
  221MOL0     H29147  -0.565   9.949   9.880  3.0023  2.4791  0.2520
  221MOL0     H29148  -0.801   9.923   9.800  4.3499 -2.0514 -1.1584
  221MOL0     H29149  -0.790  10.075   9.697 -1.4921  2.4872  1.3156
  221MOL0     H29150  -0.792  10.117   9.988 -0.7560  4.7083  1.3292
  221MOL0     H29151  -0.726  10.219   9.858  0.2273  1.2616  0.6576
  221MOL0     H29152  -1.019  10.105   9.861 -0.4915 -0.6415  0.2258
  221MOL0     H29153  -0.949  10.236   9.773 -0.0874 -0.0635  0.6346
  221MOL0     H29154   0.116   9.678   9.574  1.6225 -0.3387 -0.4479
  221MOL0     H29155   0.290   9.553   9.666 -2.0568 -0.0442 -2.3457
  221MOL0     H29156   0.368   9.206  10.021  0.1811 -1.0409 -1.7740
  221MOL0     H29157   0.522   9.057  10.110 -2.1312 -0.6124 -4.2120
  221MOL0     H29158   2.255  10.169  10.941  1.3277  2.7107  0.3676
  221MOL0     H29159   2.448  10.207  11.086 -0.3892  0.2001  2.7443
  221MOL0     H29160   2.887  10.213  11.225  0.1402 -0.6170  0.6158
  221MOL0     H29161   3.077  10.199  11.388  0.1108 -2.0510 -3.4417
  221MOL0     H29162   3.099   9.829  11.650 -0.4045 -1.9248  3.9242
  221MOL0     H29163   3.011   9.934  11.759 -0.1042  1.4916 -0.2755
  221MOL0     H29164   3.231  10.050  11.804  3.3084  0.6765 -1.6272
  221MOL0     H29165   3.214   9.878  11.864  1.4958 -4.5708 -2.8201
  221MOL0     H29166   3.329   9.809  11.646  0.8098  0.9446 -1.2468
  221MOL0     H29167   3.423   9.905  11.773 -0.9148 -0.2253 -0.3309
  221MOL0     H29168   3.321  10.001  11.503 -0.0368  1.2086  0.1644
  221MOL0     H29169   3.381  10.112  11.624 -0.2991  1.5642 -3.5127
  221MOL0     H29170   3.728   9.889  11.462  0.2759  1.0740 -1.0198
  221MOL0     H29171   2.838   9.919  11.617 -3.8992  0.0785 -1.0235
  221MOL0     H29172   2.674   9.926  11.476  1.4656 -1.7649  1.7333
  222MOL0     O29173   6.809   4.648   4.713  0.6814 -0.5366  0.0052
  222MOL0     C29174   6.854   4.668   4.821 -0.7940  0.8243  0.3985
  222MOL0     O29175   6.791   4.721   4.928  0.1929  0.4771  0.2138
  222MOL0     C29176   6.651   4.732   4.928  0.5485 -0.1583 -0.0810
  222MOL0     C29177   6.604   4.839   5.005 -0.3988 -0.5775  0.1846
  222MOL0     C29178   6.468   4.865   5.031  0.7116 -0.2307 -0.2030
  222MOL0     C29179   6.369   4.780   4.966  1.5853  0.0321 -0.4046
  222MOL0     O29180   6.234   4.793   5.003 -0.5863  0.1934  0.2442
  222MOL0     C29181   6.129   4.731   4.912 -0.7723 -0.7489 -0.7902
  222MOL0     C29182   5.990   4.799   4.950 -0.3466  0.2141  0.0336
  222MOL0     C29183   5.993   4.960   4.969  0.3885  0.6108  0.6120
  222MOL0     C29184   6.007   5.032   4.831  0.3705  0.2978  0.0332
  222MOL0     C29185   6.025   5.175   4.851  0.5920  0.1875  0.0392
  222MOL0     C29186   5.981   5.256   4.733 -0.0899 -0.4971 -0.7274
  222MOL0     C29187   6.065   5.228   4.612 -0.2907  0.5414  0.3581
  222MOL0     C29188   6.223   5.238   4.634  0.3304 -0.5485  0.1558
  222MOL0     N29189   6.273   5.235   4.496 -0.0355  0.6836 -0.6383
  222MOL0     C29190   6.279   5.123   4.421  0.8587  0.1291  0.1513
  222MOL0     C29191   6.325   5.162   4.306  0.7235  0.0134  0.0485
  222MOL0     C29192   6.345   5.104   4.166  0.3988  0.0774 -0.5298
  222MOL0     C29193   6.242   4.999   4.124  0.0425  0.1976 -0.0983
  222MOL0     C29194   6.236   4.959   3.982 -1.0465  0.4647  0.3282
  222MOL0     C29195   6.369   4.894   3.935 -0.2335 -0.9367  0.5722
  222MOL0     O29196   6.448   5.000   3.866  0.0474  0.3667  0.0773
  222MOL0     C29197   6.557   4.975   3.790  0.1710 -0.9024 -0.7142
  222MOL0     C29198   6.581   5.054   3.679  0.7541  0.4009  0.0111
  222MOL0     C29199   6.688   5.024   3.591  1.0404 -0.1806 -0.5761
  222MOL0     C29200   6.788   4.935   3.627 -0.3479  0.1097  0.5928
  222MOL0     C29201   6.912   4.927   3.540  0.0098  0.2648  0.2464
  222MOL0     O29202   7.008   4.836   3.567 -0.2260  0.1467  0.4572
  222MOL0     C29203   7.128   4.826   3.515  0.0000 -0.0055 -0.2862
  222MOL0     C29204   7.203   4.934   3.463  0.0325  0.2931  0.2505
  222MOL0     C29205   7.335   4.919   3.428 -0.1790 -0.5321  0.4877
  222MOL0     C29206   7.408   4.794   3.464 -0.4354  0.4063  0.4009
  222MOL0     O29207   7.541   4.774   3.434  0.2579  0.5586 -0.7832
  222MOL0     C29208   7.598   4.823   3.307 -0.2214 -1.0371 -0.5322
  222MOL0     C29209   7.715   4.904   3.340 -1.0561  0.1097  1.1013
  222MOL0     C29210   7.840   4.809   3.351  0.4528  0.2975  0.1061
  222MOL0     C29211   7.969   4.877   3.403  0.0017 -0.1376 -0.2195
  222MOL0     C29212   8.088   4.888   3.301  0.0003 -0.2712 -0.2699
  222MOL0     C29213   8.157   4.765   3.242  0.1270 -0.4251 -0.2643
  222MOL0     C29214   8.248   4.801   3.133  0.9261  0.6910 -1.0136
  222MOL0     C29215   8.295   4.676   3.050 -0.1227 -0.4691 -0.3133
  222MOL0    Cl29216   8.411   4.589   3.155 -0.0333  0.2860 -0.1691
  222MOL0     C29217   7.334   4.690   3.515  0.5152 -0.3061  0.4236
  222MOL0     C29218   7.199   4.705   3.537  0.0336  0.0279  0.2736
  222MOL0     O29219   6.916   5.012   3.451  0.1740  0.3182  0.6596
  222MOL0     C29220   6.767   4.857   3.736 -1.0154  0.0393  0.1192
  222MOL0     C29221   6.659   4.878   3.822 -0.0064  0.9116  1.1057
  222MOL0     N29222   6.355   5.298   4.318 -0.0199  0.2078  0.1902
  222MOL0     N29223   6.315   5.349   4.432  0.2362  0.7019 -0.5755
  222MOL0     C29224   6.416   4.679   4.878  0.2109  0.6343  1.9268
  222MOL0     C29225   6.556   4.656   4.857  0.6955 -0.2631  0.4943
  222MOL0     C29226   7.001   4.629   4.831  1.3165 -0.0974 -0.4325
  222MOL0     C29227   7.077   4.711   4.912  0.3523 -0.1130  1.6813
  222MOL0     C29228   7.215   4.719   4.901  0.3261 -0.3021  0.0731
  222MOL0     C29229   7.281   4.623   4.827 -0.4442 -0.1771 -0.0521
  222MOL0     O29230   7.417   4.614   4.826 -0.0035  0.0478 -0.1133
  222MOL0     C29231   7.505   4.703   4.894 -0.2209 -0.4163  0.2608
  222MOL0     C29232   7.658   4.677   4.874  0.2234  0.7040  1.0800
  222MOL0     C29233   7.677   4.647   4.727  0.6900 -0.3699  0.2523
  222MOL0     C29234   7.820   4.601   4.702 -0.0976 -0.1347 -0.0323
  222MOL0     C29235   7.846   4.472   4.753  0.4979  0.4056 -0.8689
  222MOL0     C29236   7.865   4.359   4.794  0.0313  1.5329 -0.2913
  222MOL0     C29237   7.209   4.525   4.762  0.3229  0.5420 -0.1908
  222MOL0     C29238   7.070   4.528   4.761  0.2812  0.5381 -0.6940
  222MOL0     H29239   6.684   4.894   5.055  1.5876 -2.0056 -1.2613
  222MOL0     H29240   6.443   4.937   5.108  1.8890  0.1457 -0.1515
  222MOL0     H29241   6.117   4.623   4.925  0.0602 -0.5725  2.0711
  222MOL0     H29242   6.165   4.753   4.811 -1.2395  0.4482 -0.7104
  222MOL0     H29243   5.964   4.758   5.048 -0.1677 -2.9193 -1.1261
  222MOL0     H29244   5.915   4.762   4.880 -1.6906  3.6821 -0.5700
  222MOL0     H29245   6.079   4.965   5.037  1.6839 -2.0192 -0.6643
  222MOL0     H29246   5.899   4.999   5.008  1.0211  1.7345  1.0535
  222MOL0     H29247   6.088   4.984   4.774  1.4641  1.0345  0.9161
  222MOL0     H29248   5.919   5.012   4.769  1.8293 -0.8592 -1.7851
  222MOL0     H29249   6.133   5.180   4.871  1.0446 -0.9887 -1.8110
  222MOL0     H29250   5.966   5.198   4.940 -2.7401 -2.7322 -1.1886
  222MOL0     H29251   6.000   5.358   4.767  1.9748 -0.4722 -1.8125
  222MOL0     H29252   5.871   5.253   4.733 -0.3644  1.2061  3.8743
  222MOL0     H29253   6.036   5.129   4.574 -3.0982 -0.4173  4.4046
  222MOL0     H29254   6.041   5.302   4.535  0.3090 -2.5914 -3.1860
  222MOL0     H29255   6.265   5.157   4.695  1.7282 -0.3587 -0.5151
  222MOL0     H29256   6.246   5.335   4.678 -0.1189  0.1218 -1.0410
  222MOL0     H29257   6.224   5.033   4.445  1.1813 -0.2984 -0.6852
  222MOL0     H29258   6.448   5.069   4.159  0.6197  0.2241  1.5227
  222MOL0     H29259   6.334   5.194   4.105 -0.4795  0.2689 -0.1099
  222MOL0     H29260   6.148   5.039   4.161 -0.7747 -1.2492 -0.4962
  222MOL0     H29261   6.257   4.909   4.184 -0.0605 -0.4921 -1.0742
  222MOL0     H29262   6.146   4.898   3.975 -3.2084  3.5720 -3.8265
  222MOL0     H29263   6.211   5.049   3.924 -2.7658 -0.6730 -0.8072
  222MOL0     H29264   6.344   4.823   3.855 -0.1720  0.5241 -0.7860
  222MOL0     H29265   6.415   4.851   4.025 -3.8011 -0.2442  2.9316
  222MOL0     H29266   6.512   5.134   3.653 -2.1033 -2.0561 -0.4788
  222MOL0     H29267   6.693   5.084   3.501  0.7479 -0.9480 -1.1184
  222MOL0     H29268   7.146   5.020   3.430 -0.7260  0.2265  1.3528
  222MOL0     H29269   7.365   5.007   3.372 -3.2086  0.0168 -0.4378
  222MOL0     H29270   7.522   4.879   3.251  1.6774  3.2306  0.6974
  222MOL0     H29271   7.625   4.732   3.252 -1.3183 -1.6948  0.0035
  222MOL0     H29272   7.702   4.975   3.422 -1.4610  3.3930 -1.5941
  222MOL0     H29273   7.723   4.970   3.253 -5.3003 -2.4125 -1.5666
  222MOL0     H29274   7.857   4.753   3.258 -1.9773 -0.3405 -0.0180
  222MOL0     H29275   7.816   4.718   3.407  1.9290 -1.0739 -1.3748
  222MOL0     H29276   7.946   4.971   3.454  0.6124  0.1766 -0.5114
  222MOL0     H29277   7.996   4.810   3.485 -0.4208  1.0331  0.9070
  222MOL0     H29278   8.162   4.962   3.332  1.5931 -0.7969 -2.5377
  222MOL0     H29279   8.039   4.945   3.222 -0.2800  2.2334  1.5845
  222MOL0     H29280   8.079   4.702   3.199  1.2112 -0.8409 -1.7195
  222MOL0     H29281   8.208   4.712   3.323  2.1274  2.4237  0.5101
  222MOL0     H29282   8.191   4.864   3.064  0.2481  0.5116 -0.6299
  222MOL0     H29283   8.338   4.847   3.175  1.0046  0.8111 -1.3166
  222MOL0     H29284   8.351   4.701   2.959  1.3976 -0.0308  0.7009
  222MOL0     H29285   8.222   4.601   3.018  0.8152 -2.0383  1.0593
  222MOL0     H29286   7.399   4.616   3.561  2.9090  1.8646  0.7712
  222MOL0     H29287   7.133   4.643   3.597 -1.2883  1.5131  0.4273
  222MOL0     H29288   6.832   4.771   3.752 -1.5691 -0.9955 -2.6068
  222MOL0     H29289   6.654   4.818   3.913 -1.0958 -0.5477  0.1331
  222MOL0     H29290   6.354   4.606   4.827 -1.0557  0.4783  3.6149
  222MOL0     H29291   6.572   4.579   4.783  1.4854  0.6223 -0.2897
  222MOL0     H29292   7.023   4.778   4.979  2.2671  1.1150  2.0618
  222MOL0     H29293   7.266   4.798   4.956 -2.0328 -0.2959  2.4736
  222MOL0     H29294   7.503   4.710   5.003  1.5064 -1.1526  0.3800
  222MOL0     H29295   7.477   4.803   4.858  1.2946 -0.1688 -0.3294
  222MOL0     H29296   7.713   4.765   4.909  4.7367 -1.1262 -0.7114
  222MOL0     H29297   7.696   4.605   4.947  1.3695 -0.1164 -0.2963
  222MOL0     H29298   7.662   4.742   4.673  5.1982  0.2517 -0.3514
  222MOL0     H29299   7.613   4.570   4.684 -0.9065  0.3785  1.1856
  222MOL0     H29300   7.838   4.589   4.595 -2.3505  0.2630 -0.5202
  222MOL0     H29301   7.898   4.669   4.735  0.2888 -1.9167  3.1871
  222MOL0     H29302   7.891   4.259   4.819  2.1199  1.8939 -0.8177
  222MOL0     H29303   7.257   4.433   4.730  0.4230  0.7660 -0.6912
  222MOL0     H29304   7.028   4.453   4.694 -0.3720  1.8718 -1.8377
  223MOL0     O29305   3.497   8.113   8.049 -0.4152  0.3053 -0.1624
  223MOL0     C29306   3.458   8.211   7.989 -0.5810  0.0690 -0.3143
  223MOL0     O29307   3.370   8.212   7.882  1.0044  0.4985  0.4912
  223MOL0     C29308   3.319   8.104   7.813 -0.7352 -0.9017  0.3063
  223MOL0     C29309   3.340   7.964   7.838 -0.1039  0.0331 -0.0365
  223MOL0     C29310   3.266   7.876   7.754  0.6682 -0.3463 -0.4257
  223MOL0     C29311   3.188   7.922   7.651  0.1144  0.9518 -0.3881
  223MOL0     O29312   3.167   7.827   7.548 -0.2699  0.2220 -0.1037
  223MOL0     C29313   3.033   7.836   7.488 -0.8728  0.3929 -0.2493
  223MOL0     C29314   2.979   7.700   7.437 -0.5798  0.0365  0.3253
  223MOL0     C29315   3.035   7.568   7.498 -0.0352 -0.4608 -0.7336
  223MOL0     C29316   3.012   7.446   7.404  0.1423 -0.6431  0.1082
  223MOL0     C29317   3.120   7.334   7.407 -0.2884  0.6953  0.8596
  223MOL0     C29318   3.147   7.268   7.536  0.0635  0.6045  0.1170
  223MOL0     C29319   3.291   7.222   7.547 -0.7368  0.1964  0.4171
  223MOL0     C29320   3.301   7.109   7.646  0.3410 -0.2373  0.0365
  223MOL0     N29321   3.440   7.085   7.665 -0.7773  1.1853 -0.1013
  223MOL0     C29322   3.532   7.046   7.570  0.4796  0.3327 -0.0427
  223MOL0     C29323   3.645   7.013   7.639  0.1657 -0.4214  0.2958
  223MOL0     C29324   3.772   6.981   7.578 -0.5464  0.5888 -0.3669
  223MOL0     C29325   3.792   6.834   7.524  0.8758  0.5953  0.2053
  223MOL0     C29326   3.916   6.797   7.453  0.1467 -0.8078 -0.0704
  223MOL0     C29327   4.042   6.824   7.534 -0.4722  0.1991  0.3874
  223MOL0     O29328   4.047   6.728   7.651 -0.0664 -0.0122  0.2082
  223MOL0     C29329   4.157   6.737   7.718 -0.0982 -0.3817 -0.5304
  223MOL0     C29330   4.207   6.619   7.766  0.1313 -0.5374 -0.1974
  223MOL0     C29331   4.319   6.617   7.844 -0.2189  0.3425 -0.0391
  223MOL0     C29332   4.385   6.732   7.873  1.0983  0.6317 -0.4630
  223MOL0     C29333   4.505   6.729   7.961  0.1103  0.2853 -0.2744
  223MOL0     O29334   4.581   6.840   7.974  0.4405 -0.1521  0.2966
  223MOL0     C29335   4.691   6.844   8.062 -0.0569 -0.4851 -0.1658
  223MOL0     C29336   4.695   6.951   8.149  0.5630 -0.4751 -0.4461
  223MOL0     C29337   4.816   6.972   8.231  0.3436  0.8505  0.2681
  223MOL0     C29338   4.926   6.875   8.216 -0.2716 -1.0098 -0.5618
  223MOL0     O29339   5.038   6.908   8.291 -0.1789  0.3335  1.0493
  223MOL0     C29340   5.165   6.931   8.229 -0.3176 -0.1387  1.0591
  223MOL0     C29341   5.249   6.804   8.276  0.1368 -0.1563 -0.1669
  223MOL0     C29342   5.382   6.793   8.204 -0.5808 -0.2458 -0.1382
  223MOL0     C29343   5.382   6.781   8.045 -0.2591  0.3319  0.0386
  223MOL0     C29344   5.513   6.777   7.972  0.3723  0.8291 -0.4676
  223MOL0     C29345   5.595   6.652   7.997 -0.4362 -0.9802 -0.1887
  223MOL0     C29346   5.740   6.668   7.947  0.0055 -0.0028  0.3619
  223MOL0     C29347   5.801   6.536   7.974  0.2487 -0.3203  0.5036
  223MOL0    Cl29348   5.982   6.555   7.932 -0.5865 -0.2014  0.3162
  223MOL0     C29349   4.916   6.766   8.137  0.5021 -0.0609  1.1039
  223MOL0     C29350   4.794   6.756   8.056 -0.1209  0.7102 -0.3719
  223MOL0     O29351   4.533   6.624   8.021  0.5337  0.4640 -0.5820
  223MOL0     C29352   4.343   6.849   7.829  0.4208 -0.2221 -0.3509
  223MOL0     C29353   4.235   6.858   7.744 -0.7449  0.0434 -0.5534
  223MOL0     N29354   3.620   7.031   7.774  0.1983  1.3860 -0.2051
  223MOL0     N29355   3.494   7.055   7.786  0.6868 -0.1653  0.2689
  223MOL0     C29356   3.154   8.053   7.643  0.8448 -0.1524  0.2286
  223MOL0     C29357   3.223   8.147   7.724  0.1711  1.0486  0.5570
  223MOL0     C29358   3.475   8.355   8.041  1.2594  0.5790  0.0937
  223MOL0     C29359   3.421   8.467   7.969 -0.2289  0.6010 -0.2977
  223MOL0     C29360   3.448   8.598   8.010 -0.4299  0.1966  0.5479
  223MOL0     C29361   3.524   8.624   8.118 -0.2293 -0.4981 -0.6144
  223MOL0     O29362   3.537   8.748   8.170 -0.1819 -0.1082 -0.6090
  223MOL0     C29363   3.413   8.796   8.212  0.0981 -0.0818 -0.3045
  223MOL0     C29364   3.415   8.896   8.323 -0.6616 -0.0490  0.0444
  223MOL0     C29365   3.526   9.001   8.306 -0.1153 -0.3295  0.3956
  223MOL0     C29366   3.473   9.108   8.206 -0.3339 -0.1072  0.0273
  223MOL0     C29367   3.364   9.183   8.258 -0.8410  0.0612  0.3999
  223MOL0     C29368   3.264   9.238   8.303  0.6587 -0.5862 -0.1301
  223MOL0     C29369   3.566   8.520   8.195  0.4864 -0.4116  1.1327
  223MOL0     C29370   3.548   8.390   8.151 -0.1139 -0.7000 -0.7536
  223MOL0     H29371   3.417   7.930   7.907  0.2957 -0.1070 -0.5442
  223MOL0     H29372   3.281   7.769   7.761 -0.3875 -0.6252 -1.8277
  223MOL0     H29373   3.040   7.898   7.398  0.1948  2.6010  1.2631
  223MOL0     H29374   2.964   7.884   7.558 -3.9760 -0.2330 -2.6405
  223MOL0     H29375   2.999   7.692   7.330 -0.3226  0.1929  0.3609
  223MOL0     H29376   2.872   7.703   7.459 -0.1523  0.7223  2.4885
  223MOL0     H29377   2.977   7.557   7.589 -0.4772 -1.1175 -1.0912
  223MOL0     H29378   3.142   7.570   7.524 -0.6575  1.7697  2.0638
  223MOL0     H29379   2.913   7.401   7.417  1.3411 -3.4306  0.2865
  223MOL0     H29380   3.012   7.491   7.304  0.6314 -1.0917 -0.0952
  223MOL0     H29381   3.214   7.385   7.384 -0.2069 -0.0792 -0.6079
  223MOL0     H29382   3.095   7.266   7.325  2.0436  1.9462 -0.9990
  223MOL0     H29383   3.079   7.183   7.532  0.3473  0.2611  1.7441
  223MOL0     H29384   3.126   7.326   7.626  3.6820  0.7279  1.0382
  223MOL0     H29385   3.329   7.191   7.449 -2.3262 -1.5360  0.2863
  223MOL0     H29386   3.354   7.305   7.581  0.9208 -1.6988  2.2196
  223MOL0     H29387   3.247   7.025   7.601  1.2021 -2.2074  2.4051
  223MOL0     H29388   3.260   7.140   7.743  2.1360  2.5893 -0.0071
  223MOL0     H29389   3.519   7.040   7.462 -0.0709 -1.2249  0.0884
  223MOL0     H29390   3.847   7.002   7.655  1.2022  0.8591 -2.0609
  223MOL0     H29391   3.804   7.050   7.499  2.4181 -1.9962 -1.6242
  223MOL0     H29392   3.707   6.818   7.457  1.7160  1.0503 -1.0044
  223MOL0     H29393   3.765   6.763   7.603  2.3749  1.6119  1.6948
  223MOL0     H29394   3.909   6.695   7.412  0.0391 -0.6001 -0.5794
  223MOL0     H29395   3.925   6.855   7.361 -0.5496  1.6344  1.2985
  223MOL0     H29396   4.044   6.931   7.558 -0.9637  0.0980  0.9079
  223MOL0     H29397   4.131   6.803   7.473 -0.2041  2.1381  0.0397
  223MOL0     H29398   4.158   6.522   7.754  1.8697 -1.2959 -1.7496
  223MOL0     H29399   4.340   6.522   7.892 -0.6893  0.6536  0.7899
  223MOL0     H29400   4.625   7.034   8.145  0.1855 -0.6498  1.5585
  223MOL0     H29401   4.836   7.057   8.296 -2.9746  3.9783 -2.3328
  223MOL0     H29402   5.206   7.028   8.260 -1.5055  0.7019  0.0834
  223MOL0     H29403   5.148   6.943   8.122 -2.6937 -0.6987  1.3209
  223MOL0     H29404   5.184   6.717   8.263 -1.8735  1.0196  1.4128
  223MOL0     H29405   5.264   6.805   8.384  1.2658 -1.3928 -0.2831
  223MOL0     H29406   5.421   6.703   8.253 -0.6640 -0.0758  0.2457
  223MOL0     H29407   5.448   6.876   8.231 -0.5823  0.3953 -1.9402
  223MOL0     H29408   5.321   6.694   8.019 -0.9768  0.5049  1.0636
  223MOL0     H29409   5.331   6.868   8.003 -1.2176  0.2896  1.0396
  223MOL0     H29410   5.576   6.857   8.013  1.7115  0.3051 -1.4171
  223MOL0     H29411   5.494   6.794   7.865  1.4387  1.9541 -0.5017
  223MOL0     H29412   5.552   6.557   7.965  0.7311 -1.3674 -0.6681
  223MOL0     H29413   5.584   6.649   8.106 -0.8319 -0.6625 -0.2179
  223MOL0     H29414   5.734   6.693   7.840  0.7227 -0.4831  0.1968
  223MOL0     H29415   5.804   6.738   8.001  2.6138 -0.2694 -2.1238
  223MOL0     H29416   5.748   6.453   7.925 -1.2387 -0.9787  2.9923
  223MOL0     H29417   5.786   6.517   8.081 -0.5262  0.7520  0.5998
  223MOL0     H29418   5.008   6.711   8.120  0.7865  0.5556  0.5920
  223MOL0     H29419   4.779   6.671   7.990 -0.8108  2.3922 -2.4693
  223MOL0     H29420   4.393   6.943   7.852  2.5772 -1.4377  0.2209
  223MOL0     H29421   4.206   6.949   7.693 -0.9651 -0.7599 -1.9001
  223MOL0     H29422   3.070   8.091   7.585 -2.6791 -5.0684  1.5110
  223MOL0     H29423   3.185   8.248   7.725 -0.7725  0.7029  0.7532
  223MOL0     H29424   3.359   8.463   7.880  0.3569  3.8679 -0.9704
  223MOL0     H29425   3.396   8.670   7.948 -1.5541 -0.1503  1.0759
  223MOL0     H29426   3.338   8.723   8.245 -0.7324 -0.1368 -2.2140
  223MOL0     H29427   3.365   8.839   8.123 -2.1480 -0.3989  0.6795
  223MOL0     H29428   3.312   8.931   8.334 -1.8872 -3.6460  1.3703
  223MOL0     H29429   3.445   8.848   8.417 -1.0100  0.9063  0.6564
  223MOL0     H29430   3.612   8.957   8.255  0.7164  0.1828  1.3454
  223MOL0     H29431   3.543   9.040   8.406  0.7867  0.1317  0.0691
  223MOL0     H29432   3.548   9.188   8.202 -1.0905  0.6681 -4.8793
  223MOL0     H29433   3.465   9.071   8.104 -0.2239  3.1848 -1.2918
  223MOL0     H29434   3.187   9.285   8.360  2.3900  0.1989  1.6982
  223MOL0     H29435   3.598   8.543   8.296 -1.2365  1.0956  1.3942
  223MOL0     H29436   3.591   8.308   8.208  2.9974 -0.1589 -2.0864
  224MOL0     O29437  10.753   4.405   0.378 -0.6238 -0.8280 -0.8098
  224MOL0     C29438  10.654   4.452   0.321  0.0410  0.3954 -0.4536
  224MOL0     O29439  10.531   4.460   0.380 -0.3122 -0.1527 -0.0415
  224MOL0     C29440  10.518   4.428   0.511 -0.5895 -0.0429 -0.7112
  224MOL0     C29441  10.534   4.295   0.554  0.3077  0.5761 -1.0440
  224MOL0     C29442  10.494   4.259   0.686 -0.8729 -1.3289  0.2819
  224MOL0     C29443  10.449   4.354   0.773 -0.3933 -0.5862 -0.5946
  224MOL0     O29444  10.421   4.318   0.901 -0.5501  0.3334 -0.2246
  224MOL0     C29445  10.426   4.411   1.012  0.5666  0.8269 -0.4918
  224MOL0     C29446  10.415   4.335   1.152 -0.0348  0.5028  0.0383
  224MOL0     C29447  10.295   4.258   1.170  0.6872 -0.4001 -0.7556
  224MOL0     C29448  10.295   4.212   1.317 -0.0405  0.0672 -0.6699
  224MOL0     C29449  10.168   4.127   1.355 -0.7104  0.8235  0.7285
  224MOL0     C29450  10.099   4.157   1.496  0.2687  0.1750  0.1451
  224MOL0     C29451  10.160   4.070   1.603 -0.5244  1.0060 -0.5151
  224MOL0     C29452  10.125   4.107   1.749  0.2528  0.8030 -0.8703
  224MOL0     N29453   9.994   4.060   1.784  0.5251 -0.5154  0.4427
  224MOL0     C29454   9.907   4.127   1.867 -0.2721  0.8038 -0.8060
  224MOL0     C29455   9.793   4.042   1.882  0.6081  0.6295  0.5146
  224MOL0     C29456   9.674   4.056   1.970 -0.2066 -0.3733 -0.4370
  224MOL0     C29457   9.706   4.017   2.118  0.3372  0.6156 -0.2134
  224MOL0     C29458   9.616   4.084   2.216 -0.3794 -0.4759  0.3373
  224MOL0     C29459   9.642   4.042   2.355 -0.2710 -0.4414  0.2601
  224MOL0     O29460   9.543   4.114   2.426 -0.0285  0.6138 -0.3523
  224MOL0     C29461   9.426   4.066   2.471 -0.0649  0.3467  0.0751
  224MOL0     C29462   9.405   3.929   2.493  0.1663 -0.0034  0.6754
  224MOL0     C29463   9.290   3.885   2.548 -0.0877 -0.3587  0.4421
  224MOL0     C29464   9.180   3.973   2.567 -0.6608  0.2509 -0.0030
  224MOL0     C29465   9.048   3.929   2.624 -0.1546 -0.1543 -0.6990
  224MOL0     O29466   9.028   3.794   2.614  0.3204  0.2818  0.3663
  224MOL0     C29467   8.915   3.749   2.675 -0.7874 -0.2961  0.1712
  224MOL0     C29468   8.801   3.730   2.592  0.7717 -0.6159  0.2650
  224MOL0     C29469   8.677   3.703   2.654 -0.2943  0.5034  0.4849
  224MOL0     C29470   8.671   3.686   2.790  0.2781  0.0545  0.1846
  224MOL0     O29471   8.571   3.611   2.835  0.5933  0.9211  0.0465
  224MOL0     C29472   8.446   3.670   2.867  0.3381  0.4674 -1.0707
  224MOL0     C29473   8.360   3.580   2.965 -0.4512  0.0372 -0.1926
  224MOL0     C29474   8.237   3.653   3.003 -0.2767 -0.4126 -0.3352
  224MOL0     C29475   8.275   3.751   3.114  0.1603  0.5436 -0.0878
  224MOL0     C29476   8.190   3.728   3.237 -0.2132  0.0504 -0.3117
  224MOL0     C29477   8.248   3.615   3.331 -0.3168  0.1432 -1.1093
  224MOL0     C29478   8.149   3.542   3.409 -0.0719 -0.3692  0.5440
  224MOL0     C29479   8.215   3.459   3.519 -0.4821 -0.1605  0.4054
  224MOL0    Cl29480   8.376   3.378   3.460  0.3372 -0.3715  0.2731
  224MOL0     C29481   8.786   3.695   2.868  0.1711  0.1273 -0.4651
  224MOL0     C29482   8.908   3.722   2.808 -0.6581  0.0962  0.5992
  224MOL0     O29483   8.977   4.014   2.681  0.3471  0.5960  0.0295
  224MOL0     C29484   9.203   4.113   2.551 -0.7900 -0.2633 -0.4653
  224MOL0     C29485   9.332   4.153   2.509  0.0753  0.4105  0.1109
  224MOL0     N29486   9.829   3.917   1.825  0.2848 -0.1446 -0.3077
  224MOL0     N29487   9.946   3.931   1.767  0.2865 -0.2698 -0.0923
  224MOL0     C29488  10.450   4.487   0.737  0.3830 -0.6134  0.4947
  224MOL0     C29489  10.473   4.524   0.601 -0.3115 -0.2784 -0.9954
  224MOL0     C29490  10.677   4.490   0.170 -0.9971  0.7057 -0.8650
  224MOL0     C29491  10.566   4.526   0.091 -0.6949  0.3811  0.0067
  224MOL0     C29492  10.586   4.519  -0.051 -0.9161  0.2965 -0.3218
  224MOL0     C29493  10.713   4.500  -0.111  0.4113  0.4285  0.0085
  224MOL0     O29494  10.719   4.498  -0.243  0.2955  0.3535  0.1300
  224MOL0     C29495  10.847   4.490  -0.298 -0.5798 -0.0961  0.4817
  224MOL0     C29496  10.837   4.513  -0.443  0.8043  0.4405  0.5131
  224MOL0     C29497  10.700   4.462  -0.506  0.4186 -0.6235 -0.1740
  224MOL0     C29498  10.726   4.437  -0.658 -0.1585 -0.3580 -0.6591
  224MOL0     C29499  10.635   4.348  -0.714 -0.7286 -0.1251  1.1855
  224MOL0     C29500  10.558   4.273  -0.762  0.0430  0.4660 -0.2682
  224MOL0     C29501  10.816   4.487  -0.026 -0.2073  0.5635 -0.4994
  224MOL0     C29502  10.804   4.478   0.111  0.7493  0.9893  0.1282
  224MOL0     H29503  10.578   4.219   0.489  0.2273  1.1256 -1.7520
  224MOL0     H29504  10.511   4.154   0.705 -0.0692 -1.2313  0.1563
  224MOL0     H29505  10.347   4.486   1.006  0.1071  0.2422 -2.5638
  224MOL0     H29506  10.529   4.448   1.016 -0.1965  3.0884 -0.4410
  224MOL0     H29507  10.417   4.418   1.223 -2.0160  1.0371 -0.4610
  224MOL0     H29508  10.500   4.266   1.155 -1.9147 -1.8871  1.6052
  224MOL0     H29509  10.282   4.163   1.117 -2.2399 -0.0831 -0.7970
  224MOL0     H29510  10.203   4.313   1.151  0.2771 -0.7477  0.1529
  224MOL0     H29511  10.386   4.151   1.325 -0.7495 -0.8212  1.6336
  224MOL0     H29512  10.305   4.303   1.377 -0.6734  2.4607 -3.9105
  224MOL0     H29513  10.191   4.021   1.347  1.9807  1.4199 -0.2377
  224MOL0     H29514  10.096   4.143   1.275  0.5986 -0.4522 -0.7544
  224MOL0     H29515   9.996   4.118   1.493 -0.1589  1.2950 -0.3794
  224MOL0     H29516  10.113   4.264   1.515  2.9803  0.3722 -2.2248
  224MOL0     H29517  10.143   3.965   1.581  2.6084  0.0202  1.2820
  224MOL0     H29518  10.268   4.085   1.594 -0.6095  3.0445  1.0473
  224MOL0     H29519  10.128   4.214   1.773 -2.0504  0.7711 -0.1244
  224MOL0     H29520  10.195   4.049   1.810 -1.1042  0.6470  0.6033
  224MOL0     H29521   9.923   4.219   1.922  1.3623 -0.1926  0.4762
  224MOL0     H29522   9.593   3.990   1.938 -1.1006  0.3759  0.2287
  224MOL0     H29523   9.646   4.162   1.969  0.5798 -0.1423  0.5834
  224MOL0     H29524   9.807   4.041   2.152  0.3439 -0.3271  0.4617
  224MOL0     H29525   9.695   3.909   2.134 -1.5746  0.5625 -1.5578
  224MOL0     H29526   9.637   4.191   2.209  2.1377 -0.7443  2.2173
  224MOL0     H29527   9.509   4.076   2.195 -0.0693  0.7203 -2.0507
  224MOL0     H29528   9.744   4.073   2.384 -0.1808  0.3561 -0.8078
  224MOL0     H29529   9.640   3.933   2.363 -0.8652 -0.6535 -1.9757
  224MOL0     H29530   9.483   3.854   2.481 -0.2677 -0.4941  0.8421
  224MOL0     H29531   9.278   3.779   2.567 -2.3020 -0.3181 -0.3858
  224MOL0     H29532   8.809   3.745   2.485 -0.0042 -2.1542 -0.0376
  224MOL0     H29533   8.590   3.677   2.594 -0.6963  1.9187  0.4327
  224MOL0     H29534   8.389   3.669   2.774  0.8731  0.3238 -1.4048
  224MOL0     H29535   8.451   3.773   2.903 -1.2967 -0.9673  4.2513
  224MOL0     H29536   8.420   3.550   3.051 -0.4127  0.6990  0.0150
  224MOL0     H29537   8.338   3.486   2.912  0.8453 -0.0435 -0.6337
  224MOL0     H29538   8.166   3.583   3.050 -0.8561  0.9025  0.8490
  224MOL0     H29539   8.194   3.697   2.913 -2.7680 -3.6534 -0.9218
  224MOL0     H29540   8.383   3.755   3.134 -0.3237  0.8592  2.8336
  224MOL0     H29541   8.248   3.851   3.077  2.1530  0.0815 -3.2525
  224MOL0     H29542   8.087   3.705   3.209 -0.6115  1.4123 -0.0355
  224MOL0     H29543   8.176   3.825   3.286  0.3169  1.4626 -2.8161
  224MOL0     H29544   8.321   3.659   3.400 -0.0991 -2.1148  0.2004
  224MOL0     H29545   8.310   3.544   3.275 -1.4623 -0.9239 -1.0406
  224MOL0     H29546   8.069   3.608   3.444 -0.2234 -1.4510  2.3884
  224MOL0     H29547   8.103   3.481   3.331 -0.6617  1.2041 -0.3768
  224MOL0     H29548   8.144   3.383   3.554  1.1711 -0.5957  3.0556
  224MOL0     H29549   8.244   3.524   3.601  2.6954 -1.8409  0.7835
  224MOL0     H29550   8.782   3.681   2.975 -0.1091  1.3897 -0.3023
  224MOL0     H29551   8.995   3.732   2.872 -2.0697 -0.4237  2.7193
  224MOL0     H29552   9.133   4.189   2.585  0.1581  0.2972  0.2834
  224MOL0     H29553   9.355   4.259   2.511 -1.5831  0.7898  1.9585
  224MOL0     H29554  10.449   4.570   0.807  5.3357 -0.6968  1.0464
  224MOL0     H29555  10.458   4.623   0.560  2.6109  1.3460  1.3956
  224MOL0     H29556  10.465   4.549   0.122 -1.3963 -1.1917 -1.0133
  224MOL0     H29557  10.510   4.543  -0.125  2.7216  3.8214 -3.3818
  224MOL0     H29558  10.909   4.404  -0.270  1.8360  1.4924  0.2521
  224MOL0     H29559  10.909   4.571  -0.259  1.2452 -1.7416  1.1596
  224MOL0     H29560  10.868   4.615  -0.464  4.1559 -0.2846  1.2987
  224MOL0     H29561  10.919   4.456  -0.488  0.8986 -0.2523  1.5186
  224MOL0     H29562  10.620   4.532  -0.480  2.9422  2.7808 -0.7757
  224MOL0     H29563  10.682   4.364  -0.462  2.2669 -0.2922  1.4625
  224MOL0     H29564  10.732   4.533  -0.712  3.2064  0.4724  0.8885
  224MOL0     H29565  10.826   4.394  -0.668 -0.0137 -0.2591  0.3314
  224MOL0     H29566  10.477   4.225  -0.814 -0.5421  1.3657 -0.2228
  224MOL0     H29567  10.921   4.482  -0.051  0.3080 -0.6224  1.7122
  224MOL0     H29568  10.897   4.451   0.159  1.3655  0.6520 -1.2053
  225MOL0     O29569  10.806   9.413   1.885 -0.5496  0.1224 -0.3638
  225MOL0     C29570  10.786   9.364   1.776 -0.7385 -0.0047  0.4652
  225MOL0     O29571  10.803   9.431   1.660  1.0509  0.3096 -0.6949
  225MOL0     C29572  10.877   9.545   1.661 -0.0694 -1.1365  0.2921
  225MOL0     C29573  10.997   9.538   1.606 -1.1024 -0.2196  0.9919
  225MOL0     C29574  11.083   9.645   1.606  0.2855 -1.4284 -0.9249
  225MOL0     C29575  11.036   9.776   1.649 -1.2724  1.4355  0.1248
  225MOL0     O29576  11.116   9.885   1.652  0.2323 -1.2200  0.0491
  225MOL0     C29577  11.252   9.909   1.616  0.9500 -0.1330  0.0868
  225MOL0     C29578  11.248  10.060   1.592  0.2616  0.3386  0.0325
  225MOL0     C29579  11.384  10.121   1.565  0.5908  1.3401 -0.0791
  225MOL0     C29580  11.376  10.253   1.498  0.3674 -0.1338 -0.4194
  225MOL0     C29581  11.508  10.329   1.494 -0.0915 -0.1646  0.1878
  225MOL0     C29582  11.568  10.370   1.629  0.2421 -0.2525 -0.1962
  225MOL0     C29583  11.712  10.428   1.628 -0.0105  0.0071 -0.2239
  225MOL0     C29584  11.739  10.512   1.756 -0.4582  0.2420 -0.5322
  225MOL0     N29585  11.886  10.545   1.771  0.2300  0.4840 -0.2312
  225MOL0     C29586  11.978  10.450   1.814 -0.3017 -0.2842  0.1942
  225MOL0     C29587  12.099  10.503   1.802 -0.0236 -0.3901 -0.5912
  225MOL0     C29588  12.225  10.432   1.832 -0.1868  0.0906 -0.6404
  225MOL0     C29589  12.272  10.346   1.718 -0.4861  0.2066 -0.2485
  225MOL0     C29590  12.255  10.194   1.726 -0.1132  0.1946 -0.0373
  225MOL0     C29591  12.274  10.131   1.867  0.6260 -0.6499 -0.7387
  225MOL0     O29592  12.389  10.181   1.932 -0.2643 -0.0434 -0.7263
  225MOL0     C29593  12.411  10.147   2.061 -0.2875  0.6712 -0.1014
  225MOL0     C29594  12.492  10.225   2.135 -0.5414 -0.1056 -0.3949
  225MOL0     C29595  12.520  10.201   2.269 -0.4133  0.5120  0.6581
  225MOL0     C29596  12.480  10.085   2.329 -0.1223  0.1436 -0.2372
  225MOL0     C29597  12.527  10.054   2.466 -0.7696  0.4106 -0.2575
  225MOL0     O29598  12.572  10.152   2.558 -0.3356  0.3805  0.4180
  225MOL0     C29599  12.614  10.120   2.687  0.2279  0.4846  0.3576
  225MOL0     C29600  12.673  10.005   2.728 -0.2994 -1.0554  0.9157
  225MOL0     C29601  12.702   9.981   2.861 -0.5571 -0.8569  0.8606
  225MOL0     C29602  12.683  10.078   2.952 -0.5414  0.5737  0.2293
  225MOL0     O29603  12.725  10.051   3.082 -0.2682  0.8396 -0.1451
  225MOL0     C29604  12.641  10.078   3.197 -1.0648 -0.0384  0.4504
  225MOL0     C29605  12.673   9.983   3.313 -0.8884 -0.5116  0.8770
  225MOL0     C29606  12.545   9.979   3.395  0.0475  0.6358 -0.5434
  225MOL0     C29607  12.502  10.110   3.471  0.9256  0.2277  0.2298
  225MOL0     C29608  12.409  10.207   3.401 -0.1080 -0.2545 -0.2623
  225MOL0     C29609  12.286  10.252   3.475  1.0115 -0.9339 -0.0028
  225MOL0     C29610  12.320  10.346   3.595 -0.6904  0.1881  0.0667
  225MOL0     C29611  12.182  10.411   3.634 -0.6078  0.1165 -0.5616
  225MOL0    Cl29612  12.213  10.505   3.792 -0.3947 -0.3174  0.0798
  225MOL0     C29613  12.625  10.190   2.916 -1.4209 -0.7886  0.2039
  225MOL0     C29614  12.591  10.219   2.780 -0.1846  0.1704 -0.2335
  225MOL0     O29615  12.511   9.936   2.496  0.6194 -0.7783 -0.2429
  225MOL0     C29616  12.405   9.998   2.251  0.3467 -0.4629 -0.3226
  225MOL0     C29617  12.362  10.029   2.115 -0.3557  0.4638 -0.0155
  225MOL0     N29618  12.087  10.636   1.749  0.3212  0.3135 -0.1694
  225MOL0     N29619  11.959  10.663   1.730 -0.2773  0.0772  0.0342
  225MOL0     C29620  10.907   9.787   1.685 -0.1636  0.5816 -0.8234
  225MOL0     C29621  10.825   9.670   1.686 -0.1072 -1.1156 -0.3542
  225MOL0     C29622  10.731   9.231   1.776 -0.2953 -0.9020  0.1595
  225MOL0     C29623  10.773   9.136   1.684 -0.0684 -0.0525  0.1846
  225MOL0     C29624  10.735   9.003   1.687  0.2775  0.6001  0.4425
  225MOL0     C29625  10.651   8.961   1.784  0.0967  0.0881 -0.9447
  225MOL0     O29626  10.604   8.830   1.779 -0.4592 -0.1315 -0.2180
  225MOL0     C29627  10.505   8.788   1.877 -0.3853 -0.7728  0.3994
  225MOL0     C29628  10.511   8.636   1.887  0.1541 -0.1701 -0.7549
  225MOL0     C29629  10.511   8.570   1.745 -0.0299 -0.1301 -0.0335
  225MOL0     C29630  10.532   8.424   1.762 -1.4524  0.9107  0.9824
  225MOL0     C29631  10.431   8.357   1.845  0.9954  0.2233 -0.0204
  225MOL0     C29632  10.354   8.294   1.918 -0.1137 -0.6031 -0.0580
  225MOL0     C29633  10.598   9.055   1.879 -0.0596 -0.0972  0.1984
  225MOL0     C29634  10.645   9.190   1.882 -0.3983  0.4663 -0.1760
  225MOL0     H29635  11.038   9.443   1.573  1.1600  1.2239 -0.6927
  225MOL0     H29636  11.186   9.652   1.572 -0.0992  1.0295 -1.7871
  225MOL0     H29637  11.273   9.859   1.521  0.9391  2.1195 -1.1778
  225MOL0     H29638  11.323   9.866   1.686  1.1063  0.6453  0.4175
  225MOL0     H29639  11.211  10.108   1.683  0.5357  1.6661 -0.5184
  225MOL0     H29640  11.174  10.095   1.519 -0.7050  0.0384  0.8573
  225MOL0     H29641  11.438  10.049   1.503  1.3684  1.2927  0.6355
  225MOL0     H29642  11.442  10.124   1.658 -0.2250 -1.6560  0.6271
  225MOL0     H29643  11.345  10.246   1.394 -1.0593 -0.6960  0.0182
  225MOL0     H29644  11.294  10.305   1.549 -0.9188  0.0746 -2.5697
  225MOL0     H29645  11.499  10.411   1.421  1.1111 -2.1805 -2.3866
  225MOL0     H29646  11.590  10.270   1.451 -0.3104 -0.3663  0.0468
  225MOL0     H29647  11.551  10.288   1.700 -0.8586  0.2125  0.0846
  225MOL0     H29648  11.501  10.445   1.670 -0.9609  0.6394 -3.5056
  225MOL0     H29649  11.790  10.352   1.629 -0.7281 -0.7669  1.8462
  225MOL0     H29650  11.721  10.496   1.543 -2.0699 -1.6292 -1.8885
  225MOL0     H29651  11.710  10.452   1.843  1.5938 -0.4233 -0.2472
  225MOL0     H29652  11.687  10.608   1.755  1.9490  1.6363 -1.6504
  225MOL0     H29653  11.957  10.353   1.858  1.4534 -0.6363  0.3077
  225MOL0     H29654  12.209  10.367   1.918 -1.9286  0.5749 -0.5546
  225MOL0     H29655  12.296  10.512   1.852  0.3190 -0.7344  0.9826
  225MOL0     H29656  12.379  10.365   1.731 -0.2336  0.0058 -1.8588
  225MOL0     H29657  12.244  10.376   1.616  1.9178  1.6138 -0.5644
  225MOL0     H29658  12.149  10.180   1.704  0.2615 -1.2195 -1.0965
  225MOL0     H29659  12.319  10.140   1.655 -3.1481 -1.2320 -1.8503
  225MOL0     H29660  12.276  10.021   1.869 -1.1020 -0.7421 -2.2152
  225MOL0     H29661  12.190  10.163   1.930  0.6026 -1.0806 -0.5458
  225MOL0     H29662  12.522  10.317   2.087  2.5693 -0.6943  0.2093
  225MOL0     H29663  12.582  10.277   2.314  2.8951 -1.0665 -0.9124
  225MOL0     H29664  12.711   9.930   2.660  0.3942 -1.5539  1.8240
  225MOL0     H29665  12.736   9.881   2.888 -2.7048 -1.6877  0.6764
  225MOL0     H29666  12.536  10.064   3.172 -1.1458  0.5607  0.4439
  225MOL0     H29667  12.662  10.180   3.231  0.7689  0.5395 -2.0777
  225MOL0     H29668  12.760  10.017   3.370  1.0059  0.8165 -2.5547
  225MOL0     H29669  12.702   9.882   3.284 -0.8606  0.1496 -1.6190
  225MOL0     H29670  12.554   9.903   3.473  1.0702  0.4013 -0.8719
  225MOL0     H29671  12.469   9.931   3.332  0.8321 -0.9743 -0.3270
  225MOL0     H29672  12.460  10.094   3.571 -4.1470  0.5891 -1.6080
  225MOL0     H29673  12.592  10.172   3.485  2.3099 -0.6931 -3.5123
  225MOL0     H29674  12.384  10.146   3.314  3.4330 -0.8040 -1.0325
  225MOL0     H29675  12.462  10.297   3.370  2.0086 -1.7939 -1.3249
  225MOL0     H29676  12.221  10.169   3.501 -2.0257  1.2236 -0.1989
  225MOL0     H29677  12.231  10.309   3.399 -1.0933 -2.2687  0.4375
  225MOL0     H29678  12.361  10.295   3.682  2.7049  1.2795 -0.7274
  225MOL0     H29679  12.382  10.429   3.558  0.3594 -0.1299  1.0604
  225MOL0     H29680  12.109  10.330   3.646  0.6234 -0.9525 -0.0672
  225MOL0     H29681  12.140  10.480   3.560 -1.9919 -0.0332  0.0431
  225MOL0     H29682  12.602  10.261   2.994  2.8313 -0.8396  1.7559
  225MOL0     H29683  12.579  10.325   2.760  0.5854  0.5133  1.0129
  225MOL0     H29684  12.389   9.894   2.277  0.8844 -0.2691  0.8262
  225MOL0     H29685  12.308   9.963   2.047  3.1434 -1.3665 -1.2773
  225MOL0     H29686  10.885   9.888   1.718  2.0875  0.7731  0.3058
  225MOL0     H29687  10.718   9.664   1.701 -0.4828 -0.3977 -2.4107
  225MOL0     H29688  10.840   9.177   1.609 -1.5280  0.0158 -1.1392
  225MOL0     H29689  10.758   8.931   1.609  1.9939  0.2930  1.2085
  225MOL0     H29690  10.413   8.828   1.834  0.5284 -2.3747 -3.4775
  225MOL0     H29691  10.543   8.830   1.970  2.8680 -0.3895 -0.9551
  225MOL0     H29692  10.606   8.607   1.933  1.0806 -0.9682 -3.0436
  225MOL0     H29693  10.433   8.592   1.951 -1.2289  1.2428 -1.3958
  225MOL0     H29694  10.601   8.600   1.692 -0.5208 -2.4197 -2.3587
  225MOL0     H29695  10.420   8.590   1.687 -2.7211  0.0480  3.8736
  225MOL0     H29696  10.546   8.370   1.668  2.8543  1.4633  1.1252
  225MOL0     H29697  10.628   8.412   1.814 -1.5117  0.5979  1.0217
  225MOL0     H29698  10.291   8.221   1.966  0.2933 -1.9167 -1.4496
  225MOL0     H29699  10.526   9.028   1.955  1.4295  1.2262  2.1684
  225MOL0     H29700  10.610   9.257   1.960  3.7463  3.0148 -0.1645
  226MOL0     O29701   2.802   0.994   3.747 -0.2702  0.1289 -0.1108
  226MOL0     C29702   2.716   1.003   3.659  1.0899  1.0438  0.4414
  226MOL0     O29703   2.704   1.088   3.559 -0.2813 -0.8090 -0.1538
  226MOL0     C29704   2.790   1.190   3.574  0.3598  0.7970  0.1935
  226MOL0     C29705   2.902   1.168   3.495 -0.0780  0.3817  0.0629
  226MOL0     C29706   2.981   1.266   3.464  0.0129 -0.6648 -0.2726
  226MOL0     C29707   2.958   1.400   3.515  0.3709  1.0730 -0.5693
  226MOL0     O29708   3.045   1.493   3.461 -0.2408  0.2045  0.6123
  226MOL0     C29709   3.051   1.624   3.517  0.0874 -0.6372 -0.5030
  226MOL0     C29710   3.170   1.628   3.603  0.3422  0.6698 -1.2844
  226MOL0     C29711   3.298   1.614   3.515  1.1253 -0.7342  0.3019
  226MOL0     C29712   3.424   1.586   3.603 -0.1635  0.6626  0.3862
  226MOL0     C29713   3.440   1.649   3.740  1.1815  0.2921  0.3500
  226MOL0     C29714   3.567   1.599   3.806  0.0958 -0.1357  0.2581
  226MOL0     C29715   3.679   1.707   3.783 -0.5684 -0.2574  0.1433
  226MOL0     C29716   3.806   1.685   3.866 -0.4093 -0.3693 -0.1114
  226MOL0     N29717   3.801   1.727   4.008 -0.0940 -0.3453 -0.3666
  226MOL0     C29718   3.837   1.850   4.051 -1.0586 -0.0779 -0.4928
  226MOL0     C29719   3.799   1.841   4.186 -0.4359  0.2840  0.2950
  226MOL0     C29720   3.815   1.962   4.272  0.5015  0.7300 -0.4612
  226MOL0     C29721   3.673   2.014   4.323 -0.3218 -0.1115  1.2512
  226MOL0     C29722   3.593   2.079   4.209  0.8415 -0.3998 -0.0919
  226MOL0     C29723   3.639   2.223   4.169  1.0138  0.9552 -0.6734
  226MOL0     O29724   3.761   2.250   4.097  0.0262 -0.2425  0.5015
  226MOL0     C29725   3.777   2.194   3.976  0.4273 -0.8087  0.4481
  226MOL0     C29726   3.672   2.126   3.907  0.6144  0.0127 -0.2879
  226MOL0     C29727   3.690   2.068   3.774  0.2398 -0.5795  0.6393
  226MOL0     C29728   3.818   2.076   3.709 -0.2053 -0.3571 -0.7594
  226MOL0     C29729   3.833   2.015   3.578 -0.2430  0.4746 -0.0085
  226MOL0     O29730   3.729   1.971   3.503  0.3808  0.7157  0.0634
  226MOL0     C29731   3.760   1.906   3.388 -0.4959  0.4572  1.0802
  226MOL0     C29732   3.780   1.766   3.386  0.5737  0.1416 -1.0234
  226MOL0     C29733   3.820   1.700   3.275  0.5514 -0.3545 -0.7639
  226MOL0     C29734   3.842   1.766   3.153  0.5984 -1.5774 -0.0899
  226MOL0     O29735   3.890   1.677   3.057 -0.1870  0.5511  0.3579
  226MOL0     C29736   3.888   1.738   2.927 -0.9419 -0.5677  0.0327
  226MOL0     C29737   3.936   1.609   2.843  0.0574 -0.8954 -0.4425
  226MOL0     C29738   3.876   1.602   2.701 -0.1678  0.2022 -0.2222
  226MOL0     C29739   3.970   1.656   2.592  0.0179 -0.2953  0.0312
  226MOL0     C29740   3.912   1.661   2.450 -0.3613 -0.3324 -0.5574
  226MOL0     C29741   3.880   1.514   2.414 -0.3381 -0.1615  0.1307
  226MOL0     C29742   3.854   1.503   2.263  0.1012  0.6957  0.2442
  226MOL0     C29743   3.710   1.489   2.226 -0.3806 -0.2264 -0.0710
  226MOL0    Cl29744   3.684   1.524   2.063 -0.1023 -0.2526 -0.5742
  226MOL0     C29745   3.809   1.906   3.142  0.4294  0.8670 -0.0626
  226MOL0     C29746   3.777   1.970   3.262  0.0846 -0.2508 -0.8563
  226MOL0     O29747   3.956   2.000   3.551  0.1921  0.5593 -0.0076
  226MOL0     C29748   3.918   2.158   3.776 -0.5357  0.3198 -0.9462
  226MOL0     C29749   3.891   2.222   3.902  0.3661  0.6034 -0.4355
  226MOL0     N29750   3.757   1.718   4.218 -0.3788  0.3750 -0.9874
  226MOL0     N29751   3.758   1.647   4.111 -0.2639  0.0910  0.0076
  226MOL0     C29752   2.852   1.425   3.599 -0.1856  0.7869 -0.8229
  226MOL0     C29753   2.766   1.316   3.635  1.0026 -0.1888  0.4067
  226MOL0     C29754   2.628   0.877   3.645  0.3120 -0.2991  0.4518
  226MOL0     C29755   2.659   0.763   3.724 -0.1981 -0.2957  0.3790
  226MOL0     C29756   2.586   0.645   3.712 -0.2814 -0.1514  0.8926
  226MOL0     C29757   2.476   0.639   3.628 -0.0268 -1.0033  0.6772
  226MOL0     O29758   2.405   0.525   3.609  1.0895 -1.1519  0.8471
  226MOL0     C29759   2.328   0.493   3.731  0.7590  0.3270 -0.7819
  226MOL0     C29760   2.173   0.507   3.722 -0.8241 -0.4854  0.6606
  226MOL0     C29761   2.106   0.497   3.858 -0.7934 -0.5729  0.0743
  226MOL0     C29762   1.959   0.512   3.844 -0.0606 -0.4813 -0.3370
  226MOL0     C29763   1.897   0.383   3.799  0.3899  0.0205  0.8402
  226MOL0     C29764   1.820   0.299   3.752  0.0953  0.2835 -0.5681
  226MOL0     C29765   2.441   0.760   3.563  0.5045  1.1500 -0.0739
  226MOL0     C29766   2.511   0.884   3.563  0.0584  0.0147 -0.2140
  226MOL0     H29767   2.913   1.069   3.453  1.1772  0.8970 -0.8957
  226MOL0     H29768   3.073   1.252   3.410 -1.5574 -0.4371 -3.1877
  226MOL0     H29769   2.960   1.654   3.571  1.2174 -0.6707  1.5125
  226MOL0     H29770   3.057   1.687   3.428  1.2761  2.2438  1.4876
  226MOL0     H29771   3.170   1.551   3.681  0.0622  2.5400  0.6689
  226MOL0     H29772   3.172   1.713   3.672  2.2744 -3.4386  4.5567
  226MOL0     H29773   3.312   1.709   3.463  0.6974 -0.4641  0.6638
  226MOL0     H29774   3.275   1.543   3.435 -3.4689 -1.1988  1.7160
  226MOL0     H29775   3.460   1.483   3.590  3.4489  1.5604  1.9512
  226MOL0     H29776   3.509   1.619   3.543  0.0668 -2.3796 -1.1359
  226MOL0     H29777   3.350   1.620   3.795 -1.6199  2.9705 -2.4270
  226MOL0     H29778   3.435   1.758   3.736 -1.8766  0.3808  2.7091
  226MOL0     H29779   3.601   1.500   3.773 -0.9292 -1.4987  2.9954
  226MOL0     H29780   3.542   1.595   3.912  1.0272  3.5676  0.7525
  226MOL0     H29781   3.713   1.695   3.679 -3.5882  0.8997 -1.0817
  226MOL0     H29782   3.634   1.804   3.803 -0.9552 -0.5987  0.9755
  226MOL0     H29783   3.889   1.740   3.822  0.3602  0.6471  2.4090
  226MOL0     H29784   3.838   1.582   3.853 -1.2697 -0.5633 -0.7646
  226MOL0     H29785   3.882   1.932   3.996 -2.4624  1.3989  0.4665
  226MOL0     H29786   3.870   2.039   4.218  1.9777 -0.8800 -1.3612
  226MOL0     H29787   3.869   1.937   4.364 -1.4185  1.3964  0.9042
  226MOL0     H29788   3.700   2.085   4.402  4.3645  0.4879 -0.6092
  226MOL0     H29789   3.618   1.932   4.370 -0.9095 -3.2048 -4.0025
  226MOL0     H29790   3.561   2.016   4.125 -1.2282  0.9331 -0.3931
  226MOL0     H29791   3.501   2.088   4.269 -0.9311 -3.1064 -2.1340
  226MOL0     H29792   3.625   2.289   4.255 -2.5264 -1.7759  1.0930
  226MOL0     H29793   3.563   2.272   4.108 -2.8732 -4.1203 -0.5911
  226MOL0     H29794   3.574   2.110   3.949  1.9899 -1.7721  2.5165
  226MOL0     H29795   3.608   2.015   3.725  2.8820 -2.5923 -1.9213
  226MOL0     H29796   3.760   1.709   3.476  0.3907  1.5625 -0.1223
  226MOL0     H29797   3.837   1.593   3.282 -0.1675 -0.5097 -1.2153
  226MOL0     H29798   3.956   1.822   2.910 -4.0869  2.2734  0.5049
  226MOL0     H29799   3.784   1.765   2.906 -0.0418  2.5394 -1.0386
  226MOL0     H29800   3.916   1.516   2.897  1.0326 -1.1563 -0.5108
  226MOL0     H29801   4.044   1.618   2.828 -0.2377 -0.0455 -2.4087
  226MOL0     H29802   3.786   1.664   2.707 -0.5069 -0.3379  0.4107
  226MOL0     H29803   3.850   1.500   2.672  1.4676  0.1447 -1.6389
  226MOL0     H29804   3.996   1.758   2.625  0.5918  0.6421 -3.0558
  226MOL0     H29805   4.060   1.594   2.599  0.6780  0.5698 -0.5505
  226MOL0     H29806   3.990   1.692   2.379  1.0543 -0.0851  1.0420
  226MOL0     H29807   3.821   1.720   2.435 -0.7613 -0.6385  0.6298
  226MOL0     H29808   3.788   1.491   2.469 -0.1959 -2.0319 -0.3504
  226MOL0     H29809   3.958   1.440   2.432  2.1562  2.3382  0.3557
  226MOL0     H29810   3.899   1.580   2.200 -2.6936  0.5332 -2.2000
  226MOL0     H29811   3.897   1.408   2.229 -1.0580 -0.0157  0.6764
  226MOL0     H29812   3.651   1.564   2.280  0.4922  2.9688 -3.1733
  226MOL0     H29813   3.653   1.399   2.252  0.0656 -0.3315  0.5873
  226MOL0     H29814   3.810   1.955   3.045 -0.2543 -0.3352 -0.6986
  226MOL0     H29815   3.770   2.078   3.266  1.7212 -0.1521  1.6504
  226MOL0     H29816   4.021   2.154   3.743 -0.7092 -1.0058 -1.3838
  226MOL0     H29817   3.979   2.272   3.943 -0.2087  2.7251 -1.6383
  226MOL0     H29818   2.836   1.521   3.647 -0.8514  1.6762 -2.7301
  226MOL0     H29819   2.689   1.324   3.712  1.3473  3.7685  0.5762
  226MOL0     H29820   2.745   0.758   3.790 -0.7386 -0.7749  1.0621
  226MOL0     H29821   2.629   0.552   3.748 -0.9490 -1.4718 -1.5684
  226MOL0     H29822   2.359   0.552   3.818  1.0609  0.1424 -0.7609
  226MOL0     H29823   2.343   0.386   3.750 -1.3153  0.4127  1.9232
  226MOL0     H29824   2.175   0.614   3.702  1.6901 -0.8663 -1.6882
  226MOL0     H29825   2.123   0.453   3.641 -1.2192  2.3704 -1.1153
  226MOL0     H29826   2.154   0.570   3.923  2.2475 -2.6700  0.3975
  226MOL0     H29827   2.141   0.400   3.896  5.6971  0.2746 -2.4516
  226MOL0     H29828   1.921   0.533   3.944  2.5597 -1.5598  0.9926
  226MOL0     H29829   1.938   0.597   3.778 -0.6969 -1.0906 -0.9359
  226MOL0     H29830   1.774   0.206   3.726 -1.2478  0.6744  0.2672
  226MOL0     H29831   2.343   0.760   3.518  0.7576 -1.7242 -0.8469
  226MOL0     H29832   2.469   0.973   3.517  1.9679  0.0734 -2.0260
  227MOL0     O29833   3.835   7.010  10.335 -0.2151 -0.6868 -0.0976
  227MOL0     C29834   3.838   6.961  10.453 -0.2028 -0.2743  0.0941
  227MOL0     O29835   3.845   6.830  10.484  0.1860  0.1226 -0.2728
  227MOL0     C29836   3.849   6.740  10.388  0.2525  0.4613  0.5522
  227MOL0     C29837   3.744   6.708  10.298 -0.3083 -0.6448 -1.0514
  227MOL0     C29838   3.769   6.609  10.201  0.0361 -0.9690 -0.2955
  227MOL0     C29839   3.891   6.547  10.195 -0.3920  0.0255 -0.9405
  227MOL0     O29840   3.905   6.458  10.094  0.1095  0.3598 -0.1167
  227MOL0     C29841   4.024   6.371  10.094  0.2519 -0.9899 -0.1103
  227MOL0     C29842   4.030   6.307   9.952 -0.6012  0.2800  0.0018
  227MOL0     C29843   3.903   6.232   9.910 -0.8363  0.6302  0.2161
  227MOL0     C29844   3.906   6.156   9.775  1.0245  0.1215  0.5275
  227MOL0     C29845   3.775   6.073   9.732 -0.1816 -0.0022  0.4437
  227MOL0     C29846   3.645   6.157   9.702  1.1869  0.0344  0.1437
  227MOL0     C29847   3.532   6.062   9.666  1.0146 -0.2294 -0.3262
  227MOL0     C29848   3.403   6.144   9.606  0.7963 -0.0043  0.0585
  227MOL0     N29849   3.309   6.179   9.718  0.0827 -0.5912 -0.3065
  227MOL0     C29850   3.330   6.236   9.835  0.4287  0.2798  0.7216
  227MOL0     C29851   3.220   6.282   9.889 -0.6119  1.1847 -0.2044
  227MOL0     C29852   3.204   6.367  10.008  0.1976  0.0753 -0.4684
  227MOL0     C29853   3.055   6.412  10.027  0.4585  0.3706 -0.6375
  227MOL0     C29854   3.025   6.481  10.160  0.0564 -0.9583  0.2194
  227MOL0     C29855   3.044   6.383  10.282  1.3252  0.9604 -0.6285
  227MOL0     O29856   2.949   6.409  10.392  0.1248  0.4281 -0.0711
  227MOL0     C29857   2.956   6.512  10.475 -0.3862  0.1922 -0.9224
  227MOL0     C29858   3.057   6.600  10.487 -0.4998  0.9146 -0.0998
  227MOL0     C29859   3.044   6.704  10.580  0.1377  0.0013  0.2747
  227MOL0     C29860   2.936   6.728  10.662 -0.4283 -0.5510  0.3106
  227MOL0     C29861   2.927   6.833  10.762  0.5451  0.5353 -0.9477
  227MOL0     O29862   3.012   6.949  10.733  0.0411 -1.0511 -0.9724
  227MOL0     C29863   3.006   7.051  10.826 -0.1480  0.6592 -0.0532
  227MOL0     C29864   2.992   7.040  10.964  0.1024 -0.6792  0.5802
  227MOL0     C29865   2.988   7.153  11.042  0.6637 -0.6465 -0.2179
  227MOL0     C29866   2.958   7.284  10.980  0.4696  0.0614  0.5107
  227MOL0     O29867   2.951   7.396  11.062  0.3237 -0.2381  0.0856
  227MOL0     C29868   2.984   7.523  10.998  0.3301  0.1603  0.7068
  227MOL0     C29869   3.030   7.624  11.107  1.0428  1.0286  0.5444
  227MOL0     C29870   3.010   7.777  11.081 -0.0844 -0.2949 -0.5845
  227MOL0     C29871   3.136   7.842  11.020 -0.2180 -0.4499 -0.1990
  227MOL0     C29872   3.110   7.991  11.003  0.0831 -0.3681 -0.9739
  227MOL0     C29873   3.211   8.067  10.911  0.4509  0.4787 -0.3857
  227MOL0     C29874   3.341   8.085  10.987  0.6570 -0.3777  0.4779
  227MOL0     C29875   3.452   8.125  10.887 -0.4510 -0.0071  0.1449
  227MOL0    Cl29876   3.607   8.151  10.975 -0.3707  0.6334  0.0735
  227MOL0     C29877   2.967   7.288  10.838 -1.0623 -0.4913 -0.8896
  227MOL0     C29878   3.002   7.178  10.767 -0.5180  0.3210 -0.1419
  227MOL0     O29879   2.845   6.816  10.856  0.4211 -0.1799  0.0323
  227MOL0     C29880   2.845   6.627  10.651 -0.1920  0.5782  0.0817
  227MOL0     C29881   2.850   6.520  10.558 -0.1397 -0.5480  0.5913
  227MOL0     N29882   3.122   6.229   9.807  0.2706 -0.3273 -0.2123
  227MOL0     N29883   3.178   6.175   9.709  0.2797  0.1879  0.2531
  227MOL0     C29884   3.988   6.595  10.277  0.3211 -0.0735  0.4994
  227MOL0     C29885   3.969   6.689  10.374  0.0963 -0.4002 -0.3565
  227MOL0     C29886   3.854   7.043  10.581  0.0864 -0.6255  1.5660
  227MOL0     C29887   3.920   6.994  10.696 -0.2696 -0.4031  0.3824
  227MOL0     C29888   3.915   7.067  10.820 -0.9282 -0.7052  0.3436
  227MOL0     C29889   3.850   7.194  10.825 -0.2229  1.1717 -0.2665
  227MOL0     O29890   3.855   7.258  10.942 -0.6036  0.3223 -0.7431
  227MOL0     C29891   3.811   7.391  10.942  1.2376  0.9099 -0.4934
  227MOL0     C29892   3.661   7.405  10.969 -0.0287 -0.0566  0.4438
  227MOL0     C29893   3.629   7.536  11.034 -0.1814 -0.6041 -0.0936
  227MOL0     C29894   3.480   7.541  11.069 -0.2865  0.8084 -0.7438
  227MOL0     C29895   3.411   7.588  10.953 -0.1469  0.3845  0.5117
  227MOL0     C29896   3.331   7.602  10.867  0.2394  0.2424  0.0847
  227MOL0     C29897   3.793   7.245  10.704  0.8037  0.4088 -0.7922
  227MOL0     C29898   3.793   7.176  10.585 -0.2067 -0.0821  0.0098
  227MOL0     H29899   3.652   6.759  10.324  0.6283  0.4083  0.3174
  227MOL0     H29900   3.702   6.572  10.124 -0.5369 -1.7638  0.5700
  227MOL0     H29901   4.018   6.301  10.178 -1.3573 -1.2935 -0.4445
  227MOL0     H29902   4.120   6.417  10.117  0.2248 -0.5859 -0.7972
  227MOL0     H29903   4.111   6.234   9.954 -2.7895 -2.3172 -0.2233
  227MOL0     H29904   4.049   6.392   9.887 -0.1721 -0.1593 -0.4475
  227MOL0     H29905   3.831   6.313   9.895  0.9508  2.1339 -0.5948
  227MOL0     H29906   3.875   6.163   9.991  1.0518 -4.2879 -2.8257
  227MOL0     H29907   3.918   6.227   9.693  1.2001 -0.0135  0.4366
  227MOL0     H29908   3.987   6.082   9.773  1.8602  1.0213 -0.8493
  227MOL0     H29909   3.765   6.004   9.816 -2.2173  0.8608  0.9775
  227MOL0     H29910   3.799   6.020   9.639  1.6540 -0.4626  1.1417
  227MOL0     H29911   3.686   6.214   9.618  2.5805 -2.6691 -1.1304
  227MOL0     H29912   3.608   6.227   9.778  1.6019  0.9172 -0.4549
  227MOL0     H29913   3.567   5.989   9.593  0.6156 -0.0117 -0.7426
  227MOL0     H29914   3.509   6.011   9.760 -1.2898  2.6175  0.8264
  227MOL0     H29915   3.355   6.073   9.537  4.2416 -1.0784 -1.4290
  227MOL0     H29916   3.426   6.229   9.542  1.9955  0.5493  1.1912
  227MOL0     H29917   3.431   6.252   9.873  1.3266  0.4863 -1.6186
  227MOL0     H29918   3.273   6.452  10.010 -1.5240  1.6259 -2.0723
  227MOL0     H29919   3.224   6.292  10.085  0.6922 -0.6889 -1.3258
  227MOL0     H29920   2.982   6.331  10.034  0.2902  0.6330  1.1913
  227MOL0     H29921   3.019   6.472   9.942 -1.0215 -0.4856 -0.6504
  227MOL0     H29922   3.104   6.557  10.162 -0.4391 -0.4499  0.9107
  227MOL0     H29923   2.931   6.537  10.168  0.4487 -0.2607  0.0482
  227MOL0     H29924   3.149   6.391  10.313  1.4316 -5.3970  2.0664
  227MOL0     H29925   3.031   6.279  10.251  1.4670  2.0243 -4.9430
  227MOL0     H29926   3.148   6.597  10.428  0.1264 -2.5398  0.8160
  227MOL0     H29927   3.122   6.780  10.579  1.4546 -1.3118 -0.0365
  227MOL0     H29928   3.020   6.952  11.021  2.9409  1.1861  2.3057
  227MOL0     H29929   2.999   7.149  11.150 -2.7331  0.4301  0.3076
  227MOL0     H29930   2.889   7.557  10.955  0.0008  0.6273  1.7847
  227MOL0     H29931   3.061   7.516  10.920 -1.4841  3.4187 -1.6391
  227MOL0     H29932   3.129   7.599  11.147  0.8527 -0.4695  0.1307
  227MOL0     H29933   2.960   7.605  11.189  2.7077 -2.2717  1.3637
  227MOL0     H29934   2.972   7.828  11.169 -0.0808  0.8213 -1.2002
  227MOL0     H29935   2.930   7.790  11.008 -0.7648 -1.0762  0.0099
  227MOL0     H29936   3.221   7.828  11.088  2.2768  4.7412 -1.7427
  227MOL0     H29937   3.161   7.803  10.921  0.9419 -2.4158  0.8130
  227MOL0     H29938   3.097   8.046  11.096  2.7522  2.0265 -1.8675
  227MOL0     H29939   3.015   7.985  10.949 -0.4862 -1.8901  0.1041
  227MOL0     H29940   3.171   8.168  10.897 -0.9343  0.1482  0.9325
  227MOL0     H29941   3.233   8.023  10.814 -2.0054  0.5745 -1.0261
  227MOL0     H29942   3.332   8.168  11.058 -2.3717  0.4289 -0.7080
  227MOL0     H29943   3.367   7.992  11.037  1.8247 -1.7679 -2.4737
  227MOL0     H29944   3.417   8.216  10.838 -1.6332  0.0091  0.9739
  227MOL0     H29945   3.477   8.057  10.805  1.8381  1.2809 -0.3171
  227MOL0     H29946   2.957   7.383  10.788 -0.3345 -0.5035 -1.0641
  227MOL0     H29947   3.007   7.173  10.659  0.9017  0.9624 -0.1253
  227MOL0     H29948   2.748   6.634  10.699 -0.5988  0.7515 -0.7566
  227MOL0     H29949   2.777   6.441  10.553  1.6789 -2.2531 -3.0490
  227MOL0     H29950   4.089   6.555  10.275  0.2971 -0.1060 -1.1648
  227MOL0     H29951   4.055   6.725  10.430 -0.8141  1.2891  0.0052
  227MOL0     H29952   3.968   6.896  10.695 -1.0239 -0.9551 -3.9150
  227MOL0     H29953   3.961   7.025  10.909 -1.3379  0.1165  0.9508
  227MOL0     H29954   3.835   7.444  10.849  0.0330  0.8348 -0.8655
  227MOL0     H29955   3.862   7.438  11.026  1.9176  1.1631 -1.0412
  227MOL0     H29956   3.609   7.402  10.873  0.5501  1.9225  0.0189
  227MOL0     H29957   3.628   7.327  11.039 -0.6354 -0.1804  0.0275
  227MOL0     H29958   3.665   7.616  10.968  0.6370 -2.0477 -1.4539
  227MOL0     H29959   3.681   7.547  11.130 -0.8077  2.9091 -0.0133
  227MOL0     H29960   3.448   7.444  11.107  3.7942 -1.3504 -2.2538
  227MOL0     H29961   3.464   7.614  11.150  3.0616  1.3144 -0.3819
  227MOL0     H29962   3.249   7.605  10.798 -0.6001  0.5408  1.0649
  227MOL0     H29963   3.749   7.344  10.699 -1.2787 -0.5198 -2.6706
  227MOL0     H29964   3.730   7.208  10.502 -0.6793  1.6483  0.9732
  228MOL0     O29965   1.958   0.583   6.967 -0.1899  0.2964  0.0950
  228MOL0     C29966   1.972   0.474   7.023  0.1242 -0.3963  0.4605
  228MOL0     O29967   2.071   0.381   6.997 -0.8359 -0.0545  1.0720
  228MOL0     C29968   2.156   0.385   6.890 -0.7656 -0.1673  0.4644
  228MOL0     C29969   2.237   0.271   6.895 -0.4064 -0.0803  0.1715
  228MOL0     C29970   2.305   0.230   6.775 -0.1135 -0.7134 -0.6819
  228MOL0     C29971   2.329   0.319   6.669  0.4008  0.4033 -0.4305
  228MOL0     O29972   2.401   0.296   6.567  0.0475 -0.0597 -0.2317
  228MOL0     C29973   2.427   0.162   6.523 -0.9739  0.4742  0.1685
  228MOL0     C29974   2.295   0.095   6.481  0.6156 -0.8513 -0.4090
  228MOL0     C29975   2.209   0.185   6.389  0.7399 -0.0913  0.8956
  228MOL0     C29976   2.101   0.090   6.324  0.1787 -0.1620 -0.5051
  228MOL0     C29977   1.991   0.153   6.230 -0.1351  0.1064 -0.2635
  228MOL0     C29978   2.049   0.164   6.083  0.2741 -0.1172 -0.7999
  228MOL0     C29979   1.937   0.198   5.986  0.1115 -0.2301  0.2725
  228MOL0     C29980   1.986   0.275   5.868 -0.2737 -0.6833  0.2919
  228MOL0     N29981   2.035   0.201   5.752  0.4211  0.0416  0.5714
  228MOL0     C29982   2.117   0.088   5.747 -0.1375 -0.3698 -0.3814
  228MOL0     C29983   2.129   0.053   5.621 -1.3630  0.0391  0.7939
  228MOL0     C29984   2.233  -0.056   5.593 -0.2037  0.0331  0.4611
  228MOL0     C29985   2.341  -0.011   5.501 -0.0679  0.4876 -0.2582
  228MOL0     C29986   2.471  -0.100   5.520 -0.2964  0.1190  0.1003
  228MOL0     C29987   2.593  -0.063   5.436  0.1458  0.0944  1.4463
  228MOL0     O29988   2.548  -0.091   5.299  0.1829 -0.0959 -0.6563
  228MOL0     C29989   2.536   0.022   5.213  0.0364 -0.4021 -0.4441
  228MOL0     C29990   2.495   0.159   5.253 -0.5072 -0.5379  0.2317
  228MOL0     C29991   2.474   0.261   5.168 -0.0338 -0.2338 -0.2970
  228MOL0     C29992   2.501   0.250   5.033 -0.5677  0.0462  0.0952
  228MOL0     C29993   2.478   0.364   4.942 -0.6463  0.3947  0.3354
  228MOL0     O29994   2.467   0.336   4.807  0.1014  0.0602 -0.9896
  228MOL0     C29995   2.476   0.443   4.728 -1.0119 -0.0143  0.5113
  228MOL0     C29996   2.601   0.508   4.721 -1.0899  0.6677 -0.4185
  228MOL0     C29997   2.633   0.609   4.637 -1.6208  1.0774 -0.4939
  228MOL0     C29998   2.536   0.665   4.556 -0.3231  0.2454 -0.3768
  228MOL0     O29999   2.541   0.787   4.492  0.1713 -0.1431  0.5363
  228MOL0     C30000   2.646   0.875   4.504  1.4499  0.2152 -0.2852
  228MOL0     C30001   2.649   0.951   4.639 -0.2066  0.2303 -0.9441
  228MOL0     C30002   2.738   1.071   4.643 -0.6627 -1.0295 -1.1408
  228MOL0     C30003   2.874   1.063   4.568  0.3529 -0.8234 -0.4852
  228MOL0     C30004   2.942   1.204   4.559 -0.3956  1.0130  0.1387
  228MOL0     C30005   2.876   1.299   4.458  0.2658 -0.9111 -0.1264
  228MOL0     C30006   2.951   1.440   4.438 -0.6299  0.3919 -0.2258
  228MOL0     C30007   2.858   1.552   4.370  1.3682 -0.2524  0.0689
  228MOL0    Cl30008   2.726   1.608   4.480  0.1801 -0.2588  0.3290
  228MOL0     C30009   2.410   0.613   4.565 -0.1401 -0.2484 -0.1792
  228MOL0     C30010   2.377   0.497   4.641 -0.4663 -0.5838 -0.7467
  228MOL0     O30011   2.454   0.472   5.005 -0.8802 -0.1261 -0.2179
  228MOL0     C30012   2.538   0.120   4.982  0.8933  0.1536  0.1971
  228MOL0     C30013   2.560   0.010   5.072 -0.6407 -0.7790  0.6167
  228MOL0     N30014   2.054   0.140   5.545 -0.0425 -0.5037 -0.6697
  228MOL0     N30015   1.997   0.226   5.622  0.1234  0.3431  0.2135
  228MOL0     C30016   2.268   0.442   6.677  0.6928 -0.9455  0.3646
  228MOL0     C30017   2.170   0.476   6.781 -0.0556  0.7668  0.6586
  228MOL0     C30018   1.875   0.432   7.128 -0.2410  0.2715  0.4031
  228MOL0     C30019   1.863   0.299   7.182  1.0644 -0.5050  1.2373
  228MOL0     C30020   1.763   0.264   7.274 -0.1435  0.3425 -0.0720
  228MOL0     C30021   1.675   0.362   7.324  0.3921  0.0846 -0.4176
  228MOL0     O30022   1.584   0.317   7.414  0.1073  1.0683 -0.4416
  228MOL0     C30023   1.496   0.402   7.496  0.1498 -0.3459  0.2059
  228MOL0     C30024   1.523   0.414   7.648  1.1015  0.7066  1.0035
  228MOL0     C30025   1.655   0.492   7.672 -0.1672  0.3630  1.5514
  228MOL0     C30026   1.689   0.518   7.815  0.2780 -0.1727 -0.4190
  228MOL0     C30027   1.715   0.389   7.878  0.1681 -1.2474  0.0416
  228MOL0     C30028   1.736   0.298   7.947  1.4667 -0.2788 -1.0343
  228MOL0     C30029   1.691   0.492   7.285 -0.1172 -0.2977 -0.4522
  228MOL0     C30030   1.788   0.530   7.188 -0.1254 -0.8427  0.1242
  228MOL0     H30031   2.234   0.201   6.977 -0.3709 -0.8856 -0.4990
  228MOL0     H30032   2.348   0.130   6.768  2.0355  0.2154 -1.5295
  228MOL0     H30033   2.475   0.111   6.607 -3.3411  0.7092  1.7599
  228MOL0     H30034   2.493   0.163   6.436 -2.1166 -3.2555 -0.9409
  228MOL0     H30035   2.231   0.079   6.568  0.3853  0.8116 -0.2354
  228MOL0     H30036   2.329   0.004   6.431  0.9260 -0.8889 -0.1368
  228MOL0     H30037   2.277   0.202   6.305 -2.2459  0.3718 -1.6196
  228MOL0     H30038   2.174   0.274   6.442 -1.4744 -1.2351  1.4531
  228MOL0     H30039   2.145   0.009   6.265 -2.0072 -1.0087 -1.0815
  228MOL0     H30040   2.053   0.043   6.410  0.5233 -0.0924 -0.2749
  228MOL0     H30041   1.949   0.245   6.271 -0.4746 -0.7199  1.3133
  228MOL0     H30042   1.909   0.082   6.223  0.4351 -0.7357  1.1018
  228MOL0     H30043   2.087   0.066   6.054  5.2010  0.8431  1.3335
  228MOL0     H30044   2.131   0.237   6.076  1.8714 -1.7102  0.5030
  228MOL0     H30045   1.870   0.113   5.973 -0.8680  0.1024  2.5956
  228MOL0     H30046   1.879   0.270   6.046  1.0056 -0.5872  1.6177
  228MOL0     H30047   2.076   0.335   5.886  1.1381 -1.4363 -3.3284
  228MOL0     H30048   1.902   0.330   5.824 -0.4012  0.6170  2.0714
  228MOL0     H30049   2.179   0.042   5.824  0.1601 -0.3752 -0.6213
  228MOL0     H30050   2.188  -0.142   5.544  1.8626 -0.2663 -1.0757
  228MOL0     H30051   2.274  -0.096   5.686 -1.7312 -0.7585  0.8271
  228MOL0     H30052   2.359   0.095   5.520  0.7904  0.7426 -2.2635
  228MOL0     H30053   2.303  -0.027   5.399  1.0998  1.0643 -0.7958
  228MOL0     H30054   2.500  -0.088   5.624 -0.7493  2.0570  0.0386
  228MOL0     H30055   2.442  -0.204   5.500  0.0861  0.2593 -1.3620
  228MOL0     H30056   2.679  -0.124   5.466  0.7914  0.2529  0.0058
  228MOL0     H30057   2.618   0.041   5.457 -1.7032  0.2364  3.1965
  228MOL0     H30058   2.480   0.163   5.361  0.7447 -0.9448  0.4337
  228MOL0     H30059   2.441   0.350   5.221 -4.6967 -0.7599 -1.9301
  228MOL0     H30060   2.688   0.458   4.763 -1.5053  0.1889 -0.1276
  228MOL0     H30061   2.730   0.658   4.634  0.1767 -2.1781 -0.0577
  228MOL0     H30062   2.633   0.946   4.421 -0.7173 -0.9018 -0.9848
  228MOL0     H30063   2.739   0.821   4.485  0.6358 -1.4249  0.2320
  228MOL0     H30064   2.676   0.878   4.715  0.8131  1.6180  0.0649
  228MOL0     H30065   2.544   0.981   4.649  0.5090  2.3613  0.8416
  228MOL0     H30066   2.756   1.088   4.750 -0.5776  1.0039 -1.4548
  228MOL0     H30067   2.682   1.153   4.598 -2.0398 -1.5033 -0.3547
  228MOL0     H30068   2.953   0.997   4.605  4.3765  3.3295 -0.8445
  228MOL0     H30069   2.844   1.046   4.464  0.4058  1.4423 -0.9000
  228MOL0     H30070   3.043   1.186   4.520 -0.8405  0.8459 -0.9721
  228MOL0     H30071   2.957   1.246   4.659 -3.0010  2.8229 -0.1399
  228MOL0     H30072   2.771   1.320   4.482  1.2274  1.9048  2.1348
  228MOL0     H30073   2.871   1.244   4.363  0.5268 -0.8751 -0.1605
  228MOL0     H30074   2.990   1.471   4.535  0.0131  1.9201 -0.9417
  228MOL0     H30075   3.030   1.413   4.367  0.3127 -0.2568  1.0318
  228MOL0     H30076   2.803   1.521   4.280 -0.4308 -1.4901  1.5307
  228MOL0     H30077   2.919   1.639   4.346 -0.4096  1.2568  0.7438
  228MOL0     H30078   2.325   0.666   4.523 -0.3232  0.9462  1.5548
  228MOL0     H30079   2.271   0.476   4.648 -0.8533  1.1583 -1.0878
  228MOL0     H30080   2.556   0.114   4.875  4.9668  0.4632  0.7193
  228MOL0     H30081   2.576  -0.075   5.007 -1.2981 -0.8404  0.5229
  228MOL0     H30082   2.289   0.512   6.597  1.1348  0.5395  1.7300
  228MOL0     H30083   2.108   0.565   6.779 -2.8300 -1.0095  1.4414
  228MOL0     H30084   1.926   0.216   7.150 -0.4052 -1.6464  1.1977
  228MOL0     H30085   1.765   0.161   7.308  3.3464  0.1269 -0.5860
  228MOL0     H30086   1.395   0.372   7.467  1.4620 -2.9549 -2.1575
  228MOL0     H30087   1.498   0.505   7.460 -0.9414 -0.5987 -0.6339
  228MOL0     H30088   1.434   0.465   7.685 -0.9433 -2.2705  0.5078
  228MOL0     H30089   1.532   0.308   7.671  1.0499  0.6508  0.7705
  228MOL0     H30090   1.640   0.582   7.611 -0.0708 -0.1167  0.8165
  228MOL0     H30091   1.731   0.437   7.617 -3.6090 -0.9452 -2.3564
  228MOL0     H30092   1.767   0.594   7.821  0.6552 -0.5464 -0.5731
  228MOL0     H30093   1.610   0.579   7.862  2.2792  2.5072 -0.2594
  228MOL0     H30094   1.761   0.216   8.013  1.3323  1.1647  0.9070
  228MOL0     H30095   1.634   0.576   7.323 -1.2384 -0.0972 -2.4204
  228MOL0     H30096   1.795   0.633   7.153 -1.1439 -1.0064 -0.6087
  229MOL0     O30097   5.954   9.717   0.173 -1.2481 -0.2931 -0.6924
  229MOL0     C30098   6.062   9.677   0.228  0.7841 -0.5228  0.6005
  229MOL0     O30099   6.147   9.760   0.304 -0.7741  1.3819 -0.2072
  229MOL0     C30100   6.112   9.883   0.344  0.3073 -0.8542  0.3027
  229MOL0     C30101   6.143   9.920   0.471 -0.1264 -0.8217 -0.7055
  229MOL0     C30102   6.103  10.041   0.532  0.5161  1.7693  0.0902
  229MOL0     C30103   6.024  10.136   0.459  0.6237 -0.0308  0.2944
  229MOL0     O30104   5.959  10.235   0.528  0.0101 -0.9680 -0.7826
  229MOL0     C30105   5.896  10.339   0.459  0.0838  0.9188 -0.1765
  229MOL0     C30106   5.999  10.432   0.377  0.1082  0.1202 -0.5285
  229MOL0     C30107   5.946  10.577   0.344 -0.3893 -0.2251  1.0366
  229MOL0     C30108   6.052  10.657   0.272 -0.0359  0.3909 -0.1116
  229MOL0     C30109   6.094  10.593   0.141 -0.0287 -0.8042  0.8149
  229MOL0     C30110   5.985  10.590   0.035  0.0346  0.3655  0.0294
  229MOL0     C30111   5.945  10.720  -0.034  0.1020  0.5394  0.2288
  229MOL0     C30112   6.046  10.753  -0.144  0.5084  0.5404 -1.0833
  229MOL0     N30113   5.972  10.747  -0.270  0.4234  0.0245  0.0163
  229MOL0     C30114   5.894  10.862  -0.304  0.2398 -0.1529 -0.2682
  229MOL0     C30115   5.823  10.816  -0.403 -0.2774 -0.2353  0.8140
  229MOL0     C30116   5.703  10.887  -0.463  0.2941 -0.2551 -0.2854
  229MOL0     C30117   5.666  10.833  -0.600  0.0982  0.3003 -0.1656
  229MOL0     C30118   5.775  10.877  -0.705  0.2180 -0.7903 -0.4859
  229MOL0     C30119   5.748  10.870  -0.854  0.1429 -0.5758  0.3509
  229MOL0     O30120   5.765  11.002  -0.913 -0.8228  0.1893  1.0220
  229MOL0     C30121   5.704  11.026  -1.035  1.1402 -0.2211 -0.0260
  229MOL0     C30122   5.705  11.160  -1.077  0.1161 -0.0398 -0.5957
  229MOL0     C30123   5.658  11.196  -1.205  0.1103 -0.0547 -0.5897
  229MOL0     C30124   5.615  11.088  -1.295  0.0644  0.1167  0.1007
  229MOL0     C30125   5.567  11.133  -1.426  0.1001 -0.5028  0.0032
  229MOL0     O30126   5.518  11.040  -1.510  0.2381  0.9133  0.2993
  229MOL0     C30127   5.501  11.065  -1.644  0.6772  0.6167 -0.2975
  229MOL0     C30128   5.411  11.164  -1.689  0.0310 -0.8021  0.5959
  229MOL0     C30129   5.383  11.187  -1.826 -0.2414  0.6442 -0.4432
  229MOL0     C30130   5.461  11.108  -1.921 -0.4666 -0.4789  0.5286
  229MOL0     O30131   5.465  11.130  -2.056 -1.1770 -0.4245  0.5185
  229MOL0     C30132   5.353  11.194  -2.113 -0.0507 -0.4393  0.6603
  229MOL0     C30133   5.221  11.111  -2.094  0.3199  0.3374  0.3008
  229MOL0     C30134   5.109  11.153  -2.178  0.3669 -0.0534  0.2909
  229MOL0     C30135   5.128  11.131  -2.330  0.1448 -0.0696  0.3922
  229MOL0     C30136   5.112  11.256  -2.422  0.6464 -0.0605 -0.1509
  229MOL0     C30137   4.965  11.307  -2.425  0.1353  0.5984 -0.3053
  229MOL0     C30138   4.935  11.412  -2.525 -0.5945 -0.0046  0.2492
  229MOL0     C30139   4.778  11.420  -2.545 -0.5343 -1.3607  0.0272
  229MOL0    Cl30140   4.676  11.479  -2.401 -0.0532 -0.5792 -0.1208
  229MOL0     C30141   5.544  11.003  -1.875  0.4222  0.2355  0.1219
  229MOL0     C30142   5.566  10.981  -1.731  0.5126 -0.3573  0.0323
  229MOL0     O30143   5.585  11.248  -1.456  0.4320 -0.0934  1.2216
  229MOL0     C30144   5.611  10.957  -1.258  0.9371  0.9981  0.3366
  229MOL0     C30145   5.669  10.928  -1.134 -0.4991 -0.2216  0.6717
  229MOL0     N30146   5.863  10.694  -0.441  0.1154  0.0485  0.4322
  229MOL0     N30147   5.965  10.653  -0.363 -0.5756 -0.1204 -0.1989
  229MOL0     C30148   6.012  10.111   0.323 -1.3691  0.0119  1.1832
  229MOL0     C30149   6.058   9.988   0.267  0.8063  0.3026  0.2525
  229MOL0     C30150   6.106   9.544   0.201 -1.2636  0.9126 -0.4705
  229MOL0     C30151   6.240   9.505   0.228  0.3678  0.4765 -0.2327
  229MOL0     C30152   6.290   9.372   0.201  0.3768 -1.1746 -0.8053
  229MOL0     C30153   6.213   9.277   0.131  0.1074 -0.2208  1.1765
  229MOL0     O30154   6.251   9.153   0.073  0.2531 -0.5421 -0.3475
  229MOL0     C30155   6.343   9.164  -0.034  1.1427 -0.0763  1.1026
  229MOL0     C30156   6.427   9.038  -0.058  1.0745  0.3265 -0.9142
  229MOL0     C30157   6.528   9.010   0.057  0.5824  0.6888  0.3969
  229MOL0     C30158   6.643   9.111   0.066  0.4711 -0.2744 -0.5347
  229MOL0     C30159   6.736   9.103  -0.048 -0.5740  0.0297 -0.6653
  229MOL0     C30160   6.800   9.114  -0.152 -0.7039 -0.7596 -0.1563
  229MOL0     C30161   6.076   9.311   0.117 -0.7255 -0.6426  0.8086
  229MOL0     C30162   6.024   9.446   0.148 -0.0641  0.0161 -0.2353
  229MOL0     H30163   6.197   9.850   0.534  1.0719  0.2873 -0.4277
  229MOL0     H30164   6.117  10.066   0.636  1.5496  0.7577  0.2242
  229MOL0     H30165   5.847  10.399   0.537 -1.2914 -3.1008  2.3457
  229MOL0     H30166   5.817  10.300   0.396  0.1862  0.2803  0.0843
  229MOL0     H30167   6.020  10.379   0.285 -1.6303 -1.9743  0.2072
  229MOL0     H30168   6.092  10.457   0.431 -0.8889 -0.6744  1.6874
  229MOL0     H30169   5.919  10.638   0.431 -0.1530  1.9389 -0.3364
  229MOL0     H30170   5.853  10.553   0.291 -1.8088  0.6072  2.9945
  229MOL0     H30171   6.010  10.757   0.259  0.9678  1.3892  3.1393
  229MOL0     H30172   6.146  10.667   0.327  1.2002  0.3948 -2.1271
  229MOL0     H30173   6.134  10.492   0.147  1.8029 -0.2150 -0.4132
  229MOL0     H30174   6.174  10.658   0.104 -2.2941  0.0558 -3.1435
  229MOL0     H30175   5.896  10.543   0.076  0.2053  1.8545  2.2405
  229MOL0     H30176   6.019  10.531  -0.051 -0.7432 -0.2316  0.1186
  229MOL0     H30177   5.845  10.704  -0.077  0.6610 -1.7292 -0.3834
  229MOL0     H30178   5.940  10.801   0.039 -0.4171  1.5027 -0.8346
  229MOL0     H30179   6.135  10.690  -0.141  0.3683  0.3626 -0.2080
  229MOL0     H30180   6.090  10.851  -0.127  3.0617 -0.9623  2.1364
  229MOL0     H30181   5.885  10.955  -0.250 -0.3604  1.1467 -2.4714
  229MOL0     H30182   5.703  10.996  -0.470 -3.2812 -0.1842 -1.1087
  229MOL0     H30183   5.623  10.855  -0.395  0.9147 -2.2007 -0.4045
  229MOL0     H30184   5.570  10.879  -0.624  0.6644  1.1686 -0.8469
  229MOL0     H30185   5.650  10.725  -0.608  0.1977  0.1378  1.4170
  229MOL0     H30186   5.827  10.971  -0.682  3.7188 -3.0190  1.6082
  229MOL0     H30187   5.857  10.806  -0.691  1.2567  0.3146 -0.7639
  229MOL0     H30188   5.641  10.847  -0.863  0.2291 -0.5832 -0.7880
  229MOL0     H30189   5.810  10.798  -0.908 -1.4970 -1.7714 -0.0109
  229MOL0     H30190   5.739  11.237  -1.009 -0.0161  0.9470 -1.6007
  229MOL0     H30191   5.697  11.289  -1.246 -0.6179  0.0018 -1.1711
  229MOL0     H30192   5.368  11.237  -1.622  0.2680  0.1700 -0.2819
  229MOL0     H30193   5.308  11.261  -1.851 -0.8344  0.6944  1.3520
  229MOL0     H30194   5.368  11.211  -2.220 -0.9084 -2.6957  0.1293
  229MOL0     H30195   5.331  11.289  -2.063  0.9148 -0.2267  0.6936
  229MOL0     H30196   5.181  11.133  -1.994 -0.5566 -1.0616  0.2877
  229MOL0     H30197   5.249  11.007  -2.108  2.5685  0.7751  0.9763
  229MOL0     H30198   5.079  11.257  -2.166 -0.7582  0.0717 -2.7587
  229MOL0     H30199   5.031  11.081  -2.152 -0.9959  1.7728  1.4824
  229MOL0     H30200   5.221  11.077  -2.351 -0.5337 -1.1009 -0.0397
  229MOL0     H30201   5.052  11.056  -2.355  0.8468 -0.8052  0.4068
  229MOL0     H30202   5.140  11.223  -2.522  0.8743 -1.1748  0.2693
  229MOL0     H30203   5.172  11.341  -2.386  1.3302 -1.3313  1.8551
  229MOL0     H30204   4.932  11.331  -2.324 -2.0762 -1.9411 -0.3136
  229MOL0     H30205   4.901  11.221  -2.450  0.5548  0.6865 -1.8135
  229MOL0     H30206   4.979  11.505  -2.489  2.2673 -2.7113  4.6749
  229MOL0     H30207   4.980  11.377  -2.619 -1.8405 -2.4395  0.4665
  229MOL0     H30208   4.752  11.316  -2.566  2.7968 -2.6227  1.4011
  229MOL0     H30209   4.742  11.484  -2.626  0.4688  0.9176  1.2913
  229MOL0     H30210   5.599  10.946  -1.949 -0.1572  0.1171 -0.2245
  229MOL0     H30211   5.644  10.910  -1.704  0.2001 -2.2541 -3.4012
  229MOL0     H30212   5.568  10.882  -1.324  1.8176  1.2599 -0.5735
  229MOL0     H30213   5.669  10.826  -1.098 -1.2120 -0.5628 -0.2642
  229MOL0     H30214   5.963  10.171   0.248  1.3081  0.2208 -0.5155
  229MOL0     H30215   6.024   9.973   0.165  0.2089 -0.6544  0.5794
  229MOL0     H30216   6.306   9.578   0.275 -0.3379  1.9493 -1.4740
  229MOL0     H30217   6.395   9.349   0.216  0.8400  1.6191  0.8521
  229MOL0     H30218   6.410   9.250  -0.024  1.8959 -0.1871 -1.9370
  229MOL0     H30219   6.289   9.166  -0.129  1.8979  0.1092  0.6750
  229MOL0     H30220   6.356   8.956  -0.074 -1.0427  2.0804 -0.8659
  229MOL0     H30221   6.484   9.049  -0.150  1.2836 -1.5723 -1.0587
  229MOL0     H30222   6.570   8.909   0.049  1.3562  1.0957 -0.9985
  229MOL0     H30223   6.473   9.010   0.152 -3.0682 -0.3406 -1.5217
  229MOL0     H30224   6.617   9.215   0.086 -1.2582 -0.6072 -0.8206
  229MOL0     H30225   6.705   9.098   0.155 -1.8589  4.7019  2.2512
  229MOL0     H30226   6.848   9.124  -0.247 -0.6097  1.8415  0.0971
  229MOL0     H30227   6.034   9.239   0.048  1.9475  1.1700 -3.0488
  229MOL0     H30228   5.920   9.468   0.129 -0.7324 -0.1489  2.7515
  230MOL0     O30229  10.055   3.310   6.921 -0.3298  1.0567 -0.7335
  230MOL0     C30230  10.154   3.357   6.865  0.4273  1.1229  0.1321
  230MOL0     O30231  10.274   3.330   6.902 -0.0962 -0.2840 -0.1419
  230MOL0     C30232  10.316   3.233   6.994 -0.1059  0.1320  0.1197
  230MOL0     C30233  10.448   3.246   7.047 -0.5241  0.0936  1.0478
  230MOL0     C30234  10.504   3.139   7.124 -0.0317 -0.3549  0.0773
  230MOL0     C30235  10.437   3.020   7.147 -1.1557 -0.4376  0.2070
  230MOL0     O30236  10.474   2.913   7.233 -0.7513  0.6342  0.2075
  230MOL0     C30237  10.610   2.873   7.227  0.3278  0.3501 -0.5976
  230MOL0     C30238  10.645   2.784   7.352  0.0856  0.3863  0.7467
  230MOL0     C30239  10.594   2.857   7.475 -0.3026 -0.6080 -0.9232
  230MOL0     C30240  10.662   3.000   7.504 -0.3379  0.2897  0.2590
  230MOL0     C30241  10.781   2.985   7.601  0.3578  0.4693 -0.5141
  230MOL0     C30242  10.809   3.105   7.684  0.1918  0.2215 -0.3685
  230MOL0     C30243  10.859   3.225   7.613  0.1149  0.2368  0.1061
  230MOL0     C30244  10.843   3.339   7.707  0.2767  0.6393 -1.0460
  230MOL0     N30245  10.717   3.366   7.771 -0.6404  0.4776 -0.1926
  230MOL0     C30246  10.650   3.476   7.740 -0.2284  0.0359 -0.9016
  230MOL0     C30247  10.562   3.493   7.837  0.0867  0.1901  0.4667
  230MOL0     C30248  10.483   3.620   7.851  0.1232 -0.3119 -0.6660
  230MOL0     C30249  10.406   3.654   7.729  0.5565  0.7866  0.8655
  230MOL0     C30250  10.460   3.768   7.652 -0.4485 -0.0108 -0.3713
  230MOL0     C30251  10.367   3.803   7.540  0.0146 -0.1497  0.8165
  230MOL0     O30252  10.418   3.921   7.471  0.2960  0.3122  0.5707
  230MOL0     C30253  10.341   3.994   7.387  0.8238 -0.2193  0.1858
  230MOL0     C30254  10.390   4.115   7.355 -0.4082 -0.0787  0.7917
  230MOL0     C30255  10.317   4.188   7.257 -0.3911 -0.8590  0.4356
  230MOL0     C30256  10.195   4.150   7.201  0.3276  0.3720  0.2994
  230MOL0     C30257  10.127   4.221   7.082  0.1526  0.4275 -0.1194
  230MOL0     O30258  10.006   4.174   7.034  0.1220  0.0650 -0.2557
  230MOL0     C30259   9.918   4.236   6.954 -0.1877 -0.3730  0.9490
  230MOL0     C30260   9.948   4.347   6.871  0.0160 -0.0543  0.1490
  230MOL0     C30261   9.857   4.403   6.775 -0.6399 -0.1430  0.2199
  230MOL0     C30262   9.728   4.354   6.771  1.1845 -0.3851  0.3448
  230MOL0     O30263   9.626   4.396   6.691 -0.1102  0.2295 -0.0642
  230MOL0     C30264   9.669   4.438   6.567 -0.1382 -0.0858  0.1635
  230MOL0     C30265   9.546   4.447   6.470 -1.2610  0.0601 -0.4309
  230MOL0     C30266   9.482   4.309   6.445 -0.5090  0.3422 -0.4854
  230MOL0     C30267   9.369   4.317   6.349  0.1423 -0.2268  0.1516
  230MOL0     C30268   9.242   4.406   6.390  0.4937  0.7609  0.2494
  230MOL0     C30269   9.116   4.368   6.305 -0.6416 -0.4952  0.1630
  230MOL0     C30270   8.983   4.419   6.366 -0.6547 -0.0072 -0.3259
  230MOL0     C30271   8.940   4.325   6.485 -0.3035 -0.6352 -0.5728
  230MOL0    Cl30272   8.792   4.398   6.568 -0.1562 -0.1165  0.2713
  230MOL0     C30273   9.695   4.250   6.850  0.1062 -0.6748  0.0188
  230MOL0     C30274   9.790   4.185   6.934 -0.4197 -0.7231 -0.6545
  230MOL0     O30275  10.198   4.306   7.038 -0.4676  0.4751 -0.5462
  230MOL0     C30276  10.145   4.021   7.238 -1.2891  0.2685  0.6798
  230MOL0     C30277  10.223   3.942   7.328  0.1472  0.2321  1.0462
  230MOL0     N30278  10.591   3.407   7.935  0.2342  0.2180  0.0208
  230MOL0     N30279  10.682   3.327   7.895  0.4986 -0.0146 -0.3923
  230MOL0     C30280  10.315   3.006   7.089  1.3966 -0.0017 -0.3614
  230MOL0     C30281  10.252   3.105   7.014 -0.3752 -0.6143 -0.5511
  230MOL0     C30282  10.129   3.445   6.752 -0.1372  0.3370  0.1649
  230MOL0     C30283  10.020   3.529   6.735  0.4675 -0.2590 -0.2093
  230MOL0     C30284  10.009   3.610   6.622 -0.7341 -1.0875  0.2911
  230MOL0     C30285  10.106   3.604   6.520  0.1354 -0.5080 -1.0292
  230MOL0     O30286  10.097   3.682   6.407 -0.2362 -0.0212 -1.0899
  230MOL0     C30287  10.121   3.600   6.291  0.7864  0.5068  0.1376
  230MOL0     C30288  10.040   3.676   6.191  0.0340 -0.0324 -0.2284
  230MOL0     C30289  10.053   3.604   6.054  0.5233  0.2633 -0.9150
  230MOL0     C30290  10.166   3.651   5.960 -0.3464  0.3227 -0.0186
  230MOL0     C30291  10.299   3.647   6.017 -0.3119  0.5821  0.5098
  230MOL0     C30292  10.413   3.644   6.065  0.4065  0.1473 -0.5105
  230MOL0     C30293  10.216   3.521   6.542  0.5730 -0.0162  0.0128
  230MOL0     C30294  10.219   3.429   6.642 -0.4120  0.3060  0.1876
  230MOL0     H30295  10.514   3.331   7.041 -0.1449 -0.1971  1.0502
  230MOL0     H30296  10.605   3.151   7.161 -0.4332 -0.7906  1.3879
  230MOL0     H30297  10.668   2.966   7.230  0.1967  0.6084 -3.2209
  230MOL0     H30298  10.629   2.816   7.135 -0.5759  1.0110 -1.2077
  230MOL0     H30299  10.753   2.766   7.361 -0.1942 -0.6686  2.5822
  230MOL0     H30300  10.592   2.690   7.334 -4.0433  2.4770  0.9312
  230MOL0     H30301  10.627   2.795   7.559 -0.8090 -1.1233 -1.0933
  230MOL0     H30302  10.484   2.857   7.472 -0.4922 -0.6946  2.3357
  230MOL0     H30303  10.691   3.053   7.413  1.4678 -1.8561 -0.4929
  230MOL0     H30304  10.579   3.059   7.545 -1.5980  0.9723 -2.9589
  230MOL0     H30305  10.869   2.958   7.542 -2.0510 -1.1790 -3.6514
  230MOL0     H30306  10.771   2.901   7.671  3.1376 -1.2509 -2.0077
  230MOL0     H30307  10.889   3.084   7.756  0.7201 -1.5423 -1.3928
  230MOL0     H30308  10.715   3.124   7.737 -0.3196 -0.4311 -1.0203
  230MOL0     H30309  10.966   3.205   7.598  0.0739  0.1320 -0.0490
  230MOL0     H30310  10.803   3.254   7.524 -1.7719 -1.4291  0.6849
  230MOL0     H30311  10.878   3.430   7.657  3.1013  0.1007 -0.2433
  230MOL0     H30312  10.919   3.320   7.784 -0.4118 -0.0621 -0.5231
  230MOL0     H30313  10.668   3.537   7.652 -0.1512 -1.2479 -1.8030
  230MOL0     H30314  10.562   3.693   7.869  1.0501 -1.9959  2.9601
  230MOL0     H30315  10.412   3.619   7.934  0.6930  3.0210  0.0072
  230MOL0     H30316  10.299   3.662   7.750 -0.0709 -4.0859  0.6693
  230MOL0     H30317  10.397   3.569   7.661  0.8861  0.1878  1.5556
  230MOL0     H30318  10.497   3.848   7.715  0.8792  0.8344 -2.1304
  230MOL0     H30319  10.555   3.726   7.616  0.5915  0.4384  1.7432
  230MOL0     H30320  10.267   3.810   7.585 -0.7038 -4.5057  0.3475
  230MOL0     H30321  10.362   3.724   7.464  2.0125  2.6057 -2.4490
  230MOL0     H30322  10.484   4.146   7.400 -0.4234 -0.9666  1.4652
  230MOL0     H30323  10.346   4.288   7.228 -1.4512 -0.0199  2.0897
  230MOL0     H30324  10.047   4.390   6.863 -1.2312  2.9738 -0.7436
  230MOL0     H30325   9.898   4.480   6.710 -1.4835  0.7886  0.7658
  230MOL0     H30326   9.737   4.366   6.520  4.3687  2.2611  2.4229
  230MOL0     H30327   9.707   4.540   6.559 -1.5379  0.4478  0.0926
  230MOL0     H30328   9.567   4.509   6.383  2.7294  3.5166  2.5880
  230MOL0     H30329   9.475   4.514   6.520 -1.2346 -1.0564  1.1843
  230MOL0     H30330   9.437   4.265   6.534  0.5022 -2.5154 -1.2981
  230MOL0     H30331   9.559   4.240   6.409 -0.1651  0.9865 -1.0203
  230MOL0     H30332   9.415   4.352   6.256  1.1964  1.3223  1.2171
  230MOL0     H30333   9.325   4.217   6.334 -1.4895  0.4235  0.4418
  230MOL0     H30334   9.267   4.510   6.368  0.2400  0.3906 -1.9252
  230MOL0     H30335   9.226   4.400   6.498  0.5313  0.2381  0.2267
  230MOL0     H30336   9.123   4.259   6.291 -1.3974 -0.5898  0.4928
  230MOL0     H30337   9.129   4.428   6.215 -0.8437  0.7303  0.9269
  230MOL0     H30338   8.994   4.524   6.393  2.8068 -0.5099  0.7103
  230MOL0     H30339   8.910   4.416   6.285  0.3766  2.4863 -1.4191
  230MOL0     H30340   9.021   4.306   6.556  0.1496 -3.0102 -1.6450
  230MOL0     H30341   8.906   4.231   6.442 -0.4535  0.8097 -3.9433
  230MOL0     H30342   9.596   4.210   6.831  0.1099 -0.4338 -0.5235
  230MOL0     H30343   9.765   4.098   6.993  1.8292 -0.6637  0.4869
  230MOL0     H30344  10.057   3.979   7.192 -0.9799 -0.6221  0.8868
  230MOL0     H30345  10.186   3.844   7.358  1.3722 -1.2287 -1.8645
  230MOL0     H30346  10.273   2.906   7.102  0.7827 -0.6663 -5.2897
  230MOL0     H30347  10.156   3.084   6.968 -0.2467 -0.5188 -0.8589
  230MOL0     H30348   9.941   3.524   6.809 -0.5770 -1.2780 -1.3586
  230MOL0     H30349   9.932   3.686   6.614 -0.4927 -0.8146  0.5442
  230MOL0     H30350  10.089   3.495   6.294 -4.1004  1.7804  1.3645
  230MOL0     H30351  10.227   3.599   6.263  1.0379  3.9452  0.5244
  230MOL0     H30352   9.933   3.669   6.213  0.2072 -2.1876  0.1780
  230MOL0     H30353  10.065   3.782   6.181 -2.7527  1.0024  2.2426
  230MOL0     H30354   9.964   3.618   5.992  1.3836  0.6618 -2.0893
  230MOL0     H30355  10.059   3.495   6.060 -2.1161  0.0568 -0.6560
  230MOL0     H30356  10.178   3.585   5.873  2.0879 -2.0545  1.9585
  230MOL0     H30357  10.148   3.753   5.926  2.2460  2.2826  3.8424
  230MOL0     H30358  10.503   3.627   6.120 -0.3850  3.7343  2.2160
  230MOL0     H30359  10.298   3.522   6.470 -1.5972  1.3977 -2.6214
  230MOL0     H30360  10.296   3.352   6.647 -0.1721  0.5045 -0.4449
  231MOL0     O30361   7.815   4.635   2.427  0.8810 -0.1770 -0.4275
  231MOL0     C30362   7.753   4.536   2.379 -0.3983 -0.2226 -0.4859
  231MOL0     O30363   7.818   4.426   2.323  0.0682  0.6527  0.6177
  231MOL0     C30364   7.955   4.423   2.303  0.3364 -0.2732  0.0063
  231MOL0     C30365   8.029   4.318   2.337  0.5236 -0.1211 -0.6943
  231MOL0     C30366   8.156   4.308   2.303 -0.1353 -0.2334  0.2902
  231MOL0     C30367   8.214   4.408   2.231  0.0317  0.4396  0.0422
  231MOL0     O30368   8.353   4.395   2.228  0.2763  0.2401  0.3528
  231MOL0     C30369   8.413   4.419   2.098 -0.3301 -0.2122  0.0813
  231MOL0     C30370   8.559   4.471   2.116  0.1680 -0.2321 -0.4768
  231MOL0     C30371   8.647   4.432   2.001  0.3284  0.8824 -0.0768
  231MOL0     C30372   8.778   4.512   1.985 -0.2282  0.8654  1.2003
  231MOL0     C30373   8.836   4.484   1.845  0.7530 -0.7706 -0.2054
  231MOL0     C30374   8.973   4.543   1.819  0.0488 -0.1518  0.3193
  231MOL0     C30375   8.978   4.526   1.669 -0.7910 -0.5790 -0.8546
  231MOL0     C30376   9.113   4.542   1.617  0.2110 -0.6342  0.4397
  231MOL0     N30377   9.166   4.675   1.640 -0.2365 -0.0626  0.0523
  231MOL0     C30378   9.121   4.783   1.573  0.0057  1.2202 -0.5378
  231MOL0     C30379   9.183   4.884   1.638 -0.2128  0.2207  0.1773
  231MOL0     C30380   9.169   5.036   1.616  0.2814  0.2573  0.4589
  231MOL0     C30381   9.107   5.111   1.735  0.0395 -0.3644  0.0208
  231MOL0     C30382   9.068   5.257   1.701  0.6391  0.1182 -1.0604
  231MOL0     C30383   8.919   5.258   1.658 -0.9908  0.9994 -0.1747
  231MOL0     O30384   8.900   5.187   1.535 -0.0387 -0.7563 -0.6538
  231MOL0     C30385   8.775   5.134   1.511  0.8210 -0.4058  1.3404
  231MOL0     C30386   8.652   5.171   1.574  0.4055  0.3252 -0.2647
  231MOL0     C30387   8.535   5.096   1.566  0.3106 -0.3909  0.5087
  231MOL0     C30388   8.526   4.975   1.490  0.1854 -0.7574  0.0288
  231MOL0     C30389   8.408   4.888   1.487  0.4617  0.7506  0.7560
  231MOL0     O30390   8.296   4.917   1.564 -0.6395 -0.1322  0.2998
  231MOL0     C30391   8.206   4.817   1.590 -0.3802  0.0400  0.3634
  231MOL0     C30392   8.108   4.750   1.504  0.2033  0.8077 -0.5131
  231MOL0     C30393   8.019   4.646   1.549  0.3695 -0.4113  0.5480
  231MOL0     C30394   8.011   4.614   1.690  1.1637 -0.7675 -0.4908
  231MOL0     O30395   7.934   4.528   1.756  0.5002  0.4479  0.1360
  231MOL0     C30396   7.798   4.555   1.715  0.5564  0.9702  0.2914
  231MOL0     C30397   7.716   4.512   1.831  0.2327 -0.4489 -0.6854
  231MOL0     C30398   7.567   4.535   1.803  0.5458  0.3940 -0.4626
  231MOL0     C30399   7.473   4.494   1.918  0.4040  1.1020 -0.4017
  231MOL0     C30400   7.339   4.543   1.900 -0.0031 -0.5703 -0.2926
  231MOL0     C30401   7.255   4.450   1.808 -0.4560 -0.1744  0.9030
  231MOL0     C30402   7.134   4.524   1.755 -0.2334 -0.1989  0.3335
  231MOL0     C30403   7.031   4.433   1.708 -0.7359  0.6886 -0.1229
  231MOL0    Cl30404   6.900   4.538   1.666  0.2014  0.2278 -0.2244
  231MOL0     C30405   8.104   4.678   1.774 -0.0119  0.4715 -0.0936
  231MOL0     C30406   8.197   4.776   1.726 -0.0534 -0.2011 -0.3205
  231MOL0     O30407   8.419   4.786   1.408  0.0061  0.1362  0.5825
  231MOL0     C30408   8.646   4.932   1.426 -1.0181 -0.7970  0.3338
  231MOL0     C30409   8.763   5.017   1.423  0.4269 -0.7104  0.6274
  231MOL0     N30410   9.264   4.829   1.741 -0.0178 -0.4132  0.0650
  231MOL0     N30411   9.247   4.703   1.750  0.0277  0.4759  0.4651
  231MOL0     C30412   8.145   4.528   2.192  0.7092  0.8569 -0.5489
  231MOL0     C30413   8.005   4.532   2.228 -0.0838  0.9286 -0.4996
  231MOL0     C30414   7.601   4.541   2.362 -0.7280 -1.1980  0.0838
  231MOL0     C30415   7.523   4.456   2.284  0.6211  0.2868 -0.5510
  231MOL0     C30416   7.378   4.462   2.285 -0.7141  0.2789  0.0695
  231MOL0     C30417   7.313   4.542   2.382 -0.3899 -0.4933 -0.0518
  231MOL0     O30418   7.176   4.559   2.382 -0.5866 -0.6317 -0.3971
  231MOL0     C30419   7.095   4.487   2.285  0.3233  0.1726  0.1901
  231MOL0     C30420   6.944   4.538   2.309 -0.0680  0.1665  0.1727
  231MOL0     C30421   6.849   4.461   2.214 -0.4854 -0.2687 -0.2764
  231MOL0     C30422   6.822   4.319   2.258 -0.4616 -0.1930 -0.0591
  231MOL0     C30423   6.769   4.304   2.396 -0.2248 -0.1490 -0.8562
  231MOL0     C30424   6.717   4.298   2.509  0.4701  0.3773  0.4081
  231MOL0     C30425   7.396   4.630   2.456  0.0484 -0.2671  0.8679
  231MOL0     C30426   7.536   4.638   2.438  0.1968 -0.2533 -0.4043
  231MOL0     H30427   7.981   4.228   2.373  0.7659 -0.6816 -1.7452
  231MOL0     H30428   8.220   4.226   2.336  0.6260 -0.2949 -1.2605
  231MOL0     H30429   8.347   4.492   2.049 -0.0838 -1.0178 -1.5348
  231MOL0     H30430   8.420   4.323   2.046  0.8886  0.1563 -0.4844
  231MOL0     H30431   8.604   4.424   2.204 -1.1825 -4.9821 -2.0222
  231MOL0     H30432   8.544   4.579   2.119 -1.0530 -0.3509 -1.6233
  231MOL0     H30433   8.592   4.449   1.908  0.4953 -1.0533 -0.5788
  231MOL0     H30434   8.668   4.324   2.003 -1.0250  0.6044  1.4287
  231MOL0     H30435   8.782   4.621   1.991 -1.4583  0.8824  2.0294
  231MOL0     H30436   8.856   4.468   2.049  0.5953 -0.6185 -0.7107
  231MOL0     H30437   8.752   4.512   1.781 -1.7404 -3.9816  1.3699
  231MOL0     H30438   8.840   4.377   1.824  0.0450 -1.1179  1.2419
  231MOL0     H30439   9.049   4.487   1.873  0.9157  1.6534  1.0363
  231MOL0     H30440   8.984   4.650   1.842  1.5965 -0.6541  2.1367
  231MOL0     H30441   8.957   4.422   1.642  2.6054 -1.4724 -0.4748
  231MOL0     H30442   8.905   4.597   1.629 -3.6880 -0.5550  3.8400
  231MOL0     H30443   9.108   4.524   1.510 -2.6572 -0.9398  0.5591
  231MOL0     H30444   9.170   4.462   1.665  0.8013 -1.0232 -0.8605
  231MOL0     H30445   9.045   4.786   1.495 -1.7612 -0.1551  1.0386
  231MOL0     H30446   9.117   5.065   1.524  2.1521  3.1614  0.1938
  231MOL0     H30447   9.270   5.079   1.611 -0.1430  1.2303 -0.2064
  231MOL0     H30448   9.179   5.098   1.816  4.2555  3.6522 -2.5172
  231MOL0     H30449   9.020   5.050   1.758 -0.7122  0.7419  0.1762
  231MOL0     H30450   9.071   5.318   1.791  1.9376 -2.1108  0.5194
  231MOL0     H30451   9.125   5.305   1.621  1.2654  1.1078 -0.0448
  231MOL0     H30452   8.891   5.362   1.639 -1.0057  1.0942  0.3697
  231MOL0     H30453   8.858   5.209   1.734 -1.8732  0.2121 -1.3475
  231MOL0     H30454   8.659   5.263   1.631  1.6749  0.9472 -1.3558
  231MOL0     H30455   8.446   5.128   1.620  0.7649  0.0720  0.9966
  231MOL0     H30456   8.126   4.776   1.400  1.0630 -0.3233 -0.6612
  231MOL0     H30457   7.952   4.602   1.477 -2.3588  1.1887  1.9371
  231MOL0     H30458   7.762   4.501   1.627 -0.9344 -0.0146  1.4618
  231MOL0     H30459   7.781   4.661   1.692  3.1327  1.5247  0.5960
  231MOL0     H30460   7.732   4.560   1.928  1.5821  2.8143 -2.3375
  231MOL0     H30461   7.726   4.406   1.853 -1.7304 -0.1284  2.5246
  231MOL0     H30462   7.542   4.470   1.718  1.2940  1.2008 -1.3236
  231MOL0     H30463   7.559   4.641   1.775  5.0624  1.1869  0.5068
  231MOL0     H30464   7.476   4.386   1.931  0.9614  1.2707  0.9837
  231MOL0     H30465   7.518   4.540   2.006 -2.5736  1.4573  1.0597
  231MOL0     H30466   7.342   4.643   1.854  0.1366 -1.2153 -1.7570
  231MOL0     H30467   7.290   4.565   1.995  3.3511 -1.9911  1.9101
  231MOL0     H30468   7.234   4.354   1.856 -0.4460 -0.1702  0.9158
  231MOL0     H30469   7.312   4.412   1.723 -3.8498  0.1104 -1.7746
  231MOL0     H30470   7.084   4.585   1.830  1.1155  1.4046 -0.0021
  231MOL0     H30471   7.158   4.585   1.668 -0.6287 -1.9776 -1.0959
  231MOL0     H30472   7.001   4.356   1.780  1.7963  0.7603  1.1251
  231MOL0     H30473   7.072   4.389   1.617 -0.2216  0.2011  0.3315
  231MOL0     H30474   8.108   4.659   1.880  1.6724 -0.1757 -0.2379
  231MOL0     H30475   8.278   4.805   1.793 -0.6416  0.4367  0.1249
  231MOL0     H30476   8.649   4.842   1.365 -1.8134 -0.5860 -0.0246
  231MOL0     H30477   8.844   4.990   1.355 -0.4187  4.0303 -2.7560
  231MOL0     H30478   8.188   4.612   2.138 -0.2960  0.4200 -2.1027
  231MOL0     H30479   7.935   4.599   2.180 -2.5044 -2.3657 -1.9537
  231MOL0     H30480   7.574   4.385   2.220 -0.3211 -0.4880 -0.4718
  231MOL0     H30481   7.332   4.396   2.212 -0.5176 -0.2836  0.4464
  231MOL0     H30482   7.098   4.379   2.300  0.3164  0.2760  0.9606
  231MOL0     H30483   7.126   4.511   2.183 -0.2921  0.1138 -0.0134
  231MOL0     H30484   6.910   4.530   2.413 -3.0831  0.4911 -0.6762
  231MOL0     H30485   6.935   4.645   2.286  1.6862  0.4812  0.8516
  231MOL0     H30486   6.891   4.464   2.113 -0.2210  2.7337 -0.1968
  231MOL0     H30487   6.750   4.506   2.203 -1.0441 -1.9172 -2.7292
  231MOL0     H30488   6.753   4.281   2.183  0.8338  1.3876 -2.1519
  231MOL0     H30489   6.907   4.250   2.259  0.1626  0.4181  3.3653
  231MOL0     H30490   6.674   4.297   2.608 -1.3213  1.4811 -0.3067
  231MOL0     H30491   7.353   4.695   2.531  0.0382 -0.1335  0.7463
  231MOL0     H30492   7.594   4.710   2.495  2.7774 -0.4196 -2.6242
  232MOL0     O30493   0.672  10.677   4.986  0.1231  0.5015  0.0318
  232MOL0     C30494   0.600  10.577   4.979 -0.1514  0.6611 -1.3669
  232MOL0     O30495   0.598  10.486   5.084 -0.1766  0.4878  0.2836
  232MOL0     C30496   0.698  10.490   5.178 -0.3718 -1.2557  0.5260
  232MOL0     C30497   0.672  10.543   5.303 -0.2967 -0.2413  0.3048
  232MOL0     C30498   0.777  10.553   5.398  0.0352  0.1543 -0.1889
  232MOL0     C30499   0.909  10.507   5.372 -0.2046  0.1375  0.3933
  232MOL0     O30500   0.992  10.526   5.481  0.4974 -0.7703 -0.4483
  232MOL0     C30501   1.129  10.559   5.456 -0.3272 -0.7007 -1.0782
  232MOL0     C30502   1.165  10.614   5.605  0.0032  0.1575  0.3623
  232MOL0     C30503   1.322  10.622   5.626  0.2256  0.0176  0.3840
  232MOL0     C30504   1.373  10.654   5.772  0.3682 -0.3176 -0.0668
  232MOL0     C30505   1.522  10.668   5.781 -0.2224 -0.5949 -0.7607
  232MOL0     C30506   1.583  10.765   5.680 -0.0968 -0.3120 -0.2060
  232MOL0     C30507   1.719  10.828   5.741  0.1078  0.7623  0.2546
  232MOL0     C30508   1.688  10.955   5.808 -0.1377  0.1039  0.0670
  232MOL0     N30509   1.620  10.945   5.940 -0.4946  0.3789  0.6311
  232MOL0     C30510   1.669  10.877   6.038 -1.0767  0.3853 -0.8332
  232MOL0     C30511   1.575  10.857   6.131 -0.5403 -0.4860  0.3912
  232MOL0     C30512   1.602  10.783   6.259 -0.0652  0.0071 -0.7527
  232MOL0     C30513   1.541  10.856   6.388  0.0794 -0.5100  0.8738
  232MOL0     C30514   1.401  10.815   6.437  0.9365  0.1000 -0.1082
  232MOL0     C30515   1.407  10.687   6.518 -0.6095 -0.2065 -1.0674
  232MOL0     O30516   1.279  10.638   6.557  0.8948 -0.4341 -0.3004
  232MOL0     C30517   1.241  10.525   6.507  0.1493 -0.6911  0.2389
  232MOL0     C30518   1.211  10.516   6.372  0.6009  0.0895 -0.7408
  232MOL0     C30519   1.203  10.388   6.311 -0.0649 -0.7487  0.6343
  232MOL0     C30520   1.233  10.272   6.385  0.3285 -0.4225  1.1724
  232MOL0     C30521   1.233  10.140   6.326  0.0982  0.1095  0.4085
  232MOL0     O30522   1.348  10.091   6.261 -0.1422 -0.1626 -0.4496
  232MOL0     C30523   1.472  10.152   6.279  0.2938 -0.1200  1.1761
  232MOL0     C30524   1.499  10.263   6.193 -0.9104  0.5874 -1.0729
  232MOL0     C30525   1.605  10.358   6.228 -0.4407  0.2142 -0.5932
  232MOL0     C30526   1.696  10.316   6.328 -0.0276 -0.6694  0.3835
  232MOL0     O30527   1.812  10.391   6.341  0.1803  0.0715  0.2975
  232MOL0     C30528   1.892  10.394   6.464 -0.0686  0.1184  0.3400
  232MOL0     C30529   2.010  10.491   6.483  0.8388  0.4257 -0.0477
  232MOL0     C30530   2.137  10.464   6.403  0.3156 -0.0944 -0.2937
  232MOL0     C30531   2.210  10.327   6.435 -0.4162  0.2512 -0.4087
  232MOL0     C30532   2.318  10.306   6.330 -0.8296 -0.2854  1.0964
  232MOL0     C30533   2.349  10.155   6.301  0.7631 -0.3501  0.3132
  232MOL0     C30534   2.488  10.137   6.230 -0.3656  0.4199 -0.8685
  232MOL0     C30535   2.524   9.988   6.230 -0.2454  0.0677  1.5214
  232MOL0    Cl30536   2.412   9.875   6.181 -0.6214 -0.7914  0.0177
  232MOL0     C30537   1.670  10.203   6.400 -0.3408  0.2791  0.5000
  232MOL0     C30538   1.552  10.131   6.392  1.0764  0.2592 -0.8952
  232MOL0     O30539   1.131  10.074   6.332  0.3383  0.5937  0.3776
  232MOL0     C30540   1.256  10.287   6.523  0.7414 -0.6349  0.2421
  232MOL0     C30541   1.258  10.408   6.583 -0.6932 -1.9481 -0.4409
  232MOL0     N30542   1.464  10.924   6.089  0.4708  0.3183  0.0832
  232MOL0     N30543   1.490  10.972   5.971 -0.1213  0.6792  0.5371
  232MOL0     C30544   0.931  10.453   5.244  0.8674 -0.4074  0.2436
  232MOL0     C30545   0.824  10.436   5.156  0.3021 -0.1943  0.4739
  232MOL0     C30546   0.523  10.549   4.852  0.9036 -0.2643 -0.0168
  232MOL0     C30547   0.548  10.608   4.728  0.2408  0.6389 -0.6384
  232MOL0     C30548   0.488  10.567   4.603 -0.2867  0.0805  0.1757
  232MOL0     C30549   0.395  10.463   4.602  0.0161  0.6085 -0.8516
  232MOL0     O30550   0.338  10.433   4.474 -0.6089 -0.4281 -0.0503
  232MOL0     C30551   0.277  10.302   4.442 -0.7061  0.2031  0.1377
  232MOL0     C30552   0.375  10.183   4.457 -1.0210 -0.7798 -0.4221
  232MOL0     C30553   0.316  10.069   4.372 -0.2293 -0.1283 -0.5249
  232MOL0     C30554   0.378   9.932   4.398 -0.6204  0.5391 -0.3548
  232MOL0     C30555   0.388   9.889   4.544 -0.9979 -0.0496  0.4535
  232MOL0     C30556   0.416   9.888   4.658 -0.3077  0.0732 -0.3475
  232MOL0     C30557   0.356  10.417   4.729 -0.2809  1.3632 -0.0386
  232MOL0     C30558   0.423  10.446   4.850  0.4044 -0.6149 -0.5059
  232MOL0     H30559   0.574  10.584   5.329 -0.9012  0.0955 -2.2458
  232MOL0     H30560   0.749  10.599   5.492 -1.5420 -2.5138  0.7667
  232MOL0     H30561   1.140  10.642   5.385  1.7735  1.1354  1.2192
  232MOL0     H30562   1.191  10.475   5.424  2.0959  1.7010 -3.2814
  232MOL0     H30563   1.118  10.541   5.671  0.3972  0.3859  0.9023
  232MOL0     H30564   1.102  10.701   5.628 -0.5010 -0.2790  0.6626
  232MOL0     H30565   1.363  10.696   5.557  1.5625 -0.4446  0.6592
  232MOL0     H30566   1.363  10.522   5.609 -2.1981 -1.2891  1.7397
  232MOL0     H30567   1.341  10.753   5.805  1.5017 -0.1076  0.4136
  232MOL0     H30568   1.346  10.584   5.852  4.6343 -1.9291  0.2353
  232MOL0     H30569   1.578  10.575   5.785 -0.8810 -1.2268 -3.6055
  232MOL0     H30570   1.530  10.707   5.883  1.4308  1.2386 -1.5223
  232MOL0     H30571   1.524  10.851   5.648 -1.5601 -1.5942 -1.1449
  232MOL0     H30572   1.599  10.707   5.588 -1.3049  2.0473 -2.0105
  232MOL0     H30573   1.761  10.752   5.807  1.0529 -0.7066 -1.9171
  232MOL0     H30574   1.793  10.851   5.663 -0.6493 -0.9537 -1.0287
  232MOL0     H30575   1.628  11.013   5.737  0.5994  1.4219  0.4848
  232MOL0     H30576   1.780  11.011   5.825 -0.6704  0.9318  0.2681
  232MOL0     H30577   1.769  10.834   6.043 -0.8850  0.7361 -1.5012
  232MOL0     H30578   1.709  10.763   6.266  0.4740  2.0473 -2.1378
  232MOL0     H30579   1.553  10.687   6.238  0.6303 -0.3273 -0.8772
  232MOL0     H30580   1.522  10.962   6.370 -2.5989 -1.0302  0.0706
  232MOL0     H30581   1.603  10.850   6.477  3.2700  0.8890 -1.0666
  232MOL0     H30582   1.353  10.895   6.493 -1.6408 -2.5674  1.7583
  232MOL0     H30583   1.346  10.795   6.344  0.8093  1.8537 -0.4429
  232MOL0     H30584   1.471  10.701   6.606  0.1103 -2.4748 -1.1610
  232MOL0     H30585   1.454  10.610   6.456  0.2538 -0.0445 -0.6334
  232MOL0     H30586   1.193  10.609   6.320  0.7013  0.3431 -0.3208
  232MOL0     H30587   1.171  10.374   6.208  2.7901 -2.6826 -0.1116
  232MOL0     H30588   1.438  10.285   6.106 -1.3962  1.7270 -0.4715
  232MOL0     H30589   1.607  10.454   6.177 -3.4490  1.0479  0.6293
  232MOL0     H30590   1.933  10.293   6.477 -1.0712 -0.3966 -0.3654
  232MOL0     H30591   1.826  10.406   6.551 -3.3739  2.9508 -2.2816
  232MOL0     H30592   2.049  10.486   6.586 -0.3539 -0.3012  0.3858
  232MOL0     H30593   1.982  10.596   6.472  3.1002  1.1858  0.7008
  232MOL0     H30594   2.201  10.551   6.416  1.4771 -0.5032 -2.6434
  232MOL0     H30595   2.101  10.448   6.301  0.6520 -1.2311 -0.2529
  232MOL0     H30596   2.260  10.319   6.532  0.0720  2.2192 -0.4577
  232MOL0     H30597   2.143  10.242   6.418 -0.8686  1.0265 -2.7896
  232MOL0     H30598   2.407  10.363   6.358 -0.7687 -0.7228  1.8469
  232MOL0     H30599   2.281  10.339   6.233  2.0312 -2.8283 -1.0092
  232MOL0     H30600   2.273  10.120   6.231  0.1735  2.6060 -0.6681
  232MOL0     H30601   2.340  10.101   6.396 -1.0205  0.3988  0.5963
  232MOL0     H30602   2.486  10.172   6.127  0.5468 -0.6414 -1.2669
  232MOL0     H30603   2.562  10.204   6.275 -0.6868 -0.8257  1.7387
  232MOL0     H30604   2.554   9.966   6.333 -0.1453  0.0293  1.4838
  232MOL0     H30605   2.608   9.972   6.162 -1.6151 -3.2918  0.4209
  232MOL0     H30606   1.737  10.168   6.478  1.3848 -3.1365 -2.2301
  232MOL0     H30607   1.533  10.051   6.463  0.2357  1.0922 -0.1640
  232MOL0     H30608   1.283  10.204   6.587  1.2935  0.6362  1.7359
  232MOL0     H30609   1.284  10.422   6.688 -0.4570  2.6296 -0.9303
  232MOL0     H30610   1.023  10.411   5.206 -1.0726 -2.9107 -2.0740
  232MOL0     H30611   0.857  10.416   5.054  0.2395 -1.0332  0.6108
  232MOL0     H30612   0.635  10.673   4.724  1.5595 -0.9693  0.2024
  232MOL0     H30613   0.524  10.616   4.514 -2.2611  1.2153 -0.0477
  232MOL0     H30614   0.245  10.314   4.338 -4.1850  0.0235  1.0712
  232MOL0     H30615   0.191  10.288   4.508 -0.7986 -2.0535 -0.3968
  232MOL0     H30616   0.475  10.203   4.418 -1.6353 -0.2475 -1.7667
  232MOL0     H30617   0.386  10.141   4.558 -1.0714  1.4909  0.5766
  232MOL0     H30618   0.312  10.099   4.267 -1.8911 -0.1301 -0.4869
  232MOL0     H30619   0.209  10.067   4.394 -0.4983 -2.8471 -1.6980
  232MOL0     H30620   0.316   9.854   4.354  0.6320 -2.2702  2.4593
  232MOL0     H30621   0.478   9.922   4.355  0.6572 -1.6017  2.7591
  232MOL0     H30622   0.438   9.890   4.763  0.1337  4.8100 -0.2978
  232MOL0     H30623   0.287  10.333   4.730 -2.7723  3.2769  1.1713
  232MOL0     H30624   0.391  10.395   4.940  2.0680 -1.1153 -0.1621
  233MOL0     O30625   3.608   7.579   2.006  0.4779  0.2736 -0.6754
  233MOL0     C30626   3.671   7.501   2.079  0.9982  0.2471 -0.5885
  233MOL0     O30627   3.775   7.536   2.151 -0.0418  0.4209  1.1444
  233MOL0     C30628   3.792   7.669   2.177 -0.1297  0.1790  0.6841
  233MOL0     C30629   3.785   7.700   2.310  1.0780 -0.3102 -0.2956
  233MOL0     C30630   3.797   7.825   2.357 -0.2714  0.0481  0.4509
  233MOL0     C30631   3.816   7.934   2.265  0.9226  0.9801  0.3700
  233MOL0     O30632   3.839   8.062   2.314 -0.4046 -0.2351  0.8823
  233MOL0     C30633   3.754   8.152   2.259 -0.2672 -1.3507 -0.4378
  233MOL0     C30634   3.748   8.288   2.339 -0.5861 -0.0718 -0.1237
  233MOL0     C30635   3.615   8.364   2.310  0.0096  0.0833 -0.6821
  233MOL0     C30636   3.602   8.413   2.160 -0.0013  0.8077  0.4948
  233MOL0     C30637   3.462   8.469   2.124 -0.3415 -0.2183  0.4804
  233MOL0     C30638   3.419   8.598   2.198  0.7443 -0.5405  0.4892
  233MOL0     C30639   3.310   8.667   2.116 -0.0178  0.5474  0.7070
  233MOL0     C30640   3.184   8.583   2.142  0.4947 -0.5863 -0.9277
  233MOL0     N30641   3.066   8.657   2.098  0.4055  0.7720 -0.5169
  233MOL0     C30642   2.997   8.628   1.987  0.6205 -0.5242 -0.0707
  233MOL0     C30643   2.894   8.708   1.989  1.2028  0.2962  0.0746
  233MOL0     C30644   2.792   8.714   1.885  0.6700  0.1784  1.7824
  233MOL0     C30645   2.815   8.835   1.791  0.3435  0.4593  0.2286
  233MOL0     C30646   2.967   8.860   1.767 -0.2423  0.8096 -0.2719
  233MOL0     C30647   2.999   8.945   1.653  0.5357 -0.0094 -0.3047
  233MOL0     O30648   2.963   8.875   1.527  0.5750  0.4049  0.5144
  233MOL0     C30649   2.915   8.950   1.423 -0.1421  1.2077  0.4720
  233MOL0     C30650   2.814   9.040   1.444  0.7829  0.3245 -0.0340
  233MOL0     C30651   2.759   9.110   1.336 -0.7973 -0.1863  0.0539
  233MOL0     C30652   2.807   9.098   1.202  0.0010  0.4820 -0.1452
  233MOL0     C30653   2.751   9.168   1.090 -0.4578 -0.2582  0.0404
  233MOL0     O30654   2.716   9.295   1.108  0.5224 -0.6350  0.3856
  233MOL0     C30655   2.698   9.376   1.003  0.0244 -0.4312 -0.7047
  233MOL0     C30656   2.579   9.450   1.002 -0.4801 -0.5902 -0.8232
  233MOL0     C30657   2.559   9.547   0.904  0.4406 -0.3241 -0.1805
  233MOL0     C30658   2.658   9.564   0.800 -1.2475 -0.0078 -0.9711
  233MOL0     O30659   2.670   9.645   0.693  0.2008 -0.4911  0.2896
  233MOL0     C30660   2.561   9.742   0.672 -0.3042  0.1821  0.5049
  233MOL0     C30661   2.587   9.832   0.558 -0.3019  0.3087 -0.2401
  233MOL0     C30662   2.687   9.942   0.584  0.1382 -0.5002  0.0087
  233MOL0     C30663   2.642  10.054   0.686  0.9080  0.4069 -0.2411
  233MOL0     C30664   2.725  10.184   0.680 -0.3915  0.2782  0.2953
  233MOL0     C30665   2.632  10.300   0.743 -0.7941 -0.6260 -0.7701
  233MOL0     C30666   2.522  10.353   0.655  0.1353 -0.0123 -0.0751
  233MOL0     C30667   2.464  10.484   0.697  0.1140 -0.8575 -0.1498
  233MOL0    Cl30668   2.381  10.501   0.857 -0.5407 -0.0780 -0.3006
  233MOL0     C30669   2.776   9.488   0.797  1.1632 -0.2155  0.7625
  233MOL0     C30670   2.797   9.392   0.901  0.4549 -0.0628 -0.1231
  233MOL0     O30671   2.750   9.112   0.980 -0.5040  0.3642 -0.3681
  233MOL0     C30672   2.902   8.991   1.177  0.2268 -0.9716  0.2647
  233MOL0     C30673   2.957   8.920   1.285  0.1552 -0.3151  0.3714
  233MOL0     N30674   2.903   8.795   2.096  0.2040 -0.9731 -0.2424
  233MOL0     N30675   3.004   8.755   2.167  0.1554 -0.7162 -0.2578
  233MOL0     C30676   3.816   7.908   2.123 -0.9446 -0.0536  0.4137
  233MOL0     C30677   3.813   7.773   2.082 -0.6590 -0.3189 -0.2844
  233MOL0     C30678   3.628   7.357   2.075 -0.5152 -0.7753 -0.7058
  233MOL0     C30679   3.588   7.304   1.948  0.3142  0.0326  0.0946
  233MOL0     C30680   3.571   7.167   1.933  0.3465  0.9224 -0.1359
  233MOL0     C30681   3.594   7.078   2.048  0.3435  0.1642  0.3185
  233MOL0     O30682   3.573   6.946   2.017  0.8351  1.0654 -0.7334
  233MOL0     C30683   3.553   6.858   2.132 -0.5953  0.2148 -0.0487
  233MOL0     C30684   3.482   6.735   2.085  0.1080  0.5050 -0.4893
  233MOL0     C30685   3.483   6.614   2.168  0.6820  0.6761 -0.3810
  233MOL0     C30686   3.398   6.504   2.112  0.2070 -0.2465 -0.0528
  233MOL0     C30687   3.444   6.458   1.983  0.2006  0.7213  0.6045
  233MOL0     C30688   3.485   6.409   1.880  0.4922 -0.4120 -0.8525
  233MOL0     C30689   3.629   7.133   2.169  0.3292  0.8456 -0.9013
  233MOL0     C30690   3.649   7.272   2.185  0.5927 -0.5958  0.2094
  233MOL0     H30691   3.741   7.630   2.381  0.0385 -0.3606 -0.9627
  233MOL0     H30692   3.808   7.838   2.465  2.0743 -0.1692  0.2910
  233MOL0     H30693   3.652   8.113   2.262 -0.7202 -0.1963 -0.4961
  233MOL0     H30694   3.787   8.175   2.157  1.2783 -0.4664  0.2263
  233MOL0     H30695   3.833   8.355   2.326 -0.2993 -0.5292 -0.6517
  233MOL0     H30696   3.751   8.256   2.443  0.0909  0.9550  0.1876
  233MOL0     H30697   3.618   8.445   2.384  4.0788 -0.1629 -0.3281
  233MOL0     H30698   3.529   8.301   2.332  2.0393 -1.8077  2.5984
  233MOL0     H30699   3.680   8.482   2.126  2.5198 -3.4028 -3.3757
  233MOL0     H30700   3.611   8.318   2.106  0.4784  0.0518  1.8545
  233MOL0     H30701   3.382   8.395   2.136 -0.4675 -0.7170 -2.5995
  233MOL0     H30702   3.477   8.475   2.016 -0.5596 -4.3102  0.0521
  233MOL0     H30703   3.516   8.648   2.196  1.4340 -1.8349  0.0803
  233MOL0     H30704   3.389   8.593   2.303  0.3622 -0.4811  0.3819
  233MOL0     H30705   3.301   8.774   2.139  1.7912  0.9531 -0.2485
  233MOL0     H30706   3.325   8.663   2.008  0.3979  0.2253  0.7720
  233MOL0     H30707   3.157   8.567   2.247 -1.1826 -0.0817 -1.2592
  233MOL0     H30708   3.200   8.491   2.085 -0.4437 -0.3926 -1.5075
  233MOL0     H30709   3.025   8.553   1.914  1.7441 -1.3971  1.2046
  233MOL0     H30710   2.688   8.709   1.919 -1.1083  0.9033 -2.8075
  233MOL0     H30711   2.800   8.623   1.825 -4.5478 -0.5483  1.7371
  233MOL0     H30712   2.762   8.912   1.848 -2.4693 -1.0822 -0.0943
  233MOL0     H30713   2.774   8.828   1.690  1.3149  0.6737 -0.1886
  233MOL0     H30714   3.021   8.888   1.858 -1.2944  2.6658 -0.1552
  233MOL0     H30715   3.002   8.763   1.730 -2.8569 -0.0096 -0.7461
  233MOL0     H30716   3.107   8.961   1.653  0.4120  1.1440 -2.5308
  233MOL0     H30717   2.957   9.044   1.675  0.9757  0.3452 -1.0370
  233MOL0     H30718   2.781   9.067   1.544 -1.2988  1.9696 -1.0901
  233MOL0     H30719   2.680   9.178   1.363 -0.0776 -0.4453  3.3652
  233MOL0     H30720   2.507   9.425   1.079  1.7659 -2.0028  0.9877
  233MOL0     H30721   2.469   9.608   0.913  1.4876  1.0556  1.7828
  233MOL0     H30722   2.552   9.805   0.761  0.2346  1.1835 -0.1263
  233MOL0     H30723   2.473   9.679   0.660  2.2160 -3.5535  0.0293
  233MOL0     H30724   2.499   9.891   0.529 -0.7347 -1.1747 -2.1971
  233MOL0     H30725   2.621   9.763   0.479  2.4855 -1.0335  1.9721
  233MOL0     H30726   2.714   9.979   0.485  2.3426  0.7544  0.9942
  233MOL0     H30727   2.775   9.887   0.618  1.3760  0.8935 -0.8391
  233MOL0     H30728   2.534  10.072   0.682  1.0206  0.9086 -2.6992
  233MOL0     H30729   2.658  10.018   0.788 -3.0365 -3.6811 -0.7558
  233MOL0     H30730   2.760  10.208   0.580  0.9393 -0.4180  0.5680
  233MOL0     H30731   2.814  10.164   0.741 -0.9180 -0.6079  0.7978
  233MOL0     H30732   2.705  10.377   0.768 -0.5452 -0.5246 -1.7691
  233MOL0     H30733   2.595  10.262   0.839  3.5252  1.6243  2.1025
  233MOL0     H30734   2.581  10.362   0.564  1.5140  0.0607  0.7990
  233MOL0     H30735   2.442  10.281   0.635 -0.0108 -0.0794  0.7121
  233MOL0     H30736   2.392  10.516   0.621  0.7662  1.2015  0.0569
  233MOL0     H30737   2.548  10.553   0.694  0.4800 -1.3130 -0.6322
  233MOL0     H30738   2.850   9.517   0.723  0.8148 -2.6951 -0.6361
  233MOL0     H30739   2.893   9.340   0.895  0.4257 -0.1017 -0.2608
  233MOL0     H30740   2.915   8.955   1.076 -1.3118  1.7631 -1.0052
  233MOL0     H30741   3.033   8.844   1.270 -0.9176 -1.0036 -2.0133
  233MOL0     H30742   3.811   7.984   2.046 -1.5990  0.5045  1.0016
  233MOL0     H30743   3.833   7.747   1.979  2.4009 -3.3146  0.8678
  233MOL0     H30744   3.565   7.366   1.862 -0.4773 -1.4656 -0.8193
  233MOL0     H30745   3.542   7.129   1.836  0.7880  0.2410 -0.0061
  233MOL0     H30746   3.495   6.900   2.215  3.1808  1.5234  2.1634
  233MOL0     H30747   3.649   6.827   2.176 -1.7461 -1.7096  1.2776
  233MOL0     H30748   3.379   6.772   2.080 -0.5898 -0.7111  2.7790
  233MOL0     H30749   3.523   6.703   1.989 -1.9914 -4.4234 -0.0582
  233MOL0     H30750   3.435   6.647   2.261  2.0725 -1.2990  1.1285
  233MOL0     H30751   3.580   6.576   2.201 -1.0277 -2.2381  1.7609
  233MOL0     H30752   3.374   6.425   2.184 -0.3309 -3.0371 -3.0606
  233MOL0     H30753   3.297   6.544   2.093 -0.0241  2.1080  4.7007
  233MOL0     H30754   3.502   6.380   1.778  0.7106 -1.2545 -0.5872
  233MOL0     H30755   3.644   7.069   2.256  1.2345 -0.3001 -1.8625
  233MOL0     H30756   3.677   7.312   2.282 -1.2665 -2.4682  1.6185
  234MOL0     O30757   0.285   7.193   1.698 -0.5364  0.1562  0.2268
  234MOL0     C30758   0.302   7.188   1.822 -0.3045 -0.1314  0.5004
  234MOL0     O30759   0.392   7.269   1.893  0.1000  0.3921 -0.5469
  234MOL0     C30760   0.456   7.379   1.834  0.6384  0.1575 -0.9267
  234MOL0     C30761   0.387   7.504   1.842 -1.2643 -0.3371  0.5065
  234MOL0     C30762   0.436   7.615   1.760  0.0337  0.3683  0.4005
  234MOL0     C30763   0.545   7.588   1.665  0.0167 -0.8125  0.6499
  234MOL0     O30764   0.572   7.699   1.581 -0.1715 -0.5271  0.1996
  234MOL0     C30765   0.676   7.681   1.483  0.2930  0.2801  0.2305
  234MOL0     C30766   0.708   7.803   1.395  0.3714  0.4790  0.4854
  234MOL0     C30767   0.589   7.853   1.330  0.9835 -0.2801  0.2980
  234MOL0     C30768   0.504   7.945   1.424  0.5749 -0.3527 -0.3734
  234MOL0     C30769   0.382   8.018   1.362 -0.0734 -0.5799  0.2414
  234MOL0     C30770   0.292   7.921   1.279 -0.4313  0.5259 -0.8487
  234MOL0     C30771   0.166   7.995   1.231  1.3834  0.0999  0.0049
  234MOL0     C30772   0.075   7.919   1.138 -0.7918  0.2567  0.3832
  234MOL0     N30773  -0.052   7.982   1.144 -0.1473  0.2055  0.5329
  234MOL0     C30774  -0.098   8.078   1.057 -0.4418  0.2554 -0.0720
  234MOL0     C30775  -0.215   8.120   1.119 -0.7015  0.0795  0.0108
  234MOL0     C30776  -0.299   8.233   1.070  0.5485  0.2644 -0.2375
  234MOL0     C30777  -0.264   8.349   1.156  0.0150 -0.5286  0.6979
  234MOL0     C30778  -0.374   8.461   1.140 -1.1604 -0.2039  0.2274
  234MOL0     C30779  -0.360   8.549   1.007 -0.3088  0.0799  0.5191
  234MOL0     O30780  -0.227   8.607   1.001  0.3747 -0.6454 -0.0397
  234MOL0     C30781  -0.235   8.743   1.005 -0.6734  0.4288 -0.3213
  234MOL0     C30782  -0.265   8.818   0.891 -0.2116  0.6692  0.0448
  234MOL0     C30783  -0.291   8.956   0.900 -0.4409  0.0527  0.5093
  234MOL0     C30784  -0.293   9.028   1.027 -0.5893  0.9109 -0.3187
  234MOL0     C30785  -0.313   9.169   1.038 -0.7568 -0.1845  0.0444
  234MOL0     O30786  -0.266   9.233   1.142  0.4268  0.4431  0.0635
  234MOL0     C30787  -0.305   9.366   1.157  0.1820 -0.1658  0.5105
  234MOL0     C30788  -0.232   9.473   1.100 -0.5217 -0.8816 -0.3479
  234MOL0     C30789  -0.265   9.613   1.119 -0.1354 -0.3219 -0.1679
  234MOL0     C30790  -0.386   9.645   1.195 -0.1195 -0.0808 -0.5059
  234MOL0     O30791  -0.407   9.775   1.225  0.3435 -0.3306  0.0206
  234MOL0     C30792  -0.520   9.825   1.300  1.1028 -0.3943  0.1098
  234MOL0     C30793  -0.498   9.967   1.339 -0.6231  0.3638 -0.4936
  234MOL0     C30794  -0.511  10.061   1.221  0.2189 -0.2360  0.6668
  234MOL0     C30795  -0.469  10.200   1.263  0.6106  0.3381  0.1772
  234MOL0     C30796  -0.456  10.294   1.148 -1.3418 -0.0835  0.5881
  234MOL0     C30797  -0.368  10.413   1.182  0.9221  0.2083  0.3685
  234MOL0     C30798  -0.442  10.511   1.277  0.0324  0.8741 -0.3161
  234MOL0     C30799  -0.356  10.636   1.315 -0.0344  0.5974  0.4847
  234MOL0    Cl30800  -0.191  10.593   1.379 -0.4318  0.1652  0.3978
  234MOL0     C30801  -0.451   9.535   1.251 -0.3642 -0.9101 -0.5173
  234MOL0     C30802  -0.407   9.407   1.246 -0.8512 -0.2788  0.7403
  234MOL0     O30803  -0.357   9.225   0.935 -0.7292 -0.4370  0.6375
  234MOL0     C30804  -0.255   8.952   1.141  0.0299  0.0967 -0.0494
  234MOL0     C30805  -0.230   8.813   1.130  0.9280  0.3097  0.9488
  234MOL0     N30806  -0.235   8.043   1.228 -0.3117  0.0486  0.3859
  234MOL0     N30807  -0.141   7.955   1.238  0.9626  0.3210 -0.3877
  234MOL0     C30808   0.601   7.465   1.652  0.5301  0.4168  0.4270
  234MOL0     C30809   0.562   7.362   1.740 -0.8747 -0.6393  0.4309
  234MOL0     C30810   0.240   7.076   1.896 -0.1308 -0.3653 -0.6969
  234MOL0     C30811   0.250   7.055   2.032 -0.3722  0.1775 -0.0559
  234MOL0     C30812   0.181   6.954   2.102 -0.0315  0.0957  0.5359
  234MOL0     C30813   0.101   6.872   2.032  0.8445  0.3650  0.0920
  234MOL0     O30814   0.045   6.781   2.112 -0.0339 -0.0772  0.1987
  234MOL0     C30815  -0.086   6.738   2.078  0.0064 -1.3059 -0.9575
  234MOL0     C30816  -0.093   6.613   2.171  0.1014  1.2730 -0.6134
  234MOL0     C30817  -0.232   6.546   2.156  0.2543 -0.0646 -0.5431
  234MOL0     C30818  -0.354   6.629   2.215  0.7908  0.3519  0.5077
  234MOL0     C30819  -0.449   6.533   2.267  0.8872 -0.3683  0.1052
  234MOL0     C30820  -0.526   6.450   2.316  0.4285  0.2877  0.4991
  234MOL0     C30821   0.088   6.884   1.894 -0.1534 -0.0915  0.8497
  234MOL0     C30822   0.158   6.981   1.835  0.3957 -0.5752 -0.3715
  234MOL0     H30823   0.303   7.520   1.909 -2.1775 -1.5733 -0.2964
  234MOL0     H30824   0.401   7.715   1.781  0.5388  0.2192  2.1404
  234MOL0     H30825   0.658   7.597   1.415  0.8337  0.1755  0.2113
  234MOL0     H30826   0.768   7.666   1.541  2.5362 -1.5362 -3.4192
  234MOL0     H30827   0.781   7.763   1.324 -1.9823 -2.6353 -0.4044
  234MOL0     H30828   0.741   7.877   1.469  1.0837  0.6039  0.0506
  234MOL0     H30829   0.528   7.772   1.287 -3.3935  2.2558  1.0751
  234MOL0     H30830   0.611   7.908   1.238 -0.0734 -1.7274 -0.8604
  234MOL0     H30831   0.470   7.883   1.507 -0.4932 -2.1470 -2.0673
  234MOL0     H30832   0.567   8.025   1.465  0.2909 -0.5348  0.4256
  234MOL0     H30833   0.415   8.099   1.298  0.4374 -0.1393  1.0475
  234MOL0     H30834   0.324   8.058   1.446 -1.8238  0.7976 -1.5183
  234MOL0     H30835   0.255   7.845   1.348  3.1637 -0.3215  0.3750
  234MOL0     H30836   0.342   7.871   1.196 -0.8713 -0.6352 -0.4319
  234MOL0     H30837   0.103   8.023   1.316  1.4921  3.3437 -0.8655
  234MOL0     H30838   0.184   8.092   1.185  2.2903 -1.0032 -2.1042
  234MOL0     H30839   0.066   7.814   1.168  0.2303  0.0565  0.0016
  234MOL0     H30840   0.115   7.922   1.037 -4.6236 -4.1688 -1.6553
  234MOL0     H30841  -0.059   8.114   0.963  4.1949 -1.9302  0.7688
  234MOL0     H30842  -0.402   8.197   1.080  1.1790 -1.9192 -1.0419
  234MOL0     H30843  -0.273   8.266   0.969  1.3187 -2.4665 -1.0093
  234MOL0     H30844  -0.165   8.390   1.135  0.6383 -1.9890  0.6927
  234MOL0     H30845  -0.261   8.304   1.256  1.6319 -2.4480 -0.1447
  234MOL0     H30846  -0.466   8.403   1.151 -1.3161 -0.1673 -0.8152
  234MOL0     H30847  -0.380   8.528   1.227 -2.5900  0.4044 -0.3179
  234MOL0     H30848  -0.440   8.623   0.997  1.4180  1.9041 -0.5387
  234MOL0     H30849  -0.374   8.482   0.922  0.3456  0.6526 -0.0591
  234MOL0     H30850  -0.252   8.769   0.795  1.4937 -1.4677  1.2557
  234MOL0     H30851  -0.302   9.017   0.810  1.6845  1.5017  1.1424
  234MOL0     H30852  -0.146   9.439   1.043 -1.3497 -1.1699 -1.4361
  234MOL0     H30853  -0.206   9.692   1.073 -1.6356  2.8975  2.9680
  234MOL0     H30854  -0.548   9.759   1.383 -0.9080  0.4775  0.1897
  234MOL0     H30855  -0.604   9.822   1.230  1.0727 -0.0631  0.1307
  234MOL0     H30856  -0.401   9.966   1.391 -0.3224 -2.3208 -0.9363
  234MOL0     H30857  -0.573   9.987   1.416  1.0570 -0.1791  1.3731
  234MOL0     H30858  -0.609  10.077   1.174  1.4924  1.6378 -1.6207
  234MOL0     H30859  -0.439  10.021   1.149 -0.6187  0.3173 -0.5062
  234MOL0     H30860  -0.545  10.238   1.332 -0.4750 -1.6762  0.1775
  234MOL0     H30861  -0.381  10.191   1.328 -1.4295  0.4564  3.1360
  234MOL0     H30862  -0.556  10.328   1.121 -0.7952 -0.3700 -2.1107
  234MOL0     H30863  -0.422  10.246   1.055  3.5121  1.8927  1.0499
  234MOL0     H30864  -0.353  10.479   1.096 -0.0031  1.5791  1.2246
  234MOL0     H30865  -0.277  10.372   1.227  1.9315 -0.0394 -1.7438
  234MOL0     H30866  -0.535  10.541   1.228  1.5184  1.5183 -2.9143
  234MOL0     H30867  -0.456  10.455   1.370  1.4464 -2.4984 -1.9720
  234MOL0     H30868  -0.415  10.695   1.386 -1.6390 -2.4258  1.8433
  234MOL0     H30869  -0.343  10.696   1.225 -1.1498  2.4967  1.5240
  234MOL0     H30870  -0.545   9.559   1.300  1.0645  3.0881  0.6201
  234MOL0     H30871  -0.473   9.332   1.290 -1.4009 -0.2315  0.0099
  234MOL0     H30872  -0.260   8.996   1.241 -0.0717  2.5994 -1.0803
  234MOL0     H30873  -0.227   8.759   1.225  0.4529  0.2553  0.9358
  234MOL0     H30874   0.687   7.454   1.587 -0.5591  0.4135 -1.0622
  234MOL0     H30875   0.613   7.269   1.718  0.0791  0.3098 -1.6641
  234MOL0     H30876   0.299   7.127   2.096  0.2095 -0.9831  0.8588
  234MOL0     H30877   0.196   6.932   2.207  0.0215 -0.2843  0.4527
  234MOL0     H30878  -0.096   6.709   1.974 -1.7073  0.1184 -1.2473
  234MOL0     H30879  -0.165   6.808   2.109 -0.7669 -2.7220  0.3695
  234MOL0     H30880  -0.010   6.552   2.134  1.9264  2.0860  1.8896
  234MOL0     H30881  -0.081   6.642   2.275  1.8572  1.0677 -0.7276
  234MOL0     H30882  -0.231   6.454   2.215 -2.7225  0.3744  0.3337
  234MOL0     H30883  -0.260   6.526   2.052  1.6568 -2.1368 -0.5739
  234MOL0     H30884  -0.332   6.702   2.293  1.6933  0.5870  0.0470
  234MOL0     H30885  -0.414   6.683   2.141 -2.4361 -0.0979  2.6341
  234MOL0     H30886  -0.598   6.385   2.360  0.5216 -1.7613 -2.1084
  234MOL0     H30887   0.023   6.821   1.834  0.6973 -0.3757  0.2190
  234MOL0     H30888   0.148   6.991   1.728  1.7970 -1.1645 -0.5753
  235MOL0     O30889   4.176   4.280   9.723  0.4577  0.5127  0.0291
  235MOL0     C30890   4.123   4.181   9.780 -0.2265 -1.4410  0.0438
  235MOL0     O30891   3.985   4.160   9.799  0.5105  0.3064 -0.2002
  235MOL0     C30892   3.892   4.265   9.777  1.4607  0.7480 -0.8107
  235MOL0     C30893   3.863   4.325   9.656 -0.7934  1.0926 -1.4731
  235MOL0     C30894   3.770   4.423   9.653 -0.8436  0.3651  0.1043
  235MOL0     C30895   3.701   4.471   9.762 -0.2804  0.1031 -0.7344
  235MOL0     O30896   3.614   4.574   9.747 -0.0593 -0.2171  0.6946
  235MOL0     C30897   3.566   4.656   9.854  0.1509 -0.4826  0.5066
  235MOL0     C30898   3.502   4.776   9.785  0.2658 -0.7569  1.6613
  235MOL0     C30899   3.607   4.859   9.704  0.0729 -0.6265  0.3337
  235MOL0     C30900   3.680   4.970   9.786  0.5288 -0.5516 -0.3705
  235MOL0     C30901   3.591   5.080   9.841  0.1464 -0.0849 -0.3912
  235MOL0     C30902   3.505   5.142   9.732  0.0163 -0.0418 -0.7218
  235MOL0     C30903   3.443   5.273   9.779 -0.3016  0.3851  1.4551
  235MOL0     C30904   3.325   5.236   9.868 -0.5828  0.1430  0.9509
  235MOL0     N30905   3.257   5.351   9.933  0.1576 -0.6645  0.2149
  235MOL0     C30906   3.175   5.351  10.030 -0.0749  0.0952 -0.0794
  235MOL0     C30907   3.131   5.473  10.051 -0.8289 -0.4929 -0.3581
  235MOL0     C30908   3.028   5.532  10.149 -0.4556  0.0636  0.8458
  235MOL0     C30909   3.076   5.673  10.204  0.5758  0.3941 -0.2080
  235MOL0     C30910   3.218   5.654  10.268  0.1836 -0.7711  0.1808
  235MOL0     C30911   3.240   5.788  10.348 -0.3649 -0.8752 -0.0329
  235MOL0     O30912   3.171   5.789  10.478  0.4917  0.2886 -0.4889
  235MOL0     C30913   3.156   5.905  10.546 -0.0767  0.2720 -1.5203
  235MOL0     C30914   3.198   6.033  10.515  0.3334  0.5042 -0.2461
  235MOL0     C30915   3.179   6.149  10.603  0.2347 -0.5106 -0.2856
  235MOL0     C30916   3.111   6.134  10.721  0.7587 -0.1642  0.2000
  235MOL0     C30917   3.109   6.243  10.823 -0.4104  0.9676 -1.3131
  235MOL0     O30918   3.207   6.330  10.822 -0.0676  0.2908 -0.4811
  235MOL0     C30919   3.210   6.439  10.908  0.4622 -0.1928 -1.0111
  235MOL0     C30920   3.100   6.514  10.929  0.7100 -0.0343  0.5064
  235MOL0     C30921   3.104   6.630  11.006 -0.5265 -0.2709 -0.0811
  235MOL0     C30922   3.228   6.684  11.057 -0.5524  0.9804  0.2093
  235MOL0     O30923   3.223   6.812  11.114 -0.2350  0.1625 -0.3404
  235MOL0     C30924   3.150   6.814  11.232  0.1721  0.1858 -0.3304
  235MOL0     C30925   3.203   6.929  11.312  0.2363  1.1524 -0.9734
  235MOL0     C30926   3.141   6.915  11.457  0.6451 -1.2477 -0.7806
  235MOL0     C30927   2.984   6.931  11.478 -0.3910  1.1790  0.6489
  235MOL0     C30928   2.949   6.888  11.625  0.0524 -0.4733 -0.8502
  235MOL0     C30929   2.983   7.003  11.722 -0.1425 -0.7414  0.0714
  235MOL0     C30930   2.958   6.974  11.877  0.8765  0.0568  0.1433
  235MOL0     C30931   3.004   7.094  11.967 -0.0431 -0.5428 -0.1526
  235MOL0    Cl30932   2.881   7.173  12.060 -0.1609 -0.0366  0.1765
  235MOL0     C30933   3.352   6.610  11.027 -0.0647  0.4580  1.1279
  235MOL0     C30934   3.334   6.496  10.947 -0.1385 -0.1558 -1.2533
  235MOL0     O30935   3.018   6.235  10.906 -0.2871 -0.4535 -0.1987
  235MOL0     C30936   3.064   6.005  10.750  1.0687 -0.1485 -0.3954
  235MOL0     C30937   3.093   5.893  10.668 -0.3404 -0.0517 -0.0008
  235MOL0     N30938   3.189   5.561   9.954  0.0942  0.2854  0.5037
  235MOL0     N30939   3.277   5.481   9.894  0.9126  0.3639  0.1805
  235MOL0     C30940   3.738   4.419   9.880  0.6238  0.7805 -0.8153
  235MOL0     C30941   3.818   4.313   9.892 -0.9070  1.0626  1.2617
  235MOL0     C30942   4.214   4.075   9.827 -0.2513  0.5009  0.2744
  235MOL0     C30943   4.170   3.970   9.905 -0.1058 -0.1527  0.0682
  235MOL0     C30944   4.257   3.860   9.938 -0.1609 -0.0927 -0.1215
  235MOL0     C30945   4.376   3.856   9.878  1.2590 -0.3228  0.9422
  235MOL0     O30946   4.435   3.727   9.876 -0.9617 -0.3646 -0.3670
  235MOL0     C30947   4.541   3.709   9.774 -0.6785  0.9941 -0.6501
  235MOL0     C30948   4.546   3.561   9.747  0.0026 -0.3420  0.3177
  235MOL0     C30949   4.638   3.545   9.625 -0.1012  0.1493  0.4048
  235MOL0     C30950   4.656   3.400   9.597 -0.4813 -0.2361  0.8255
  235MOL0     C30951   4.528   3.330   9.581 -0.3430  0.3057  0.0148
  235MOL0     C30952   4.416   3.273   9.574 -0.3179  0.1312 -0.0136
  235MOL0     C30953   4.427   3.971   9.806 -0.6345  0.4457 -0.5839
  235MOL0     C30954   4.347   4.079   9.793 -0.9894 -0.5827  0.1574
  235MOL0     H30955   3.931   4.315   9.572  1.8114 -1.1456  0.7123
  235MOL0     H30956   3.745   4.465   9.556  0.2201 -1.3165 -0.9437
  235MOL0     H30957   3.654   4.687   9.913  0.8879  1.8149 -1.6313
  235MOL0     H30958   3.494   4.610   9.922 -0.9873  1.4848  0.6937
  235MOL0     H30959   3.465   4.845   9.861  1.4725  1.5174  0.3042
  235MOL0     H30960   3.414   4.746   9.727 -1.1093  1.8083  2.2850
  235MOL0     H30961   3.556   4.916   9.626  0.2541  3.0141  2.6270
  235MOL0     H30962   3.680   4.785   9.669  0.2224 -0.9356  1.2709
  235MOL0     H30963   3.731   4.927   9.873  0.8338  1.6997  0.6419
  235MOL0     H30964   3.759   5.016   9.726  1.6072 -2.3839 -0.4345
  235MOL0     H30965   3.652   5.156   9.891  2.6569 -3.0606  1.4590
  235MOL0     H30966   3.528   5.036   9.919  0.4459  1.5024  0.7779
  235MOL0     H30967   3.426   5.075   9.697  0.4982 -0.6407 -0.7022
  235MOL0     H30968   3.566   5.159   9.643 -0.9944  2.5024 -0.9874
  235MOL0     H30969   3.512   5.345   9.826  0.5221  0.9317 -0.4878
  235MOL0     H30970   3.401   5.320   9.690 -0.4049  0.0438  1.3231
  235MOL0     H30971   3.346   5.162   9.946 -2.6157 -1.9519 -0.3272
  235MOL0     H30972   3.261   5.180   9.799  1.4552 -1.5618  0.3454
  235MOL0     H30973   3.140   5.260  10.076  1.8931 -0.5562  0.2469
  235MOL0     H30974   3.001   5.460  10.227 -1.2396 -0.0616  0.4764
  235MOL0     H30975   2.936   5.527  10.089  0.3091  0.3499 -0.3861
  235MOL0     H30976   2.996   5.713  10.267 -1.9611 -2.0459 -1.6804
  235MOL0     H30977   3.082   5.734  10.114 -0.5901 -2.0012 -2.0219
  235MOL0     H30978   3.222   5.568  10.334 -1.9459 -3.5410 -2.9560
  235MOL0     H30979   3.299   5.640  10.196  0.9395  0.8295  0.6657
  235MOL0     H30980   3.206   5.865  10.278  2.6759 -1.0817 -1.9153
  235MOL0     H30981   3.345   5.800  10.375 -0.3891 -1.4825  0.3638
  235MOL0     H30982   3.247   6.065  10.423  0.4461  0.3941 -0.2244
  235MOL0     H30983   3.221   6.246  10.574 -2.8525  0.1600 -3.0502
  235MOL0     H30984   3.004   6.480  10.891  0.1876 -1.7463  3.1277
  235MOL0     H30985   3.009   6.678  11.029 -0.9374 -0.0017 -2.1183
  235MOL0     H30986   3.165   6.715  11.275  0.7743  0.8166  0.9655
  235MOL0     H30987   3.045   6.827  11.202 -0.1449  0.7942  0.9874
  235MOL0     H30988   3.181   7.019  11.254  0.1089 -0.0588 -2.9101
  235MOL0     H30989   3.311   6.917  11.318  0.1312 -4.3965 -3.6946
  235MOL0     H30990   3.203   6.982  11.517  1.8709 -2.5232 -0.5739
  235MOL0     H30991   3.168   6.814  11.487  0.1649 -1.4012 -0.8698
  235MOL0     H30992   2.960   7.035  11.451  1.7566  1.6647  0.4233
  235MOL0     H30993   2.931   6.872  11.404 -1.6482  1.9265  0.9208
  235MOL0     H30994   2.997   6.794  11.655 -1.6289 -1.5581 -1.4230
  235MOL0     H30995   2.842   6.865  11.633 -0.8728  3.2523 -0.7073
  235MOL0     H30996   2.932   7.094  11.689 -0.7475 -1.2391 -0.3948
  235MOL0     H30997   3.090   7.023  11.711  0.1583 -1.4887  1.3779
  235MOL0     H30998   2.851   6.967  11.897  0.4097 -0.6187 -2.2989
  235MOL0     H30999   3.000   6.877  11.904 -0.5842 -0.1446  1.8580
  235MOL0     H31000   3.050   7.176  11.912 -0.3014 -1.3983 -1.6876
  235MOL0     H31001   3.088   7.055  12.026  1.7494  0.2263 -2.0657
  235MOL0     H31002   3.452   6.645  11.052  1.8058 -1.6649 -2.5197
  235MOL0     H31003   3.418   6.427  10.942 -0.0192 -0.1543  0.2002
  235MOL0     H31004   3.017   5.981  10.845  1.4068 -0.8372 -0.3979
  235MOL0     H31005   3.050   5.798  10.698 -0.8213  1.1854  3.8911
  235MOL0     H31006   3.703   4.469   9.970 -3.4436  4.4138 -3.9662
  235MOL0     H31007   3.851   4.276   9.988  3.5676  1.6029  0.1265
  235MOL0     H31008   4.071   3.971   9.950 -0.0594  0.3726  0.1730
  235MOL0     H31009   4.222   3.778  10.000  0.7298  0.7780  1.6298
  235MOL0     H31010   4.637   3.747   9.808  1.2646 -2.5417 -1.6858
  235MOL0     H31011   4.509   3.736   9.673 -0.3959 -1.3492 -1.4311
  235MOL0     H31012   4.576   3.498   9.831 -1.0713 -0.1910  0.8414
  235MOL0     H31013   4.447   3.522   9.722 -0.8399  2.7277 -1.8164
  235MOL0     H31014   4.734   3.595   9.643  0.2856 -0.2982 -0.3744
  235MOL0     H31015   4.609   3.605   9.538  3.0665 -3.2905 -3.3915
  235MOL0     H31016   4.720   3.392   9.509  1.5897 -0.1107  2.2503
  235MOL0     H31017   4.706   3.353   9.682 -1.1947 -0.8049  0.9441
  235MOL0     H31018   4.333   3.212   9.545 -1.2649  0.9120  0.9592
  235MOL0     H31019   4.527   3.965   9.764  0.1909 -1.0646  1.4400
  235MOL0     H31020   4.391   4.161   9.737  2.4819 -3.6757 -2.0729
  236MOL0     O31021  10.807   7.325   3.473 -0.2743 -0.0600  0.2230
  236MOL0     C31022  10.711   7.277   3.406  0.6554 -1.0614  0.0214
  236MOL0     O31023  10.687   7.143   3.389  0.2195 -0.3627  0.1124
  236MOL0     C31024  10.772   7.047   3.433  0.5216 -0.4971 -0.4984
  236MOL0     C31025  10.913   7.059   3.402  0.4033 -0.3457 -0.9203
  236MOL0     C31026  10.991   6.954   3.435  0.2700 -0.2295  0.7185
  236MOL0     C31027  10.941   6.843   3.494 -0.1759  0.3953 -0.0421
  236MOL0     O31028  11.010   6.733   3.537  0.2022  0.3022 -0.2356
  236MOL0     C31029  11.124   6.679   3.463  0.2081  0.2950  1.1887
  236MOL0     C31030  11.100   6.644   3.324  0.5122 -0.3054  0.8269
  236MOL0     C31031  11.019   6.510   3.313 -1.2754 -0.6269 -0.0438
  236MOL0     C31032  11.109   6.391   3.354 -0.2981  1.4111 -0.3238
  236MOL0     C31033  11.056   6.254   3.305  0.1724 -0.3714 -0.5823
  236MOL0     C31034  11.132   6.136   3.369  0.0639  0.5840 -0.6741
  236MOL0     C31035  11.055   6.071   3.483 -0.0893  0.4827 -0.2536
  236MOL0     C31036  10.933   5.981   3.426  0.6151  1.0896 -0.1297
  236MOL0     N31037  10.839   5.921   3.524  1.2807 -0.4122 -0.0268
  236MOL0     C31038  10.857   5.907   3.658 -0.3448 -0.1695  0.5236
  236MOL0     C31039  10.730   5.882   3.711 -0.0343  0.2616  0.6299
  236MOL0     C31040  10.700   5.832   3.854 -0.0033  0.1997 -0.5319
  236MOL0     C31041  10.597   5.717   3.875 -0.3412 -0.8413  0.2157
  236MOL0     C31042  10.559   5.686   4.021 -0.4355  0.9362  0.5343
  236MOL0     C31043  10.492   5.796   4.097 -0.1303 -0.2905 -0.2016
  236MOL0     O31044  10.502   5.770   4.243 -0.3704 -0.4113 -0.0125
  236MOL0     C31045  10.417   5.852   4.331  0.4288  0.1936 -0.8151
  236MOL0     C31046  10.339   5.970   4.295  0.2380  0.9616  0.7955
  236MOL0     C31047  10.253   6.031   4.387 -1.0878 -0.0211 -0.3570
  236MOL0     C31048  10.242   5.987   4.522  0.6879 -0.5407 -0.0607
  236MOL0     C31049  10.154   6.050   4.615  0.3642  0.8354 -0.3543
  236MOL0     O31050  10.136   5.981   4.739  0.5931 -0.1151 -0.1275
  236MOL0     C31051  10.080   6.042   4.846 -0.7218 -0.4863 -0.5155
  236MOL0     C31052   9.962   5.988   4.905  0.3934 -0.1365  0.9820
  236MOL0     C31053   9.902   6.052   5.014  0.8956  0.6725  0.6644
  236MOL0     C31054   9.963   6.150   5.089 -0.1001 -0.6958  0.1798
  236MOL0     O31055   9.923   6.207   5.208 -0.9762  0.0086 -0.1235
  236MOL0     C31056   9.807   6.277   5.194  0.1245  0.9189 -0.0906
  236MOL0     C31057   9.813   6.412   5.269  0.2497 -0.7845 -0.2871
  236MOL0     C31058   9.915   6.511   5.223  0.2036  0.4287  0.5226
  236MOL0     C31059   9.911   6.634   5.311  0.1764  0.3264  1.1298
  236MOL0     C31060  10.030   6.732   5.312 -0.2197  0.3034  0.0064
  236MOL0     C31061  10.010   6.843   5.420  0.4522  0.7432 -0.6109
  236MOL0     C31062  10.101   6.955   5.420 -0.3136 -0.2081  0.5480
  236MOL0     C31063  10.206   6.949   5.520 -0.1526  0.4202 -0.3125
  236MOL0    Cl31064  10.306   6.815   5.477  0.2429 -0.1627 -0.1765
  236MOL0     C31065  10.081   6.209   5.029  0.5120  0.3281 -0.2121
  236MOL0     C31066  10.139   6.147   4.917 -0.1005  0.0153  0.6700
  236MOL0     O31067  10.104   6.163   4.582  0.4163  0.6302  0.0874
  236MOL0     C31068  10.324   5.874   4.562  0.5971 -0.0721  0.5461
  236MOL0     C31069  10.402   5.817   4.468 -0.1388  0.0342  0.3318
  236MOL0     N31070  10.648   5.857   3.604 -0.1900  0.4233  0.8843
  236MOL0     N31071  10.710   5.891   3.495  0.4801  0.0992  0.4147
  236MOL0     C31072  10.802   6.838   3.525  0.1113  0.6906  0.5683
  236MOL0     C31073  10.720   6.940   3.496  0.2740 -0.4542  1.6699
  236MOL0     C31074  10.608   7.359   3.356  0.3585  0.2552  0.1858
  236MOL0     C31075  10.497   7.316   3.291  0.4707 -0.0259 -0.0347
  236MOL0     C31076  10.380   7.393   3.249 -0.2497 -0.3952 -0.5014
  236MOL0     C31077  10.387   7.532   3.268 -0.6972 -0.3823  0.2255
  236MOL0     O31078  10.276   7.609   3.246 -0.2576  0.4395 -0.4471
  236MOL0     C31079  10.287   7.755   3.278 -0.1190 -0.3542  0.6653
  236MOL0     C31080  10.152   7.824   3.280 -0.2250  0.3225 -0.0988
  236MOL0     C31081  10.091   7.840   3.145  0.2102  0.0014 -0.1667
  236MOL0     C31082  10.159   7.919   3.032 -0.0698 -0.2053  0.6163
  236MOL0     C31083  10.249   7.840   2.952 -1.4682 -0.5373 -0.2559
  236MOL0     C31084  10.323   7.775   2.876  0.3863  0.4552 -0.5144
  236MOL0     C31085  10.506   7.582   3.334  0.0279 -0.1962 -0.7416
  236MOL0     C31086  10.615   7.496   3.368 -0.2676  0.1134 -0.9666
  236MOL0     H31087  10.958   7.150   3.364  2.4204 -0.7932  0.2571
  236MOL0     H31088  11.098   6.955   3.415 -0.0644 -0.8976 -1.3008
  236MOL0     H31089  11.169   6.593   3.514 -0.0544 -0.6967 -0.2133
  236MOL0     H31090  11.209   6.747   3.471 -0.2887  0.7070  5.0479
  236MOL0     H31091  11.194   6.649   3.269  1.1016  1.5724  1.9407
  236MOL0     H31092  11.045   6.728   3.282  0.0379  0.1443  2.3080
  236MOL0     H31093  10.995   6.482   3.210 -0.4293 -4.3945  0.6302
  236MOL0     H31094  10.931   6.518   3.378  0.7747 -3.5307  3.4542
  236MOL0     H31095  11.210   6.404   3.314  0.3172 -3.2429 -0.8341
  236MOL0     H31096  11.120   6.376   3.462 -3.0021 -2.5178 -0.3856
  236MOL0     H31097  11.079   6.259   3.199  0.1480  0.8633 -0.5437
  236MOL0     H31098  10.948   6.252   3.325  0.7312  0.3459  3.5600
  236MOL0     H31099  11.230   6.160   3.411 -0.1531  0.5286 -0.1325
  236MOL0     H31100  11.158   6.053   3.303  1.4421 -0.5706  1.2095
  236MOL0     H31101  11.117   5.990   3.522  1.0519  2.8117  3.3069
  236MOL0     H31102  11.041   6.141   3.566 -0.0740 -0.0244  0.1870
  236MOL0     H31103  10.971   5.886   3.386 -0.1028  0.0311  1.5768
  236MOL0     H31104  10.883   6.039   3.348 -3.5117 -0.2812  1.2492
  236MOL0     H31105  10.951   5.929   3.709  0.4335  2.5399 -1.8164
  236MOL0     H31106  10.654   5.920   3.901 -0.1760  0.4539 -1.1535
  236MOL0     H31107  10.794   5.808   3.904 -0.0805  0.6519 -0.1634
  236MOL0     H31108  10.653   5.629   3.841 -2.4642 -2.2583  0.2008
  236MOL0     H31109  10.513   5.730   3.806  0.8061  0.0899 -1.0555
  236MOL0     H31110  10.484   5.606   4.020 -1.8536  2.2061  1.4602
  236MOL0     H31111  10.648   5.652   4.074 -0.9613 -1.0444  0.2316
  236MOL0     H31112  10.392   5.786   4.055  0.9936 -0.4235 -3.0082
  236MOL0     H31113  10.538   5.892   4.069  1.2784 -0.9972 -0.4150
  236MOL0     H31114  10.336   6.005   4.192 -0.4057 -1.4541 -0.0743
  236MOL0     H31115  10.186   6.112   4.358  0.0232  0.2455 -2.3474
  236MOL0     H31116   9.924   5.907   4.843  1.9004 -0.3675  0.3215
  236MOL0     H31117   9.802   6.015   5.033  0.3171  0.0402 -2.9335
  236MOL0     H31118   9.724   6.219   5.234  0.7309  0.8536  1.1124
  236MOL0     H31119   9.796   6.302   5.088 -1.6459 -1.4868 -0.5353
  236MOL0     H31120   9.830   6.389   5.374  1.6114  0.6549 -0.1536
  236MOL0     H31121   9.711   6.453   5.268 -0.3121 -2.0837  0.8853
  236MOL0     H31122   9.893   6.537   5.119  1.9691  2.8143  0.6577
  236MOL0     H31123  10.013   6.462   5.228 -0.3141 -0.7806 -0.5722
  236MOL0     H31124   9.817   6.686   5.289  0.5948  0.1274 -1.4335
  236MOL0     H31125   9.913   6.605   5.416  2.1236 -1.0138  0.7720
  236MOL0     H31126  10.035   6.781   5.214 -2.9496  1.6902  0.4595
  236MOL0     H31127  10.125   6.685   5.338 -0.5600  1.0249  2.9088
  236MOL0     H31128  10.013   6.791   5.516 -1.2048 -1.7382 -1.8056
  236MOL0     H31129   9.910   6.886   5.414 -0.2654 -0.6783  0.6865
  236MOL0     H31130  10.154   6.960   5.324 -1.2928 -0.2288 -0.0048
  236MOL0     H31131  10.048   7.049   5.436 -2.7671 -1.4749  0.3928
  236MOL0     H31132  10.168   6.945   5.622  0.5813 -0.9785 -0.0610
  236MOL0     H31133  10.274   7.034   5.516 -2.2899  2.2068 -2.1407
  236MOL0     H31134  10.135   6.281   5.090 -0.3589 -0.5417  1.6406
  236MOL0     H31135  10.237   6.173   4.880  0.6002 -1.5605  1.3214
  236MOL0     H31136  10.326   5.827   4.660 -1.8931 -1.5298  0.0058
  236MOL0     H31137  10.463   5.732   4.495  0.7788 -0.0761 -1.8487
  236MOL0     H31138  10.775   6.744   3.572  3.0575 -0.4250  0.2683
  236MOL0     H31139  10.611   6.935   3.495  0.1284  1.2934 -1.0662
  236MOL0     H31140  10.487   7.208   3.285  1.0643 -0.0561 -0.5664
  236MOL0     H31141  10.289   7.354   3.204  0.8423  0.8963 -4.2085
  236MOL0     H31142  10.356   7.793   3.202 -0.7119 -2.1081 -0.8155
  236MOL0     H31143  10.325   7.778   3.378  0.2782  2.3262 -0.0088
  236MOL0     H31144  10.087   7.762   3.343  0.9056 -1.4721 -0.6430
  236MOL0     H31145  10.162   7.927   3.317 -0.0909  1.3971 -2.8976
  236MOL0     H31146   9.993   7.885   3.163  0.0809  0.0610 -1.0200
  236MOL0     H31147  10.081   7.743   3.096  0.0209 -0.0511 -0.0241
  236MOL0     H31148  10.087   7.971   2.968  0.7174  1.4110  1.0014
  236MOL0     H31149  10.201   8.008   3.081 -1.5727  1.1874 -0.4950
  236MOL0     H31150  10.387   7.720   2.810 -0.4219  0.9334 -1.7566
  236MOL0     H31151  10.525   7.688   3.347 -0.6119  0.3044 -3.3255
  236MOL0     H31152  10.701   7.533   3.423 -0.4826 -0.1426 -0.4565
  237MOL0     O31153   9.132   0.858   3.642  0.1502 -0.4213  0.6507
  237MOL0     C31154   9.132   0.899   3.754  0.9001  0.5498  0.1865
  237MOL0     O31155   9.112   1.027   3.789 -0.4337 -0.3220 -0.3028
  237MOL0     C31156   9.083   1.129   3.700 -0.0414  0.6391  0.5742
  237MOL0     C31157   8.989   1.233   3.725  0.0286  0.1424 -0.0609
  237MOL0     C31158   8.973   1.335   3.631  0.4637 -0.3502  0.4108
  237MOL0     C31159   9.064   1.353   3.528 -0.3986  0.3923  0.3053
  237MOL0     O31160   9.051   1.455   3.440 -0.8568  0.9045 -0.2407
  237MOL0     C31161   9.055   1.421   3.297 -0.0523  0.5637 -0.3915
  237MOL0     C31162   8.978   1.526   3.228 -0.2689 -0.0715  0.8343
  237MOL0     C31163   9.048   1.659   3.220 -0.1872 -0.6642 -0.2908
  237MOL0     C31164   9.072   1.743   3.354  0.7291 -0.6055  0.5492
  237MOL0     C31165   9.137   1.878   3.327  0.1743  1.1954  0.3602
  237MOL0     C31166   9.275   1.880   3.392  0.2256 -0.7886  0.1915
  237MOL0     C31167   9.386   1.782   3.345  0.8848 -0.2859 -0.6923
  237MOL0     C31168   9.484   1.715   3.451  0.3606 -0.3406  1.5171
  237MOL0     N31169   9.571   1.816   3.519  1.1321  0.0332 -0.0812
  237MOL0     C31170   9.524   1.879   3.629 -1.3267  0.3324 -0.5408
  237MOL0     C31171   9.603   1.982   3.639 -0.4851 -0.4087 -0.8087
  237MOL0     C31172   9.592   2.092   3.739 -1.2505 -0.0343 -1.0996
  237MOL0     C31173   9.475   2.178   3.717 -0.3883 -0.7737  0.5204
  237MOL0     C31174   9.473   2.307   3.795 -0.4499 -0.7463 -0.0245
  237MOL0     C31175   9.342   2.375   3.804 -0.8440  0.1315 -0.1320
  237MOL0     O31176   9.327   2.455   3.684 -0.5549 -0.6396 -0.1731
  237MOL0     C31177   9.264   2.398   3.575  0.2048  0.0730  0.5681
  237MOL0     C31178   9.136   2.335   3.577 -0.7259  0.0306 -0.3580
  237MOL0     C31179   9.062   2.304   3.464 -0.5544 -0.2575  0.0284
  237MOL0     C31180   9.116   2.320   3.336  0.0297  0.0192  1.1017
  237MOL0     C31181   9.043   2.266   3.217 -1.0258  0.0166  0.5363
  237MOL0     O31182   8.959   2.160   3.238 -0.3634  0.7343  0.7809
  237MOL0     C31183   8.860   2.135   3.147 -0.7647 -0.7688  1.0240
  237MOL0     C31184   8.745   2.214   3.135 -0.8223  0.3238  0.6632
  237MOL0     C31185   8.641   2.179   3.052 -0.6608 -0.5427  0.8256
  237MOL0     C31186   8.656   2.069   2.960 -0.7552 -0.8370  0.5399
  237MOL0     O31187   8.575   2.021   2.869 -0.1572 -0.7674  0.4009
  237MOL0     C31188   8.499   2.115   2.797  0.7437 -0.3443 -0.6067
  237MOL0     C31189   8.348   2.114   2.831  0.7202  0.8063 -0.3468
  237MOL0     C31190   8.280   1.982   2.797 -0.3342 -0.5506  1.3139
  237MOL0     C31191   8.128   1.998   2.811 -0.4118 -0.0996  0.1995
  237MOL0     C31192   8.064   1.857   2.776  0.2199 -0.9548  0.8258
  237MOL0     C31193   7.922   1.859   2.742 -0.8796 -0.6951 -0.5277
  237MOL0     C31194   7.905   1.887   2.596  0.1781  0.0251  1.4072
  237MOL0     C31195   7.758   1.868   2.563  0.2667 -0.3782  0.5104
  237MOL0    Cl31196   7.662   1.982   2.660 -0.4085  0.0152  0.0185
  237MOL0     C31197   8.762   1.987   2.984  0.0029 -0.2548  0.2386
  237MOL0     C31198   8.864   2.024   3.068  0.2817  0.2869  1.1571
  237MOL0     O31199   9.057   2.327   3.109  0.8914  0.0382 -0.7651
  237MOL0     C31200   9.244   2.388   3.332 -0.8253 -0.4532 -1.0907
  237MOL0     C31201   9.311   2.421   3.448 -0.5390  0.7645 -0.2363
  237MOL0     N31202   9.698   1.984   3.540 -0.2314 -0.1659 -0.5152
  237MOL0     N31203   9.673   1.880   3.470 -0.1646 -0.2314  1.4729
  237MOL0     C31204   9.150   1.250   3.497 -0.8480 -0.1769 -0.0665
  237MOL0     C31205   9.162   1.138   3.576  0.5174 -0.6489 -0.7960
  237MOL0     C31206   9.164   0.798   3.865 -1.2496 -0.4031 -0.3020
  237MOL0     C31207   9.169   0.660   3.849  0.2699 -0.0115 -1.0918
  237MOL0     C31208   9.206   0.574   3.955 -0.1081  0.1225 -0.0785
  237MOL0     C31209   9.234   0.633   4.081  0.4693 -0.5698  0.2170
  237MOL0     O31210   9.272   0.580   4.197  0.1010 -0.5026 -0.2297
  237MOL0     C31211   9.386   0.489   4.188 -0.0136 -0.1479  0.0757
  237MOL0     C31212   9.518   0.545   4.133 -0.0977  0.5891  0.2938
  237MOL0     C31213   9.635   0.443   4.147 -0.7345 -0.1361  0.2734
  237MOL0     C31214   9.624   0.303   4.104 -0.0981 -0.9575 -0.0090
  237MOL0     C31215   9.583   0.273   3.968  0.6096  0.3833 -0.3325
  237MOL0     C31216   9.534   0.255   3.860  0.1355  0.0834 -0.0118
  237MOL0     C31217   9.232   0.774   4.097 -0.5273 -0.3794  0.9975
  237MOL0     C31218   9.193   0.856   3.988  0.4366 -0.1012  0.4255
  237MOL0     H31219   8.909   1.220   3.797 -0.8100 -2.1622 -1.2987
  237MOL0     H31220   8.891   1.405   3.640  1.2279  1.1496 -2.8914
  237MOL0     H31221   9.018   1.320   3.273  2.7160 -0.3593 -1.2271
  237MOL0     H31222   9.158   1.414   3.262 -0.5379 -1.6245 -1.6464
  237MOL0     H31223   8.876   1.531   3.269 -1.4263  0.9292 -1.9066
  237MOL0     H31224   8.962   1.499   3.123 -0.2497  0.8892  0.5789
  237MOL0     H31225   8.986   1.726   3.160 -0.0925 -0.8078 -0.5498
  237MOL0     H31226   9.148   1.649   3.176 -0.9106  0.7405 -2.4112
  237MOL0     H31227   8.983   1.764   3.415  0.4503  0.0317 -0.0676
  237MOL0     H31228   9.143   1.691   3.419  1.2379 -1.9173 -0.9917
  237MOL0     H31229   9.075   1.958   3.368 -0.3837  1.1664 -0.4238
  237MOL0     H31230   9.141   1.909   3.223 -0.0310  3.6832  1.0218
  237MOL0     H31231   9.260   1.861   3.499 -0.4145  2.0447  0.6724
  237MOL0     H31232   9.316   1.981   3.393  0.8825 -1.0361  1.6578
  237MOL0     H31233   9.348   1.699   3.285 -0.2312  1.0571 -1.9346
  237MOL0     H31234   9.435   1.827   3.258 -0.6825 -1.9765 -2.5374
  237MOL0     H31235   9.547   1.636   3.409 -2.7158 -2.4602  0.5366
  237MOL0     H31236   9.435   1.644   3.518  0.1749 -0.7609  0.9431
  237MOL0     H31237   9.433   1.863   3.687 -0.9691  1.2320  0.3071
  237MOL0     H31238   9.683   2.153   3.747 -1.6984  0.4558  0.6876
  237MOL0     H31239   9.565   2.057   3.839 -0.0569  0.7947 -0.4701
  237MOL0     H31240   9.383   2.122   3.740 -1.2392  0.9129  1.3478
  237MOL0     H31241   9.467   2.204   3.611 -1.1270  0.2841  0.8176
  237MOL0     H31242   9.503   2.288   3.898 -0.1877  0.9952  0.2616
  237MOL0     H31243   9.551   2.377   3.762 -1.3306  0.0984 -0.3803
  237MOL0     H31244   9.337   2.434   3.896 -1.4273 -1.2495  0.7499
  237MOL0     H31245   9.266   2.297   3.812 -1.4288  0.6722 -0.2429
  237MOL0     H31246   9.095   2.321   3.677  0.1013 -2.4290 -0.2776
  237MOL0     H31247   8.964   2.263   3.483  0.3562 -1.3036  2.9418
  237MOL0     H31248   8.744   2.278   3.224  1.1899 -2.7073  3.0667
  237MOL0     H31249   8.551   2.240   3.051 -1.8377 -2.1371 -1.4117
  237MOL0     H31250   8.496   2.100   2.689 -1.0426 -2.1206 -0.3710
  237MOL0     H31251   8.533   2.219   2.806 -1.5639  0.6981 -2.5726
  237MOL0     H31252   8.292   2.187   2.771 -1.8285 -2.5582 -2.4184
  237MOL0     H31253   8.350   2.115   2.940  1.9485  0.0952 -0.3499
  237MOL0     H31254   8.304   1.906   2.872 -2.5462 -0.3405  2.3072
  237MOL0     H31255   8.295   1.945   2.695 -1.4013 -0.2744  1.0470
  237MOL0     H31256   8.102   2.024   2.914 -1.3305  2.4105 -0.5935
  237MOL0     H31257   8.079   2.073   2.748 -0.0905  0.5306  0.7029
  237MOL0     H31258   8.079   1.803   2.870  0.9421  2.4329  2.8557
  237MOL0     H31259   8.100   1.811   2.684 -4.3857 -1.8712 -0.7688
  237MOL0     H31260   7.867   1.936   2.796 -1.1191 -2.5827  2.1267
  237MOL0     H31261   7.882   1.760   2.770 -0.2149 -0.6540  0.6440
  237MOL0     H31262   7.930   1.990   2.569  0.4271 -0.3422  0.1773
  237MOL0     H31263   7.972   1.836   2.526  0.2212 -2.4941  3.1189
  237MOL0     H31264   7.727   1.765   2.582 -2.9948 -0.2018 -2.6466
  237MOL0     H31265   7.759   1.882   2.454  0.7568 -0.1291  0.5443
  237MOL0     H31266   8.782   1.894   2.933  0.1296 -0.7161  1.1107
  237MOL0     H31267   8.946   1.953   3.073 -0.1953 -0.3673 -0.0836
  237MOL0     H31268   9.278   2.395   3.229 -2.0531  0.5074 -1.4676
  237MOL0     H31269   9.404   2.471   3.422 -0.8306  0.2362 -2.5972
  237MOL0     H31270   9.222   1.243   3.417  1.1467 -0.6739  1.6900
  237MOL0     H31271   9.235   1.061   3.551  0.2911 -0.8986 -0.7035
  237MOL0     H31272   9.146   0.629   3.747 -3.2250  3.6571 -1.6898
  237MOL0     H31273   9.212   0.467   3.937  0.8814  0.2822 -0.7905
  237MOL0     H31274   9.354   0.400   4.134 -0.6278  0.8275 -1.2252
  237MOL0     H31275   9.412   0.451   4.287  0.8864 -0.3713 -0.2305
  237MOL0     H31276   9.513   0.585   4.031  2.0640  2.8175  0.9677
  237MOL0     H31277   9.525   0.625   4.207  4.0024 -1.8809  2.9809
  237MOL0     H31278   9.661   0.449   4.253 -4.1369 -1.8581  1.3742
  237MOL0     H31279   9.708   0.489   4.079 -0.0621 -1.3599  0.1475
  237MOL0     H31280   9.718   0.251   4.125  1.0032  1.0645  0.3079
  237MOL0     H31281   9.551   0.265   4.175  0.6897 -1.3121  0.6181
  237MOL0     H31282   9.488   0.213   3.772  0.5911 -2.6050  0.9449
  237MOL0     H31283   9.244   0.819   4.195 -2.3046  3.3732 -0.2760
  237MOL0     H31284   9.175   0.962   4.005 -0.8181 -0.2959  0.3812
  238MOL0     O31285   2.259   9.801   0.780 -0.3013 -0.0707 -0.1051
  238MOL0     C31286   2.160   9.793   0.707 -0.5040 -0.0432 -0.0991
  238MOL0     O31287   2.077   9.690   0.699  0.1548  0.6012  0.2624
  238MOL0     C31288   2.088   9.582   0.784 -0.0984 -0.1682 -0.4452
  238MOL0     C31289   2.106   9.587   0.923 -0.3059 -0.2256 -0.7033
  238MOL0     C31290   2.099   9.482   1.005 -0.6202  0.0243  0.1970
  238MOL0     C31291   2.081   9.356   0.944  0.5728  0.2817 -1.1502
  238MOL0     O31292   2.055   9.237   1.006  0.5267  0.3926 -0.4290
  238MOL0     C31293   2.057   9.240   1.148 -0.4407  0.7001 -0.3116
  238MOL0     C31294   2.075   9.095   1.192  0.2593  0.1103  0.4799
  238MOL0     C31295   2.213   9.045   1.216 -0.6839  0.2706  0.2557
  238MOL0     C31296   2.285   9.007   1.087  0.2486 -0.7521  0.4027
  238MOL0     C31297   2.404   8.927   1.125 -0.3467  0.2625 -0.1168
  238MOL0     C31298   2.462   8.857   1.002  0.5694 -0.3471  0.7280
  238MOL0     C31299   2.597   8.791   1.035  0.1039 -0.6353 -0.3636
  238MOL0     C31300   2.666   8.747   0.911  0.1597 -0.7363 -0.0482
  238MOL0     N31301   2.810   8.694   0.935  0.8340 -0.6023  0.4173
  238MOL0     C31302   2.862   8.628   1.047 -0.9490 -0.2535 -0.0468
  238MOL0     C31303   2.994   8.622   1.015  0.0497 -0.2907  0.5377
  238MOL0     C31304   3.107   8.565   1.095 -0.8407  0.0216 -0.7432
  238MOL0     C31305   3.238   8.620   1.034  0.3229  1.2882  0.2650
  238MOL0     C31306   3.352   8.593   1.126  0.5292  0.5615 -0.2663
  238MOL0     C31307   3.399   8.441   1.104  0.3154 -0.6037 -0.5218
  238MOL0     O31308   3.494   8.417   1.215 -0.7165  0.1695  0.3769
  238MOL0     C31309   3.620   8.386   1.172  0.5245  0.6321 -0.0790
  238MOL0     C31310   3.687   8.266   1.193  0.1039  0.1140 -0.4544
  238MOL0     C31311   3.817   8.244   1.166  0.3042  1.0379  0.3263
  238MOL0     C31312   3.889   8.347   1.100  0.4365 -0.0094  0.0902
  238MOL0     C31313   4.032   8.355   1.090 -0.3248 -0.3813 -1.1418
  238MOL0     O31314   4.093   8.410   0.983  0.0676  0.3471 -0.0020
  238MOL0     C31315   4.225   8.411   0.978 -0.1287 -0.2223 -0.1537
  238MOL0     C31316   4.296   8.513   1.045  0.8319 -0.0798  0.1894
  238MOL0     C31317   4.432   8.498   1.069  0.1334  0.6752  0.5198
  238MOL0     C31318   4.499   8.376   1.027 -0.0943 -0.2925 -0.3953
  238MOL0     O31319   4.632   8.362   1.052 -0.4289 -1.0311  0.3113
  238MOL0     C31320   4.676   8.327   1.180 -0.4706 -0.4399  0.1585
  238MOL0     C31321   4.817   8.278   1.163  0.0308  0.2934 -0.4619
  238MOL0     C31322   4.887   8.272   1.305  0.9327 -0.2491  0.4175
  238MOL0     C31323   5.029   8.267   1.305 -0.7144  0.3893  0.3720
  238MOL0     C31324   5.097   8.242   1.441 -0.1191 -0.0455  0.2138
  238MOL0     C31325   5.132   8.369   1.514  0.6204 -0.0776 -0.6749
  238MOL0     C31326   5.226   8.339   1.639  0.6845 -0.8228 -0.5518
  238MOL0     C31327   5.168   8.238   1.742  0.1740 -0.0462 -0.6101
  238MOL0    Cl31328   5.013   8.310   1.799  0.0210  0.3601  0.2517
  238MOL0     C31329   4.434   8.278   0.959  0.7520 -0.4056 -0.6551
  238MOL0     C31330   4.296   8.296   0.934  0.0916  0.1485 -0.1166
  238MOL0     O31331   4.093   8.327   1.195  0.7798 -0.1650 -0.5789
  238MOL0     C31332   3.818   8.467   1.075  0.0934  0.5755 -0.1203
  238MOL0     C31333   3.687   8.486   1.113  0.3481 -0.0348  0.5698
  238MOL0     N31334   3.012   8.677   0.895  0.7295  0.3027 -0.2738
  238MOL0     N31335   2.902   8.715   0.834  0.5797 -0.3758 -0.2814
  238MOL0     C31336   2.071   9.342   0.807  0.0579  0.1902  0.1479
  238MOL0     C31337   2.074   9.457   0.723 -0.5832 -0.1868 -0.0789
  238MOL0     C31338   2.134   9.923   0.628 -0.2093 -0.5149  0.0785
  238MOL0     C31339   2.236   9.990   0.571 -0.0998 -0.8658  0.1956
  238MOL0     C31340   2.229  10.094   0.481  0.1011  0.9002  0.4912
  238MOL0     C31341   2.099  10.144   0.452 -0.6355  0.0765 -0.1470
  238MOL0     O31342   2.074  10.246   0.368 -0.7518 -0.5805 -0.7567
  238MOL0     C31343   2.168  10.359   0.370 -0.5879  0.5715 -0.2215
  238MOL0     C31344   2.097  10.488   0.332 -0.3008 -0.0340  0.3250
  238MOL0     C31345   2.158  10.621   0.382 -0.2624  0.7321 -0.4993
  238MOL0     C31346   2.107  10.746   0.310 -0.2723  1.2701  0.2912
  238MOL0     C31347   2.147  10.862   0.380  0.3237  0.4416 -0.6213
  238MOL0     C31348   2.178  10.966   0.426 -0.2398  0.5046 -0.5046
  238MOL0     C31349   1.989  10.077   0.512  0.5105  0.4879 -0.2394
  238MOL0     C31350   2.007   9.961   0.591  0.6009 -0.2661 -0.6958
  238MOL0     H31351   2.103   9.686   0.969 -1.2637 -0.5001 -0.1374
  238MOL0     H31352   2.131   9.493   1.109 -1.0147 -3.5680  0.8399
  238MOL0     H31353   1.959   9.280   1.175 -2.0804 -2.9812 -0.1746
  238MOL0     H31354   2.138   9.303   1.186 -1.6297  1.5245  0.9581
  238MOL0     H31355   2.030   9.028   1.119 -3.4701  1.0881  1.6578
  238MOL0     H31356   2.026   9.091   1.290  0.0319  0.3673  0.3778
  238MOL0     H31357   2.195   8.959   1.281  0.3354 -0.5815 -0.5485
  238MOL0     H31358   2.275   9.120   1.265 -0.9404  1.2734 -0.8995
  238MOL0     H31359   2.222   8.951   1.016  2.1278  0.5539 -2.5065
  238MOL0     H31360   2.325   9.097   1.040 -1.2750 -0.8006 -1.1327
  238MOL0     H31361   2.374   8.854   1.201 -2.3274  1.3496  0.2293
  238MOL0     H31362   2.471   8.995   1.179 -0.5368 -0.7258  1.4308
  238MOL0     H31363   2.473   8.934   0.926  1.4319 -1.4605 -0.3112
  238MOL0     H31364   2.387   8.789   0.960 -0.6015  1.4087 -0.1421
  238MOL0     H31365   2.669   8.856   1.087 -0.0885  1.0395 -2.0851
  238MOL0     H31366   2.577   8.707   1.102 -0.6196  1.7184  2.6252
  238MOL0     H31367   2.676   8.838   0.851  1.7302  1.6554  3.5209
  238MOL0     H31368   2.609   8.663   0.868  2.5508 -2.7403  0.4771
  238MOL0     H31369   2.805   8.606   1.137 -1.4217 -0.2785 -0.3446
  238MOL0     H31370   3.105   8.456   1.093 -1.9126  0.0338 -2.8612
  238MOL0     H31371   3.100   8.603   1.197  3.4997  0.4925 -0.4229
  238MOL0     H31372   3.223   8.727   1.015 -0.9629  1.0669 -0.1224
  238MOL0     H31373   3.258   8.570   0.939 -0.9695  0.4364  0.4113
  238MOL0     H31374   3.428   8.668   1.102  3.6588 -1.8711  1.3313
  238MOL0     H31375   3.321   8.615   1.228 -0.0454  0.6467 -0.4553
  238MOL0     H31376   3.438   8.431   1.003 -1.5249 -1.1695 -1.2152
  238MOL0     H31377   3.310   8.377   1.102  1.9088 -2.9278 -1.0636
  238MOL0     H31378   3.634   8.182   1.237  0.1471  1.9719  3.6045
  238MOL0     H31379   3.868   8.156   1.202 -3.7744 -0.2701  3.6734
  238MOL0     H31380   4.236   8.595   1.083 -2.5780 -1.8438 -0.9698
  238MOL0     H31381   4.476   8.577   1.129 -2.3948  2.1928  0.5444
  238MOL0     H31382   4.614   8.244   1.213  0.1474 -0.7616  0.5267
  238MOL0     H31383   4.677   8.410   1.252  1.1583 -0.8801  0.6965
  238MOL0     H31384   4.869   8.346   1.094 -0.3559  0.6143 -0.4404
  238MOL0     H31385   4.817   8.172   1.136 -4.2310  0.1691 -0.6076
  238MOL0     H31386   4.855   8.184   1.361 -1.2529  0.4511  0.3464
  238MOL0     H31387   4.859   8.361   1.362 -3.3667 -2.1691  1.7128
  238MOL0     H31388   5.064   8.195   1.230  2.1326  2.2811 -0.3063
  238MOL0     H31389   5.062   8.362   1.260 -2.0232 -0.2880 -2.2444
  238MOL0     H31390   5.194   8.193   1.432 -1.4454 -2.7422 -0.3756
  238MOL0     H31391   5.024   8.184   1.498 -0.6505  1.1223  0.7577
  238MOL0     H31392   5.043   8.418   1.553  1.3673  0.9907 -0.2587
  238MOL0     H31393   5.186   8.440   1.450  2.0673 -0.4796  0.0634
  238MOL0     H31394   5.309   8.283   1.595 -0.0083 -0.7220 -2.0239
  238MOL0     H31395   5.267   8.427   1.690  1.9079 -1.1876 -0.8644
  238MOL0     H31396   5.241   8.208   1.817 -1.1985  1.2822  1.3363
  238MOL0     H31397   5.134   8.145   1.695  1.0661 -0.8072  0.2222
  238MOL0     H31398   4.486   8.193   0.916 -0.6992 -1.8251  0.2629
  238MOL0     H31399   4.251   8.220   0.871  0.0457 -0.2899  0.4339
  238MOL0     H31400   3.876   8.550   1.034  1.0660 -2.1327 -4.9968
  238MOL0     H31401   3.657   8.591   1.108 -0.3653 -0.2653 -3.9799
  238MOL0     H31402   2.084   9.243   0.763  2.2126 -0.3242  1.8016
  238MOL0     H31403   2.067   9.465   0.615 -0.3155 -0.8946 -0.1506
  238MOL0     H31404   2.334   9.971   0.614  0.0358 -1.4915 -0.3749
  238MOL0     H31405   2.318  10.149   0.453  1.3331 -1.8588 -1.4888
  238MOL0     H31406   2.258  10.345   0.309  1.3638  1.7155  2.1880
  238MOL0     H31407   2.213  10.381   0.468  3.3394 -1.4150 -1.3782
  238MOL0     H31408   2.105  10.499   0.224  0.5985  2.4919  0.5678
  238MOL0     H31409   1.991  10.476   0.357 -0.1253  2.1107  2.5246
  238MOL0     H31410   2.267  10.621   0.370  0.0004 -1.9038  1.0368
  238MOL0     H31411   2.149  10.630   0.490  1.8518  0.4272 -0.2566
  238MOL0     H31412   2.151  10.758   0.211  0.5397  0.8989  0.5912
  238MOL0     H31413   2.000  10.732   0.297 -0.0255 -0.5777 -0.1157
  238MOL0     H31414   2.213  11.061   0.462 -2.8586  0.2014  3.4182
  238MOL0     H31415   1.898  10.130   0.487  1.5899  2.3185 -0.4124
  238MOL0     H31416   1.916   9.913   0.627  0.4391 -0.3763 -1.2466
  239MOL0     O31417   2.400   5.599   5.231 -0.0069  0.1620  0.5454
  239MOL0     C31418   2.494   5.664   5.182  0.3423 -0.0636  0.9849
  239MOL0     O31419   2.633   5.644   5.208 -0.6106  0.4434  0.2447
  239MOL0     C31420   2.674   5.557   5.303 -0.4246 -0.0216  0.2129
  239MOL0     C31421   2.612   5.548   5.429  0.5444 -0.1263 -0.4973
  239MOL0     C31422   2.668   5.461   5.529  0.4366  0.5070 -0.2985
  239MOL0     C31423   2.784   5.384   5.505  0.0810 -0.6213  0.1665
  239MOL0     O31424   2.829   5.309   5.611 -0.1233  0.1723  0.9366
  239MOL0     C31425   2.960   5.255   5.588 -0.0175  0.4471  0.6413
  239MOL0     C31426   2.993   5.173   5.710  0.2954  0.4708  0.3529
  239MOL0     C31427   3.141   5.163   5.738  0.5803 -0.0000  0.3189
  239MOL0     C31428   3.168   5.174   5.887  0.3864 -0.2410 -0.0775
  239MOL0     C31429   3.313   5.206   5.915 -0.4322 -0.9621  0.6089
  239MOL0     C31430   3.334   5.228   6.075  0.4739  0.8342 -0.1110
  239MOL0     C31431   3.346   5.109   6.164 -0.3980 -0.1146 -0.1522
  239MOL0     C31432   3.471   5.016   6.124  0.0074 -0.3369  0.5646
  239MOL0     N31433   3.414   4.882   6.123 -0.0218 -0.0182 -0.9031
  239MOL0     C31434   3.369   4.817   6.014 -0.5134 -0.5356 -0.2673
  239MOL0     C31435   3.293   4.722   6.061 -0.7654 -0.4180 -0.5931
  239MOL0     C31436   3.240   4.610   5.988  0.2513 -0.7492  0.4969
  239MOL0     C31437   3.089   4.587   5.997  0.0393 -0.6902 -0.7286
  239MOL0     C31438   3.057   4.442   5.997  0.1325 -0.0914 -0.4434
  239MOL0     C31439   3.092   4.366   5.870  0.3440  1.2049 -0.8204
  239MOL0     O31440   3.104   4.447   5.750  0.7343  0.3773  0.2511
  239MOL0     C31441   3.046   4.415   5.632 -1.2123  0.0966  0.5779
  239MOL0     C31442   3.110   4.438   5.504  0.2819  0.1378  0.2370
  239MOL0     C31443   3.042   4.409   5.386  0.3272  0.5865 -0.6843
  239MOL0     C31444   2.924   4.343   5.383  0.7028  0.5908 -0.5354
  239MOL0     C31445   2.856   4.294   5.260 -0.5273  0.2848 -0.0558
  239MOL0     O31446   2.745   4.207   5.267  0.6169 -0.0578 -0.7314
  239MOL0     C31447   2.673   4.171   5.153 -0.1993  0.4299 -0.4719
  239MOL0     C31448   2.552   4.213   5.137  0.6538 -0.6771  0.1118
  239MOL0     C31449   2.475   4.185   5.032  1.2686  0.1143 -0.5173
  239MOL0     C31450   2.514   4.083   4.943  0.2939  0.0249  0.4345
  239MOL0     O31451   2.429   4.059   4.834 -1.3328 -0.8949  0.2563
  239MOL0     C31452   2.484   4.039   4.706  0.3063 -0.0612  0.2763
  239MOL0     C31453   2.372   4.092   4.615 -0.1027  0.0552  0.0668
  239MOL0     C31454   2.413   4.131   4.467  0.2705  0.0150 -0.1230
  239MOL0     C31455   2.294   4.123   4.365  0.3597 -0.3713 -0.0131
  239MOL0     C31456   2.316   4.219   4.243  0.9521  0.8723  0.7761
  239MOL0     C31457   2.433   4.172   4.149  0.8984 -1.0463  0.8568
  239MOL0     C31458   2.422   4.259   4.017 -0.3714  0.0250 -0.4421
  239MOL0     C31459   2.512   4.220   3.895  1.3502  0.0502 -0.1886
  239MOL0    Cl31460   2.679   4.262   3.923 -0.5081 -0.1077 -0.0383
  239MOL0     C31461   2.645   4.034   4.961 -0.0121 -0.7069  0.1349
  239MOL0     C31462   2.729   4.081   5.061  0.4786 -0.8137  0.4584
  239MOL0     O31463   2.888   4.343   5.154 -0.2287  0.5015  0.8241
  239MOL0     C31464   2.859   4.307   5.509 -0.6649 -1.3295 -0.6861
  239MOL0     C31465   2.919   4.355   5.630  1.2336 -0.6006 -0.5653
  239MOL0     N31466   3.299   4.724   6.198 -0.0958 -0.1578  0.1373
  239MOL0     N31467   3.372   4.820   6.237 -0.2103  0.0595  0.9158
  239MOL0     C31468   2.843   5.400   5.376 -0.6171 -0.2858 -0.5387
  239MOL0     C31469   2.795   5.490   5.282  0.5701  0.9929  0.5419
  239MOL0     C31470   2.464   5.765   5.076  1.1510  0.6972 -0.0547
  239MOL0     C31471   2.555   5.803   4.989  0.0691 -0.8658 -0.2647
  239MOL0     C31472   2.528   5.899   4.895 -0.0470 -0.4572  0.0263
  239MOL0     C31473   2.399   5.954   4.881  0.0540 -0.7306 -0.1243
  239MOL0     O31474   2.371   6.038   4.777 -0.0757  0.3971 -0.2030
  239MOL0     C31475   2.248   6.001   4.715  1.0108 -0.3308  0.3808
  239MOL0     C31476   2.224   6.084   4.593  0.5865 -0.9616 -1.1840
  239MOL0     C31477   2.171   6.226   4.621  0.1493 -0.2201  0.5638
  239MOL0     C31478   2.149   6.300   4.481 -0.9290  0.7865  0.6982
  239MOL0     C31479   2.039   6.392   4.500  0.4178 -0.6926 -0.1772
  239MOL0     C31480   1.956   6.485   4.505 -0.8529 -1.1962 -0.5994
  239MOL0     C31481   2.301   5.916   4.979 -0.6819 -0.0558 -0.2706
  239MOL0     C31482   2.328   5.815   5.072 -0.6937  0.4925  0.2103
  239MOL0     H31483   2.522   5.607   5.445 -0.2268 -1.0594 -1.2809
  239MOL0     H31484   2.630   5.447   5.630 -1.3897 -4.1034 -1.4021
  239MOL0     H31485   3.048   5.318   5.570  1.0707 -1.6587 -2.3086
  239MOL0     H31486   2.959   5.194   5.497  2.3549  0.8328  0.2765
  239MOL0     H31487   2.954   5.071   5.706  1.2492  0.1339 -0.9654
  239MOL0     H31488   2.936   5.214   5.793 -1.9135  1.8805 -1.7103
  239MOL0     H31489   3.180   5.255   5.693 -1.4979  1.2276  0.9374
  239MOL0     H31490   3.180   5.070   5.696 -2.9050 -2.4614  2.0709
  239MOL0     H31491   3.118   5.261   5.932  2.6390  1.6586 -1.0866
  239MOL0     H31492   3.128   5.084   5.935  0.1977 -1.7137 -2.8338
  239MOL0     H31493   3.335   5.300   5.864 -2.2312 -1.4416 -1.1674
  239MOL0     H31494   3.387   5.138   5.871  1.5793  2.0867 -1.0894
  239MOL0     H31495   3.244   5.278   6.113  0.7511  1.5993 -0.4453
  239MOL0     H31496   3.420   5.297   6.079  1.3866 -0.0723  6.0050
  239MOL0     H31497   3.352   5.149   6.266 -0.8959  1.0107 -0.5525
  239MOL0     H31498   3.257   5.046   6.155 -0.2569 -0.2825 -0.3792
  239MOL0     H31499   3.545   5.035   6.203 -0.4741 -1.4280  1.3044
  239MOL0     H31500   3.510   5.047   6.026 -0.3591 -0.6292  0.3257
  239MOL0     H31501   3.401   4.834   5.911  2.7801 -1.8168  0.4361
  239MOL0     H31502   3.292   4.518   6.016 -0.2973 -1.0824  0.4438
  239MOL0     H31503   3.272   4.605   5.884 -2.3954  2.6858 -0.6831
  239MOL0     H31504   3.029   4.640   5.923 -1.8877  0.9199  1.8410
  239MOL0     H31505   3.058   4.629   6.094  0.7660 -0.3603 -0.6312
  239MOL0     H31506   3.115   4.419   6.086 -0.1157  2.6689  0.5293
  239MOL0     H31507   2.949   4.427   6.013  0.3512 -0.5154  0.7344
  239MOL0     H31508   3.010   4.296   5.854 -0.3355  2.2838 -2.3781
  239MOL0     H31509   3.179   4.302   5.887 -0.1197  0.7681 -0.0321
  239MOL0     H31510   3.204   4.490   5.505 -0.2918  1.1962  0.6959
  239MOL0     H31511   3.102   4.421   5.296  1.0423 -0.4532 -0.3783
  239MOL0     H31512   2.513   4.281   5.212  0.9835 -1.1360  0.7156
  239MOL0     H31513   2.384   4.242   5.017  0.1565 -1.8891 -1.6964
  239MOL0     H31514   2.518   3.938   4.681  2.7086  0.4420  1.2597
  239MOL0     H31515   2.572   4.097   4.679  0.3698 -0.1466  0.2993
  239MOL0     H31516   2.319   4.172   4.666  1.2752 -0.7245  2.9778
  239MOL0     H31517   2.308   4.004   4.609 -0.5668  0.4178 -0.4435
  239MOL0     H31518   2.489   4.059   4.435 -1.1890 -2.2176  1.2399
  239MOL0     H31519   2.457   4.231   4.458 -2.5939  1.2597 -2.0973
  239MOL0     H31520   2.296   4.017   4.334  2.5580 -0.3140 -0.2655
  239MOL0     H31521   2.209   4.135   4.432  1.2413  1.1459  0.8851
  239MOL0     H31522   2.336   4.319   4.283  0.2400  2.4815 -2.5728
  239MOL0     H31523   2.221   4.214   4.189  1.5696  2.8112 -0.6157
  239MOL0     H31524   2.416   4.066   4.129 -4.1111 -0.4413  0.5724
  239MOL0     H31525   2.530   4.200   4.190  0.2314  2.1427  0.4961
  239MOL0     H31526   2.323   4.272   3.971 -0.5627  0.4436  0.0709
  239MOL0     H31527   2.457   4.356   4.054  1.5017  0.1601 -2.4185
  239MOL0     H31528   2.480   4.281   3.810 -1.6027  1.3921  1.6919
  239MOL0     H31529   2.505   4.112   3.876  2.0112 -0.0868  0.2988
  239MOL0     H31530   2.671   3.958   4.888  0.0477  1.1790 -1.9225
  239MOL0     H31531   2.835   4.068   5.075  1.1360  3.0570  0.1415
  239MOL0     H31532   2.774   4.240   5.509  0.3481 -2.6802 -1.5800
  239MOL0     H31533   2.873   4.339   5.727  2.1764 -0.3039 -0.0534
  239MOL0     H31534   2.938   5.354   5.349  0.3419  0.3519  1.4893
  239MOL0     H31535   2.831   5.498   5.180 -0.8330 -1.9429 -0.2878
  239MOL0     H31536   2.649   5.752   5.004 -1.5799 -3.8145  0.9495
  239MOL0     H31537   2.601   5.943   4.828 -1.2093  1.2196 -0.2068
  239MOL0     H31538   2.170   6.010   4.791  3.3428  1.0427  2.7917
  239MOL0     H31539   2.262   5.898   4.682  1.3892 -1.1358  2.8607
  239MOL0     H31540   2.303   6.084   4.517  3.5129  2.6693  1.4385
  239MOL0     H31541   2.136   6.040   4.546 -1.0947  0.6030  0.3147
  239MOL0     H31542   2.231   6.286   4.690 -0.7927  0.2574  0.9811
  239MOL0     H31543   2.075   6.217   4.674  0.5814  2.6813  2.0223
  239MOL0     H31544   2.233   6.365   4.456 -2.5381  2.9409  0.4861
  239MOL0     H31545   2.153   6.227   4.400  2.2020 -2.0316  3.0926
  239MOL0     H31546   1.897   6.575   4.499  2.3094  1.2786  2.0202
  239MOL0     H31547   2.203   5.961   4.985 -0.3427  0.6542  0.1106
  239MOL0     H31548   2.245   5.778   5.132 -0.0983 -1.0178  0.1549
  240MOL0     O31549   7.241   4.655   6.499 -0.3253  0.2308 -0.8211
  240MOL0     C31550   7.163   4.644   6.596  0.6225  0.6613  0.1535
  240MOL0     O31551   7.141   4.744   6.694 -0.8781 -1.3867 -0.5782
  240MOL0     C31552   7.155   4.871   6.659 -1.6532 -0.9160 -0.5586
  240MOL0     C31553   7.050   4.925   6.597 -0.0944  0.8016  0.2909
  240MOL0     C31554   7.039   5.056   6.558  0.2041 -0.4638  1.4041
  240MOL0     C31555   7.139   5.146   6.591 -0.3303  0.4425 -0.2621
  240MOL0     O31556   7.131   5.279   6.563  0.3742  0.2707 -0.1301
  240MOL0     C31557   7.039   5.328   6.465  0.0954 -0.4528 -0.0164
  240MOL0     C31558   7.050   5.482   6.443 -1.1778  0.1841 -0.7201
  240MOL0     C31559   7.162   5.494   6.341 -0.5535  0.0796 -1.4526
  240MOL0     C31560   7.201   5.636   6.307 -0.0280  0.5445 -1.0983
  240MOL0     C31561   7.331   5.634   6.227  0.4369 -0.5655 -0.6709
  240MOL0     C31562   7.388   5.767   6.205 -0.2146 -0.1581  0.0172
  240MOL0     C31563   7.532   5.755   6.146  0.2407 -0.8262 -0.0979
  240MOL0     C31564   7.583   5.889   6.129  0.0694 -0.0460 -0.4590
  240MOL0     N31565   7.727   5.887   6.079  0.9984  0.0638  0.7555
  240MOL0     C31566   7.774   5.948   5.971  0.1710  0.4019 -0.0878
  240MOL0     C31567   7.905   5.912   5.962  0.2070 -0.3862 -0.1156
  240MOL0     C31568   7.995   5.934   5.853  0.0002  0.9299  0.2643
  240MOL0     C31569   8.040   5.799   5.787  0.4956  0.5788 -0.7160
  240MOL0     C31570   8.084   5.816   5.644  0.1307  0.3827  0.2343
  240MOL0     C31571   8.080   5.688   5.550 -0.1178 -0.0516 -0.1301
  240MOL0     O31572   8.177   5.585   5.584 -0.2072  0.8259  0.9159
  240MOL0     C31573   8.127   5.468   5.631  1.3742  0.2913 -0.0153
  240MOL0     C31574   8.040   5.391   5.545  0.2676  0.1451  0.3796
  240MOL0     C31575   7.988   5.268   5.586 -0.5530  0.0629  0.0716
  240MOL0     C31576   8.021   5.228   5.724  0.2232  0.4924  0.6865
  240MOL0     C31577   7.985   5.093   5.772  0.0086 -0.1237  0.1913
  240MOL0     O31578   7.889   5.025   5.700 -0.0087 -0.1795  0.1783
  240MOL0     C31579   7.852   4.896   5.732  0.6290 -0.2576  0.4148
  240MOL0     C31580   7.947   4.795   5.716  0.1551 -0.1711  0.1969
  240MOL0     C31581   7.920   4.663   5.753  0.4025 -0.0217  0.4378
  240MOL0     C31582   7.788   4.627   5.789 -0.5067 -0.2779  0.5972
  240MOL0     O31583   7.757   4.487   5.801 -0.6113  0.3374  0.2126
  240MOL0     C31584   7.624   4.456   5.820  0.3506 -0.0208  1.2104
  240MOL0     C31585   7.600   4.312   5.792 -0.5108  0.6527 -0.2202
  240MOL0     C31586   7.641   4.226   5.912 -0.9281  1.0869  0.6035
  240MOL0     C31587   7.602   4.084   5.880 -0.4723 -0.2996 -0.3614
  240MOL0     C31588   7.627   3.990   6.003 -0.4764 -1.0577  0.8882
  240MOL0     C31589   7.524   4.022   6.105  0.6960  0.5146 -0.2776
  240MOL0     C31590   7.551   3.931   6.234 -0.1735 -0.1985 -0.8837
  240MOL0     C31591   7.634   4.010   6.343 -0.4506  0.7448 -0.2152
  240MOL0    Cl31592   7.669   3.893   6.461  0.2960  0.6417 -0.4162
  240MOL0     C31593   7.688   4.733   5.801  0.8951 -0.1846 -0.6397
  240MOL0     C31594   7.713   4.867   5.773  0.1793 -0.2048 -0.4420
  240MOL0     O31595   8.038   5.043   5.871 -0.4609  0.4586 -0.0968
  240MOL0     C31596   8.100   5.305   5.807  0.2893 -0.8137  0.5850
  240MOL0     C31597   8.151   5.427   5.761  0.6050 -0.8111  1.1317
  240MOL0     N31598   7.931   5.823   6.070  0.8617 -0.2936  0.2053
  240MOL0     N31599   7.824   5.812   6.133  0.2032  0.3931 -0.6625
  240MOL0     C31600   7.254   5.097   6.660  0.3149 -0.1187  0.9708
  240MOL0     C31601   7.265   4.957   6.690 -0.6154  0.6430 -0.2265
  240MOL0     C31602   7.091   4.517   6.618  1.1770  0.3891 -0.0180
  240MOL0     C31603   7.015   4.495   6.736 -0.6556 -0.4196 -0.2995
  240MOL0     C31604   6.942   4.379   6.754  0.3151  0.3763  0.4818
  240MOL0     C31605   6.947   4.274   6.658  0.6999  0.1396  0.3128
  240MOL0     O31606   6.893   4.153   6.676 -0.2982  0.0391 -0.1807
  240MOL0     C31607   6.933   4.083   6.791 -0.6884  0.6694  0.0804
  240MOL0     C31608   6.847   3.947   6.793  0.3847 -0.2512  0.5740
  240MOL0     C31609   6.880   3.843   6.904  0.1999  0.7324  0.3329
  240MOL0     C31610   6.845   3.884   7.047  0.4183  0.4218  0.7398
  240MOL0     C31611   6.888   3.790   7.153 -0.2418 -0.7927 -0.0074
  240MOL0     C31612   6.907   3.721   7.250 -0.1199  0.6528  0.4340
  240MOL0     C31613   7.017   4.301   6.539  0.0226  0.4119 -0.5583
  240MOL0     C31614   7.088   4.417   6.519  0.8421  0.2472 -0.2849
  240MOL0     H31615   6.968   4.857   6.580  0.4231  0.0273  0.8131
  240MOL0     H31616   6.964   5.077   6.483 -1.3401 -0.3874  2.9263
  240MOL0     H31617   6.937   5.310   6.499 -0.0071  1.2431  0.6465
  240MOL0     H31618   7.058   5.281   6.369  5.3752  0.4168  0.2934
  240MOL0     H31619   7.083   5.523   6.539  0.4677  0.7160 -1.4789
  240MOL0     H31620   6.957   5.527   6.409 -1.1564  1.4317  0.7778
  240MOL0     H31621   7.142   5.441   6.247 -0.8729  0.9914 -1.9022
  240MOL0     H31622   7.247   5.443   6.387 -3.7877 -4.4220  0.3216
  240MOL0     H31623   7.107   5.678   6.270 -1.6329 -1.6090  0.3021
  240MOL0     H31624   7.221   5.686   6.401  3.2551 -0.7818 -0.9519
  240MOL0     H31625   7.307   5.584   6.133  0.6568  2.3552 -2.3842
  240MOL0     H31626   7.411   5.580   6.280  0.8973  0.7030 -0.0453
  240MOL0     H31627   7.406   5.816   6.301  1.0993 -0.5590 -0.0121
  240MOL0     H31628   7.322   5.835   6.149  1.5503  2.1052  0.5118
  240MOL0     H31629   7.598   5.705   6.218  0.5537  0.0023  0.1961
  240MOL0     H31630   7.536   5.704   6.049 -0.6826  0.0437 -0.6097
  240MOL0     H31631   7.574   5.951   6.219  2.1923 -0.0143 -0.2197
  240MOL0     H31632   7.530   5.936   6.046  2.9479  1.3845 -1.6016
  240MOL0     H31633   7.723   6.012   5.900  0.0031 -0.1833 -0.5058
  240MOL0     H31634   8.078   5.994   5.890 -0.1512  0.7180  0.9782
  240MOL0     H31635   7.958   6.013   5.788 -0.3400  3.2639  3.0833
  240MOL0     H31636   7.971   5.714   5.792  2.0831 -0.9948 -3.3624
  240MOL0     H31637   8.127   5.768   5.845 -0.2034 -0.9190 -0.4067
  240MOL0     H31638   8.026   5.899   5.602  1.5702  2.4168  2.0084
  240MOL0     H31639   8.184   5.858   5.657 -0.4785  1.2364  3.0174
  240MOL0     H31640   8.097   5.730   5.451  2.3318 -2.9402 -1.0893
  240MOL0     H31641   7.976   5.655   5.552 -0.9426  2.3836  0.6455
  240MOL0     H31642   8.024   5.426   5.443  1.5217 -2.2537 -0.7359
  240MOL0     H31643   7.940   5.208   5.509  1.6320  1.6681 -2.7392
  240MOL0     H31644   8.043   4.816   5.670  1.7321 -2.1808  2.3462
  240MOL0     H31645   7.998   4.588   5.748 -0.0859 -0.5963  1.3503
  240MOL0     H31646   7.569   4.505   5.739  0.0290 -1.2712  0.6560
  240MOL0     H31647   7.591   4.483   5.922  0.8460  0.4258  1.2592
  240MOL0     H31648   7.653   4.284   5.700  3.3347 -2.1981  2.5318
  240MOL0     H31649   7.495   4.287   5.776  0.2079 -3.8907  0.7483
  240MOL0     H31650   7.603   4.263   6.007  0.0490 -2.7278  2.6587
  240MOL0     H31651   7.749   4.235   5.928 -0.8266 -0.0493  0.5952
  240MOL0     H31652   7.498   4.079   5.848  0.2729 -0.6448 -2.9540
  240MOL0     H31653   7.664   4.046   5.798 -1.2274 -0.5754 -0.8173
  240MOL0     H31654   7.729   3.999   6.041  0.4954 -2.6052 -1.1428
  240MOL0     H31655   7.625   3.885   5.972  1.7624 -1.2875  1.3540
  240MOL0     H31656   7.427   3.993   6.063  0.3422 -0.1092  0.9302
  240MOL0     H31657   7.530   4.130   6.122  0.8374  0.3215  0.9896
  240MOL0     H31658   7.453   3.908   6.277  0.1286  1.3123  0.7794
  240MOL0     H31659   7.602   3.836   6.215  2.0791  0.6603  0.3618
  240MOL0     H31660   7.581   4.093   6.391 -1.3425  0.4141 -0.5947
  240MOL0     H31661   7.733   4.044   6.311 -1.7005  3.4739 -1.5165
  240MOL0     H31662   7.585   4.718   5.831 -0.0489  3.8211 -1.3493
  240MOL0     H31663   7.642   4.947   5.792  0.0828 -0.4316  0.1838
  240MOL0     H31664   8.132   5.266   5.903 -0.4341 -3.0376 -0.0106
  240MOL0     H31665   8.210   5.497   5.819  0.2990  1.6025 -1.2908
  240MOL0     H31666   7.328   5.176   6.667  1.1535 -0.6680 -0.9195
  240MOL0     H31667   7.354   4.922   6.742 -2.9602 -2.1596  2.3328
  240MOL0     H31668   7.007   4.575   6.808 -0.7605 -0.6954 -0.0027
  240MOL0     H31669   6.887   4.370   6.847  1.0716  3.0248  1.2885
  240MOL0     H31670   6.929   4.135   6.887 -1.1470 -0.5766  0.7537
  240MOL0     H31671   7.039   4.061   6.774 -0.1127  2.1950  1.4556
  240MOL0     H31672   6.745   3.986   6.802 -0.8881 -3.4912  1.3616
  240MOL0     H31673   6.860   3.896   6.697  0.1840 -4.5747  2.6226
  240MOL0     H31674   6.987   3.818   6.904  0.3141  1.2099  0.3696
  240MOL0     H31675   6.832   3.746   6.888  2.3945 -0.6356  1.4753
  240MOL0     H31676   6.883   3.985   7.062 -0.4278  1.3190 -2.4084
  240MOL0     H31677   6.736   3.890   7.050  0.3902  0.2477  0.1628
  240MOL0     H31678   6.915   3.665   7.341  1.2362 -0.7431 -0.4851
  240MOL0     H31679   7.033   4.228   6.461  1.5649 -1.0720  1.0406
  240MOL0     H31680   7.153   4.406   6.433 -1.0625 -1.7911 -1.5460
  241MOL0     O31681   4.015   2.744   6.680 -0.3610  0.1395 -0.3674
  241MOL0     C31682   3.972   2.844   6.628  0.4273  0.1843 -0.0561
  241MOL0     O31683   4.036   2.929   6.534  0.1133 -0.3779 -0.7365
  241MOL0     C31684   4.147   2.883   6.472 -0.0746 -0.6120  0.5766
  241MOL0     C31685   4.144   2.877   6.334  0.3251 -0.3348 -0.7483
  241MOL0     C31686   4.253   2.815   6.264 -0.1452 -0.7660  0.1726
  241MOL0     C31687   4.368   2.764   6.330  0.0880  0.0561  0.0847
  241MOL0     O31688   4.485   2.716   6.274  0.2181 -0.3610 -0.3730
  241MOL0     C31689   4.499   2.716   6.131  0.4834  1.2011 -0.0030
  241MOL0     C31690   4.438   2.583   6.076  0.6586  0.4190  0.1625
  241MOL0     C31691   4.555   2.482   6.088  0.4168 -1.1074 -0.1137
  241MOL0     C31692   4.506   2.353   6.029 -0.3889  0.1108  0.4409
  241MOL0     C31693   4.612   2.251   5.991  1.0693  0.0013  0.0226
  241MOL0     C31694   4.544   2.133   5.921 -0.0691 -0.5662  0.9495
  241MOL0     C31695   4.628   2.017   5.863  0.1256  0.8946  0.3136
  241MOL0     C31696   4.690   2.077   5.724  0.0403  0.6599 -0.1936
  241MOL0     N31697   4.591   2.124   5.624  0.3813  0.0282  0.2619
  241MOL0     C31698   4.486   2.039   5.583  0.8882 -0.6187  0.4428
  241MOL0     C31699   4.401   2.125   5.515  0.0619 -0.4185  0.6355
  241MOL0     C31700   4.282   2.092   5.430 -0.2326 -0.3323 -0.0350
  241MOL0     C31701   4.321   2.021   5.307 -0.0188 -0.1997  0.0227
  241MOL0     C31702   4.211   2.039   5.199 -0.0099 -0.2418 -0.1123
  241MOL0     C31703   4.230   1.962   5.067  0.8690  0.6622 -0.0189
  241MOL0     O31704   4.350   2.009   5.011  0.2579  0.4846  0.6363
  241MOL0     C31705   4.392   1.957   4.887  0.2317 -0.5269 -0.2173
  241MOL0     C31706   4.330   1.856   4.823 -0.0787 -0.3689  0.1571
  241MOL0     C31707   4.382   1.791   4.711  0.4993  0.3709 -0.0213
  241MOL0     C31708   4.491   1.851   4.654 -0.4745  0.4451  0.7997
  241MOL0     C31709   4.544   1.796   4.531 -0.1567  0.9387 -0.2176
  241MOL0     O31710   4.507   1.664   4.504  0.7491  0.0182  0.0487
  241MOL0     C31711   4.550   1.573   4.400 -0.4820  0.3736  0.0332
  241MOL0     C31712   4.653   1.600   4.298  0.6323 -0.2521 -0.3418
  241MOL0     C31713   4.677   1.503   4.202  0.6590  0.1021  0.1218
  241MOL0     C31714   4.626   1.370   4.222  0.2035  0.7315 -0.9056
  241MOL0     O31715   4.674   1.260   4.157 -0.2763  0.3243 -0.2951
  241MOL0     C31716   4.716   1.282   4.019 -0.6376 -0.4284 -0.1518
  241MOL0     C31717   4.787   1.162   3.980  0.5827  0.2579 -0.3586
  241MOL0     C31718   4.805   1.184   3.828 -0.3251  0.5256  0.2485
  241MOL0     C31719   4.813   1.050   3.755 -0.5806  0.6491 -0.2143
  241MOL0     C31720   4.845   1.063   3.600  0.3800  0.2479 -0.6126
  241MOL0     C31721   4.732   1.139   3.527 -0.3543 -0.5309 -0.8368
  241MOL0     C31722   4.728   1.090   3.379  0.4808  0.3339 -0.4751
  241MOL0     C31723   4.643   1.185   3.302  0.0615 -0.3875  0.5764
  241MOL0    Cl31724   4.609   1.094   3.155  0.4572 -0.0520 -0.0622
  241MOL0     C31725   4.531   1.344   4.312  0.0278  0.2169 -0.4078
  241MOL0     C31726   4.477   1.453   4.391 -0.6167 -0.3673 -0.4703
  241MOL0     O31727   4.639   1.855   4.467  0.6376 -0.0293 -0.2575
  241MOL0     C31728   4.559   1.952   4.722  0.3242 -0.0712  0.2536
  241MOL0     C31729   4.507   2.003   4.837 -0.8478  0.5189  0.2969
  241MOL0     N31730   4.455   2.249   5.521  0.4803  0.0313 -0.0153
  241MOL0     N31731   4.558   2.252   5.597  0.7326 -0.2441  1.0618
  241MOL0     C31732   4.373   2.788   6.467 -0.0129 -0.6437  0.1334
  241MOL0     C31733   4.271   2.849   6.534  0.5843  0.0469 -0.5395
  241MOL0     C31734   3.832   2.867   6.667 -0.1970  0.1488 -0.3608
  241MOL0     C31735   3.780   2.810   6.788 -0.3864 -0.4850  0.2818
  241MOL0     C31736   3.643   2.824   6.823 -0.8947  0.2806 -1.0459
  241MOL0     C31737   3.564   2.898   6.746 -0.2484  0.2825  0.3933
  241MOL0     O31738   3.435   2.898   6.769  0.2448  1.1215  0.8971
  241MOL0     C31739   3.398   3.006   6.851  0.1320  0.6683  0.1303
  241MOL0     C31740   3.340   2.964   6.986  0.2397  0.5816 -0.7886
  241MOL0     C31741   3.444   2.936   7.104 -0.8625  0.2040  0.5806
  241MOL0     C31742   3.404   2.982   7.248 -0.0182 -0.1614 -0.5450
  241MOL0     C31743   3.364   3.121   7.266  0.0608 -0.1809 -0.2889
  241MOL0     C31744   3.338   3.239   7.300 -0.5540 -0.8719  0.1861
  241MOL0     C31745   3.611   2.949   6.622  0.0459 -0.1477 -0.4732
  241MOL0     C31746   3.742   2.944   6.589  0.5583 -0.1872 -0.7991
  241MOL0     H31747   4.050   2.915   6.297  0.9531  1.6785 -0.3999
  241MOL0     H31748   4.259   2.822   6.156 -0.3641 -1.8342  0.0854
  241MOL0     H31749   4.605   2.730   6.111  1.3673  0.6609  3.6267
  241MOL0     H31750   4.454   2.803   6.082 -1.5135  1.9396  2.8642
  241MOL0     H31751   4.410   2.583   5.970 -0.4174 -2.0794  0.3808
  241MOL0     H31752   4.352   2.556   6.137  1.4077 -2.0779  0.2338
  241MOL0     H31753   4.572   2.450   6.191  1.1335 -2.0960 -0.5243
  241MOL0     H31754   4.655   2.498   6.046  0.0041  2.4342 -0.0445
  241MOL0     H31755   4.427   2.311   6.093  0.9255 -2.3272  0.5902
  241MOL0     H31756   4.445   2.378   5.942 -1.7304 -0.7613  1.0848
  241MOL0     H31757   4.674   2.224   6.078  3.1026  3.8197 -0.0233
  241MOL0     H31758   4.685   2.299   5.925 -0.7610  2.0681 -0.6175
  241MOL0     H31759   4.474   2.166   5.844  1.6170  0.7112 -0.0824
  241MOL0     H31760   4.480   2.076   5.990 -0.6679 -0.8923  0.1488
  241MOL0     H31761   4.711   1.974   5.920 -0.2913 -1.5394 -0.7853
  241MOL0     H31762   4.564   1.931   5.841  1.9615 -0.7735  1.1779
  241MOL0     H31763   4.752   2.005   5.670 -0.6929 -1.2120  1.3503
  241MOL0     H31764   4.751   2.164   5.749  0.1281  0.3917  0.5429
  241MOL0     H31765   4.479   1.931   5.575  0.3596 -0.6264  0.9942
  241MOL0     H31766   4.235   2.188   5.408  1.6194  0.6734  0.1795
  241MOL0     H31767   4.213   2.044   5.500 -1.2053  0.9628 -0.0643
  241MOL0     H31768   4.355   1.922   5.337  1.3791  0.5415  1.0182
  241MOL0     H31769   4.409   2.071   5.265 -0.5433 -0.6941 -1.7377
  241MOL0     H31770   4.113   1.998   5.226 -0.7738  0.3550 -1.8482
  241MOL0     H31771   4.204   2.146   5.178 -0.9467 -0.1294  0.6942
  241MOL0     H31772   4.139   1.972   5.006 -0.6125  0.9318  2.0959
  241MOL0     H31773   4.238   1.853   5.079  1.2830  0.4936 -1.5900
  241MOL0     H31774   4.235   1.824   4.867 -0.9951  1.5877 -0.2753
  241MOL0     H31775   4.328   1.706   4.670 -0.3717 -0.8041  3.2558
  241MOL0     H31776   4.699   1.698   4.297  2.0150 -0.8007  1.5891
  241MOL0     H31777   4.751   1.532   4.128  0.2825  0.8878  0.0496
  241MOL0     H31778   4.788   1.364   4.007 -0.7062 -0.1783  1.0129
  241MOL0     H31779   4.627   1.299   3.957 -1.1476 -0.5644  0.5316
  241MOL0     H31780   4.730   1.074   4.011 -0.1516 -0.5094 -3.5375
  241MOL0     H31781   4.885   1.159   4.030 -0.3917 -0.7537  1.6200
  241MOL0     H31782   4.903   1.227   3.806  3.1604 -5.5562  1.7111
  241MOL0     H31783   4.714   1.234   3.794 -0.9005 -0.2347  0.6589
  241MOL0     H31784   4.895   0.991   3.797 -0.1005  0.3195 -1.5507
  241MOL0     H31785   4.723   0.992   3.776  0.3168 -0.8151 -0.2508
  241MOL0     H31786   4.857   0.960   3.564  0.1916 -0.6438  1.6627
  241MOL0     H31787   4.942   1.103   3.570  0.2376 -0.4205 -2.0537
  241MOL0     H31788   4.748   1.247   3.527 -0.3719 -0.5277 -0.3786
  241MOL0     H31789   4.638   1.111   3.576 -0.2590 -1.4040 -1.1280
  241MOL0     H31790   4.829   1.080   3.339  1.5786 -4.6083  2.6904
  241MOL0     H31791   4.686   0.989   3.380  0.8224  0.1123 -2.9630
  241MOL0     H31792   4.694   1.276   3.267 -1.2094 -0.3859 -1.4252
  241MOL0     H31793   4.551   1.199   3.360  1.1314 -2.3178  2.9041
  241MOL0     H31794   4.491   1.243   4.317  2.3307 -0.7043  1.3187
  241MOL0     H31795   4.389   1.436   4.452 -1.9489 -0.6024 -2.3590
  241MOL0     H31796   4.648   1.997   4.679 -0.3198 -0.3250 -1.4278
  241MOL0     H31797   4.562   2.088   4.876  0.1964 -0.1300  0.2642
  241MOL0     H31798   4.455   2.766   6.534 -1.4806 -3.4768  1.1977
  241MOL0     H31799   4.275   2.852   6.642 -0.9529  2.2988 -0.4896
  241MOL0     H31800   3.854   2.755   6.846  2.9770  0.3301 -2.9042
  241MOL0     H31801   3.605   2.772   6.911 -1.7388  0.7930 -1.1025
  241MOL0     H31802   3.321   3.050   6.787 -1.4797  0.8671  2.0957
  241MOL0     H31803   3.480   3.078   6.859  0.6412 -0.1118  3.5193
  241MOL0     H31804   3.276   3.046   7.018 -1.0198 -0.3537 -0.8336
  241MOL0     H31805   3.287   2.870   6.969  1.8401 -0.6022  0.3820
  241MOL0     H31806   3.535   2.987   7.072 -1.1781 -0.1987 -1.0421
  241MOL0     H31807   3.463   2.828   7.110  1.9292  0.3707 -2.5677
  241MOL0     H31808   3.315   2.925   7.278 -0.0327  0.2142  0.1485
  241MOL0     H31809   3.485   2.957   7.316 -3.1103 -0.9164  3.2623
  241MOL0     H31810   3.325   3.342   7.326 -1.4518 -0.3287 -2.1207
  241MOL0     H31811   3.543   2.992   6.550  0.7317 -2.2140 -2.4558
  241MOL0     H31812   3.774   2.978   6.492  2.7809  0.8055  0.2033
  242MOL0     O31813   7.273   0.044  10.925  0.1465 -1.0353  1.0153
  242MOL0     C31814   7.307  -0.074  10.919 -0.5018  0.4302 -0.3500
  242MOL0     O31815   7.252  -0.180  10.994  0.2294  0.1869  0.7186
  242MOL0     C31816   7.136  -0.162  11.069  0.8279 -0.5204  0.5649
  242MOL0     C31817   7.117  -0.254  11.168  0.5429  0.5718  0.9749
  242MOL0     C31818   6.992  -0.268  11.236  0.3741  0.0864 -0.3046
  242MOL0     C31819   6.882  -0.205  11.190  0.0369  0.7406 -0.4533
  242MOL0     O31820   6.772  -0.223  11.260  0.1796  0.0487  0.3009
  242MOL0     C31821   6.756  -0.163  11.382 -0.4271  0.5204 -0.0169
  242MOL0     C31822   6.616  -0.195  11.437  0.4874  0.4532 -0.7573
  242MOL0     C31823   6.496  -0.102  11.411 -0.3877  0.3116  1.3271
  242MOL0     C31824   6.486  -0.055  11.260 -0.3950 -0.9670 -0.1771
  242MOL0     C31825   6.374   0.049  11.253 -0.2508  0.2151  0.3358
  242MOL0     C31826   6.242  -0.024  11.212  0.3559  0.3724 -0.6067
  242MOL0     C31827   6.127   0.070  11.217  0.3542  0.1397 -0.3116
  242MOL0     C31828   5.988   0.001  11.195  1.1488 -0.2246  0.2099
  242MOL0     N31829   5.963  -0.040  11.055  0.0943 -0.1846 -0.5636
  242MOL0     C31830   6.025  -0.146  10.999 -0.9239 -0.5212 -0.6913
  242MOL0     C31831   5.992  -0.140  10.864 -0.1455  0.3333 -0.6122
  242MOL0     C31832   6.028  -0.226  10.754 -0.6513  0.1515 -0.0082
  242MOL0     C31833   6.161  -0.198  10.683  0.0057 -0.0618  0.1390
  242MOL0     C31834   6.157  -0.084  10.580  0.3737 -0.5233 -0.2097
  242MOL0     C31835   6.287  -0.077  10.486  0.2135 -0.3918  1.2052
  242MOL0     O31836   6.278   0.049  10.409  0.1939  0.8610 -0.6629
  242MOL0     C31837   6.398   0.080  10.343  0.3407 -0.2553  0.1192
  242MOL0     C31838   6.471   0.201  10.360  0.3102  0.5642  0.1837
  242MOL0     C31839   6.596   0.217  10.302  0.7984 -0.8587  0.5167
  242MOL0     C31840   6.647   0.112  10.221 -0.5226  0.1264  0.9540
  242MOL0     C31841   6.782   0.135  10.152 -0.7317 -0.1598 -0.0069
  242MOL0     O31842   6.827   0.258  10.110  0.1790 -0.3128 -0.3391
  242MOL0     C31843   6.937   0.273  10.032  0.2813 -0.1786  0.1298
  242MOL0     C31844   6.938   0.394   9.956  0.6960 -0.7696  1.1069
  242MOL0     C31845   7.050   0.431   9.871  0.2084  0.5194 -0.2595
  242MOL0     C31846   7.162   0.347   9.865  0.6671  1.3307  0.2312
  242MOL0     O31847   7.270   0.365   9.791 -0.0624 -0.0141 -0.3030
  242MOL0     C31848   7.240   0.411   9.656 -0.3253  0.8062  0.0700
  242MOL0     C31849   7.362   0.385   9.567  0.5535  1.0237  0.4284
  242MOL0     C31850   7.374   0.496   9.458 -0.1563  0.4001  0.4709
  242MOL0     C31851   7.274   0.497   9.352  0.7078 -0.4214  0.1364
  242MOL0     C31852   7.304   0.613   9.259 -0.4536  0.4298  0.2202
  242MOL0     C31853   7.217   0.617   9.128  0.1860  0.0020  0.1536
  242MOL0     C31854   7.251   0.524   9.021  0.3191  0.1179 -0.0370
  242MOL0     C31855   7.156   0.533   8.902  0.4298  0.1625  0.6473
  242MOL0    Cl31856   6.989   0.501   8.963  0.3802 -0.1883 -0.4969
  242MOL0     C31857   7.160   0.228   9.940 -0.7152 -0.4673  0.9989
  242MOL0     C31858   7.054   0.192  10.028 -0.9320  0.1079  0.2477
  242MOL0     O31859   6.845   0.030  10.132 -0.1996  0.3522 -0.7181
  242MOL0     C31860   6.586  -0.010  10.209 -0.6173  0.4357  0.1478
  242MOL0     C31861   6.460  -0.027  10.263 -0.4710 -0.2514 -0.4994
  242MOL0     N31862   5.904  -0.041  10.847  0.1016  0.1229  0.3455
  242MOL0     N31863   5.878   0.012  10.960 -0.6184  0.2134  1.0078
  242MOL0     C31864   6.890  -0.107  11.094 -0.2424  1.1327  0.5661
  242MOL0     C31865   7.020  -0.076  11.038 -0.6279 -0.3512  0.0559
  242MOL0     C31866   7.396  -0.117  10.808 -0.1473 -1.5779  0.7315
  242MOL0     C31867   7.451  -0.244  10.795  0.2742 -0.4598 -0.0235
  242MOL0     C31868   7.521  -0.270  10.683 -0.5215  0.4993  0.9597
  242MOL0     C31869   7.545  -0.177  10.585  1.2870 -0.3183 -0.4194
  242MOL0     O31870   7.619  -0.202  10.476 -0.3370 -0.2625 -0.1006
  242MOL0     C31871   7.746  -0.276  10.489  0.1030 -0.1872 -0.2596
  242MOL0     C31872   7.866  -0.192  10.461  0.2751 -0.3650 -0.3557
  242MOL0     C31873   7.891  -0.131  10.322 -0.0416  0.3075  0.9280
  242MOL0     C31874   7.905  -0.232  10.207  0.1685 -0.6908  0.3109
  242MOL0     C31875   7.932  -0.154  10.081  0.2757  0.0595  0.3915
  242MOL0     C31876   7.974  -0.115   9.974 -0.6719  0.6142  0.3447
  242MOL0     C31877   7.502  -0.047  10.595  0.2830  0.1976 -0.4428
  242MOL0     C31878   7.418  -0.020  10.708  1.0354 -0.0021 -0.5103
  242MOL0     H31879   7.206  -0.314  11.187 -0.4053 -1.8534 -1.6273
  242MOL0     H31880   7.000  -0.335  11.321  0.8159 -1.5490 -1.5717
  242MOL0     H31881   6.751  -0.053  11.381  1.8757  0.6599 -0.4482
  242MOL0     H31882   6.837  -0.187  11.451 -0.4150  0.0183 -0.2008
  242MOL0     H31883   6.613  -0.202  11.546 -6.1488  1.8969 -0.4632
  242MOL0     H31884   6.584  -0.291  11.396  4.6240 -1.3062 -0.3715
  242MOL0     H31885   6.515  -0.013  11.472  1.3484  0.9545 -0.0500
  242MOL0     H31886   6.402  -0.149  11.441 -1.7258  0.5262 -2.0285
  242MOL0     H31887   6.582  -0.003  11.250 -0.1669  0.1824  5.1925
  242MOL0     H31888   6.489  -0.144  11.197 -0.4896 -0.7409 -0.5062
  242MOL0     H31889   6.389   0.131  11.181 -2.0283 -1.4890 -2.1501
  242MOL0     H31890   6.362   0.094  11.352  2.4342  1.3349  0.2344
  242MOL0     H31891   6.218  -0.107  11.279 -1.2215  0.4973 -0.9918
  242MOL0     H31892   6.261  -0.057  11.110 -1.1129 -1.7122 -0.2561
  242MOL0     H31893   6.123   0.120  11.314 -2.6732 -0.0543 -0.2306
  242MOL0     H31894   6.140   0.149  11.142  5.9623  0.9380  1.0918
  242MOL0     H31895   5.908   0.072  11.218  1.8121  0.2476  1.0923
  242MOL0     H31896   5.991  -0.092  11.252  1.4517 -1.1764 -1.2899
  242MOL0     H31897   6.087  -0.219  11.049  0.6630  1.3883  0.2648
  242MOL0     H31898   5.944  -0.222  10.685 -0.7261  0.8411  0.1234
  242MOL0     H31899   6.046  -0.331  10.781 -0.9662 -0.3585 -1.6590
  242MOL0     H31900   6.194  -0.294  10.641  2.2429  2.2058 -3.9069
  242MOL0     H31901   6.232  -0.181  10.764 -1.3960 -0.0459  1.4148
  242MOL0     H31902   6.074  -0.095  10.509  0.5821 -1.9596 -0.2680
  242MOL0     H31903   6.152   0.009  10.636 -0.1509 -1.0535  0.6507
  242MOL0     H31904   6.287  -0.171  10.430 -2.7661 -2.1261  3.7921
  242MOL0     H31905   6.378  -0.085  10.546  1.6576 -0.9122 -0.9294
  242MOL0     H31906   6.418   0.276  10.419 -2.8402 -2.4373  1.5449
  242MOL0     H31907   6.655   0.308  10.304 -0.2102 -0.1430 -0.3877
  242MOL0     H31908   6.859   0.468   9.956  2.1634  0.8818  2.3539
  242MOL0     H31909   7.042   0.526   9.820 -3.1897 -0.1646 -1.2121
  242MOL0     H31910   7.218   0.518   9.656 -4.3558  0.3289 -3.9967
  242MOL0     H31911   7.152   0.354   9.622  0.4867  0.7563 -2.0899
  242MOL0     H31912   7.358   0.286   9.522  1.6711  0.5304  1.3463
  242MOL0     H31913   7.449   0.386   9.634  0.1568  1.7283  0.9427
  242MOL0     H31914   7.475   0.491   9.417 -1.3876  2.7102 -3.3706
  242MOL0     H31915   7.367   0.597   9.500  2.9663  0.8427  0.1568
  242MOL0     H31916   7.268   0.403   9.297  1.0341  0.2737 -1.1180
  242MOL0     H31917   7.176   0.500   9.400 -0.2034  1.3632 -1.7262
  242MOL0     H31918   7.410   0.613   9.231 -0.3381 -1.0160  0.5503
  242MOL0     H31919   7.284   0.711   9.302 -2.3436  0.0725  0.2178
  242MOL0     H31920   7.223   0.720   9.092 -3.2845  0.9395  1.7684
  242MOL0     H31921   7.110   0.611   9.153  0.0843 -2.1406 -0.6390
  242MOL0     H31922   7.355   0.545   8.995  1.1766  0.7323  3.4374
  242MOL0     H31923   7.255   0.426   9.069  2.4061 -0.7414 -1.7725
  242MOL0     H31924   7.200   0.487   8.813  2.5626 -0.1994  1.8290
  242MOL0     H31925   7.149   0.634   8.861  0.4740 -0.4566 -0.9635
  242MOL0     H31926   7.255   0.177   9.932  1.2821  3.0456  0.1039
  242MOL0     H31927   7.071   0.105  10.090 -1.5655 -1.3410 -1.5522
  242MOL0     H31928   6.613  -0.095  10.148 -2.3048  0.1574 -0.2675
  242MOL0     H31929   6.402  -0.114  10.235  2.7019 -2.0814 -1.9109
  242MOL0     H31930   6.804  -0.043  11.077  0.2564  1.3267 -1.4226
  242MOL0     H31931   7.028  -0.008  10.954 -0.2688  0.8747  1.0548
  242MOL0     H31932   7.432  -0.310  10.879  0.2849  3.9428  3.8256
  242MOL0     H31933   7.539  -0.374  10.657  1.8742  1.2475 -0.7480
  242MOL0     H31934   7.757  -0.353  10.412  1.9250  1.9448 -2.2806
  242MOL0     H31935   7.766  -0.312  10.590  3.0037  2.2613  0.1651
  242MOL0     H31936   7.860  -0.121  10.544  0.7893  0.3975 -0.9620
  242MOL0     H31937   7.949  -0.257  10.492  0.1444 -0.5152 -0.3171
  242MOL0     H31938   7.984  -0.075  10.328 -0.0938  0.5533 -0.2617
  242MOL0     H31939   7.805  -0.067  10.299  0.5308  1.4327  1.8186
  242MOL0     H31940   7.984  -0.304  10.230  1.3989 -0.6036 -3.0316
  242MOL0     H31941   7.815  -0.294  10.195  0.5550 -1.0275 -1.0308
  242MOL0     H31942   8.017  -0.073   9.885  1.0757 -2.1696 -0.2396
  242MOL0     H31943   7.528   0.033  10.527 -1.6260 -1.9223 -3.9939
  242MOL0     H31944   7.393   0.084  10.723  3.2429  0.8684 -2.3180
  243MOL0     O31945   3.243   4.644   0.163  0.7290 -1.2917  0.2899
  243MOL0     C31946   3.244   4.743   0.236  0.4518  1.4081  0.4963
  243MOL0     O31947   3.193   4.871   0.210  0.1550  0.5975 -0.1594
  243MOL0     C31948   3.104   4.878   0.101 -0.4120  0.2892 -0.0194
  243MOL0     C31949   3.124   4.964  -0.009 -0.2829  0.3491 -0.8094
  243MOL0     C31950   3.036   4.960  -0.120 -0.5079  0.2479  0.5251
  243MOL0     C31951   2.937   4.870  -0.125 -0.0209  0.6555  0.1874
  243MOL0     O31952   2.859   4.849  -0.242 -0.9956 -0.2380 -0.5869
  243MOL0     C31953   2.889   4.726  -0.319 -0.1049 -0.8649  0.2655
  243MOL0     C31954   2.760   4.653  -0.358 -1.1049  0.0531  0.3087
  243MOL0     C31955   2.669   4.600  -0.249 -0.1793 -0.5418  0.7038
  243MOL0     C31956   2.734   4.483  -0.166 -0.3788 -0.1953  0.0755
  243MOL0     C31957   2.651   4.459  -0.037 -0.0163  0.4406  0.2602
  243MOL0     C31958   2.707   4.347   0.045 -1.1670 -0.0286  0.3985
  243MOL0     C31959   2.598   4.301   0.149 -0.1808  0.0634  0.8953
  243MOL0     C31960   2.646   4.248   0.278 -0.2776 -0.0342 -0.4608
  243MOL0     N31961   2.541   4.191   0.361 -0.5229  0.2521  0.8918
  243MOL0     C31962   2.408   4.223   0.350  1.3670 -0.9575  0.1096
  243MOL0     C31963   2.340   4.151   0.442  0.3462 -0.2577  0.1170
  243MOL0     C31964   2.197   4.163   0.467 -0.2469 -0.0090 -0.3301
  243MOL0     C31965   2.160   4.073   0.587  0.8010  0.0494 -0.2988
  243MOL0     C31966   2.046   4.126   0.676 -0.2448 -0.1691  1.4964
  243MOL0     C31967   1.903   4.088   0.627  0.2185  0.4496  0.2862
  243MOL0     O31968   1.860   3.950   0.655 -0.1063  0.4985 -0.4113
  243MOL0     C31969   1.781   3.919   0.760  0.9667  0.0040  0.0338
  243MOL0     C31970   1.691   3.817   0.726 -0.7062 -0.6002 -0.7562
  243MOL0     C31971   1.601   3.766   0.828 -0.0243 -0.5989 -0.0134
  243MOL0     C31972   1.596   3.825   0.962  0.0479 -0.7317 -0.1617
  243MOL0     C31973   1.497   3.781   1.055  0.0235  0.2217  0.1320
  243MOL0     O31974   1.484   3.849   1.177  0.5306 -0.8279  0.0739
  243MOL0     C31975   1.372   3.843   1.253 -0.0131  0.2905  0.6587
  243MOL0     C31976   1.392   3.833   1.389  0.1148 -0.4355 -0.6921
  243MOL0     C31977   1.277   3.849   1.473  0.6901 -0.0804 -0.2394
  243MOL0     C31978   1.150   3.838   1.424  0.6144  0.0449 -0.3544
  243MOL0     O31979   1.024   3.876   1.488 -0.2584  0.2566 -0.0278
  243MOL0     C31980   1.011   3.880   1.632  0.7695  0.9176  0.3445
  243MOL0     C31981   0.952   3.740   1.676 -0.8675 -0.4991 -0.6799
  243MOL0     C31982   0.968   3.741   1.830  0.4825 -0.7197  0.4022
  243MOL0     C31983   0.934   3.875   1.904  0.5901  0.0009  0.5147
  243MOL0     C31984   0.956   3.854   2.055 -0.7807  0.3194  0.7947
  243MOL0     C31985   0.906   3.962   2.153 -0.2144 -1.7381 -0.0502
  243MOL0     C31986   0.955   3.948   2.296 -0.5697 -1.1498  0.3672
  243MOL0     C31987   0.862   3.998   2.393 -1.0256  0.6652 -0.2391
  243MOL0    Cl31988   0.894   3.948   2.563  0.8163  1.2375  0.2865
  243MOL0     C31989   1.134   3.822   1.289  0.0876  0.0506  0.3322
  243MOL0     C31990   1.241   3.830   1.207 -0.2647 -0.2900 -0.3006
  243MOL0     O31991   1.418   3.692   1.014 -0.6038 -0.2449  0.1678
  243MOL0     C31992   1.679   3.933   0.986  0.7969 -0.4031 -0.6400
  243MOL0     C31993   1.774   3.979   0.891 -0.2374  0.8286  0.0952
  243MOL0     N31994   2.432   4.080   0.511 -0.2461  0.6963 -0.6399
  243MOL0     N31995   2.549   4.101   0.463 -0.1919 -0.7025 -0.0631
  243MOL0     C31996   2.910   4.795  -0.010 -0.6880 -0.0728  0.1810
  243MOL0     C31997   2.997   4.789   0.095  0.7313 -0.0159 -0.3685
  243MOL0     C31998   3.297   4.734   0.372 -0.5448  0.2162  0.5872
  243MOL0     C31999   3.357   4.837   0.438 -0.5781 -0.2022 -0.8107
  243MOL0     C32000   3.412   4.820   0.567 -1.1650  1.3450  0.5739
  243MOL0     C32001   3.411   4.689   0.628 -0.1880 -0.2695  0.0471
  243MOL0     O32002   3.464   4.647   0.753 -0.3549 -0.4656  0.4853
  243MOL0     C32003   3.527   4.743   0.837  0.4900  1.2563  0.2500
  243MOL0     C32004   3.682   4.735   0.818  0.4174  0.9630 -0.5561
  243MOL0     C32005   3.743   4.845   0.907  0.3394 -0.8554 -0.2151
  243MOL0     C32006   3.884   4.838   0.959 -0.2764 -0.3093 -0.2828
  243MOL0     C32007   3.972   4.807   0.846  0.6896 -1.3482  0.8632
  243MOL0     C32008   4.061   4.811   0.758 -0.7775 -1.0585 -1.0481
  243MOL0     C32009   3.359   4.578   0.554 -0.0875 -0.1099 -0.2067
  243MOL0     C32010   3.309   4.604   0.430 -0.2102  0.0788 -0.3213
  243MOL0     H32011   3.204   5.038  -0.018  1.4455 -0.7815  3.0763
  243MOL0     H32012   3.047   5.020  -0.210 -2.0971 -0.0239  0.1080
  243MOL0     H32013   2.950   4.658  -0.259  0.0949 -2.3407 -1.5302
  243MOL0     H32014   2.951   4.738  -0.408 -0.7132  3.4303  0.2180
  243MOL0     H32015   2.789   4.564  -0.415  0.8815  0.0175  1.3059
  243MOL0     H32016   2.697   4.727  -0.408  0.6293  0.9542 -0.6467
  243MOL0     H32017   2.583   4.550  -0.294 -2.6003  1.3550  2.9317
  243MOL0     H32018   2.631   4.687  -0.194  2.3270 -0.2192  2.0481
  243MOL0     H32019   2.732   4.401  -0.238 -2.2470  1.7071 -2.2135
  243MOL0     H32020   2.834   4.508  -0.129 -0.1830 -1.7595  0.6828
  243MOL0     H32021   2.551   4.435  -0.075 -0.9643  1.4173  1.9725
  243MOL0     H32022   2.652   4.551   0.022 -0.1828 -1.5340  3.5659
  243MOL0     H32023   2.787   4.392   0.105 -2.9951 -0.2938  3.2358
  243MOL0     H32024   2.744   4.269  -0.022 -1.7799 -0.3818  0.4664
  243MOL0     H32025   2.532   4.387   0.161 -0.4742  0.0581 -0.4874
  243MOL0     H32026   2.539   4.226   0.094 -2.6903  3.6385 -1.7245
  243MOL0     H32027   2.682   4.332   0.338 -1.8394  0.7565 -0.5837
  243MOL0     H32028   2.721   4.167   0.278  0.4134  0.4393  2.9055
  243MOL0     H32029   2.372   4.289   0.271  0.2623  0.2694  1.5672
  243MOL0     H32030   2.133   4.127   0.386 -3.0284  3.2307  0.1984
  243MOL0     H32031   2.180   4.268   0.494 -1.9243 -0.0057 -1.2117
  243MOL0     H32032   2.241   4.062   0.660  0.1215 -1.2711  0.2844
  243MOL0     H32033   2.138   3.973   0.548 -0.7100  1.3732 -3.1138
  243MOL0     H32034   2.064   4.097   0.780 -2.0104  1.8534  2.4320
  243MOL0     H32035   2.039   4.235   0.677 -5.2825 -0.1768 -1.0416
  243MOL0     H32036   1.894   4.100   0.518 -2.0564 -3.9772 -0.2653
  243MOL0     H32037   1.823   4.151   0.668  1.5901  2.5943 -0.1422
  243MOL0     H32038   1.692   3.781   0.623  1.6130  0.3847 -1.1263
  243MOL0     H32039   1.551   3.671   0.814  0.2953 -0.6787 -0.6622
  243MOL0     H32040   1.492   3.826   1.431  0.8605 -1.8179 -2.5463
  243MOL0     H32041   1.292   3.871   1.578 -2.3815  1.8895 -0.0730
  243MOL0     H32042   0.947   3.963   1.664  3.3056  2.7474  1.0558
  243MOL0     H32043   1.106   3.895   1.683  0.7693 -0.9791  0.9539
  243MOL0     H32044   1.013   3.660   1.634  2.4991 -0.2139  3.0117
  243MOL0     H32045   0.848   3.737   1.643 -0.3691  0.0956 -2.3824
  243MOL0     H32046   1.070   3.709   1.850  2.4566  4.9340  1.0451
  243MOL0     H32047   0.894   3.668   1.867 -1.2005  1.6709  2.0482
  243MOL0     H32048   0.992   3.961   1.869  1.4932 -1.1297 -0.8926
  243MOL0     H32049   0.826   3.881   1.891  0.7224 -1.9419 -2.5773
  243MOL0     H32050   1.064   3.843   2.074 -0.3827  0.0310 -1.3711
  243MOL0     H32051   0.904   3.762   2.086  1.7528 -1.1637  0.9637
  243MOL0     H32052   0.797   3.973   2.148 -0.1862  2.4125  3.0076
  243MOL0     H32053   0.961   4.051   2.123  0.1637 -2.6224 -2.1117
  243MOL0     H32054   0.973   3.846   2.332  1.5783 -0.3951  1.6500
  243MOL0     H32055   1.053   3.993   2.311 -2.1595  2.4800  0.9776
  243MOL0     H32056   0.764   3.954   2.368 -0.9894  0.4427  0.0011
  243MOL0     H32057   0.855   4.106   2.385  1.2805  0.8578 -0.1229
  243MOL0     H32058   1.034   3.822   1.248 -0.5191 -1.4559  1.7248
  243MOL0     H32059   1.216   3.818   1.102 -0.6310  0.2771 -0.2868
  243MOL0     H32060   1.685   3.968   1.089  3.7542  1.4242 -1.3186
  243MOL0     H32061   1.844   4.056   0.922  1.1466  0.1440 -1.1677
  243MOL0     H32062   2.826   4.728  -0.008 -0.5083 -0.3023  0.0777
  243MOL0     H32063   2.983   4.716   0.173 -1.6566  0.5588 -0.1688
  243MOL0     H32064   3.371   4.934   0.391  0.5048  0.0472 -0.0318
  243MOL0     H32065   3.459   4.907   0.611 -0.3232  2.1716 -1.7865
  243MOL0     H32066   3.504   4.705   0.937  1.6344  1.2659  0.5341
  243MOL0     H32067   3.493   4.846   0.833 -2.9922  0.2621  0.6343
  243MOL0     H32068   3.734   4.639   0.824  1.1763  1.4014  0.0982
  243MOL0     H32069   3.695   4.742   0.710 -0.6824 -0.2146 -0.7941
  243MOL0     H32070   3.684   4.871   0.996  4.3131  2.9815  1.6552
  243MOL0     H32071   3.725   4.938   0.852  1.1200 -1.8565 -2.2959
  243MOL0     H32072   3.905   4.935   1.005 -0.2481 -1.1651  1.6154
  243MOL0     H32073   3.903   4.761   1.034  0.4720 -1.6366 -1.7694
  243MOL0     H32074   4.127   4.806   0.673 -1.7285 -0.2387 -1.8586
  243MOL0     H32075   3.381   4.478   0.589  2.7689  1.1114  1.9365
  243MOL0     H32076   3.266   4.524   0.371 -1.2383  0.7957 -0.5769
  244MOL0     O32077   4.162   2.946  11.339  0.6150  0.0428  0.2342
  244MOL0     C32078   4.068   2.911  11.264  0.4641  0.1730  0.7673
  244MOL0     O32079   4.073   2.866  11.134  0.5141  0.6113 -0.4730
  244MOL0     C32080   4.197   2.862  11.084 -1.0269 -0.1396  0.1423
  244MOL0     C32081   4.303   2.792  11.151 -0.4696 -0.1520 -0.4550
  244MOL0     C32082   4.433   2.794  11.092  0.4365  0.6032 -0.1698
  244MOL0     C32083   4.454   2.866  10.974  0.0708 -1.4798  0.1544
  244MOL0     O32084   4.575   2.885  10.913 -0.4950 -0.0998 -0.2885
  244MOL0     C32085   4.652   2.764  10.908  0.4285 -0.6882  1.1831
  244MOL0     C32086   4.807   2.795  10.900  0.5955  0.6685  0.2679
  244MOL0     C32087   4.873   2.659  10.908  0.3024 -0.8172  0.2752
  244MOL0     C32088   5.021   2.660  10.903  0.0227 -0.2292  0.4154
  244MOL0     C32089   5.069   2.522  10.939  0.0059 -0.5453  0.9586
  244MOL0     C32090   5.220   2.514  10.916  0.1905 -0.6649  0.5267
  244MOL0     C32091   5.271   2.369  10.926  0.6694 -0.4795 -1.0095
  244MOL0     C32092   5.254   2.313  11.072  0.3911  0.1634 -0.3013
  244MOL0     N32093   5.309   2.172  11.071  0.0187  0.2716 -0.0873
  244MOL0     C32094   5.345   2.094  11.182 -0.7272 -0.4110 -0.9283
  244MOL0     C32095   5.413   1.983  11.129  0.4483 -0.1104 -0.5245
  244MOL0     C32096   5.467   1.871  11.211  0.1706 -0.1649  0.0187
  244MOL0     C32097   5.448   1.733  11.140  0.0110 -0.2584 -1.2352
  244MOL0     C32098   5.300   1.689  11.124 -0.2939 -0.6586 -1.1712
  244MOL0     C32099   5.301   1.558  11.056 -0.6134 -0.2114 -0.5188
  244MOL0     O32100   5.166   1.514  11.038  0.2710 -0.8166 -0.5788
  244MOL0     C32101   5.137   1.381  11.041  0.0182 -0.4157 -0.2395
  244MOL0     C32102   5.233   1.290  10.997  1.0122 -0.8098  0.1181
  244MOL0     C32103   5.206   1.160  10.993 -0.1987 -0.1567 -0.4449
  244MOL0     C32104   5.081   1.109  11.029 -0.0650 -1.1107  0.1721
  244MOL0     C32105   5.041   0.966  11.033  0.6150  0.1214  0.0316
  244MOL0     O32106   5.144   0.880  11.031  0.0692 -0.1725  0.0763
  244MOL0     C32107   5.105   0.752  11.078  0.9442 -0.2124  0.1816
  244MOL0     C32108   5.111   0.660  10.983  0.2796 -0.0262 -0.0694
  244MOL0     C32109   5.083   0.530  11.020 -0.5798 -0.4680  0.7331
  244MOL0     C32110   5.054   0.490  11.149 -0.3349  0.0193 -0.5565
  244MOL0     O32111   5.023   0.363  11.185  0.6243  0.3310  0.1648
  244MOL0     C32112   5.072   0.247  11.116  0.7382  0.5546  0.5408
  244MOL0     C32113   4.942   0.203  11.050  0.0480  0.3388 -0.0354
  244MOL0     C32114   4.970   0.091  10.952  0.1115 -1.3178  0.3539
  244MOL0     C32115   4.861   0.000  10.924  0.1816  0.0315  1.0228
  244MOL0     C32116   4.907  -0.101  10.813 -0.1510  0.4654  0.3159
  244MOL0     C32117   5.010  -0.202  10.861  0.2566  0.1210 -0.8546
  244MOL0     C32118   4.984  -0.351  10.808 -1.3557 -1.0224  0.2404
  244MOL0     C32119   5.011  -0.354  10.654  1.0917  0.1993 -0.1007
  244MOL0    Cl32120   4.952  -0.506  10.584  0.0723 -0.3189  0.2060
  244MOL0     C32121   5.066   0.584  11.247  0.2819 -0.4476 -0.4473
  244MOL0     C32122   5.077   0.716  11.211  0.7659 -0.6814  0.4673
  244MOL0     O32123   4.927   0.930  11.049  0.1898  0.5754  0.3745
  244MOL0     C32124   4.985   1.203  11.054  0.6971  0.1544  0.0654
  244MOL0     C32125   5.010   1.341  11.068  0.0756  1.5224 -0.5151
  244MOL0     N32126   5.415   1.994  10.992 -0.3005 -0.6561 -0.8202
  244MOL0     N32127   5.353   2.101  10.962 -0.2039 -0.6801 -0.0126
  244MOL0     C32128   4.347   2.943  10.925 -0.1241 -0.4019 -0.6779
  244MOL0     C32129   4.218   2.930  10.966  0.7717  0.4210  0.1302
  244MOL0     C32130   3.937   2.924  11.329  0.2367  0.1482 -0.0828
  244MOL0     C32131   3.825   2.942  11.247 -0.8863  0.1770 -0.5283
  244MOL0     C32132   3.697   2.976  11.303  0.5549 -0.9072  0.4955
  244MOL0     C32133   3.697   3.010  11.439 -0.1035  1.0873 -0.8068
  244MOL0     O32134   3.590   3.068  11.503 -0.6199 -0.5382  0.6445
  244MOL0     C32135   3.469   3.063  11.431 -0.0834 -0.4985 -1.2873
  244MOL0     C32136   3.352   3.108  11.521 -0.9023 -0.1934  0.6976
  244MOL0     C32137   3.233   3.158  11.428  0.1445 -0.0566  0.1810
  244MOL0     C32138   3.114   3.194  11.527 -0.3937  1.0176  0.5869
  244MOL0     C32139   3.006   3.257  11.455 -0.3317 -0.8658 -0.0944
  244MOL0     C32140   2.904   3.306  11.403 -1.4154 -0.3140  0.0471
  244MOL0     C32141   3.821   2.992  11.522  1.2347 -0.1104  0.0824
  244MOL0     C32142   3.929   2.936  11.465 -0.5353  0.6359 -0.7172
  244MOL0     H32143   4.283   2.722  11.231  1.6065 -0.3369 -0.0289
  244MOL0     H32144   4.521   2.750  11.137  1.4995  0.3200 -2.3578
  244MOL0     H32145   4.631   2.723  10.809  1.7619 -1.7303  1.3045
  244MOL0     H32146   4.626   2.691  10.986 -4.8404 -1.2501 -0.6953
  244MOL0     H32147   4.830   2.861  10.985 -1.3919 -0.0522  1.4271
  244MOL0     H32148   4.847   2.845  10.812  0.3685 -1.8562 -1.3673
  244MOL0     H32149   4.859   2.610  10.811 -3.8430 -0.4302  0.4980
  244MOL0     H32150   4.835   2.600  10.992 -3.3908  2.8487  1.5067
  244MOL0     H32151   5.067   2.708  10.816 -0.1166 -1.4577 -0.3479
  244MOL0     H32152   5.040   2.727  10.988  1.8160 -0.9677  0.6333
  244MOL0     H32153   5.023   2.460  10.861  1.8831 -0.3710 -0.3449
  244MOL0     H32154   5.047   2.491  11.042 -0.1501  0.6471  1.2948
  244MOL0     H32155   5.280   2.583  10.977  1.8518  0.6775 -2.4079
  244MOL0     H32156   5.237   2.551  10.815 -0.1338  4.6811  2.1531
  244MOL0     H32157   5.225   2.309  10.848  0.4733 -2.2413  0.4012
  244MOL0     H32158   5.379   2.369  10.910  0.4529 -1.7762 -2.6459
  244MOL0     H32159   5.150   2.316  11.105  0.0419 -1.0434 -1.2180
  244MOL0     H32160   5.309   2.379  11.139  0.2822  0.6246 -0.6627
  244MOL0     H32161   5.337   2.142  11.279  2.2822  2.0563 -1.7219
  244MOL0     H32162   5.420   1.859  11.309  1.9598 -2.6165  0.6528
  244MOL0     H32163   5.573   1.896  11.218  0.4994  0.2424 -3.9108
  244MOL0     H32164   5.497   1.655  11.199 -1.4357 -1.0571 -1.0373
  244MOL0     H32165   5.489   1.731  11.039  1.5407 -2.1220 -0.6463
  244MOL0     H32166   5.264   1.660  11.223 -0.7114 -0.2846 -1.2108
  244MOL0     H32167   5.227   1.758  11.080 -2.3932 -1.2817  1.1055
  244MOL0     H32168   5.364   1.491  11.116  1.3071  2.6177  0.8327
  244MOL0     H32169   5.357   1.568  10.963  4.1797 -0.2638  2.0770
  244MOL0     H32170   5.336   1.313  10.972  1.3299  0.1774  2.1166
  244MOL0     H32171   5.271   1.084  10.952 -0.7732 -0.0523 -1.5926
  244MOL0     H32172   5.138   0.696  10.884  0.8314 -1.1340 -0.3333
  244MOL0     H32173   5.088   0.443  10.954  1.9897 -1.1325  1.6838
  244MOL0     H32174   5.103   0.178  11.195  0.8409  0.6342  0.5698
  244MOL0     H32175   5.151   0.272  11.045  0.9320 -0.6582  0.2967
  244MOL0     H32176   4.886   0.286  11.005 -0.0074 -0.8516 -2.2741
  244MOL0     H32177   4.887   0.164  11.136 -4.8152  3.2201 -1.4369
  244MOL0     H32178   5.056   0.031  10.982 -0.4039 -2.1121  0.2510
  244MOL0     H32179   5.007   0.146  10.865  1.4955 -1.7829  0.6277
  244MOL0     H32180   4.843  -0.056  11.016  1.2513 -0.2321  1.0830
  244MOL0     H32181   4.782   0.063  10.882  0.5463 -0.8006 -1.0158
  244MOL0     H32182   4.955  -0.048  10.730  0.4230 -2.1547 -1.1263
  244MOL0     H32183   4.818  -0.157  10.784  1.2564 -0.8526 -1.7171
  244MOL0     H32184   5.000  -0.208  10.969 -3.4381  0.9132 -1.0151
  244MOL0     H32185   5.110  -0.163  10.838  0.7963 -0.8364 -0.1726
  244MOL0     H32186   5.043  -0.435  10.845 -0.7987  0.0293  1.8276
  244MOL0     H32187   4.879  -0.375  10.830 -2.5972  1.0945 -2.5698
  244MOL0     H32188   5.120  -0.353  10.638  0.9548 -0.6895 -1.1801
  244MOL0     H32189   4.957  -0.270  10.611 -0.9147 -1.1568 -0.3346
  244MOL0     H32190   5.053   0.549  11.348  1.6960 -0.4245 -0.2430
  244MOL0     H32191   5.080   0.792  11.288  1.0426  0.2909 -0.4790
  244MOL0     H32192   4.885   1.170  11.081  0.1144  2.6122  1.1684
  244MOL0     H32193   4.932   1.412  11.092  0.0577  0.6637  2.2946
  244MOL0     H32194   4.383   2.999  10.840 -2.2649  0.4006 -1.0921
  244MOL0     H32195   4.136   2.971  10.908 -0.3481 -0.5936  0.9704
  244MOL0     H32196   3.843   2.932  11.141 -1.1776 -3.9943 -0.3505
  244MOL0     H32197   3.611   2.976  11.236  1.8351 -0.1371 -1.2341
  244MOL0     H32198   3.461   2.958  11.404 -4.1278 -0.8528  0.6556
  244MOL0     H32199   3.478   3.132  11.346 -0.2567 -0.7079 -1.4771
  244MOL0     H32200   3.323   3.025  11.588 -1.1241  0.8103  1.8803
  244MOL0     H32201   3.397   3.186  11.582 -1.4424 -1.0230  2.2172
  244MOL0     H32202   3.196   3.074  11.368  0.4258 -1.1301  1.4768
  244MOL0     H32203   3.264   3.232  11.353  0.2699 -0.3304 -0.0398
  244MOL0     H32204   3.082   3.091  11.546  3.3950 -0.3541  0.3294
  244MOL0     H32205   3.152   3.238  11.619 -0.2604  1.1707  0.4593
  244MOL0     H32206   2.828   3.370  11.364 -0.9842  0.7340  0.8581
  244MOL0     H32207   3.815   3.007  11.629  1.7039  0.8723 -0.0119
  244MOL0     H32208   4.020   2.916  11.520  0.2240  0.0061 -2.1554
  245MOL0     O32209   5.890   1.744   5.692 -0.2010  0.7025 -0.2014
  245MOL0     C32210   5.890   1.845   5.616 -0.6890  0.1994 -1.1431
  245MOL0     O32211   5.999   1.896   5.538 -0.3628 -0.9461 -0.9055
  245MOL0     C32212   6.099   1.808   5.501  0.2145 -0.5090 -0.3793
  245MOL0     C32213   6.169   1.735   5.592  0.3406  0.5772 -0.1733
  245MOL0     C32214   6.273   1.654   5.566  0.0750  0.5275 -0.1704
  245MOL0     C32215   6.311   1.647   5.428 -0.6484 -1.2511 -0.2860
  245MOL0     O32216   6.427   1.576   5.397  0.2697 -0.4124 -0.2611
  245MOL0     C32217   6.409   1.509   5.271 -0.2839 -0.7957  0.4378
  245MOL0     C32218   6.514   1.404   5.258 -0.7477 -0.6660 -0.3141
  245MOL0     C32219   6.501   1.349   5.118 -0.2833  0.2111  0.2627
  245MOL0     C32220   6.607   1.238   5.087  0.0039  0.3697 -0.4916
  245MOL0     C32221   6.758   1.283   5.108 -0.0033 -0.3504  0.6702
  245MOL0     C32222   6.864   1.221   5.007 -0.3466  0.9686  0.0824
  245MOL0     C32223   6.845   1.071   5.006  0.4897 -0.4852 -0.6464
  245MOL0     C32224   6.926   1.004   4.894 -0.7846  1.3316 -1.5684
  245MOL0     N32225   6.884   1.014   4.756  0.4481 -0.5878 -0.0036
  245MOL0     C32226   6.777   0.968   4.684 -0.3054  0.5009 -0.4576
  245MOL0     C32227   6.788   1.025   4.557  0.0642  0.8772 -0.2903
  245MOL0     C32228   6.684   0.998   4.435 -0.3880  1.1288  0.2228
  245MOL0     C32229   6.610   1.128   4.399 -0.4301  0.1815  0.1001
  245MOL0     C32230   6.514   1.153   4.503 -0.0460 -0.1319  0.8371
  245MOL0     C32231   6.456   1.291   4.490  0.3646 -0.3969  0.0695
  245MOL0     O32232   6.345   1.305   4.586 -0.4131 -0.2222 -0.9654
  245MOL0     C32233   6.302   1.430   4.616 -1.4715 -1.5085 -0.6650
  245MOL0     C32234   6.329   1.541   4.539  0.4673 -1.0065 -0.1000
  245MOL0     C32235   6.283   1.671   4.582  0.5448  0.1034  0.0677
  245MOL0     C32236   6.229   1.689   4.710  0.3507  0.2056  0.2849
  245MOL0     C32237   6.202   1.821   4.762 -0.2902 -0.4600  0.2911
  245MOL0     O32238   6.228   1.942   4.700  0.0552  0.3128 -0.1631
  245MOL0     C32239   6.154   2.053   4.743  0.0815 -0.5369 -0.0178
  245MOL0     C32240   6.025   2.052   4.801  0.4582 -0.9209  0.0603
  245MOL0     C32241   5.960   2.172   4.849 -0.0569 -1.0517  0.1212
  245MOL0     C32242   6.031   2.288   4.843  0.7333 -0.3405 -0.4628
  245MOL0     O32243   5.983   2.396   4.917  0.5137 -0.0781 -0.1213
  245MOL0     C32244   6.002   2.522   4.848  0.0951 -0.2913 -0.1952
  245MOL0     C32245   5.917   2.630   4.915  1.3866  0.5890  0.4402
  245MOL0     C32246   5.925   2.759   4.840 -0.2892  0.9596 -0.2149
  245MOL0     C32247   5.824   2.856   4.898  0.3152 -0.4398  0.5637
  245MOL0     C32248   5.843   2.992   4.835 -0.1516 -0.0231 -0.2432
  245MOL0     C32249   5.775   3.098   4.913 -1.4592  0.5372 -0.1856
  245MOL0     C32250   5.630   3.065   4.938 -0.0497  0.1326 -0.0865
  245MOL0     C32251   5.555   3.192   4.961 -0.3969 -0.3995  0.1385
  245MOL0    Cl32252   5.396   3.159   5.024 -0.1049  0.1544  0.3410
  245MOL0     C32253   6.156   2.295   4.780  0.2663 -0.2045 -0.8062
  245MOL0     C32254   6.216   2.176   4.732  0.3243  0.6880  1.3560
  245MOL0     O32255   6.162   1.820   4.874  0.2350 -0.0701 -0.3368
  245MOL0     C32256   6.217   1.569   4.790  0.6022 -0.0793  0.6178
  245MOL0     C32257   6.250   1.439   4.740  0.7815 -0.0465 -0.7176
  245MOL0     N32258   6.913   1.077   4.541  0.5086  0.6112 -0.3033
  245MOL0     N32259   6.968   1.075   4.660 -0.5974 -0.0224  0.4499
  245MOL0     C32260   6.241   1.725   5.331 -0.6987 -0.2717  0.3137
  245MOL0     C32261   6.139   1.810   5.367  0.3965  0.2066 -0.8529
  245MOL0     C32262   5.775   1.936   5.614 -0.2050 -0.2698  0.5492
  245MOL0     C32263   5.784   2.057   5.543 -0.6528 -0.0939 -1.0775
  245MOL0     C32264   5.681   2.147   5.549  0.5989  0.4695  0.2516
  245MOL0     C32265   5.565   2.118   5.639 -0.2125  0.0714  1.2568
  245MOL0     O32266   5.463   2.203   5.661 -0.1360 -0.2349 -1.2419
  245MOL0     C32267   5.489   2.341   5.644  0.3196  0.2695 -0.7281
  245MOL0     C32268   5.374   2.420   5.698  0.3283  0.0519 -0.1585
  245MOL0     C32269   5.235   2.396   5.645 -0.4966  0.5544 -0.2283
  245MOL0     C32270   5.129   2.476   5.720 -0.2143 -0.0849 -0.7852
  245MOL0     C32271   4.994   2.440   5.680  1.3167  0.8335 -0.3363
  245MOL0     C32272   4.880   2.417   5.641 -0.0506  0.1874  0.2886
  245MOL0     C32273   5.548   1.991   5.689  0.6103 -1.2387  0.5162
  245MOL0     C32274   5.652   1.897   5.684 -0.2468 -0.3469 -0.9014
  245MOL0     H32275   6.128   1.755   5.691 -3.1664 -0.2444 -1.3010
  245MOL0     H32276   6.328   1.611   5.649  1.1578  2.5298  0.2300
  245MOL0     H32277   6.417   1.576   5.185 -4.0113  0.2491  0.6955
  245MOL0     H32278   6.311   1.462   5.256 -0.2678 -1.9054  3.1793
  245MOL0     H32279   6.507   1.320   5.328  1.1995 -0.3485  0.3250
  245MOL0     H32280   6.605   1.461   5.275 -1.5993  0.7616 -0.3637
  245MOL0     H32281   6.507   1.432   5.047 -5.0557  1.6514  1.1473
  245MOL0     H32282   6.402   1.303   5.119 -0.3665  0.3718 -0.2662
  245MOL0     H32283   6.574   1.148   5.140  0.2812  1.6449  2.0245
  245MOL0     H32284   6.617   1.209   4.982 -1.3813 -3.5098  0.2767
  245MOL0     H32285   6.782   1.247   5.208 -0.3103  0.4245  1.0353
  245MOL0     H32286   6.763   1.392   5.106  2.1101 -0.4229  0.2606
  245MOL0     H32287   6.968   1.244   5.032 -0.5460  1.4747  0.4646
  245MOL0     H32288   6.846   1.264   4.908 -0.4660 -1.5539 -1.0673
  245MOL0     H32289   6.885   1.037   5.102  0.7942  1.4119 -0.0541
  245MOL0     H32290   6.742   1.037   5.001  1.3010 -3.1541 -0.8666
  245MOL0     H32291   6.936   0.899   4.925  4.4958  2.2027  0.6581
  245MOL0     H32292   7.031   1.033   4.890 -0.8536  2.1432  0.6946
  245MOL0     H32293   6.700   0.906   4.729  1.5990 -2.1811 -0.7020
  245MOL0     H32294   6.601   0.936   4.469 -2.0345  3.9028  1.7030
  245MOL0     H32295   6.740   0.949   4.355 -3.7197  1.3111 -2.4499
  245MOL0     H32296   6.562   1.098   4.306  3.0284 -2.4801 -1.0240
  245MOL0     H32297   6.690   1.199   4.377 -1.1175  0.3290 -2.1624
  245MOL0     H32298   6.425   1.088   4.503 -0.2070  0.0270 -1.1938
  245MOL0     H32299   6.555   1.141   4.604  3.1553  0.8019 -0.2294
  245MOL0     H32300   6.413   1.296   4.389 -1.5927 -0.2550  0.8554
  245MOL0     H32301   6.531   1.369   4.502 -1.6867  2.1002 -2.0335
  245MOL0     H32302   6.387   1.549   4.447  1.8610  1.2711  0.8845
  245MOL0     H32303   6.296   1.760   4.521 -0.9459  2.3388  2.7792
  245MOL0     H32304   5.967   1.961   4.813 -1.4293 -0.3848 -3.4044
  245MOL0     H32305   5.866   2.167   4.903  0.8422  2.0998  2.2721
  245MOL0     H32306   5.956   2.521   4.749 -1.3715  3.7653  0.2316
  245MOL0     H32307   6.106   2.556   4.855  0.6869 -1.9543 -0.6287
  245MOL0     H32308   5.956   2.650   5.016  0.1702  0.5451  0.9332
  245MOL0     H32309   5.811   2.604   4.919  1.0960  1.8088  1.2218
  245MOL0     H32310   5.890   2.749   4.737 -1.9441  0.5086  0.3585
  245MOL0     H32311   6.022   2.807   4.851 -0.0749  0.5649 -0.3572
  245MOL0     H32312   5.722   2.825   4.874  0.5134  0.5730 -1.8483
  245MOL0     H32313   5.832   2.866   5.007  1.8246 -0.3784  0.4680
  245MOL0     H32314   5.799   2.988   4.735 -0.9273  0.0395  0.0900
  245MOL0     H32315   5.951   3.007   4.824  0.0110 -0.6862  0.3479
  245MOL0     H32316   5.794   3.192   4.860  0.0550 -0.7802 -2.1271
  245MOL0     H32317   5.817   3.104   5.014 -1.1217 -1.0540 -0.2155
  245MOL0     H32318   5.580   3.011   4.857  0.7912  2.4095 -2.2441
  245MOL0     H32319   5.617   3.006   5.029 -0.3455  2.0692  1.1826
  245MOL0     H32320   5.549   3.252   4.870 -0.0353 -0.6719 -0.0687
  245MOL0     H32321   5.608   3.249   5.038  1.6023  0.8933 -2.0516
  245MOL0     H32322   6.219   2.384   4.784  1.3349 -0.9712  1.1713
  245MOL0     H32323   6.319   2.170   4.699 -0.9349 -2.8140 -2.9168
  245MOL0     H32324   6.177   1.572   4.891 -0.5286 -0.2977  0.1865
  245MOL0     H32325   6.251   1.351   4.803  0.4263  0.0758 -0.5358
  245MOL0     H32326   6.274   1.722   5.227  0.2581  1.8262  0.5004
  245MOL0     H32327   6.110   1.894   5.304 -1.4821  2.0181  2.1592
  245MOL0     H32328   5.876   2.086   5.493 -0.4032 -1.2843 -1.3372
  245MOL0     H32329   5.701   2.243   5.501 -2.1081  1.6160  1.2114
  245MOL0     H32330   5.509   2.363   5.539  1.9224  1.3979 -0.2304
  245MOL0     H32331   5.574   2.363   5.710 -2.6466  1.7391  2.9843
  245MOL0     H32332   5.384   2.414   5.807 -0.1732  1.7938  0.0135
  245MOL0     H32333   5.393   2.525   5.675 -0.2521 -0.0020 -0.9401
  245MOL0     H32334   5.209   2.291   5.659 -0.2751  0.2047 -2.1768
  245MOL0     H32335   5.227   2.417   5.538 -1.2089 -3.9956 -1.2517
  245MOL0     H32336   5.142   2.462   5.827 -0.1486 -1.1674 -0.9304
  245MOL0     H32337   5.149   2.584   5.713  1.6641 -0.3630 -0.0718
  245MOL0     H32338   4.795   2.382   5.585 -1.5087  0.6048  2.1570
  245MOL0     H32339   5.458   1.972   5.747  0.9450  1.0282  1.8771
  245MOL0     H32340   5.649   1.812   5.752 -3.5900  1.2764  1.2818
  246MOL0     O32341  10.466   8.376  10.678  1.3593  0.4665  0.4573
  246MOL0     C32342  10.502   8.281  10.734 -0.0812  0.3269  0.1110
  246MOL0     O32343  10.625   8.275  10.797 -0.1304  0.1006 -0.1950
  246MOL0     C32344  10.699   8.390  10.836  0.3153  0.9244  0.1982
  246MOL0     C32345  10.681   8.519  10.790  0.0067  1.0361 -0.2385
  246MOL0     C32346  10.773   8.615  10.837 -0.2901  0.1912 -0.8475
  246MOL0     C32347  10.874   8.590  10.927  0.2489 -0.3068 -0.1195
  246MOL0     O32348  10.948   8.697  10.982  0.5063 -0.5710  0.2685
  246MOL0     C32349  11.096   8.671  10.979 -0.5400 -0.0537 -0.3994
  246MOL0     C32350  11.186   8.790  11.010  0.1024  0.1586  0.1223
  246MOL0     C32351  11.269   8.789  11.139 -0.9839  0.5853 -0.0946
  246MOL0     C32352  11.326   8.930  11.180  0.1680  0.8678 -0.2560
  246MOL0     C32353  11.443   8.921  11.279  0.4007  0.1268  0.8745
  246MOL0     C32354  11.416   8.832  11.406  0.3418  0.2839  0.0281
  246MOL0     C32355  11.523   8.851  11.516  0.3571  0.5411  1.0157
  246MOL0     C32356  11.644   8.774  11.485 -0.5991  0.2467 -0.6254
  246MOL0     N32357  11.614   8.634  11.480 -0.7855 -0.1222 -0.0176
  246MOL0     C32358  11.581   8.559  11.591  0.7219 -0.6304  0.9945
  246MOL0     C32359  11.545   8.442  11.538 -0.0203 -0.8043  0.5503
  246MOL0     C32360  11.515   8.336  11.633 -0.0671  0.9458 -0.1433
  246MOL0     C32361  11.643   8.274  11.690 -0.1837 -0.2700  0.3889
  246MOL0     C32362  11.705   8.342  11.813  1.3021 -0.3439 -0.0076
  246MOL0     C32363  11.824   8.259  11.844  0.8979 -0.3895  0.0028
  246MOL0     O32364  11.919   8.276  11.734  0.3972  0.1786  0.1100
  246MOL0     C32365  11.997   8.390  11.741  0.1653 -0.4310  0.3181
  246MOL0     C32366  12.120   8.397  11.807  0.3312  0.3531 -0.3648
  246MOL0     C32367  12.205   8.513  11.817  0.1250  1.0975 -1.2047
  246MOL0     C32368  12.167   8.618  11.740  0.4069  0.1966 -0.0717
  246MOL0     C32369  12.240   8.741  11.744 -0.1796  0.5833 -0.3098
  246MOL0     O32370  12.354   8.737  11.832 -0.7744 -0.2649 -0.2899
  246MOL0     C32371  12.426   8.852  11.833  0.2588  0.4354  0.4925
  246MOL0     C32372  12.369   8.957  11.890  0.1921 -0.0688 -0.0654
  246MOL0     C32373  12.430   9.080  11.893  0.1618  0.2032  0.7258
  246MOL0     C32374  12.562   9.095  11.849  0.2527  0.1077 -0.0755
  246MOL0     O32375  12.629   9.216  11.854 -0.1161  0.3034  0.1736
  246MOL0     C32376  12.567   9.325  11.784 -0.1894  0.5501  0.8795
  246MOL0     C32377  12.541   9.298  11.630 -0.6710 -2.0236  0.2135
  246MOL0     C32378  12.410   9.360  11.574 -0.8508  0.3747 -0.1606
  246MOL0     C32379  12.410   9.333  11.423 -0.7314 -0.7680 -0.5304
  246MOL0     C32380  12.325   9.432  11.352  0.1024  0.5191 -0.2156
  246MOL0     C32381  12.180   9.447  11.412  0.7405  0.0688  0.1183
  246MOL0     C32382  12.079   9.512  11.312  0.4913 -0.3010  0.4105
  246MOL0     C32383  11.942   9.479  11.348  0.0166  1.0121 -0.9590
  246MOL0    Cl32384  11.836   9.527  11.207  0.3858  0.1525  0.1570
  246MOL0     C32385  12.621   8.995  11.788  0.3761  0.2810  0.2341
  246MOL0     C32386  12.556   8.872  11.781 -1.1010  0.1908  0.6145
  246MOL0     O32387  12.203   8.830  11.672 -0.7426  0.9546 -0.0577
  246MOL0     C32388  12.048   8.615  11.660  0.0136  0.0110 -0.5433
  246MOL0     C32389  11.962   8.508  11.666 -0.6807  1.6884 -0.4202
  246MOL0     N32390  11.556   8.445  11.404  0.9000  0.1293  1.0456
  246MOL0     N32391  11.603   8.557  11.373 -0.3766 -0.4444 -0.1690
  246MOL0     C32392  10.891   8.454  10.972  0.8695 -0.0365  1.1009
  246MOL0     C32393  10.799   8.357  10.925  0.1367 -0.2485 -0.0995
  246MOL0     C32394  10.423   8.154  10.730  0.4639  0.3237  0.0390
  246MOL0     C32395  10.472   8.049  10.805  0.5910  1.4004  0.2010
  246MOL0     C32396  10.414   7.923  10.799 -0.2828  0.3750  0.5844
  246MOL0     C32397  10.307   7.898  10.707  0.2019  0.2874  0.8030
  246MOL0     O32398  10.227   7.784  10.705  0.7364  0.5765 -0.8103
  246MOL0     C32399  10.245   7.687  10.795  0.1679 -0.3060 -0.8116
  246MOL0     C32400  10.113   7.617  10.786 -0.2719 -0.2635  0.0628
  246MOL0     C32401  10.021   7.696  10.879 -0.0190 -0.3402  0.1789
  246MOL0     C32402   9.872   7.691  10.848 -1.1134  0.2521  0.1660
  246MOL0     C32403   9.814   7.571  10.893 -0.3105  0.2255 -0.7429
  246MOL0     C32404   9.760   7.472  10.929  0.5956 -0.7490  0.5574
  246MOL0     C32405  10.252   8.014  10.643  0.4717 -0.0068 -0.3398
  246MOL0     C32406  10.313   8.139  10.649  0.2919  0.1980  0.6131
  246MOL0     H32407  10.604   8.541  10.717 -0.4931 -2.0763 -0.7883
  246MOL0     H32408  10.770   8.720  10.811  1.1393  1.6429  3.8231
  246MOL0     H32409  11.109   8.659  10.871 -2.2022  0.9073 -0.7480
  246MOL0     H32410  11.113   8.579  11.034 -1.4563 -0.2005 -0.3469
  246MOL0     H32411  11.115   8.874  11.015 -1.2689 -1.0215  1.5748
  246MOL0     H32412  11.259   8.805  10.930  2.7687 -0.0110  2.3768
  246MOL0     H32413  11.355   8.722  11.130  1.0838  2.8059  1.7559
  246MOL0     H32414  11.207   8.747  11.219 -1.0946 -3.1173 -1.8804
  246MOL0     H32415  11.374   8.986  11.098 -1.2355  2.4045 -0.0961
  246MOL0     H32416  11.238   8.985  11.214 -0.5259 -0.9535  1.0188
  246MOL0     H32417  11.466   9.021  11.316  0.0050  0.8573 -0.7290
  246MOL0     H32418  11.533   8.885  11.227 -1.4019 -0.8770 -1.7966
  246MOL0     H32419  11.403   8.738  11.353 -0.7233  1.7278 -2.4613
  246MOL0     H32420  11.315   8.854  11.442  0.3446  1.4964 -0.6117
  246MOL0     H32421  11.536   8.960  11.510 -1.5679  0.7460 -0.0206
  246MOL0     H32422  11.480   8.811  11.608 -1.2003 -3.6078 -1.2655
  246MOL0     H32423  11.714   8.791  11.568 -0.3524 -3.8129  0.1770
  246MOL0     H32424  11.691   8.812  11.394  0.2162 -2.0485 -1.2356
  246MOL0     H32425  11.554   8.585  11.693 -5.9438  0.8181 -0.6560
  246MOL0     H32426  11.458   8.257  11.583 -1.9070  2.8227 -1.2212
  246MOL0     H32427  11.461   8.380  11.717 -1.0765  0.8463 -0.7261
  246MOL0     H32428  11.718   8.259  11.611  0.9413  1.1852  1.1432
  246MOL0     H32429  11.628   8.172  11.726  0.0420 -0.7859 -0.9089
  246MOL0     H32430  11.730   8.448  11.804  4.0781 -0.5706  3.0774
  246MOL0     H32431  11.640   8.334  11.901  1.5877 -1.5643  0.1106
  246MOL0     H32432  11.797   8.153  11.840 -0.8930 -0.0708  1.9733
  246MOL0     H32433  11.851   8.291  11.945 -3.2865  1.8054  0.6267
  246MOL0     H32434  12.153   8.310  11.863  1.4397  2.1741  1.9892
  246MOL0     H32435  12.299   8.504  11.871 -0.6458 -4.1218 -0.1826
  246MOL0     H32436  12.273   8.936  11.936 -0.6210  1.1471 -1.1233
  246MOL0     H32437  12.373   9.166  11.926  0.3541 -0.0282  1.7248
  246MOL0     H32438  12.637   9.407  11.802  1.0698 -0.7255  2.0197
  246MOL0     H32439  12.468   9.355  11.821 -0.1074  1.8555  0.0987
  246MOL0     H32440  12.537   9.190  11.617 -1.4349 -1.8476 -1.3032
  246MOL0     H32441  12.634   9.336  11.587 -0.3128 -2.3963  0.6514
  246MOL0     H32442  12.411   9.468  11.591 -2.9736  0.3651  0.2626
  246MOL0     H32443  12.320   9.323  11.624 -0.3063 -3.0204 -1.4016
  246MOL0     H32444  12.506   9.335  11.371 -0.7134  0.3164 -0.4730
  246MOL0     H32445  12.364   9.233  11.415  0.5303 -1.6171  2.0125
  246MOL0     H32446  12.324   9.395  11.249  2.0701 -2.3273  0.6758
  246MOL0     H32447  12.367   9.532  11.340 -1.0578  0.7668 -2.8796
  246MOL0     H32448  12.182   9.509  11.503 -0.4132  0.0586  0.1661
  246MOL0     H32449  12.155   9.343  11.435  1.1833  0.2417  1.5140
  246MOL0     H32450  12.081   9.620  11.296  0.1276 -0.1694  1.1997
  246MOL0     H32451  12.095   9.464  11.215  0.4573  0.2950  0.1039
  246MOL0     H32452  11.929   9.523  11.447 -0.7185 -1.1018 -0.0455
  246MOL0     H32453  11.930   9.373  11.370 -1.2565  0.3027 -4.4176
  246MOL0     H32454  12.719   9.008  11.743  1.1985 -0.6481  1.6930
  246MOL0     H32455  12.617   8.790  11.743 -0.5946  0.4432  0.8745
  246MOL0     H32456  12.032   8.703  11.599 -2.4737  0.1038  0.1361
  246MOL0     H32457  11.882   8.502  11.594  1.1396 -0.7871 -2.4192
  246MOL0     H32458  10.985   8.430  11.019  1.6133 -0.3926 -0.5051
  246MOL0     H32459  10.804   8.252  10.951 -0.5114 -0.3055 -0.1754
  246MOL0     H32460  10.561   8.055  10.867  0.6293 -2.9917  0.8725
  246MOL0     H32461  10.447   7.851  10.873  0.8623  2.6739  2.4391
  246MOL0     H32462  10.262   7.739  10.890 -0.2367  1.0975 -1.4695
  246MOL0     H32463  10.333   7.626  10.773  0.4682 -1.6000  3.1885
  246MOL0     H32464  10.075   7.607  10.684  0.1114 -1.2324  0.0011
  246MOL0     H32465  10.123   7.520  10.835  1.5496  0.4259  1.1622
  246MOL0     H32466  10.037   7.804  10.870  0.9934 -0.3985  1.0677
  246MOL0     H32467  10.037   7.672  10.984  0.4468  0.1705  0.2302
  246MOL0     H32468   9.832   7.771  10.910  5.1093  1.5800  3.2951
  246MOL0     H32469   9.853   7.719  10.744 -1.4816  0.0680  0.1802
  246MOL0     H32470   9.706   7.392  10.977 -2.4625 -0.3223 -1.8396
  246MOL0     H32471  10.166   8.009  10.578  0.3906  1.7397 -0.3939
  246MOL0     H32472  10.278   8.219  10.585 -1.5484 -1.7113 -0.9340
  247MOL0     O32473   8.846   9.103  10.729 -0.6880 -0.2222 -0.8320
  247MOL0     C32474   8.916   9.014  10.778  0.8377  0.2664  0.3662
  247MOL0     O32475   9.007   8.939  10.709  0.2681 -0.0998  0.2738
  247MOL0     C32476   8.984   8.904  10.576  0.6987 -0.1137  0.9463
  247MOL0     C32477   9.093   8.926  10.485 -1.1729 -0.3645  0.4164
  247MOL0     C32478   9.066   8.890  10.341  0.6441 -0.1710 -0.2392
  247MOL0     C32479   8.947   8.832  10.299  0.8948  0.7329 -0.4734
  247MOL0     O32480   8.947   8.800  10.167  0.3853 -0.6791 -0.8887
  247MOL0     C32481   8.834   8.753  10.104  0.2889 -0.0514  1.0926
  247MOL0     C32482   8.861   8.708   9.963 -0.0518  0.0104 -0.0481
  247MOL0     C32483   8.942   8.578   9.943  0.8255 -0.1941 -0.3370
  247MOL0     C32484   8.871   8.461   9.986  0.9072  0.2194 -1.1532
  247MOL0     C32485   8.950   8.355  10.079 -0.6833 -0.3378  0.2495
  247MOL0     C32486   8.850   8.253  10.130  0.7386 -0.4571 -0.1424
  247MOL0     C32487   8.913   8.164  10.236  0.2591  0.8305  0.0429
  247MOL0     C32488   8.821   8.071  10.316 -0.4034 -0.0269 -0.4099
  247MOL0     N32489   8.747   8.155  10.409  0.0513 -0.1911  0.0191
  247MOL0     C32490   8.610   8.158  10.427  0.8537  0.0204  0.6919
  247MOL0     C32491   8.592   8.255  10.523  0.1966  0.0558 -0.0398
  247MOL0     C32492   8.448   8.291  10.575 -0.2686  0.1825 -0.2667
  247MOL0     C32493   8.380   8.177  10.656 -1.0815 -0.0298 -0.1460
  247MOL0     C32494   8.241   8.208  10.712  0.1601  1.0801  0.0243
  247MOL0     C32495   8.215   8.349  10.766 -0.5118  0.3933 -0.1870
  247MOL0     O32496   8.076   8.377  10.777 -0.2352  0.6698  0.3997
  247MOL0     C32497   8.024   8.497  10.749 -0.0796 -0.7140  1.0902
  247MOL0     C32498   8.087   8.615  10.778  0.0211  0.3450  0.4604
  247MOL0     C32499   8.035   8.738  10.735 -0.9591 -0.3878 -0.0064
  247MOL0     C32500   7.918   8.746  10.663  0.1078 -0.5066 -0.5536
  247MOL0     C32501   7.859   8.873  10.629 -0.4991 -0.3574 -0.6265
  247MOL0     O32502   7.732   8.866  10.559  0.1810  0.1748 -0.2668
  247MOL0     C32503   7.656   8.977  10.519 -0.0785  0.0364 -1.5515
  247MOL0     C32504   7.529   8.943  10.468  0.2488  0.7325  0.4435
  247MOL0     C32505   7.435   9.037  10.433  0.1181 -0.4815 -0.5275
  247MOL0     C32506   7.465   9.171  10.464 -0.4346 -0.1269 -0.1765
  247MOL0     O32507   7.385   9.272  10.416 -0.5336 -0.0021 -0.7148
  247MOL0     C32508   7.306   9.260  10.291  0.0007  0.6532  0.3374
  247MOL0     C32509   7.162   9.217  10.322 -0.5748 -0.3289 -0.3958
  247MOL0     C32510   7.063   9.255  10.212  0.3589  1.1335 -0.2798
  247MOL0     C32511   6.915   9.201  10.242  0.8509  0.2596  0.8631
  247MOL0     C32512   6.801   9.297  10.196  0.4862 -0.0067  0.0649
  247MOL0     C32513   6.824   9.344  10.050  0.6576  0.3287 -0.9126
  247MOL0     C32514   6.720   9.450  10.023  0.6216  0.0593  0.4053
  247MOL0     C32515   6.742   9.502   9.875 -1.0064 -0.3938  0.9205
  247MOL0    Cl32516   6.618   9.620   9.836  0.0658  0.1494 -0.0734
  247MOL0     C32517   7.587   9.203  10.527  0.5500 -0.6893 -0.1913
  247MOL0     C32518   7.683   9.108  10.556  0.7428 -0.1864  0.3853
  247MOL0     O32519   7.913   8.976  10.674 -0.5153  0.1972  0.0155
  247MOL0     C32520   7.856   8.622  10.629  0.8966 -0.0139  0.0185
  247MOL0     C32521   7.911   8.504  10.677  0.6153 -0.4983  1.3145
  247MOL0     N32522   8.714   8.309  10.551  0.3303 -0.5595 -0.8657
  247MOL0     N32523   8.804   8.249  10.487 -0.0305  0.4450 -0.9651
  247MOL0     C32524   8.843   8.819  10.390  0.2131 -0.3212 -0.1204
  247MOL0     C32525   8.857   8.863  10.528 -0.2518 -0.6753 -0.4997
  247MOL0     C32526   8.892   8.975  10.921 -0.7752 -0.4060 -0.5513
  247MOL0     C32527   8.806   9.058  11.001  0.4510  0.3070  0.1945
  247MOL0     C32528   8.762   9.004  11.116  0.8422  0.3315  0.1624
  247MOL0     C32529   8.795   8.879  11.167 -0.4985  0.3308  0.5118
  247MOL0     O32530   8.750   8.832  11.284 -0.3029  0.4028  0.0235
  247MOL0     C32531   8.640   8.750  11.270 -0.8075 -0.5762  0.2004
  247MOL0     C32532   8.504   8.813  11.228  0.3510 -0.2081 -0.1022
  247MOL0     C32533   8.453   8.927  11.308  0.8792  1.0077  0.8082
  247MOL0     C32534   8.310   8.959  11.280 -0.6366 -1.1212  0.1904
  247MOL0     C32535   8.200   8.857  11.311  0.2037  0.0577 -0.7517
  247MOL0     C32536   8.113   8.775  11.339 -0.4496 -0.2069  0.1865
  247MOL0     C32537   8.887   8.805  11.090 -0.8849 -0.2995 -1.0561
  247MOL0     C32538   8.942   8.860  10.972  1.4360  0.3724  0.1155
  247MOL0     H32539   9.186   8.968  10.522 -2.5885  0.7953  2.8538
  247MOL0     H32540   9.134   8.926  10.265 -0.9342  1.2877 -1.0439
  247MOL0     H32541   8.755   8.829  10.095 -0.2799 -0.8575 -1.1848
  247MOL0     H32542   8.790   8.669  10.159 -0.1905  1.0856  2.5283
  247MOL0     H32543   8.916   8.790   9.915 -0.4319  1.1626  1.4036
  247MOL0     H32544   8.765   8.703   9.911  0.4947 -0.4753 -1.0534
  247MOL0     H32545   9.035   8.592   9.999  0.6529 -1.4419  0.2919
  247MOL0     H32546   8.973   8.563   9.839 -1.6064 -5.1872 -0.5966
  247MOL0     H32547   8.780   8.472  10.044  0.9926 -3.0424 -0.1896
  247MOL0     H32548   8.845   8.403   9.897  2.4820 -5.0253  1.4097
  247MOL0     H32549   9.003   8.406  10.160 -1.6919  1.5342 -0.1985
  247MOL0     H32550   9.028   8.295  10.033 -0.5450 -0.0317  0.0816
  247MOL0     H32551   8.816   8.193  10.045 -4.8889  1.9197  0.0040
  247MOL0     H32552   8.763   8.297  10.179  3.1270  6.2410 -0.8297
  247MOL0     H32553   8.988   8.094  10.199 -1.3264 -1.7921  1.5462
  247MOL0     H32554   8.970   8.230  10.303 -0.0499 -1.2423  2.4681
  247MOL0     H32555   8.888   8.005  10.372 -1.3135 -0.8191 -0.2149
  247MOL0     H32556   8.758   8.000  10.261  1.9466 -2.6702  0.0915
  247MOL0     H32557   8.532   8.093  10.387  1.3451 -0.2190  0.1090
  247MOL0     H32558   8.383   8.296  10.487  1.1009  0.7090 -1.2814
  247MOL0     H32559   8.451   8.387  10.628  0.1899 -0.2195  0.4473
  247MOL0     H32560   8.445   8.148  10.739 -1.2779  0.4861  0.1924
  247MOL0     H32561   8.364   8.096  10.584  0.7116  0.1673 -0.8135
  247MOL0     H32562   8.170   8.185  10.632 -1.1217 -0.7476  1.5841
  247MOL0     H32563   8.226   8.130  10.788  1.6891 -0.4089 -1.1278
  247MOL0     H32564   8.262   8.424  10.702  0.9933  2.2154  2.8075
  247MOL0     H32565   8.278   8.350  10.855  1.7399  2.4226 -1.6782
  247MOL0     H32566   8.175   8.625  10.841 -0.8355 -2.0249  2.2099
  247MOL0     H32567   8.090   8.827  10.765 -0.5930 -0.5159 -0.2887
  247MOL0     H32568   7.503   8.838  10.457 -3.9356  1.6526 -0.1079
  247MOL0     H32569   7.338   9.011  10.392 -1.2165 -1.9898  3.1342
  247MOL0     H32570   7.346   9.179  10.230  2.1791  1.2550  0.8819
  247MOL0     H32571   7.301   9.359  10.244  4.3115  1.4179  1.1328
  247MOL0     H32572   7.131   9.273  10.411  2.3587  3.5610 -1.5694
  247MOL0     H32573   7.154   9.108  10.332  1.3005 -0.2884  2.7295
  247MOL0     H32574   7.107   9.215  10.120 -2.7430  1.1388 -1.8852
  247MOL0     H32575   7.060   9.364  10.211 -1.4723  1.1611  1.5021
  247MOL0     H32576   6.902   9.105  10.192 -0.5841 -0.0533  1.7997
  247MOL0     H32577   6.896   9.167  10.344 -1.4913 -1.0115  0.0706
  247MOL0     H32578   6.804   9.380  10.267  1.2795 -1.3483  1.7042
  247MOL0     H32579   6.704   9.247  10.195  0.4032  0.0905  1.2796
  247MOL0     H32580   6.811   9.261   9.980 -1.4023  0.8099 -1.1544
  247MOL0     H32581   6.920   9.395  10.038  2.1232 -1.6804  1.1938
  247MOL0     H32582   6.618   9.412  10.016  0.7011 -0.5135  1.9136
  247MOL0     H32583   6.728   9.531  10.097  3.7964 -1.4024  1.8502
  247MOL0     H32584   6.726   9.416   9.809  0.2825  1.7469 -2.4513
  247MOL0     H32585   6.838   9.553   9.861 -2.3538  2.3603  0.9683
  247MOL0     H32586   7.623   9.304  10.546  2.8926 -1.3157 -0.8625
  247MOL0     H32587   7.759   9.141  10.626 -0.9747 -1.0625  2.8151
  247MOL0     H32588   7.767   8.628  10.567  1.1921  1.1951 -0.2938
  247MOL0     H32589   7.875   8.405  10.648  0.3601 -0.8136  2.6259
  247MOL0     H32590   8.748   8.776  10.360  0.6147 -1.9836  0.8536
  247MOL0     H32591   8.770   8.847  10.592 -0.1582 -3.4411 -0.9651
  247MOL0     H32592   8.754   9.148  10.968  1.7830 -0.2245 -3.8854
  247MOL0     H32593   8.693   9.062  11.177  2.6009  1.5639  1.0770
  247MOL0     H32594   8.628   8.700  11.367  0.1781 -0.1271  0.5649
  247MOL0     H32595   8.672   8.676  11.197  2.2708  1.3702 -0.6053
  247MOL0     H32596   8.530   8.861  11.133  1.2548 -3.4819 -1.6828
  247MOL0     H32597   8.432   8.731  11.213 -0.9063  0.4741  1.9127
  247MOL0     H32598   8.517   9.015  11.296  0.5129  1.0981 -0.5868
  247MOL0     H32599   8.459   8.897  11.414  0.5234 -1.0274  0.2960
  247MOL0     H32600   8.286   9.059  11.319 -0.5891 -0.1128 -2.2046
  247MOL0     H32601   8.306   8.979  11.173 -1.1313 -0.2713  0.3533
  247MOL0     H32602   8.035   8.704  11.356  0.6339 -1.5385 -0.2542
  247MOL0     H32603   8.915   8.705  11.123 -3.1669 -0.5210  0.5338
  247MOL0     H32604   9.021   8.810  10.916 -0.0600 -1.6315 -0.3026
  248MOL0     O32605   4.594   8.217   2.121  0.1225 -0.1543  0.9610
  248MOL0     C32606   4.620   8.279   2.014 -0.3657 -0.4053 -0.1626
  248MOL0     O32607   4.671   8.413   2.011  0.0298  0.4012 -0.3728
  248MOL0     C32608   4.741   8.446   2.132  0.9745 -0.7614 -0.6490
  248MOL0     C32609   4.679   8.453   2.261  0.5468  0.1417 -0.2310
  248MOL0     C32610   4.765   8.477   2.370 -0.7242 -0.1421  0.1593
  248MOL0     C32611   4.897   8.508   2.346 -0.2949  0.0859 -0.1025
  248MOL0     O32612   4.995   8.508   2.447 -1.2274 -0.4183 -1.0006
  248MOL0     C32613   4.946   8.533   2.582 -0.3989  0.2351 -0.6758
  248MOL0     C32614   5.075   8.573   2.666  0.6271  0.3302 -0.4079
  248MOL0     C32615   5.034   8.598   2.812 -0.3167 -0.4398 -0.4023
  248MOL0     C32616   5.161   8.625   2.892 -0.9537 -0.2512 -0.5016
  248MOL0     C32617   5.141   8.659   3.034  0.6552 -0.1067  0.2378
  248MOL0     C32618   5.217   8.793   3.077 -0.3409  0.3381  0.8518
  248MOL0     C32619   5.191   8.814   3.219 -0.1413  0.8315  0.1725
  248MOL0     C32620   5.233   8.949   3.281  0.9067  1.2403  0.1863
  248MOL0     N32621   5.370   8.955   3.318 -0.0157 -0.1949 -0.0019
  248MOL0     C32622   5.425   8.923   3.441  0.2575 -0.7177  0.4956
  248MOL0     C32623   5.561   8.923   3.424  0.2713  1.7425 -0.7123
  248MOL0     C32624   5.665   8.875   3.529  0.0850  0.2072  0.5352
  248MOL0     C32625   5.688   8.988   3.617  0.0485  0.7062 -0.0641
  248MOL0     C32626   5.777   8.935   3.732 -0.2037 -0.2649  0.6437
  248MOL0     C32627   5.890   9.028   3.791  0.0315  0.4407 -0.2362
  248MOL0     O32628   5.925   9.029   3.931  0.0449  0.3624 -0.0230
  248MOL0     C32629   5.941   8.902   3.991  0.5042  0.0199 -0.2968
  248MOL0     C32630   5.935   8.907   4.129 -0.2762 -0.5214 -0.3078
  248MOL0     C32631   5.937   8.795   4.207 -0.2392  1.2940 -0.2752
  248MOL0     C32632   5.952   8.667   4.140 -0.8856 -0.2057 -0.2877
  248MOL0     C32633   5.963   8.542   4.219 -0.7999  0.9836 -0.0891
  248MOL0     O32634   6.030   8.426   4.169  0.1089 -0.0010 -0.1297
  248MOL0     C32635   6.030   8.321   4.261 -0.1846 -0.7508  0.0330
  248MOL0     C32636   5.933   8.225   4.255 -0.8383 -0.9459 -0.2286
  248MOL0     C32637   5.920   8.139   4.364  0.4335  0.2665  0.0680
  248MOL0     C32638   6.007   8.131   4.469  0.7494  0.2319 -0.4467
  248MOL0     O32639   6.001   8.036   4.574  0.4696  1.0886 -0.1772
  248MOL0     C32640   6.004   7.901   4.523  0.0683 -0.7580 -0.5958
  248MOL0     C32641   5.964   7.798   4.628  0.4170 -0.4816 -0.2648
  248MOL0     C32642   5.818   7.820   4.680 -0.2955 -0.6615 -0.0058
  248MOL0     C32643   5.697   7.797   4.586  0.1665 -0.6815  0.5688
  248MOL0     C32644   5.571   7.873   4.626  0.8124 -0.4094  0.3311
  248MOL0     C32645   5.457   7.858   4.515  0.5109 -0.2300  0.5095
  248MOL0     C32646   5.452   7.712   4.460  0.2089 -0.2860 -0.5735
  248MOL0     C32647   5.334   7.704   4.362  0.4961 -0.6648  1.2969
  248MOL0    Cl32648   5.352   7.834   4.236  0.3944 -0.2792  0.5862
  248MOL0     C32649   6.099   8.237   4.467  0.3280 -0.5471 -0.6881
  248MOL0     C32650   6.122   8.321   4.358  0.0294  0.3140  0.7857
  248MOL0     O32651   5.927   8.562   4.331 -0.3638 -0.2644  0.4262
  248MOL0     C32652   5.974   8.662   4.003  0.1104  0.5130  0.0879
  248MOL0     C32653   5.965   8.780   3.924  1.0211 -0.4276 -0.8569
  248MOL0     N32654   5.591   8.966   3.298  1.0722 -0.1781  0.3817
  248MOL0     N32655   5.475   8.973   3.231  0.3709 -0.1971  0.1607
  248MOL0     C32656   4.960   8.500   2.220 -0.0480 -0.7769 -0.2476
  248MOL0     C32657   4.877   8.470   2.119  0.0899 -0.8674 -0.2592
  248MOL0     C32658   4.604   8.211   1.882 -0.1161 -0.6238  0.6104
  248MOL0     C32659   4.675   8.266   1.766  0.4741 -0.4557  0.2134
  248MOL0     C32660   4.660   8.197   1.640  1.0602  0.1631  0.3773
  248MOL0     C32661   4.587   8.078   1.635 -0.2800 -1.1094  0.1048
  248MOL0     O32662   4.582   8.013   1.518  0.6274  0.3406  0.1596
  248MOL0     C32663   4.699   7.930   1.489 -0.1245 -0.0822 -0.0540
  248MOL0     C32664   4.692   7.881   1.352  0.0554  0.8295  0.7477
  248MOL0     C32665   4.820   7.792   1.318 -0.2116 -0.5400 -0.1485
  248MOL0     C32666   4.780   7.714   1.190  0.2751 -0.4750 -0.3325
  248MOL0     C32667   4.905   7.649   1.138  0.6886 -0.5875 -0.5523
  248MOL0     C32668   5.006   7.600   1.122 -0.7359  0.3332  0.7266
  248MOL0     C32669   4.528   8.019   1.749 -0.4251 -0.3769  0.5521
  248MOL0     C32670   4.545   8.091   1.871  1.5083  0.4569  0.7161
  248MOL0     H32671   4.572   8.441   2.278  0.2017  2.3338 -0.4661
  248MOL0     H32672   4.720   8.463   2.467 -1.6295 -2.1747 -0.4986
  248MOL0     H32673   4.900   8.440   2.617 -0.7727  0.9287  0.7382
  248MOL0     H32674   4.881   8.619   2.594  0.3645  0.7451 -0.0945
  248MOL0     H32675   5.120   8.663   2.626 -0.2741  0.3730 -1.3595
  248MOL0     H32676   5.150   8.493   2.670  3.3224  2.7164  1.6262
  248MOL0     H32677   4.986   8.515   2.866  0.6685 -0.1424  0.9991
  248MOL0     H32678   4.979   8.693   2.815  1.1986  0.4541  0.1442
  248MOL0     H32679   5.233   8.543   2.880  0.3421  0.8386 -0.4541
  248MOL0     H32680   5.207   8.706   2.834 -1.8129  0.9330  0.4247
  248MOL0     H32681   5.181   8.570   3.084  1.4971 -0.8192 -1.6107
  248MOL0     H32682   5.035   8.672   3.059  0.9185  0.4927  1.0797
  248MOL0     H32683   5.175   8.869   3.010  0.4062 -0.6276 -0.7595
  248MOL0     H32684   5.324   8.789   3.053 -0.1452  1.3347  1.4835
  248MOL0     H32685   5.082   8.817   3.220 -0.2987 -0.5410 -2.7135
  248MOL0     H32686   5.235   8.732   3.276  1.5601  0.3122 -1.7507
  248MOL0     H32687   5.167   8.959   3.368 -0.5639 -1.9534 -0.4029
  248MOL0     H32688   5.221   9.023   3.201  2.7427  1.8884  0.4709
  248MOL0     H32689   5.377   8.888   3.532 -0.8779 -0.6853 -0.0740
  248MOL0     H32690   5.754   8.840   3.476 -2.2000 -2.4678 -1.8431
  248MOL0     H32691   5.626   8.787   3.581  0.6924 -0.4363 -0.0805
  248MOL0     H32692   5.595   9.021   3.664  0.2678  0.3608  0.6292
  248MOL0     H32693   5.724   9.079   3.569 -2.3354  1.5135 -0.4740
  248MOL0     H32694   5.702   8.910   3.807  1.3768  0.9723  2.7237
  248MOL0     H32695   5.824   8.846   3.689  2.6336  2.1345 -1.6336
  248MOL0     H32696   5.852   9.127   3.765  0.5778  0.5178 -0.7475
  248MOL0     H32697   5.981   8.995   3.740  1.1383  3.6241 -0.5207
  248MOL0     H32698   5.922   9.003   4.179 -0.2069 -0.7614  0.1823
  248MOL0     H32699   5.924   8.812   4.313  2.6967  0.0622  0.3918
  248MOL0     H32700   5.857   8.229   4.177 -0.3262  0.6430 -0.6789
  248MOL0     H32701   5.830   8.080   4.375 -0.5416  1.3267 -1.7208
  248MOL0     H32702   6.103   7.879   4.481  0.8002  2.5399 -0.8457
  248MOL0     H32703   5.934   7.895   4.440 -1.9203  2.5171  0.6765
  248MOL0     H32704   6.042   7.821   4.702  0.4924 -1.7812  0.0862
  248MOL0     H32705   5.979   7.696   4.591 -0.7417  0.5015 -3.8191
  248MOL0     H32706   5.813   7.924   4.713 -3.4532 -0.2888 -1.3943
  248MOL0     H32707   5.795   7.769   4.774 -3.2583  1.2827  0.4537
  248MOL0     H32708   5.730   7.819   4.484  3.5601  0.1725  1.7296
  248MOL0     H32709   5.665   7.693   4.592 -0.3609 -0.4763  1.3873
  248MOL0     H32710   5.577   7.979   4.653 -4.1059 -0.3648  2.2125
  248MOL0     H32711   5.528   7.828   4.715  1.2228  1.9907  1.8447
  248MOL0     H32712   5.496   7.921   4.435  0.9742 -3.6025 -2.1136
  248MOL0     H32713   5.358   7.898   4.537  0.8807 -0.0881  2.0349
  248MOL0     H32714   5.549   7.693   4.413  0.4607  0.7812 -0.5084
  248MOL0     H32715   5.439   7.632   4.533  1.0225 -2.1991 -2.3943
  248MOL0     H32716   5.238   7.716   4.414  1.6917 -1.1266  3.7620
  248MOL0     H32717   5.332   7.608   4.310  1.6957  0.8828 -1.8695
  248MOL0     H32718   6.158   8.241   4.558 -1.2784  0.1968  0.3690
  248MOL0     H32719   6.210   8.385   4.355  0.0568  0.4541  3.0352
  248MOL0     H32720   5.992   8.572   3.945  2.2491  0.0049  1.4018
  248MOL0     H32721   5.973   8.765   3.817  2.2363  0.8215 -0.9727
  248MOL0     H32722   5.066   8.517   2.206  0.1775 -0.7484  1.3286
  248MOL0     H32723   4.916   8.457   2.019 -0.8824 -2.8683 -0.4420
  248MOL0     H32724   4.727   8.362   1.765  0.4937 -0.4688 -0.1141
  248MOL0     H32725   4.697   8.230   1.544  1.1559 -4.1765 -1.2814
  248MOL0     H32726   4.697   7.846   1.559  2.3665  0.0814  0.3082
  248MOL0     H32727   4.795   7.974   1.518  1.6861 -2.8524 -1.3407
  248MOL0     H32728   4.603   7.824   1.325  1.1357 -0.2221 -0.8280
  248MOL0     H32729   4.686   7.972   1.291  5.0458  0.1488 -1.2644
  248MOL0     H32730   4.828   7.712   1.393  2.6791 -1.9050 -1.7416
  248MOL0     H32731   4.913   7.849   1.321 -0.1777 -0.6397  2.1679
  248MOL0     H32732   4.713   7.631   1.212  2.7038 -2.0604  1.7485
  248MOL0     H32733   4.742   7.773   1.106 -2.8736 -0.6077  0.8585
  248MOL0     H32734   5.097   7.554   1.089 -1.5038  0.8684 -2.4990
  248MOL0     H32735   4.458   7.938   1.736 -0.7000 -0.3200  1.5873
  248MOL0     H32736   4.491   8.049   1.955 -1.2282  2.7120  0.2199
  249MOL0     O32737   5.185   3.923  10.185  1.6638 -0.6309  0.1761
  249MOL0     C32738   5.271   3.872  10.257 -0.9175 -0.4246 -0.1270
  249MOL0     O32739   5.381   3.817  10.210 -0.3544 -0.2253  0.0882
  249MOL0     C32740   5.392   3.809  10.075  0.1977 -0.4945  1.1839
  249MOL0     C32741   5.400   3.926   9.989 -0.8841  0.1322  0.1916
  249MOL0     C32742   5.413   3.924   9.850  0.5066  0.0862  0.7314
  249MOL0     C32743   5.423   3.797   9.790  0.0450  0.4051  0.6115
  249MOL0     O32744   5.459   3.791   9.653  0.3527  0.1011  0.4741
  249MOL0     C32745   5.581   3.715   9.628  1.3991 -0.3731  0.1666
  249MOL0     C32746   5.653   3.764   9.513  0.7359  0.5683 -0.5842
  249MOL0     C32747   5.578   3.726   9.385  0.5446 -0.0979  0.1293
  249MOL0     C32748   5.655   3.747   9.268 -0.6471 -0.1243  0.7765
  249MOL0     C32749   5.578   3.690   9.144 -1.0872  0.2479  0.1465
  249MOL0     C32750   5.624   3.742   9.003 -0.7780  0.1298 -0.2784
  249MOL0     C32751   5.532   3.700   8.891 -0.0459  0.2348 -0.2698
  249MOL0     C32752   5.519   3.543   8.886 -0.5120 -0.6879  0.5193
  249MOL0     N32753   5.443   3.511   8.764 -0.0660 -0.6811  1.2059
  249MOL0     C32754   5.366   3.589   8.674  0.1368  0.2257  0.5578
  249MOL0     C32755   5.327   3.506   8.571  0.0447 -0.1252 -0.5773
  249MOL0     C32756   5.243   3.546   8.451 -0.1477 -0.1017  0.3281
  249MOL0     C32757   5.095   3.510   8.480  0.1302 -0.3380  0.0451
  249MOL0     C32758   5.000   3.618   8.419  0.0271  0.3906  0.6498
  249MOL0     C32759   4.991   3.737   8.523 -0.5260  0.1790  0.1795
  249MOL0     O32760   4.871   3.814   8.508  0.0879  0.5771 -0.0357
  249MOL0     C32761   4.764   3.748   8.559 -0.6693 -0.2041  0.9739
  249MOL0     C32762   4.747   3.731   8.691  0.2338 -0.1726 -1.4398
  249MOL0     C32763   4.630   3.670   8.748 -0.5617 -0.2085  0.3518
  249MOL0     C32764   4.526   3.630   8.655  0.7464 -0.2677 -0.9001
  249MOL0     C32765   4.391   3.566   8.705 -0.7337 -0.1257 -0.1475
  249MOL0     O32766   4.280   3.592   8.642  0.4154  0.2568  0.0479
  249MOL0     C32767   4.157   3.568   8.703 -0.3144 -0.4997  0.3946
  249MOL0     C32768   4.078   3.679   8.697 -0.8680 -0.4164 -0.3095
  249MOL0     C32769   3.975   3.693   8.784  0.7080 -0.0401  0.2589
  249MOL0     C32770   3.934   3.590   8.865  0.0572  0.6649 -1.2413
  249MOL0     O32771   3.824   3.603   8.947 -0.1186 -0.2208 -0.1450
  249MOL0     C32772   3.866   3.655   9.074  0.3357 -0.6525  0.3177
  249MOL0     C32773   3.861   3.809   9.090  0.1649  0.3820 -0.4426
  249MOL0     C32774   3.713   3.863   9.077 -0.7232  0.6141  0.2504
  249MOL0     C32775   3.706   4.017   9.091 -0.3564  0.5586 -0.1548
  249MOL0     C32776   3.557   4.088   9.087  0.2456  0.7428  0.2742
  249MOL0     C32777   3.480   4.050   8.959  0.9693 -0.1880 -0.2941
  249MOL0     C32778   3.340   4.105   8.965  0.6032 -0.8875  0.0361
  249MOL0     C32779   3.250   4.059   8.850 -0.1780 -0.2165 -0.9159
  249MOL0    Cl32780   3.238   3.890   8.857  0.2662 -0.1164  0.0983
  249MOL0     C32781   4.006   3.472   8.863 -0.3995 -0.1295  0.8503
  249MOL0     C32782   4.117   3.458   8.783 -0.2967  0.3118 -0.3158
  249MOL0     O32783   4.406   3.498   8.805 -0.0094  0.5182  0.2793
  249MOL0     C32784   4.548   3.656   8.519 -0.4779  0.0341 -0.8505
  249MOL0     C32785   4.668   3.717   8.470 -0.2286  0.5123  0.9325
  249MOL0     N32786   5.366   3.380   8.600  0.7641 -0.3817 -0.0203
  249MOL0     N32787   5.429   3.386   8.712 -0.2634 -0.2809 -0.8380
  249MOL0     C32788   5.425   3.680   9.868  0.2162 -0.2834  0.0708
  249MOL0     C32789   5.404   3.688  10.004 -1.7688  0.6640  0.0640
  249MOL0     C32790   5.255   3.868  10.406 -0.0215 -0.2889 -0.6928
  249MOL0     C32791   5.153   3.939  10.459  0.2255 -0.2026 -0.1091
  249MOL0     C32792   5.142   3.965  10.588 -0.3949  0.7366 -1.1464
  249MOL0     C32793   5.218   3.898  10.683  0.3344  0.6128 -0.1047
  249MOL0     O32794   5.221   3.926  10.816 -0.3572  0.3860 -0.5566
  249MOL0     C32795   5.149   4.039  10.875  0.4434  0.1982  0.7668
  249MOL0     C32796   5.196   4.043  11.025  0.3050 -0.2348  0.5285
  249MOL0     C32797   5.332   4.119  11.051 -0.2523  0.8178  1.3477
  249MOL0     C32798   5.345   4.127  11.210  0.2516  0.4588  0.1161
  249MOL0     C32799   5.486   4.142  11.244  0.0627  0.6433 -1.2115
  249MOL0     C32800   5.606   4.163  11.273  0.5628  0.2273 -0.0066
  249MOL0     C32801   5.304   3.797  10.637 -0.9936 -0.8154  0.8021
  249MOL0     C32802   5.325   3.787  10.496 -0.4747  0.8648 -0.3965
  249MOL0     H32803   5.413   4.020  10.041 -1.0573  0.1536  0.1957
  249MOL0     H32804   5.415   4.019   9.798 -0.5270 -0.1586  0.2208
  249MOL0     H32805   5.563   3.608   9.623 -1.1853  0.0163 -0.2148
  249MOL0     H32806   5.645   3.736   9.715 -0.3291  5.2489  0.4806
  249MOL0     H32807   5.750   3.714   9.515  1.7199  2.3878  1.9849
  249MOL0     H32808   5.661   3.873   9.505  0.7684  0.6705  0.6080
  249MOL0     H32809   5.481   3.776   9.379 -0.2876 -1.3437  2.1113
  249MOL0     H32810   5.546   3.621   9.392  1.8461 -0.8615 -3.2535
  249MOL0     H32811   5.672   3.853   9.248  1.7114 -0.8266 -1.5154
  249MOL0     H32812   5.745   3.689   9.290 -1.8595 -1.5882  2.1674
  249MOL0     H32813   5.471   3.712   9.159 -0.9598  1.7608 -1.0055
  249MOL0     H32814   5.587   3.582   9.157  0.5380  0.5875  2.4560
  249MOL0     H32815   5.728   3.712   8.988 -0.5245  0.7504  0.2409
  249MOL0     H32816   5.621   3.851   9.007  1.9572  0.2488  2.8931
  249MOL0     H32817   5.428   3.735   8.896  0.0051  1.4960 -4.3656
  249MOL0     H32818   5.583   3.746   8.807  0.6998  2.5516  1.3462
  249MOL0     H32819   5.459   3.497   8.965  0.2263 -0.0856  1.4486
  249MOL0     H32820   5.621   3.508   8.871 -0.5178 -0.8403  0.8251
  249MOL0     H32821   5.343   3.695   8.686 -1.6296  0.0616 -0.9064
  249MOL0     H32822   5.290   3.497   8.364  1.4290  2.8130 -0.5795
  249MOL0     H32823   5.251   3.652   8.426  0.1605 -0.5114 -1.5295
  249MOL0     H32824   5.077   3.492   8.587 -0.1050 -1.3787 -0.1518
  249MOL0     H32825   5.083   3.411   8.435  1.8404  0.0056 -1.2660
  249MOL0     H32826   5.031   3.655   8.321 -1.8291  2.6396  0.8319
  249MOL0     H32827   4.899   3.577   8.428  0.2579  0.0366  1.7158
  249MOL0     H32828   5.081   3.799   8.526 -0.4504  0.0272  1.6650
  249MOL0     H32829   5.009   3.688   8.619  1.2732 -2.4809 -1.3751
  249MOL0     H32830   4.829   3.759   8.757 -0.4766 -0.2606 -0.4898
  249MOL0     H32831   4.628   3.661   8.856  2.1719 -0.5047  0.4403
  249MOL0     H32832   4.127   3.767   8.654  0.5576 -0.5305  1.0045
  249MOL0     H32833   3.931   3.791   8.800 -0.2027  0.2390 -3.2241
  249MOL0     H32834   3.970   3.628   9.096  0.6131 -2.0240 -2.3239
  249MOL0     H32835   3.797   3.611   9.146 -0.1695  0.9227  0.8506
  249MOL0     H32836   3.932   3.856   9.021  2.1553  1.1144  1.9463
  249MOL0     H32837   3.896   3.836   9.190  0.0269 -3.1616  0.7145
  249MOL0     H32838   3.642   3.807   9.138  0.1897 -0.1419  0.6512
  249MOL0     H32839   3.686   3.843   8.972 -1.4730  0.8060  0.4004
  249MOL0     H32840   3.775   4.050   9.169  1.1910  1.5406 -1.8717
  249MOL0     H32841   3.753   4.056   9.000  4.0416 -4.6682 -0.5910
  249MOL0     H32842   3.588   4.193   9.083  2.4037  0.1595  0.5916
  249MOL0     H32843   3.487   4.070   9.169 -2.9989  0.3406 -2.3435
  249MOL0     H32844   3.481   3.942   8.943  0.5783 -0.8047  3.2366
  249MOL0     H32845   3.534   4.098   8.876  0.4824  4.0446  1.5545
  249MOL0     H32846   3.298   4.076   9.061 -1.7345  1.1074 -0.2828
  249MOL0     H32847   3.349   4.214   8.960  1.1910 -0.9283  0.0710
  249MOL0     H32848   3.297   4.088   8.756  0.1829  0.7987 -0.4493
  249MOL0     H32849   3.163   4.122   8.874 -0.1098 -0.9019  1.4388
  249MOL0     H32850   3.977   3.404   8.942 -0.5299 -0.9284  0.1332
  249MOL0     H32851   4.186   3.376   8.792 -0.3896  0.1515 -1.0146
  249MOL0     H32852   4.479   3.637   8.438  0.2056  0.8257 -1.6506
  249MOL0     H32853   4.681   3.733   8.364 -0.4742 -4.2921 -0.0370
  249MOL0     H32854   5.442   3.585   9.820  2.5140 -1.1899  2.4696
  249MOL0     H32855   5.414   3.591  10.053 -1.4087 -0.3628 -1.9330
  249MOL0     H32856   5.078   3.993  10.400 -4.2492 -2.7859  2.6302
  249MOL0     H32857   5.082   4.052  10.611 -0.5489  1.0801 -2.7171
  249MOL0     H32858   5.042   4.017  10.869  0.6446 -0.4044 -2.0599
  249MOL0     H32859   5.163   4.141  10.838 -4.1036  0.6725 -0.1518
  249MOL0     H32860   5.117   4.094  11.082  0.3179  0.0293  0.3170
  249MOL0     H32861   5.199   3.944  11.072 -2.3982  0.9148  3.5260
  249MOL0     H32862   5.337   4.216  11.002 -0.2916 -0.7571 -2.0138
  249MOL0     H32863   5.417   4.069  11.004 -3.3262 -1.2801 -2.6579
  249MOL0     H32864   5.287   4.210  11.251  1.7894  1.7487 -0.2104
  249MOL0     H32865   5.304   4.034  11.252  0.0475  1.0537  1.2759
  249MOL0     H32866   5.712   4.178  11.277  0.6550 -0.6345  1.2454
  249MOL0     H32867   5.371   3.744  10.704  2.9984  3.7406  0.9328
  249MOL0     H32868   5.394   3.714  10.456 -2.0815  0.6324 -2.9117
  250MOL0     O32869  11.336   1.688  10.321 -0.1690 -0.2226  0.3748
  250MOL0     C32870  11.258   1.596  10.333  0.5812  0.0852 -0.1374
  250MOL0     O32871  11.248   1.516  10.445  0.6579  0.5414 -0.4986
  250MOL0     C32872  11.366   1.514  10.512 -0.6948 -0.0800 -0.6799
  250MOL0     C32873  11.402   1.590  10.627  0.0515 -0.3926 -0.0391
  250MOL0     C32874  11.522   1.580  10.695  0.2655 -0.8212 -0.1689
  250MOL0     C32875  11.610   1.483  10.655 -0.7355  0.5386 -0.0325
  250MOL0     O32876  11.736   1.464  10.707  0.4654 -0.0334 -0.0731
  250MOL0     C32877  11.744   1.364  10.817  0.6898 -0.6907  0.7671
  250MOL0     C32878  11.674   1.420  10.940 -0.3648  0.1616  0.6439
  250MOL0     C32879  11.623   1.308  11.029  0.1206  0.1603 -0.5712
  250MOL0     C32880  11.742   1.239  11.107  0.5299 -0.0079  0.4331
  250MOL0     C32881  11.689   1.184  11.236  0.7239 -0.3253 -0.7930
  250MOL0     C32882  11.785   1.112  11.324  0.4696 -0.0244  0.2520
  250MOL0     C32883  11.818   0.977  11.273 -0.6561 -0.2124 -1.4201
  250MOL0     C32884  11.942   0.913  11.342  0.2269 -0.4877  0.5098
  250MOL0     N32885  11.951   0.758  11.319  0.3303 -0.0902 -1.1784
  250MOL0     C32886  12.021   0.683  11.415  0.5774  0.4318 -0.6933
  250MOL0     C32887  11.957   0.564  11.401 -1.0938  1.2630 -0.3710
  250MOL0     C32888  11.956   0.456  11.517  0.0113 -1.2687  0.6343
  250MOL0     C32889  12.082   0.371  11.514  0.6372  1.0313  0.9110
  250MOL0     C32890  12.205   0.448  11.561 -0.0927 -0.3591 -1.1770
  250MOL0     C32891  12.334   0.364  11.600 -0.3895  0.5675 -1.1078
  250MOL0     O32892  12.397   0.319  11.480  0.3300 -0.2570 -0.3937
  250MOL0     C32893  12.372   0.188  11.430 -0.5413 -0.0999 -0.9028
  250MOL0     C32894  12.361   0.071  11.511  0.0818 -0.5928 -0.1846
  250MOL0     C32895  12.337  -0.056  11.456 -0.4991 -0.0158  0.2580
  250MOL0     C32896  12.335  -0.072  11.316  0.4177 -0.0517 -0.7198
  250MOL0     C32897  12.326  -0.204  11.251 -0.5991  0.1852 -0.1725
  250MOL0     O32898  12.310  -0.207  11.118  0.0507  1.3888  0.4737
  250MOL0     C32899  12.305  -0.332  11.061  0.5839 -0.3113  0.1256
  250MOL0     C32900  12.418  -0.376  10.990  0.5452  0.5142 -0.1335
  250MOL0     C32901  12.424  -0.506  10.928 -0.0084 -0.3164 -0.3008
  250MOL0     C32902  12.313  -0.589  10.931 -0.4607 -0.7024 -0.1560
  250MOL0     O32903  12.337  -0.696  10.854  0.3171 -0.5436  0.4213
  250MOL0     C32904  12.277  -0.814  10.897 -0.7546 -0.3357  0.0072
  250MOL0     C32905  12.337  -0.938  10.836 -0.5293 -0.5848  1.0360
  250MOL0     C32906  12.495  -0.963  10.853 -0.2641 -0.5913  0.3179
  250MOL0     C32907  12.591  -0.871  10.770 -0.4145  0.8165 -0.4857
  250MOL0     C32908  12.735  -0.885  10.811  0.6618 -0.0822 -0.6309
  250MOL0     C32909  12.791  -1.028  10.826  0.4195 -0.8160 -0.8401
  250MOL0     C32910  12.774  -1.107  10.695  0.0597 -0.5365 -0.6438
  250MOL0     C32911  12.857  -1.033  10.586 -0.8617  0.6602  0.1720
  250MOL0    Cl32912  13.021  -0.994  10.618 -0.1980 -0.4033  0.1215
  250MOL0     C32913  12.195  -0.543  10.999 -0.0465  1.3151  0.4084
  250MOL0     C32914  12.191  -0.420  11.065 -0.7274 -0.9732 -1.0867
  250MOL0     O32915  12.325  -0.301  11.322  0.2659  0.5131 -0.0183
  250MOL0     C32916  12.345   0.048  11.238 -1.1814  0.2584  0.3325
  250MOL0     C32917  12.368   0.170  11.293 -0.1941 -0.4049  0.6112
  250MOL0     N32918  11.857   0.569  11.300 -0.5283 -0.6827 -0.2367
  250MOL0     N32919  11.865   0.687  11.240  0.1208 -0.7030 -1.1368
  250MOL0     C32920  11.581   1.402  10.544  0.7540  0.1369 -0.5966
  250MOL0     C32921  11.458   1.419  10.476 -1.0332  0.7905  0.4336
  250MOL0     C32922  11.148   1.575  10.236  0.2278 -0.2001 -0.0760
  250MOL0     C32923  11.070   1.461  10.239 -0.2724  0.2361 -1.1487
  250MOL0     C32924  10.956   1.442  10.161 -0.2896 -0.4315 -0.3409
  250MOL0     C32925  10.924   1.540  10.063 -0.2510  0.2954  0.1673
  250MOL0     O32926  10.823   1.515   9.976  0.0243  0.4035 -0.1826
  250MOL0     C32927  10.717   1.612   9.966 -0.2862 -0.5116  0.1197
  250MOL0     C32928  10.743   1.730   9.889  1.2107 -0.1379  0.3693
  250MOL0     C32929  10.602   1.792   9.848  0.4159  0.4885 -0.2307
  250MOL0     C32930  10.520   1.720   9.733  0.2818 -0.0579 -0.1963
  250MOL0     C32931  10.605   1.718   9.611 -0.1395 -0.1592  0.1568
  250MOL0     C32932  10.675   1.700   9.513 -0.2557  0.6452 -1.4324
  250MOL0     C32933  11.008   1.658  10.057 -0.2267  0.1442  0.6723
  250MOL0     C32934  11.115   1.683  10.148 -0.3012  0.2151 -0.5542
  250MOL0     H32935  11.317   1.650  10.658 -1.0682 -2.5864  1.4956
  250MOL0     H32936  11.556   1.641  10.778  2.3472 -0.9393 -0.8810
  250MOL0     H32937  11.842   1.321  10.842 -0.1086 -1.4188  2.8678
  250MOL0     H32938  11.684   1.287  10.769  1.4454  0.3798 -2.1024
  250MOL0     H32939  11.576   1.460  10.909 -0.3473  1.1121  1.7337
  250MOL0     H32940  11.735   1.497  10.989  1.8621  0.2586 -2.0446
  250MOL0     H32941  11.591   1.231  10.958 -0.2513  0.9456 -1.2627
  250MOL0     H32942  11.551   1.344  11.103 -0.6846 -0.7385 -0.8953
  250MOL0     H32943  11.783   1.159  11.043  1.6535  0.9186 -0.0514
  250MOL0     H32944  11.819   1.307  11.143  0.8018 -0.3043  0.4257
  250MOL0     H32945  11.613   1.109  11.211 -0.8413  0.7963  0.3599
  250MOL0     H32946  11.645   1.266  11.293 -1.3412 -1.5247 -0.5515
  250MOL0     H32947  11.730   1.094  11.417 -0.0300 -2.5062 -0.4390
  250MOL0     H32948  11.879   1.166  11.337  0.6601 -0.4389  0.6374
  250MOL0     H32949  11.736   0.905  11.279 -3.6260  3.0081 -0.4929
  250MOL0     H32950  11.852   0.981  11.169  3.4587 -0.5170 -0.2930
  250MOL0     H32951  11.948   0.951  11.444 -0.6395  0.5706  0.1793
  250MOL0     H32952  12.025   0.945  11.278 -0.7615 -0.1374 -0.6382
  250MOL0     H32953  12.092   0.714  11.491  0.0810  1.0717 -0.4742
  250MOL0     H32954  11.864   0.399  11.524 -1.1279  0.6101  1.9818
  250MOL0     H32955  11.955   0.504  11.615  0.7671  1.5165 -0.6162
  250MOL0     H32956  12.101   0.325  11.416 -1.9286 -0.4703  1.0327
  250MOL0     H32957  12.060   0.283  11.574 -0.3762 -0.9161 -2.0621
  250MOL0     H32958  12.239   0.524  11.491 -0.5261  1.4670  0.5005
  250MOL0     H32959  12.187   0.503  11.654  1.6068 -3.1589  0.9792
  250MOL0     H32960  12.307   0.282  11.667  0.7487  0.2208 -1.0435
  250MOL0     H32961  12.405   0.427  11.655  1.0208  0.5280 -2.7878
  250MOL0     H32962  12.365   0.062  11.619  0.7381  2.0820  0.0767
  250MOL0     H32963  12.331  -0.136  11.530 -0.0762  0.5586  0.9259
  250MOL0     H32964  12.497  -0.303  10.976 -1.8880  2.9379 -2.7696
  250MOL0     H32965  12.516  -0.535  10.878  0.2121  0.6191 -0.4603
  250MOL0     H32966  12.169  -0.815  10.877 -0.8076  1.2000  0.0827
  250MOL0     H32967  12.292  -0.819  11.005  3.0204 -0.0951 -0.3737
  250MOL0     H32968  12.320  -0.928  10.728 -1.0760  1.6188  1.2797
  250MOL0     H32969  12.279  -1.021  10.876 -0.6898  0.1123  2.2918
  250MOL0     H32970  12.512  -1.063  10.813 -0.5607 -0.4182 -0.2604
  250MOL0     H32971  12.528  -0.971  10.957 -0.6927  1.3139  0.6434
  250MOL0     H32972  12.587  -0.899  10.664 -0.5880  0.1556 -0.3136
  250MOL0     H32973  12.574  -0.764  10.778  0.3573  0.9267 -0.2705
  250MOL0     H32974  12.741  -0.843  10.912  2.0531 -0.5783 -0.4875
  250MOL0     H32975  12.806  -0.833  10.747  1.8884  0.9524  1.4654
  250MOL0     H32976  12.737  -1.082  10.905  2.0682 -3.1298 -1.2128
  250MOL0     H32977  12.895  -1.037  10.860  1.3633 -1.4597 -3.6533
  250MOL0     H32978  12.820  -1.205  10.709  2.1694  0.3590 -0.8981
  250MOL0     H32979  12.668  -1.111  10.669 -0.8414  2.9024  1.7828
  250MOL0     H32980  12.804  -0.940  10.562  2.8392  2.4416 -1.7948
  250MOL0     H32981  12.847  -1.099  10.499  1.1002 -0.3236  0.6413
  250MOL0     H32982  12.099  -0.593  10.996  0.9415 -0.5982 -1.1655
  250MOL0     H32983  12.100  -0.382  11.111  0.6439  0.3594  0.6793
  250MOL0     H32984  12.358   0.040  11.131  1.1468  0.9411  0.5136
  250MOL0     H32985  12.355   0.250  11.222  0.6894 -1.6638 -1.0249
  250MOL0     H32986  11.640   1.317  10.513 -3.1920 -1.3120 -5.5893
  250MOL0     H32987  11.438   1.346  10.399 -3.9365 -0.3293  2.0682
  250MOL0     H32988  11.099   1.378  10.303  0.1788  0.3932 -1.1480
  250MOL0     H32989  10.888   1.360  10.185 -1.2426  1.1039  2.6138
  250MOL0     H32990  10.668   1.648  10.057 -0.0622  1.5845 -0.5312
  250MOL0     H32991  10.649   1.546   9.911  0.8526 -0.5433 -1.3000
  250MOL0     H32992  10.798   1.807   9.944  0.2217  1.0843 -0.3095
  250MOL0     H32993  10.799   1.709   9.797 -0.6019  1.6480 -1.2286
  250MOL0     H32994  10.628   1.890   9.807  1.8233  0.4632  0.5173
  250MOL0     H32995  10.531   1.793   9.932  1.5821 -1.9803  0.8869
  250MOL0     H32996  10.495   1.616   9.754  0.4553 -0.8357 -3.2789
  250MOL0     H32997  10.433   1.785   9.719 -1.6644 -1.8488  2.5763
  250MOL0     H32998  10.754   1.697   9.441  2.1211 -2.9840  1.0140
  250MOL0     H32999  10.987   1.743   9.992  2.4864  0.1726 -0.3261
  250MOL0     H33000  11.175   1.773  10.143 -0.0372  0.1148  0.5284
  251MOL0     O33001   2.695   0.633   5.527 -0.9042 -0.0300 -0.7927
  251MOL0     C33002   2.675   0.572   5.422 -0.0122 -0.9819  0.6046
  251MOL0     O33003   2.608   0.450   5.402 -0.0606 -0.0314 -0.9043
  251MOL0     C33004   2.562   0.377   5.505  0.5781 -0.5842 -0.7015
  251MOL0     C33005   2.645   0.290   5.561 -0.4785 -0.2496 -0.9715
  251MOL0     C33006   2.610   0.221   5.683  0.5168 -0.0140  0.2000
  251MOL0     C33007   2.481   0.246   5.744 -0.4177 -0.1357  0.0733
  251MOL0     O33008   2.421   0.185   5.851 -0.6118  0.2655  0.4700
  251MOL0     C33009   2.507   0.151   5.963 -0.7240 -0.2769  0.4926
  251MOL0     C33010   2.562   0.008   5.947 -0.5507 -0.1909 -1.7089
  251MOL0     C33011   2.626  -0.041   6.069 -0.7136  0.5752 -1.4173
  251MOL0     C33012   2.756   0.040   6.093 -0.4120 -0.7640 -0.0732
  251MOL0     C33013   2.848  -0.037   6.194  0.0649  0.1555  0.2113
  251MOL0     C33014   2.795  -0.059   6.332 -0.3933 -0.2196 -0.6963
  251MOL0     C33015   2.908  -0.079   6.433 -0.3221 -0.1033 -0.0234
  251MOL0     C33016   2.965  -0.222   6.452  0.1506 -0.3046  0.3621
  251MOL0     N33017   3.047  -0.271   6.341  0.3455 -0.7700 -0.4647
  251MOL0     C33018   3.156  -0.211   6.287 -0.0410  0.2476  0.1675
  251MOL0     C33019   3.210  -0.295   6.199 -0.9938  0.4429  0.8733
  251MOL0     C33020   3.340  -0.277   6.114  0.4423 -0.8407  0.1340
  251MOL0     C33021   3.463  -0.341   6.186 -0.2673  0.3325  0.5410
  251MOL0     C33022   3.591  -0.347   6.092  0.1739  0.1525 -0.2454
  251MOL0     C33023   3.705  -0.437   6.156  0.1211 -0.4132 -0.6169
  251MOL0     O33024   3.753  -0.346   6.260  0.2381  0.5793 -0.5443
  251MOL0     C33025   3.773  -0.393   6.386 -0.5736  0.3607  0.8597
  251MOL0     C33026   3.908  -0.388   6.438  0.4655  0.0839  1.5233
  251MOL0     C33027   3.942  -0.452   6.557 -0.0369 -0.7894 -1.2149
  251MOL0     C33028   3.843  -0.524   6.628  0.3295 -0.0679 -0.8381
  251MOL0     C33029   3.862  -0.583   6.768 -0.9645 -0.4848 -0.2553
  251MOL0     O33030   3.776  -0.680   6.801 -0.1615  0.6466 -0.6502
  251MOL0     C33031   3.771  -0.745   6.927 -0.4309  0.1131  0.1215
  251MOL0     C33032   3.839  -0.714   7.052  0.4698 -0.7427 -0.8495
  251MOL0     C33033   3.811  -0.768   7.177 -0.5893  0.1789  0.6262
  251MOL0     C33034   3.702  -0.866   7.164 -0.3098  0.1290 -0.5243
  251MOL0     O33035   3.656  -0.930   7.279  0.8884  0.0319 -0.2544
  251MOL0     C33036   3.709  -0.909   7.410 -0.2866  0.4001 -0.7632
  251MOL0     C33037   3.653  -0.996   7.512  0.1032 -0.2808 -0.3402
  251MOL0     C33038   3.518  -0.948   7.568  0.4959  0.5430 -0.4996
  251MOL0     C33039   3.450  -1.049   7.658  0.0655  0.0045 -1.9764
  251MOL0     C33040   3.340  -0.985   7.740  0.0645 -0.2805  0.0178
  251MOL0     C33041   3.371  -1.005   7.897  0.1477  0.9481  0.4425
  251MOL0     C33042   3.244  -0.993   7.989 -0.1399 -0.2854  0.4167
  251MOL0     C33043   3.135  -1.104   7.962 -0.0627 -0.6302  0.7702
  251MOL0    Cl33044   2.998  -1.081   8.073 -0.6299 -0.1047 -0.6306
  251MOL0     C33045   3.629  -0.894   7.049 -0.4776 -0.1799  0.4925
  251MOL0     C33046   3.674  -0.838   6.927  0.6292 -0.5755 -0.4658
  251MOL0     O33047   3.943  -0.531   6.846  0.4446 -0.5227 -0.5189
  251MOL0     C33048   3.709  -0.523   6.574 -0.8327  0.1896  0.1482
  251MOL0     C33049   3.673  -0.458   6.458 -0.0432 -0.2676 -0.3498
  251MOL0     N33050   3.116  -0.393   6.178  0.9719  0.5567  0.2904
  251MOL0     N33051   3.025  -0.378   6.269 -0.0292 -0.2059  0.0902
  251MOL0     C33052   2.404   0.340   5.685 -0.4397 -0.0581  0.7110
  251MOL0     C33053   2.444   0.415   5.572  0.1826 -0.3730 -0.3990
  251MOL0     C33054   2.723   0.642   5.301  0.5514 -0.1760  0.4837
  251MOL0     C33055   2.806   0.748   5.306 -0.3027  0.3725  0.0244
  251MOL0     C33056   2.841   0.818   5.190 -0.5232  0.3146  0.8846
  251MOL0     C33057   2.791   0.771   5.062 -0.1843  0.2637 -0.1286
  251MOL0     O33058   2.834   0.807   4.939  0.3280 -0.8965 -0.1767
  251MOL0     C33059   2.975   0.830   4.913  0.6247  0.2702  0.1266
  251MOL0     C33060   3.057   0.701   4.916  0.4951 -0.5002  1.1673
  251MOL0     C33061   3.054   0.609   4.787 -0.0784 -0.2395 -0.7753
  251MOL0     C33062   3.153   0.495   4.791  0.1105 -0.0306 -0.8076
  251MOL0     C33063   3.168   0.420   4.663 -0.0345  0.2266  0.0851
  251MOL0     C33064   3.179   0.379   4.553  0.0210 -0.2972  0.0908
  251MOL0     C33065   2.708   0.660   5.063 -0.2154  0.1036  0.7533
  251MOL0     C33066   2.673   0.598   5.174 -0.7497 -0.6922 -0.4381
  251MOL0     H33067   2.739   0.259   5.517 -0.2508 -2.3794  0.8386
  251MOL0     H33068   2.674   0.139   5.713 -1.3310 -1.9949 -1.0322
  251MOL0     H33069   2.436   0.154   6.046  0.9103  3.1184  1.9895
  251MOL0     H33070   2.576   0.232   5.992 -2.7466  0.3751  4.1159
  251MOL0     H33071   2.623  -0.004   5.857 -0.2414 -2.8331 -1.2469
  251MOL0     H33072   2.479  -0.060   5.926 -0.9269 -0.2150 -0.2780
  251MOL0     H33073   2.653  -0.148   6.063 -0.2996  0.6542 -1.0569
  251MOL0     H33074   2.553  -0.023   6.148 -0.2075  1.9922 -1.2577
  251MOL0     H33075   2.814   0.070   6.006  0.5447  0.6401  0.9998
  251MOL0     H33076   2.741   0.140   6.135  1.6678  0.1448 -1.3502
  251MOL0     H33077   2.945   0.010   6.212 -1.1415  2.2929  1.5609
  251MOL0     H33078   2.872  -0.132   6.146 -0.2434 -0.5120  1.3428
  251MOL0     H33079   2.729  -0.146   6.335  3.2861 -3.3180  3.3427
  251MOL0     H33080   2.740   0.025   6.376  1.6781  0.3014  1.0413
  251MOL0     H33081   2.989  -0.009   6.409 -0.4093 -0.4331 -1.3504
  251MOL0     H33082   2.876  -0.044   6.532 -0.9521  4.5136 -1.6268
  251MOL0     H33083   2.876  -0.280   6.477 -1.6371  1.1123 -2.2294
  251MOL0     H33084   3.023  -0.214   6.544  0.7507  1.5455 -0.1351
  251MOL0     H33085   3.204  -0.115   6.305 -4.6776  2.4290  2.8189
  251MOL0     H33086   3.349  -0.168   6.108 -0.7299 -0.6136  1.8203
  251MOL0     H33087   3.329  -0.321   6.015 -1.2005  1.9012 -1.0085
  251MOL0     H33088   3.445  -0.449   6.193  1.2214 -0.0382 -0.5955
  251MOL0     H33089   3.492  -0.305   6.285  0.0821  0.0553  0.5448
  251MOL0     H33090   3.572  -0.399   5.998 -0.0792 -1.0705  0.4521
  251MOL0     H33091   3.619  -0.242   6.079 -1.8322  0.9209  1.1193
  251MOL0     H33092   3.786  -0.456   6.085  1.5958  0.6992  0.6937
  251MOL0     H33093   3.660  -0.532   6.187 -1.8638  0.4760 -0.6294
  251MOL0     H33094   3.986  -0.335   6.385  0.5141  0.7467  2.2524
  251MOL0     H33095   4.038  -0.446   6.608  0.0374  1.8456 -1.5618
  251MOL0     H33096   3.920  -0.642   7.058  0.1411 -0.4208 -0.1006
  251MOL0     H33097   3.851  -0.737   7.273  4.2661  0.6706 -1.2683
  251MOL0     H33098   3.692  -0.804   7.437  1.1994  0.4854 -0.0278
  251MOL0     H33099   3.818  -0.921   7.400  0.2996 -0.9141  4.4180
  251MOL0     H33100   3.725  -0.987   7.593  0.9205 -2.4960 -0.7659
  251MOL0     H33101   3.642  -1.101   7.484  3.5531 -0.3590 -1.8890
  251MOL0     H33102   3.454  -0.934   7.481  0.4531  0.5692 -0.4637
  251MOL0     H33103   3.520  -0.849   7.615  2.5846  0.4684 -0.3227
  251MOL0     H33104   3.400  -1.126   7.598 -1.4052  0.4634 -1.3881
  251MOL0     H33105   3.527  -1.104   7.712  0.5781  0.9426 -1.7268
  251MOL0     H33106   3.236  -1.007   7.712 -0.1634  0.8961 -0.0875
  251MOL0     H33107   3.345  -0.877   7.725  3.1262 -0.6794 -2.9264
  251MOL0     H33108   3.448  -0.933   7.927 -0.8261  2.9496 -1.5513
  251MOL0     H33109   3.404  -1.107   7.915  2.8295  1.7755  0.7515
  251MOL0     H33110   3.276  -1.019   8.090  0.8840  1.3116  0.5356
  251MOL0     H33111   3.212  -0.888   7.988  1.2844  0.2396  2.7557
  251MOL0     H33112   3.167  -1.208   7.952  2.9592  0.3850 -2.4335
  251MOL0     H33113   3.092  -1.085   7.863 -0.1922  0.0333  0.9509
  251MOL0     H33114   3.548  -0.967   7.053 -0.7928  0.0453 -1.0391
  251MOL0     H33115   3.622  -0.862   6.835  2.2564  0.5086 -1.7333
  251MOL0     H33116   3.635  -0.565   6.642  1.2527 -3.1585  0.6145
  251MOL0     H33117   3.571  -0.455   6.421  0.1646  0.5409 -0.8759
  251MOL0     H33118   2.309   0.367   5.730 -1.5603 -0.1972 -1.4290
  251MOL0     H33119   2.381   0.495   5.534  2.3582  2.1564  0.9452
  251MOL0     H33120   2.842   0.777   5.404 -3.8711  2.3340  0.9163
  251MOL0     H33121   2.917   0.895   5.186 -1.6677  1.4817  0.7194
  251MOL0     H33122   3.003   0.911   4.980 -1.1131  2.0789 -1.1982
  251MOL0     H33123   2.988   0.870   4.812  2.5282 -0.2611  0.1244
  251MOL0     H33124   3.159   0.719   4.949  0.8105 -0.6641  0.3057
  251MOL0     H33125   3.004   0.639   4.989 -1.2402  0.6811  0.9659
  251MOL0     H33126   3.092   0.681   4.714  2.1437 -1.1092 -0.5434
  251MOL0     H33127   2.955   0.578   4.752  0.3301 -0.8437 -1.4193
  251MOL0     H33128   3.253   0.527   4.821  0.9468 -2.9197 -0.1847
  251MOL0     H33129   3.122   0.424   4.868 -1.7394  1.0422 -0.5077
  251MOL0     H33130   3.218   0.333   4.464  2.6302 -0.2655  1.1223
  251MOL0     H33131   2.663   0.610   4.978 -1.7921  0.1085  1.5502
  251MOL0     H33132   2.610   0.509   5.178  0.9311 -1.9061  1.0482
  252MOL0     O33133  10.879   6.060  10.570  0.4682  0.1450  0.4580
  252MOL0     C33134  10.884   6.181  10.538  0.0734  0.5006  0.1067
  252MOL0     O33135  10.777   6.261  10.524  0.8360 -0.6393 -0.2644
  252MOL0     C33136  10.659   6.200  10.537  0.9840 -0.7349 -0.1323
  252MOL0     C33137  10.620   6.154  10.664  1.1692 -0.2419 -0.5779
  252MOL0     C33138  10.511   6.068  10.674  0.9919  0.0554 -0.2337
  252MOL0     C33139  10.438   6.047  10.552 -0.3874 -0.7132 -0.1421
  252MOL0     O33140  10.339   5.959  10.538 -0.7781 -0.2039 -0.2542
  252MOL0     C33141  10.245   5.963  10.641 -0.5726  0.2010 -0.6617
  252MOL0     C33142  10.123   5.859  10.611 -0.0628 -0.2519  0.0958
  252MOL0     C33143  10.013   5.877  10.719  0.1523 -0.1834 -0.3661
  252MOL0     C33144   9.907   5.769  10.692  0.2184 -0.1717 -0.5895
  252MOL0     C33145   9.786   5.769  10.787 -0.0514 -0.2779  0.2554
  252MOL0     C33146   9.682   5.664  10.765  0.1673 -0.4515  0.0799
  252MOL0     C33147   9.611   5.607  10.885  0.5892 -0.5026 -0.4726
  252MOL0     C33148   9.549   5.463  10.858 -0.1347  0.1940 -1.0330
  252MOL0     N33149   9.642   5.348  10.810  0.0531 -0.0529 -0.6527
  252MOL0     C33150   9.753   5.298  10.879 -0.7524 -0.6080  0.7703
  252MOL0     C33151   9.764   5.163  10.837 -0.6983 -0.2606 -0.0429
  252MOL0     C33152   9.882   5.071  10.867 -0.3435 -0.7950 -0.0040
  252MOL0     C33153   9.993   5.083  10.758  0.2130 -0.3337  1.3856
  252MOL0     C33154  10.132   5.084  10.819  0.0585  0.4534 -1.1017
  252MOL0     C33155  10.182   5.236  10.856  0.2882  0.1297  0.7962
  252MOL0     O33156  10.085   5.306  10.933  0.0505 -0.8037 -0.7399
  252MOL0     C33157  10.116   5.445  10.952 -0.0362  0.8087 -0.4151
  252MOL0     C33158  10.078   5.497  11.074  0.3306  0.4664  1.0650
  252MOL0     C33159  10.128   5.620  11.117 -0.0825 -0.4508  0.2615
  252MOL0     C33160  10.222   5.694  11.043 -0.4400  0.0997 -0.2379
  252MOL0     C33161  10.257   5.837  11.066  0.2575  0.4999 -0.0705
  252MOL0     O33162  10.393   5.860  11.025 -0.7236 -0.4931  0.0306
  252MOL0     C33163  10.467   5.977  11.033  0.0372  0.4235 -1.2780
  252MOL0     C33164  10.401   6.102  11.020 -0.1960 -0.2299 -0.1349
  252MOL0     C33165  10.483   6.218  11.011 -0.4292  0.5662  0.3724
  252MOL0     C33166  10.625   6.212  11.031  0.4292 -0.5486  0.0130
  252MOL0     O33167  10.694   6.340  11.047  0.7476  0.6774  0.3431
  252MOL0     C33168  10.725   6.420  10.930 -0.2310 -0.1698 -1.1087
  252MOL0     C33169  10.853   6.389  10.851 -0.6738 -0.0091 -0.5395
  252MOL0     C33170  10.976   6.473  10.911  0.7870 -0.1393  0.0054
  252MOL0     C33171  11.120   6.442  10.863 -0.3352  0.3776 -0.8582
  252MOL0     C33172  11.227   6.483  10.971 -1.2226 -0.2114 -0.5916
  252MOL0     C33173  11.362   6.417  10.943 -0.4709 -1.0931  0.1382
  252MOL0     C33174  11.396   6.407  10.794 -0.1003 -0.2196 -0.0335
  252MOL0     C33175  11.550   6.385  10.777  0.0574  0.7742 -0.5483
  252MOL0    Cl33176  11.648   6.514  10.849  0.5453  0.0658 -0.3563
  252MOL0     C33177  10.687   6.082  11.042  0.0730 -0.7883  0.6565
  252MOL0     C33178  10.609   5.967  11.054  0.0900  0.4055  0.2866
  252MOL0     O33179  10.177   5.917  11.114  0.4875  1.0287  0.9731
  252MOL0     C33180  10.274   5.630  10.935  0.2234  0.1967  0.5928
  252MOL0     C33181  10.214   5.514  10.878 -0.4980 -0.0830 -0.4464
  252MOL0     N33182   9.666   5.149  10.744  0.9602 -0.1536  0.3973
  252MOL0     N33183   9.595   5.255  10.730  0.0284 -0.0618  0.3660
  252MOL0     C33184  10.471   6.101  10.430  0.9270 -0.3196  0.7526
  252MOL0     C33185  10.585   6.184  10.418 -0.4429  1.0074 -0.2435
  252MOL0     C33186  11.017   6.246  10.525 -0.6612  0.3763  0.6844
  252MOL0     C33187  11.131   6.163  10.525  0.1503 -0.4054 -0.0426
  252MOL0     C33188  11.253   6.225  10.491 -0.5805  0.0366  0.2095
  252MOL0     C33189  11.269   6.356  10.437  0.3850  0.6155 -0.2819
  252MOL0     O33190  11.386   6.411  10.401  0.9620  0.1665 -0.0754
  252MOL0     C33191  11.436   6.359  10.277 -0.1156  0.3553 -0.5839
  252MOL0     C33192  11.586   6.391  10.292 -0.0443  0.2022  0.5336
  252MOL0     C33193  11.645   6.373  10.150  0.8416  0.4650 -0.0655
  252MOL0     C33194  11.785   6.431  10.143  0.1347  0.0312 -0.6031
  252MOL0     C33195  11.891   6.344  10.199  1.0216  0.0343 -0.9151
  252MOL0     C33196  11.979   6.276  10.248  0.0244 -0.4611  0.5117
  252MOL0     C33197  11.153   6.435  10.444  0.0210  0.4371 -0.3787
  252MOL0     C33198  11.028   6.380  10.493  0.2969 -0.7070 -0.6123
  252MOL0     H33199  10.679   6.173  10.753 -2.8163  2.4200  1.8015
  252MOL0     H33200  10.477   6.031  10.770 -0.6044  2.5051  0.2585
  252MOL0     H33201  10.208   6.064  10.656 -0.9671 -0.3495  2.8171
  252MOL0     H33202  10.294   5.931  10.733  2.0698 -0.1881 -2.1027
  252MOL0     H33203  10.145   5.752  10.620  1.7286  0.1707  1.4527
  252MOL0     H33204  10.088   5.879  10.509 -0.2083 -3.9656 -0.6989
  252MOL0     H33205   9.964   5.974  10.705 -3.0106 -1.4835  0.7985
  252MOL0     H33206  10.061   5.869  10.818  1.9444 -4.2252 -1.3560
  252MOL0     H33207   9.871   5.781  10.589  2.0613 -0.9766 -1.3635
  252MOL0     H33208   9.964   5.676  10.690  0.3576 -0.0917 -0.4012
  252MOL0     H33209   9.748   5.865  10.821  0.0417 -0.0330 -0.3158
  252MOL0     H33210   9.836   5.749  10.882 -0.9820 -0.4225  0.7166
  252MOL0     H33211   9.731   5.575  10.724  2.9264  0.8418  0.4008
  252MOL0     H33212   9.607   5.711  10.701  0.8515  2.1442  1.0837
  252MOL0     H33213   9.672   5.598  10.976  1.1623 -1.4225 -0.9290
  252MOL0     H33214   9.524   5.668  10.909  1.1334  1.3005 -2.7272
  252MOL0     H33215   9.473   5.483  10.781  0.1937 -0.2634 -1.4816
  252MOL0     H33216   9.495   5.449  10.952  1.1962 -1.6729 -0.5029
  252MOL0     H33217   9.816   5.357  10.945  1.1753 -0.1283 -1.3517
  252MOL0     H33218   9.848   4.967  10.870 -0.6070 -0.6947  1.7758
  252MOL0     H33219   9.934   5.111  10.955  0.2945  0.0767 -0.7522
  252MOL0     H33220   9.984   5.158  10.679 -2.1905 -2.7599 -0.8563
  252MOL0     H33221   9.983   4.991  10.701 -1.4295  0.1413  0.8494
  252MOL0     H33222  10.135   5.028  10.912 -0.6022 -1.4503 -2.1697
  252MOL0     H33223  10.212   5.053  10.751  1.0468  1.0615 -0.2213
  252MOL0     H33224  10.195   5.285  10.759 -3.1970  0.3967  0.3211
  252MOL0     H33225  10.281   5.236  10.901 -0.3084 -3.4822  2.4759
  252MOL0     H33226  10.003   5.445  11.133 -1.5897  0.6834 -1.0486
  252MOL0     H33227  10.087   5.663  11.207 -4.1488 -1.3569 -0.9361
  252MOL0     H33228  10.293   6.113  11.016 -0.3604 -1.0465  1.3054
  252MOL0     H33229  10.438   6.316  11.005  1.6602  1.7250  2.0861
  252MOL0     H33230  10.713   6.521  10.972 -0.2403 -1.4995  2.4970
  252MOL0     H33231  10.638   6.416  10.864 -1.6379 -2.7647  0.6897
  252MOL0     H33232  10.824   6.430  10.754 -0.4942  0.8078 -0.2627
  252MOL0     H33233  10.869   6.281  10.861  3.0871  0.1862 -2.6407
  252MOL0     H33234  10.976   6.440  11.015 -1.4587  0.3971  0.2159
  252MOL0     H33235  10.961   6.579  10.890  1.9764 -0.0141 -0.2776
  252MOL0     H33236  11.114   6.333  10.857 -1.7321  0.0911  2.8824
  252MOL0     H33237  11.125   6.497  10.768  5.4096 -1.2038 -1.8755
  252MOL0     H33238  11.196   6.460  11.073 -2.8669  0.5175 -0.9006
  252MOL0     H33239  11.256   6.589  10.965  0.7010 -0.7279 -1.1943
  252MOL0     H33240  11.369   6.320  10.992 -0.7562  0.6985  4.1773
  252MOL0     H33241  11.430   6.485  10.995 -1.8461  0.5645 -0.1091
  252MOL0     H33242  11.338   6.328  10.746 -3.3831  0.7981  1.9505
  252MOL0     H33243  11.375   6.491  10.728  1.3106 -1.8992 -2.8186
  252MOL0     H33244  11.577   6.365  10.673  1.2321 -1.3598  0.0909
  252MOL0     H33245  11.591   6.294  10.823 -0.4292  0.9606  0.2592
  252MOL0     H33246  10.795   6.085  11.054  0.1190  0.2173  0.0683
  252MOL0     H33247  10.652   5.873  11.085  0.3868 -0.3397 -2.1363
  252MOL0     H33248  10.340   5.681  10.865  1.1915 -0.4059  1.0381
  252MOL0     H33249  10.254   5.479  10.783  2.4041  0.9784  0.2756
  252MOL0     H33250  10.414   6.072  10.342 -1.5210  2.0710  1.3895
  252MOL0     H33251  10.621   6.237  10.330  0.0681 -1.1949 -1.4140
  252MOL0     H33252  11.136   6.058  10.553  3.9630 -0.3403  0.1294
  252MOL0     H33253  11.344   6.168  10.507 -0.8480 -1.0589 -1.8116
  252MOL0     H33254  11.395   6.414  10.192 -0.8862  1.6617  0.5914
  252MOL0     H33255  11.406   6.254  10.270  0.9302 -0.0276  0.4393
  252MOL0     H33256  11.589   6.492  10.333 -1.4492  0.4023  0.2164
  252MOL0     H33257  11.628   6.317  10.359 -2.3837 -0.9630  0.8288
  252MOL0     H33258  11.581   6.427  10.080  0.5005  0.9117  0.5792
  252MOL0     H33259  11.653   6.267  10.124 -0.0794  0.3998 -0.1337
  252MOL0     H33260  11.823   6.437  10.041  2.8139  2.7505  0.4022
  252MOL0     H33261  11.793   6.530  10.190 -1.0092  0.6818 -1.7014
  252MOL0     H33262  12.068   6.229  10.283  0.7851  2.3943  2.8362
  252MOL0     H33263  11.161   6.540  10.417 -1.3196  0.6825  0.0729
  252MOL0     H33264  10.944   6.448  10.491  1.0077  0.1993 -1.4076
  253MOL0     O33265   0.793   6.912  10.343 -0.3551 -0.1325 -0.2501
  253MOL0     C33266   0.723   6.968  10.268  0.2841  0.1190  0.1462
  253MOL0     O33267   0.727   6.961  10.128 -0.0096  0.4348 -0.2745
  253MOL0     C33268   0.777   6.837  10.077 -1.3041  0.2306 -0.5940
  253MOL0     C33269   0.903   6.836  10.016  0.3037 -0.2004 -0.0894
  253MOL0     C33270   0.944   6.720   9.945 -0.9360 -0.4651 -0.1963
  253MOL0     C33271   0.865   6.607   9.949  0.6584  0.6115  0.2729
  253MOL0     O33272   0.910   6.489   9.891  0.1237 -0.6200 -0.2456
  253MOL0     C33273   1.041   6.438   9.940 -0.5924  0.1378  0.6259
  253MOL0     C33274   1.092   6.336   9.834  0.7130 -0.2386 -0.3663
  253MOL0     C33275   1.206   6.242   9.872 -1.5980  0.5143 -0.2057
  253MOL0     C33276   1.308   6.309   9.957  0.7070  1.0522  0.5134
  253MOL0     C33277   1.420   6.219   9.985 -0.7185 -0.2972 -0.1344
  253MOL0     C33278   1.485   6.259  10.114  0.0963 -0.7700 -0.4413
  253MOL0     C33279   1.607   6.188  10.159 -0.7712 -0.1662  0.4340
  253MOL0     C33280   1.691   6.265  10.267  0.0467 -0.4498 -0.1543
  253MOL0     N33281   1.643   6.227  10.391 -0.0661  0.7864 -0.4615
  253MOL0     C33282   1.548   6.289  10.464 -0.9672  0.0837  0.7540
  253MOL0     C33283   1.528   6.210  10.562  0.0234 -0.2220 -0.9608
  253MOL0     C33284   1.431   6.229  10.678  0.3534 -0.0783  1.0354
  253MOL0     C33285   1.508   6.310  10.783 -0.4320  0.7600  0.4155
  253MOL0     C33286   1.483   6.465  10.758  0.9093  0.7100  0.0124
  253MOL0     C33287   1.601   6.543  10.813 -0.8903  0.4303 -0.5965
  253MOL0     O33288   1.606   6.537  10.962 -0.3183  0.1395  0.5688
  253MOL0     C33289   1.523   6.610  11.040  0.3109  0.0776 -0.5553
  253MOL0     C33290   1.527   6.590  11.182  0.4585  0.5466  0.5121
  253MOL0     C33291   1.426   6.647  11.262  0.0993  0.7224 -0.3281
  253MOL0     C33292   1.307   6.698  11.209  0.2518 -0.5222  0.1724
  253MOL0     C33293   1.180   6.712  11.284 -0.2264  0.4376  0.4044
  253MOL0     O33294   1.079   6.632  11.234 -0.7672  0.1170 -0.1296
  253MOL0     C33295   0.948   6.647  11.284 -1.5135 -0.3809 -0.3147
  253MOL0     C33296   0.855   6.703  11.204  0.6094  1.3879 -0.4220
  253MOL0     C33297   0.727   6.715  11.260  0.2730 -0.6988 -0.0312
  253MOL0     C33298   0.690   6.673  11.386 -0.5913  0.3181 -0.6762
  253MOL0     O33299   0.562   6.685  11.436  0.3139  0.0896 -0.6053
  253MOL0     C33300   0.448   6.733  11.350 -0.0859  0.6579  0.0755
  253MOL0     C33301   0.308   6.692  11.419  0.1670 -0.0377  0.2752
  253MOL0     C33302   0.166   6.742  11.365 -1.4822  0.2282 -0.8275
  253MOL0     C33303   0.070   6.634  11.313  1.0216  0.5958  0.0271
  253MOL0     C33304  -0.076   6.692  11.301 -0.1366  0.3570  0.4270
  253MOL0     C33305  -0.164   6.677  11.421 -0.3898  0.7079  0.3974
  253MOL0     C33306  -0.185   6.524  11.464 -0.5574  0.6044 -0.1689
  253MOL0     C33307  -0.325   6.469  11.423 -1.5945 -0.7146  0.9690
  253MOL0    Cl33308  -0.459   6.584  11.475 -0.0020  0.4482 -0.3862
  253MOL0     C33309   0.789   6.625  11.474 -0.7849 -0.5817  0.0278
  253MOL0     C33310   0.916   6.621  11.418 -0.6954  0.3100 -0.6201
  253MOL0     O33311   1.180   6.770  11.392  0.6543  0.0436 -0.2514
  253MOL0     C33312   1.302   6.724  11.078 -1.1263  0.1048  1.6458
  253MOL0     C33313   1.411   6.683  10.995  1.2458 -0.3665 -0.7534
  253MOL0     N33314   1.611   6.105  10.566 -0.0620  0.3159 -0.7145
  253MOL0     N33315   1.682   6.113  10.460 -0.1814  0.5704  0.7597
  253MOL0     C33316   0.752   6.600  10.023  0.8656  0.0607 -0.2669
  253MOL0     C33317   0.701   6.714  10.091 -0.0969  0.2721 -0.1156
  253MOL0     C33318   0.618   7.059  10.318 -0.7826  0.8243 -0.1756
  253MOL0     C33319   0.639   7.136  10.437 -0.3504 -0.8363  0.2781
  253MOL0     C33320   0.545   7.213  10.502 -0.2540 -0.1620  0.5274
  253MOL0     C33321   0.414   7.210  10.441  0.9224 -0.0056 -0.3327
  253MOL0     O33322   0.295   7.268  10.475 -0.0503  0.5897 -0.1465
  253MOL0     C33323   0.300   7.339  10.599 -0.0120 -0.1510 -0.4568
  253MOL0     C33324   0.169   7.360  10.674  0.1870  0.2139 -0.2522
  253MOL0     C33325   0.054   7.388  10.568 -0.6339  0.1009  0.5255
  253MOL0     C33326  -0.077   7.372  10.631 -0.9762  0.9007  0.2567
  253MOL0     C33327  -0.186   7.393  10.529 -0.1902 -0.6387 -0.1218
  253MOL0     C33328  -0.271   7.410  10.444 -0.6073  0.2656 -0.6550
  253MOL0     C33329   0.391   7.135  10.326 -0.0496 -0.1675  0.7336
  253MOL0     C33330   0.486   7.058  10.268  0.4811 -0.2636 -0.5329
  253MOL0     H33331   0.967   6.923  10.010  1.9808 -1.1702  2.3629
  253MOL0     H33332   1.038   6.716   9.891  0.9944  1.8226  2.6572
  253MOL0     H33333   1.035   6.397  10.041  0.4015 -1.2460  0.1517
  253MOL0     H33334   1.110   6.522   9.947 -2.8799  1.9971  2.6664
  253MOL0     H33335   1.127   6.397   9.751  0.2928 -1.0942 -1.1863
  253MOL0     H33336   1.008   6.275   9.800  0.0682 -1.9279  3.6143
  253MOL0     H33337   1.252   6.182   9.793 -1.0337  1.0069 -0.2628
  253MOL0     H33338   1.164   6.164   9.936 -1.0012  0.1542 -0.2454
  253MOL0     H33339   1.340   6.399   9.905 -1.4208  0.5009 -1.9581
  253MOL0     H33340   1.257   6.334  10.051 -1.6839  1.2790 -0.7595
  253MOL0     H33341   1.493   6.224   9.903  0.1061  1.6310  0.6541
  253MOL0     H33342   1.380   6.118   9.988 -1.1771 -0.0930  2.0541
  253MOL0     H33343   1.415   6.267  10.198 -0.4485  2.7372 -1.0605
  253MOL0     H33344   1.532   6.357  10.098  0.7597 -0.9425  0.3511
  253MOL0     H33345   1.568   6.090  10.188 -0.9719 -1.1281 -2.6955
  253MOL0     H33346   1.674   6.163  10.076  1.3339 -2.1261  2.5482
  253MOL0     H33347   1.685   6.373  10.248 -0.8695 -0.4562  0.0741
  253MOL0     H33348   1.799   6.247  10.261  0.9104  3.4068  0.8272
  253MOL0     H33349   1.497   6.381  10.439  0.1304  0.4375 -0.3098
  253MOL0     H33350   1.403   6.131  10.718 -1.1489 -1.7725 -3.4981
  253MOL0     H33351   1.337   6.275  10.645  1.2555  0.2049 -1.3364
  253MOL0     H33352   1.610   6.272  10.791 -0.9771 -0.9611 -0.2876
  253MOL0     H33353   1.462   6.282  10.878  2.8677  0.1898  1.9562
  253MOL0     H33354   1.475   6.477  10.650 -0.9445 -6.2927 -1.1234
  253MOL0     H33355   1.384   6.494  10.794  0.8124  1.7775 -1.0328
  253MOL0     H33356   1.605   6.647  10.778 -0.4599  0.6703  0.1510
  253MOL0     H33357   1.691   6.495  10.775  1.7739  4.2647  0.2824
  253MOL0     H33358   1.605   6.531  11.229 -0.4541  0.6370  2.1967
  253MOL0     H33359   1.422   6.621  11.367 -1.9611  2.6098  0.1402
  253MOL0     H33360   0.862   6.724  11.098  0.1688 -3.5592 -1.6714
  253MOL0     H33361   0.652   6.753  11.191 -1.5869 -1.8458  1.2748
  253MOL0     H33362   0.435   6.688  11.251  0.4136 -0.4701  0.4998
  253MOL0     H33363   0.462   6.840  11.337  0.3377  0.4900 -0.9494
  253MOL0     H33364   0.315   6.729  11.521 -1.1020  0.3309  0.2393
  253MOL0     H33365   0.316   6.583  11.413  0.5911  0.0229 -0.5535
  253MOL0     H33366   0.184   6.822  11.292 -2.2429  0.3404 -0.8952
  253MOL0     H33367   0.116   6.784  11.452  0.1008  1.2481 -0.3649
  253MOL0     H33368   0.105   6.618  11.210 -0.3956  0.1328 -0.4038
  253MOL0     H33369   0.068   6.540  11.367 -1.0185 -0.5019 -1.7889
  253MOL0     H33370  -0.119   6.633  11.219 -2.1626  0.9061  1.0212
  253MOL0     H33371  -0.076   6.795  11.266 -2.6258 -0.7178 -3.3255
  253MOL0     H33372  -0.256   6.730  11.393 -0.3553 -0.4255 -2.1320
  253MOL0     H33373  -0.114   6.727  11.505  0.4140 -1.9930  1.6193
  253MOL0     H33374  -0.111   6.460  11.415 -1.5491 -1.9342  1.4188
  253MOL0     H33375  -0.164   6.522  11.572  1.7670 -1.1369 -0.5758
  253MOL0     H33376  -0.352   6.368  11.454  0.4628 -2.1671 -1.5700
  253MOL0     H33377  -0.315   6.475  11.315 -1.0031  0.1008  1.0584
  253MOL0     H33378   0.776   6.596  11.578  0.7673 -0.0101  0.4174
  253MOL0     H33379   0.993   6.570  11.475 -1.4998 -0.7430 -0.4272
  253MOL0     H33380   1.209   6.759  11.034 -0.9618 -3.2664 -1.9570
  253MOL0     H33381   1.397   6.719  10.894 -0.8746  2.8830  0.5384
  253MOL0     H33382   0.685   6.514  10.026  0.0040  0.7320  2.0716
  253MOL0     H33383   0.604   6.715  10.139 -1.8066  2.2067 -3.2121
  253MOL0     H33384   0.738   7.142  10.481 -0.0213  0.4350 -0.5540
  253MOL0     H33385   0.561   7.269  10.594 -1.9976  0.9932  0.1814
  253MOL0     H33386   0.336   7.437  10.566 -0.1666 -0.6890 -2.3572
  253MOL0     H33387   0.377   7.303  10.668  1.1157  4.8759  1.3274
  253MOL0     H33388   0.144   7.277  10.740  3.0936  0.6355  1.5480
  253MOL0     H33389   0.177   7.441  10.746  0.6611 -1.0966  1.2150
  253MOL0     H33390   0.068   7.313  10.490  3.1737 -1.1472  2.1613
  253MOL0     H33391   0.074   7.486  10.523  3.1159 -0.9515 -0.4300
  253MOL0     H33392  -0.095   7.270  10.669  0.0444  0.0926 -1.3287
  253MOL0     H33393  -0.083   7.443  10.714 -2.0157 -0.2148  1.1770
  253MOL0     H33394  -0.351   7.432  10.376 -1.1560 -0.7945 -0.3717
  253MOL0     H33395   0.288   7.118  10.295  0.2163 -0.6681  0.0930
  253MOL0     H33396   0.466   7.006  10.175  1.3077  0.3855 -1.0958
  254MOL0     O33397   1.737   7.617   8.533  0.0048  0.1400  0.3676
  254MOL0     C33398   1.642   7.561   8.598  0.1453  0.2290  0.4436
  254MOL0     O33399   1.630   7.565   8.732 -0.3953 -0.4604  0.3497
  254MOL0     C33400   1.704   7.646   8.818 -0.9350  1.1054 -0.9110
  254MOL0     C33401   1.762   7.766   8.783  0.1628 -0.3321 -0.3000
  254MOL0     C33402   1.833   7.839   8.886 -0.3526 -0.7037  1.0210
  254MOL0     C33403   1.842   7.783   9.012 -0.1694 -0.2171 -0.1642
  254MOL0     O33404   1.894   7.871   9.103 -0.8806  0.7977 -0.2640
  254MOL0     C33405   1.922   7.811   9.240  0.2229 -0.7121 -0.8414
  254MOL0     C33406   1.998   7.907   9.330  0.1927  0.1539 -0.0359
  254MOL0     C33407   2.142   7.898   9.293  0.5923  0.4449  0.4762
  254MOL0     C33408   2.225   8.000   9.369 -0.9065  0.2618 -0.4124
  254MOL0     C33409   2.366   8.015   9.311  0.0096  0.7043  0.6685
  254MOL0     C33410   2.373   8.109   9.190 -0.7667  0.1132  0.4437
  254MOL0     C33411   2.520   8.148   9.165 -0.1361 -0.4588 -0.7690
  254MOL0     C33412   2.549   8.259   9.072  0.2490  0.3269 -0.3103
  254MOL0     N33413   2.692   8.271   9.054 -0.6649  0.4917 -0.2448
  254MOL0     C33414   2.795   8.203   9.119 -0.5105 -0.1823 -0.5904
  254MOL0     C33415   2.909   8.249   9.061 -0.8645  0.6023 -0.2482
  254MOL0     C33416   3.062   8.231   9.082 -0.3274 -0.3714 -0.6772
  254MOL0     C33417   3.119   8.353   9.165  0.4143  0.2841 -0.1489
  254MOL0     C33418   3.131   8.478   9.079 -0.9562  0.1517 -0.2074
  254MOL0     C33419   3.157   8.590   9.171 -0.4059  0.2410  0.6199
  254MOL0     O33420   3.193   8.708   9.090 -0.5293 -0.2378  0.0540
  254MOL0     C33421   3.314   8.771   9.133  1.1777 -0.4760  0.3182
  254MOL0     C33422   3.326   8.908   9.146 -0.3804  0.3001  0.8394
  254MOL0     C33423   3.440   8.971   9.191 -0.2438  1.0298  0.3776
  254MOL0     C33424   3.549   8.895   9.221  0.8004  0.0992  0.5265
  254MOL0     C33425   3.677   8.964   9.262 -0.5584  0.5953  0.3662
  254MOL0     O33426   3.761   8.888   9.339  0.2660 -1.1376 -0.0994
  254MOL0     C33427   3.885   8.946   9.361  0.1849  0.5183 -0.0303
  254MOL0     C33428   3.909   9.013   9.477  0.5337 -0.7196 -0.0141
  254MOL0     C33429   4.038   9.071   9.490 -0.4329 -0.0661 -0.3566
  254MOL0     C33430   4.150   9.054   9.405  0.4006  0.3176 -0.0743
  254MOL0     O33431   4.269   9.120   9.415 -0.0541 -0.1424  0.0581
  254MOL0     C33432   4.314   9.146   9.546 -0.0914  0.3929 -0.2375
  254MOL0     C33433   4.459   9.175   9.551  1.0507  0.2706 -0.0020
  254MOL0     C33434   4.528   9.284   9.466 -0.0839  0.3473 -0.1102
  254MOL0     C33435   4.483   9.428   9.478  0.2384  0.2910 -0.1877
  254MOL0     C33436   4.541   9.531   9.382 -0.5364 -0.1837  0.2671
  254MOL0     C33437   4.524   9.679   9.429 -0.3573 -0.2442  0.6075
  254MOL0     C33438   4.556   9.768   9.306  0.1328  1.3813  0.2026
  254MOL0     C33439   4.523   9.909   9.350  0.0030  0.1013 -0.0839
  254MOL0    Cl33440   4.600  10.033   9.239  0.7464  0.4603  0.3348
  254MOL0     C33441   4.117   8.988   9.289  0.2184 -1.2325 -0.6172
  254MOL0     C33442   3.991   8.928   9.267  0.2060  0.2031  0.0348
  254MOL0     O33443   3.690   9.083   9.226 -0.5116  0.5650  0.1888
  254MOL0     C33444   3.540   8.757   9.217  0.7218 -0.3701  0.3602
  254MOL0     C33445   3.430   8.701   9.163 -0.4563 -0.2476  0.8965
  254MOL0     N33446   2.882   8.326   8.950 -0.0020 -0.7002  0.5129
  254MOL0     N33447   2.759   8.331   8.948 -0.1875 -0.0842  0.9124
  254MOL0     C33448   1.791   7.657   9.041  0.6837  0.0171  0.4619
  254MOL0     C33449   1.716   7.588   8.941 -0.2286  0.4355  0.2280
  254MOL0     C33450   1.541   7.486   8.516  0.2456  0.0439 -1.2379
  254MOL0     C33451   1.529   7.499   8.377  0.4595 -0.1509  1.0189
  254MOL0     C33452   1.447   7.423   8.297 -0.5741 -1.3121  0.1474
  254MOL0     C33453   1.378   7.315   8.355  0.3695  0.3611 -0.3487
  254MOL0     O33454   1.304   7.230   8.275  0.0188 -0.2624  0.3603
  254MOL0     C33455   1.161   7.238   8.272  0.4158  0.1423 -0.4324
  254MOL0     C33456   1.083   7.106   8.307  0.5898 -0.8133 -0.3243
  254MOL0     C33457   1.133   7.034   8.433 -0.2560 -0.7857  0.6541
  254MOL0     C33458   1.050   7.069   8.558 -0.1150 -0.0051  0.2562
  254MOL0     C33459   1.097   7.193   8.616  0.5911 -0.1486  0.3170
  254MOL0     C33460   1.116   7.294   8.678 -0.7607  0.2229  0.7075
  254MOL0     C33461   1.385   7.298   8.492  0.5153  0.1262  0.2413
  254MOL0     C33462   1.469   7.378   8.570  0.7390  0.4449 -0.2054
  254MOL0     H33463   1.741   7.794   8.680  1.0284 -4.4124 -1.7778
  254MOL0     H33464   1.885   7.934   8.875 -2.3987  0.1935 -2.0743
  254MOL0     H33465   1.974   7.715   9.234  1.8303  0.2017 -3.1229
  254MOL0     H33466   1.829   7.792   9.294  0.3683 -0.8688 -0.6447
  254MOL0     H33467   1.992   7.881   9.436 -0.0091 -4.0654 -0.8767
  254MOL0     H33468   1.961   8.009   9.320 -3.6276 -1.0100  0.4377
  254MOL0     H33469   2.134   7.924   9.187 -0.7661 -1.8420 -0.0697
  254MOL0     H33470   2.179   7.797   9.314 -1.6786 -0.2453  1.4689
  254MOL0     H33471   2.176   8.098   9.377 -2.5150 -0.6021  0.9295
  254MOL0     H33472   2.221   7.970   9.475 -2.1839  0.3769 -0.4111
  254MOL0     H33473   2.405   7.917   9.284 -1.7507 -0.6966  2.8498
  254MOL0     H33474   2.437   8.051   9.386  4.5989 -1.7241 -2.1114
  254MOL0     H33475   2.306   8.192   9.212 -3.0943  0.0060 -4.8130
  254MOL0     H33476   2.346   8.053   9.100  3.1393 -1.0369 -0.2278
  254MOL0     H33477   2.553   8.187   9.262 -0.5886 -2.5998  0.3059
  254MOL0     H33478   2.581   8.059   9.144  1.3110  0.3063  0.0152
  254MOL0     H33479   2.520   8.360   9.103 -0.6011  0.3550 -1.1171
  254MOL0     H33480   2.510   8.226   8.975  1.0736 -0.7753 -0.2899
  254MOL0     H33481   2.784   8.126   9.194  0.4486 -0.3491 -0.6088
  254MOL0     H33482   3.123   8.231   8.991 -1.3782 -0.8521 -1.3922
  254MOL0     H33483   3.077   8.138   9.138 -2.7443 -2.5543 -3.3451
  254MOL0     H33484   3.225   8.333   9.183  0.8630  2.2675 -0.4330
  254MOL0     H33485   3.067   8.371   9.259  2.3767  2.4157  0.6144
  254MOL0     H33486   3.204   8.460   8.999 -1.0586 -0.2705 -0.2054
  254MOL0     H33487   3.039   8.506   9.026 -1.3102  1.1047  0.8452
  254MOL0     H33488   3.228   8.565   9.251 -0.3487 -0.0861  0.4673
  254MOL0     H33489   3.060   8.610   9.217  0.3274  0.4383  2.1391
  254MOL0     H33490   3.243   8.972   9.118 -0.2688 -0.1841 -0.6654
  254MOL0     H33491   3.441   9.076   9.219  1.3242  0.3624  3.1065
  254MOL0     H33492   3.834   9.048   9.547  0.1698  0.6818 -1.0520
  254MOL0     H33493   4.051   9.126   9.582 -2.1031  0.7981 -0.5979
  254MOL0     H33494   4.296   9.051   9.597 -1.0917 -0.7900 -2.6071
  254MOL0     H33495   4.254   9.222   9.595  1.1375 -0.9955  3.8196
  254MOL0     H33496   4.497   9.079   9.515 -2.2807 -1.1588 -0.0570
  254MOL0     H33497   4.486   9.177   9.657  0.6172 -2.2287  0.2179
  254MOL0     H33498   4.508   9.253   9.363 -0.1822 -0.3338  0.1044
  254MOL0     H33499   4.637   9.275   9.468  0.0095  0.0620 -2.7625
  254MOL0     H33500   4.375   9.434   9.461  0.3046  0.8486 -0.4511
  254MOL0     H33501   4.486   9.458   9.583 -0.0917  3.3244 -0.9548
  254MOL0     H33502   4.495   9.515   9.284  0.7600 -1.4494 -0.1758
  254MOL0     H33503   4.648   9.519   9.365  0.0063  3.8395 -0.0849
  254MOL0     H33504   4.599   9.698   9.507 -0.9133 -1.5923  1.5039
  254MOL0     H33505   4.422   9.695   9.465  0.0650  0.0796  1.7312
  254MOL0     H33506   4.661   9.742   9.289 -0.4668 -0.7439 -0.5843
  254MOL0     H33507   4.505   9.732   9.216  0.1810 -1.8629  1.3217
  254MOL0     H33508   4.568   9.912   9.450 -1.3962 -0.3457  0.5925
  254MOL0     H33509   4.413   9.914   9.351 -0.2276 -2.0429 -2.8646
  254MOL0     H33510   4.188   8.987   9.207 -1.1295 -1.5316 -1.8168
  254MOL0     H33511   3.965   8.871   9.179  0.0194  0.6963 -0.2327
  254MOL0     H33512   3.631   8.700   9.233  1.7624  1.0707 -0.2215
  254MOL0     H33513   3.421   8.594   9.148 -2.9513 -0.2372  1.8305
  254MOL0     H33514   1.789   7.617   9.142  2.3053  1.2470  1.0274
  254MOL0     H33515   1.665   7.495   8.962 -0.8187  0.3459 -1.4238
  254MOL0     H33516   1.582   7.585   8.336 -3.1357  2.0018  0.4265
  254MOL0     H33517   1.431   7.441   8.191 -1.2917 -4.0262 -0.2781
  254MOL0     H33518   1.151   7.283   8.173  0.0452 -0.5585 -0.7226
  254MOL0     H33519   1.116   7.321   8.328 -1.2846 -0.4768 -0.8324
  254MOL0     H33520   0.976   7.127   8.319  0.1214 -3.6205  1.4809
  254MOL0     H33521   1.093   7.035   8.223  0.4237 -0.4183 -0.6803
  254MOL0     H33522   1.239   7.055   8.447 -0.4000  0.0294  0.5634
  254MOL0     H33523   1.146   6.928   8.408  0.8550 -0.3606 -0.7073
  254MOL0     H33524   0.945   7.053   8.534 -0.7065  2.2544  1.1195
  254MOL0     H33525   1.074   6.987   8.627  1.7780 -1.8506 -2.3854
  254MOL0     H33526   1.134   7.391   8.719  2.0331  2.0769 -4.0865
  254MOL0     H33527   1.325   7.221   8.538  0.2129  0.7859  0.9756
  254MOL0     H33528   1.483   7.339   8.671  0.0711  0.6887 -0.0193
  255MOL0     O33529   4.814   0.358   9.735 -0.5943  0.2861  0.1995
  255MOL0     C33530   4.800   0.257   9.804 -0.7352  0.9308  0.3861
  255MOL0     O33531   4.752   0.138   9.758 -0.1145  1.0961 -0.1732
  255MOL0     C33532   4.668   0.137   9.649 -0.6706  0.9120  0.3609
  255MOL0     C33533   4.682   0.209   9.525 -0.0500 -0.1419  0.3415
  255MOL0     C33534   4.580   0.215   9.430  0.7488 -0.1551 -0.3569
  255MOL0     C33535   4.467   0.145   9.450 -0.3262 -0.3889 -0.4429
  255MOL0     O33536   4.363   0.145   9.365 -0.0898 -0.1747  0.4014
  255MOL0     C33537   4.377   0.095   9.232 -1.1643 -0.4852  0.4874
  255MOL0     C33538   4.275   0.166   9.132 -0.4683 -1.5377 -0.6012
  255MOL0     C33539   4.326   0.312   9.107 -0.1968 -0.0813 -0.3358
  255MOL0     C33540   4.443   0.316   9.001  0.5098  0.0572 -0.6531
  255MOL0     C33541   4.508   0.460   8.984  0.5873 -0.0848 -0.5023
  255MOL0     C33542   4.595   0.476   8.859  0.7797 -0.2069  0.2792
  255MOL0     C33543   4.703   0.368   8.852 -0.4131  0.1709 -0.1188
  255MOL0     C33544   4.781   0.388   8.718 -0.0894  0.1941 -0.5043
  255MOL0     N33545   4.883   0.285   8.709  0.1555  0.3661  0.6492
  255MOL0     C33546   5.011   0.302   8.758 -0.5698  0.2152  0.2962
  255MOL0     C33547   5.078   0.186   8.730  0.5973  0.6720 -0.5627
  255MOL0     C33548   5.224   0.176   8.733 -1.0049 -0.0373 -0.1888
  255MOL0     C33549   5.261   0.135   8.869  0.2669  1.0021  0.8815
  255MOL0     C33550   5.411   0.140   8.888 -0.2846  0.9129 -0.3320
  255MOL0     C33551   5.455   0.038   8.996 -0.5561  0.0489 -0.6811
  255MOL0     O33552   5.597   0.057   9.046 -0.3675  0.2625  0.7919
  255MOL0     C33553   5.680  -0.053   9.034  0.7205 -0.3627  0.5982
  255MOL0     C33554   5.812  -0.022   9.025  0.1664  0.1820  0.5878
  255MOL0     C33555   5.913  -0.113   9.046  0.3453 -0.2795  0.0262
  255MOL0     C33556   5.885  -0.250   9.064 -0.0760  0.2642  0.7462
  255MOL0     C33557   5.989  -0.348   9.086  0.5822 -0.8819  0.5082
  255MOL0     O33558   5.970  -0.473   9.128  0.2874 -1.0881  0.2458
  255MOL0     C33559   6.083  -0.529   9.182 -1.0210 -0.1353  0.4518
  255MOL0     C33560   6.118  -0.656   9.129 -0.0265 -1.3159  0.9985
  255MOL0     C33561   6.221  -0.733   9.180  0.4602  0.7150 -0.0389
  255MOL0     C33562   6.301  -0.679   9.291  0.7678 -0.0767  0.2017
  255MOL0     O33563   6.403  -0.760   9.340 -0.3137 -0.5648  0.0462
  255MOL0     C33564   6.523  -0.696   9.395  0.4379 -0.7670 -1.0684
  255MOL0     C33565   6.645  -0.782   9.362  0.1263  0.0631  0.0745
  255MOL0     C33566   6.673  -0.900   9.457  0.1822 -0.2828  0.2081
  255MOL0     C33567   6.696  -0.855   9.602  0.0613 -0.5848  0.0471
  255MOL0     C33568   6.793  -0.955   9.671  1.0715 -0.1093  0.5574
  255MOL0     C33569   6.772  -0.963   9.820 -0.0172 -0.0855  1.4763
  255MOL0     C33570   6.847  -1.098   9.863  0.0118 -0.1474  0.2848
  255MOL0     C33571   6.832  -1.132  10.005  0.9843 -0.2169  0.5991
  255MOL0    Cl33572   6.847  -0.998  10.123 -0.1355 -0.1384  0.3258
  255MOL0     C33573   6.272  -0.545   9.339 -0.1725 -0.9931  0.1314
  255MOL0     C33574   6.162  -0.473   9.286 -0.7153  0.0918 -0.4461
  255MOL0     O33575   6.098  -0.304   9.057 -0.9127 -0.0002 -0.4591
  255MOL0     C33576   5.749  -0.289   9.073  0.3788 -0.6996 -0.3436
  255MOL0     C33577   5.644  -0.193   9.062 -0.0569 -0.8826 -0.2570
  255MOL0     N33578   4.988   0.103   8.663  0.6049  0.2635  0.0570
  255MOL0     N33579   4.875   0.164   8.652 -0.2971 -0.3066  0.0428
  255MOL0     C33580   4.451   0.072   9.564  0.1484 -0.0303 -0.4097
  255MOL0     C33581   4.549   0.063   9.671  0.9255 -0.3017  0.3188
  255MOL0     C33582   4.861   0.258   9.936  0.2181  0.4905  0.4987
  255MOL0     C33583   4.847   0.151  10.022  0.1122  0.4030  0.1873
  255MOL0     C33584   4.895   0.148  10.143  0.2519  0.2432  0.2954
  255MOL0     C33585   4.978   0.247  10.196  0.1306  0.5071  0.1860
  255MOL0     O33586   5.030   0.236  10.323 -1.1258 -0.2405  0.3105
  255MOL0     C33587   4.975   0.148  10.424  0.7092  0.6365 -0.5981
  255MOL0     C33588   4.842   0.186  10.474 -0.2578  0.0058 -0.7573
  255MOL0     C33589   4.856   0.283  10.594 -0.0228  0.0598  0.2492
  255MOL0     C33590   4.723   0.318  10.636  0.8779 -1.0046 -0.5063
  255MOL0     C33591   4.745   0.429  10.733 -0.0230 -0.4759  0.3386
  255MOL0     C33592   4.780   0.514  10.820  0.6396  0.8745  0.4459
  255MOL0     C33593   4.987   0.368  10.119  0.5913 -0.1269 -0.6947
  255MOL0     C33594   4.940   0.369   9.988 -0.3745  0.4594  0.7436
  255MOL0     H33595   4.772   0.262   9.497  0.3617 -1.7185 -1.5556
  255MOL0     H33596   4.607   0.273   9.343  0.6372  0.5914  0.1034
  255MOL0     H33597   4.356  -0.012   9.227  0.0799 -0.6974 -0.7210
  255MOL0     H33598   4.481   0.104   9.200 -1.8173 -0.6611 -1.8953
  255MOL0     H33599   4.181   0.164   9.188  0.7350  0.0110  1.6385
  255MOL0     H33600   4.267   0.109   9.039 -2.1833  0.6841 -1.9268
  255MOL0     H33601   4.353   0.350   9.205 -2.1439 -0.4250  0.3857
  255MOL0     H33602   4.249   0.379   9.067 -2.2410 -1.5429  0.9706
  255MOL0     H33603   4.516   0.241   9.033 -0.7729  0.3009  3.4287
  255MOL0     H33604   4.404   0.282   8.905 -1.8565  2.0594 -0.4872
  255MOL0     H33605   4.575   0.481   9.068 -2.1430  0.7150  1.6499
  255MOL0     H33606   4.432   0.537   8.966 -2.5336 -2.5523  1.1483
  255MOL0     H33607   4.623   0.581   8.848 -3.0524  1.2069  2.1334
  255MOL0     H33608   4.520   0.459   8.781  0.4927  2.3876 -0.0903
  255MOL0     H33609   4.766   0.363   8.941 -0.6674 -2.4127 -0.0000
  255MOL0     H33610   4.649   0.273   8.863 -2.3624  1.3664  1.4327
  255MOL0     H33611   4.820   0.489   8.703  2.3387 -0.9910 -3.2648
  255MOL0     H33612   4.699   0.374   8.647 -0.5862 -1.0812  0.2842
  255MOL0     H33613   5.053   0.393   8.800  2.6223  0.3698 -2.7355
  255MOL0     H33614   5.282   0.266   8.712  1.0598 -0.1221  4.0475
  255MOL0     H33615   5.239   0.097   8.658  2.3756  1.6445 -1.4943
  255MOL0     H33616   5.243   0.027   8.880  0.4788  0.9291  0.5349
  255MOL0     H33617   5.213   0.190   8.950 -2.4033  0.8948 -0.5272
  255MOL0     H33618   5.458   0.118   8.791 -1.6124 -1.0010 -0.6082
  255MOL0     H33619   5.444   0.237   8.925 -0.7704  0.7313  0.6062
  255MOL0     H33620   5.455  -0.060   8.948  0.2624 -0.4740  0.3394
  255MOL0     H33621   5.385   0.026   9.079 -1.3294  0.1338 -1.3145
  255MOL0     H33622   5.832   0.085   9.020 -1.3310  0.6565  2.9754
  255MOL0     H33623   6.008  -0.060   9.041 -0.7446  2.4963  4.0877
  255MOL0     H33624   6.059  -0.700   9.049  1.7021 -1.1870 -0.4260
  255MOL0     H33625   6.251  -0.833   9.152 -0.7632 -0.1120  1.4145
  255MOL0     H33626   6.512  -0.681   9.503 -0.1711 -1.4789 -1.0193
  255MOL0     H33627   6.529  -0.603   9.339 -2.9335  0.2517 -0.0136
  255MOL0     H33628   6.737  -0.723   9.360  1.6871 -2.0796  2.5019
  255MOL0     H33629   6.624  -0.819   9.261  0.4393 -0.3759  0.1660
  255MOL0     H33630   6.766  -0.945   9.420  0.9861  2.1188 -0.9037
  255MOL0     H33631   6.608  -0.986   9.446  0.2045 -0.0318 -2.6196
  255MOL0     H33632   6.718  -0.748   9.611 -1.6668  0.0205 -2.0292
  255MOL0     H33633   6.599  -0.868   9.649  0.5208  0.5569  1.3712
  255MOL0     H33634   6.897  -0.936   9.640  0.7372 -1.6468 -1.8045
  255MOL0     H33635   6.759  -1.048   9.625  0.2463  1.5772 -2.5146
  255MOL0     H33636   6.667  -0.978   9.850 -0.5247  0.5209  0.0874
  255MOL0     H33637   6.816  -0.877   9.871  0.8898 -0.3849  1.2185
  255MOL0     H33638   6.802  -1.186   9.816 -2.3769 -0.3795  2.7675
  255MOL0     H33639   6.950  -1.076   9.833 -0.0824 -2.4948 -2.1125
  255MOL0     H33640   6.912  -1.203  10.028 -1.8954 -3.3050  2.0182
  255MOL0     H33641   6.730  -1.168  10.027  0.7732  0.0598  0.0844
  255MOL0     H33642   6.327  -0.509   9.426 -0.5867  0.3692 -0.1493
  255MOL0     H33643   6.137  -0.373   9.319 -1.8089  0.1739 -1.4583
  255MOL0     H33644   5.714  -0.390   9.089  0.2258 -0.7075 -0.7139
  255MOL0     H33645   5.542  -0.226   9.074 -0.6114  0.5566 -0.8204
  255MOL0     H33646   4.364   0.006   9.566  0.8106 -0.9458  2.0643
  255MOL0     H33647   4.548  -0.006   9.755 -0.6447 -1.0048 -0.2454
  255MOL0     H33648   4.802   0.061   9.980  1.1835 -0.6310  1.1629
  255MOL0     H33649   4.861   0.065  10.204  1.8753 -0.4204  0.3608
  255MOL0     H33650   5.028   0.132  10.518 -0.4265  2.3350  0.3867
  255MOL0     H33651   4.959   0.049  10.382 -2.9983  0.3840  0.9471
  255MOL0     H33652   4.786   0.236  10.395  1.1589 -1.8390 -3.0542
  255MOL0     H33653   4.784   0.098  10.505 -1.4109  1.1839  0.5702
  255MOL0     H33654   4.904   0.370  10.550  0.3786 -0.0065  0.5479
  255MOL0     H33655   4.911   0.233  10.674 -0.2297 -2.1523 -0.9191
  255MOL0     H33656   4.661   0.357  10.554  0.5654  0.1636  0.2591
  255MOL0     H33657   4.678   0.237  10.693 -0.8332 -0.7027 -1.3499
  255MOL0     H33658   4.815   0.570  10.904  0.2307  1.0856  0.4765
  255MOL0     H33659   5.056   0.444  10.153  0.9051  0.3257 -2.2686
  255MOL0     H33660   4.949   0.454   9.921 -2.3021  1.2737  1.4573
  256MOL0     O33661   9.005   3.540   7.578  0.4880 -0.1480 -0.0385
  256MOL0     C33662   8.925   3.506   7.667 -0.1657 -0.5805  0.7832
  256MOL0     O33663   8.796   3.472   7.650 -0.6014  0.1372  0.3654
  256MOL0     C33664   8.726   3.476   7.531  0.9935 -0.5916  0.2844
  256MOL0     C33665   8.777   3.533   7.412  0.5676  0.7565 -0.1971
  256MOL0     C33666   8.686   3.538   7.298  0.1002  0.0464  0.8839
  256MOL0     C33667   8.567   3.480   7.297  0.4522 -0.2973  0.2428
  256MOL0     O33668   8.490   3.468   7.185 -0.0896 -0.9668  0.0516
  256MOL0     C33669   8.541   3.446   7.053  0.2333  0.1915 -0.6313
  256MOL0     C33670   8.427   3.445   6.954 -0.2124  0.1441 -0.4691
  256MOL0     C33671   8.484   3.457   6.806  0.3499  0.4186  0.1877
  256MOL0     C33672   8.371   3.412   6.719 -0.6325  0.9364 -0.5328
  256MOL0     C33673   8.396   3.485   6.584  0.5778  0.3822  0.8403
  256MOL0     C33674   8.294   3.476   6.473 -0.6272 -0.0804  0.2802
  256MOL0     C33675   8.351   3.509   6.337 -0.0921 -0.0142 -0.7875
  256MOL0     C33676   8.246   3.519   6.235 -0.2195  0.1142 -0.8455
  256MOL0     N33677   8.296   3.582   6.110  0.0426 -0.8471  0.2521
  256MOL0     C33678   8.364   3.703   6.104  0.0694 -0.0931 -0.6783
  256MOL0     C33679   8.417   3.722   5.984 -0.3776  0.9948 -0.6233
  256MOL0     C33680   8.491   3.843   5.944  0.3829  0.8076  0.1710
  256MOL0     C33681   8.406   3.953   5.880 -1.4980 -0.1487  0.7443
  256MOL0     C33682   8.359   3.916   5.736 -0.9444 -0.3034  0.2285
  256MOL0     C33683   8.472   3.862   5.637 -0.2379  0.3710  0.4570
  256MOL0     O33684   8.592   3.939   5.657 -0.4205  0.1211  0.5543
  256MOL0     C33685   8.604   4.062   5.587 -0.6870  0.9882 -0.0458
  256MOL0     C33686   8.603   4.071   5.448  0.5632 -0.4744  0.8637
  256MOL0     C33687   8.646   4.183   5.376 -0.2186  0.5722  0.4550
  256MOL0     C33688   8.692   4.287   5.456  0.0605 -0.4699  1.0365
  256MOL0     C33689   8.741   4.419   5.400 -0.4068  0.4731 -0.1983
  256MOL0     O33690   8.762   4.528   5.483 -0.4410  0.7168  0.4192
  256MOL0     C33691   8.813   4.638   5.435  0.9847 -0.3533 -0.6850
  256MOL0     C33692   8.930   4.686   5.491 -0.1609 -0.8595 -0.5394
  256MOL0     C33693   8.979   4.813   5.448 -0.3698  0.2633  0.2521
  256MOL0     C33694   8.900   4.891   5.353 -0.2738  0.0832 -0.6764
  256MOL0     O33695   8.949   5.006   5.296  0.4029  1.3831  0.1172
  256MOL0     C33696   9.041   5.090   5.359 -0.5812 -0.1765 -0.4664
  256MOL0     C33697   9.169   5.062   5.295 -0.0307  0.3944  0.9504
  256MOL0     C33698   9.286   5.147   5.348  0.7737  0.6536  0.0698
  256MOL0     C33699   9.408   5.080   5.274 -0.0914 -0.7069 -0.2904
  256MOL0     C33700   9.527   5.149   5.336 -0.0285 -0.4286 -0.5438
  256MOL0     C33701   9.651   5.063   5.300 -0.1587 -0.1105  0.1465
  256MOL0     C33702   9.773   5.145   5.274 -0.5537 -0.3866 -0.1634
  256MOL0     C33703   9.766   5.222   5.146  0.4204  0.6422  0.1425
  256MOL0    Cl33704   9.703   5.107   5.016 -0.4682  0.0765 -0.2792
  256MOL0     C33705   8.777   4.846   5.301  0.1763  0.8673 -0.4019
  256MOL0     C33706   8.727   4.720   5.356  0.5403 -0.6807  0.3808
  256MOL0     O33707   8.748   4.426   5.278 -0.7642  0.5714  0.0069
  256MOL0     C33708   8.685   4.280   5.594 -0.2497 -0.7790 -0.1693
  256MOL0     C33709   8.633   4.170   5.658 -0.0886 -0.5672 -0.3516
  256MOL0     N33710   8.391   3.605   5.919  0.3171  0.5685 -0.5277
  256MOL0     N33711   8.317   3.518   5.995 -0.8710 -0.1974 -0.2760
  256MOL0     C33712   8.524   3.416   7.408  0.5227  0.0782 -1.1292
  256MOL0     C33713   8.602   3.415   7.526 -0.5249 -0.6880 -0.5423
  256MOL0     C33714   8.982   3.503   7.808  0.2213 -0.7591  0.1127
  256MOL0     C33715   8.933   3.435   7.918  0.5756  0.3352 -1.1970
  256MOL0     C33716   8.997   3.451   8.048  0.6951  0.2554  0.9394
  256MOL0     C33717   9.117   3.525   8.056  0.0406 -0.2907  0.3510
  256MOL0     O33718   9.169   3.521   8.180  0.5227  0.1389  0.5778
  256MOL0     C33719   9.307   3.500   8.178 -0.5999 -0.6027 -0.0945
  256MOL0     C33720   9.368   3.497   8.318  0.9544 -0.6422  0.0945
  256MOL0     C33721   9.517   3.473   8.303 -1.3865  0.6868  0.1184
  256MOL0     C33722   9.575   3.471   8.449 -0.2139  0.3100  0.6217
  256MOL0     C33723   9.717   3.448   8.445 -0.2696 -1.3452 -0.4292
  256MOL0     C33724   9.831   3.417   8.419  0.1388  0.6171  0.5950
  256MOL0     C33725   9.175   3.580   7.943  0.8854  0.1220  0.1602
  256MOL0     C33726   9.107   3.570   7.818  0.5698  0.5991  0.4010
  256MOL0     H33727   8.876   3.574   7.396 -0.3845  2.4019 -2.5668
  256MOL0     H33728   8.725   3.578   7.205  1.5620 -0.1384  1.3948
  256MOL0     H33729   8.600   3.355   7.063 -4.2093 -3.2392 -2.1334
  256MOL0     H33730   8.600   3.532   7.020  0.0503  0.4050 -0.4133
  256MOL0     H33731   8.349   3.520   6.973 -0.3157  0.1598 -0.9535
  256MOL0     H33732   8.386   3.344   6.965  1.8236 -1.1579 -3.4824
  256MOL0     H33733   8.570   3.389   6.803  0.3853  0.2254  3.1531
  256MOL0     H33734   8.519   3.557   6.777 -0.7141  1.2536  1.6550
  256MOL0     H33735   8.387   3.304   6.723  0.4698  1.1216  0.8451
  256MOL0     H33736   8.276   3.439   6.766 -0.9932 -0.3123 -0.5188
  256MOL0     H33737   8.489   3.450   6.537 -1.3488 -1.4354 -2.0008
  256MOL0     H33738   8.406   3.594   6.588  1.6890  0.3471 -0.3576
  256MOL0     H33739   8.202   3.531   6.497 -0.8821  0.3335 -1.4979
  256MOL0     H33740   8.259   3.373   6.471  0.7279 -0.5438 -1.5621
  256MOL0     H33741   8.413   3.599   6.344  0.2168 -0.0891 -2.1784
  256MOL0     H33742   8.420   3.427   6.314  1.6737  1.0557  0.3867
  256MOL0     H33743   8.166   3.589   6.262  0.9322  0.9748  0.4833
  256MOL0     H33744   8.205   3.419   6.218 -0.6443  0.5093 -2.2933
  256MOL0     H33745   8.369   3.779   6.180  0.4320  0.7302 -1.4997
  256MOL0     H33746   8.576   3.828   5.877 -0.9861 -0.4855 -1.3690
  256MOL0     H33747   8.526   3.880   6.042 -1.0539  3.3974 -0.1901
  256MOL0     H33748   8.461   4.044   5.855  0.2050 -2.1451 -4.0735
  256MOL0     H33749   8.323   3.989   5.941 -2.7314 -0.5018 -0.6337
  256MOL0     H33750   8.280   3.843   5.756 -1.4949  0.0190 -0.7445
  256MOL0     H33751   8.299   3.992   5.686 -0.2553 -0.9505 -1.6391
  256MOL0     H33752   8.439   3.872   5.533  1.3504 -0.1588 -0.1285
  256MOL0     H33753   8.496   3.757   5.657  2.4624  1.0211  1.1339
  256MOL0     H33754   8.580   3.979   5.395 -0.1602  1.9795 -3.5296
  256MOL0     H33755   8.643   4.187   5.267 -1.1869  0.7629  0.4762
  256MOL0     H33756   8.987   4.624   5.559 -3.6116 -1.0556  2.5098
  256MOL0     H33757   9.072   4.855   5.485  0.0136  1.6104 -1.9798
  256MOL0     H33758   9.043   5.075   5.467 -1.1637 -0.0324 -0.4315
  256MOL0     H33759   9.019   5.197   5.349 -0.1008 -0.1394 -1.1621
  256MOL0     H33760   9.161   5.075   5.186 -0.4292  0.8006  1.0272
  256MOL0     H33761   9.192   4.957   5.315  0.8979  0.7322  1.7063
  256MOL0     H33762   9.287   5.141   5.458  0.9736  0.8566  0.0794
  256MOL0     H33763   9.285   5.252   5.319  2.2362  0.6867  0.0776
  256MOL0     H33764   9.414   4.975   5.303 -0.4173 -1.0087 -1.3001
  256MOL0     H33765   9.408   5.096   5.166 -0.6134  3.1752  0.1248
  256MOL0     H33766   9.514   5.172   5.442  0.2914  2.3017 -1.0247
  256MOL0     H33767   9.536   5.245   5.284 -2.1601  0.5553  0.7091
  256MOL0     H33768   9.626   4.996   5.217 -0.5529  0.0915  0.1039
  256MOL0     H33769   9.666   4.995   5.385 -2.0825  0.1263  0.7292
  256MOL0     H33770   9.794   5.203   5.364 -2.9832 -0.6822  0.6679
  256MOL0     H33771   9.856   5.073   5.269  1.1909  1.6354 -2.2725
  256MOL0     H33772   9.869   5.247   5.118  0.0943  1.9327  0.0169
  256MOL0     H33773   9.694   5.304   5.155  0.9755  0.9867  1.9414
  256MOL0     H33774   8.720   4.906   5.231 -5.0165  1.4585  3.6637
  256MOL0     H33775   8.640   4.667   5.319  1.7243 -2.2662 -0.2675
  256MOL0     H33776   8.750   4.347   5.650  1.8340 -0.5742 -2.6900
  256MOL0     H33777   8.630   4.166   5.767 -1.2240 -1.8418 -0.4016
  256MOL0     H33778   8.434   3.355   7.407  0.3107  0.3416  0.2405
  256MOL0     H33779   8.559   3.364   7.612  1.3226  0.1237  0.9496
  256MOL0     H33780   8.849   3.366   7.914  0.9580 -0.0647 -3.1111
  256MOL0     H33781   8.958   3.388   8.128 -0.6748  0.7811  0.7082
  256MOL0     H33782   9.363   3.575   8.121 -2.7272  0.6335 -0.6704
  256MOL0     H33783   9.311   3.401   8.130 -3.1669  0.0613 -1.9025
  256MOL0     H33784   9.339   3.587   8.373  1.8766  0.5772 -1.3513
  256MOL0     H33785   9.317   3.422   8.380 -1.0252  0.4306 -0.1230
  256MOL0     H33786   9.561   3.555   8.247  1.2916 -0.9105 -0.3003
  256MOL0     H33787   9.525   3.380   8.246 -0.7030  0.0556  1.2123
  256MOL0     H33788   9.549   3.562   8.503 -0.9284  0.8595 -0.6127
  256MOL0     H33789   9.522   3.397   8.510  1.0949 -2.8819 -1.8058
  256MOL0     H33790   9.933   3.385   8.427  0.5964  1.2436 -1.9656
  256MOL0     H33791   9.267   3.637   7.950 -0.5656  2.3818  3.4369
  256MOL0     H33792   9.138   3.635   7.737  0.7188 -2.0778 -1.8047
  257MOL0     O33793  10.963   7.704   9.871 -0.0449  0.5204  0.2467
  257MOL0     C33794  10.861   7.706   9.938  0.5980 -0.4322 -0.5587
  257MOL0     O33795  10.794   7.813   9.984 -0.1269  0.1268  0.0307
  257MOL0     C33796  10.861   7.935  10.000 -1.2009 -0.1453 -0.5246
  257MOL0     C33797  10.825   8.043   9.922  0.1308 -0.2235  0.6163
  257MOL0     C33798  10.880   8.170   9.953 -0.3472 -0.5977 -0.2876
  257MOL0     C33799  10.987   8.192  10.038  0.2849 -0.6082 -0.2251
  257MOL0     O33800  11.036   8.319  10.041 -0.1056  0.8489  0.1309
  257MOL0     C33801  11.158   8.348  10.101 -0.4474  0.6258 -0.0768
  257MOL0     C33802  11.199   8.495  10.109 -0.2537 -0.6426  0.5261
  257MOL0     C33803  11.317   8.517  10.203 -0.3815 -0.2722  0.3307
  257MOL0     C33804  11.393   8.639  10.195  0.0851  0.0391  0.1498
  257MOL0     C33805  11.515   8.647  10.293 -0.3697 -0.4116 -0.1446
  257MOL0     C33806  11.597   8.776  10.265  0.2495  0.2951 -0.4508
  257MOL0     C33807  11.741   8.769  10.315  0.0361  0.1770  1.2490
  257MOL0     C33808  11.796   8.906  10.341 -0.0626 -0.5967 -0.1800
  257MOL0     N33809  11.920   8.902  10.417 -0.3332 -0.1530 -0.7334
  257MOL0     C33810  11.945   8.897  10.555  0.3598 -0.9972 -0.3817
  257MOL0     C33811  12.075   8.880  10.567  0.1136  0.3083  0.5261
  257MOL0     C33812  12.161   8.894  10.687  0.0333  0.2989 -0.7483
  257MOL0     C33813  12.251   8.778  10.693 -0.4903  0.0556 -0.4249
  257MOL0     C33814  12.357   8.793  10.813 -0.3622  0.2004  0.1289
  257MOL0     C33815  12.501   8.804  10.772  0.2632  0.5306  0.0129
  257MOL0     O33816  12.601   8.795  10.876 -0.1272  0.3332 -0.0020
  257MOL0     C33817  12.728   8.846  10.853 -0.4422 -0.2398  0.7275
  257MOL0     C33818  12.836   8.757  10.880 -0.7035 -0.4711  0.0342
  257MOL0     C33819  12.968   8.809  10.868 -0.2131 -0.1652  0.2933
  257MOL0     C33820  12.998   8.941  10.819 -0.5288  0.6714 -0.7395
  257MOL0     C33821  13.138   8.986  10.824 -0.0533 -0.1682 -1.0390
  257MOL0     O33822  13.137   9.122  10.793  0.6796  0.1854  0.5262
  257MOL0     C33823  13.251   9.189  10.780  0.1736  0.3233 -0.9537
  257MOL0     C33824  13.288   9.249  10.653  0.1317 -0.5458 -0.5046
  257MOL0     C33825  13.389   9.346  10.642 -0.8975  0.5457  0.8895
  257MOL0     C33826  13.466   9.364  10.756  0.5338  0.7420  0.4697
  257MOL0     O33827  13.566   9.444  10.740  0.4906 -0.3397 -0.5710
  257MOL0     C33828  13.613   9.521  10.849  0.0939 -0.7276 -0.5775
  257MOL0     C33829  13.749   9.607  10.821  0.4402  0.3080 -0.2357
  257MOL0     C33830  13.765   9.669  10.684  0.1878 -0.7704  0.0453
  257MOL0     C33831  13.883   9.769  10.687 -0.0673 -0.3009  0.2335
  257MOL0     C33832  13.927   9.832  10.554 -0.2141 -0.6836  0.7954
  257MOL0     C33833  14.074   9.880  10.556  0.5680 -0.1592 -0.4598
  257MOL0     C33834  14.109   9.947  10.428 -0.5621 -1.0952  0.2482
  257MOL0     C33835  14.236  10.014  10.426 -0.2085  0.3984 -1.1435
  257MOL0    Cl33836  14.301  10.039  10.268 -0.1466 -0.2051 -0.3709
  257MOL0     C33837  13.427   9.304  10.889 -0.1202  0.1919 -0.5039
  257MOL0     C33838  13.324   9.215  10.901  0.0957 -0.5786  0.6027
  257MOL0     O33839  13.236   8.913  10.856  0.5431 -0.0239  0.0269
  257MOL0     C33840  12.890   9.016  10.776  0.6775  0.5822 -0.5990
  257MOL0     C33841  12.758   8.975  10.801  0.1741  0.6795 -0.4445
  257MOL0     N33842  12.127   8.861  10.442 -0.1067  0.0249 -0.0343
  257MOL0     N33843  12.036   8.880  10.354 -0.0327 -0.7778 -0.1338
  257MOL0     C33844  11.036   8.076  10.110 -0.2315  0.1237  0.2697
  257MOL0     C33845  10.971   7.949  10.085  0.8445 -0.4442 -0.1832
  257MOL0     C33846  10.778   7.586   9.941 -0.0005 -0.0578  0.0324
  257MOL0     C33847  10.807   7.482   9.851  0.4321 -0.3917 -0.4000
  257MOL0     C33848  10.737   7.360   9.843  0.3440  0.7711  0.3636
  257MOL0     C33849  10.617   7.340   9.915  0.2595  0.3265  0.1760
  257MOL0     O33850  10.540   7.226   9.910 -0.0353  0.3651 -0.6862
  257MOL0     C33851  10.576   7.111   9.835 -0.6363 -0.8987 -0.3794
  257MOL0     C33852  10.519   7.113   9.695 -1.4834 -0.2797 -0.3645
  257MOL0     C33853  10.558   6.988   9.620 -0.3607 -1.1947  0.8894
  257MOL0     C33854  10.511   7.000   9.480  0.2601  0.7554  0.2489
  257MOL0     C33855  10.542   6.894   9.384 -0.8144  0.6294 -0.3777
  257MOL0     C33856  10.572   6.811   9.304  0.8841  0.1418  0.3411
  257MOL0     C33857  10.579   7.445  10.001 -0.3173 -0.3326 -0.0649
  257MOL0     C33858  10.656   7.566  10.021 -1.2022 -0.2434 -0.3038
  257MOL0     H33859  10.746   8.047   9.847 -0.7375  0.1643  1.5236
  257MOL0     H33860  10.858   8.262   9.899  2.4713  0.4530  0.1601
  257MOL0     H33861  11.222   8.298  10.028 -3.2957 -0.2985 -2.0956
  257MOL0     H33862  11.146   8.317  10.205  3.4795 -1.3939 -0.0222
  257MOL0     H33863  11.115   8.554  10.148  1.7309  0.7274  3.0808
  257MOL0     H33864  11.231   8.527  10.009 -3.1426  1.7731  0.2264
  257MOL0     H33865  11.384   8.431  10.200  3.0690  2.1459  1.9864
  257MOL0     H33866  11.269   8.509  10.302 -0.0549 -0.5729  0.4668
  257MOL0     H33867  11.421   8.643  10.090 -1.1090 -3.6355 -0.4620
  257MOL0     H33868  11.340   8.734  10.211 -1.3819 -0.8903  1.0741
  257MOL0     H33869  11.565   8.551  10.278  0.7176 -0.0920  1.2393
  257MOL0     H33870  11.481   8.661  10.396  1.3004 -0.5015  0.4415
  257MOL0     H33871  11.559   8.853  10.332 -0.0852 -2.1756  2.4528
  257MOL0     H33872  11.579   8.804  10.161 -2.9297  0.2723 -0.0061
  257MOL0     H33873  11.740   8.696  10.397  1.1296 -3.0419 -1.3672
  257MOL0     H33874  11.804   8.718  10.242 -2.3077 -0.6112 -0.3485
  257MOL0     H33875  11.724   8.961  10.402 -1.3032 -1.9879 -0.3337
  257MOL0     H33876  11.815   8.955  10.245 -1.1360  0.7149  0.2561
  257MOL0     H33877  11.879   8.912  10.641  0.8719  2.5292 -0.4605
  257MOL0     H33878  12.102   8.899  10.779 -0.6101  3.2983 -1.2237
  257MOL0     H33879  12.219   8.986  10.679  2.5676 -1.0458  0.7583
  257MOL0     H33880  12.301   8.753  10.599  0.7370 -1.0247  0.4897
  257MOL0     H33881  12.193   8.692  10.725 -0.6208  0.3198  0.0521
  257MOL0     H33882  12.337   8.875  10.882 -2.4708  1.1413 -1.4746
  257MOL0     H33883  12.330   8.704  10.870 -1.3505 -0.1832 -0.8939
  257MOL0     H33884  12.508   8.903  10.725  1.7089  1.3955  1.8761
  257MOL0     H33885  12.529   8.731  10.697 -0.1019 -0.7010  1.0428
  257MOL0     H33886  12.808   8.655  10.904  1.8174 -1.3120 -0.3812
  257MOL0     H33887  13.050   8.753  10.911 -1.9359 -2.8522  0.3009
  257MOL0     H33888  13.228   9.233  10.565 -1.2220  2.4042 -0.2489
  257MOL0     H33889  13.428   9.364  10.542  1.7360 -3.3507  1.0118
  257MOL0     H33890  13.631   9.466  10.942  1.2073  0.6212  0.0356
  257MOL0     H33891  13.529   9.582  10.882 -0.5962 -1.8243 -0.2625
  257MOL0     H33892  13.825   9.528  10.824 -0.8296 -1.1311 -2.6760
  257MOL0     H33893  13.768   9.681  10.900  1.4889 -1.9928  1.8026
  257MOL0     H33894  13.677   9.731  10.667  0.9904  0.6410  0.7928
  257MOL0     H33895  13.764   9.594  10.605 -1.1052  1.2312 -1.9511
  257MOL0     H33896  13.851   9.852  10.751  0.3598 -1.0443  1.4621
  257MOL0     H33897  13.968   9.730  10.743 -0.5258  0.3916  1.4561
  257MOL0     H33898  13.868   9.922  10.535  1.0191 -0.1625 -0.8729
  257MOL0     H33899  13.930   9.761  10.471  2.0349 -1.5457  1.5215
  257MOL0     H33900  14.120   9.784  10.582  1.1690 -0.0978 -1.2470
  257MOL0     H33901  14.091   9.950  10.639  0.0208  0.5695 -0.9539
  257MOL0     H33902  14.121   9.869  10.352  1.9011  1.4701 -2.2517
  257MOL0     H33903  14.026  10.016  10.409 -2.5438 -3.3130  0.2629
  257MOL0     H33904  14.308   9.963  10.491 -2.6182  1.7995  3.0356
  257MOL0     H33905  14.217  10.107  10.480  2.0286  0.1102  0.2299
  257MOL0     H33906  13.474   9.320  10.985 -1.3625  2.1770 -0.1662
  257MOL0     H33907  13.303   9.168  10.997  2.0378  0.2912  1.5006
  257MOL0     H33908  12.908   9.106  10.717 -2.0452  0.5003 -1.6957
  257MOL0     H33909  12.679   9.042  10.767 -3.4140 -2.3770  1.1323
  257MOL0     H33910  11.119   8.094  10.177  1.1942 -3.0046 -0.5013
  257MOL0     H33911  10.997   7.859  10.140  2.9229  0.8977  1.1907
  257MOL0     H33912  10.896   7.504   9.793  1.9319 -2.6649  0.8846
  257MOL0     H33913  10.777   7.280   9.781  1.9596  1.5702  0.3099
  257MOL0     H33914  10.527   7.023   9.877 -1.4337 -1.1221 -1.7367
  257MOL0     H33915  10.683   7.090   9.841 -0.2732  1.0554  2.3257
  257MOL0     H33916  10.411   7.128   9.700 -1.2254  1.5826  3.3429
  257MOL0     H33917  10.555   7.196   9.633  1.7162  0.6479  2.4172
  257MOL0     H33918  10.521   6.907   9.683 -0.9174 -1.4669  0.2274
  257MOL0     H33919  10.667   6.979   9.620 -0.2766 -0.5495 -0.5710
  257MOL0     H33920  10.402   7.004   9.469  0.5033  3.2991 -2.4811
  257MOL0     H33921  10.548   7.096   9.442 -3.0240  1.8419 -0.6014
  257MOL0     H33922  10.602   6.735   9.234 -1.8216 -0.6519 -0.1025
  257MOL0     H33923  10.492   7.435  10.065  0.3038  1.3549  1.1278
  257MOL0     H33924  10.618   7.627  10.103 -0.4150 -1.9889  1.4474
  258MOL0     O33925   3.922  10.665   2.246 -0.5003  0.3071  0.7022
  258MOL0     C33926   4.023  10.681   2.188 -0.3563 -0.7140  0.8269
  258MOL0     O33927   4.139  10.746   2.224  0.9412 -0.4814  0.5355
  258MOL0     C33928   4.153  10.808   2.343 -0.0062 -0.7182  0.4374
  258MOL0     C33929   4.260  10.892   2.342 -0.9045  0.2685 -0.4162
  258MOL0     C33930   4.282  10.975   2.461 -0.5820  0.4117  0.4055
  258MOL0     C33931   4.204  10.965   2.572  0.6908 -1.0630 -0.4876
  258MOL0     O33932   4.212  11.050   2.685 -0.4287 -0.8151 -0.5252
  258MOL0     C33933   4.122  11.165   2.681  0.1076 -0.0901  0.5073
  258MOL0     C33934   4.175  11.294   2.623 -0.6095  0.5161 -0.3317
  258MOL0     C33935   4.287  11.352   2.705 -0.0520  0.2124 -0.2758
  258MOL0     C33936   4.310  11.493   2.660 -0.5419 -1.2256  0.0037
  258MOL0     C33937   4.394  11.568   2.766  0.2207  0.1683 -0.0313
  258MOL0     C33938   4.531  11.499   2.803 -0.1200  0.0073  0.3016
  258MOL0     C33939   4.616  11.572   2.908  0.4434 -0.2228 -0.5391
  258MOL0     C33940   4.760  11.590   2.884 -0.3332  0.4380  0.3399
  258MOL0     N33941   4.846  11.467   2.860  0.1790  0.0639  0.3497
  258MOL0     C33942   4.815  11.346   2.812 -0.9290  0.3552  0.9473
  258MOL0     C33943   4.936  11.274   2.820  0.9876  0.2266  1.1022
  258MOL0     C33944   4.945  11.128   2.766 -0.3866  0.1200 -0.7785
  258MOL0     C33945   4.851  11.017   2.817  1.0515 -0.0063 -0.4188
  258MOL0     C33946   4.860  10.956   2.960 -0.0746 -0.7957 -0.0581
  258MOL0     C33947   4.731  10.901   3.018 -0.3970 -0.3503  0.6038
  258MOL0     O33948   4.768  10.818   3.132  1.1213 -0.8870  0.2209
  258MOL0     C33949   4.807  10.888   3.251  0.2533 -0.0462 -0.1862
  258MOL0     C33950   4.889  10.815   3.341 -0.9545  0.6569 -0.3332
  258MOL0     C33951   4.927  10.873   3.464 -0.3962  0.0504  0.8067
  258MOL0     C33952   4.873  10.992   3.502  0.0739 -0.2942  0.4542
  258MOL0     C33953   4.908  11.051   3.629  0.1051 -0.2896 -0.6191
  258MOL0     O33954   4.824  11.149   3.668 -0.1497 -0.6412  0.0327
  258MOL0     C33955   4.828  11.193   3.797  0.3674 -0.3578  0.1823
  258MOL0     C33956   4.740  11.136   3.892 -1.4967 -0.1016  0.1533
  258MOL0     C33957   4.722  11.187   4.016  1.2322  0.6027 -0.2187
  258MOL0     C33958   4.800  11.297   4.053 -0.5254  0.3697  0.2475
  258MOL0     O33959   4.792  11.348   4.177 -0.7968 -0.1606  0.2428
  258MOL0     C33960   4.874  11.463   4.206 -0.1546  0.6222  0.2549
  258MOL0     C33961   4.815  11.505   4.341  0.7237 -0.5958 -0.7938
  258MOL0     C33962   4.682  11.585   4.316 -0.3231  0.1248 -0.3401
  258MOL0     C33963   4.596  11.642   4.431 -0.3095  0.7467 -0.7163
  258MOL0     C33964   4.487  11.744   4.393 -0.7741  1.3768 -0.4650
  258MOL0     C33965   4.549  11.885   4.391 -0.2352 -0.0962 -0.5675
  258MOL0     C33966   4.549  11.948   4.525 -0.0092  0.1561  0.2555
  258MOL0     C33967   4.565  12.099   4.515 -0.2133 -0.6850  0.6446
  258MOL0    Cl33968   4.560  12.168   4.677 -0.7225 -0.2780 -0.2317
  258MOL0     C33969   4.904  11.341   3.968 -0.9468 -0.4725  0.0879
  258MOL0     C33970   4.915  11.296   3.835 -0.4572 -0.7718  0.1277
  258MOL0     O33971   4.990  11.001   3.700 -0.7904 -0.4465  0.4199
  258MOL0     C33972   4.785  11.066   3.417  0.3585  0.6763  0.0414
  258MOL0     C33973   4.759  11.019   3.289  0.0421 -0.4040 -0.3606
  258MOL0     N33974   5.028  11.354   2.881 -0.1399  0.3562 -0.2914
  258MOL0     N33975   4.974  11.470   2.897 -0.5321  0.0718  0.0207
  258MOL0     C33976   4.103  10.867   2.572 -0.8385 -0.2745  0.6469
  258MOL0     C33977   4.079  10.790   2.459  0.2054  0.5101  0.4730
  258MOL0     C33978   4.018  10.614   2.048 -0.6727 -0.6167  0.0786
  258MOL0     C33979   3.891  10.584   1.991 -0.4469  0.4006 -0.4459
  258MOL0     C33980   3.888  10.543   1.847  0.3789  0.2152 -0.1068
  258MOL0     C33981   4.008  10.508   1.782 -0.0933 -0.6592  1.5209
  258MOL0     O33982   4.004  10.455   1.656  1.2087 -0.3588  0.5594
  258MOL0     C33983   3.941  10.539   1.552 -0.4195 -0.0747  0.6375
  258MOL0     C33984   3.961  10.470   1.409  0.6439  0.7867 -0.1207
  258MOL0     C33985   4.111  10.473   1.358  0.0018 -0.2627 -0.4019
  258MOL0     C33986   4.137  10.590   1.261  0.5898 -0.5370 -0.0827
  258MOL0     C33987   4.123  10.720   1.332 -0.9350  0.5519  0.6996
  258MOL0     C33988   4.120  10.831   1.388  0.3036 -0.0252 -0.0510
  258MOL0     C33989   4.122  10.540   1.840 -0.0941  0.4956 -0.0571
  258MOL0     C33990   4.130  10.587   1.968  0.0765 -0.3085 -0.6958
  258MOL0     H33991   4.325  10.915   2.259 -1.3909  0.4665 -0.7454
  258MOL0     H33992   4.359  11.052   2.460  1.9336 -1.9243 -0.1347
  258MOL0     H33993   4.097  11.186   2.786 -0.3099  2.7714 -0.0739
  258MOL0     H33994   4.030  11.146   2.625  0.2940  0.7625 -0.1027
  258MOL0     H33995   4.090  11.362   2.615 -1.8317 -1.1178 -1.9596
  258MOL0     H33996   4.214  11.288   2.521  0.3343  5.2903 -0.4877
  258MOL0     H33997   4.376  11.293   2.682  1.6119  1.4165  2.5357
  258MOL0     H33998   4.252  11.354   2.808 -2.0008 -1.1496 -0.8405
  258MOL0     H33999   4.357  11.483   2.561 -2.4354 -0.5084 -1.0297
  258MOL0     H34000   4.219  11.552   2.645  1.9062  2.4136 -2.1762
  258MOL0     H34001   4.335  11.581   2.858 -1.2711 -1.6658 -0.6679
  258MOL0     H34002   4.401  11.673   2.735 -0.0644  0.9681  2.3274
  258MOL0     H34003   4.593  11.505   2.713  0.4896  1.5040  0.7885
  258MOL0     H34004   4.507  11.399   2.838  0.7551 -0.6460 -0.8965
  258MOL0     H34005   4.573  11.671   2.926  3.8490  1.0622  1.5558
  258MOL0     H34006   4.602  11.513   3.000  0.7148 -1.3690 -1.2210
  258MOL0     H34007   4.800  11.652   2.965  1.0518 -0.5553  0.4449
  258MOL0     H34008   4.766  11.654   2.796 -1.4293  2.2269  1.4946
  258MOL0     H34009   4.714  11.310   2.799 -1.5610 -0.9000  6.4891
  258MOL0     H34010   5.043  11.087   2.793 -1.2868 -0.0785  2.6020
  258MOL0     H34011   4.939  11.124   2.657 -1.4092 -2.2903 -0.6905
  258MOL0     H34012   4.858  10.932   2.748 -0.5109 -1.0909  0.7047
  258MOL0     H34013   4.744  11.036   2.806  0.2198 -3.7181 -0.1771
  258MOL0     H34014   4.932  10.874   2.955 -1.0678 -1.6327 -0.9213
  258MOL0     H34015   4.910  11.029   3.025  1.2504 -1.2208 -0.5618
  258MOL0     H34016   4.694  10.832   2.941  3.0236  1.0977 -2.6682
  258MOL0     H34017   4.678  10.992   3.047  0.8963  0.0064  1.9736
  258MOL0     H34018   4.936  10.723   3.309 -2.3681 -0.8574  1.6852
  258MOL0     H34019   4.998  10.824   3.529 -0.3065 -0.7398  0.1249
  258MOL0     H34020   4.674  11.058   3.855 -1.0721 -0.8709  0.9802
  258MOL0     H34021   4.663  11.134   4.091  0.6221  1.3873 -0.1234
  258MOL0     H34022   4.861  11.550   4.141 -2.8751  0.0995 -0.0275
  258MOL0     H34023   4.980  11.435   4.207 -0.0910  0.8640  0.5626
  258MOL0     H34024   4.898  11.553   4.394  0.2926  0.4978 -1.0744
  258MOL0     H34025   4.802  11.420   4.408 -1.5419  1.8599  2.1590
  258MOL0     H34026   4.612  11.519   4.263 -3.2385  0.9425  2.1647
  258MOL0     H34027   4.695  11.669   4.249  0.8810 -0.6388 -1.0936
  258MOL0     H34028   4.549  11.552   4.473  1.3365  0.4964  0.7090
  258MOL0     H34029   4.663  11.693   4.500  0.5325 -1.8245  0.4789
  258MOL0     H34030   4.398  11.743   4.457 -2.7828  0.7918 -3.0943
  258MOL0     H34031   4.467  11.719   4.288 -1.2986  1.0370 -0.2870
  258MOL0     H34032   4.478  11.935   4.324  1.2043  0.6692 -1.5693
  258MOL0     H34033   4.649  11.887   4.347 -0.5628  0.3748 -1.3044
  258MOL0     H34034   4.462  11.916   4.583 -0.3545  0.9629  0.2006
  258MOL0     H34035   4.642  11.916   4.573  0.3136  0.1667 -0.3547
  258MOL0     H34036   4.478  12.144   4.467 -1.3572 -3.0923  0.3202
  258MOL0     H34037   4.659  12.128   4.466 -0.8374  1.3032  0.5545
  258MOL0     H34038   4.951  11.437   3.983 -1.8669  0.5339 -2.8939
  258MOL0     H34039   4.995  11.336   3.773 -1.7271  1.1659 -0.3319
  258MOL0     H34040   4.744  11.163   3.442 -0.4627  0.7136 -1.3306
  258MOL0     H34041   4.702  11.089   3.229  1.5497  3.9098  2.7289
  258MOL0     H34042   4.040  10.868   2.661 -1.8943  0.3049 -0.0893
  258MOL0     H34043   4.002  10.714   2.458  0.3569  0.3375 -1.5742
  258MOL0     H34044   3.801  10.596   2.050 -0.2101 -1.7042  0.4365
  258MOL0     H34045   3.792  10.542   1.796  2.1917 -1.1718 -3.8868
  258MOL0     H34046   3.985  10.640   1.554  2.1383 -1.0344 -1.3074
  258MOL0     H34047   3.835  10.550   1.576 -0.4219  0.2727  0.4744
  258MOL0     H34048   3.931  10.366   1.424  2.9612 -0.2438 -1.9595
  258MOL0     H34049   3.888  10.520   1.345 -1.7525  1.1951  2.7217
  258MOL0     H34050   4.123  10.397   1.280  1.9469  1.2348 -1.6603
  258MOL0     H34051   4.191  10.466   1.432  2.5880 -0.6457 -3.0573
  258MOL0     H34052   4.238  10.577   1.221 -0.0938 -1.1206 -1.6700
  258MOL0     H34053   4.067  10.573   1.179 -0.5241  1.5823  0.3633
  258MOL0     H34054   4.095  10.927   1.430 -1.2556 -0.6269  0.4756
  258MOL0     H34055   4.209  10.522   1.777 -0.8381  0.2968 -1.0680
  258MOL0     H34056   4.229  10.614   2.003  0.1657  2.0064 -2.4483
  259MOL0     O34057   3.854   0.464   1.769 -0.2747 -0.2026  0.3632
  259MOL0     C34058   3.899   0.497   1.878  0.2478 -0.7793 -0.0349
  259MOL0     O34059   3.916   0.416   1.989 -0.9238 -0.5203 -0.0226
  259MOL0     C34060   3.897   0.283   1.990  0.3265  0.9802  0.3722
  259MOL0     C34061   3.955   0.200   1.894  0.7349  0.1200  0.1746
  259MOL0     C34062   3.931   0.061   1.917  0.4331  0.7964 -1.0617
  259MOL0     C34063   3.851   0.012   2.020  0.1580  1.0863  0.2131
  259MOL0     O34064   3.823  -0.126   2.031 -0.2445 -0.7012 -0.1974
  259MOL0     C34065   3.869  -0.183   2.150  0.9378  0.1422  1.0819
  259MOL0     C34066   3.924  -0.321   2.126  0.0466 -0.5710 -0.0228
  259MOL0     C34067   4.058  -0.322   2.032  0.2759  0.0131  0.4119
  259MOL0     C34068   4.107  -0.463   1.995  0.8622 -0.3523 -0.0948
  259MOL0     C34069   4.229  -0.449   1.896  0.6384  0.2472  0.0717
  259MOL0     C34070   4.270  -0.586   1.837 -0.5763  0.0965 -0.3107
  259MOL0     C34071   4.364  -0.574   1.714  0.5124  0.5865 -0.4019
  259MOL0     C34072   4.351  -0.444   1.639  0.4710  0.6846  0.1185
  259MOL0     N34073   4.426  -0.438   1.522  0.4591  1.1568 -0.0466
  259MOL0     C34074   4.560  -0.458   1.493 -1.0663 -0.8363  0.4428
  259MOL0     C34075   4.562  -0.438   1.355  0.1830  0.5489 -0.5042
  259MOL0     C34076   4.684  -0.443   1.265 -1.2810 -0.2048  0.4356
  259MOL0     C34077   4.740  -0.304   1.271 -0.3855 -0.7247 -0.5177
  259MOL0     C34078   4.856  -0.297   1.177 -0.2318  0.6195  1.0296
  259MOL0     C34079   4.827  -0.269   1.034  0.1447 -0.4502  0.1679
  259MOL0     O34080   4.781  -0.131   1.005 -0.6762  0.4344 -0.2265
  259MOL0     C34081   4.890  -0.048   0.979 -0.1978 -0.5415 -0.4865
  259MOL0     C34082   4.981   0.013   1.064 -0.0709 -1.0585 -0.6576
  259MOL0     C34083   5.075   0.112   1.016 -0.2602  0.3951 -0.3450
  259MOL0     C34084   5.074   0.163   0.890  0.0365  0.4169  0.6174
  259MOL0     C34085   5.162   0.280   0.850  0.1228  0.7300 -0.4929
  259MOL0     O34086   5.108   0.380   0.783 -0.1253  0.5850  0.0716
  259MOL0     C34087   5.188   0.484   0.731  0.5072  0.3302 -1.0569
  259MOL0     C34088   5.267   0.574   0.810  0.0286  0.2683  0.2748
  259MOL0     C34089   5.313   0.691   0.757 -0.0984  0.2913  0.7680
  259MOL0     C34090   5.296   0.724   0.624  0.2046 -0.6641  0.1142
  259MOL0     O34091   5.332   0.846   0.568 -0.3113 -0.2284 -0.3742
  259MOL0     C34092   5.248   0.957   0.613  0.1281  0.3665  0.9671
  259MOL0     C34093   5.332   1.076   0.661 -0.0936 -0.0384 -0.1889
  259MOL0     C34094   5.443   1.123   0.572  0.3599  0.3187 -0.0556
  259MOL0     C34095   5.389   1.185   0.439  0.0838  0.3412  0.3999
  259MOL0     C34096   5.503   1.252   0.355 -0.2003 -0.2528  0.1107
  259MOL0     C34097   5.555   1.380   0.421  0.2347 -0.0238 -0.7417
  259MOL0     C34098   5.677   1.407   0.345 -0.3241 -0.2726  0.0579
  259MOL0     C34099   5.754   1.534   0.391  0.2390 -0.5985 -0.5040
  259MOL0    Cl34100   5.791   1.521   0.567  0.1778  0.3222 -0.1097
  259MOL0     C34101   5.234   0.628   0.540  0.6929 -0.4378  0.1695
  259MOL0     C34102   5.183   0.512   0.604 -0.5123 -0.1817  1.1933
  259MOL0     O34103   5.283   0.273   0.889 -0.4203 -0.1745  0.6254
  259MOL0     C34104   4.979   0.106   0.804  0.2338 -0.5335 -0.2176
  259MOL0     C34105   4.898  -0.002   0.847 -1.2373 -0.1457  0.0975
  259MOL0     N34106   4.439  -0.415   1.303 -0.1436  0.5343 -0.7062
  259MOL0     N34107   4.359  -0.419   1.404 -0.1665 -0.3598 -0.5737
  259MOL0     C34108   3.792   0.101   2.107  0.0139  0.2807  0.3770
  259MOL0     C34109   3.818   0.236   2.089 -0.2821 -0.3643  0.1334
  259MOL0     C34110   3.947   0.638   1.906 -0.7141  0.4664 -0.0625
  259MOL0     C34111   3.908   0.742   1.820  0.0442 -0.0646 -0.5077
  259MOL0     C34112   3.938   0.875   1.838  0.3780 -0.3495  0.1756
  259MOL0     C34113   3.998   0.914   1.953 -0.2584  1.0199 -0.1585
  259MOL0     O34114   4.009   1.042   1.999 -0.0432 -0.2630  0.6721
  259MOL0     C34115   4.032   1.150   1.908 -0.4735  0.0358  0.0170
  259MOL0     C34116   4.140   1.143   1.803 -0.1273  0.0048 -0.7565
  259MOL0     C34117   4.177   1.277   1.746  0.3426 -0.0034  0.4225
  259MOL0     C34118   4.080   1.312   1.641  0.6849 -0.4876 -0.2108
  259MOL0     C34119   4.135   1.436   1.582  1.5931  0.8623 -0.0725
  259MOL0     C34120   4.191   1.536   1.558  0.7111 -0.6004  0.1848
  259MOL0     C34121   4.052   0.809   2.035  0.5503  1.3335 -0.7283
  259MOL0     C34122   4.033   0.665   2.012  0.3907 -0.9752 -0.8072
  259MOL0     H34123   3.987   0.242   1.800 -3.3124 -0.1321 -1.5332
  259MOL0     H34124   3.958  -0.009   1.839 -1.2567 -1.4990  0.2664
  259MOL0     H34125   3.796  -0.189   2.232 -1.7556  0.4978 -1.1643
  259MOL0     H34126   3.957  -0.127   2.183  1.9172  0.1161 -1.3288
  259MOL0     H34127   3.843  -0.377   2.077 -0.8299  2.2636 -2.0965
  259MOL0     H34128   3.952  -0.370   2.219  0.7737 -1.5221 -0.7192
  259MOL0     H34129   4.140  -0.275   2.086 -1.2243  2.4653  0.7254
  259MOL0     H34130   4.039  -0.255   1.948  2.4918 -0.7562 -0.7881
  259MOL0     H34131   4.131  -0.501   2.094 -2.6823 -1.7716  0.3582
  259MOL0     H34132   4.030  -0.527   1.951 -0.5183  2.6235 -2.4634
  259MOL0     H34133   4.316  -0.402   1.944  1.6859 -2.6075  1.2336
  259MOL0     H34134   4.191  -0.384   1.817 -1.2764  2.1387  2.4108
  259MOL0     H34135   4.178  -0.640   1.810  0.6499 -0.9835 -2.5679
  259MOL0     H34136   4.314  -0.655   1.909  0.2968  0.7195 -0.2395
  259MOL0     H34137   4.470  -0.585   1.736  1.0964  1.2869 -2.6125
  259MOL0     H34138   4.333  -0.656   1.649  0.0676 -0.5640  1.1979
  259MOL0     H34139   4.389  -0.359   1.696  0.5316  1.2827 -0.7949
  259MOL0     H34140   4.244  -0.432   1.620  0.5595 -0.9297 -1.7779
  259MOL0     H34141   4.639  -0.489   1.561 -1.0769  0.5993  1.1269
  259MOL0     H34142   4.643  -0.459   1.165 -1.3898 -1.7935  0.7105
  259MOL0     H34143   4.761  -0.520   1.260  0.7343  1.6570  0.9302
  259MOL0     H34144   4.760  -0.288   1.377  0.4950 -0.8545 -0.6579
  259MOL0     H34145   4.674  -0.225   1.234 -1.2304 -0.5552  1.2221
  259MOL0     H34146   4.918  -0.217   1.219  1.0291 -0.2539  0.8725
  259MOL0     H34147   4.910  -0.392   1.175  1.7181  1.6081 -2.7062
  259MOL0     H34148   4.754  -0.344   1.003 -2.2848  1.5636  0.6624
  259MOL0     H34149   4.919  -0.284   0.976  0.0719  1.6480 -0.5723
  259MOL0     H34150   4.977  -0.015   1.169  1.1754  0.8299 -0.0629
  259MOL0     H34151   5.155   0.148   1.080 -1.1077 -1.4219  1.8772
  259MOL0     H34152   5.279   0.570   0.918 -2.1757  2.2349  0.6715
  259MOL0     H34153   5.377   0.752   0.819  2.0992 -1.5234  0.4440
  259MOL0     H34154   5.179   0.940   0.696 -4.0180 -2.5485 -2.6248
  259MOL0     H34155   5.186   0.985   0.527  0.4112  1.5692  1.1357
  259MOL0     H34156   5.386   1.061   0.755 -2.8995  0.7372  1.6701
  259MOL0     H34157   5.268   1.157   0.696 -2.3583 -2.2590  1.1186
  259MOL0     H34158   5.513   1.040   0.556  0.1319 -0.8559  3.8878
  259MOL0     H34159   5.500   1.201   0.624  0.2069  0.1373  0.3940
  259MOL0     H34160   5.346   1.109   0.373 -0.3376  1.5160 -0.7293
  259MOL0     H34161   5.322   1.270   0.459  0.2268 -0.1011  3.1384
  259MOL0     H34162   5.477   1.278   0.252  2.5819 -0.2142 -0.6454
  259MOL0     H34163   5.578   1.173   0.357 -1.4763 -1.4872  1.3078
  259MOL0     H34164   5.586   1.360   0.524 -0.2177  0.5491 -0.4920
  259MOL0     H34165   5.487   1.464   0.409  0.5581  0.1636 -1.3318
  259MOL0     H34166   5.755   1.333   0.366  1.2643  1.5196  0.7473
  259MOL0     H34167   5.649   1.412   0.240 -1.8747  1.2865  0.5101
  259MOL0     H34168   5.681   1.613   0.371 -0.8820 -1.0747  1.4794
  259MOL0     H34169   5.848   1.541   0.334  0.2367 -1.8564 -0.6855
  259MOL0     H34170   5.226   0.650   0.434  0.5964  1.6641  0.5717
  259MOL0     H34171   5.140   0.436   0.539 -0.8248 -2.7322  4.1427
  259MOL0     H34172   4.968   0.150   0.706 -0.5611  0.1726  0.1764
  259MOL0     H34173   4.826  -0.036   0.773  0.1758  0.8511 -1.8173
  259MOL0     H34174   3.732   0.052   2.183  0.4121  0.3459  0.7423
  259MOL0     H34175   3.797   0.308   2.168 -1.7486 -3.2981  2.6401
  259MOL0     H34176   3.849   0.726   1.730 -1.7456  0.1948  0.5772
  259MOL0     H34177   3.901   0.959   1.780  1.0254 -0.1022  0.1013
  259MOL0     H34178   4.059   1.232   1.975 -2.3749 -0.6713  1.7478
  259MOL0     H34179   3.944   1.189   1.856 -0.8469 -2.4894 -1.4006
  259MOL0     H34180   4.221   1.094   1.858 -0.4678  1.0354  0.7454
  259MOL0     H34181   4.122   1.071   1.723  0.4356 -0.3827 -0.5431
  259MOL0     H34182   4.279   1.282   1.706  1.4177  2.1683  3.0684
  259MOL0     H34183   4.178   1.355   1.823 -0.2143  0.2110  0.2200
  259MOL0     H34184   4.055   1.226   1.578 -1.6761  0.0419 -0.0855
  259MOL0     H34185   3.984   1.337   1.686 -0.3438  0.3730 -2.6844
  259MOL0     H34186   4.233   1.635   1.554 -0.5171  0.0624  2.0630
  259MOL0     H34187   4.093   0.839   2.131  2.1111 -1.9439 -0.2332
  259MOL0     H34188   4.078   0.600   2.086  0.1716  2.3492  2.5935
  260MOL0     O34189   7.525   1.300   1.896  0.1456 -0.0463 -0.6435
  260MOL0     C34190   7.547   1.213   1.811  0.3577 -0.4633  0.1597
  260MOL0     O34191   7.664   1.141   1.786 -0.6628 -0.1289  0.2012
  260MOL0     C34192   7.779   1.165   1.854 -0.0978  0.8998 -1.2696
  260MOL0     C34193   7.813   1.288   1.898  0.6920 -0.9383  0.9161
  260MOL0     C34194   7.934   1.315   1.961  0.0222  1.0373 -0.2317
  260MOL0     C34195   8.015   1.204   1.999 -0.3973 -0.6134  0.3098
  260MOL0     O34196   8.118   1.220   2.095  0.6017 -0.5560  0.0654
  260MOL0     C34197   8.088   1.257   2.229  0.6202  0.2970 -0.7456
  260MOL0     C34198   8.214   1.245   2.312  0.1664 -0.1097 -0.8162
  260MOL0     C34199   8.334   1.342   2.276  0.3839 -0.5275 -0.1838
  260MOL0     C34200   8.373   1.412   2.403  0.2676  0.4395  0.3706
  260MOL0     C34201   8.482   1.524   2.372 -0.2746  0.1993 -1.0016
  260MOL0     C34202   8.611   1.473   2.302  0.0591 -0.6001 -0.1456
  260MOL0     C34203   8.712   1.586   2.278 -0.1859 -0.8507 -1.4672
  260MOL0     C34204   8.827   1.582   2.384  0.6630 -0.1000 -1.1565
  260MOL0     N34205   8.912   1.701   2.361 -0.2131 -0.6134 -0.0991
  260MOL0     C34206   8.911   1.805   2.260  0.4968 -0.2333  0.8626
  260MOL0     C34207   9.013   1.886   2.286  0.4112  0.6960 -0.3429
  260MOL0     C34208   9.055   1.991   2.192  0.7809  0.2015 -0.1160
  260MOL0     C34209   8.948   2.099   2.184  0.0700  0.7758  0.0962
  260MOL0     C34210   8.847   2.092   2.066  0.4832 -0.1608  0.3279
  260MOL0     C34211   8.739   2.199   2.083 -0.4515  0.7825  0.8230
  260MOL0     O34212   8.803   2.328   2.106 -0.0153  0.3603  0.0633
  260MOL0     C34213   8.728   2.440   2.153 -0.4337  0.6432  0.4539
  260MOL0     C34214   8.801   2.561   2.178  0.0804 -0.2560 -1.2552
  260MOL0     C34215   8.727   2.684   2.181 -0.9059 -0.0171  0.1435
  260MOL0     C34216   8.590   2.683   2.154  0.4211 -0.3678 -0.0081
  260MOL0     C34217   8.522   2.818   2.140  0.6642  0.7444  0.4802
  260MOL0     O34218   8.389   2.812   2.107  0.5515 -0.5084  0.4161
  260MOL0     C34219   8.334   2.930   2.060 -0.1632  0.0682  0.3776
  260MOL0     C34220   8.248   3.001   2.133  0.4817  0.4429 -0.1261
  260MOL0     C34221   8.197   3.120   2.104  0.9576 -0.5837 -0.2020
  260MOL0     C34222   8.244   3.177   1.981  0.1095  0.2295 -0.0536
  260MOL0     O34223   8.180   3.291   1.949  0.8756 -1.0937 -0.3510
  260MOL0     C34224   8.182   3.340   1.815  0.8336 -0.6489  0.2874
  260MOL0     C34225   8.100   3.469   1.794 -2.0035 -0.3245  0.3450
  260MOL0     C34226   8.076   3.507   1.639 -0.6141 -0.0916  0.6166
  260MOL0     C34227   8.013   3.652   1.612  0.0761  0.8904  0.4290
  260MOL0     C34228   8.130   3.756   1.649 -0.4409  0.0061 -0.2872
  260MOL0     C34229   8.264   3.760   1.571 -0.3864 -0.7438  0.0507
  260MOL0     C34230   8.244   3.739   1.417 -0.1943 -0.8858  0.1492
  260MOL0     C34231   8.378   3.716   1.347 -0.2121 -0.2223 -0.4530
  260MOL0    Cl34232   8.380   3.690   1.166 -0.2792 -0.3951 -0.0542
  260MOL0     C34233   8.343   3.107   1.902 -0.5253  0.3601 -0.6460
  260MOL0     C34234   8.388   2.987   1.940 -0.1206  0.0644  0.6856
  260MOL0     O34235   8.589   2.922   2.159  0.2848 -0.1975  1.0829
  260MOL0     C34236   8.513   2.563   2.154 -0.3611  0.3623  0.0705
  260MOL0     C34237   8.591   2.444   2.159 -0.2886  0.4462  0.3647
  260MOL0     N34238   9.084   1.830   2.394 -0.1197  0.2705 -0.4334
  260MOL0     N34239   9.026   1.726   2.431  1.2320  0.0473 -0.4840
  260MOL0     C34240   7.975   1.077   1.961  1.4192 -0.2039 -0.8498
  260MOL0     C34241   7.858   1.054   1.892 -0.5843  0.4532 -0.8736
  260MOL0     C34242   7.434   1.175   1.726 -0.0651  1.1161  1.0178
  260MOL0     C34243   7.313   1.243   1.742 -0.9390 -0.0420  0.1400
  260MOL0     C34244   7.197   1.200   1.675 -0.1906 -0.7469 -0.2644
  260MOL0     C34245   7.208   1.086   1.583  0.7169 -0.9870 -0.7936
  260MOL0     O34246   7.089   1.030   1.529  0.1894  0.0276 -0.1490
  260MOL0     C34247   7.034   0.902   1.577 -0.3086 -0.2717  0.1808
  260MOL0     C34248   6.918   0.931   1.666 -0.1416 -0.5063 -0.7623
  260MOL0     C34249   6.808   1.014   1.599 -0.0463  0.7045  0.1230
  260MOL0     C34250   6.736   0.913   1.503  0.9483 -0.4217 -0.2138
  260MOL0     C34251   6.603   0.958   1.470  0.5678 -0.6977  0.0357
  260MOL0     C34252   6.490   1.000   1.443 -0.9204 -0.1048  0.3769
  260MOL0     C34253   7.326   1.025   1.562 -0.4388  0.5243 -0.2764
  260MOL0     C34254   7.439   1.069   1.633 -0.3661 -0.6802  0.5610
  260MOL0     H34255   7.762   1.383   1.886  1.5039 -0.5498  0.3894
  260MOL0     H34256   7.965   1.416   1.988  1.7338  1.2769 -2.7824
  260MOL0     H34257   8.008   1.188   2.260  2.2370 -0.1688  2.8619
  260MOL0     H34258   8.044   1.356   2.242 -2.5495 -1.0914  0.3306
  260MOL0     H34259   8.256   1.147   2.291 -1.1823 -0.7733 -0.5561
  260MOL0     H34260   8.182   1.251   2.416 -0.7869  3.9058 -1.1446
  260MOL0     H34261   8.298   1.417   2.205 -0.2404 -0.3864  0.2687
  260MOL0     H34262   8.397   1.274   2.220 -0.2959 -1.9221  0.6853
  260MOL0     H34263   8.283   1.453   2.450  0.2322  1.1920 -0.3366
  260MOL0     H34264   8.417   1.339   2.471 -2.2967 -2.1643 -0.6122
  260MOL0     H34265   8.516   1.562   2.468  0.4834 -0.3808 -1.0313
  260MOL0     H34266   8.443   1.602   2.306 -0.5692  0.9709  0.0660
  260MOL0     H34267   8.591   1.432   2.203 -0.6038 -2.7406  0.8373
  260MOL0     H34268   8.658   1.397   2.365  0.9619 -0.6914 -0.9128
  260MOL0     H34269   8.764   1.594   2.182  0.4194  0.1171 -1.0753
  260MOL0     H34270   8.657   1.679   2.290  0.6590 -0.6098  1.0513
  260MOL0     H34271   8.884   1.489   2.369  0.5340 -0.1601 -1.2723
  260MOL0     H34272   8.796   1.588   2.488  1.7480  0.4130 -0.8544
  260MOL0     H34273   8.854   1.822   2.170  0.8229  1.7752  0.9978
  260MOL0     H34274   9.067   1.953   2.090  0.1825 -1.8306  0.5282
  260MOL0     H34275   9.137   2.038   2.246 -2.9561  3.2422  3.5878
  260MOL0     H34276   8.997   2.197   2.184  3.3391 -0.7022 -1.8698
  260MOL0     H34277   8.894   2.103   2.279 -0.0132  0.7505  0.0504
  260MOL0     H34278   8.889   2.121   1.969 -1.6024 -0.4747 -0.7247
  260MOL0     H34279   8.802   1.993   2.068 -0.2020  0.1552  1.4935
  260MOL0     H34280   8.683   2.183   2.176  0.9245 -2.9132  1.2025
  260MOL0     H34281   8.665   2.198   2.003  0.7927 -2.3735 -0.4499
  260MOL0     H34282   8.906   2.559   2.204 -0.4267  1.1177  1.2577
  260MOL0     H34283   8.771   2.781   2.199 -2.7099  0.8222  0.2642
  260MOL0     H34284   8.207   2.962   2.226 -2.1654  2.2748 -0.3951
  260MOL0     H34285   8.132   3.174   2.172  2.4523 -0.0233  0.8339
  260MOL0     H34286   8.157   3.266   1.738  0.6549 -0.9018  0.5840
  260MOL0     H34287   8.287   3.361   1.793  0.8596  0.6110  1.4760
  260MOL0     H34288   8.153   3.548   1.849 -2.4350 -1.3726  2.3474
  260MOL0     H34289   7.999   3.450   1.831 -1.7639 -1.7870  0.2814
  260MOL0     H34290   8.009   3.432   1.597 -1.4418 -0.6758  2.8489
  260MOL0     H34291   8.166   3.489   1.579 -0.1165 -1.7506  1.7953
  260MOL0     H34292   7.989   3.656   1.505 -2.2668  1.8384  0.9345
  260MOL0     H34293   7.924   3.676   1.670  0.5675  1.4236  0.9802
  260MOL0     H34294   8.157   3.752   1.755  1.0197 -0.8003 -0.6610
  260MOL0     H34295   8.074   3.850   1.649 -0.9085 -0.1206  3.1099
  260MOL0     H34296   8.330   3.674   1.585  3.9707  2.0715 -1.0651
  260MOL0     H34297   8.316   3.855   1.589 -2.9904  1.2663 -2.0380
  260MOL0     H34298   8.175   3.661   1.381 -0.6539  1.2940 -4.4077
  260MOL0     H34299   8.204   3.833   1.379 -0.7133 -1.1085  0.1219
  260MOL0     H34300   8.414   3.619   1.383 -1.7246 -2.0300 -3.4697
  260MOL0     H34301   8.441   3.802   1.375 -4.2948  2.4475  1.6270
  260MOL0     H34302   8.383   3.137   1.805  0.2093 -2.8448 -1.4714
  260MOL0     H34303   8.453   2.928   1.877 -0.3514  0.3988  0.1219
  260MOL0     H34304   8.406   2.554   2.141 -0.4290 -1.5057  1.5398
  260MOL0     H34305   8.533   2.354   2.146  0.7400 -0.3396  1.0416
  260MOL0     H34306   8.026   0.997   2.015  0.9344  1.6479  2.6601
  260MOL0     H34307   7.825   0.953   1.869 -0.8001 -0.2446  2.1373
  260MOL0     H34308   7.296   1.334   1.798 -2.7872  0.0605 -0.5110
  260MOL0     H34309   7.100   1.249   1.678  0.7404  1.2125 -0.9025
  260MOL0     H34310   7.111   0.850   1.634  0.9045  0.6240 -0.5878
  260MOL0     H34311   6.995   0.832   1.502 -0.3066 -0.5462  0.4329
  260MOL0     H34312   6.883   0.833   1.698  3.6791 -1.5719  0.7102
  260MOL0     H34313   6.952   0.984   1.755 -1.6328  0.6957 -0.8675
  260MOL0     H34314   6.852   1.099   1.545  1.7894 -0.1422  0.2175
  260MOL0     H34315   6.740   1.055   1.675  0.5480  1.2457  0.3780
  260MOL0     H34316   6.784   0.904   1.406  1.7810  2.4604 -0.1619
  260MOL0     H34317   6.720   0.809   1.536 -0.6749 -1.4425 -3.7371
  260MOL0     H34318   6.396   1.035   1.404 -0.7202 -0.0245 -0.0409
  260MOL0     H34319   7.317   0.927   1.517 -2.7763 -0.0749  1.3258
  260MOL0     H34320   7.530   1.014   1.614 -0.2082 -0.4960  0.7764
  261MOL0     O34321   3.963  11.347   0.745  0.0838  0.3923 -0.9042
  261MOL0     C34322   3.860  11.356   0.813 -0.2395  0.1291  0.8656
  261MOL0     O34323   3.832  11.454   0.895 -0.3012 -0.3250 -0.3007
  261MOL0     C34324   3.881  11.580   0.877 -0.2818 -0.1361 -0.8700
  261MOL0     C34325   3.932  11.631   0.754  0.2551 -0.3154  0.2609
  261MOL0     C34326   3.982  11.763   0.747 -0.0064  0.6805 -0.2957
  261MOL0     C34327   3.993  11.842   0.864  0.4480 -0.5594  0.8102
  261MOL0     O34328   4.066  11.962   0.850 -0.2837 -0.2545 -0.4788
  261MOL0     C34329   4.105  12.022   0.977  0.1434 -0.1197 -0.1289
  261MOL0     C34330   4.200  12.142   0.961  0.0009 -0.1048  0.1257
  261MOL0     C34331   4.212  12.220   0.829 -0.8449 -0.4238  0.9254
  261MOL0     C34332   4.095  12.321   0.809 -0.1446  0.4334 -0.6067
  261MOL0     C34333   4.072  12.354   0.662  0.1883  0.0475 -1.1741
  261MOL0     C34334   3.953  12.455   0.655  0.5725 -0.1156  0.3679
  261MOL0     C34335   3.925  12.507   0.513 -0.1516  0.1428 -0.3043
  261MOL0     C34336   3.797  12.591   0.519 -0.0450 -1.4320 -0.3458
  261MOL0     N34337   3.683  12.517   0.551  0.2061 -0.3476 -0.1694
  261MOL0     C34338   3.563  12.554   0.604 -0.5057 -0.4663 -0.5044
  261MOL0     C34339   3.489  12.442   0.621 -0.1741 -0.2932 -0.0093
  261MOL0     C34340   3.350  12.424   0.685  0.6304 -0.3193  0.5255
  261MOL0     C34341   3.247  12.494   0.614 -0.2821 -0.3976  0.0743
  261MOL0     C34342   3.250  12.467   0.458  0.3812  0.8964  0.1541
  261MOL0     C34343   3.207  12.317   0.436  0.6547  0.0305 -0.9042
  261MOL0     O34344   3.115  12.303   0.327  0.5388 -0.2800  0.2799
  261MOL0     C34345   3.167  12.292   0.199 -0.0736 -0.8004  0.2877
  261MOL0     C34346   3.090  12.236   0.103 -0.4696  0.0965  0.2531
  261MOL0     C34347   3.131  12.241  -0.031 -0.3247  0.6251  0.4147
  261MOL0     C34348   3.255  12.291  -0.071 -1.1341  0.0086  0.1820
  261MOL0     C34349   3.300  12.261  -0.211 -1.1018 -1.1131 -0.9979
  261MOL0     O34350   3.209  12.180  -0.288  0.3539  0.0604  0.3706
  261MOL0     C34351   3.232  12.141  -0.423  0.1629  0.5079  0.2103
  261MOL0     C34352   3.343  12.170  -0.498 -0.4677  0.6192  0.6375
  261MOL0     C34353   3.345  12.142  -0.635  0.4653  0.3662 -0.2446
  261MOL0     C34354   3.227  12.088  -0.698 -0.5769  0.0096 -1.1552
  261MOL0     O34355   3.226  12.056  -0.834 -0.2479  0.3229 -0.0675
  261MOL0     C34356   3.132  12.126  -0.905  0.1671  0.8232 -0.5094
  261MOL0     C34357   3.215  12.176  -1.020  0.7630  0.0537  0.2584
  261MOL0     C34358   3.135  12.246  -1.121 -0.3050  0.1117 -0.1616
  261MOL0     C34359   3.222  12.299  -1.236 -0.5479 -0.8318  0.4269
  261MOL0     C34360   3.148  12.369  -1.355 -0.2028 -0.5965 -0.7366
  261MOL0     C34361   3.094  12.507  -1.307  0.6378  0.6589 -0.2977
  261MOL0     C34362   3.065  12.586  -1.420  1.3133  0.8715 -0.0025
  261MOL0     C34363   3.043  12.729  -1.373 -0.2395 -0.6404 -0.2736
  261MOL0    Cl34364   3.183  12.798  -1.322 -0.3387 -0.5872 -0.3364
  261MOL0     C34365   3.122  12.048  -0.619  0.2572  0.4510 -1.2775
  261MOL0     C34366   3.121  12.077  -0.476 -0.7953  0.2457  0.3836
  261MOL0     O34367   3.402  12.321  -0.252 -0.3298  0.5221  0.1052
  261MOL0     C34368   3.339  12.348   0.031  0.0800  0.2620 -0.7625
  261MOL0     C34369   3.294  12.335   0.161  0.2211 -0.0068 -0.6907
  261MOL0     N34370   3.548  12.345   0.545 -0.6282 -0.2845 -0.1321
  261MOL0     N34371   3.668  12.385   0.522 -0.0748 -0.1469 -0.2808
  261MOL0     C34372   3.936  11.794   0.987 -1.7930 -0.6504 -0.5197
  261MOL0     C34373   3.879  11.668   0.989 -0.7549  0.4685 -0.5339
  261MOL0     C34374   3.772  11.243   0.808  0.4359 -0.3365 -0.1354
  261MOL0     C34375   3.683  11.219   0.913  0.9858  0.3906 -0.5476
  261MOL0     C34376   3.588  11.112   0.913  0.4782 -0.0177  0.6299
  261MOL0     C34377   3.578  11.034   0.795 -0.8441 -0.1355  0.1819
  261MOL0     O34378   3.485  10.926   0.784 -0.0064 -0.1394  0.3614
  261MOL0     C34379   3.489  10.831   0.675  0.4945  0.0538  0.3908
  261MOL0     C34380   3.371  10.739   0.692  0.5159  0.2192 -0.0855
  261MOL0     C34381   3.392  10.635   0.801 -0.3664 -0.3263 -0.0231
  261MOL0     C34382   3.305  10.504   0.801  0.0013 -0.5724 -0.2497
  261MOL0     C34383   3.163  10.526   0.817 -0.1671 -0.7727 -0.2306
  261MOL0     C34384   3.048  10.566   0.823  0.3091  0.2691  0.5313
  261MOL0     C34385   3.672  11.058   0.693 -0.0850  0.3811 -0.5095
  261MOL0     C34386   3.767  11.157   0.700 -0.3584 -1.0535  0.7007
  261MOL0     H34387   3.934  11.568   0.666 -1.6121  0.4615 -0.3876
  261MOL0     H34388   4.019  11.790   0.649 -1.4796  0.0028 -1.0643
  261MOL0     H34389   4.149  11.948   1.043 -3.0192 -2.2828 -0.2639
  261MOL0     H34390   4.016  12.051   1.033 -0.0779 -2.2954  0.7402
  261MOL0     H34391   4.291  12.092   0.994 -1.1871 -1.3914  1.6726
  261MOL0     H34392   4.175  12.209   1.044  0.2915  1.0515 -0.7051
  261MOL0     H34393   4.222  12.148   0.746 -2.3331  1.0200 -0.5822
  261MOL0     H34394   4.302  12.281   0.823 -2.7509  2.4490 -1.6876
  261MOL0     H34395   4.006  12.275   0.853 -0.4067  0.1968 -1.3766
  261MOL0     H34396   4.095  12.418   0.860  0.7746 -0.1436  0.5520
  261MOL0     H34397   4.047  12.263   0.606  0.0017  0.1652 -1.2857
  261MOL0     H34398   4.161  12.400   0.619  1.0556 -0.4879 -0.0028
  261MOL0     H34399   3.975  12.539   0.721 -0.9347  2.4120 -2.1699
  261MOL0     H34400   3.865  12.402   0.693 -0.2819 -0.3550 -1.8243
  261MOL0     H34401   4.011  12.570   0.489  0.7976  0.4184  3.2281
  261MOL0     H34402   3.919  12.426   0.439 -1.1430  1.0803 -1.2918
  261MOL0     H34403   3.799  12.632   0.417  2.8829  0.6925  0.4233
  261MOL0     H34404   3.805  12.673   0.591 -1.4146  0.0770 -1.7992
  261MOL0     H34405   3.534  12.651   0.645 -0.4221 -0.1904 -1.0838
  261MOL0     H34406   3.356  12.475   0.782  1.3430  3.1880 -1.2000
  261MOL0     H34407   3.335  12.316   0.683  0.1225 -0.2451 -0.3499
  261MOL0     H34408   3.242  12.602   0.634  2.6994 -0.5571  2.5217
  261MOL0     H34409   3.156  12.455   0.661 -0.1136  1.4688  2.1372
  261MOL0     H34410   3.177  12.524   0.400 -5.3582 -4.4530  0.9364
  261MOL0     H34411   3.345  12.494   0.413  2.5905 -3.4392  1.6163
  261MOL0     H34412   3.150  12.278   0.520 -1.2055  1.6322 -1.3616
  261MOL0     H34413   3.293  12.253   0.414  1.0584 -0.2015  1.1414
  261MOL0     H34414   2.985  12.210   0.108 -0.2566 -0.9708 -0.5202
  261MOL0     H34415   3.070  12.187  -0.103 -1.2594  1.5954  0.4551
  261MOL0     H34416   3.431  12.220  -0.459 -0.7783  2.7872 -1.2438
  261MOL0     H34417   3.429  12.162  -0.701  1.0573  0.5540  0.5371
  261MOL0     H34418   3.081  12.200  -0.842  3.2887  1.4970  1.4486
  261MOL0     H34419   3.064  12.049  -0.943  2.3987 -2.4462  1.6454
  261MOL0     H34420   3.267  12.089  -1.060  2.9359  0.7906  1.2857
  261MOL0     H34421   3.291  12.243  -0.977 -2.1528  2.9319  1.3687
  261MOL0     H34422   3.084  12.324  -1.063  1.1304  1.0180 -0.0584
  261MOL0     H34423   3.053  12.188  -1.164  0.2387 -0.3191 -0.6230
  261MOL0     H34424   3.301  12.365  -1.200 -1.6856  0.7505  0.1257
  261MOL0     H34425   3.270  12.209  -1.275  2.0600  0.1714  1.0979
  261MOL0     H34426   3.064  12.309  -1.391 -0.5281 -2.2266  2.3684
  261MOL0     H34427   3.215  12.382  -1.440  2.0841  0.3297  1.0761
  261MOL0     H34428   3.170  12.552  -1.243  0.5771  1.9380 -1.1043
  261MOL0     H34429   2.999  12.501  -1.253  0.4954  1.2112 -0.4878
  261MOL0     H34430   3.147  12.600  -1.490  0.0185  1.9241 -1.3926
  261MOL0     H34431   2.973  12.545  -1.464  0.7730 -0.4353  2.1943
  261MOL0     H34432   2.966  12.730  -1.296 -0.8708 -1.0055 -0.8887
  261MOL0     H34433   3.005  12.794  -1.452 -0.5472  2.9369  2.5521
  261MOL0     H34434   3.029  12.008  -0.658  0.2585 -0.1015 -0.7387
  261MOL0     H34435   3.033  12.056  -0.417 -0.0380 -3.0097  0.5709
  261MOL0     H34436   3.437  12.391   0.017  0.0644  0.4944 -0.1929
  261MOL0     H34437   3.368  12.373   0.230  0.5852  1.5545 -1.8795
  261MOL0     H34438   3.942  11.865   1.068 -0.4132  0.8849 -1.8958
  261MOL0     H34439   3.844  11.632   1.085 -1.1773 -0.6910 -1.1040
  261MOL0     H34440   3.678  11.285   0.998 -0.0001  0.7002 -0.8402
  261MOL0     H34441   3.520  11.103   0.997 -4.1833  1.9104 -2.4766
  261MOL0     H34442   3.575  10.762   0.675 -0.5654 -1.4105  2.7675
  261MOL0     H34443   3.483  10.880   0.578 -1.2840  1.1042  0.9841
  261MOL0     H34444   3.275  10.790   0.706 -0.6718 -1.9123 -0.0191
  261MOL0     H34445   3.345  10.686   0.600 -0.0040  1.6037 -0.7643
  261MOL0     H34446   3.392  10.689   0.896 -1.9822 -0.5304  0.1212
  261MOL0     H34447   3.493  10.601   0.776  0.1204 -0.6477  2.1510
  261MOL0     H34448   3.339  10.447   0.714 -1.4991  1.6066 -2.4148
  261MOL0     H34449   3.335  10.462   0.897 -0.8242 -0.6117 -0.0003
  261MOL0     H34450   2.948  10.602   0.837 -1.1323 -2.1465 -2.3888
  261MOL0     H34451   3.664  10.991   0.608  1.3711 -2.2149  1.2455
  261MOL0     H34452   3.836  11.175   0.619 -1.3935  1.6128  0.3016
  262MOL0     O34453   7.064  11.141   1.554  0.1811 -1.0821 -0.2405
  262MOL0     C34454   7.150  11.173   1.475  0.4825 -0.6468  0.4578
  262MOL0     O34455   7.119  11.236   1.352 -0.1268 -0.6951 -1.0483
  262MOL0     C34456   6.998  11.289   1.322 -0.4322  0.1585 -1.0160
  262MOL0     C34457   6.902  11.209   1.265 -0.0753  0.1833  0.5141
  262MOL0     C34458   6.780  11.269   1.235  0.7961  0.0612 -0.3525
  262MOL0     C34459   6.764  11.412   1.235  0.3924  0.3735 -0.2525
  262MOL0     O34460   6.644  11.465   1.193  0.7115 -0.4742  0.4195
  262MOL0     C34461   6.544  11.458   1.303  0.3083  1.5997  0.0990
  262MOL0     C34462   6.416  11.548   1.292  0.9110  0.2890 -0.6020
  262MOL0     C34463   6.304  11.488   1.374  0.3641  0.6158  0.2048
  262MOL0     C34464   6.164  11.552   1.348 -0.4579 -0.6019  0.2420
  262MOL0     C34465   6.167  11.709   1.315  0.6856 -0.0403 -0.4492
  262MOL0     C34466   6.022  11.764   1.309  0.2549  0.2449  0.2191
  262MOL0     C34467   6.013  11.913   1.360 -0.8296  0.0498  0.0208
  262MOL0     C34468   6.085  12.022   1.271  0.2842 -0.3424  0.6159
  262MOL0     N34469   6.086  12.151   1.335  0.4700 -0.2406 -0.6057
  262MOL0     C34470   6.152  12.201   1.449 -0.2460  0.1724 -0.0780
  262MOL0     C34471   6.088  12.313   1.483  0.0274 -0.4540 -0.1254
  262MOL0     C34472   6.135  12.413   1.586 -0.7214 -0.2568  0.2234
  262MOL0     C34473   6.028  12.445   1.684 -0.2025  0.1482 -0.5745
  262MOL0     C34474   6.060  12.566   1.776 -0.3207  0.9164 -0.4127
  262MOL0     C34475   6.127  12.512   1.909  0.4103 -0.0312 -0.2548
  262MOL0     O34476   6.050  12.413   1.972  0.5392 -0.2595  0.3718
  262MOL0     C34477   6.098  12.342   2.076 -0.8871  0.8658 -0.4674
  262MOL0     C34478   6.026  12.229   2.109 -0.6450 -0.3132 -1.0326
  262MOL0     C34479   6.088  12.133   2.195 -0.3312 -0.8540 -0.0413
  262MOL0     C34480   6.218  12.162   2.248  0.1917  0.1176  0.2922
  262MOL0     C34481   6.305  12.059   2.306 -0.4430 -0.4825  0.2921
  262MOL0     O34482   6.440  12.066   2.271 -0.1341 -0.5463 -0.3263
  262MOL0     C34483   6.509  11.953   2.287  0.1777 -0.4591 -0.1229
  262MOL0     C34484   6.518  11.869   2.182 -0.6587 -0.2367 -0.9309
  262MOL0     C34485   6.611  11.769   2.184 -0.1850  0.5492  0.5159
  262MOL0     C34486   6.701  11.743   2.288  0.3222 -0.1107  0.5488
  262MOL0     O34487   6.768  11.620   2.280 -0.2298  0.2356  0.4360
  262MOL0     C34488   6.899  11.621   2.332 -0.0961 -0.1795  0.3204
  262MOL0     C34489   6.945  11.487   2.383  1.2238 -0.3193  0.5167
  262MOL0     C34490   6.857  11.442   2.507  0.4212 -0.7832  0.2031
  262MOL0     C34491   6.844  11.289   2.522 -0.6788  1.5423  0.4591
  262MOL0     C34492   6.744  11.233   2.623  0.5013  0.5427  0.3011
  262MOL0     C34493   6.604  11.197   2.564  0.3427  0.6490  0.3585
  262MOL0     C34494   6.511  11.102   2.638  0.2574  0.1363 -0.4407
  262MOL0     C34495   6.405  11.020   2.560  0.4906  0.0538  0.3681
  262MOL0    Cl34496   6.330  10.898   2.668  0.2944  0.5199  0.2485
  262MOL0     C34497   6.697  11.837   2.398  0.2068  0.0468  0.0004
  262MOL0     C34498   6.599  11.947   2.392 -0.1557  0.4754 -0.9709
  262MOL0     O34499   6.250  11.958   2.349  0.1182  0.5885 -0.8590
  262MOL0     C34500   6.277  12.280   2.223 -0.5326  0.0617  0.0261
  262MOL0     C34501   6.217  12.370   2.136 -1.2160  0.0906  0.2096
  262MOL0     N34502   5.988  12.327   1.394 -0.5832  0.0185  0.7818
  262MOL0     N34503   5.985  12.234   1.296  0.2213  0.6946  0.1210
  262MOL0     C34504   6.860  11.490   1.286 -0.0978 -0.2744 -0.0853
  262MOL0     C34505   6.980  11.428   1.326 -0.2491 -0.6793 -0.3492
  262MOL0     C34506   7.292  11.147   1.511 -0.2409  0.5171 -0.1776
  262MOL0     C34507   7.389  11.230   1.458  0.1061 -0.2866 -0.1705
  262MOL0     C34508   7.526  11.219   1.487 -0.3740  0.5581  0.2192
  262MOL0     C34509   7.568  11.126   1.580  0.4668  0.2097 -1.5390
  262MOL0     O34510   7.695  11.116   1.639 -0.6980 -0.1765  0.6450
  262MOL0     C34511   7.781  11.234   1.636 -0.2163  0.3351 -0.0559
  262MOL0     C34512   7.927  11.210   1.698  0.4498  0.8894  0.9572
  262MOL0     C34513   8.006  11.134   1.599 -0.7221  0.6655  0.0202
  262MOL0     C34514   8.129  11.073   1.674  0.9222 -0.5318  0.4127
  262MOL0     C34515   8.217  11.003   1.581  0.3690  0.6337  0.5986
  262MOL0     C34516   8.292  10.943   1.507  0.0705 -0.0237  0.3020
  262MOL0     C34517   7.467  11.046   1.641 -0.7346 -0.5808 -0.7894
  262MOL0     C34518   7.328  11.044   1.595 -0.0422 -0.6371 -0.3279
  262MOL0     H34519   6.919  11.103   1.250  4.2282  0.8986 -1.2912
  262MOL0     H34520   6.685  11.220   1.215  2.2836 -4.2219  1.9046
  262MOL0     H34521   6.588  11.481   1.400  0.7335  1.2655 -0.0171
  262MOL0     H34522   6.518  11.353   1.291  1.1562  1.2910  0.8545
  262MOL0     H34523   6.407  11.547   1.183  0.5106  2.3485 -0.6163
  262MOL0     H34524   6.449  11.645   1.331  3.8987 -0.2704 -1.4443
  262MOL0     H34525   6.342  11.473   1.475 -1.5125  0.3412  0.9182
  262MOL0     H34526   6.297  11.384   1.340 -0.4906  0.8300 -0.3099
  262MOL0     H34527   6.127  11.493   1.265 -0.2238 -1.1459  0.5172
  262MOL0     H34528   6.101  11.523   1.433  0.1208 -1.3616  0.4265
  262MOL0     H34529   6.197  11.724   1.211 -1.9190  2.0619 -1.0016
  262MOL0     H34530   6.223  11.761   1.393 -1.2272  1.1690  0.1881
  262MOL0     H34531   5.964  11.705   1.381 -1.2984  3.6997  2.0363
  262MOL0     H34532   5.974  11.753   1.211  1.5503  2.6070 -0.7771
  262MOL0     H34533   5.909  11.949   1.367 -1.1083  0.6531 -4.3580
  262MOL0     H34534   6.052  11.915   1.461 -1.2299 -2.5622  0.2777
  262MOL0     H34535   6.020  12.029   1.184 -1.2569  0.4028  1.7683
  262MOL0     H34536   6.190  11.998   1.250  1.6284  3.3572  2.2232
  262MOL0     H34537   6.243  12.162   1.493  0.1010 -1.3472 -2.0280
  262MOL0     H34538   6.182  12.498   1.536  1.9705 -1.7996 -0.0270
  262MOL0     H34539   6.225  12.363   1.621 -0.6074 -1.1394 -1.2694
  262MOL0     H34540   6.002  12.357   1.744  2.2680 -0.0320  0.3262
  262MOL0     H34541   5.935  12.462   1.628 -0.1618 -1.4234 -1.1634
  262MOL0     H34542   6.130  12.639   1.734 -1.5130  2.8471  0.7718
  262MOL0     H34543   5.971  12.627   1.795 -2.6783 -2.5955  0.8672
  262MOL0     H34544   6.145  12.600   1.971  0.9866  0.5353 -1.1994
  262MOL0     H34545   6.227  12.471   1.893  0.1670  0.0083 -2.1324
  262MOL0     H34546   5.923  12.205   2.084 -1.2417 -0.0447  0.9551
  262MOL0     H34547   6.041  12.035   2.198 -2.8755  0.2936  1.1420
  262MOL0     H34548   6.457  11.879   2.093 -1.3243  0.7825 -0.3681
  262MOL0     H34549   6.602  11.717   2.090  1.0925  0.5397  0.3824
  262MOL0     H34550   6.924  11.692   2.411  0.1263  1.8333 -1.4781
  262MOL0     H34551   6.974  11.642   2.255 -1.4745  1.9800 -0.5199
  262MOL0     H34552   7.045  11.502   2.424  0.4540  2.0915  1.7336
  262MOL0     H34553   6.957  11.410   2.307  1.6517  0.3039 -0.0504
  262MOL0     H34554   6.752  11.459   2.481  0.1483 -2.2431  0.2504
  262MOL0     H34555   6.874  11.502   2.597  1.9428  1.9260 -1.7352
  262MOL0     H34556   6.839  11.241   2.424  0.8393  2.6850 -0.2196
  262MOL0     H34557   6.945  11.266   2.558 -0.3709  0.2983 -1.1125
  262MOL0     H34558   6.725  11.310   2.698  3.2236  1.8427 -0.2102
  262MOL0     H34559   6.780  11.146   2.679  1.6526  0.8447  0.0530
  262MOL0     H34560   6.615  11.141   2.470 -0.6958 -1.0422  1.2051
  262MOL0     H34561   6.538  11.282   2.544  0.1732  0.3242 -0.5232
  262MOL0     H34562   6.579  11.021   2.669 -2.6258 -2.0035  0.7051
  262MOL0     H34563   6.470  11.148   2.728 -2.0094  0.7714 -1.7185
  262MOL0     H34564   6.442  10.963   2.474  0.7100  0.5576  0.1257
  262MOL0     H34565   6.329  11.092   2.527  0.7637  1.0826  1.8979
  262MOL0     H34566   6.758  11.826   2.488  0.3735  3.3478  0.4175
  262MOL0     H34567   6.597  12.019   2.474  0.8001  1.9627 -2.1878
  262MOL0     H34568   6.371  12.312   2.267 -0.7186  0.3286  0.2320
  262MOL0     H34569   6.268  12.463   2.115 -2.8993  1.5813  2.2947
  262MOL0     H34570   6.849  11.598   1.278  0.2680 -0.3556 -2.3736
  262MOL0     H34571   7.057  11.498   1.356 -1.9129  1.6337 -1.2142
  262MOL0     H34572   7.362  11.311   1.390  2.8423  0.5013 -0.4672
  262MOL0     H34573   7.606  11.284   1.454  1.6090 -2.4429 -1.4294
  262MOL0     H34574   7.731  11.302   1.705 -0.1971 -0.1754  0.4640
  262MOL0     H34575   7.798  11.267   1.533 -0.0808 -0.3934 -0.2698
  262MOL0     H34576   7.977  11.301   1.732  4.0270 -0.6494  0.2247
  262MOL0     H34577   7.916  11.147   1.787  1.4965 -2.3688 -1.0464
  262MOL0     H34578   8.039  11.192   1.513 -0.2887 -1.9707 -1.7281
  262MOL0     H34579   7.948  11.049   1.561 -0.6431 -0.2910  1.8725
  262MOL0     H34580   8.185  11.142   1.736 -0.1153  0.9703 -0.2535
  262MOL0     H34581   8.095  11.002   1.750 -1.9849 -0.6194 -0.8316
  262MOL0     H34582   8.375  10.886   1.473  0.9134  0.8843  0.7757
  262MOL0     H34583   7.504  10.989   1.726 -1.7790 -1.3955 -0.8668
  262MOL0     H34584   7.255  10.973   1.634 -0.2684 -0.2201  0.0213
  263MOL0     O34585   9.497   4.242   3.534  0.8635 -0.4451 -0.5669
  263MOL0     C34586   9.519   4.163   3.441 -1.2743 -0.2428  0.1101
  263MOL0     O34587   9.510   4.189   3.309  0.6949 -0.7795 -0.1370
  263MOL0     C34588   9.501   4.313   3.253  0.4885  0.0343  0.2982
  263MOL0     C34589   9.518   4.431   3.327 -0.8923 -0.7068  0.0883
  263MOL0     C34590   9.499   4.556   3.252  0.0194  0.9446 -0.5740
  263MOL0     C34591   9.478   4.554   3.116  0.1070 -0.3227 -0.3069
  263MOL0     O34592   9.487   4.668   3.035  0.1174 -0.2509 -0.2313
  263MOL0     C34593   9.532   4.792   3.077  0.5074 -0.9896  0.5180
  263MOL0     C34594   9.687   4.790   3.065  0.3077 -0.2545  0.6717
  263MOL0     C34595   9.732   4.929   3.117  0.3458  1.1613  0.5407
  263MOL0     C34596   9.669   5.057   3.048  0.0753 -0.3767  0.1715
  263MOL0     C34597   9.740   5.176   3.098 -0.0289 -0.0565 -0.7360
  263MOL0     C34598   9.686   5.305   3.037 -0.5969  0.1254 -1.3468
  263MOL0     C34599   9.728   5.427   3.123 -0.0953 -0.1233 -0.0271
  263MOL0     C34600   9.876   5.456   3.103 -0.3130  0.3753 -0.3862
  263MOL0     N34601   9.908   5.461   2.955  1.0327 -0.4858  0.2177
  263MOL0     C34602   9.906   5.575   2.888 -0.2330  0.1061 -0.3162
  263MOL0     C34603   9.950   5.549   2.763 -0.4352 -0.6748 -0.2989
  263MOL0     C34604   9.991   5.648   2.656 -0.1572 -0.6185 -0.8647
  263MOL0     C34605  10.067   5.774   2.720 -1.1206  0.8448  0.2202
  263MOL0     C34606  10.081   5.886   2.613  0.3027 -0.0410 -0.3791
  263MOL0     C34607   9.959   5.989   2.615 -0.1747 -0.0807  0.6320
  263MOL0     O34608   9.855   5.923   2.538 -0.4420 -0.2266 -1.2057
  263MOL0     C34609   9.722   5.948   2.566 -1.5978  0.1174 -0.8634
  263MOL0     C34610   9.634   5.843   2.550  0.3534  0.8799  0.1458
  263MOL0     C34611   9.487   5.858   2.560 -0.2599  0.5158 -0.4960
  263MOL0     C34612   9.444   5.986   2.602 -0.0191 -0.1647  0.8448
  263MOL0     C34613   9.299   6.016   2.598 -0.7228 -0.0824  0.2858
  263MOL0     O34614   9.217   5.926   2.638 -0.5609  0.1177 -0.5448
  263MOL0     C34615   9.083   5.947   2.649  0.2991 -0.2066 -0.3158
  263MOL0     C34616   9.021   6.031   2.557  0.0571  0.1453 -0.2713
  263MOL0     C34617   8.890   6.059   2.573  0.0517  0.0450 -0.1330
  263MOL0     C34618   8.815   6.016   2.679 -0.3152  0.6029  0.3314
  263MOL0     O34619   8.685   6.059   2.687 -0.2750 -0.4899  1.0230
  263MOL0     C34620   8.676   6.131   2.813  0.2776 -0.0788 -0.0065
  263MOL0     C34621   8.530   6.147   2.842  0.0865  0.6864  0.4090
  263MOL0     C34622   8.469   6.018   2.900  0.4618 -0.6177 -1.5735
  263MOL0     C34623   8.321   6.036   2.934 -0.6765 -1.2241  0.1492
  263MOL0     C34624   8.252   5.938   3.035  0.5114  0.4092 -0.7327
  263MOL0     C34625   8.279   5.985   3.173 -0.0299  0.3080  0.1428
  263MOL0     C34626   8.217   5.892   3.289 -0.5981 -0.0671 -1.2379
  263MOL0     C34627   8.222   5.956   3.431  0.2611 -0.1575  0.0442
  263MOL0    Cl34628   8.112   5.872   3.543  0.0256  0.2046 -0.5001
  263MOL0     C34629   8.874   5.917   2.759  0.6647  0.5066  0.5953
  263MOL0     C34630   9.003   5.883   2.744  0.2200  0.1340 -0.0655
  263MOL0     O34631   9.275   6.131   2.566  1.0567  0.0667 -0.8415
  263MOL0     C34632   9.535   6.089   2.621  0.6082  1.3274  0.3208
  263MOL0     C34633   9.673   6.075   2.601 -0.6907 -0.0219 -0.5850
  263MOL0     N34634   9.990   5.416   2.762  0.1584  0.2975 -0.1599
  263MOL0     N34635   9.954   5.365   2.875  0.3814 -0.5020 -0.5615
  263MOL0     C34636   9.445   4.436   3.046 -0.7858 -0.0458 -0.8871
  263MOL0     C34637   9.461   4.315   3.116 -0.3574 -0.6647 -0.6366
  263MOL0     C34638   9.551   4.028   3.477  0.0563 -0.2114  1.0664
  263MOL0     C34639   9.540   3.916   3.385 -0.2892  0.1178  0.0528
  263MOL0     C34640   9.559   3.786   3.444 -0.6641 -0.0488 -0.1986
  263MOL0     C34641   9.601   3.764   3.576  0.0618  0.1923  0.9232
  263MOL0     O34642   9.645   3.637   3.614  0.2499 -0.1049 -0.3411
  263MOL0     C34643   9.566   3.517   3.597  0.8121 -0.3254 -0.6977
  263MOL0     C34644   9.510   3.482   3.732 -0.4152 -0.2328  0.6658
  263MOL0     C34645   9.596   3.388   3.820 -0.3818  0.2718  0.5179
  263MOL0     C34646   9.640   3.246   3.774  1.1267 -0.1008  0.2798
  263MOL0     C34647   9.660   3.173   3.893 -0.3861  0.9293 -0.1723
  263MOL0     C34648   9.676   3.115   4.001  0.6719  0.4098  0.5395
  263MOL0     C34649   9.614   3.870   3.655  0.0619  0.7955  0.4784
  263MOL0     C34650   9.574   3.997   3.615  0.3032 -0.0822  0.1596
  263MOL0     H34651   9.563   4.433   3.425 -0.4974  0.8862 -0.0926
  263MOL0     H34652   9.510   4.651   3.304 -0.2215  0.1721  0.9644
  263MOL0     H34653   9.502   4.818   3.179  1.0571 -0.6686  0.6018
  263MOL0     H34654   9.491   4.870   3.013  1.5161  1.7460  2.9797
  263MOL0     H34655   9.719   4.785   2.960 -0.0915 -4.1427  0.6076
  263MOL0     H34656   9.737   4.705   3.111  0.0703 -1.1039 -0.5822
  263MOL0     H34657   9.840   4.939   3.104  0.7941 -0.2302  2.7176
  263MOL0     H34658   9.721   4.932   3.226  1.4502 -2.2167  0.8673
  263MOL0     H34659   9.666   5.062   2.938  0.9300 -1.2299  0.0917
  263MOL0     H34660   9.563   5.056   3.076 -0.7991 -3.9338 -2.4098
  263MOL0     H34661   9.842   5.162   3.064  0.0825  1.4342 -1.0815
  263MOL0     H34662   9.747   5.177   3.207  2.8553  2.2055 -0.8172
  263MOL0     H34663   9.577   5.293   3.044 -0.3048 -2.3633  3.8726
  263MOL0     H34664   9.710   5.305   2.931 -1.6837 -0.2450 -1.6050
  263MOL0     H34665   9.666   5.515   3.105 -0.0640 -0.2388 -0.7166
  263MOL0     H34666   9.708   5.405   3.229  0.5129  2.3901  0.6658
  263MOL0     H34667   9.932   5.379   3.157  1.7594  1.1898 -1.2594
  263MOL0     H34668   9.906   5.547   3.157  0.3084 -1.1074  1.9098
  263MOL0     H34669   9.864   5.669   2.923  0.5202  1.4292 -2.7188
  263MOL0     H34670   9.894   5.683   2.620 -2.6101 -3.3955  2.3714
  263MOL0     H34671  10.045   5.612   2.568  1.7238 -1.8391  0.6990
  263MOL0     H34672  10.167   5.732   2.737 -0.2475  1.3865 -3.0304
  263MOL0     H34673  10.026   5.801   2.818 -0.9910  0.9800  0.2373
  263MOL0     H34674  10.182   5.925   2.625  0.7001 -1.8665  4.8042
  263MOL0     H34675  10.077   5.836   2.516  2.8054 -1.8830  0.3737
  263MOL0     H34676   9.978   6.076   2.552  0.2283 -1.2960 -1.0198
  263MOL0     H34677   9.930   6.017   2.716 -2.0641 -2.0988  0.7378
  263MOL0     H34678   9.672   5.745   2.521 -0.6706  0.6193 -0.3621
  263MOL0     H34679   9.409   5.782   2.552 -0.0890  0.5252 -3.2243
  263MOL0     H34680   9.088   6.062   2.478  1.1475 -0.5740  0.3412
  263MOL0     H34681   8.840   6.128   2.506 -0.0538  0.3675  0.2725
  263MOL0     H34682   8.718   6.228   2.785 -0.5608  0.8283  1.7285
  263MOL0     H34683   8.737   6.091   2.894  1.7503  1.9113 -0.0397
  263MOL0     H34684   8.478   6.165   2.747 -0.3632 -0.6977  0.3693
  263MOL0     H34685   8.519   6.230   2.913 -1.9992  2.3617 -1.6984
  263MOL0     H34686   8.522   5.997   2.994 -2.5167 -4.6172 -0.5354
  263MOL0     H34687   8.476   5.932   2.833  1.9395 -1.5274 -0.3232
  263MOL0     H34688   8.304   6.141   2.961 -0.8931 -1.8823  2.8881
  263MOL0     H34689   8.263   6.016   2.843  2.5570  0.5383 -2.5058
  263MOL0     H34690   8.290   5.839   3.009  2.6645  0.3674  2.0615
  263MOL0     H34691   8.143   5.948   3.029  0.2049  2.9106  3.9825
  263MOL0     H34692   8.246   6.088   3.185 -1.9439 -0.4498  2.1402
  263MOL0     H34693   8.388   5.982   3.182 -0.2017  0.6420  3.2827
  263MOL0     H34694   8.112   5.886   3.260 -1.0009  1.8088 -0.3216
  263MOL0     H34695   8.269   5.796   3.297 -0.5887 -0.0966 -1.6532
  263MOL0     H34696   8.197   6.059   3.408  4.4255  0.7298 -1.2944
  263MOL0     H34697   8.320   5.947   3.480 -0.5321  3.0521  2.5422
  263MOL0     H34698   8.819   5.858   2.832  0.4726  1.0006  0.8612
  263MOL0     H34699   9.044   5.812   2.815 -1.2149  0.0049  0.6740
  263MOL0     H34700   9.500   6.186   2.653  3.2694  2.3844  0.2618
  263MOL0     H34701   9.736   6.163   2.594 -0.5599 -0.1500 -1.1068
  263MOL0     H34702   9.414   4.439   2.942 -0.8928  0.5556 -0.8419
  263MOL0     H34703   9.449   4.222   3.060 -1.8520  0.7464 -2.8235
  263MOL0     H34704   9.510   3.915   3.281 -2.1314 -2.0962  0.5291
  263MOL0     H34705   9.535   3.708   3.372  1.0917 -1.2214  0.4090
  263MOL0     H34706   9.617   3.424   3.567 -4.7422 -4.0429 -0.1953
  263MOL0     H34707   9.486   3.524   3.523  2.3991 -0.9175 -2.5640
  263MOL0     H34708   9.491   3.582   3.774 -0.9699  0.5359 -1.3177
  263MOL0     H34709   9.414   3.431   3.720 -0.9154 -0.4742  4.3346
  263MOL0     H34710   9.528   3.386   3.905  0.1194 -0.4673  0.9065
  263MOL0     H34711   9.691   3.437   3.844 -0.1592 -0.1781  0.5735
  263MOL0     H34712   9.553   3.204   3.723 -0.3993  1.7270  1.2230
  263MOL0     H34713   9.735   3.252   3.721  0.6664  1.4170 -0.4397
  263MOL0     H34714   9.714   3.058   4.084  1.1160 -1.6420 -0.9917
  263MOL0     H34715   9.645   3.863   3.759  1.9838  0.0888 -0.1033
  263MOL0     H34716   9.571   4.080   3.684 -0.0954  2.1287 -2.3488
  264MOL0     O34717   6.251   1.634  10.548 -0.3822 -0.7346  0.6205
  264MOL0     C34718   6.162   1.677  10.473  0.0291 -0.3804 -0.1946
  264MOL0     O34719   6.046   1.616  10.442  0.4426  0.4521 -0.4991
  264MOL0     C34720   6.014   1.481  10.472 -0.7135 -0.3295 -0.9164
  264MOL0     C34721   5.882   1.446  10.454  0.3536  0.0884 -0.3940
  264MOL0     C34722   5.835   1.320  10.490 -1.4256  0.1514 -0.3421
  264MOL0     C34723   5.922   1.216  10.537 -1.1975 -0.2207  0.4534
  264MOL0     O34724   5.873   1.106  10.591 -0.3052  0.1798  0.5702
  264MOL0     C34725   5.806   1.011  10.513 -0.7055  0.0621  0.6638
  264MOL0     C34726   5.896   0.918  10.430  1.0652 -0.4418  0.2757
  264MOL0     C34727   5.977   0.829  10.522  0.9099 -0.0507  1.3053
  264MOL0     C34728   6.009   0.686  10.464 -0.1864 -0.7647  0.1540
  264MOL0     C34729   6.128   0.679  10.366 -0.3502  0.5465 -1.1094
  264MOL0     C34730   6.093   0.754  10.238 -0.7161 -0.5381 -0.7083
  264MOL0     C34731   5.968   0.703  10.164  0.0775  0.6243  0.4239
  264MOL0     C34732   5.961   0.716  10.009 -0.2796 -0.0164 -0.3654
  264MOL0     N34733   6.017   0.856   9.980  0.0639 -0.1904  0.1105
  264MOL0     C34734   5.963   0.966  10.046  0.2757 -0.1195 -0.5130
  264MOL0     C34735   6.031   1.074   9.994  0.0333  0.4049  1.1610
  264MOL0     C34736   6.005   1.221  10.035 -0.2148  0.5099  0.5319
  264MOL0     C34737   6.111   1.326  10.005  0.6346  0.1344  0.6128
  264MOL0     C34738   6.097   1.383   9.871  0.0112 -0.7582  0.0095
  264MOL0     C34739   6.192   1.509   9.878 -0.1109  0.7504  0.3055
  264MOL0     O34740   6.217   1.558   9.741  0.0631  0.0263 -0.1736
  264MOL0     C34741   6.116   1.576   9.650  0.2001  0.2339 -0.5445
  264MOL0     C34742   5.984   1.617   9.682  0.9511  0.2671 -0.3167
  264MOL0     C34743   5.900   1.651   9.576 -0.1117 -0.4768 -0.7876
  264MOL0     C34744   5.935   1.653   9.447 -0.1682 -0.0846 -0.1697
  264MOL0     C34745   5.838   1.708   9.350 -0.3478  0.2031 -0.6448
  264MOL0     O34746   5.719   1.761   9.404  0.0758  0.0028  0.3309
  264MOL0     C34747   5.633   1.832   9.324 -0.0012  0.1772 -0.8088
  264MOL0     C34748   5.491   1.829   9.362 -0.2290 -0.1937  0.9716
  264MOL0     C34749   5.395   1.912   9.302 -0.7063 -0.4425  0.6498
  264MOL0     C34750   5.434   1.992   9.193 -0.2672  0.1948  0.3564
  264MOL0     O34751   5.347   2.070   9.121  0.2036 -0.2405 -0.5137
  264MOL0     C34752   5.207   2.039   9.127  1.0699  0.6360  0.2369
  264MOL0     C34753   5.119   2.107   9.236  0.1126 -0.0191  0.6860
  264MOL0     C34754   5.010   2.006   9.283 -0.3851 -0.8436  0.0140
  264MOL0     C34755   4.905   1.986   9.177 -0.0971 -0.2079 -0.7188
  264MOL0     C34756   4.781   1.906   9.230 -0.4195  0.3594 -0.0081
  264MOL0     C34757   4.692   1.844   9.118 -0.7033 -0.1898 -1.4361
  264MOL0     C34758   4.611   1.956   9.046 -0.3923  0.5160  0.2918
  264MOL0     C34759   4.527   1.886   8.934 -1.2623 -0.5420  0.7340
  264MOL0    Cl34760   4.429   2.015   8.858 -0.3556  0.1967  0.4526
  264MOL0     C34761   5.566   1.998   9.151 -0.5997  1.1391 -0.9597
  264MOL0     C34762   5.661   1.915   9.219  0.5057 -0.0381  0.2868
  264MOL0     O34763   5.872   1.714   9.234  0.0570  0.3304  0.6408
  264MOL0     C34764   6.065   1.610   9.413 -0.5019  0.4924 -0.8966
  264MOL0     C34765   6.149   1.570   9.517  0.0027 -0.4526  0.4681
  264MOL0     N34766   6.138   1.024   9.918 -0.6092  0.2305  0.2312
  264MOL0     N34767   6.114   0.897   9.896 -0.2363  0.2526  0.2099
  264MOL0     C34768   6.061   1.248  10.552  0.2862 -0.0416  0.2140
  264MOL0     C34769   6.110   1.374  10.514  0.4164  0.1289 -0.0972
  264MOL0     C34770   6.179   1.809  10.410  0.3520 -0.2599  0.1336
  264MOL0     C34771   6.249   1.925  10.463  0.0945  0.0835  1.1132
  264MOL0     C34772   6.251   2.050  10.398  1.1771  0.2456 -0.0114
  264MOL0     C34773   6.180   2.069  10.277 -0.1702  0.1313 -0.0622
  264MOL0     O34774   6.183   2.181  10.200  0.2893  0.2948  0.6999
  264MOL0     C34775   6.227   2.306  10.258 -0.1141  0.4136  0.3318
  264MOL0     C34776   6.335   2.347  10.161  0.0795  0.4872 -0.4961
  264MOL0     C34777   6.358   2.491  10.132 -0.6331 -0.0994 -0.2373
  264MOL0     C34778   6.458   2.509  10.015 -0.3170  0.4635 -0.5091
  264MOL0     C34779   6.504   2.647  10.021 -0.1486  0.4346 -0.4478
  264MOL0     C34780   6.556   2.751  10.025  0.9297 -1.1324 -0.6634
  264MOL0     C34781   6.113   1.954  10.223  0.5242 -0.8556  0.8585
  264MOL0     C34782   6.104   1.832  10.289  0.5235  0.2768  0.1796
  264MOL0     H34783   5.825   1.535  10.428  3.6542  2.4095 -0.3890
  264MOL0     H34784   5.729   1.304  10.474 -1.1560 -1.5813 -0.5330
  264MOL0     H34785   5.746   1.060  10.435  1.7912  1.0646 -0.7212
  264MOL0     H34786   5.738   0.948  10.571 -0.6267 -0.8873 -0.2535
  264MOL0     H34787   5.962   0.983  10.371 -1.3191  0.2424 -1.7997
  264MOL0     H34788   5.829   0.868  10.360  0.8185 -0.8050  0.7713
  264MOL0     H34789   5.914   0.801  10.606 -1.7091 -0.5334 -0.7043
  264MOL0     H34790   6.065   0.884  10.556 -0.5568  2.2009  1.6920
  264MOL0     H34791   6.023   0.616  10.547 -3.6548 -1.2868  0.4148
  264MOL0     H34792   5.925   0.639  10.413  1.1632 -2.2571 -0.7980
  264MOL0     H34793   6.143   0.571  10.349  0.1294  0.7525 -2.1047
  264MOL0     H34794   6.225   0.712  10.404  0.0898 -1.4058 -0.3814
  264MOL0     H34795   6.186   0.748  10.182  0.4805  1.9339  0.8600
  264MOL0     H34796   6.096   0.860  10.263 -2.1493 -1.2357  3.2636
  264MOL0     H34797   5.961   0.595  10.177  3.0942  0.1549 -1.1018
  264MOL0     H34798   5.878   0.745  10.209  0.3549 -1.1877  2.8765
  264MOL0     H34799   5.856   0.708   9.979  0.2053 -3.8669 -1.6000
  264MOL0     H34800   6.008   0.636   9.950 -2.6609 -0.7655 -1.3782
  264MOL0     H34801   5.877   0.976  10.112  1.3872 -0.3515  1.0233
  264MOL0     H34802   5.973   1.216  10.140 -1.9846  0.0758  0.0018
  264MOL0     H34803   5.921   1.251   9.972  3.7088  2.8063 -4.2573
  264MOL0     H34804   6.210   1.278  10.005  1.0490  0.9147 -0.9232
  264MOL0     H34805   6.106   1.402  10.084  0.6551  3.6311 -2.4843
  264MOL0     H34806   6.139   1.318   9.794 -0.2609 -0.1331 -0.6847
  264MOL0     H34807   5.995   1.413   9.845  0.2538  1.7308  1.5606
  264MOL0     H34808   6.295   1.476   9.895  1.2370  3.9179 -0.8538
  264MOL0     H34809   6.143   1.584   9.940 -1.9079  1.2339 -1.5972
  264MOL0     H34810   5.942   1.616   9.782 -0.8553 -3.0215 -0.9470
  264MOL0     H34811   5.807   1.691   9.614  0.3262 -0.8741  0.8038
  264MOL0     H34812   5.470   1.761   9.444 -1.7103  1.2493  1.8561
  264MOL0     H34813   5.294   1.918   9.340 -0.8794  0.6175  0.0700
  264MOL0     H34814   5.203   1.930   9.138  0.6310  0.5805 -0.4150
  264MOL0     H34815   5.164   2.050   9.027 -2.7990  3.1005  1.9015
  264MOL0     H34816   5.067   2.191   9.189 -1.2797 -1.1715  0.0712
  264MOL0     H34817   5.174   2.154   9.318  0.0739  0.7987  0.2573
  264MOL0     H34818   4.964   2.046   9.375 -2.5625  0.7353 -1.6448
  264MOL0     H34819   5.050   1.907   9.304 -4.1085 -3.0524 -2.2051
  264MOL0     H34820   4.881   2.088   9.148 -1.0698 -0.0320  0.5968
  264MOL0     H34821   4.943   1.938   9.087 -0.4318 -1.2844 -0.3037
  264MOL0     H34822   4.707   1.973   9.275 -1.4233  0.3153 -1.5037
  264MOL0     H34823   4.826   1.833   9.298 -0.2859 -0.6812 -1.1698
  264MOL0     H34824   4.629   1.774   9.175  0.9213  2.5395  4.4155
  264MOL0     H34825   4.750   1.785   9.047 -0.9984 -1.4286 -0.6872
  264MOL0     H34826   4.537   2.001   9.113 -1.6243  0.5748 -1.0659
  264MOL0     H34827   4.688   2.023   9.007  0.4707  0.9808  2.6249
  264MOL0     H34828   4.457   1.815   8.979  0.9584 -1.3831  3.0617
  264MOL0     H34829   4.602   1.834   8.873 -0.0725  0.6308  1.1520
  264MOL0     H34830   5.587   2.072   9.075 -0.0622 -0.2981 -2.2745
  264MOL0     H34831   5.760   1.931   9.179 -0.6027  0.6643 -2.4537
  264MOL0     H34832   6.099   1.593   9.311  0.0426 -3.6050 -0.2367
  264MOL0     H34833   6.248   1.533   9.492 -0.8554 -2.2270 -0.4789
  264MOL0     H34834   6.122   1.173  10.602 -1.5369 -0.0043  2.7370
  264MOL0     H34835   6.211   1.401  10.541 -0.8305  3.4907  1.7646
  264MOL0     H34836   6.321   1.906  10.542  2.4307 -0.6999 -1.0508
  264MOL0     H34837   6.311   2.127  10.445  2.0010 -1.6285  2.1865
  264MOL0     H34838   6.266   2.303  10.360  1.8833 -5.8796 -0.2018
  264MOL0     H34839   6.140   2.373  10.257  1.5093  2.6588  1.0628
  264MOL0     H34840   6.423   2.294  10.197  1.4567  3.4651  0.9227
  264MOL0     H34841   6.312   2.303  10.064  1.1385 -0.0876 -0.5049
  264MOL0     H34842   6.395   2.542  10.221  0.7122 -4.0707  1.7258
  264MOL0     H34843   6.262   2.539  10.109 -0.9965 -1.6214 -2.2283
  264MOL0     H34844   6.544   2.442  10.025 -2.4499 -2.1475  2.0045
  264MOL0     H34845   6.407   2.493   9.920  1.2085  0.6181 -1.3903
  264MOL0     H34846   6.594   2.850  10.044 -0.4006  0.3292 -4.5053
  264MOL0     H34847   6.076   1.954  10.121  0.2912 -2.1992  0.9267
  264MOL0     H34848   6.059   1.752  10.231 -0.0585 -0.4423  1.5859
  265MOL0     O34849   4.582   5.497   7.691  0.8448  0.3710 -0.8025
  265MOL0     C34850   4.617   5.601   7.749  0.1955 -0.6105 -0.1026
  265MOL0     O34851   4.706   5.695   7.706  0.2321  0.6912 -0.1812
  265MOL0     C34852   4.768   5.674   7.584 -0.4654  0.3062 -0.3079
  265MOL0     C34853   4.712   5.717   7.462 -0.5034 -1.2542  0.8511
  265MOL0     C34854   4.773   5.697   7.334  0.4393 -0.1756 -0.0371
  265MOL0     C34855   4.889   5.630   7.331  1.0821  0.0247 -0.0941
  265MOL0     O34856   4.944   5.606   7.204 -0.2004  0.2127 -0.2894
  265MOL0     C34857   4.970   5.466   7.183  0.3005  0.6559  0.2118
  265MOL0     C34858   4.987   5.446   7.036 -0.0667  0.3854 -0.1946
  265MOL0     C34859   4.934   5.311   6.986  0.8544 -0.7757  0.3453
  265MOL0     C34860   5.007   5.198   7.063 -0.9481 -0.5783  0.8169
  265MOL0     C34861   4.987   5.065   6.983  0.4516 -0.2762 -0.4420
  265MOL0     C34862   5.062   4.935   7.034 -0.2635  0.4289  0.4894
  265MOL0     C34863   4.962   4.815   7.061 -1.4201 -0.4127  1.2576
  265MOL0     C34864   4.948   4.796   7.212 -0.3661  0.2284 -0.1510
  265MOL0     N34865   4.868   4.904   7.282 -0.1392  0.1248 -0.1023
  265MOL0     C34866   4.732   4.920   7.285  0.0171 -0.0359  0.1997
  265MOL0     C34867   4.716   5.038   7.350  0.4399 -0.2273  0.3548
  265MOL0     C34868   4.586   5.104   7.366  0.3245  0.1111 -0.3973
  265MOL0     C34869   4.522   5.076   7.509 -0.4802  0.6166  0.8366
  265MOL0     C34870   4.589   5.178   7.609 -0.4101 -0.0218  1.0208
  265MOL0     C34871   4.545   5.151   7.751  1.0376  0.4354 -0.3411
  265MOL0     O34872   4.641   5.199   7.850 -0.4916 -0.0376  0.0453
  265MOL0     C34873   4.611   5.166   7.981  0.0254  0.0888  0.4151
  265MOL0     C34874   4.482   5.171   8.039 -0.0123  0.3886 -0.6572
  265MOL0     C34875   4.465   5.118   8.171  0.0843 -0.7174 -1.4133
  265MOL0     C34876   4.570   5.082   8.252 -0.2455 -0.0234  0.0134
  265MOL0     C34877   4.552   5.033   8.389 -0.1390 -0.2772 -0.7828
  265MOL0     O34878   4.663   5.044   8.464 -0.1845  0.0325 -0.8276
  265MOL0     C34879   4.650   5.035   8.600 -0.0308 -0.6566 -0.3826
  265MOL0     C34880   4.659   5.156   8.674 -0.0271  0.2577  0.7860
  265MOL0     C34881   4.659   5.150   8.819  0.1830 -0.2471 -1.1414
  265MOL0     C34882   4.650   5.028   8.880  0.6246  0.4102  0.0145
  265MOL0     O34883   4.663   5.017   9.015  1.1449  0.0986  0.0010
  265MOL0     C34884   4.758   5.094   9.094  0.2615 -0.1798  0.0614
  265MOL0     C34885   4.669   5.195   9.168  0.1278 -0.3734  0.9780
  265MOL0     C34886   4.580   5.131   9.276  0.2473  0.5349 -0.6838
  265MOL0     C34887   4.491   5.234   9.364 -0.0889  0.0972 -0.4610
  265MOL0     C34888   4.509   5.211   9.511 -0.0846 -0.5585 -0.3147
  265MOL0     C34889   4.416   5.308   9.605  0.0802 -0.0240 -0.1531
  265MOL0     C34890   4.275   5.242   9.615  0.9748 -0.3792 -0.3212
  265MOL0     C34891   4.261   5.144   9.728  0.7741  0.0218 -0.0651
  265MOL0    Cl34892   4.079   5.095   9.732 -0.1362 -0.7688 -0.3138
  265MOL0     C34893   4.640   4.907   8.809  1.4785  0.0247 -0.2618
  265MOL0     C34894   4.624   4.919   8.672 -0.0437 -0.0522  1.4435
  265MOL0     O34895   4.448   4.986   8.430  0.8129  0.3702  0.3978
  265MOL0     C34896   4.705   5.103   8.209 -0.5095  0.0296 -0.6359
  265MOL0     C34897   4.723   5.134   8.069 -0.2546 -0.3738 -0.5933
  265MOL0     N34898   4.840   5.100   7.383 -0.3100  1.6433  0.2599
  265MOL0     N34899   4.927   5.008   7.351  0.1679 -0.1477 -0.6948
  265MOL0     C34900   4.960   5.607   7.449 -0.1622 -0.2400 -0.5832
  265MOL0     C34901   4.900   5.633   7.576 -0.1839 -0.7930  0.9442
  265MOL0     C34902   4.551   5.622   7.883 -0.0461 -0.7564  0.5582
  265MOL0     C34903   4.558   5.756   7.940 -0.0773  0.3140 -0.3415
  265MOL0     C34904   4.520   5.770   8.075 -0.6299 -0.5915 -0.2939
  265MOL0     C34905   4.466   5.663   8.151 -1.1841  0.8618 -0.6500
  265MOL0     O34906   4.450   5.673   8.290 -0.5306  1.3116  0.1231
  265MOL0     C34907   4.494   5.791   8.358  0.9285 -0.6334 -0.2413
  265MOL0     C34908   4.638   5.775   8.408  0.5766 -0.7418  0.0319
  265MOL0     C34909   4.667   5.685   8.534 -0.3858  0.0485 -0.3162
  265MOL0     C34910   4.808   5.715   8.595  0.5445  0.0908  0.1525
  265MOL0     C34911   4.822   5.643   8.726  0.6593  0.1479  0.6219
  265MOL0     C34912   4.805   5.597   8.834 -0.0963  0.4179 -0.2342
  265MOL0     C34913   4.448   5.539   8.094 -0.5503  0.7010  0.3401
  265MOL0     C34914   4.491   5.519   7.963  0.0677 -0.6946 -0.2234
  265MOL0     H34915   4.611   5.758   7.464  0.4668  1.3547  3.3344
  265MOL0     H34916   4.740   5.721   7.234 -0.1273  1.9613  0.5943
  265MOL0     H34917   4.891   5.405   7.226  0.8812  0.3318  0.8292
  265MOL0     H34918   5.054   5.411   7.226 -2.3941 -4.5768 -0.4286
  265MOL0     H34919   5.093   5.436   7.011  0.6034  0.4667  2.3661
  265MOL0     H34920   4.943   5.521   6.969  0.4555  0.4190 -0.5076
  265MOL0     H34921   4.971   5.319   6.884  2.6760 -1.4019  0.9300
  265MOL0     H34922   4.825   5.304   6.973  0.8997  0.9326 -1.3398
  265MOL0     H34923   5.115   5.214   7.071 -1.1056  0.7020  0.5927
  265MOL0     H34924   4.971   5.176   7.164 -0.7219 -2.6393  0.4927
  265MOL0     H34925   5.016   5.076   6.878 -0.0257 -0.3735 -0.5862
  265MOL0     H34926   4.880   5.045   6.973 -0.0124  2.1728 -1.0866
  265MOL0     H34927   5.115   4.958   7.127 -1.4502  0.6452  1.1264
  265MOL0     H34928   5.131   4.903   6.955 -0.6891 -4.2689  1.7719
  265MOL0     H34929   4.872   4.827   7.000 -2.3464 -2.1772  2.2027
  265MOL0     H34930   5.007   4.732   7.006  0.0525  2.2050 -1.8102
  265MOL0     H34931   5.053   4.778   7.238 -0.7239 -3.0893 -0.6182
  265MOL0     H34932   4.905   4.696   7.222 -0.3687  0.3949  1.9628
  265MOL0     H34933   4.654   4.850   7.257  0.7103 -0.7676  0.0666
  265MOL0     H34934   4.515   5.063   7.294 -0.7808  2.1030 -0.5223
  265MOL0     H34935   4.607   5.210   7.351  4.2203 -0.8586 -3.5822
  265MOL0     H34936   4.533   4.972   7.539 -2.0912 -0.0475 -0.7007
  265MOL0     H34937   4.415   5.097   7.496 -0.4945  0.1705  0.2270
  265MOL0     H34938   4.695   5.163   7.584 -1.0190  3.4125 -6.3433
  265MOL0     H34939   4.572   5.284   7.585  2.3443  0.5967  1.4182
  265MOL0     H34940   4.527   5.044   7.766  1.8909  0.0821 -1.6769
  265MOL0     H34941   4.448   5.190   7.782  0.4192 -0.4738 -1.1009
  265MOL0     H34942   4.395   5.210   7.987  0.6707 -0.5568 -2.5853
  265MOL0     H34943   4.368   5.100   8.216  1.3821 -3.2510  0.6198
  265MOL0     H34944   4.678   5.250   8.623 -1.8171 -2.1689 -5.3206
  265MOL0     H34945   4.664   5.245   8.871 -1.4368 -0.1088 -1.2005
  265MOL0     H34946   4.833   5.145   9.032  2.1091  0.1311  2.4059
  265MOL0     H34947   4.805   5.043   9.179  1.2774 -1.3823 -1.1651
  265MOL0     H34948   4.590   5.233   9.104  0.1315 -1.6880  0.1483
  265MOL0     H34949   4.732   5.272   9.214  3.3343  0.5130 -4.1276
  265MOL0     H34950   4.647   5.099   9.356 -3.0876 -2.4407  1.1919
  265MOL0     H34951   4.517   5.051   9.237 -2.0085  1.0869  1.5866
  265MOL0     H34952   4.537   5.331   9.345  1.4977  0.2156  3.2542
  265MOL0     H34953   4.384   5.224   9.341 -1.2066  1.7423  3.3077
  265MOL0     H34954   4.611   5.247   9.528 -1.7794  3.9650  1.5129
  265MOL0     H34955   4.497   5.104   9.530 -2.5675 -0.7745 -2.5798
  265MOL0     H34956   4.403   5.409   9.565 -0.4195 -0.2739 -0.6337
  265MOL0     H34957   4.455   5.320   9.707 -3.6801 -0.2844  1.4878
  265MOL0     H34958   4.203   5.320   9.644  2.9094  0.3770  2.9895
  265MOL0     H34959   4.246   5.186   9.526  0.3313  0.6028 -0.7424
  265MOL0     H34960   4.293   5.192   9.821 -0.5534 -0.3067  0.5721
  265MOL0     H34961   4.331   5.062   9.707  3.7248  2.1991  0.5818
  265MOL0     H34962   4.638   4.816   8.868 -0.5871 -0.4327 -0.9498
  265MOL0     H34963   4.612   4.828   8.614 -2.1619  0.3049  1.2216
  265MOL0     H34964   4.798   5.097   8.264 -2.0399  0.8598  2.2407
  265MOL0     H34965   4.824   5.157   8.037 -0.5982  1.7867 -0.3110
  265MOL0     H34966   5.064   5.576   7.438  0.0017  0.8008 -2.3915
  265MOL0     H34967   4.963   5.620   7.663  2.4662 -0.4533 -0.8099
  265MOL0     H34968   4.612   5.833   7.886  2.1377 -3.0490 -3.3616
  265MOL0     H34969   4.535   5.873   8.103 -2.5250 -0.5020  0.5387
  265MOL0     H34970   4.439   5.801   8.452 -0.5196 -3.0256 -0.7478
  265MOL0     H34971   4.475   5.876   8.291 -1.0572 -1.5784 -0.9604
  265MOL0     H34972   4.696   5.732   8.326  0.2780 -3.7706  1.2973
  265MOL0     H34973   4.688   5.869   8.436  0.1379 -1.0862  2.1186
  265MOL0     H34974   4.669   5.583   8.495 -1.3968 -1.7323  3.7324
  265MOL0     H34975   4.600   5.705   8.619  0.6005  1.1606  0.2229
  265MOL0     H34976   4.887   5.678   8.530 -0.5395 -1.8674 -0.1389
  265MOL0     H34977   4.829   5.820   8.619 -0.4473  0.5597 -0.9214
  265MOL0     H34978   4.795   5.545   8.927  1.1616  0.0058 -0.3076
  265MOL0     H34979   4.417   5.452   8.152  1.3408 -1.8370 -2.1398
  265MOL0     H34980   4.466   5.424   7.917 -3.5721  1.3586 -3.0179
  266MOL0     O34981   8.890   5.489   9.209  0.2445  0.4269 -0.3567
  266MOL0     C34982   8.948   5.462   9.104 -0.3382  0.1556  0.0464
  266MOL0     O34983   9.064   5.525   9.052  0.0413  0.0349 -0.5822
  266MOL0     C34984   9.130   5.619   9.131  0.1396  0.1543 -0.1469
  266MOL0     C34985   9.061   5.726   9.199  0.8844  0.3135 -0.5272
  266MOL0     C34986   9.130   5.826   9.275  0.8650  0.2521  0.2834
  266MOL0     C34987   9.264   5.821   9.265  0.2013 -0.3234  0.0062
  266MOL0     O34988   9.340   5.899   9.349  1.4286 -0.0236 -0.6263
  266MOL0     C34989   9.316   5.889   9.488 -0.9895 -0.5467  1.1254
  266MOL0     C34990   9.335   6.031   9.533  0.2073 -0.8351  0.2669
  266MOL0     C34991   9.252   6.128   9.452  0.5268  0.1875  0.9430
  266MOL0     C34992   9.262   6.265   9.521  0.8715  0.4301  0.3699
  266MOL0     C34993   9.187   6.381   9.459 -0.6681 -0.4858 -0.1545
  266MOL0     C34994   9.234   6.515   9.521 -0.4941  0.4933 -0.4206
  266MOL0     C34995   9.190   6.618   9.425 -0.2160 -0.8937 -0.0968
  266MOL0     C34996   9.242   6.757   9.481 -0.0565 -0.5754  0.1740
  266MOL0     N34997   9.190   6.806   9.604 -0.5882  0.2015 -0.3549
  266MOL0     C34998   9.060   6.856   9.634 -0.7250  0.2469 -0.2911
  266MOL0     C34999   9.067   6.868   9.771 -0.0424 -0.5246  0.0683
  266MOL0     C35000   8.959   6.953   9.840 -0.4980 -0.1671 -0.1486
  266MOL0     C35001   8.944   6.918   9.985  0.5727  0.4562  0.4364
  266MOL0     C35002   8.833   6.820  10.008 -0.9448  0.9155  0.0794
  266MOL0     C35003   8.863   6.679   9.956  0.8658  0.8357 -0.5519
  266MOL0     O35004   8.803   6.668   9.827 -0.6890  0.2102 -0.2417
  266MOL0     C35005   8.820   6.550   9.760  0.3900 -0.8131 -0.1189
  266MOL0     C35006   8.894   6.431   9.794 -1.5492  0.2179  0.5842
  266MOL0     C35007   8.919   6.327   9.702 -0.2441 -0.5494 -0.6062
  266MOL0     C35008   8.851   6.333   9.578  0.4963  0.5969  0.3002
  266MOL0     C35009   8.870   6.233   9.487 -0.2895  0.1859  1.0302
  266MOL0     O35010   8.849   6.272   9.350 -0.3376  0.8350 -0.1259
  266MOL0     C35011   8.828   6.180   9.248  0.2356 -0.3160 -0.1236
  266MOL0     C35012   8.833   6.242   9.115  0.1547  0.8794  0.7600
  266MOL0     C35013   8.799   6.166   8.999  0.1020  0.5951  0.6377
  266MOL0     C35014   8.769   6.038   9.018 -0.1713  0.1575 -0.6878
  266MOL0     O35015   8.757   5.962   8.902 -0.7517 -0.7578  0.1164
  266MOL0     C35016   8.780   5.814   8.905 -0.4989  0.6009  0.5045
  266MOL0     C35017   8.836   5.760   8.769  0.2239  0.2536  0.7515
  266MOL0     C35018   8.723   5.723   8.672 -0.2853 -0.7167 -0.7610
  266MOL0     C35019   8.777   5.650   8.556  0.7499  0.5619  0.3655
  266MOL0     C35020   8.677   5.629   8.449  0.0391 -0.3490  0.9020
  266MOL0     C35021   8.727   5.536   8.337 -0.1802 -0.7075 -0.4840
  266MOL0     C35022   8.620   5.541   8.225  0.9113  0.7022  1.0017
  266MOL0     C35023   8.677   5.492   8.087 -0.6724 -0.2391  0.2240
  266MOL0    Cl35024   8.655   5.317   8.050  0.8577  0.0729  0.1053
  266MOL0     C35025   8.755   5.983   9.142  0.5674 -0.5974 -0.5749
  266MOL0     C35026   8.787   6.049   9.262  0.0471 -0.6526 -0.0055
  266MOL0     O35027   8.897   6.127   9.534  0.4273  0.4779  0.3436
  266MOL0     C35028   8.771   6.440   9.547  0.7990 -0.3995  0.6235
  266MOL0     C35029   8.757   6.554   9.638  0.1260 -0.1760 -0.0506
  266MOL0     N35030   9.188   6.815   9.826 -0.1175 -0.8174  0.0593
  266MOL0     N35031   9.264   6.783   9.723 -0.1609 -0.9392 -0.7524
  266MOL0     C35032   9.332   5.740   9.180 -0.5917 -0.1109  0.3603
  266MOL0     C35033   9.269   5.638   9.109 -0.0376  0.4816 -0.0819
  266MOL0     C35034   8.885   5.364   9.020 -0.0627  0.7528 -1.2663
  266MOL0     C35035   8.918   5.331   8.889  0.6789 -0.2451  1.6176
  266MOL0     C35036   8.847   5.235   8.814 -0.2227 -0.4289 -1.4643
  266MOL0     C35037   8.744   5.169   8.883  0.8801  0.7307 -0.0941
  266MOL0     O35038   8.667   5.077   8.818 -1.1012 -0.1506  0.1368
  266MOL0     C35039   8.652   5.093   8.682  0.1297 -0.1680  0.9698
  266MOL0     C35040   8.516   5.036   8.619 -1.1524 -0.2967 -0.2881
  266MOL0     C35041   8.496   5.130   8.487 -0.7776 -0.6368 -0.0015
  266MOL0     C35042   8.359   5.117   8.427 -1.1146 -0.4974  1.1006
  266MOL0     C35043   8.352   4.981   8.372 -0.4295 -0.4968 -0.2233
  266MOL0     C35044   8.323   4.887   8.305 -1.1111  0.1391 -0.7951
  266MOL0     C35045   8.709   5.188   9.017 -0.9338 -0.5882 -1.1281
  266MOL0     C35046   8.788   5.288   9.081  0.7593 -0.1940 -0.4406
  266MOL0     H35047   8.953   5.734   9.205  0.8972 -0.3905  1.2408
  266MOL0     H35048   9.078   5.903   9.331 -4.2659 -0.9259 -2.3057
  266MOL0     H35049   9.392   5.828   9.537  1.5699  2.1517  0.8108
  266MOL0     H35050   9.216   5.850   9.511 -0.5264 -2.2188  0.4664
  266MOL0     H35051   9.442   6.051   9.527 -0.3625  3.3739  1.5272
  266MOL0     H35052   9.310   6.035   9.639  0.8705  3.1410  0.4138
  266MOL0     H35053   9.149   6.091   9.445  0.5062  0.5116 -0.9544
  266MOL0     H35054   9.284   6.141   9.348 -2.4747 -0.8346 -0.2121
  266MOL0     H35055   9.238   6.262   9.627 -0.6321  1.9174  0.1030
  266MOL0     H35056   9.370   6.281   9.528  1.0990 -1.4549  1.9584
  266MOL0     H35057   9.078   6.374   9.463 -0.9156  2.2583 -0.2745
  266MOL0     H35058   9.213   6.381   9.353  1.0417 -4.7047  0.0701
  266MOL0     H35059   9.343   6.516   9.533 -0.3175  1.0484 -1.8145
  266MOL0     H35060   9.188   6.528   9.619  0.6101 -0.1017  0.2056
  266MOL0     H35061   9.235   6.605   9.327 -1.8891 -2.8092 -0.6917
  266MOL0     H35062   9.081   6.622   9.417 -0.0610  0.1605 -2.2220
  266MOL0     H35063   9.236   6.834   9.403  2.5427 -0.0341  0.4321
  266MOL0     H35064   9.351   6.758   9.490  0.0250  4.7563  1.6144
  266MOL0     H35065   8.980   6.913   9.590  1.3866  3.3115 -0.4513
  266MOL0     H35066   8.862   6.950   9.789 -0.0448 -0.5208 -1.0215
  266MOL0     H35067   8.995   7.056   9.829 -0.1897 -0.3228 -0.6409
  266MOL0     H35068   8.917   7.011  10.035  0.3220 -0.4024  1.9828
  266MOL0     H35069   9.034   6.876  10.033  1.7730  1.1043 -1.1526
  266MOL0     H35070   8.822   6.829  10.116  2.6961  4.1082  0.4120
  266MOL0     H35071   8.741   6.855   9.960 -1.0886  0.3759 -0.0477
  266MOL0     H35072   8.821   6.613  10.032  1.0234  1.8984  0.5015
  266MOL0     H35073   8.972   6.669   9.952  0.8776 -0.0897  1.2032
  266MOL0     H35074   8.943   6.417   9.890 -1.6748 -0.5796  0.5405
  266MOL0     H35075   8.978   6.242   9.734  1.0114  1.2674  2.3816
  266MOL0     H35076   8.865   6.343   9.092  0.6847  0.3688 -0.9284
  266MOL0     H35077   8.823   6.189   8.896  0.9138 -2.0773  0.1563
  266MOL0     H35078   8.687   5.768   8.942 -0.5086  2.4198  3.0216
  266MOL0     H35079   8.868   5.793   8.966 -0.1212  3.0770  0.8964
  266MOL0     H35080   8.902   5.677   8.795 -0.6162  0.4774  4.1949
  266MOL0     H35081   8.902   5.837   8.729  1.0288 -1.5595 -1.5710
  266MOL0     H35082   8.664   5.808   8.637  0.5254 -0.2677 -1.0728
  266MOL0     H35083   8.661   5.650   8.725 -1.2692  0.9417  0.4505
  266MOL0     H35084   8.856   5.721   8.528 -0.3149  1.4466 -0.5342
  266MOL0     H35085   8.816   5.556   8.594 -1.7501 -1.3405 -1.4363
  266MOL0     H35086   8.630   5.722   8.419  0.6164 -0.6519 -1.1056
  266MOL0     H35087   8.594   5.570   8.489 -1.6272  1.1147 -0.3139
  266MOL0     H35088   8.747   5.433   8.369  1.8280 -0.3140 -0.3215
  266MOL0     H35089   8.822   5.580   8.305  1.0553 -1.6383  1.6160
  266MOL0     H35090   8.533   5.484   8.257  0.2627  2.5487  2.7738
  266MOL0     H35091   8.565   5.635   8.213 -1.3417 -0.2826  2.8692
  266MOL0     H35092   8.785   5.512   8.090 -0.9758  3.0885 -3.4892
  266MOL0     H35093   8.649   5.552   8.000  0.9123  0.2007 -0.0183
  266MOL0     H35094   8.727   5.878   9.144  0.8878 -0.7483  3.1454
  266MOL0     H35095   8.765   5.997   9.354  0.3946 -0.9231 -0.0745
  266MOL0     H35096   8.714   6.435   9.454  0.2837 -2.7701  0.9976
  266MOL0     H35097   8.713   6.650   9.612 -1.9010 -0.5320  1.7776
  266MOL0     H35098   9.438   5.759   9.166 -1.1113  1.7784 -1.5146
  266MOL0     H35099   9.321   5.572   9.039 -0.5999  0.2343 -0.2671
  266MOL0     H35100   9.011   5.370   8.847  0.7490 -0.2941  1.7244
  266MOL0     H35101   8.876   5.225   8.710  1.2559  0.8010 -1.2061
  266MOL0     H35102   8.736   5.052   8.625 -0.6495 -0.3703 -0.0745
  266MOL0     H35103   8.649   5.199   8.658  0.3843 -0.5574 -0.9603
  266MOL0     H35104   8.532   4.929   8.600 -1.4757 -0.7803  1.9154
  266MOL0     H35105   8.435   5.044   8.692 -1.5157  1.0518 -0.8230
  266MOL0     H35106   8.577   5.118   8.415 -0.0908  2.4036  0.1487
  266MOL0     H35107   8.509   5.232   8.523  0.8843 -0.0020 -2.1722
  266MOL0     H35108   8.277   5.127   8.498 -1.2449  0.3678  0.8459
  266MOL0     H35109   8.367   5.197   8.352  0.6418  0.9338  2.7044
  266MOL0     H35110   8.300   4.804   8.241  3.6497 -1.1372 -1.2761
  266MOL0     H35111   8.625   5.145   9.071  0.2716 -3.2220 -1.2270
  266MOL0     H35112   8.741   5.294   9.179 -0.1348 -0.4997 -0.8433
  267MOL0     O35113   2.817   6.460   3.715 -0.0164  0.0061 -0.5950
  267MOL0     C35114   2.758   6.485   3.605 -0.4249 -1.0224  0.2113
  267MOL0     O35115   2.784   6.582   3.517  0.0575 -0.0490  0.2094
  267MOL0     C35116   2.860   6.688   3.545 -0.6873 -0.5113  0.5353
  267MOL0     C35117   2.810   6.775   3.640  0.4329 -0.0465  0.9891
  267MOL0     C35118   2.891   6.885   3.672  0.4967 -0.0820  0.0607
  267MOL0     C35119   3.010   6.922   3.608  0.0976  1.2821  0.0792
  267MOL0     O35120   3.094   7.027   3.650  0.4203  0.1588  0.9890
  267MOL0     C35121   3.197   6.975   3.737  0.5543  0.1281 -1.3204
  267MOL0     C35122   3.273   7.095   3.801 -0.5035  0.3234 -0.3349
  267MOL0     C35123   3.205   7.152   3.925 -0.0652  0.4561 -1.2953
  267MOL0     C35124   3.293   7.254   4.000 -0.2716  0.0678  1.0533
  267MOL0     C35125   3.350   7.371   3.918  0.4683  1.0541 -0.5602
  267MOL0     C35126   3.244   7.446   3.839 -0.1702  0.6193 -0.8588
  267MOL0     C35127   3.292   7.586   3.808  0.5178  0.6217  0.2390
  267MOL0     C35128   3.254   7.694   3.905 -0.2120  0.2381 -0.4522
  267MOL0     N35129   3.367   7.717   4.004  0.4706  0.0484 -0.5400
  267MOL0     C35130   3.482   7.779   3.970  0.0239 -0.5441  0.8497
  267MOL0     C35131   3.552   7.797   4.084 -0.3792 -0.3027 -0.3714
  267MOL0     C35132   3.694   7.868   4.089  1.3288 -0.2489  0.4127
  267MOL0     C35133   3.761   7.871   4.230  0.8286  0.7308  0.0472
  267MOL0     C35134   3.898   7.932   4.234 -0.7211 -0.2610  0.1109
  267MOL0     C35135   3.959   7.926   4.373  0.3659 -0.0958  0.7942
  267MOL0     O35136   4.088   7.989   4.381  0.0746 -0.5516  0.1998
  267MOL0     C35137   4.091   8.126   4.363 -0.0602 -1.0672  1.0008
  267MOL0     C35138   4.070   8.216   4.472  0.4795  0.9707 -0.4027
  267MOL0     C35139   4.086   8.353   4.451  1.4533  0.0297  0.4124
  267MOL0     C35140   4.112   8.407   4.322 -0.3787 -1.2039 -0.2862
  267MOL0     C35141   4.116   8.553   4.302 -0.0911  0.8053 -0.0062
  267MOL0     O35142   4.159   8.590   4.182  0.0568 -0.0349 -0.3959
  267MOL0     C35143   4.150   8.724   4.149  0.2472 -0.5553 -0.4949
  267MOL0     C35144   4.251   8.816   4.175  0.4107  0.1782  0.6408
  267MOL0     C35145   4.242   8.942   4.137 -0.4412  0.9794  0.1265
  267MOL0     C35146   4.145   8.992   4.053  0.1774 -0.3418 -0.5023
  267MOL0     O35147   4.155   9.115   4.006 -0.2586  0.0945  0.2337
  267MOL0     C35148   4.036   9.202   4.017  0.0829 -0.0917  0.5669
  267MOL0     C35149   4.074   9.344   4.000  0.0078  0.2909  0.4961
  267MOL0     C35150   4.148   9.392   4.122 -0.5063 -0.0702  0.2091
  267MOL0     C35151   4.181   9.542   4.121  0.6693  0.3137 -0.2526
  267MOL0     C35152   4.307   9.562   4.034  0.0841  0.3464  0.7064
  267MOL0     C35153   4.365   9.697   4.066 -0.4709  0.5577  0.7916
  267MOL0     C35154   4.371   9.781   3.935 -0.8319  0.2277 -0.0882
  267MOL0     C35155   4.246   9.833   3.891 -0.9163 -0.4956 -0.3094
  267MOL0    Cl35156   4.286   9.940   3.756 -0.4004 -0.7692 -0.3300
  267MOL0     C35157   4.031   8.904   4.035  0.7372  0.0296 -0.1004
  267MOL0     C35158   4.040   8.769   4.073  0.8851 -0.1684 -1.1797
  267MOL0     O35159   4.073   8.635   4.389  0.1372 -0.2317  0.1059
  267MOL0     C35160   4.144   8.322   4.218 -0.9348 -0.3995  0.2595
  267MOL0     C35161   4.130   8.180   4.240 -0.3980 -1.1773 -0.2831
  267MOL0     N35162   3.475   7.749   4.182  1.0285 -0.3491  0.1864
  267MOL0     N35163   3.362   7.695   4.136 -0.3121 -0.5606  0.5313
  267MOL0     C35164   3.054   6.827   3.522 -0.2980 -0.0685  0.9714
  267MOL0     C35165   2.982   6.710   3.485  0.1701 -0.1853  0.9837
  267MOL0     C35166   2.653   6.384   3.579 -0.2513 -0.8861  0.4209
  267MOL0     C35167   2.614   6.355   3.442  0.3987  0.2834 -0.3555
  267MOL0     C35168   2.511   6.262   3.420  0.8290 -0.3967  1.2377
  267MOL0     C35169   2.428   6.222   3.524 -0.8133  0.2083 -0.6312
  267MOL0     O35170   2.334   6.142   3.481  0.5150 -0.2636  0.4060
  267MOL0     C35171   2.207   6.128   3.548 -0.5946  0.8548  0.3082
  267MOL0     C35172   2.120   6.262   3.521 -0.5518  0.4523  0.8300
  267MOL0     C35173   2.078   6.289   3.375 -0.5848 -0.4228 -0.5353
  267MOL0     C35174   1.970   6.194   3.328 -0.0284  0.1427  0.8890
  267MOL0     C35175   1.844   6.251   3.379  0.0579 -0.1560 -0.1258
  267MOL0     C35176   1.745   6.305   3.411  0.2634  0.5728 -0.0737
  267MOL0     C35177   2.462   6.263   3.654 -0.3263 -0.0378 -0.0175
  267MOL0     C35178   2.574   6.336   3.679 -0.0654  0.4326  0.0848
  267MOL0     H35179   2.719   6.748   3.692 -0.3484  1.5365  0.5032
  267MOL0     H35180   2.854   6.950   3.751 -2.1863 -3.1854  1.5658
  267MOL0     H35181   3.267   6.915   3.678  1.5137 -1.8371  1.5740
  267MOL0     H35182   3.157   6.912   3.817 -0.9705  2.7339  0.1019
  267MOL0     H35183   3.295   7.163   3.717 -0.4381 -1.6029 -1.9526
  267MOL0     H35184   3.372   7.059   3.832  0.0446  0.9213 -1.3067
  267MOL0     H35185   3.177   7.074   3.996  1.5356  1.2970  0.3629
  267MOL0     H35186   3.110   7.199   3.898 -1.6032 -2.3643 -1.1203
  267MOL0     H35187   3.232   7.299   4.079 -1.4038  0.7404 -0.1672
  267MOL0     H35188   3.375   7.197   4.044 -0.8548 -1.2140  0.5050
  267MOL0     H35189   3.424   7.328   3.849 -0.9783 -4.1667  0.6884
  267MOL0     H35190   3.398   7.443   3.983  2.9422 -0.8583 -0.1021
  267MOL0     H35191   3.155   7.455   3.902  0.3957 -0.8063  0.1891
  267MOL0     H35192   3.231   7.395   3.743  2.4343  0.7267 -1.3326
  267MOL0     H35193   3.401   7.586   3.800  0.5921  0.3339  1.0702
  267MOL0     H35194   3.246   7.600   3.710  0.0395  0.3907  0.4260
  267MOL0     H35195   3.167   7.664   3.964  0.9575 -2.1646  0.2138
  267MOL0     H35196   3.224   7.778   3.843 -1.5225 -0.1187 -0.3292
  267MOL0     H35197   3.509   7.815   3.872 -3.0835  3.2338  1.1271
  267MOL0     H35198   3.690   7.972   4.055 -4.3401  0.4497  2.1612
  267MOL0     H35199   3.762   7.813   4.023  1.6796  0.3004  0.3071
  267MOL0     H35200   3.769   7.763   4.250 -3.0569  0.3451  0.2749
  267MOL0     H35201   3.687   7.920   4.294  1.3226 -0.1710  1.3487
  267MOL0     H35202   3.961   7.885   4.159 -1.3511 -2.5816  0.9428
  267MOL0     H35203   3.895   8.035   4.199 -1.1821 -0.0342  0.7890
  267MOL0     H35204   3.976   7.819   4.388  1.7101 -0.2603 -1.5450
  267MOL0     H35205   3.878   7.959   4.439 -0.5756 -2.2267  0.8157
  267MOL0     H35206   4.067   8.173   4.572  1.4179  0.0560 -0.7466
  267MOL0     H35207   4.091   8.423   4.534  1.0160  0.1027  0.3799
  267MOL0     H35208   4.327   8.781   4.245 -0.6795 -1.8911  0.9030
  267MOL0     H35209   4.319   9.002   4.184  2.2462 -1.1927 -1.1994
  267MOL0     H35210   3.998   9.187   4.118 -1.1147 -2.1064 -0.1349
  267MOL0     H35211   3.968   9.177   3.935 -0.1643  1.1720  0.3578
  267MOL0     H35212   3.979   9.398   3.995 -0.3776 -0.5175 -2.3638
  267MOL0     H35213   4.125   9.364   3.906  2.3008 -0.3212  1.5415
  267MOL0     H35214   4.239   9.332   4.131 -2.2199 -2.6910  1.1911
  267MOL0     H35215   4.098   9.369   4.217  1.6802 -1.0242  1.1990
  267MOL0     H35216   4.105   9.608   4.077  0.9799  0.3192 -0.7877
  267MOL0     H35217   4.205   9.579   4.221  1.1151 -1.0657  0.1719
  267MOL0     H35218   4.275   9.544   3.930 -1.0546 -2.5384  1.4477
  267MOL0     H35219   4.375   9.479   4.057 -1.5285 -1.3198 -0.2153
  267MOL0     H35220   4.470   9.679   4.091 -1.0954 -2.0889  1.8313
  267MOL0     H35221   4.330   9.751   4.155  2.3160  2.5840  0.8217
  267MOL0     H35222   4.437   9.867   3.949  0.3263 -1.0265  3.2544
  267MOL0     H35223   4.412   9.726   3.850  0.1963  0.9510 -0.0878
  267MOL0     H35224   4.198   9.888   3.972 -2.0013 -0.7655 -0.7530
  267MOL0     H35225   4.179   9.752   3.862 -2.5057  1.5230 -2.6850
  267MOL0     H35226   3.938   8.933   3.988  0.3676 -3.0045 -1.4303
  267MOL0     H35227   3.960   8.696   4.059 -0.7958  1.3555  0.1207
  267MOL0     H35228   4.198   8.359   4.132  2.9426  2.8500  3.6441
  267MOL0     H35229   4.156   8.116   4.155 -5.3029  0.4535 -3.4388
  267MOL0     H35230   3.141   6.853   3.461 -1.3656  0.4517 -0.3873
  267MOL0     H35231   3.013   6.636   3.412 -0.5279  1.9596 -1.6614
  267MOL0     H35232   2.663   6.405   3.359 -0.1781 -0.2211 -1.0057
  267MOL0     H35233   2.477   6.229   3.323 -1.3413  1.2863  1.3333
  267MOL0     H35234   2.213   6.113   3.656 -0.2968 -1.2172  0.0436
  267MOL0     H35235   2.161   6.041   3.499 -1.7666  2.4642 -1.6323
  267MOL0     H35236   2.029   6.259   3.582 -2.8105  1.6780 -2.1633
  267MOL0     H35237   2.168   6.353   3.559 -1.2715  0.7947  0.9388
  267MOL0     H35238   2.166   6.282   3.311  0.4261  3.2292  0.1783
  267MOL0     H35239   2.058   6.397   3.381 -1.2220 -0.5981  2.5746
  267MOL0     H35240   1.967   6.189   3.219 -0.4466  4.2201  0.5651
  267MOL0     H35241   1.978   6.088   3.354  1.9929 -0.2756 -1.1790
  267MOL0     H35242   1.657   6.348   3.454  0.2860  0.0217  0.5600
  267MOL0     H35243   2.403   6.240   3.742 -0.5204 -0.8106 -0.3388
  267MOL0     H35244   2.598   6.366   3.780  0.3302  0.8599 -0.1301
  268MOL0     O35245   7.035  10.257   2.787 -0.0510  0.2799 -1.0058
  268MOL0     C35246   7.153  10.242   2.749 -0.0129  0.2569 -1.5146
  268MOL0     O35247   7.209  10.302   2.643  0.3787 -0.4484 -0.8554
  268MOL0     C35248   7.138  10.396   2.575  0.2806  0.1259 -1.1875
  268MOL0     C35249   7.124  10.392   2.445 -0.1143  0.1013 -0.1589
  268MOL0     C35250   7.023  10.468   2.384 -1.0567 -0.0580  0.9254
  268MOL0     C35251   6.953  10.571   2.450 -0.1762  0.8084  0.1926
  268MOL0     O35252   6.873  10.654   2.382  0.4356  0.1319 -0.2544
  268MOL0     C35253   6.737  10.674   2.441 -0.5439  0.1830  0.7246
  268MOL0     C35254   6.637  10.577   2.396  0.5472 -0.5087 -0.2519
  268MOL0     C35255   6.596  10.600   2.248 -0.5089 -0.2916  0.2038
  268MOL0     C35256   6.483  10.698   2.223  0.0641  0.8204 -0.2550
  268MOL0     C35257   6.434  10.674   2.078  0.9324 -1.2587 -0.6529
  268MOL0     C35258   6.317  10.770   2.060  0.6756 -0.5056  0.8784
  268MOL0     C35259   6.278  10.768   1.909  0.1194  0.4133  0.0366
  268MOL0     C35260   6.183  10.878   1.864 -0.2951  0.0267 -1.0916
  268MOL0     N35261   6.237  11.021   1.851  0.6964 -0.5174 -1.0894
  268MOL0     C35262   6.211  11.119   1.939 -0.5965  0.2947  0.4073
  268MOL0     C35263   6.296  11.225   1.892  1.0696 -0.1808  0.4257
  268MOL0     C35264   6.312  11.357   1.962  0.2451 -0.5993 -0.2059
  268MOL0     C35265   6.452  11.405   1.978  1.0157 -0.4695 -1.7220
  268MOL0     C35266   6.528  11.313   2.083  0.9420 -0.6827  0.8950
  268MOL0     C35267   6.500  11.343   2.232  0.2055  0.4278  0.8853
  268MOL0     O35268   6.378  11.292   2.288  0.5713 -0.5042  0.5565
  268MOL0     C35269   6.277  11.385   2.305 -0.5865 -0.3703  0.1250
  268MOL0     C35270   6.287  11.524   2.328 -0.7216 -0.3309  0.4661
  268MOL0     C35271   6.176  11.609   2.333 -0.2939  0.2205 -0.1108
  268MOL0     C35272   6.050  11.554   2.329  2.0836 -0.5662 -0.1698
  268MOL0     C35273   5.926  11.643   2.325 -0.3015 -0.4367  0.4294
  268MOL0     O35274   5.936  11.776   2.279 -0.3166 -0.4059  0.2245
  268MOL0     C35275   5.833  11.857   2.283  0.2694 -0.1440  0.6113
  268MOL0     C35276   5.824  11.957   2.377  0.2206  0.4654  0.2099
  268MOL0     C35277   5.715  12.042   2.383 -0.2657  0.1509 -0.6004
  268MOL0     C35278   5.621  12.040   2.292 -0.2019  1.2452 -0.2250
  268MOL0     O35279   5.521  12.130   2.296 -0.2228 -0.0248 -0.1586
  268MOL0     C35280   5.490  12.200   2.185 -0.1481 -0.4876 -0.2239
  268MOL0     C35281   5.340  12.197   2.150  0.0252  0.0765  0.3357
  268MOL0     C35282   5.248  12.227   2.272  0.5230  0.6839  0.2147
  268MOL0     C35283   5.284  12.349   2.349 -0.1575  0.2555  0.0037
  268MOL0     C35284   5.188  12.361   2.466 -0.5904 -0.0174 -0.2835
  268MOL0     C35285   5.057  12.433   2.417  0.6212 -0.6173 -0.0818
  268MOL0     C35286   4.943  12.459   2.519 -0.3301 -0.8273  0.1661
  268MOL0     C35287   4.820  12.505   2.449  0.3211  0.8849  0.4175
  268MOL0    Cl35288   4.751  12.379   2.338 -0.4465 -0.1816  0.0924
  268MOL0     C35289   5.617  11.937   2.196  0.7262 -0.1915  0.5098
  268MOL0     C35290   5.729  11.847   2.192  0.9696 -1.0323  0.2864
  268MOL0     O35291   5.827  11.594   2.357 -0.4791 -0.0232 -0.4259
  268MOL0     C35292   6.034  11.418   2.324  0.3015 -0.0640 -0.1887
  268MOL0     C35293   6.149  11.336   2.311 -0.3660 -0.6110  0.3457
  268MOL0     N35294   6.377  11.177   1.788  0.1811 -0.1391 -0.0417
  268MOL0     N35295   6.340  11.053   1.775 -0.1601 -0.0292  1.0568
  268MOL0     C35296   6.978  10.585   2.585  0.1131 -0.1843  0.5978
  268MOL0     C35297   7.072  10.499   2.640 -0.5903  0.0589 -0.1579
  268MOL0     C35298   7.238  10.151   2.833  0.9462 -1.4207  0.2482
  268MOL0     C35299   7.374  10.138   2.819  0.1917  0.8993 -0.6034
  268MOL0     C35300   7.445  10.053   2.904  0.4898 -0.3614 -0.4149
  268MOL0     C35301   7.388   9.990   3.019 -0.8134  0.5406  0.6759
  268MOL0     O35302   7.463   9.906   3.098 -0.3162  0.4315  0.4468
  268MOL0     C35303   7.597   9.870   3.068  0.6509 -1.8598  0.7381
  268MOL0     C35304   7.640   9.756   3.150  0.0602 -0.6933 -0.6187
  268MOL0     C35305   7.650   9.787   3.297  0.1574 -0.4920  0.6363
  268MOL0     C35306   7.675   9.674   3.396 -0.4863  0.3877  0.2740
  268MOL0     C35307   7.814   9.638   3.390  0.7137  0.2095 -0.6729
  268MOL0     C35308   7.933   9.613   3.375 -0.0213  0.3316 -0.6028
  268MOL0     C35309   7.249  10.009   3.038 -0.1224 -0.0780  0.6377
  268MOL0     C35310   7.178  10.098   2.950 -0.0601  1.0616 -0.6899
  268MOL0     H35311   7.190  10.322   2.395 -0.9173 -0.7826 -0.0043
  268MOL0     H35312   7.002  10.467   2.278  2.1921 -1.6472  0.1516
  268MOL0     H35313   6.705  10.776   2.417 -0.6113  0.8482  3.3802
  268MOL0     H35314   6.743  10.664   2.550  0.6191 -1.1213  0.5720
  268MOL0     H35315   6.548  10.599   2.455 -0.0849  0.7383 -1.6152
  268MOL0     H35316   6.672  10.476   2.421 -2.3337 -0.5449  5.1744
  268MOL0     H35317   6.552  10.509   2.206 -1.3522  0.0289  0.3661
  268MOL0     H35318   6.677  10.638   2.186 -0.2392  0.7735  1.1773
  268MOL0     H35319   6.403  10.678   2.295 -0.5090 -1.4294 -1.4361
  268MOL0     H35320   6.515  10.801   2.239 -2.2162  1.3285  1.5050
  268MOL0     H35321   6.407  10.569   2.066  1.5510 -1.1976 -3.1108
  268MOL0     H35322   6.513  10.692   2.004  1.3048  2.6839  0.5086
  268MOL0     H35323   6.334  10.876   2.084 -1.8806  0.3855 -0.8374
  268MOL0     H35324   6.224  10.742   2.111 -0.7434 -1.2613 -1.9637
  268MOL0     H35325   6.365  10.785   1.845 -0.9487 -1.0016 -1.8980
  268MOL0     H35326   6.236  10.669   1.887  3.0944 -0.6473 -1.5018
  268MOL0     H35327   6.098  10.881   1.932  1.2870  2.6450  0.9461
  268MOL0     H35328   6.145  10.838   1.769 -0.8656  0.0652 -0.8795
  268MOL0     H35329   6.126  11.120   2.006 -0.4148  2.7596  0.6874
  268MOL0     H35330   6.270  11.346   2.062  0.2285  1.8397  0.1108
  268MOL0     H35331   6.261  11.437   1.907 -1.4791 -1.3411  0.2558
  268MOL0     H35332   6.453  11.508   2.015  0.8909 -0.2989 -2.1755
  268MOL0     H35333   6.496  11.409   1.878  2.4676 -0.1355 -1.0854
  268MOL0     H35334   6.497  11.208   2.079 -0.3323 -0.4852  3.4227
  268MOL0     H35335   6.631  11.344   2.065 -0.1439  3.0093  0.1149
  268MOL0     H35336   6.515  11.451   2.234  3.0963  0.3279 -3.2577
  268MOL0     H35337   6.578  11.300   2.296  1.7217 -1.7438 -2.1842
  268MOL0     H35338   6.381  11.578   2.333  0.0246 -1.4469 -0.8201
  268MOL0     H35339   6.192  11.716   2.331  1.2018  0.0300 -2.3713
  268MOL0     H35340   5.912  11.961   2.439  0.8893  0.4198 -0.7145
  268MOL0     H35341   5.711  12.119   2.460  1.3537  2.0504 -2.2786
  268MOL0     H35342   5.536  12.144   2.103 -0.8924 -0.8838 -0.3770
  268MOL0     H35343   5.538  12.299   2.192 -0.8952 -0.0494 -1.0938
  268MOL0     H35344   5.317  12.096   2.114 -0.0054  0.8067 -1.7978
  268MOL0     H35345   5.307  12.260   2.068 -0.4950 -1.0360 -0.3400
  268MOL0     H35346   5.249  12.136   2.332 -1.6173  0.4399 -0.0577
  268MOL0     H35347   5.150  12.235   2.224  0.5033 -1.5918 -0.2198
  268MOL0     H35348   5.385  12.344   2.392 -0.0356  4.1829  0.5055
  268MOL0     H35349   5.275  12.426   2.272  0.8582  0.6627  0.2714
  268MOL0     H35350   5.236  12.432   2.535 -3.6385  1.5599  0.3764
  268MOL0     H35351   5.180  12.264   2.517  1.3101  1.0833  2.3627
  268MOL0     H35352   5.022  12.389   2.323  2.0490  3.5768 -2.8661
  268MOL0     H35353   5.095  12.531   2.388 -1.1014  0.1875  0.2618
  268MOL0     H35354   4.920  12.363   2.567  1.3749 -1.5665 -0.3854
  268MOL0     H35355   4.953  12.533   2.599 -0.5779 -0.8008  0.1737
  268MOL0     H35356   4.848  12.598   2.399  1.6089 -0.7503 -2.0872
  268MOL0     H35357   4.739  12.531   2.517 -2.7728  1.4599 -3.1933
  268MOL0     H35358   5.544  11.936   2.116  0.4789  0.4515  0.7245
  268MOL0     H35359   5.739  11.775   2.111  1.9072  0.9011 -1.4231
  268MOL0     H35360   5.934  11.380   2.339  0.6349 -0.8754 -0.0174
  268MOL0     H35361   6.129  11.229   2.314  2.8820 -1.3147  0.4221
  268MOL0     H35362   6.918  10.657   2.640 -3.5680 -1.3363 -1.5566
  268MOL0     H35363   7.090  10.518   2.745  1.4974  3.0026 -0.9326
  268MOL0     H35364   7.424  10.188   2.737 -2.2017  2.4264 -1.2591
  268MOL0     H35365   7.551  10.042   2.886  0.4876 -1.0664 -0.0549
  268MOL0     H35366   7.664   9.954   3.086  0.3656 -1.4346 -0.0964
  268MOL0     H35367   7.609   9.845   2.962  3.1152 -0.0252  0.5144
  268MOL0     H35368   7.574   9.671   3.130 -2.5544  1.1585 -0.4614
  268MOL0     H35369   7.739   9.728   3.112  0.5752 -0.9026  0.8406
  268MOL0     H35370   7.558   9.843   3.319  0.6738  0.3204  0.7618
  268MOL0     H35371   7.731   9.856   3.320  0.6413 -0.8747  0.1037
  268MOL0     H35372   7.640   9.692   3.498  0.6845 -1.8719  1.1397
  268MOL0     H35373   7.620   9.585   3.363  0.7752 -0.5396  0.6200
  268MOL0     H35374   8.027   9.569   3.348 -0.6380 -0.6864 -1.1752
  268MOL0     H35375   7.206   9.968   3.129  1.5646 -0.7470  1.1808
  268MOL0     H35376   7.072  10.111   2.969 -0.5233 -0.7562 -1.7411
  269MOL0     O35377   0.225   0.101   4.168 -0.1964 -0.0361 -0.3195
  269MOL0     C35378   0.143   0.112   4.076 -0.4313  0.2447  0.0536
  269MOL0     O35379   0.069   0.014   4.035  0.5751  0.5072 -0.2190
  269MOL0     C35380   0.110  -0.113   4.054  0.2659  0.0100  0.7339
  269MOL0     C35381   0.223  -0.161   3.990  0.7065  0.3645 -0.4709
  269MOL0     C35382   0.227  -0.303   3.979 -0.5446  0.0756 -0.8457
  269MOL0     C35383   0.130  -0.390   4.032  0.0095  0.0535  0.3995
  269MOL0     O35384   0.148  -0.524   4.007  0.6159 -0.7363 -0.8784
  269MOL0     C35385   0.127  -0.614   4.122  0.6554 -0.1198 -0.6651
  269MOL0     C35386   0.168  -0.758   4.088  0.3905  0.7475  0.7290
  269MOL0     C35387   0.318  -0.766   4.087  1.4720  0.4511  0.2408
  269MOL0     C35388   0.355  -0.912   4.082 -0.8804  0.1915 -0.9189
  269MOL0     C35389   0.504  -0.931   4.049  0.6500 -0.4409 -0.2037
  269MOL0     C35390   0.553  -1.074   4.061  0.4386  0.6412 -0.0849
  269MOL0     C35391   0.508  -1.171   3.953 -0.8121  0.8711 -0.7940
  269MOL0     C35392   0.569  -1.309   3.964 -0.1505  0.1150 -0.4902
  269MOL0     N35393   0.713  -1.323   3.989 -0.3923  0.1210  0.5843
  269MOL0     C35394   0.782  -1.412   4.065  0.2515  0.8267 -0.5223
  269MOL0     C35395   0.915  -1.395   4.036  0.0059 -0.0089 -0.0257
  269MOL0     C35396   1.039  -1.464   4.095  0.6114 -0.4901 -0.3777
  269MOL0     C35397   1.020  -1.505   4.244 -0.5772  0.4316 -0.2277
  269MOL0     C35398   1.150  -1.547   4.314 -0.1152  0.3134 -0.7605
  269MOL0     C35399   1.122  -1.565   4.459 -0.5122 -0.4935  0.9177
  269MOL0     O35400   1.225  -1.638   4.518 -1.2285 -0.8584 -0.0392
  269MOL0     C35401   1.247  -1.773   4.497  0.2790 -0.2241  0.2487
  269MOL0     C35402   1.148  -1.877   4.475 -0.2676 -0.1664  0.7719
  269MOL0     C35403   1.184  -2.001   4.435  0.5142  0.0367 -0.3488
  269MOL0     C35404   1.313  -2.034   4.433 -1.0571  0.3139 -1.4739
  269MOL0     C35405   1.361  -2.172   4.398  0.0148 -0.3965  0.3897
  269MOL0     O35406   1.276  -2.253   4.335  0.1714 -0.4856 -0.1856
  269MOL0     C35407   1.308  -2.387   4.310  0.5135 -0.8950 -0.5471
  269MOL0     C35408   1.388  -2.430   4.205 -0.0062 -0.9105  0.3635
  269MOL0     C35409   1.407  -2.568   4.185 -0.0372  0.1494 -0.3141
  269MOL0     C35410   1.347  -2.663   4.260  0.0387 -1.3432 -0.4018
  269MOL0     O35411   1.390  -2.791   4.234  0.2254  0.6674  0.1300
  269MOL0     C35412   1.322  -2.899   4.305  1.1830 -0.5445 -0.7435
  269MOL0     C35413   1.350  -3.032   4.238 -0.0621  0.3989 -1.1224
  269MOL0     C35414   1.285  -3.142   4.316 -0.4319  0.1506  0.6386
  269MOL0     C35415   1.268  -3.261   4.219  0.4321 -0.5551  0.1727
  269MOL0     C35416   1.224  -3.384   4.291 -1.3688 -0.4986  0.0839
  269MOL0     C35417   1.107  -3.378   4.391 -0.4702 -0.7676 -1.0359
  269MOL0     C35418   0.972  -3.348   4.323 -0.0909 -1.0383  0.6770
  269MOL0     C35419   0.868  -3.309   4.419 -0.2422 -0.3523 -0.6523
  269MOL0    Cl35420   0.924  -3.176   4.522 -0.2384 -0.8241 -0.0502
  269MOL0     C35421   1.272  -2.618   4.373 -0.7228  1.0506 -0.5520
  269MOL0     C35422   1.248  -2.482   4.395  0.3288  0.4118 -0.5260
  269MOL0     O35423   1.477  -2.196   4.404 -0.3484 -0.0931  0.2075
  269MOL0     C35424   1.403  -1.939   4.483 -0.7109 -0.5792 -0.0287
  269MOL0     C35425   1.374  -1.809   4.503 -0.4664 -0.6023  0.2606
  269MOL0     N35426   0.918  -1.298   3.933 -1.0036  0.4873 -0.1755
  269MOL0     N35427   0.801  -1.261   3.908  0.1527  0.0091  0.4592
  269MOL0     C35428   0.023  -0.332   4.098  0.0332  0.9231  0.5337
  269MOL0     C35429   0.017  -0.194   4.115 -0.1823  0.7159  0.3644
  269MOL0     C35430   0.108   0.249   4.021 -0.0084 -0.2541 -0.0601
  269MOL0     C35431   0.043   0.268   3.895  0.5300 -1.4015 -0.4646
  269MOL0     C35432   0.006   0.395   3.851 -0.5178 -0.0825 -0.1478
  269MOL0     C35433   0.048   0.505   3.932  0.2373 -0.1263  0.7956
  269MOL0     O35434   0.007   0.630   3.875  0.5763  0.2736 -0.9804
  269MOL0     C35435   0.050   0.753   3.946 -0.3259  0.4063 -1.3107
  269MOL0     C35436   0.014   0.864   3.849  0.8613  0.1712 -0.2879
  269MOL0     C35437  -0.138   0.875   3.818 -0.1812 -0.1669  0.1353
  269MOL0     C35438  -0.149   0.979   3.695  0.5635 -0.6816 -0.2735
  269MOL0     C35439  -0.199   1.099   3.760 -0.5554 -0.4513 -0.9908
  269MOL0     C35440  -0.239   1.201   3.821 -0.5120 -0.1763 -0.4210
  269MOL0     C35441   0.134   0.484   4.043  0.4244  0.1810 -0.8290
  269MOL0     C35442   0.156   0.363   4.093  0.1934  1.4512 -0.5080
  269MOL0     H35443   0.294  -0.089   3.949 -0.2320  1.2258 -0.6234
  269MOL0     H35444   0.307  -0.350   3.923  1.3653 -1.6862  2.9956
  269MOL0     H35445   0.021  -0.608   4.147  0.3637  5.8956 -1.9364
  269MOL0     H35446   0.179  -0.584   4.214 -0.4178 -1.9643  0.6066
  269MOL0     H35447   0.132  -0.790   3.990  2.3616  2.5931 -0.6879
  269MOL0     H35448   0.124  -0.818   4.169  0.8767 -0.3072  0.2353
  269MOL0     H35449   0.361  -0.722   4.178  1.3395  0.2712  0.3917
  269MOL0     H35450   0.357  -0.717   3.998  2.0891  3.1530  1.8776
  269MOL0     H35451   0.327  -0.976   4.166  1.7486  0.2771  0.1440
  269MOL0     H35452   0.300  -0.943   3.993  0.0652  0.3287 -1.5671
  269MOL0     H35453   0.573  -0.861   4.096  1.1026  1.5719 -3.5376
  269MOL0     H35454   0.521  -0.890   3.949  1.4215 -1.9165 -0.7012
  269MOL0     H35455   0.533  -1.101   4.165  2.3158 -0.3126  0.0636
  269MOL0     H35456   0.662  -1.065   4.058  0.5669  0.5512  2.3839
  269MOL0     H35457   0.399  -1.170   3.959 -0.7782 -0.4951  1.0428
  269MOL0     H35458   0.543  -1.128   3.859  1.4873  1.8236  0.4119
  269MOL0     H35459   0.541  -1.359   3.871 -4.8592  0.8511  0.2997
  269MOL0     H35460   0.518  -1.359   4.046  0.9590 -2.0140 -1.0386
  269MOL0     H35461   0.751  -1.476   4.147  0.0964  2.0231  0.3975
  269MOL0     H35462   1.117  -1.388   4.102 -1.5815  1.8645 -0.0714
  269MOL0     H35463   1.074  -1.550   4.037  1.0158 -1.0444  0.6556
  269MOL0     H35464   0.957  -1.592   4.263  2.2288 -1.5172  0.8382
  269MOL0     H35465   0.977  -1.425   4.305 -1.4761  0.4369 -0.8458
  269MOL0     H35466   1.174  -1.648   4.279 -0.9570 -0.1603 -0.0403
  269MOL0     H35467   1.228  -1.477   4.285 -1.1099  1.5406 -0.5685
  269MOL0     H35468   1.027  -1.617   4.476 -0.5148 -0.9692 -0.5003
  269MOL0     H35469   1.097  -1.471   4.510 -0.3534 -0.2915  0.6250
  269MOL0     H35470   1.040  -1.863   4.481 -0.5134 -2.0226  1.2642
  269MOL0     H35471   1.117  -2.082   4.406  1.9112 -1.1248 -0.4281
  269MOL0     H35472   1.409  -2.357   4.128 -2.0441 -2.4110 -1.7539
  269MOL0     H35473   1.481  -2.588   4.107  0.4214 -1.3461  0.4646
  269MOL0     H35474   1.218  -2.879   4.280  1.4261  0.7290 -0.8051
  269MOL0     H35475   1.340  -2.909   4.412 -3.3582 -4.2623 -0.0338
  269MOL0     H35476   1.455  -3.063   4.238  0.1977  1.2626 -0.3584
  269MOL0     H35477   1.310  -3.022   4.136 -1.9206  0.0823 -0.4733
  269MOL0     H35478   1.189  -3.109   4.358 -2.6674 -3.9202 -0.7343
  269MOL0     H35479   1.343  -3.178   4.401  2.5242  2.1268 -0.3834
  269MOL0     H35480   1.190  -3.250   4.142 -0.3568  1.4715  1.1818
  269MOL0     H35481   1.367  -3.281   4.178  0.2314  0.2489 -0.7657
  269MOL0     H35482   1.315  -3.423   4.336 -0.3517  1.8477  0.1587
  269MOL0     H35483   1.193  -3.457   4.215  0.5516  0.3500 -1.6042
  269MOL0     H35484   1.130  -3.305   4.469 -0.6115 -0.5793 -1.1716
  269MOL0     H35485   1.091  -3.464   4.457 -2.9029  1.1492  1.1032
  269MOL0     H35486   0.989  -3.262   4.257  3.1365 -2.9948 -1.3410
  269MOL0     H35487   0.933  -3.431   4.264 -1.0603 -0.8814  1.0770
  269MOL0     H35488   0.850  -3.398   4.481 -2.4995  0.5174  0.0671
  269MOL0     H35489   0.772  -3.279   4.375 -0.8931 -2.2769 -0.6192
  269MOL0     H35490   1.232  -2.692   4.442  2.4485  0.8446  1.2522
  269MOL0     H35491   1.199  -2.452   4.487 -0.8976 -1.1461 -0.6421
  269MOL0     H35492   1.504  -1.978   4.492 -0.7141 -0.2768  1.6710
  269MOL0     H35493   1.446  -1.733   4.533 -0.1416 -1.1044  0.7838
  269MOL0     H35494  -0.060  -0.389   4.138  1.0401  0.7530  2.5023
  269MOL0     H35495  -0.069  -0.149   4.164  0.5512  1.7750  0.7366
  269MOL0     H35496   0.029   0.187   3.825  1.4957 -0.2118 -2.1120
  269MOL0     H35497  -0.047   0.402   3.756  1.3713  1.6932 -1.1537
  269MOL0     H35498   0.158   0.752   3.958 -0.2633 -1.8243 -1.7991
  269MOL0     H35499  -0.003   0.776   4.039  0.5942 -0.2780 -0.5934
  269MOL0     H35500   0.037   0.957   3.902  3.3140  0.6373 -1.9989
  269MOL0     H35501   0.072   0.851   3.757 -0.7742  0.0437 -1.3380
  269MOL0     H35502  -0.196   0.913   3.903 -0.0645  2.1950 -0.7572
  269MOL0     H35503  -0.177   0.776   3.796 -1.3302 -0.1655  1.9387
  269MOL0     H35504  -0.054   1.013   3.653 -1.5397  2.9144 -2.7118
  269MOL0     H35505  -0.214   0.942   3.615  0.9577 -3.8424  0.6950
  269MOL0     H35506  -0.292   1.286   3.860  0.6877  1.0307 -1.3322
  269MOL0     H35507   0.175   0.566   4.101 -1.1511  0.6570 -0.3380
  269MOL0     H35508   0.220   0.353   4.180 -0.4774 -0.6655 -0.1902
  270MOL0     O35509   1.036   0.744   9.741  0.0451 -0.4540  0.1705
  270MOL0     C35510   0.940   0.831   9.728 -0.0900 -0.6006  0.1697
  270MOL0     O35511   0.915   0.941   9.804 -0.1859  0.0501 -0.2737
  270MOL0     C35512   0.957   0.946   9.933  0.2404  1.1357  0.6231
  270MOL0     C35513   0.953   0.828  10.013 -0.0850 -0.6174  0.6481
  270MOL0     C35514   1.003   0.828  10.142 -0.4608  0.5127  0.1290
  270MOL0     C35515   1.063   0.949  10.181  0.6734  0.1319  0.1570
  270MOL0     O35516   1.116   0.947  10.306  0.0548 -0.4732 -0.1005
  270MOL0     C35517   1.246   0.889  10.311 -0.4351  0.4714 -1.7954
  270MOL0     C35518   1.368   0.980  10.318  1.0164 -0.5565 -1.1894
  270MOL0     C35519   1.392   1.042  10.458  1.1227 -0.3346  0.1505
  270MOL0     C35520   1.402   0.952  10.582 -0.1542 -0.0023  0.1543
  270MOL0     C35521   1.394   1.029  10.717 -0.0917  0.1974  0.7925
  270MOL0     C35522   1.489   1.147  10.729  0.3493 -0.1248 -0.0205
  270MOL0     C35523   1.484   1.188  10.873  0.6747  0.8066 -0.3077
  270MOL0     C35524   1.553   1.317  10.891 -0.7262 -0.2628 -0.6934
  270MOL0     N35525   1.533   1.380  11.025  0.2264  1.0814 -1.2385
  270MOL0     C35526   1.475   1.314  11.130 -0.0160  0.2489 -0.3605
  270MOL0     C35527   1.492   1.400  11.231 -0.1499  1.1327  0.1199
  270MOL0     C35528   1.421   1.384  11.367  0.1436 -0.1167  0.2306
  270MOL0     C35529   1.304   1.279  11.364 -0.7214 -0.5781 -0.3351
  270MOL0     C35530   1.175   1.327  11.282  0.6520  0.3875  0.1627
  270MOL0     C35531   1.091   1.211  11.223  0.5199 -0.2050  0.0841
  270MOL0     O35532   1.177   1.106  11.174  0.1699  0.5451  0.9372
  270MOL0     C35533   1.141   1.034  11.062 -0.3619  0.2891 -0.3370
  270MOL0     C35534   1.039   1.060  10.970  1.2633 -0.3804 -0.7555
  270MOL0     C35535   1.006   0.976  10.865  0.4804 -0.3526  0.8646
  270MOL0     C35536   1.081   0.859  10.849  0.0329 -0.9875 -1.3424
  270MOL0     C35537   1.038   0.753  10.750 -0.4555  0.2124  0.8355
  270MOL0     O35538   0.922   0.781  10.681 -0.4734  0.2250  0.1853
  270MOL0     C35539   0.869   0.703  10.588  0.5210  0.0755  0.1994
  270MOL0     C35540   0.802   0.778  10.488 -0.4372  0.7111  0.0538
  270MOL0     C35541   0.753   0.700  10.387  0.7523 -0.8161 -0.1830
  270MOL0     C35542   0.740   0.561  10.393 -0.3027 -0.6601 -0.7574
  270MOL0     O35543   0.685   0.478  10.290 -0.4508  0.1499  0.0163
  270MOL0     C35544   0.670   0.539  10.155  0.4590  0.0640 -1.1079
  270MOL0     C35545   0.660   0.426  10.049  0.0987  0.0653 -0.2899
  270MOL0     C35546   0.525   0.351  10.068  0.5336  1.1191  0.2783
  270MOL0     C35547   0.478   0.263   9.945 -0.6304  0.1342  0.4968
  270MOL0     C35548   0.333   0.238   9.955 -0.3955  0.5860 -0.9200
  270MOL0     C35549   0.273   0.202   9.819 -0.0089 -0.4617 -0.5044
  270MOL0     C35550   0.127   0.166   9.831  1.0261 -0.4126  0.2003
  270MOL0     C35551   0.074   0.102   9.696  0.0022 -0.2915 -0.6923
  270MOL0    Cl35552  -0.104   0.116   9.684 -0.1569 -0.1967 -0.4434
  270MOL0     C35553   0.796   0.491  10.497 -0.3709 -0.4196  0.1727
  270MOL0     C35554   0.858   0.563  10.598  0.2487 -0.3285 -0.0002
  270MOL0     O35555   1.104   0.656  10.739 -0.0632  0.1844 -0.0849
  270MOL0     C35556   1.199   0.836  10.929  0.8931  0.2070  0.1389
  270MOL0     C35557   1.228   0.925  11.033  0.1487 -0.3291  0.1929
  270MOL0     N35558   1.582   1.501  11.203 -0.7937  0.6370 -0.3446
  270MOL0     N35559   1.613   1.473  11.078 -0.6452  0.9677  0.3084
  270MOL0     C35560   1.065   1.061  10.099 -0.0538 -0.9777 -0.4787
  270MOL0     C35561   1.019   1.055   9.977 -0.3312 -1.3986  0.0593
  270MOL0     C35562   0.859   0.822   9.604  0.3957  0.9003  0.8377
  270MOL0     C35563   0.751   0.909   9.579 -0.0968  0.2132  0.2692
  270MOL0     C35564   0.685   0.913   9.457 -0.6270  0.6627 -0.4305
  270MOL0     C35565   0.725   0.826   9.355  0.2699  0.6176  1.0140
  270MOL0     O35566   0.637   0.840   9.243 -0.2895  0.4510 -0.1073
  270MOL0     C35567   0.706   0.837   9.116  0.0219 -0.5174 -0.1833
  270MOL0     C35568   0.609   0.851   9.004 -0.7833  0.5356 -0.0786
  270MOL0     C35569   0.503   0.742   9.004  0.6462  0.0128 -0.7962
  270MOL0     C35570   0.463   0.709   8.855  0.8623  0.7885  0.8339
  270MOL0     C35571   0.425   0.822   8.761 -1.9501  0.0400 -0.7956
  270MOL0     C35572   0.388   0.924   8.708  0.1966 -0.6671  0.3617
  270MOL0     C35573   0.827   0.740   9.373 -0.1158  1.5537 -0.6575
  270MOL0     C35574   0.897   0.734   9.494  0.8493 -0.3866 -0.5972
  270MOL0     H35575   0.920   0.733   9.972 -0.4982  0.2727 -1.2026
  270MOL0     H35576   1.010   0.733  10.193 -1.1112  0.2701 -0.2219
  270MOL0     H35577   1.262   0.828  10.222  3.6248 -1.3313 -0.1077
  270MOL0     H35578   1.245   0.823  10.399 -2.5322  0.8023 -1.5198
  270MOL0     H35579   1.371   1.064  10.248  2.0402  0.8472  0.4331
  270MOL0     H35580   1.456   0.916  10.316  1.5059  0.1274 -2.5200
  270MOL0     H35581   1.318   1.121  10.475  1.0894 -0.3120 -0.0932
  270MOL0     H35582   1.483   1.100  10.438  0.7743  0.0584 -0.3073
  270MOL0     H35583   1.338   0.863  10.586  0.3566 -0.3524  0.6609
  270MOL0     H35584   1.504   0.913  10.572 -0.2389  0.2797 -2.4774
  270MOL0     H35585   1.427   0.955  10.791  3.1391  2.7495  2.1809
  270MOL0     H35586   1.288   1.053  10.732  0.2905  1.8579  1.0235
  270MOL0     H35587   1.461   1.235  10.670  2.3936  0.8210  0.3297
  270MOL0     H35588   1.592   1.122  10.705  0.3671 -1.8559  1.6202
  270MOL0     H35589   1.381   1.198  10.909  0.8450  2.0577 -0.1095
  270MOL0     H35590   1.540   1.113  10.930  1.0398  1.3524  0.0620
  270MOL0     H35591   1.519   1.388  10.815 -1.3338 -0.5975 -0.7476
  270MOL0     H35592   1.659   1.306  10.866 -0.2978 -2.1022  1.5919
  270MOL0     H35593   1.419   1.221  11.129 -2.1693  1.4678 -0.2343
  270MOL0     H35594   1.388   1.485  11.392 -0.7717 -0.5473  0.8001
  270MOL0     H35595   1.488   1.359  11.450 -0.6807 -0.0712  0.9302
  270MOL0     H35596   1.278   1.260  11.469  3.6728  0.8269  1.2129
  270MOL0     H35597   1.338   1.182  11.327 -3.9212 -2.0218  0.1594
  270MOL0     H35598   1.111   1.395  11.340 -2.7541 -1.5400 -1.0214
  270MOL0     H35599   1.216   1.385  11.199  1.4625  0.4547  0.6040
  270MOL0     H35600   1.007   1.243  11.161 -1.7859  0.5087  3.3190
  270MOL0     H35601   1.028   1.160  11.297 -0.3157  1.7729  0.7999
  270MOL0     H35602   0.973   1.146  10.981  0.4237 -0.8525 -1.8380
  270MOL0     H35603   0.924   1.002  10.799  3.2863  1.1786 -2.2610
  270MOL0     H35604   0.795   0.886  10.481  0.6279  1.1561  3.7470
  270MOL0     H35605   0.708   0.741  10.297  1.0529 -2.0559 -0.9176
  270MOL0     H35606   0.762   0.598  10.143  0.8852 -0.6119 -1.2230
  270MOL0     H35607   0.583   0.605  10.156  1.1588  1.0719  1.3786
  270MOL0     H35608   0.744   0.357  10.062 -0.3979 -0.3370  0.8897
  270MOL0     H35609   0.656   0.470   9.949 -3.7278 -2.8670 -1.6758
  270MOL0     H35610   0.443   0.422  10.087 -0.1544  0.0940  1.2415
  270MOL0     H35611   0.536   0.287  10.155 -4.7311 -1.4290 -0.4837
  270MOL0     H35612   0.492   0.329   9.858  0.5781  1.1281  1.4073
  270MOL0     H35613   0.541   0.176   9.923 -0.9858  0.2972 -1.3597
  270MOL0     H35614   0.291   0.336   9.978  1.9870  1.5261 -0.3438
  270MOL0     H35615   0.296   0.172  10.034 -1.2004  0.4418 -1.4018
  270MOL0     H35616   0.326   0.112   9.789 -0.3843  0.1202 -3.1904
  270MOL0     H35617   0.297   0.285   9.752 -0.2825  0.2878  0.2933
  270MOL0     H35618   0.119   0.086   9.905 -2.1533 -0.9569 -0.5595
  270MOL0     H35619   0.076   0.259   9.857  0.3169 -0.4878 -0.8703
  270MOL0     H35620   0.095  -0.005   9.687 -2.8013 -1.1502  1.5086
  270MOL0     H35621   0.134   0.138   9.612 -0.2575 -0.8686 -1.1230
  270MOL0     H35622   0.799   0.383  10.495 -1.3153 -0.4523 -2.1133
  270MOL0     H35623   0.908   0.510  10.679  0.5754  0.0781  0.0705
  270MOL0     H35624   1.262   0.748  10.917  1.4981  0.6921 -0.2932
  270MOL0     H35625   1.314   0.908  11.096  1.5541  1.7783 -1.0318
  270MOL0     H35626   1.096   1.157  10.139 -1.1847 -0.2934 -1.1894
  270MOL0     H35627   1.042   1.137   9.909 -1.9722 -0.0351  1.0688
  270MOL0     H35628   0.703   0.969   9.655  0.4038  2.3747 -1.0450
  270MOL0     H35629   0.604   0.983   9.437  0.3153  0.9105 -4.1092
  270MOL0     H35630   0.775   0.752   9.124 -0.6891 -1.0006  1.3181
  270MOL0     H35631   0.764   0.929   9.107 -3.4814  1.8793 -0.0349
  270MOL0     H35632   0.559   0.948   9.015 -2.2213  0.3372 -3.5234
  270MOL0     H35633   0.666   0.862   8.911  0.7541 -0.5212  0.7002
  270MOL0     H35634   0.419   0.767   9.070  2.1185 -3.4694  2.8223
  270MOL0     H35635   0.538   0.652   9.055  0.9158  0.5572 -0.0100
  270MOL0     H35636   0.540   0.646   8.810  1.1336  2.2075 -0.7713
  270MOL0     H35637   0.373   0.647   8.860  1.5429 -0.3648 -0.6516
  270MOL0     H35638   0.357   1.010   8.653  2.3455  1.0490  1.6407
  270MOL0     H35639   0.848   0.672   9.291  0.0387 -0.6634  1.1198
  270MOL0     H35640   0.991   0.682   9.503  1.1455 -0.1435 -2.0389
  271MOL0     O35641  10.797   9.164   5.915  0.2205 -0.6421 -0.5887
  271MOL0     C35642  10.692   9.236   5.919  0.3574 -0.0140 -0.1550
  271MOL0     O35643  10.575   9.218   5.849 -0.7883 -0.2426 -0.0069
  271MOL0     C35644  10.557   9.111   5.762  0.1946 -0.2342 -0.4600
  271MOL0     C35645  10.620   8.983   5.776  1.2056  0.0327 -0.0804
  271MOL0     C35646  10.574   8.883   5.681 -0.3460  1.3712 -0.0804
  271MOL0     C35647  10.463   8.902   5.599 -0.1701  0.1196  0.0876
  271MOL0     O35648  10.438   8.794   5.508 -0.4177 -0.1407  0.1949
  271MOL0     C35649  10.312   8.800   5.448 -0.3178  0.4926 -0.0821
  271MOL0     C35650  10.297   8.667   5.376 -0.0214 -0.1252 -0.1334
  271MOL0     C35651  10.381   8.663   5.253 -0.7277  0.7451 -0.0343
  271MOL0     C35652  10.359   8.535   5.176 -0.0729 -0.0096 -0.4260
  271MOL0     C35653  10.426   8.523   5.044  0.8036 -0.6131  0.3432
  271MOL0     C35654  10.451   8.372   5.005 -0.0874  0.1393  0.3989
  271MOL0     C35655  10.477   8.344   4.853  0.2169  0.8600 -0.0048
  271MOL0     C35656  10.343   8.364   4.786 -0.0450 -0.6551  0.1563
  271MOL0     N35657  10.357   8.318   4.640 -0.0153 -0.2135 -0.0115
  271MOL0     C35658  10.272   8.357   4.531 -0.0264  0.0353 -0.7221
  271MOL0     C35659  10.322   8.290   4.428 -0.0794  0.0336  1.0240
  271MOL0     C35660  10.267   8.286   4.282 -0.4543 -0.4374  0.0277
  271MOL0     C35661  10.162   8.176   4.267  0.7467 -0.3512  0.0926
  271MOL0     C35662  10.142   8.129   4.125 -0.0909  0.9145 -0.1187
  271MOL0     C35663  10.010   8.041   4.101  0.9167  0.0748 -0.0904
  271MOL0     O35664   9.895   8.130   4.094 -0.8158  1.0758 -0.2385
  271MOL0     C35665   9.790   8.078   4.025 -0.2147  0.2620  0.4304
  271MOL0     C35666   9.748   7.954   4.011  0.9199  0.4064 -0.4802
  271MOL0     C35667   9.620   7.910   3.969  0.1196 -0.4726  0.4559
  271MOL0     C35668   9.518   7.999   3.922  0.2639  0.7036 -0.5024
  271MOL0     C35669   9.383   7.971   3.872  0.0303  0.0527  0.5312
  271MOL0     O35670   9.287   8.075   3.879  0.3944  0.2286  0.3321
  271MOL0     C35671   9.164   8.066   3.813 -0.8240 -0.2149  0.5327
  271MOL0     C35672   9.120   8.176   3.734  0.0715  0.3367 -0.4249
  271MOL0     C35673   9.003   8.168   3.665 -0.2282  0.4992 -0.1254
  271MOL0     C35674   8.930   8.053   3.680  0.7980 -0.2449  0.4778
  271MOL0     O35675   8.805   8.044   3.617  0.2113  0.1238  0.0512
  271MOL0     C35676   8.735   7.930   3.599  0.6169  0.1652  0.4913
  271MOL0     C35677   8.601   7.968   3.532  0.4008 -0.1367 -0.2986
  271MOL0     C35678   8.498   8.005   3.645 -0.4171 -0.0084  0.4120
  271MOL0     C35679   8.360   8.018   3.585 -0.4460  1.0118  0.2880
  271MOL0     C35680   8.266   7.900   3.609 -0.2679 -0.3149 -0.8096
  271MOL0     C35681   8.292   7.773   3.520 -0.5844  0.3301  0.1244
  271MOL0     C35682   8.206   7.654   3.573 -0.2579 -0.4932  0.4713
  271MOL0     C35683   8.215   7.614   3.718  0.3927  0.6116 -0.4516
  271MOL0    Cl35684   8.092   7.490   3.769  0.1054 -0.2596 -0.1507
  271MOL0     C35685   8.967   7.944   3.758  0.5429 -0.3963  0.0512
  271MOL0     C35686   9.094   7.953   3.822  0.9033  0.1277  0.5361
  271MOL0     O35687   9.377   7.857   3.818  0.0831 -0.1171  0.9049
  271MOL0     C35688   9.566   8.131   3.925  0.2533  0.0999  0.1354
  271MOL0     C35689   9.691   8.172   3.988  1.3322 -0.3362  0.2232
  271MOL0     N35690  10.436   8.231   4.467  0.6002 -0.3718  0.0497
  271MOL0     N35691  10.462   8.246   4.594 -0.3063 -0.2311  1.2202
  271MOL0     C35692  10.399   9.026   5.599 -0.0401 -0.2328 -0.1664
  271MOL0     C35693  10.452   9.125   5.677 -0.3799 -1.3139 -0.8324
  271MOL0     C35694  10.691   9.365   6.007  0.0889  0.1748 -0.5441
  271MOL0     C35695  10.817   9.421   6.047  0.2134 -0.2662 -0.9653
  271MOL0     C35696  10.816   9.512   6.154  0.4526 -0.0576  0.3346
  271MOL0     C35697  10.700   9.568   6.213  0.3225  0.0093  0.2185
  271MOL0     O35698  10.695   9.668   6.308  0.1651  0.4532  0.5562
  271MOL0     C35699  10.815   9.754   6.318  0.2291  0.7687 -0.0290
  271MOL0     C35700  10.829   9.844   6.195 -0.3753 -0.7230  0.7359
  271MOL0     C35701  10.726   9.949   6.172 -0.6104  0.0991  0.0991
  271MOL0     C35702  10.748  10.050   6.063  0.7049  0.3116  0.2807
  271MOL0     C35703  10.855  10.144   6.093  0.6638  0.7837  0.6192
  271MOL0     C35704  10.941  10.221   6.121  0.4179 -0.1402  0.8944
  271MOL0     C35705  10.574   9.514   6.171 -0.2682  0.6901  0.1896
  271MOL0     C35706  10.569   9.419   6.066  0.1132  0.7713  0.6332
  271MOL0     H35707  10.701   8.949   5.840  4.1238 -0.6205 -3.7176
  271MOL0     H35708  10.640   8.797   5.687  1.1307  2.2757 -2.0607
  271MOL0     H35709  10.294   8.879   5.374  0.6226  1.5787  0.8097
  271MOL0     H35710  10.241   8.805   5.531  1.9630  0.1639  2.0050
  271MOL0     H35711  10.193   8.651   5.348  0.1380  2.4897 -2.8151
  271MOL0     H35712  10.327   8.582   5.437  1.2474  0.7371  0.5088
  271MOL0     H35713  10.489   8.661   5.268 -0.7898  0.1790  0.3510
  271MOL0     H35714  10.345   8.752   5.199  0.4754  2.6587  2.1421
  271MOL0     H35715  10.391   8.459   5.248  1.6544  1.7682  0.7887
  271MOL0     H35716  10.250   8.531   5.167 -0.2788  2.0249  0.6913
  271MOL0     H35717  10.524   8.570   5.051  0.0410  0.9828  0.7778
  271MOL0     H35718  10.382   8.582   4.963  4.3480 -0.5498 -1.7024
  271MOL0     H35719  10.361   8.325   5.045 -1.5633  2.0469 -0.4921
  271MOL0     H35720  10.532   8.331   5.066 -0.7735 -1.2921  0.3716
  271MOL0     H35721  10.554   8.413   4.819  0.9128 -0.3630 -0.9792
  271MOL0     H35722  10.516   8.243   4.839 -1.2826  0.5151 -2.3214
  271MOL0     H35723  10.315   8.470   4.787  0.2306 -0.5831  1.0440
  271MOL0     H35724  10.262   8.316   4.842 -0.4523  0.0479  0.1844
  271MOL0     H35725  10.182   8.418   4.528 -0.6118 -0.7447  0.2489
  271MOL0     H35726  10.342   8.252   4.211 -0.8929  1.2956 -1.3173
  271MOL0     H35727  10.227   8.383   4.251 -2.2580 -0.8161  0.9787
  271MOL0     H35728  10.068   8.215   4.308  0.2702 -1.9754  0.6153
  271MOL0     H35729  10.194   8.096   4.334 -1.0765  2.0617  4.2193
  271MOL0     H35730  10.118   8.210   4.056 -3.3772  0.5049  0.3817
  271MOL0     H35731  10.228   8.072   4.087 -1.3656 -0.5365 -0.9617
  271MOL0     H35732  10.001   7.990   4.198 -0.9548  2.5624  1.1814
  271MOL0     H35733  10.018   7.974   4.016 -2.5081 -1.7611  0.8488
  271MOL0     H35734   9.823   7.887   4.051 -0.1105  0.0419  0.9244
  271MOL0     H35735   9.589   7.806   3.956 -0.6422  0.1087 -3.8677
  271MOL0     H35736   9.164   8.275   3.728 -1.0453  0.8080 -1.2607
  271MOL0     H35737   8.959   8.235   3.592 -0.5433  1.6476  1.1002
  271MOL0     H35738   8.715   7.873   3.690  0.2542  2.3762  1.8727
  271MOL0     H35739   8.792   7.873   3.526  1.3947  1.6692 -0.1221
  271MOL0     H35740   8.551   7.890   3.474 -4.2759  0.1807  2.7672
  271MOL0     H35741   8.611   8.064   3.481  2.9310  0.5360  1.2839
  271MOL0     H35742   8.540   8.090   3.700 -1.3450  0.5489  0.2888
  271MOL0     H35743   8.487   7.922   3.715 -0.2981  0.5133  1.0552
  271MOL0     H35744   8.327   8.106   3.641  0.4113  2.1087 -0.8649
  271MOL0     H35745   8.350   8.048   3.480 -2.1895 -3.2308 -0.9625
  271MOL0     H35746   8.164   7.938   3.595 -0.2917  0.4206  1.0196
  271MOL0     H35747   8.264   7.885   3.718 -0.6712 -1.6766 -0.9867
  271MOL0     H35748   8.392   7.729   3.517  0.3692  2.4473 -1.4381
  271MOL0     H35749   8.269   7.801   3.417 -2.9472  0.5567  0.6537
  271MOL0     H35750   8.104   7.689   3.557  0.7543  2.8724  0.4940
  271MOL0     H35751   8.238   7.566   3.516 -0.4558 -1.1065  1.3045
  271MOL0     H35752   8.195   7.696   3.787 -0.3813 -0.6935  0.9296
  271MOL0     H35753   8.316   7.572   3.727  1.2120  2.2236 -1.6761
  271MOL0     H35754   8.919   7.848   3.773  0.3011 -0.2743  0.0597
  271MOL0     H35755   9.126   7.872   3.887 -1.6588 -0.6541  0.9357
  271MOL0     H35756   9.491   8.190   3.873  0.4216 -1.1788 -1.6487
  271MOL0     H35757   9.710   8.276   4.011 -0.0826  0.1451 -0.5945
  271MOL0     H35758  10.325   9.059   5.526 -0.6949  0.6717  0.8697
  271MOL0     H35759  10.412   9.225   5.688  0.0897 -1.4438  3.7113
  271MOL0     H35760  10.909   9.372   6.015  1.7462 -0.2593  2.8719
  271MOL0     H35761  10.917   9.548   6.171  1.2822 -0.1113 -3.6723
  271MOL0     H35762  10.904   9.694   6.337 -1.7812 -2.1256  0.8645
  271MOL0     H35763  10.789   9.820   6.402  1.2541 -0.1871  1.0803
  271MOL0     H35764  10.930   9.884   6.202  0.2121 -2.3049  1.8215
  271MOL0     H35765  10.844   9.786   6.103  0.6973  0.8482 -0.1166
  271MOL0     H35766  10.731  10.010   6.263  4.4486  0.2972 -0.0466
  271MOL0     H35767  10.629   9.900   6.165 -1.0896  0.7505  1.7117
  271MOL0     H35768  10.769  10.009   5.964 -1.2117  1.7307 -0.8005
  271MOL0     H35769  10.655  10.108   6.063 -0.2454 -1.1475 -0.1764
  271MOL0     H35770  11.025  10.287   6.124  0.0504  0.4771 -1.1578
  271MOL0     H35771  10.474   9.541   6.205 -1.5993 -4.8986  1.7855
  271MOL0     H35772  10.473   9.386   6.029 -0.1740  3.3982 -1.2142
  272MOL0     O35773   4.832   9.650   0.350  0.7415 -0.0402 -0.2221
  272MOL0     C35774   4.760   9.701   0.437 -0.1787  0.1816  0.5750
  272MOL0     O35775   4.699   9.819   0.431  0.7679 -0.2221 -0.2123
  272MOL0     C35776   4.669   9.873   0.312  0.3893  0.0668  0.4767
  272MOL0     C35777   4.743   9.980   0.259  0.2696  0.5170 -0.9526
  272MOL0     C35778   4.728  10.028   0.132  0.2194  0.2857  0.2674
  272MOL0     C35779   4.623   9.980   0.055  1.1713  0.6883  0.4235
  272MOL0     O35780   4.614  10.036  -0.072 -0.2653 -0.2014 -0.0991
  272MOL0     C35781   4.516   9.994  -0.166  0.3380 -0.4584 -0.2807
  272MOL0     C35782   4.555  10.058  -0.295  0.2160  0.0948 -0.8507
  272MOL0     C35783   4.459  10.031  -0.403  0.5461  0.3715  0.4088
  272MOL0     C35784   4.508  10.090  -0.541  0.4676  0.5853  0.2445
  272MOL0     C35785   4.404  10.045  -0.644  0.6244 -0.0276 -0.3651
  272MOL0     C35786   4.413  10.124  -0.778 -0.4827  0.3928  0.2867
  272MOL0     C35787   4.347  10.039  -0.890 -0.9077 -0.4266 -0.8048
  272MOL0     C35788   4.196  10.024  -0.878 -0.3945  0.3121 -0.0402
  272MOL0     N35789   4.138   9.940  -0.984  0.2254 -0.0076 -0.1642
  272MOL0     C35790   4.123   9.971  -1.116  0.6455  0.4645 -0.3672
  272MOL0     C35791   4.081   9.863  -1.185  0.5623 -0.4461  0.2017
  272MOL0     C35792   4.048   9.860  -1.331 -0.3377 -0.7474 -0.0674
  272MOL0     C35793   4.183   9.877  -1.411  0.5293 -0.2235 -0.4580
  272MOL0     C35794   4.169   9.946  -1.547  0.1440 -0.0964  0.4407
  272MOL0     C35795   4.164  10.101  -1.522 -0.1607 -0.6193 -0.3442
  272MOL0     O35796   4.060  10.158  -1.599  0.6217  0.7844 -0.0389
  272MOL0     C35797   4.076  10.127  -1.735  0.2646 -1.1331  0.6588
  272MOL0     C35798   4.204  10.091  -1.795  0.2421  0.3925  0.0005
  272MOL0     C35799   4.216  10.074  -1.930 -0.9893  0.0973  0.2866
  272MOL0     C35800   4.110  10.113  -2.015 -0.5660 -0.9030  0.3081
  272MOL0     C35801   4.118  10.083  -2.166 -0.1204 -0.4110  0.9528
  272MOL0     O35802   4.232  10.042  -2.217 -0.4826 -0.6433  0.1493
  272MOL0     C35803   4.220   9.965  -2.332 -0.1784  0.3258 -0.9451
  272MOL0     C35804   4.325   9.986  -2.419 -0.0304 -0.2197  0.0723
  272MOL0     C35805   4.365   9.901  -2.515  0.3125  0.0396  0.5157
  272MOL0     C35806   4.291   9.785  -2.543 -0.2161  0.0327  0.1210
  272MOL0     O35807   4.318   9.712  -2.648  0.0371  0.1182 -0.2199
  272MOL0     C35808   4.322   9.570  -2.644  0.0191 -0.5252 -0.3619
  272MOL0     C35809   4.445   9.529  -2.554  0.3717 -0.1101  1.2349
  272MOL0     C35810   4.502   9.391  -2.598  0.2925 -0.2218  0.0152
  272MOL0     C35811   4.599   9.421  -2.721  0.6965  0.8213  0.5482
  272MOL0     C35812   4.674   9.290  -2.769  0.4167 -0.4068  0.7208
  272MOL0     C35813   4.776   9.227  -2.666  0.3799 -0.0688 -0.1652
  272MOL0     C35814   4.810   9.079  -2.694 -0.6887  1.1195  0.7059
  272MOL0     C35815   4.902   9.025  -2.579 -0.2941 -1.1454  0.4475
  272MOL0    Cl35816   4.932   8.861  -2.596  0.3496  0.1657  0.1953
  272MOL0     C35817   4.180   9.755  -2.459  0.0252  0.0698  0.3280
  272MOL0     C35818   4.149   9.843  -2.350 -0.9183  0.4779 -0.6361
  272MOL0     O35819   4.020  10.116  -2.230  0.8419  0.1508  0.2400
  272MOL0     C35820   3.990  10.158  -1.963 -0.7468  0.1461  0.9293
  272MOL0     C35821   3.976  10.163  -1.827  0.5398  0.3785  0.5004
  272MOL0     N35822   4.074   9.754  -1.096  0.0170 -0.8716  0.3788
  272MOL0     N35823   4.107   9.804  -0.976 -0.3118  0.4095 -0.7007
  272MOL0     C35824   4.539   9.887   0.105 -0.0929  0.0312 -0.4383
  272MOL0     C35825   4.560   9.833   0.232  0.3426 -0.1347 -0.3227
  272MOL0     C35826   4.724   9.615   0.559  0.0346  0.3009 -0.7781
  272MOL0     C35827   4.751   9.475   0.554  0.4497  0.7462 -0.8286
  272MOL0     C35828   4.687   9.391   0.646 -0.6396  0.3280  0.9357
  272MOL0     C35829   4.602   9.444   0.745 -0.7955  1.1553  0.0565
  272MOL0     O35830   4.536   9.359   0.839 -0.6583  0.1799  0.5455
  272MOL0     C35831   4.598   9.238   0.870  0.6656  0.3319  0.3218
  272MOL0     C35832   4.541   9.177   1.002  0.0178  0.2929  0.2850
  272MOL0     C35833   4.591   9.235   1.132 -0.8708 -0.3230  0.7151
  272MOL0     C35834   4.736   9.213   1.172  0.5532 -0.2087  0.8625
  272MOL0     C35835   4.783   9.293   1.293  0.7148  0.5629  0.9123
  272MOL0     C35836   4.823   9.341   1.397 -0.0627 -0.0167 -0.2855
  272MOL0     C35837   4.587   9.582   0.755  0.6593 -0.4413  0.4062
  272MOL0     C35838   4.648   9.672   0.668  0.6704  0.1761 -0.4304
  272MOL0     H35839   4.823  10.016   0.321 -0.2259  0.4958 -0.2904
  272MOL0     H35840   4.788  10.110   0.093 -0.1422  0.7762  0.7385
  272MOL0     H35841   4.416  10.036  -0.154  0.2751 -0.7388  0.2103
  272MOL0     H35842   4.514   9.886  -0.185 -2.4348 -0.5623  0.1148
  272MOL0     H35843   4.652  10.014  -0.319 -0.6165 -0.8826 -2.6316
  272MOL0     H35844   4.567  10.165  -0.275  3.8253 -0.0015 -1.9078
  272MOL0     H35845   4.369  10.087  -0.378  0.4077  0.0545  0.6273
  272MOL0     H35846   4.450   9.923  -0.420 -0.0575  0.7896 -2.5018
  272MOL0     H35847   4.524  10.198  -0.540  1.4581  0.4948 -1.3641
  272MOL0     H35848   4.599  10.037  -0.571 -1.5887 -2.3810 -1.3213
  272MOL0     H35849   4.299  10.051  -0.615 -0.2618  3.0562 -3.4601
  272MOL0     H35850   4.423   9.941  -0.669 -3.7558 -0.6140 -2.2673
  272MOL0     H35851   4.514  10.142  -0.817 -0.0559 -1.1375  0.6350
  272MOL0     H35852   4.381  10.229  -0.777 -0.0916  0.5132  0.4332
  272MOL0     H35853   4.377  10.072  -0.990  1.2974  1.9308  0.5267
  272MOL0     H35854   4.391   9.938  -0.891 -2.6529 -1.3716  2.4544
  272MOL0     H35855   4.147  10.121  -0.878  1.4394  1.3525 -3.0469
  272MOL0     H35856   4.166   9.985  -0.780 -0.9952  2.0234  0.4842
  272MOL0     H35857   4.128  10.074  -1.150 -2.2607 -0.1240 -3.0776
  272MOL0     H35858   3.992   9.951  -1.351 -0.0322 -0.7909 -1.1640
  272MOL0     H35859   3.993   9.769  -1.357  2.1975 -1.2949 -4.3755
  272MOL0     H35860   4.219   9.776  -1.433  1.0711 -0.1492  0.0692
  272MOL0     H35861   4.240   9.936  -1.339 -0.8468 -0.1777  0.6384
  272MOL0     H35862   4.263   9.929  -1.601 -1.2889  0.3796 -2.3884
  272MOL0     H35863   4.084   9.911  -1.605 -1.4349  5.1234 -0.9972
  272MOL0     H35864   4.259  10.150  -1.542 -1.1148  0.9421 -1.2613
  272MOL0     H35865   4.138  10.124  -1.419  1.4909 -0.9133  0.1662
  272MOL0     H35866   4.297  10.078  -1.741  1.0466  1.8492 -0.9869
  272MOL0     H35867   4.315  10.068  -1.975 -1.8386  1.0453 -1.8094
  272MOL0     H35868   4.392  10.069  -2.395  2.9343 -2.8757  1.7000
  272MOL0     H35869   4.460   9.930  -2.560 -0.4487  2.6791  0.4394
  272MOL0     H35870   4.321   9.538  -2.749 -1.1529  1.3190 -0.9474
  272MOL0     H35871   4.229   9.527  -2.606  0.6787 -2.3734 -0.7213
  272MOL0     H35872   4.414   9.535  -2.450  3.7667 -1.6638  2.4760
  272MOL0     H35873   4.520   9.608  -2.566 -0.0725  0.5098  2.4411
  272MOL0     H35874   4.429   9.313  -2.623  3.1587 -1.7211 -5.0604
  272MOL0     H35875   4.562   9.363  -2.511 -0.2278 -3.5431 -0.5446
  272MOL0     H35876   4.548   9.478  -2.799  0.8080  0.3742  0.1433
  272MOL0     H35877   4.678   9.490  -2.690  0.5499  0.6337  1.3531
  272MOL0     H35878   4.728   9.311  -2.861  0.0084  0.2654  0.6269
  272MOL0     H35879   4.596   9.214  -2.787  0.7629 -0.3582 -1.1402
  272MOL0     H35880   4.732   9.248  -2.568 -0.0085  2.5580 -0.8188
  272MOL0     H35881   4.869   9.286  -2.668  0.8930 -0.8296  0.6478
  272MOL0     H35882   4.716   9.024  -2.705 -0.3061 -0.4444  4.0766
  272MOL0     H35883   4.859   9.065  -2.791 -1.1391  4.8697 -0.2522
  272MOL0     H35884   4.861   9.038  -2.479 -3.5023 -2.8437 -0.4933
  272MOL0     H35885   5.003   9.066  -2.573 -0.7783 -0.1301  2.0939
  272MOL0     H35886   4.111   9.673  -2.475  0.8904 -0.9375  1.5717
  272MOL0     H35887   4.089   9.811  -2.265 -0.7986  1.5442 -0.1393
  272MOL0     H35888   3.920  10.206  -2.032 -1.1946  0.1984  1.4087
  272MOL0     H35889   3.881  10.195  -1.788 -0.7579 -1.6753 -0.7871
  272MOL0     H35890   4.452   9.851   0.051 -1.1991 -1.9828  2.4171
  272MOL0     H35891   4.489   9.753   0.255 -1.1118  1.2732  0.2607
  272MOL0     H35892   4.807   9.445   0.466  0.9478  0.8749 -0.5600
  272MOL0     H35893   4.720   9.289   0.628 -0.2969  0.4980  0.5908
  272MOL0     H35894   4.707   9.246   0.871  1.0930 -3.3456 -0.9680
  272MOL0     H35895   4.565   9.176   0.786 -0.8307 -0.0576  1.1594
  272MOL0     H35896   4.433   9.188   0.990  0.0302  0.3088  0.1817
  272MOL0     H35897   4.556   9.069   1.013 -1.8477  0.0325  0.6489
  272MOL0     H35898   4.533   9.207   1.220 -1.5501  0.1456  0.4217
  272MOL0     H35899   4.571   9.342   1.116 -1.9787 -0.9736 -3.3176
  272MOL0     H35900   4.751   9.110   1.204  2.0396  0.3242  2.0139
  272MOL0     H35901   4.806   9.236   1.091 -0.6613  0.0035 -0.1672
  272MOL0     H35902   4.873   9.382   1.483 -0.4940  1.4338 -0.6995
  272MOL0     H35903   4.528   9.631   0.833  2.3564  0.7321  0.9917
  272MOL0     H35904   4.618   9.776   0.676 -3.7669 -1.0293  2.1677
  273MOL0     O35905   9.101   1.049   4.860  0.5767  0.2765 -0.6848
  273MOL0     C35906   9.134   0.943   4.810 -0.2940 -0.4766 -0.6641
  273MOL0     O35907   9.128   0.912   4.675  0.7841  0.0026 -0.1408
  273MOL0     C35908   9.061   0.989   4.584 -0.0723  0.3999 -0.0467
  273MOL0     C35909   8.926   1.033   4.602  0.1676  0.3153  0.0525
  273MOL0     C35910   8.877   1.121   4.507  0.3767  0.5777  0.2191
  273MOL0     C35911   8.954   1.175   4.400 -1.2923  0.2934 -0.0693
  273MOL0     O35912   8.901   1.281   4.327 -0.5108  0.0927  0.1161
  273MOL0     C35913   8.983   1.350   4.231  0.0098 -0.5951  0.3765
  273MOL0     C35914   8.940   1.497   4.192  0.6818 -0.1084 -0.4615
  273MOL0     C35915   9.009   1.590   4.288  0.1043  0.4749 -0.2524
  273MOL0     C35916   8.970   1.733   4.262  0.3168  0.1517 -0.7321
  273MOL0     C35917   9.024   1.817   4.385  0.6348  0.0147  0.4814
  273MOL0     C35918   8.977   1.964   4.378 -0.0084  0.4455  0.4471
  273MOL0     C35919   9.003   2.039   4.509 -0.2116 -0.6278 -0.7496
  273MOL0     C35920   9.085   2.168   4.496  0.2156  0.1127  0.2725
  273MOL0     N35921   9.227   2.163   4.510  0.5750 -0.3743 -0.1964
  273MOL0     C35922   9.324   2.149   4.408 -0.1411 -1.0641 -0.1522
  273MOL0     C35923   9.440   2.106   4.467  0.5520 -0.3207 -0.0870
  273MOL0     C35924   9.566   2.060   4.395  0.2835 -0.0291  1.0568
  273MOL0     C35925   9.555   2.053   4.245 -0.1327  0.8345  0.4960
  273MOL0     C35926   9.532   2.181   4.159 -0.0860 -0.9707 -0.3681
  273MOL0     C35927   9.659   2.274   4.147 -0.6539  0.2962  0.3307
  273MOL0     O35928   9.754   2.211   4.058 -0.1584 -0.0407 -0.3701
  273MOL0     C35929   9.878   2.269   4.036  0.1755 -0.7686  0.1345
  273MOL0     C35930   9.988   2.184   4.026  0.1643  0.4280  1.0343
  273MOL0     C35931  10.110   2.237   3.999 -0.7371 -0.0972 -0.2076
  273MOL0     C35932  10.126   2.374   3.996  0.3501  0.0379 -0.5492
  273MOL0     C35933  10.257   2.422   3.976 -0.0651 -0.2259  0.1160
  273MOL0     O35934  10.277   2.556   3.987 -0.3315 -0.0618  0.3128
  273MOL0     C35935  10.391   2.612   3.923 -0.7711  0.0687 -0.4472
  273MOL0     C35936  10.356   2.717   3.834  0.0757  1.3073 -0.0313
  273MOL0     C35937  10.455   2.793   3.762 -0.0819  0.3031 -0.5903
  273MOL0     C35938  10.591   2.764   3.774  0.1565  0.6705  0.0621
  273MOL0     O35939  10.691   2.832   3.709 -0.3864  0.4434  0.5005
  273MOL0     C35940  10.819   2.772   3.698  0.2231 -0.3312  0.5878
  273MOL0     C35941  10.920   2.849   3.792 -0.1383 -0.1488 -0.6621
  273MOL0     C35942  10.908   2.997   3.766  1.1674  0.2477 -0.2758
  273MOL0     C35943  11.018   3.082   3.826  0.5766 -0.2813  0.9684
  273MOL0     C35944  11.015   3.114   3.980  0.2493  0.0777  0.1261
  273MOL0     C35945  11.148   3.137   4.055 -0.0488 -0.2273  0.7883
  273MOL0     C35946  11.131   3.171   4.200 -0.9574  0.1977 -0.0445
  273MOL0     C35947  11.184   3.061   4.292  0.5092 -0.4382 -0.1876
  273MOL0    Cl35948  11.360   3.038   4.278  0.6046  0.3082 -0.0691
  273MOL0     C35949  10.618   2.656   3.868 -1.5666  0.2724  1.0106
  273MOL0     C35950  10.526   2.576   3.939  0.0076  0.0213 -0.0640
  273MOL0     O35951  10.341   2.339   3.947 -0.1279 -0.2558 -0.2004
  273MOL0     C35952  10.014   2.460   4.001  0.1396 -0.5778  0.2603
  273MOL0     C35953   9.892   2.407   4.024  0.4886  0.3428  0.4191
  273MOL0     N35954   9.410   2.100   4.603 -0.1787  0.1179 -0.1926
  273MOL0     N35955   9.291   2.146   4.631  0.7725  0.8084 -0.3068
  273MOL0     C35956   9.086   1.136   4.382 -0.2327  1.0838 -0.4230
  273MOL0     C35957   9.139   1.040   4.479 -1.0179  0.3278 -0.1579
  273MOL0     C35958   9.150   0.828   4.905 -0.0832  0.3969 -0.5946
  273MOL0     C35959   9.137   0.832   5.043 -0.0743 -0.2065  0.5591
  273MOL0     C35960   9.188   0.729   5.124 -0.0776  0.0977  0.4401
  273MOL0     C35961   9.251   0.615   5.072  1.0367  0.7589 -0.3133
  273MOL0     O35962   9.288   0.530   5.172 -0.1732  0.0566  0.0171
  273MOL0     C35963   9.362   0.412   5.140  0.0586 -0.2617  1.0754
  273MOL0     C35964   9.515   0.445   5.145 -0.7457  0.1409  0.4058
  273MOL0     C35965   9.576   0.457   5.285  0.6455  0.0959  0.5415
  273MOL0     C35966   9.715   0.526   5.260 -0.0893  0.5122  0.3861
  273MOL0     C35967   9.783   0.519   5.387 -0.2098  0.2640 -0.5356
  273MOL0     C35968   9.843   0.520   5.493 -0.1841  0.5955 -0.4518
  273MOL0     C35969   9.272   0.607   4.934 -0.1275  0.2844  0.4291
  273MOL0     C35970   9.207   0.705   4.853 -0.6149  0.1926 -0.7855
  273MOL0     H35971   8.860   0.989   4.677  0.6861 -1.5490 -0.5329
  273MOL0     H35972   8.780   1.168   4.519  1.4786  3.1253 -0.2251
  273MOL0     H35973   8.995   1.297   4.136  3.5111  1.6436 -0.6098
  273MOL0     H35974   9.087   1.351   4.264  1.3152 -1.7022 -3.2030
  273MOL0     H35975   8.832   1.510   4.195  0.3953 -2.2804  0.6072
  273MOL0     H35976   8.975   1.508   4.089  0.1795  0.6200 -0.5587
  273MOL0     H35977   9.117   1.574   4.281 -0.1503 -1.0786 -1.1894
  273MOL0     H35978   8.970   1.576   4.389 -2.6235  2.9084 -0.8050
  273MOL0     H35979   8.998   1.772   4.163 -0.4362  0.8578 -0.6749
  273MOL0     H35980   8.861   1.740   4.259  0.4422  2.6343 -2.9861
  273MOL0     H35981   9.132   1.805   4.381  0.4221 -2.0397 -0.3320
  273MOL0     H35982   9.000   1.772   4.482  0.1362 -1.9669 -0.5117
  273MOL0     H35983   8.868   1.965   4.364  0.0660 -1.0007 -0.4229
  273MOL0     H35984   9.027   1.994   4.285  0.4964 -3.2635 -0.6396
  273MOL0     H35985   8.917   2.067   4.570 -0.1950 -1.8156 -0.1444
  273MOL0     H35986   9.062   1.969   4.569 -0.3149  0.0878  0.2183
  273MOL0     H35987   9.047   2.234   4.575 -0.5758 -0.3606  0.3020
  273MOL0     H35988   9.059   2.196   4.393  1.0167  0.1491  0.0733
  273MOL0     H35989   9.312   2.156   4.301 -1.5670  3.1703  0.0905
  273MOL0     H35990   9.569   1.955   4.424 -0.9109 -1.0430 -2.0313
  273MOL0     H35991   9.649   2.121   4.430  0.4619  0.3767 -0.0534
  273MOL0     H35992   9.478   1.978   4.224  2.5260 -2.7379  2.3756
  273MOL0     H35993   9.656   2.025   4.212 -0.1681  1.6541 -0.3550
  273MOL0     H35994   9.519   2.148   4.056  2.7077  2.1494 -1.9224
  273MOL0     H35995   9.444   2.240   4.186 -2.0659 -3.2151 -1.5728
  273MOL0     H35996   9.704   2.296   4.244  4.3892 -1.1980 -1.3619
  273MOL0     H35997   9.618   2.362   4.098 -3.0145 -1.5618 -1.2953
  273MOL0     H35998   9.971   2.077   4.032 -1.3043  0.5805  0.0730
  273MOL0     H35999  10.189   2.163   4.007 -0.8313 -0.6838 -3.3639
  273MOL0     H36000  10.253   2.746   3.817 -0.0652 -0.1489 -1.9530
  273MOL0     H36001  10.418   2.872   3.697  1.6049  0.5556 -1.3129
  273MOL0     H36002  10.844   2.786   3.592 -2.8385 -0.2034 -0.2092
  273MOL0     H36003  10.825   2.663   3.711 -0.1923 -0.4180  0.0955
  273MOL0     H36004  11.019   2.803   3.782 -1.1967 -2.5642 -0.6727
  273MOL0     H36005  10.885   2.828   3.894  0.5356 -0.8320 -0.5606
  273MOL0     H36006  10.811   3.027   3.807  0.0619 -2.5434 -0.5597
  273MOL0     H36007  10.908   3.008   3.657 -3.0139 -1.2040 -0.6085
  273MOL0     H36008  11.116   3.039   3.805  0.1096 -1.7767  1.7483
  273MOL0     H36009  11.013   3.177   3.772 -4.5718 -0.5349  0.4894
  273MOL0     H36010  10.968   3.026   4.025  0.7457  0.3046  1.1291
  273MOL0     H36011  10.946   3.196   4.000 -2.3285 -1.6922 -0.9464
  273MOL0     H36012  11.196   3.221   4.003  0.2908 -2.8527 -3.7066
  273MOL0     H36013  11.221   3.056   4.040  1.8215  1.6908 -1.4264
  273MOL0     H36014  11.197   3.257   4.218  4.6359 -3.1168 -2.1179
  273MOL0     H36015  11.026   3.194   4.222 -0.6337  0.7794  0.9286
  273MOL0     H36016  11.136   2.969   4.258  1.3454 -0.7628 -0.5098
  273MOL0     H36017  11.162   3.077   4.398 -0.3238  4.2661 -0.8245
  273MOL0     H36018  10.719   2.623   3.891 -1.6217 -0.8123 -0.1622
  273MOL0     H36019  10.562   2.492   3.998  1.8203  1.5438  1.1704
  273MOL0     H36020  10.033   2.566   3.991 -0.7001 -0.4958 -0.6394
  273MOL0     H36021   9.816   2.486   4.025  0.3554  0.4895 -3.6776
  273MOL0     H36022   9.150   1.177   4.304  0.0498  0.6651 -0.4156
  273MOL0     H36023   9.242   1.007   4.478 -0.7678  1.0913 -0.0055
  273MOL0     H36024   9.083   0.910   5.095 -2.0991 -0.8721 -0.4445
  273MOL0     H36025   9.176   0.734   5.232 -2.7924  0.5746  0.2057
  273MOL0     H36026   9.345   0.368   5.041  1.3689  3.2550 -0.8586
  273MOL0     H36027   9.347   0.328   5.209 -0.4601 -1.7580 -0.7811
  273MOL0     H36028   9.571   0.360   5.104 -0.3794 -0.0895  1.3480
  273MOL0     H36029   9.534   0.529   5.079 -2.0590  0.7632  0.7870
  273MOL0     H36030   9.581   0.357   5.327 -1.1070  0.6512  2.1746
  273MOL0     H36031   9.506   0.527   5.331 -1.8783 -1.7513 -0.2947
  273MOL0     H36032   9.785   0.480   5.189 -1.3252  1.2713 -1.3954
  273MOL0     H36033   9.693   0.632   5.244 -0.0997  0.8780  2.5167
  273MOL0     H36034   9.897   0.522   5.586  1.1241 -1.0058 -1.1291
  273MOL0     H36035   9.321   0.527   4.879 -0.1102  1.5087 -1.4338
  273MOL0     H36036   9.215   0.697   4.745  1.1997  0.3088 -0.6933
  274MOL0     O36037   7.019   1.321   9.578 -0.1318 -0.0057 -0.2418
  274MOL0     C36038   6.931   1.272   9.504 -0.9834  0.5869  0.9136
  274MOL0     O36039   6.875   1.156   9.522 -0.3002 -0.0712  0.2596
  274MOL0     C36040   6.952   1.052   9.563  0.1635 -0.4274 -0.2102
  274MOL0     C36041   7.088   1.035   9.522  0.0780 -0.0657  0.0069
  274MOL0     C36042   7.166   0.935   9.590 -0.0710 -0.6204  0.4985
  274MOL0     C36043   7.100   0.859   9.686  0.1951  0.1385 -0.8803
  274MOL0     O36044   7.163   0.757   9.754 -0.9542 -1.2554 -0.1660
  274MOL0     C36045   7.297   0.772   9.770 -0.5543 -0.0539 -0.4320
  274MOL0     C36046   7.353   0.715   9.898 -0.2167  0.9418 -0.6660
  274MOL0     C36047   7.296   0.772  10.026 -0.5932  0.5053 -0.0551
  274MOL0     C36048   7.350   0.699  10.160  0.6732  0.0303 -0.0143
  274MOL0     C36049   7.236   0.658  10.251  0.3906 -0.3005 -0.1864
  274MOL0     C36050   7.156   0.535  10.189 -0.3614  0.9170  0.1442
  274MOL0     C36051   7.059   0.481  10.297 -1.2989 -0.0648 -0.2214
  274MOL0     C36052   6.951   0.583  10.335  0.1173  0.3461  0.0468
  274MOL0     N36053   6.899   0.556  10.469  0.2158  0.6339  0.5145
  274MOL0     C36054   6.967   0.590  10.583 -0.1967 -0.7002  0.7348
  274MOL0     C36055   6.884   0.557  10.690  0.1830 -0.4974  0.0950
  274MOL0     C36056   6.911   0.559  10.825 -0.2778 -0.3367 -0.5125
  274MOL0     C36057   6.930   0.416  10.879  1.5473  0.0527 -1.1258
  274MOL0     C36058   7.061   0.345  10.838  0.5634  0.7992 -1.0037
  274MOL0     C36059   7.186   0.388  10.928  1.1023  0.3816  0.4501
  274MOL0     O36060   7.264   0.501  10.874  0.2820  0.0759  0.5784
  274MOL0     C36061   7.341   0.477  10.763 -0.9273 -0.2709 -0.3101
  274MOL0     C36062   7.441   0.564  10.725  0.2470  0.0327  0.5448
  274MOL0     C36063   7.523   0.546  10.602 -0.3511  0.2654 -0.3847
  274MOL0     C36064   7.510   0.427  10.533  0.2998 -0.2203 -0.2005
  274MOL0     C36065   7.590   0.385  10.410  0.2124  0.5193  0.0494
  274MOL0     O36066   7.602   0.248  10.382 -0.5871  0.7386 -0.0945
  274MOL0     C36067   7.664   0.230  10.263  0.0944  0.1093  0.1199
  274MOL0     C36068   7.596   0.245  10.143  0.6312 -0.1395 -0.1674
  274MOL0     C36069   7.651   0.231  10.021 -0.5769  0.3587 -0.4255
  274MOL0     C36070   7.785   0.197  10.013  1.0096  0.9654 -0.5117
  274MOL0     O36071   7.858   0.181   9.900  0.7868 -0.6344 -0.0235
  274MOL0     C36072   7.802   0.218   9.771 -0.3273 -1.0613 -0.9095
  274MOL0     C36073   7.872   0.161   9.653  0.6329 -0.0891 -0.2787
  274MOL0     C36074   7.799   0.211   9.524 -0.0998 -0.2073  0.1496
  274MOL0     C36075   7.866   0.136   9.407 -0.4890  0.5006 -0.3750
  274MOL0     C36076   7.785   0.182   9.279  0.0527  0.2109  0.3060
  274MOL0     C36077   7.627   0.175   9.277 -0.5655 -0.4445  0.2720
  274MOL0     C36078   7.578   0.193   9.130  0.0652 -0.1773 -0.1165
  274MOL0     C36079   7.618   0.329   9.065  0.4937  0.3347  0.3222
  274MOL0    Cl36080   7.772   0.303   8.986  0.7044 -0.3587  0.2671
  274MOL0     C36081   7.855   0.177  10.135 -0.2466  0.6585 -1.3272
  274MOL0     C36082   7.795   0.200  10.258 -0.0506  0.1905 -0.1080
  274MOL0     O36083   7.645   0.476  10.347 -0.1352 -0.0161  0.6518
  274MOL0     C36084   7.414   0.331  10.576 -0.6086  0.7838  0.2779
  274MOL0     C36085   7.330   0.358  10.687 -0.5681 -0.6107  0.0038
  274MOL0     N36086   6.769   0.497  10.634 -0.5628  0.6614  1.0360
  274MOL0     N36087   6.784   0.490  10.508  0.0450 -0.9484  0.1652
  274MOL0     C36088   6.969   0.875   9.715  0.2148  0.5731  0.1300
  274MOL0     C36089   6.888   0.966   9.649  1.0443 -0.1304  0.6837
  274MOL0     C36090   6.881   1.366   9.397 -1.2360  0.4915 -0.2533
  274MOL0     C36091   6.915   1.501   9.397 -0.7248 -0.1717 -0.8661
  274MOL0     C36092   6.881   1.591   9.295 -0.3134 -0.4440 -0.3997
  274MOL0     C36093   6.791   1.548   9.198 -0.0492 -0.9857  0.6326
  274MOL0     O36094   6.750   1.647   9.095  0.2028  0.5337  0.5358
  274MOL0     C36095   6.613   1.635   9.039 -0.6463  0.1470 -0.7839
  274MOL0     C36096   6.503   1.654   9.148 -0.2683 -1.3253 -0.5409
  274MOL0     C36097   6.357   1.685   9.099  0.2437 -0.1898 -0.4112
  274MOL0     C36098   6.353   1.827   9.052 -0.3382 -0.1448 -0.4442
  274MOL0     C36099   6.357   1.855   8.909  0.1480  0.1619 -0.5536
  274MOL0     C36100   6.362   1.885   8.792  0.4065 -0.0424  0.3214
  274MOL0     C36101   6.752   1.417   9.195  0.5673  0.2223  0.0872
  274MOL0     C36102   6.792   1.328   9.294  0.1775  0.5421 -0.7588
  274MOL0     H36103   7.147   1.102   9.461  0.2017 -1.5061 -1.5423
  274MOL0     H36104   7.266   0.920   9.549 -0.5471 -1.1684 -0.4984
  274MOL0     H36105   7.330   0.875   9.759  0.2931 -0.5692 -3.6416
  274MOL0     H36106   7.334   0.720   9.681 -1.6064  0.9126 -1.4626
  274MOL0     H36107   7.461   0.736   9.894  0.1311 -0.8500 -2.4500
  274MOL0     H36108   7.339   0.607   9.900 -0.3878  0.9780  0.4666
  274MOL0     H36109   7.189   0.753  10.017 -0.2950 -1.5760  0.4150
  274MOL0     H36110   7.327   0.877  10.040  1.0968  0.0822 -0.4073
  274MOL0     H36111   7.409   0.610  10.136 -0.2859 -0.5224 -0.3336
  274MOL0     H36112   7.428   0.765  10.200  1.1678 -0.6131  0.0981
  274MOL0     H36113   7.174   0.744  10.279 -1.1007 -1.8506  1.5587
  274MOL0     H36114   7.285   0.619  10.341  2.7036  2.3555 -0.1616
  274MOL0     H36115   7.231   0.458  10.169 -1.9588 -1.4748  2.5644
  274MOL0     H36116   7.098   0.569  10.103 -0.7185  0.8156  0.3410
  274MOL0     H36117   7.016   0.387  10.263  1.7583 -2.2332  1.4792
  274MOL0     H36118   7.114   0.457  10.388 -0.0524  1.6852 -0.4521
  274MOL0     H36119   6.864   0.582  10.269 -0.6626 -0.3593  1.0656
  274MOL0     H36120   7.001   0.680  10.330  0.8563 -0.0649 -2.8984
  274MOL0     H36121   7.065   0.637  10.591  1.0565 -3.2471  1.4941
  274MOL0     H36122   6.832   0.611  10.880  1.3770  1.1740  0.5453
  274MOL0     H36123   7.000   0.617  10.852 -2.4923  2.5852  1.1219
  274MOL0     H36124   6.843   0.357  10.850  0.2271  0.3868  1.7939
  274MOL0     H36125   6.932   0.421  10.989 -3.1328 -4.4146 -0.4988
  274MOL0     H36126   7.053   0.239  10.864 -0.6344  1.1294  0.0540
  274MOL0     H36127   7.084   0.375  10.735  3.9206  0.6251 -0.4234
  274MOL0     H36128   7.250   0.300  10.932 -0.2966 -0.8466 -1.8921
  274MOL0     H36129   7.167   0.417  11.031  1.3434  3.8781 -0.3607
  274MOL0     H36130   7.452   0.653  10.787  1.0588  2.1981 -2.4313
  274MOL0     H36131   7.596   0.622  10.575  0.7677 -0.5759  0.2125
  274MOL0     H36132   7.488   0.260  10.137  0.2788 -1.7462  1.2374
  274MOL0     H36133   7.591   0.253   9.933  1.4314  0.9231 -1.7067
  274MOL0     H36134   7.801   0.327   9.760  0.1323 -1.1798 -2.3692
  274MOL0     H36135   7.697   0.188   9.777 -0.4447 -0.4588  0.5725
  274MOL0     H36136   7.888   0.053   9.651 -0.4202 -0.4086  2.7541
  274MOL0     H36137   7.967   0.216   9.640 -0.1618  1.3536 -0.2245
  274MOL0     H36138   7.810   0.319   9.510  2.9525 -0.3198  0.8137
  274MOL0     H36139   7.693   0.185   9.530 -0.2521 -1.3463 -4.1600
  274MOL0     H36140   7.975   0.146   9.394  0.4503 -4.4766  1.5083
  274MOL0     H36141   7.855   0.028   9.424 -0.6133  0.8062  1.7285
  274MOL0     H36142   7.820   0.131   9.189  0.7335  0.5835  0.3572
  274MOL0     H36143   7.820   0.280   9.245  1.5202 -1.4328 -3.3663
  274MOL0     H36144   7.580   0.248   9.343 -5.3570 -2.7886 -0.1336
  274MOL0     H36145   7.589   0.080   9.317 -1.9375 -0.0347 -0.0315
  274MOL0     H36146   7.630   0.123   9.065  1.5356  1.3664 -0.7085
  274MOL0     H36147   7.472   0.169   9.118  0.3267 -1.4922  0.0753
  274MOL0     H36148   7.632   0.412   9.134  1.8977  0.3912 -0.0018
  274MOL0     H36149   7.550   0.346   8.981 -0.0327  0.2833  0.7349
  274MOL0     H36150   7.960   0.150  10.139 -0.2639  0.6875 -0.1016
  274MOL0     H36151   7.859   0.199  10.346 -0.4754 -1.9755  0.2423
  274MOL0     H36152   7.414   0.236  10.523 -1.1890  1.4655 -0.9822
  274MOL0     H36153   7.268   0.272  10.710  1.8833 -2.3274  0.5792
  274MOL0     H36154   6.913   0.802   9.772 -0.0831 -0.3502 -1.2819
  274MOL0     H36155   6.781   0.980   9.660  0.5525 -2.1671 -0.9407
  274MOL0     H36156   6.965   1.542   9.484 -0.0580  1.2277 -1.8738
  274MOL0     H36157   6.900   1.698   9.296 -2.8494  0.1096 -1.6253
  274MOL0     H36158   6.587   1.541   8.991 -1.8534 -0.1544  0.4011
  274MOL0     H36159   6.604   1.717   8.967 -2.2304  0.1684 -0.5901
  274MOL0     H36160   6.496   1.565   9.211  1.1709 -0.6623  0.6425
  274MOL0     H36161   6.544   1.732   9.214  1.7130 -2.7475  0.0093
  274MOL0     H36162   6.300   1.671   9.191  1.5041 -1.3152  0.2316
  274MOL0     H36163   6.302   1.626   9.026 -1.8878  0.4914  0.5508
  274MOL0     H36164   6.266   1.877   9.096  1.3782  1.7748  0.9506
  274MOL0     H36165   6.442   1.883   9.080  0.0310  0.1831 -2.1863
  274MOL0     H36166   6.361   1.912   8.688 -3.1559  3.5533  1.0009
  274MOL0     H36167   6.685   1.399   9.112 -0.3637 -0.4338  0.9591
  274MOL0     H36168   6.740   1.233   9.299 -0.5361  0.9797  2.1309
  275MOL0     O36169  11.377   8.411   5.919  0.3362  0.0685 -0.4937
  275MOL0     C36170  11.458   8.496   5.877 -0.5238  0.4334 -0.1663
  275MOL0     O36171  11.450   8.545   5.746 -0.1476  0.2466 -1.0436
  275MOL0     C36172  11.332   8.541   5.668  0.2441 -0.3766 -0.6040
  275MOL0     C36173  11.343   8.605   5.544 -0.0095  0.1779 -0.8813
  275MOL0     C36174  11.236   8.612   5.456 -0.2409 -0.5433 -0.1604
  275MOL0     C36175  11.117   8.553   5.494 -0.2822 -0.4072 -0.1455
  275MOL0     O36176  11.001   8.543   5.419  0.3066  0.4009  0.5421
  275MOL0     C36177  10.958   8.668   5.355  0.2243 -1.1109  0.5710
  275MOL0     C36178  10.849   8.635   5.256 -0.1481 -0.0607  0.2174
  275MOL0     C36179  10.871   8.505   5.169 -0.4621 -0.2851 -0.0163
  275MOL0     C36180  10.990   8.513   5.074 -0.0296  0.0303  0.4890
  275MOL0     C36181  10.952   8.410   4.968  0.6031 -0.3950  0.1537
  275MOL0     C36182  11.026   8.430   4.838  0.7633  0.9267 -1.4246
  275MOL0     C36183  11.005   8.319   4.725 -0.6644 -0.2092  0.5686
  275MOL0     C36184  11.064   8.381   4.599  0.5047  0.5743  0.5656
  275MOL0     N36185  10.977   8.461   4.511  0.0355  0.1911  0.9916
  275MOL0     C36186  10.860   8.422   4.443 -1.1120 -0.2296 -0.3919
  275MOL0     C36187  10.818   8.529   4.376 -0.2254  0.3812  0.5903
  275MOL0     C36188  10.687   8.526   4.302  1.1630 -0.9102  0.5133
  275MOL0     C36189  10.699   8.507   4.150  0.2064  0.3055 -0.0249
  275MOL0     C36190  10.561   8.502   4.086 -0.0480  0.1205  0.0991
  275MOL0     C36191  10.477   8.629   4.097 -0.3681  0.4027  0.0408
  275MOL0     O36192  10.544   8.738   4.040  0.5911  0.1995  0.2588
  275MOL0     C36193  10.537   8.855   4.109  0.4031 -0.2226  0.2280
  275MOL0     C36194  10.424   8.942   4.099 -1.1095 -0.2813  0.0480
  275MOL0     C36195  10.422   9.073   4.143 -0.4462 -0.3948 -0.4239
  275MOL0     C36196  10.536   9.124   4.190 -0.4283 -1.3628 -0.3996
  275MOL0     C36197  10.546   9.276   4.205 -0.3677 -0.6033  0.2343
  275MOL0     O36198  10.663   9.343   4.198  0.2439  0.2314  0.9602
  275MOL0     C36199  10.675   9.469   4.246 -0.4814 -0.4907 -0.5157
  275MOL0     C36200  10.671   9.504   4.378 -0.0283  1.0177  0.6196
  275MOL0     C36201  10.693   9.632   4.428 -0.1682 -0.0996  0.1105
  275MOL0     C36202  10.727   9.727   4.335  0.8849  0.4606  0.5505
  275MOL0     O36203  10.726   9.855   4.377  0.5887 -0.1900 -0.1347
  275MOL0     C36204  10.846   9.884   4.442  0.6194 -0.7175 -0.4018
  275MOL0     C36205  10.879  10.031   4.452  0.5152  0.1547 -0.1741
  275MOL0     C36206  10.920  10.084   4.314 -0.3898 -0.3883 -0.2212
  275MOL0     C36207  10.938  10.236   4.316 -0.4235 -0.4709  0.4883
  275MOL0     C36208  10.984  10.308   4.196  0.0397 -0.0980  0.1329
  275MOL0     C36209  11.086  10.429   4.233 -0.2953  0.1596 -0.3164
  275MOL0     C36210  11.092  10.529   4.112  0.6927  0.5014 -0.7648
  275MOL0     C36211  11.219  10.617   4.120  1.2751 -0.0188  0.4848
  275MOL0    Cl36212  11.224  10.704   3.969 -0.7248  0.2756 -0.3265
  275MOL0     C36213  10.732   9.702   4.203 -0.4970 -0.3378  0.0553
  275MOL0     C36214  10.700   9.572   4.155 -0.5782 -0.6780  0.7345
  275MOL0     O36215  10.440   9.327   4.249  0.3222 -0.1090 -0.3173
  275MOL0     C36216  10.654   9.044   4.210 -0.1783  1.3112  0.3557
  275MOL0     C36217  10.646   8.907   4.170 -0.3007  0.1837 -0.0896
  275MOL0     N36218  10.923   8.624   4.379  0.5506  0.9146 -0.3233
  275MOL0     N36219  11.004   8.588   4.471 -0.3356 -0.3417  0.8463
  275MOL0     C36220  11.103   8.512   5.626  0.4028 -1.0449 -0.2038
  275MOL0     C36221  11.204   8.491   5.713 -0.8089 -0.1730 -0.9468
  275MOL0     C36222  11.567   8.543   5.964  0.3347 -0.2758 -0.7035
  275MOL0     C36223  11.600   8.488   6.093  0.7197 -0.0308 -0.3684
  275MOL0     C36224  11.698   8.539   6.179  0.0362 -0.0344  0.7837
  275MOL0     C36225  11.782   8.640   6.127 -1.0028 -0.0896 -0.7435
  275MOL0     O36226  11.906   8.666   6.185 -0.0781  0.7822  0.7974
  275MOL0     C36227  11.907   8.791   6.254  0.2595 -0.1725  1.6327
  275MOL0     C36228  12.022   8.803   6.351  0.7129 -0.4492  0.6479
  275MOL0     C36229  12.037   8.936   6.433  0.8362  1.6910  0.4527
  275MOL0     C36230  12.185   8.989   6.413  1.2848  0.1085  0.2308
  275MOL0     C36231  12.273   8.904   6.496  0.2198  0.9901  0.0169
  275MOL0     C36232  12.330   8.824   6.572  0.0047 -0.1564 -0.2895
  275MOL0     C36233  11.748   8.704   6.004 -0.0208  0.3938  0.9323
  275MOL0     C36234  11.639   8.660   5.927 -0.0078  0.1004 -0.4366
  275MOL0     H36235  11.435   8.653   5.512  1.6481 -3.8544 -2.8097
  275MOL0     H36236  11.258   8.644   5.354 -0.2861 -2.6804 -0.8837
  275MOL0     H36237  11.038   8.728   5.311 -1.3781  0.2752 -0.5576
  275MOL0     H36238  10.920   8.734   5.434  1.7903 -0.6903  1.0236
  275MOL0     H36239  10.850   8.722   5.189  2.2067  0.4157  0.7688
  275MOL0     H36240  10.760   8.633   5.319  1.1377 -1.2725  2.1079
  275MOL0     H36241  10.782   8.488   5.107  2.2451 -5.1622 -3.2508
  275MOL0     H36242  10.898   8.427   5.241  2.1062  0.6032  0.0760
  275MOL0     H36243  10.987   8.615   5.033  0.5916  0.0155  0.4047
  275MOL0     H36244  11.085   8.498   5.125  0.0496  0.8955  0.6141
  275MOL0     H36245  10.849   8.421   4.934  0.4218 -0.7351  0.5892
  275MOL0     H36246  10.972   8.311   5.010 -2.0388  0.2053  3.2387
  275MOL0     H36247  11.129   8.434   4.874 -0.1775 -0.3105  1.8039
  275MOL0     H36248  10.999   8.527   4.796 -0.3081  0.4756 -1.8319
  275MOL0     H36249  11.057   8.228   4.759 -1.6396  0.2774  3.7639
  275MOL0     H36250  10.901   8.290   4.710 -0.5371 -0.0754 -0.6224
  275MOL0     H36251  11.113   8.299   4.545  2.3179  1.2044  1.1816
  275MOL0     H36252  11.153   8.427   4.641  3.2997 -3.1150 -0.7458
  275MOL0     H36253  10.819   8.322   4.455 -2.2021  0.3285  0.8475
  275MOL0     H36254  10.625   8.615   4.313  0.6494 -1.1463 -0.3788
  275MOL0     H36255  10.630   8.449   4.354  1.8243 -3.6239 -2.4429
  275MOL0     H36256  10.753   8.414   4.132  2.1056  0.6025  3.3542
  275MOL0     H36257  10.763   8.586   4.110  1.9241 -0.6111  0.7846
  275MOL0     H36258  10.575   8.494   3.978 -2.7381  0.2689 -0.3153
  275MOL0     H36259  10.513   8.409   4.115 -1.8947  1.5689  1.9745
  275MOL0     H36260  10.453   8.653   4.201 -1.0708 -1.8920  0.4602
  275MOL0     H36261  10.382   8.605   4.049 -0.5998  0.3432  0.5242
  275MOL0     H36262  10.330   8.896   4.070 -1.3612  0.2935 -0.0433
  275MOL0     H36263  10.336   9.138   4.149  0.4257  0.6518  2.9250
  275MOL0     H36264  10.663   9.417   4.443 -2.8061 -1.8897 -3.1461
  275MOL0     H36265  10.680   9.649   4.534 -0.8492  0.5494 -0.0705
  275MOL0     H36266  10.930   9.833   4.393  4.3598  3.0030  1.3925
  275MOL0     H36267  10.849   9.853   4.547  0.4093  0.8335  0.0871
  275MOL0     H36268  10.962  10.056   4.519  0.5325 -0.7418  0.1544
  275MOL0     H36269  10.789  10.086   4.477 -1.0361 -1.2412 -2.2966
  275MOL0     H36270  10.848  10.064   4.234  0.4063 -0.8871 -0.8246
  275MOL0     H36271  11.021  10.046   4.300  1.1871  1.1194  4.8212
  275MOL0     H36272  10.855  10.293   4.359 -0.2035 -0.2181  0.5826
  275MOL0     H36273  11.017  10.253   4.390 -1.6594  2.4147  1.3066
  275MOL0     H36274  10.896  10.352   4.149 -0.2906 -0.7349  0.1454
  275MOL0     H36275  11.025  10.239   4.122  2.6204  2.9006 -1.4755
  275MOL0     H36276  11.189  10.394   4.242  0.3077  2.2350  2.0041
  275MOL0     H36277  11.072  10.494   4.320 -1.7794  1.0598 -1.1820
  275MOL0     H36278  11.086  10.474   4.017 -2.0952  1.9726 -1.5543
  275MOL0     H36279  11.003  10.592   4.115 -0.1680 -0.6050 -1.8950
  275MOL0     H36280  11.315  10.568   4.139 -0.3709 -3.8920 -0.2091
  275MOL0     H36281  11.211  10.687   4.205 -1.0969  1.5887 -0.9333
  275MOL0     H36282  10.770   9.778   4.137  0.5632  0.0471  1.0786
  275MOL0     H36283  10.684   9.569   4.048  1.1988 -1.1528  0.4565
  275MOL0     H36284  10.740   9.106   4.232  0.3793  1.5893 -2.2559
  275MOL0     H36285  10.735   8.846   4.171 -0.8616 -0.7933 -2.6036
  275MOL0     H36286  11.001   8.491   5.658 -1.5626  2.8048 -3.0589
  275MOL0     H36287  11.185   8.451   5.812 -3.7078 -2.2584 -2.1996
  275MOL0     H36288  11.549   8.397   6.123 -1.3944  1.4561  0.7815
  275MOL0     H36289  11.715   8.485   6.272  1.2041 -2.6500 -0.8159
  275MOL0     H36290  11.811   8.794   6.307  0.0016  0.0639  1.1592
  275MOL0     H36291  11.908   8.877   6.187 -0.8075 -2.1255 -1.0508
  275MOL0     H36292  12.008   8.726   6.427 -3.4458 -1.5957 -1.0279
  275MOL0     H36293  12.103   8.770   6.286 -0.2279 -2.7878  0.5788
  275MOL0     H36294  12.007   8.926   6.538 -1.3847  0.0908 -0.2721
  275MOL0     H36295  11.963   9.005   6.392 -3.1756 -3.0843 -1.3777
  275MOL0     H36296  12.213   8.978   6.308  2.5638 -0.0307  0.5726
  275MOL0     H36297  12.198   9.095   6.439  0.2252  0.7974 -1.7916
  275MOL0     H36298  12.383   8.758   6.637  3.7096  0.2765 -2.5424
  275MOL0     H36299  11.814   8.787   5.980 -0.1510 -0.2057 -1.7452
  275MOL0     H36300  11.616   8.717   5.838 -3.6102 -0.5888 -0.1213
  276MOL0     O36301   1.999   5.836   0.394  0.4323 -0.1978  0.3084
  276MOL0     C36302   2.068   5.802   0.299 -0.9916 -0.5766  0.0530
  276MOL0     O36303   2.195   5.748   0.310 -0.2412  0.1962 -0.5247
  276MOL0     C36304   2.244   5.741   0.437 -0.0838 -0.1654  0.4607
  276MOL0     C36305   2.287   5.619   0.484  0.3617 -0.2619  1.2207
  276MOL0     C36306   2.339   5.605   0.613 -0.0246 -0.0161 -0.0175
  276MOL0     C36307   2.345   5.715   0.698  0.1206  0.4901 -0.1533
  276MOL0     O36308   2.407   5.721   0.820  0.3751  0.2024 -0.5424
  276MOL0     C36309   2.434   5.598   0.896  0.3543 -0.3058 -0.0002
  276MOL0     C36310   2.524   5.634   1.012  1.2653  0.3664  0.7655
  276MOL0     C36311   2.579   5.514   1.086 -0.3761  0.1009  0.6690
  276MOL0     C36312   2.479   5.433   1.163 -0.3281 -0.2451  0.2804
  276MOL0     C36313   2.549   5.313   1.225 -0.0518  0.3776 -0.0609
  276MOL0     C36314   2.452   5.231   1.308  0.2984  0.1178  0.1422
  276MOL0     C36315   2.419   5.304   1.446 -0.0404  1.4960 -0.6118
  276MOL0     C36316   2.267   5.326   1.470  0.0925 -1.0617  0.0565
  276MOL0     N36317   2.244   5.353   1.614 -0.3104 -0.2705  0.8217
  276MOL0     C36318   2.279   5.460   1.692 -0.3127  0.0428 -0.1674
  276MOL0     C36319   2.265   5.421   1.826  0.0846 -0.1146  0.6166
  276MOL0     C36320   2.287   5.505   1.954  1.0895  0.0573 -0.6201
  276MOL0     C36321   2.169   5.499   2.047 -0.4687 -0.1472 -0.0321
  276MOL0     C36322   2.038   5.547   1.984  0.5259  0.0495  0.7739
  276MOL0     C36323   1.958   5.630   2.081  0.2357  0.0757 -1.4895
  276MOL0     O36324   1.932   5.553   2.203 -0.3224  0.2964  0.4553
  276MOL0     C36325   1.845   5.589   2.303  0.8237  0.0215 -0.2081
  276MOL0     C36326   1.767   5.703   2.301 -0.6062 -0.2810 -0.6923
  276MOL0     C36327   1.660   5.716   2.392 -0.1248  0.1515 -0.0004
  276MOL0     C36328   1.639   5.614   2.490 -0.9764  0.2529  0.2113
  276MOL0     C36329   1.529   5.629   2.597  0.0258  0.9088 -0.9023
  276MOL0     O36330   1.433   5.717   2.577 -0.4469 -0.2438  0.5073
  276MOL0     C36331   1.378   5.790   2.684  0.8097 -0.8736  1.6725
  276MOL0     C36332   1.270   5.734   2.762 -1.1596 -0.5424  0.3427
  276MOL0     C36333   1.227   5.815   2.872  0.2226 -0.3089 -1.0283
  276MOL0     C36334   1.275   5.941   2.904 -0.9405 -0.5326  0.4914
  276MOL0     O36335   1.210   5.987   3.017 -0.2949 -0.3835 -0.4041
  276MOL0     C36336   1.262   6.101   3.080  1.7066  0.1214  0.7834
  276MOL0     C36337   1.181   6.138   3.210 -0.0678  0.7857 -0.0861
  276MOL0     C36338   1.253   6.248   3.286 -0.6363 -0.0551  0.7592
  276MOL0     C36339   1.191   6.271   3.417  0.0960 -0.4608  0.6811
  276MOL0     C36340   1.257   6.382   3.501  0.3643 -0.8443 -0.0620
  276MOL0     C36341   1.191   6.391   3.638 -0.0139 -0.9425  0.0627
  276MOL0     C36342   1.272   6.478   3.732 -0.0127  0.1071  1.1418
  276MOL0     C36343   1.191   6.484   3.868 -0.2023  0.2540  0.4938
  276MOL0    Cl36344   1.277   6.565   3.997 -0.1411 -0.2608  0.1973
  276MOL0     C36345   1.378   5.988   2.821 -0.5902 -0.9113 -0.1645
  276MOL0     C36346   1.433   5.911   2.716 -0.0419 -0.8226 -0.3444
  276MOL0     O36347   1.537   5.554   2.694  0.0082 -0.3279  0.6621
  276MOL0     C36348   1.727   5.506   2.499 -0.4098 -0.4704 -0.3428
  276MOL0     C36349   1.832   5.495   2.405  0.9324  0.4231  0.0454
  276MOL0     N36350   2.216   5.297   1.813 -0.1180 -0.3802 -0.4524
  276MOL0     N36351   2.198   5.262   1.694 -0.8303  0.9822  0.2846
  276MOL0     C36352   2.293   5.836   0.658  0.4085  0.2184  0.9600
  276MOL0     C36353   2.243   5.850   0.529 -0.7691 -0.4543  1.3843
  276MOL0     C36354   2.015   5.822   0.163 -0.4879 -0.3611 -0.5209
  276MOL0     C36355   1.877   5.855   0.147 -0.4120  0.0145 -0.7055
  276MOL0     C36356   1.816   5.871   0.023 -1.7068  0.1367  0.3522
  276MOL0     C36357   1.891   5.853  -0.086  0.0147  0.8415  0.3368
  276MOL0     O36358   1.811   5.861  -0.203 -0.4905  0.3056 -0.0197
  276MOL0     C36359   1.867   5.827  -0.332 -0.9617 -0.3311  0.6230
  276MOL0     C36360   1.920   5.952  -0.404  0.1925  0.3812 -1.1177
  276MOL0     C36361   1.976   5.927  -0.550  0.1097  0.4412  0.0109
  276MOL0     C36362   1.863   5.952  -0.652 -1.1573 -0.3397 -0.1243
  276MOL0     C36363   1.895   5.904  -0.785 -0.1394 -0.1561  0.2353
  276MOL0     C36364   1.912   5.879  -0.903 -0.8160 -0.4258 -0.1773
  276MOL0     C36365   2.034   5.818  -0.079 -0.3146  0.0844  0.5637
  276MOL0     C36366   2.095   5.803   0.045  0.2381  0.0135 -1.5195
  276MOL0     H36367   2.283   5.532   0.419  0.0737  1.2564 -0.9032
  276MOL0     H36368   2.390   5.513   0.641 -3.7122 -1.6735  1.9538
  276MOL0     H36369   2.463   5.513   0.833 -2.5728 -1.1014 -0.4568
  276MOL0     H36370   2.339   5.567   0.941 -0.7904  0.6570 -1.6217
  276MOL0     H36371   2.475   5.705   1.079 -0.0469  0.2837 -0.0751
  276MOL0     H36372   2.606   5.699   0.978  0.3915  1.9654  1.5777
  276MOL0     H36373   2.651   5.558   1.156  1.3616 -0.9618 -0.3926
  276MOL0     H36374   2.621   5.447   1.011  2.8662  1.4716  1.1093
  276MOL0     H36375   2.454   5.504   1.242  0.6491 -1.6854  1.9653
  276MOL0     H36376   2.393   5.403   1.101 -1.3262  2.4154  0.2560
  276MOL0     H36377   2.634   5.343   1.286  2.8913 -3.2911 -1.9200
  276MOL0     H36378   2.606   5.251   1.155  2.3586  2.2456  0.1249
  276MOL0     H36379   2.482   5.128   1.330 -0.7820 -0.0519  0.8899
  276MOL0     H36380   2.359   5.231   1.251  1.2137  2.2165 -1.4643
  276MOL0     H36381   2.449   5.240   1.530 -2.9032  0.5961 -0.1453
  276MOL0     H36382   2.489   5.383   1.473  0.4959 -0.2336  4.1006
  276MOL0     H36383   2.214   5.238   1.431 -0.1558  0.2512 -2.8121
  276MOL0     H36384   2.232   5.413   1.415 -0.9218 -1.0067  0.7688
  276MOL0     H36385   2.314   5.557   1.656  1.2249  0.0014  1.0854
  276MOL0     H36386   2.304   5.607   1.918  1.9680 -0.0325 -0.4788
  276MOL0     H36387   2.379   5.483   2.008  0.9021  1.6896  0.4226
  276MOL0     H36388   2.193   5.580   2.117 -0.5042  1.9542 -2.3011
  276MOL0     H36389   2.169   5.401   2.096  1.3454  0.5180  1.4192
  276MOL0     H36390   2.055   5.604   1.893  4.4627  0.3302  1.5230
  276MOL0     H36391   1.977   5.458   1.962  1.5811 -0.7049  0.8344
  276MOL0     H36392   1.858   5.639   2.037 -0.2351  1.7048 -0.1880
  276MOL0     H36393   2.004   5.724   2.111 -1.2630  0.0298  1.2968
  276MOL0     H36394   1.772   5.756   2.206  0.4021  0.3092 -0.3233
  276MOL0     H36395   1.592   5.800   2.387 -1.1076 -0.7138 -2.5320
  276MOL0     H36396   1.243   5.630   2.748 -0.0514 -0.7321 -0.4524
  276MOL0     H36397   1.153   5.769   2.936  0.3236  0.1275 -0.5960
  276MOL0     H36398   1.244   6.186   3.014 -0.9921 -1.8741 -1.3181
  276MOL0     H36399   1.364   6.076   3.109  1.8534 -0.4190 -0.1684
  276MOL0     H36400   1.156   6.043   3.259 -2.0216  0.6477 -1.2189
  276MOL0     H36401   1.085   6.178   3.177 -0.9579 -0.3697  0.9959
  276MOL0     H36402   1.262   6.340   3.228  4.5785 -1.9289 -2.0534
  276MOL0     H36403   1.357   6.220   3.304 -0.0189  1.9591  0.5401
  276MOL0     H36404   1.091   6.315   3.411  1.2883  2.3123 -0.8945
  276MOL0     H36405   1.187   6.182   3.481 -2.0771  0.9391  2.7109
  276MOL0     H36406   1.262   6.473   3.440 -0.5215 -0.9494 -0.3079
  276MOL0     H36407   1.364   6.365   3.518  0.8517  1.4983 -0.3592
  276MOL0     H36408   1.187   6.291   3.681  1.9790 -1.5418 -1.0092
  276MOL0     H36409   1.090   6.432   3.627 -0.1184 -0.6560  1.8703
  276MOL0     H36410   1.373   6.436   3.742  0.5427 -0.0282 -3.1754
  276MOL0     H36411   1.273   6.580   3.695 -1.6638  0.2046  1.3175
  276MOL0     H36412   1.150   6.386   3.894  0.0522 -0.0197 -0.0972
  276MOL0     H36413   1.105   6.548   3.848 -0.9622 -1.5084 -2.6408
  276MOL0     H36414   1.397   6.094   2.837 -5.0615 -0.1866  1.6623
  276MOL0     H36415   1.508   5.953   2.649 -1.1871  2.6094  0.3254
  276MOL0     H36416   1.707   5.433   2.577  3.1765  0.2003  1.3890
  276MOL0     H36417   1.897   5.408   2.411 -2.0246 -1.8216  2.8278
  276MOL0     H36418   2.305   5.917   0.730  0.5306  0.4326  0.6978
  276MOL0     H36419   2.225   5.953   0.500  0.6382 -0.5044  0.1842
  276MOL0     H36420   1.801   5.882   0.220  0.0491  2.5959 -1.0934
  276MOL0     H36421   1.718   5.912  -0.000 -0.2167  1.7933 -4.2035
  276MOL0     H36422   1.785   5.787  -0.392  0.2347 -2.6057  0.4045
  276MOL0     H36423   1.934   5.743  -0.318 -1.6521 -1.0177 -0.0870
  276MOL0     H36424   1.840   6.027  -0.403 -0.7452 -0.5998 -1.1703
  276MOL0     H36425   2.007   5.983  -0.346  0.4681  0.6392 -1.6670
  276MOL0     H36426   2.003   5.821  -0.558 -0.1284  0.4617 -1.2639
  276MOL0     H36427   2.061   5.990  -0.578  2.2657 -2.2514  0.0445
  276MOL0     H36428   1.775   5.909  -0.604 -1.4931 -0.4423 -0.8150
  276MOL0     H36429   1.849   6.060  -0.651  0.4572 -0.0943  1.9378
  276MOL0     H36430   1.903   5.843  -1.003 -2.2335 -4.5667  1.1936
  276MOL0     H36431   2.099   5.807  -0.165 -2.9340 -0.0666 -1.5312
  276MOL0     H36432   2.201   5.782   0.047 -0.1341 -1.9995 -0.9976
  277MOL0     O36433   4.388   2.217   2.267 -0.1820  0.0428  0.6284
  277MOL0     C36434   4.293   2.164   2.207  0.0993  2.2009 -0.0986
  277MOL0     O36435   4.198   2.091   2.272 -0.1726  0.4379  0.2299
  277MOL0     C36436   4.221   2.050   2.401  0.6045 -0.0875 -0.3103
  277MOL0     C36437   4.211   2.137   2.511 -0.0524 -0.1222  0.6126
  277MOL0     C36438   4.238   2.081   2.636  0.9749  0.9465  0.1950
  277MOL0     C36439   4.256   1.942   2.656  0.0970  0.1676  0.2703
  277MOL0     O36440   4.264   1.884   2.777  0.3605  0.1391  0.1686
  277MOL0     C36441   4.246   1.963   2.889  0.6743 -0.7167 -1.1101
  277MOL0     C36442   4.291   1.869   3.007 -0.3890 -1.2163 -0.5164
  277MOL0     C36443   4.301   1.947   3.134 -0.4589 -0.0907 -0.6791
  277MOL0     C36444   4.340   1.857   3.252  0.3875  0.8040  0.5286
  277MOL0     C36445   4.307   1.921   3.388 -0.5517  0.5999 -0.0240
  277MOL0     C36446   4.414   2.013   3.434  0.7406  0.0560 -1.3315
  277MOL0     C36447   4.383   2.080   3.563  0.0521  0.1145 -0.1601
  277MOL0     C36448   4.410   1.985   3.684 -0.3246 -0.2834  0.7812
  277MOL0     N36449   4.361   2.051   3.808 -0.1030  1.0554 -0.1662
  277MOL0     C36450   4.403   2.167   3.858  0.6369 -0.7463 -0.9624
  277MOL0     C36451   4.310   2.184   3.960  0.7694 -0.9483 -0.4777
  277MOL0     C36452   4.285   2.305   4.045 -0.4570 -0.3764 -0.6755
  277MOL0     C36453   4.357   2.297   4.190  0.3441 -0.5411  1.0220
  277MOL0     C36454   4.304   2.405   4.297  0.4737  0.9525  0.2414
  277MOL0     C36455   4.347   2.541   4.260 -0.0720 -0.3530  0.3076
  277MOL0     O36456   4.474   2.582   4.310  0.1798 -0.0351  0.0883
  277MOL0     C36457   4.471   2.678   4.409 -0.0550  0.2968 -0.9648
  277MOL0     C36458   4.568   2.772   4.415  0.6472 -0.7611  0.3892
  277MOL0     C36459   4.578   2.879   4.506 -0.1275  0.2072 -1.1440
  277MOL0     C36460   4.481   2.895   4.595 -0.2508  0.8534  0.2953
  277MOL0     C36461   4.491   2.984   4.715  0.5653 -0.4557 -0.0853
  277MOL0     O36462   4.410   2.951   4.822 -0.0777  0.8848  0.1440
  277MOL0     C36463   4.419   3.032   4.934  0.8159  1.0151  0.1164
  277MOL0     C36464   4.504   2.999   5.032 -0.0952 -0.6688 -1.0401
  277MOL0     C36465   4.498   3.065   5.156 -0.4540  0.9087 -0.4970
  277MOL0     C36466   4.412   3.173   5.183  0.7654  0.6367 -1.4145
  277MOL0     O36467   4.412   3.235   5.308 -0.4063 -0.1318 -0.5424
  277MOL0     C36468   4.418   3.148   5.418 -0.3537  0.6338 -0.0697
  277MOL0     C36469   4.347   3.220   5.526 -0.4897 -0.6896  0.4594
  277MOL0     C36470   4.349   3.142   5.646 -0.6681  0.2006 -0.8737
  277MOL0     C36471   4.306   3.244   5.752 -0.2680  0.4789 -0.6980
  277MOL0     C36472   4.298   3.197   5.892  0.2679 -0.2179 -0.7880
  277MOL0     C36473   4.409   3.119   5.948 -0.7791  0.2320 -0.1010
  277MOL0     C36474   4.399   3.091   6.092  0.2008  0.3029  0.2538
  277MOL0     C36475   4.530   3.055   6.162 -0.7837 -1.2922 -0.3371
  277MOL0    Cl36476   4.641   3.187   6.203 -0.2727  0.4054  0.1000
  277MOL0     C36477   4.331   3.215   5.081 -0.7993  0.6252 -0.0266
  277MOL0     C36478   4.330   3.140   4.950  0.4370 -0.6191 -0.5460
  277MOL0     O36479   4.560   3.085   4.700  0.4588 -0.3785 -1.1402
  277MOL0     C36480   4.379   2.802   4.594  0.4290  0.5327 -0.6279
  277MOL0     C36481   4.377   2.695   4.504  0.0106 -0.0114 -0.1941
  277MOL0     N36482   4.220   2.081   3.961  0.2976 -0.0937  0.2016
  277MOL0     N36483   4.246   2.010   3.858  0.5454  0.6095 -0.1350
  277MOL0     C36484   4.262   1.864   2.547  0.3154 -0.2206 -0.7943
  277MOL0     C36485   4.244   1.911   2.422 -0.2517 -0.0604  0.3568
  277MOL0     C36486   4.269   2.184   2.059 -1.1428 -0.5059  0.3644
  277MOL0     C36487   4.155   2.136   2.005  0.4816 -0.6419 -0.5275
  277MOL0     C36488   4.127   2.159   1.865 -0.2540 -0.6449  0.2963
  277MOL0     C36489   4.215   2.238   1.782 -0.1837 -0.4722 -0.3305
  277MOL0     O36490   4.156   2.274   1.663 -0.4956 -0.1711 -0.5250
  277MOL0     C36491   4.231   2.354   1.569  0.7158  0.8968 -1.5219
  277MOL0     C36492   4.135   2.425   1.473 -0.8716 -0.4670  0.0244
  277MOL0     C36493   4.043   2.522   1.556  0.6709  0.2320 -0.6697
  277MOL0     C36494   3.932   2.555   1.457 -0.1150 -0.5589  0.0264
  277MOL0     C36495   3.818   2.586   1.555 -0.4727 -0.2927 -1.0013
  277MOL0     C36496   3.721   2.629   1.618  0.4321  0.5450 -0.2105
  277MOL0     C36497   4.334   2.277   1.838 -0.5486  0.3869 -0.6450
  277MOL0     C36498   4.355   2.257   1.978 -0.1105  0.8813  0.1607
  277MOL0     H36499   4.173   2.238   2.503 -1.3163 -0.5962  0.5311
  277MOL0     H36500   4.263   2.147   2.718  3.2802 -3.1731  3.2184
  277MOL0     H36501   4.140   1.976   2.913  0.6770  0.5183 -1.6608
  277MOL0     H36502   4.294   2.061   2.896 -1.0157  0.1590 -1.2704
  277MOL0     H36503   4.394   1.840   2.989 -0.0906 -0.7028  0.2793
  277MOL0     H36504   4.234   1.777   3.020 -3.1455  0.4661  0.4324
  277MOL0     H36505   4.207   2.001   3.147  0.1927  1.6357 -2.5950
  277MOL0     H36506   4.380   2.023   3.134  0.3874 -0.9445 -0.6478
  277MOL0     H36507   4.276   1.769   3.245 -1.2354  2.0835 -2.8838
  277MOL0     H36508   4.445   1.830   3.235 -0.2995 -0.0933 -2.9109
  277MOL0     H36509   4.290   1.841   3.460 -2.4066  0.5145 -0.4835
  277MOL0     H36510   4.212   1.976   3.389 -2.7164 -2.8079  1.7939
  277MOL0     H36511   4.439   2.099   3.371  0.5224  1.5981  0.5494
  277MOL0     H36512   4.511   1.964   3.448  1.2337  1.4909  0.8477
  277MOL0     H36513   4.433   2.175   3.581 -1.0726  0.6386  0.3092
  277MOL0     H36514   4.276   2.096   3.579  0.3523  0.4309  1.6964
  277MOL0     H36515   4.516   1.961   3.695  0.3888  2.3755  0.3962
  277MOL0     H36516   4.348   1.894   3.683 -3.4035  1.6390 -0.8039
  277MOL0     H36517   4.480   2.236   3.824  1.2014 -0.6217  0.5212
  277MOL0     H36518   4.179   2.327   4.061 -0.2105 -0.9378  2.4128
  277MOL0     H36519   4.326   2.389   3.987 -0.3339  0.3297  0.3912
  277MOL0     H36520   4.465   2.310   4.185  0.9467 -3.4303  3.3504
  277MOL0     H36521   4.340   2.195   4.227 -0.2809  0.2099  2.9386
  277MOL0     H36522   4.196   2.393   4.305  0.5318 -0.1046 -0.3280
  277MOL0     H36523   4.349   2.383   4.395 -0.7424 -3.6427 -0.0025
  277MOL0     H36524   4.277   2.619   4.292  4.0017  4.0980 -0.4901
  277MOL0     H36525   4.336   2.562   4.154 -0.3041 -3.1617 -0.2862
  277MOL0     H36526   4.634   2.791   4.330 -0.6120  1.5547 -0.1787
  277MOL0     H36527   4.664   2.945   4.507  0.5304 -0.6066  0.5483
  277MOL0     H36528   4.564   2.908   5.026  0.1282 -0.5881 -0.1997
  277MOL0     H36529   4.561   3.024   5.234  1.7301  3.3145 -0.8532
  277MOL0     H36530   4.522   3.126   5.447  0.3053  0.7291 -2.2130
  277MOL0     H36531   4.367   3.052   5.405  0.3341 -0.1803  2.6005
  277MOL0     H36532   4.249   3.250   5.489  0.9738  3.1162 -0.8694
  277MOL0     H36533   4.418   3.302   5.539 -1.5666  0.2060  0.8026
  277MOL0     H36534   4.446   3.100   5.672 -1.3109 -1.1578 -0.5641
  277MOL0     H36535   4.268   3.068   5.646 -1.4658  1.0077  1.0327
  277MOL0     H36536   4.385   3.319   5.743  0.8461 -0.8753 -5.5033
  277MOL0     H36537   4.212   3.294   5.724 -1.2695 -1.2171 -0.5284
  277MOL0     H36538   4.209   3.133   5.900 -1.2466  1.9150  0.2557
  277MOL0     H36539   4.275   3.280   5.959  2.3503 -1.0219  1.0312
  277MOL0     H36540   4.486   3.195   5.935 -1.1081  0.8001  1.1405
  277MOL0     H36541   4.423   3.034   5.880  2.0547  2.0167 -1.9802
  277MOL0     H36542   4.350   3.175   6.142  0.7391  1.7002 -1.4901
  277MOL0     H36543   4.338   3.000   6.090  0.2183  0.2765  0.8285
  277MOL0     H36544   4.584   2.985   6.097 -0.1363  1.0656 -2.4637
  277MOL0     H36545   4.517   3.000   6.256  1.6430 -1.3428  0.0454
  277MOL0     H36546   4.262   3.297   5.100 -0.9198  0.8160 -1.1828
  277MOL0     H36547   4.272   3.162   4.862  1.1385 -3.4421 -1.7947
  277MOL0     H36548   4.292   2.799   4.659  2.0904 -0.6768  1.6613
  277MOL0     H36549   4.298   2.623   4.526  1.8718 -1.6450  1.5030
  277MOL0     H36550   4.287   1.759   2.561  0.9517  0.0993  0.6833
  277MOL0     H36551   4.268   1.852   2.334  1.7269  0.5460  0.4500
  277MOL0     H36552   4.093   2.073   2.067 -0.0333 -0.9810 -1.3650
  277MOL0     H36553   4.036   2.120   1.821 -0.1083  1.0991 -1.6883
  277MOL0     H36554   4.297   2.287   1.514  0.7076 -1.1075  0.7576
  277MOL0     H36555   4.290   2.425   1.628  1.2535 -2.5179  2.5235
  277MOL0     H36556   4.193   2.484   1.401 -0.3324  0.3005  1.0553
  277MOL0     H36557   4.074   2.347   1.428 -0.0636  0.1783 -2.2930
  277MOL0     H36558   4.090   2.610   1.601 -2.5339  1.8966 -0.2540
  277MOL0     H36559   3.998   2.479   1.647 -1.8328  4.6887  0.5222
  277MOL0     H36560   3.957   2.644   1.398  0.5862 -0.3874  0.5598
  277MOL0     H36561   3.904   2.470   1.395  1.9067 -3.1285  2.3613
  277MOL0     H36562   3.627   2.673   1.646  1.6700  1.5599  2.7353
  277MOL0     H36563   4.412   2.309   1.769 -1.2713  0.1979 -1.5695
  277MOL0     H36564   4.436   2.285   2.044 -1.4106  5.1416  0.2696
  278MOL0     O36565   0.483   2.888   4.834  0.8540 -0.0282 -0.1493
  278MOL0     C36566   0.405   2.969   4.792  0.3750  0.2777 -0.6937
  278MOL0     O36567   0.426   3.061   4.694  0.3859 -1.2188  0.7969
  278MOL0     C36568   0.542   3.034   4.627 -0.1584 -0.2797 -0.9008
  278MOL0     C36569   0.662   3.092   4.663  0.6763  0.0797 -0.1452
  278MOL0     C36570   0.781   3.058   4.598  0.5316 -0.1559 -0.6829
  278MOL0     C36571   0.782   2.955   4.502 -0.1877  1.0963  0.2423
  278MOL0     O36572   0.891   2.897   4.430 -0.2506  0.3660 -0.1832
  278MOL0     C36573   1.021   2.939   4.473 -0.6262 -0.7182 -0.0432
  278MOL0     C36574   1.119   2.868   4.393  0.0080 -0.2853  0.1964
  278MOL0     C36575   1.248   2.953   4.361  1.4589 -0.4354 -0.5262
  278MOL0     C36576   1.369   2.881   4.301  0.7905 -0.1835 -0.7365
  278MOL0     C36577   1.499   2.969   4.292  0.5457  1.2278 -0.8655
  278MOL0     C36578   1.490   3.073   4.185  0.1748  0.0828 -0.0307
  278MOL0     C36579   1.593   3.180   4.207  0.0702 -0.0089 -0.2779
  278MOL0     C36580   1.573   3.305   4.125 -0.6090  0.1516  0.4872
  278MOL0     N36581   1.702   3.378   4.095 -0.0656  0.3976  0.2746
  278MOL0     C36582   1.802   3.342   4.009 -0.2372 -0.1489  0.1228
  278MOL0     C36583   1.898   3.437   4.032  1.4821  0.4370  0.3933
  278MOL0     C36584   2.020   3.463   3.949  0.5783 -0.6948 -0.5021
  278MOL0     C36585   2.146   3.409   4.018  0.4222  0.3362 -0.1977
  278MOL0     C36586   2.254   3.380   3.907 -0.0930 -0.1399 -0.0944
  278MOL0     C36587   2.368   3.282   3.951 -0.0760  0.3185 -0.0897
  278MOL0     O36588   2.492   3.314   3.878  0.4576 -0.5098 -0.1865
  278MOL0     C36589   2.612   3.242   3.909 -0.1001  0.9135 -0.4256
  278MOL0     C36590   2.732   3.251   3.833  0.1418  0.1942  0.4126
  278MOL0     C36591   2.853   3.197   3.885  1.3922  0.0062  0.2812
  278MOL0     C36592   2.851   3.130   4.005 -0.2215 -0.3529 -0.2051
  278MOL0     C36593   2.962   3.055   4.051  0.7091 -0.7138 -0.1983
  278MOL0     O36594   3.065   3.058   3.959 -0.1138  0.1045 -0.5233
  278MOL0     C36595   3.170   2.969   3.971  0.3617 -1.3728 -0.5765
  278MOL0     C36596   3.304   3.016   3.935  1.0316  0.6634  0.6830
  278MOL0     C36597   3.414   2.939   3.947 -0.1487  0.6040  0.2009
  278MOL0     C36598   3.406   2.815   4.013 -0.2322 -1.0615  0.3029
  278MOL0     O36599   3.518   2.733   4.035 -1.0536  0.0554 -0.7007
  278MOL0     C36600   3.512   2.641   4.149 -0.6005 -0.1819  0.0025
  278MOL0     C36601   3.657   2.622   4.205  0.7238  0.6942 -0.5690
  278MOL0     C36602   3.696   2.772   4.261  0.2095  0.0495 -0.3796
  278MOL0     C36603   3.842   2.770   4.312  0.0671  0.3661  0.7291
  278MOL0     C36604   3.872   2.860   4.430 -0.9659  0.0798 -0.3221
  278MOL0     C36605   4.020   2.852   4.462 -0.5022 -0.1315  0.1214
  278MOL0     C36606   4.114   2.959   4.392 -0.3213 -0.2263 -0.5992
  278MOL0     C36607   4.090   3.099   4.445  0.0543 -0.6110  0.1658
  278MOL0    Cl36608   4.183   3.100   4.599  0.1436 -0.1278  0.1871
  278MOL0     C36609   3.273   2.766   4.040  0.6350 -0.6820  0.7465
  278MOL0     C36610   3.154   2.840   4.024  1.4238  0.2248  0.3564
  278MOL0     O36611   2.967   3.006   4.168  0.0279 -0.2523 -0.1401
  278MOL0     C36612   2.733   3.121   4.081  0.4583 -0.2116 -0.1325
  278MOL0     C36613   2.621   3.179   4.032  0.4384  0.4663  0.2825
  278MOL0     N36614   1.843   3.522   4.118  0.5951 -0.3536  0.1192
  278MOL0     N36615   1.725   3.488   4.161  0.1202  0.8102  0.4520
  278MOL0     C36616   0.658   2.894   4.472 -0.3648 -0.0616  0.3721
  278MOL0     C36617   0.541   2.932   4.534  0.1442 -1.1669  1.2964
  278MOL0     C36618   0.271   2.963   4.857 -1.3047 -0.5268 -0.1118
  278MOL0     C36619   0.168   3.029   4.793 -0.7109 -0.1073  0.6251
  278MOL0     C36620   0.033   3.024   4.847 -1.1345 -0.2900  0.3472
  278MOL0     C36621   0.011   2.954   4.971 -0.2991 -0.6841  0.7879
  278MOL0     O36622  -0.123   2.935   4.999 -0.3241 -0.4900  0.4651
  278MOL0     C36623  -0.185   3.037   5.082 -0.3012 -0.0140 -0.4561
  278MOL0     C36624  -0.280   3.121   4.997 -0.2656  0.0935  1.3153
  278MOL0     C36625  -0.370   3.226   5.080  0.1094 -0.5583 -0.7127
  278MOL0     C36626  -0.303   3.367   5.084 -0.8955  0.4027 -0.1514
  278MOL0     C36627  -0.199   3.374   5.191  0.1118  0.6252  0.4749
  278MOL0     C36628  -0.102   3.373   5.268  0.0953 -0.6624  0.5929
  278MOL0     C36629   0.118   2.899   5.042 -1.3801  0.6855  1.0871
  278MOL0     C36630   0.253   2.893   4.984 -0.7022 -0.3760  0.1942
  278MOL0     H36631   0.637   3.171   4.733  2.0711 -2.0014  2.9001
  278MOL0     H36632   0.873   3.105   4.631 -1.0422  0.1685  4.0293
  278MOL0     H36633   1.034   2.939   4.581  2.9030  3.0481 -0.2386
  278MOL0     H36634   1.010   3.046   4.452 -4.3265  0.0892  4.4651
  278MOL0     H36635   1.096   2.851   4.287  2.9722  1.3833 -0.8432
  278MOL0     H36636   1.150   2.783   4.454  0.4083 -0.2466  0.0462
  278MOL0     H36637   1.272   2.999   4.457  1.5481  0.7748 -1.1172
  278MOL0     H36638   1.200   3.027   4.296 -2.3843 -3.2086 -1.2345
  278MOL0     H36639   1.387   2.790   4.359  1.2398 -1.3586 -2.6242
  278MOL0     H36640   1.344   2.852   4.198 -0.5397  1.7432 -1.0195
  278MOL0     H36641   1.584   2.904   4.271  0.7545  1.8306 -1.9519
  278MOL0     H36642   1.523   3.006   4.392 -0.7541 -3.2389  1.3442
  278MOL0     H36643   1.404   3.141   4.183  1.5184  1.8663 -0.2610
  278MOL0     H36644   1.504   3.044   4.081  4.5211  0.3421  0.2971
  278MOL0     H36645   1.588   3.212   4.312 -2.6678 -1.3539  0.1078
  278MOL0     H36646   1.691   3.147   4.173 -0.1570 -0.6365 -0.3483
  278MOL0     H36647   1.514   3.382   4.176  1.5195  2.2032  0.0566
  278MOL0     H36648   1.523   3.273   4.033 -0.4574  1.1949  0.0194
  278MOL0     H36649   1.814   3.267   3.931  1.8812  0.3301 -0.0908
  278MOL0     H36650   2.038   3.570   3.932 -0.1922 -0.3469  0.7361
  278MOL0     H36651   2.007   3.426   3.847 -0.8636 -0.9390 -0.2474
  278MOL0     H36652   2.117   3.314   4.064 -2.0190  1.5150  0.8627
  278MOL0     H36653   2.185   3.472   4.099 -1.1562  0.4784  0.4823
  278MOL0     H36654   2.216   3.317   3.825 -0.8772  0.2670 -0.0448
  278MOL0     H36655   2.282   3.476   3.863 -1.3055  1.1022  1.7644
  278MOL0     H36656   2.334   3.179   3.935 -1.5300  0.8561 -0.6231
  278MOL0     H36657   2.387   3.307   4.055  4.5316  1.5085 -0.9980
  278MOL0     H36658   2.738   3.315   3.746  0.4331  1.3120  1.2220
  278MOL0     H36659   2.940   3.202   3.821 -0.4884  3.4508 -2.2842
  278MOL0     H36660   3.324   3.121   3.913  3.0862  0.1981  0.2127
  278MOL0     H36661   3.510   2.969   3.906 -0.0871  0.3188  0.1345
  278MOL0     H36662   3.467   2.544   4.128  0.4502 -0.4975 -0.8635
  278MOL0     H36663   3.442   2.684   4.222 -0.7820 -0.0967 -0.2203
  278MOL0     H36664   3.731   2.593   4.130  1.6031  5.0010 -1.6585
  278MOL0     H36665   3.661   2.562   4.296 -0.9588  1.4322  0.0424
  278MOL0     H36666   3.630   2.799   4.344  0.9122 -0.4160  0.3438
  278MOL0     H36667   3.687   2.862   4.198  2.4891  2.0097  1.8579
  278MOL0     H36668   3.862   2.666   4.340 -2.7994  0.1382  2.2540
  278MOL0     H36669   3.900   2.806   4.226  2.0773  1.5300  2.4728
  278MOL0     H36670   3.805   2.833   4.512 -4.0693 -1.5726 -3.1793
  278MOL0     H36671   3.834   2.960   4.406 -1.7539 -0.4413 -1.3215
  278MOL0     H36672   4.047   2.749   4.436 -0.9527  0.3880 -2.6784
  278MOL0     H36673   4.033   2.869   4.569 -2.3040  1.4170  0.1442
  278MOL0     H36674   4.219   2.934   4.409  0.4772  2.6225 -0.8469
  278MOL0     H36675   4.105   2.942   4.284 -2.1799 -3.4018 -0.0650
  278MOL0     H36676   3.981   3.103   4.453  0.1465 -0.6377  1.8897
  278MOL0     H36677   4.137   3.173   4.381 -1.3020 -0.6601 -0.9309
  278MOL0     H36678   3.275   2.669   4.088  4.8359 -0.1408  2.0763
  278MOL0     H36679   3.055   2.810   4.056  1.6730 -2.5115 -1.1470
  278MOL0     H36680   2.727   3.047   4.160  2.4198 -2.0158 -1.5744
  278MOL0     H36681   2.540   3.157   4.101  1.5065 -2.1310  0.8341
  278MOL0     H36682   0.651   2.806   4.409 -2.0100  1.1441 -1.2503
  278MOL0     H36683   0.450   2.884   4.499  0.3337 -2.0522  1.9823
  278MOL0     H36684   0.195   3.091   4.708  0.7415 -0.9540  0.4320
  278MOL0     H36685  -0.049   3.069   4.792  2.2190  3.5692 -2.1088
  278MOL0     H36686  -0.103   3.097   5.123  2.0094 -2.3140 -1.4435
  278MOL0     H36687  -0.236   2.977   5.158  1.2029 -1.6219 -0.6536
  278MOL0     H36688  -0.234   3.177   4.915 -4.3104  0.9255 -0.6325
  278MOL0     H36689  -0.351   3.054   4.947 -0.0515 -0.0747  1.2385
  278MOL0     H36690  -0.398   3.182   5.177 -3.9248 -1.0588 -1.9461
  278MOL0     H36691  -0.462   3.245   5.025  0.8408  4.7523 -0.6053
  278MOL0     H36692  -0.267   3.381   4.981 -0.0052  2.1401  0.3604
  278MOL0     H36693  -0.375   3.450   5.085  1.5484  2.7104 -1.8763
  278MOL0     H36694  -0.024   3.376   5.342  1.3249 -0.1535 -0.6772
  278MOL0     H36695   0.105   2.843   5.134  0.6411  1.9418  2.2027
  278MOL0     H36696   0.336   2.843   5.034 -0.8792 -0.4190  0.4480
  279MOL0     O36697   0.367   3.598   4.572 -0.0325  0.6246  0.1760
  279MOL0     C36698   0.264   3.569   4.511 -0.7732 -0.4724  0.2020
  279MOL0     O36699   0.149   3.652   4.499  0.1332  0.6692 -0.1635
  279MOL0     C36700   0.138   3.778   4.557 -0.4279 -0.4249 -0.7203
  279MOL0     C36701   0.225   3.840   4.659 -0.5445  0.0458 -0.1861
  279MOL0     C36702   0.197   3.970   4.706 -0.2735 -0.0929  0.4045
  279MOL0     C36703   0.093   4.045   4.654  0.6115 -0.2909 -0.2881
  279MOL0     O36704   0.081   4.171   4.688 -0.3104 -0.5509  0.1579
  279MOL0     C36705   0.152   4.266   4.610 -0.0389 -0.5956 -0.3259
  279MOL0     C36706   0.226   4.356   4.717  0.1361 -0.5416 -0.2848
  279MOL0     C36707   0.174   4.499   4.711  0.3970 -0.2810 -0.6242
  279MOL0     C36708   0.238   4.582   4.830 -0.7043 -0.0006  0.4946
  279MOL0     C36709   0.374   4.639   4.779  0.0208  0.0696  0.1625
  279MOL0     C36710   0.452   4.706   4.889 -0.7582  0.4549  0.2551
  279MOL0     C36711   0.611   4.687   4.879 -0.1848 -0.9765 -0.6998
  279MOL0     C36712   0.693   4.756   4.996 -0.2801  1.4522 -0.0624
  279MOL0     N36713   0.838   4.753   4.968 -0.6222 -0.1039 -0.0885
  279MOL0     C36714   0.934   4.652   4.993  0.7745 -1.2722 -0.6374
  279MOL0     C36715   1.036   4.685   4.903 -1.3343  0.7246 -0.6849
  279MOL0     C36716   1.148   4.588   4.858 -1.0833  0.2567 -0.8618
  279MOL0     C36717   1.116   4.530   4.727 -0.1731 -0.2702  0.6417
  279MOL0     C36718   1.002   4.422   4.739  0.0157 -0.6484 -0.0537
  279MOL0     C36719   0.950   4.385   4.598 -0.9137  0.7182  0.4813
  279MOL0     O36720   1.052   4.348   4.505  0.1365  0.5302 -0.2420
  279MOL0     C36721   1.019   4.281   4.389  1.3904  0.4741 -0.6973
  279MOL0     C36722   0.887   4.277   4.336 -0.4386 -0.7437  0.4536
  279MOL0     C36723   0.851   4.211   4.223 -0.1740 -0.1274  0.1284
  279MOL0     C36724   0.938   4.135   4.155  0.5137 -0.0200 -0.7775
  279MOL0     C36725   0.893   4.050   4.037 -0.3006 -0.3484 -0.2722
  279MOL0     O36726   0.770   4.060   3.998 -0.0059  0.3311 -0.0756
  279MOL0     C36727   0.709   3.974   3.907  0.5151 -0.1694  0.1884
  279MOL0     C36728   0.622   4.036   3.821 -0.2024 -0.0948 -0.3057
  279MOL0     C36729   0.547   3.968   3.727  0.2972  0.5000 -0.7735
  279MOL0     C36730   0.566   3.829   3.720  0.5548  0.4402  0.2131
  279MOL0     O36731   0.492   3.752   3.636  0.1985  0.3744  0.5628
  279MOL0     C36732   0.516   3.796   3.492 -0.3191 -0.9035 -0.3765
  279MOL0     C36733   0.399   3.748   3.409 -0.9957 -0.0633 -0.3603
  279MOL0     C36734   0.424   3.742   3.257 -0.7294  1.3320 -0.4943
  279MOL0     C36735   0.441   3.883   3.192  0.5243  0.4272  0.2972
  279MOL0     C36736   0.521   3.870   3.059 -0.0101 -0.0216 -0.3210
  279MOL0     C36737   0.457   3.787   2.942  1.0155 -0.0686  0.5631
  279MOL0     C36738   0.327   3.852   2.892  0.2240 -0.7130  0.4430
  279MOL0     C36739   0.364   3.984   2.815 -0.4633  1.2351  0.1525
  279MOL0    Cl36740   0.514   3.962   2.716  0.2416 -0.1258 -0.6266
  279MOL0     C36741   0.669   3.766   3.794  0.0900  0.0360 -0.3181
  279MOL0     C36742   0.733   3.837   3.893  0.2094 -0.1349 -0.2333
  279MOL0     O36743   0.985   3.982   3.990  0.3412  0.4771 -0.3968
  279MOL0     C36744   1.069   4.139   4.195 -0.1674  0.1547 -0.8505
  279MOL0     C36745   1.109   4.204   4.313 -0.7394 -0.5016 -1.6924
  279MOL0     N36746   1.010   4.805   4.842  1.0977 -0.3946  0.0489
  279MOL0     N36747   0.893   4.851   4.882 -0.1020  0.0627 -0.2380
  279MOL0     C36748   0.017   3.995   4.553  0.0563 -0.3536 -0.3478
  279MOL0     C36749   0.034   3.865   4.508  0.3423  0.7227  0.7484
  279MOL0     C36750   0.256   3.444   4.448 -0.5901 -0.3779 -0.0892
  279MOL0     C36751   0.143   3.418   4.369 -0.2096  0.0388 -0.3450
  279MOL0     C36752   0.137   3.304   4.288  0.1702 -0.0501  0.2105
  279MOL0     C36753   0.243   3.216   4.288 -1.2738  0.6308  1.3179
  279MOL0     O36754   0.227   3.098   4.210 -0.3176 -0.5910 -0.3492
  279MOL0     C36755   0.322   3.077   4.104  0.0126  0.1090  0.3196
  279MOL0     C36756   0.325   3.179   3.989 -0.5891  0.2423  0.4463
  279MOL0     C36757   0.208   3.155   3.891 -1.1646 -0.6366  1.4555
  279MOL0     C36758   0.081   3.216   3.946 -0.1821  0.0216 -0.0398
  279MOL0     C36759  -0.023   3.219   3.841  1.0745 -0.7706 -0.0410
  279MOL0     C36760  -0.110   3.229   3.753  0.1623  0.7454 -0.5072
  279MOL0     C36761   0.352   3.241   4.372 -0.1462  1.3463  0.2535
  279MOL0     C36762   0.360   3.358   4.449 -0.6461  0.6257  0.2982
  279MOL0     H36763   0.303   3.783   4.708 -0.8276 -2.2255 -2.2426
  279MOL0     H36764   0.269   4.018   4.772  1.6679  0.5002 -2.0116
  279MOL0     H36765   0.081   4.332   4.560 -0.9155 -0.8433  0.5556
  279MOL0     H36766   0.222   4.230   4.535  1.9354  1.4906  0.3850
  279MOL0     H36767   0.333   4.360   4.693  1.4681 -1.5697  4.5144
  279MOL0     H36768   0.203   4.330   4.820 -2.8151  0.9883 -0.4660
  279MOL0     H36769   0.066   4.513   4.721  0.5948  0.3924  0.9681
  279MOL0     H36770   0.204   4.546   4.617 -0.2229 -0.2075 -0.7865
  279MOL0     H36771   0.175   4.671   4.836 -1.9339 -0.7784 -0.4231
  279MOL0     H36772   0.229   4.537   4.929 -2.9390  2.3499  1.4778
  279MOL0     H36773   0.355   4.702   4.692  0.6360 -2.9163 -2.2989
  279MOL0     H36774   0.437   4.558   4.743  0.0289  0.8989 -1.8149
  279MOL0     H36775   0.408   4.663   4.979 -0.3659 -1.1321 -0.2800
  279MOL0     H36776   0.433   4.813   4.897 -0.3042  0.4675  1.3703
  279MOL0     H36777   0.636   4.581   4.873  1.4995 -0.6121 -0.4024
  279MOL0     H36778   0.649   4.735   4.789  0.3354  0.2619  0.1489
  279MOL0     H36779   0.686   4.700   5.090  1.7308  0.7040 -0.3038
  279MOL0     H36780   0.670   4.859   5.023  0.9378  1.1312  2.5313
  279MOL0     H36781   0.923   4.566   5.058 -0.9451  0.2352  1.2127
  279MOL0     H36782   1.142   4.505   4.929  0.4436  1.4922  0.7961
  279MOL0     H36783   1.246   4.637   4.870 -0.8286  0.3238 -2.8694
  279MOL0     H36784   1.198   4.467   4.692  0.6659  0.9732  0.3060
  279MOL0     H36785   1.096   4.608   4.653  1.6283 -0.9922 -0.6747
  279MOL0     H36786   1.038   4.329   4.784  0.9941 -1.1117 -1.7168
  279MOL0     H36787   0.912   4.466   4.785 -1.6654  0.2232 -3.7781
  279MOL0     H36788   0.905   4.474   4.551  2.4405  2.7366  0.6969
  279MOL0     H36789   0.884   4.300   4.611 -0.5624  0.4673  0.6323
  279MOL0     H36790   0.809   4.328   4.392  2.4561  4.0801  0.6170
  279MOL0     H36791   0.755   4.223   4.176  0.0228 -0.4645 -0.3681
  279MOL0     H36792   0.589   4.138   3.839  1.4841  0.2864  0.8402
  279MOL0     H36793   0.466   4.011   3.670  2.0182  1.7302 -2.3747
  279MOL0     H36794   0.608   3.759   3.447  1.4504  1.0068  1.4965
  279MOL0     H36795   0.528   3.904   3.485  1.0291 -0.7031  3.1104
  279MOL0     H36796   0.306   3.803   3.430  0.0608  0.2911  4.4450
  279MOL0     H36797   0.376   3.645   3.438  0.1031 -0.1048  0.4360
  279MOL0     H36798   0.339   3.698   3.206  1.0192  0.2112 -2.6080
  279MOL0     H36799   0.506   3.673   3.236 -1.9339  0.9224 -4.8355
  279MOL0     H36800   0.347   3.936   3.171  1.1014  1.5904  0.5246
  279MOL0     H36801   0.499   3.953   3.253  2.3630 -0.6398 -0.1563
  279MOL0     H36802   0.618   3.824   3.080 -1.0744 -0.8341  3.7197
  279MOL0     H36803   0.535   3.974   3.027  0.5208 -0.0935 -0.3150
  279MOL0     H36804   0.419   3.693   2.983 -0.5990 -0.1534 -0.9722
  279MOL0     H36805   0.531   3.766   2.864  2.5417  0.1379  1.9042
  279MOL0     H36806   0.276   3.775   2.833 -0.0931  1.4150 -2.2381
  279MOL0     H36807   0.266   3.879   2.978  0.3699 -0.4890  0.4764
  279MOL0     H36808   0.377   4.063   2.889 -2.4099  0.2846  1.6019
  279MOL0     H36809   0.283   4.009   2.746  1.0538 -1.8766 -3.0924
  279MOL0     H36810   0.684   3.660   3.779 -1.2146 -0.5636  1.9860
  279MOL0     H36811   0.813   3.794   3.952  0.7941  1.5928  0.2864
  279MOL0     H36812   1.137   4.090   4.126 -0.3903  1.7633 -2.3101
  279MOL0     H36813   1.216   4.208   4.328 -0.9318  0.5581 -0.4078
  279MOL0     H36814  -0.057   4.062   4.509  0.2905 -0.9723 -1.7561
  279MOL0     H36815  -0.031   3.817   4.436  2.5205 -2.4908  0.6888
  279MOL0     H36816   0.065   3.490   4.347  0.4397  0.0072 -3.0540
  279MOL0     H36817   0.054   3.284   4.221 -2.0371 -0.9699  3.0139
  279MOL0     H36818   0.303   2.981   4.054 -0.6645 -1.0363  2.6647
  279MOL0     H36819   0.427   3.067   4.132  0.1324 -2.5041 -0.7360
  279MOL0     H36820   0.328   3.282   4.026  1.1469  1.6157 -3.0282
  279MOL0     H36821   0.415   3.171   3.927 -0.4094  0.9256  0.6135
  279MOL0     H36822   0.199   3.048   3.869  0.6606 -1.3338  3.6009
  279MOL0     H36823   0.235   3.203   3.797 -1.7715  0.2966  1.7490
  279MOL0     H36824   0.043   3.155   4.028 -1.9772 -2.4664 -2.5112
  279MOL0     H36825   0.104   3.321   3.968 -3.7355  0.6691  1.1715
  279MOL0     H36826  -0.181   3.237   3.672 -2.8273  1.9710  2.0339
  279MOL0     H36827   0.444   3.185   4.369 -0.5612  0.3784  3.1450
  279MOL0     H36828   0.448   3.369   4.511 -0.0137  1.5271 -0.7199
  280MOL0     O36829   9.896   3.331   4.219 -0.4219  0.4329 -0.4041
  280MOL0     C36830   9.782   3.390   4.212  0.2759  0.2798 -0.2187
  280MOL0     O36831   9.743   3.489   4.120 -0.6761 -0.4156 -0.1343
  280MOL0     C36832   9.826   3.560   4.040  0.4623 -0.1197 -0.9761
  280MOL0     C36833   9.938   3.495   3.982  0.0112 -0.3372  0.4793
  280MOL0     C36834   9.999   3.557   3.874  0.0275 -1.5300  0.0387
  280MOL0     C36835   9.959   3.696   3.840 -0.6430 -0.1298 -0.2841
  280MOL0     O36836  10.024   3.758   3.732 -0.6811  0.0590  0.0313
  280MOL0     C36837   9.957   3.866   3.663  0.2470  0.1310  0.7619
  280MOL0     C36838  10.034   3.936   3.550 -0.5343  0.0811 -0.9046
  280MOL0     C36839   9.943   3.995   3.441  0.3292  0.3787  0.8493
  280MOL0     C36840   9.999   4.050   3.304  0.6654  0.3945 -0.0848
  280MOL0     C36841   9.878   4.124   3.227  0.2264  0.2929 -0.0819
  280MOL0     C36842   9.923   4.177   3.096 -0.1657 -0.5014 -0.8372
  280MOL0     C36843   9.801   4.251   3.035 -0.3863  0.6849  1.5988
  280MOL0     C36844   9.837   4.307   2.902  1.1327  0.1931  0.0458
  280MOL0     N36845   9.727   4.372   2.836 -0.3374 -0.5712  0.1018
  280MOL0     C36846   9.700   4.508   2.823 -0.7111  0.0944  0.0657
  280MOL0     C36847   9.591   4.507   2.745  0.3556  0.4385  0.4212
  280MOL0     C36848   9.529   4.625   2.691  0.3745 -0.6706  0.2190
  280MOL0     C36849   9.555   4.635   2.540  0.0904 -0.4489 -0.7536
  280MOL0     C36850   9.702   4.684   2.516  0.1139  0.2040 -0.1372
  280MOL0     C36851   9.741   4.660   2.365  0.8895 -0.3719  0.1446
  280MOL0     O36852   9.875   4.702   2.368 -0.3943  0.0506 -0.2579
  280MOL0     C36853   9.929   4.774   2.267 -0.7092 -1.1403 -1.0003
  280MOL0     C36854  10.065   4.816   2.298  0.5371 -1.0590  0.6381
  280MOL0     C36855  10.145   4.897   2.218  0.7214 -0.2281 -0.2463
  280MOL0     C36856  10.097   4.954   2.100 -0.0628  0.2344  0.7674
  280MOL0     C36857  10.183   5.026   2.006 -0.2176  0.1756  0.0452
  280MOL0     O36858  10.312   5.009   2.037 -0.2157 -0.2726  0.4584
  280MOL0     C36859  10.406   5.099   2.007 -1.1521 -0.6954  0.3862
  280MOL0     C36860  10.378   5.234   2.002 -0.2261 -0.7889  0.3714
  280MOL0     C36861  10.469   5.337   1.985 -0.4842 -0.1725 -0.1547
  280MOL0     C36862  10.598   5.289   1.974  0.2687 -0.0659 -0.2986
  280MOL0     O36863  10.689   5.387   1.936  0.7866 -0.6576 -0.2089
  280MOL0     C36864  10.829   5.361   1.929  0.5733  0.1559 -0.1251
  280MOL0     C36865  10.899   5.494   1.881 -0.6600  0.7533  0.4329
  280MOL0     C36866  10.896   5.587   1.996 -0.0862  0.3008  0.4913
  280MOL0     C36867  10.975   5.720   1.974 -1.1514  0.6339  0.9288
  280MOL0     C36868  10.976   5.806   2.094  0.1123 -0.0867 -0.6174
  280MOL0     C36869  11.071   5.923   2.093  0.8044 -0.5373  0.9403
  280MOL0     C36870  11.025   6.020   1.984  0.2352  0.4429  0.0971
  280MOL0     C36871  11.118   6.149   1.979  0.1811  0.2372 -0.1647
  280MOL0    Cl36872  11.037   6.267   1.873 -0.4720 -0.1424  0.5784
  280MOL0     C36873  10.637   5.156   1.991  0.6953  0.5173 -0.2187
  280MOL0     C36874  10.539   5.059   2.002 -0.7385 -1.0177  0.3300
  280MOL0     O36875  10.138   5.087   1.906 -0.4412  0.1416  0.6332
  280MOL0     C36876   9.969   4.902   2.062 -0.1869 -0.1544  0.5725
  280MOL0     C36877   9.889   4.814   2.139 -0.2247 -0.1011 -0.2332
  280MOL0     N36878   9.551   4.379   2.711  0.4695 -0.4189 -0.3137
  280MOL0     N36879   9.632   4.296   2.770  0.2613 -0.7374 -0.7370
  280MOL0     C36880   9.862   3.763   3.910  0.8828 -0.4290  0.1587
  280MOL0     C36881   9.796   3.693   4.006  0.3410 -0.6223 -0.5716
  280MOL0     C36882   9.674   3.330   4.296  0.5787  0.6075  0.9406
  280MOL0     C36883   9.539   3.355   4.277  0.0538  0.4081  0.0502
  280MOL0     C36884   9.437   3.292   4.355 -0.2617 -1.2224 -0.4528
  280MOL0     C36885   9.467   3.187   4.429  0.8505  0.5277 -0.3883
  280MOL0     O36886   9.382   3.118   4.507  0.3965 -0.7164 -0.9820
  280MOL0     C36887   9.331   2.990   4.451 -0.0993  0.5323 -0.0782
  280MOL0     C36888   9.290   2.996   4.305  0.3427  0.7953  0.1419
  280MOL0     C36889   9.156   3.072   4.297  0.4493  0.2643  0.0016
  280MOL0     C36890   9.104   3.096   4.147 -0.1818 -0.1941  0.2743
  280MOL0     C36891   9.185   3.169   4.056 -1.3941  0.0359 -0.2451
  280MOL0     C36892   9.229   3.243   3.968  0.8958 -0.2426 -0.3123
  280MOL0     C36893   9.603   3.153   4.438  1.0272  0.1820 -0.5200
  280MOL0     C36894   9.707   3.221   4.376 -0.1883  0.4845 -0.2934
  280MOL0     H36895   9.969   3.392   3.997 -2.0564 -1.0896 -0.0439
  280MOL0     H36896  10.081   3.511   3.818 -0.6454 -5.7555  2.1412
  280MOL0     H36897   9.915   3.944   3.727  2.4226  1.5481  0.5985
  280MOL0     H36898   9.878   3.813   3.608  2.7897 -2.2400 -0.9011
  280MOL0     H36899  10.100   3.852   3.524 -0.6983 -0.6516  0.9317
  280MOL0     H36900  10.092   4.020   3.588 -1.0440  0.3966 -0.8314
  280MOL0     H36901   9.887   4.079   3.482 -1.5696  1.2844 -3.1147
  280MOL0     H36902   9.854   3.935   3.419 -2.1656  3.6386  1.2523
  280MOL0     H36903  10.086   4.115   3.314  2.1983 -0.9335 -3.3158
  280MOL0     H36904  10.024   3.956   3.254 -0.2284 -0.6912  1.4436
  280MOL0     H36905   9.848   4.208   3.289  2.9378  0.9678  0.4442
  280MOL0     H36906   9.797   4.053   3.209 -1.4418  1.9163  0.7616
  280MOL0     H36907   9.953   4.092   3.036  1.5881 -0.8809  0.4985
  280MOL0     H36908  10.008   4.244   3.112  0.4061 -1.4962  0.5047
  280MOL0     H36909   9.724   4.177   3.016 -0.9889  1.4856  0.8498
  280MOL0     H36910   9.753   4.333   3.089 -3.4766  0.7827 -1.0116
  280MOL0     H36911   9.875   4.225   2.840 -1.7446 -2.3773  1.4483
  280MOL0     H36912   9.916   4.383   2.907 -0.1769  1.5956  0.0285
  280MOL0     H36913   9.741   4.594   2.876  3.2065 -1.8297  0.4944
  280MOL0     H36914   9.550   4.713   2.753  0.0806  0.2379 -0.9469
  280MOL0     H36915   9.421   4.614   2.697  0.0624  2.0897  1.1469
  280MOL0     H36916   9.483   4.710   2.507  0.2220  1.0337  2.0175
  280MOL0     H36917   9.526   4.545   2.486 -1.2684 -0.5439  0.0924
  280MOL0     H36918   9.702   4.792   2.530 -0.2802  0.2296 -0.3080
  280MOL0     H36919   9.770   4.630   2.582  2.0200 -2.9962 -4.2534
  280MOL0     H36920   9.673   4.718   2.301  3.9150  2.7649 -0.5369
  280MOL0     H36921   9.717   4.555   2.346 -1.4354  0.5427 -2.9921
  280MOL0     H36922  10.112   4.798   2.394  3.4018 -0.1315 -0.4926
  280MOL0     H36923  10.249   4.915   2.242 -0.1226  1.7833  2.3425
  280MOL0     H36924  10.280   5.278   2.018  0.2554  1.1094 -1.4581
  280MOL0     H36925  10.443   5.442   1.980 -2.2547 -0.5589  0.2804
  280MOL0     H36926  10.846   5.279   1.859 -0.5849 -0.5913  0.4399
  280MOL0     H36927  10.870   5.338   2.028 -1.9498  0.0817  0.9810
  280MOL0     H36928  10.838   5.533   1.799 -2.2426 -2.0085  0.1659
  280MOL0     H36929  11.003   5.473   1.855  0.4470  2.3928  3.0802
  280MOL0     H36930  10.913   5.541   2.094 -3.3111  0.1586  1.1198
  280MOL0     H36931  10.790   5.614   2.008 -1.2907 -2.8715 -1.6001
  280MOL0     H36932  11.077   5.694   1.943 -2.0700 -2.4754  0.1092
  280MOL0     H36933  10.928   5.787   1.902 -0.9949  0.8440  1.0211
  280MOL0     H36934  10.998   5.747   2.184 -1.2464 -0.8032 -0.7306
  280MOL0     H36935  10.874   5.840   2.111 -0.2115 -2.2487  2.9568
  280MOL0     H36936  11.177   5.899   2.080  1.3712  2.3722 -0.7698
  280MOL0     H36937  11.066   5.970   2.191 -0.7466  2.4880 -0.4320
  280MOL0     H36938  11.041   5.966   1.890 -2.3481 -1.4634  0.6315
  280MOL0     H36939  10.919   6.042   1.989 -0.1161  0.7185 -4.3823
  280MOL0     H36940  11.209   6.114   1.929 -2.2894 -2.8223 -2.9083
  280MOL0     H36941  11.132   6.187   2.081  2.0996  1.1100 -0.6994
  280MOL0     H36942  10.744   5.138   2.003  0.2346 -0.7430  2.6997
  280MOL0     H36943  10.580   4.959   2.004  0.9241 -0.3443  1.8534
  280MOL0     H36944   9.928   4.949   1.973  2.8309  1.7092  0.0197
  280MOL0     H36945   9.783   4.797   2.125 -0.2996 -0.4878  0.7253
  280MOL0     H36946   9.846   3.870   3.917 -1.0297 -0.6449 -0.2766
  280MOL0     H36947   9.715   3.733   4.067 -0.3228 -1.7308 -0.6963
  280MOL0     H36948   9.513   3.437   4.210 -0.5889  1.0300  1.0327
  280MOL0     H36949   9.335   3.327   4.353 -0.0473 -0.6198 -0.9070
  280MOL0     H36950   9.243   2.974   4.514 -0.6182 -0.7866 -1.0916
  280MOL0     H36951   9.401   2.911   4.480 -0.3705 -0.7823 -2.7413
  280MOL0     H36952   9.363   3.058   4.253 -0.7876  3.2411  1.3299
  280MOL0     H36953   9.283   2.893   4.267 -0.6076  0.2021  1.8185
  280MOL0     H36954   9.151   3.159   4.362  1.7210 -0.7136  1.4853
  280MOL0     H36955   9.090   3.000   4.347  3.5895 -2.2164  0.8793
  280MOL0     H36956   9.066   3.004   4.101 -0.2678  1.1969 -2.6808
  280MOL0     H36957   9.015   3.159   4.143  0.3304  0.5579  0.5171
  280MOL0     H36958   9.236   3.302   3.879 -1.3606 -3.8417 -3.1844
  280MOL0     H36959   9.636   3.066   4.494  1.0433 -1.7180 -3.3141
  280MOL0     H36960   9.810   3.186   4.387 -0.4939  0.3493  3.2600
  281MOL0     O36961   1.191   7.694   8.634  0.0724  1.0156 -0.2715
  281MOL0     C36962   1.190   7.799   8.563 -0.5935  0.1386  0.1758
  281MOL0     O36963   1.232   7.924   8.606 -0.0837  0.9723  0.4333
  281MOL0     C36964   1.271   7.929   8.741 -0.2567 -0.0601 -0.0874
  281MOL0     C36965   1.210   8.020   8.839 -0.1898 -0.2007 -1.2410
  281MOL0     C36966   1.255   8.026   8.970 -0.0742 -0.2212 -0.4239
  281MOL0     C36967   1.368   7.956   9.010 -0.3999  0.7359 -1.1472
  281MOL0     O36968   1.429   7.959   9.140  0.6002 -0.0167  0.0417
  281MOL0     C36969   1.358   8.010   9.254  0.6126 -0.0077  0.4970
  281MOL0     C36970   1.464   8.047   9.357 -0.6954  0.0795 -0.3936
  281MOL0     C36971   1.559   8.160   9.317  0.4718  0.8276  0.2903
  281MOL0     C36972   1.675   8.198   9.419 -0.6844 -0.8417  0.0744
  281MOL0     C36973   1.745   8.329   9.397  0.3149 -0.6152  0.6279
  281MOL0     C36974   1.817   8.328   9.260  0.3108  0.1205 -0.5487
  281MOL0     C36975   1.850   8.473   9.209 -0.2505  0.1763  0.3492
  281MOL0     C36976   1.961   8.535   9.287 -0.3230  1.0250 -0.7326
  281MOL0     N36977   2.002   8.661   9.218 -0.1629  0.0137  0.9293
  281MOL0     C36978   2.027   8.775   9.290 -0.1256  0.4406  0.1347
  281MOL0     C36979   2.076   8.857   9.196  0.7150 -0.7797  0.5858
  281MOL0     C36980   2.117   8.990   9.225 -0.0580  0.3287 -0.3596
  281MOL0     C36981   2.268   9.001   9.263 -0.2273 -0.6176  1.2506
  281MOL0     C36982   2.290   8.910   9.383 -0.4586  0.6666 -1.2213
  281MOL0     C36983   2.435   8.938   9.445  0.2906  0.4798  0.0804
  281MOL0     O36984   2.453   9.065   9.498 -0.0979  0.0266  0.2763
  281MOL0     C36985   2.568   9.106   9.560 -0.0091 -0.2751 -0.4884
  281MOL0     C36986   2.568   9.232   9.627  0.3036  0.5019  0.5349
  281MOL0     C36987   2.684   9.272   9.700  0.6524  0.8536  0.3923
  281MOL0     C36988   2.800   9.184   9.697 -0.0866 -1.0050 -0.2363
  281MOL0     C36989   2.931   9.215   9.772 -0.2537  0.4529 -0.2837
  281MOL0     O36990   3.051   9.177   9.730  0.1835 -0.4045 -0.1634
  281MOL0     C36991   3.160   9.228   9.794  0.6145 -0.2239  0.0953
  281MOL0     C36992   3.200   9.363   9.785  0.5869  0.2770 -0.4733
  281MOL0     C36993   3.332   9.396   9.822 -0.0095  0.3057 -0.7666
  281MOL0     C36994   3.409   9.312   9.906 -0.0076  0.7885 -0.3833
  281MOL0     O36995   3.509   9.374   9.968 -0.1075  0.5148 -1.1308
  281MOL0     C36996   3.611   9.284  10.031  1.3599 -0.1650 -0.1013
  281MOL0     C36997   3.740   9.358  10.059 -0.4775 -0.4000 -0.0469
  281MOL0     C36998   3.730   9.461  10.176 -0.2195 -0.0510 -0.4571
  281MOL0     C36999   3.769   9.386  10.312  0.1863  0.0899  0.0143
  281MOL0     C37000   3.822   9.486  10.409  0.3476 -0.7507  0.1555
  281MOL0     C37001   3.700   9.559  10.490  0.6849 -0.3882  0.7584
  281MOL0     C37002   3.751   9.646  10.607  0.3032  0.5765  0.6126
  281MOL0     C37003   3.648   9.741  10.674  0.6185  0.6843  0.5170
  281MOL0    Cl37004   3.720   9.900  10.705 -0.0850 -0.1646 -0.0699
  281MOL0     C37005   3.363   9.175   9.926  0.7173  0.8872 -0.0496
  281MOL0     C37006   3.233   9.136   9.871  0.4494 -0.5131  0.4277
  281MOL0     O37007   2.911   9.285   9.878  0.3486  0.2572 -0.6074
  281MOL0     C37008   2.799   9.060   9.633  0.5614  0.8860 -0.4146
  281MOL0     C37009   2.688   9.018   9.567  0.6584 -0.6425 -1.3696
  281MOL0     N37010   2.076   8.788   9.073  0.2033 -0.4366 -0.1025
  281MOL0     N37011   2.037   8.671   9.088  0.5031  0.0251 -0.3381
  281MOL0     C37012   1.419   7.864   8.920 -0.1891  0.0562 -0.8117
  281MOL0     C37013   1.371   7.854   8.789 -0.1436  0.7074 -0.1464
  281MOL0     C37014   1.160   7.785   8.415 -0.1294 -0.2730 -0.2232
  281MOL0     C37015   1.173   7.658   8.354  0.2037  0.2437  0.1374
  281MOL0     C37016   1.143   7.642   8.218 -0.0926 -0.4987  0.5491
  281MOL0     C37017   1.110   7.752   8.149  0.4221 -0.2624  0.3246
  281MOL0     O37018   1.080   7.710   8.015 -0.5444 -0.6391 -0.4978
  281MOL0     C37019   1.121   7.808   7.923 -0.4278 -0.0754 -0.1319
  281MOL0     C37020   1.117   7.748   7.786 -0.5634  0.3035  0.4538
  281MOL0     C37021   0.976   7.708   7.745  0.2088 -0.2745 -0.3696
  281MOL0     C37022   0.907   7.590   7.814 -0.0030  0.6462 -0.2687
  281MOL0     C37023   0.980   7.466   7.782  0.1662  0.4575 -0.3475
  281MOL0     C37024   1.032   7.362   7.757  0.1296 -0.7809  0.8955
  281MOL0     C37025   1.102   7.882   8.206 -0.7401  0.8360  0.5995
  281MOL0     C37026   1.120   7.899   8.335 -0.3033 -0.1299 -0.8823
  281MOL0     H37027   1.135   8.087   8.798  1.4000  1.9482 -0.7784
  281MOL0     H37028   1.212   8.112   9.020 -2.9325 -0.6489 -1.9690
  281MOL0     H37029   1.295   7.935   9.303  2.7669 -0.0727  3.4686
  281MOL0     H37030   1.302   8.099   9.226  1.1744 -0.0747 -0.9156
  281MOL0     H37031   1.521   7.954   9.372 -1.9485 -0.3294  2.5148
  281MOL0     H37032   1.413   8.072   9.451 -1.5594  0.8098 -1.0445
  281MOL0     H37033   1.491   8.238   9.282 -1.2742 -1.0473 -0.7241
  281MOL0     H37034   1.612   8.123   9.229 -1.2380  0.0300 -0.4486
  281MOL0     H37035   1.649   8.205   9.525  0.9241 -0.9445  0.5147
  281MOL0     H37036   1.746   8.115   9.404  0.2122  0.3289 -3.0913
  281MOL0     H37037   1.807   8.343   9.486  0.4571 -2.5634  0.8699
  281MOL0     H37038   1.669   8.406   9.381 -0.4759 -1.1204  1.9131
  281MOL0     H37039   1.755   8.271   9.191 -0.2125  0.1774 -0.1315
  281MOL0     H37040   1.913   8.277   9.276  1.5954  3.0768  2.6328
  281MOL0     H37041   1.873   8.456   9.103 -3.2072 -2.4675 -0.0219
  281MOL0     H37042   1.767   8.543   9.209  0.8127  1.4731  0.2596
  281MOL0     H37043   2.049   8.472   9.274 -2.9407 -2.6109 -2.8731
  281MOL0     H37044   1.940   8.539   9.395 -1.5331  0.2298 -0.9135
  281MOL0     H37045   2.005   8.797   9.394 -2.8231  2.9753 -0.8422
  281MOL0     H37046   2.057   9.021   9.311 -0.7751 -2.6298  0.3227
  281MOL0     H37047   2.089   9.046   9.136 -3.2727 -0.0852  0.2854
  281MOL0     H37048   2.305   9.102   9.281  1.6949 -0.2979 -3.1186
  281MOL0     H37049   2.327   8.966   9.177 -0.4760 -1.1495  1.2921
  281MOL0     H37050   2.218   8.923   9.464 -0.2646  0.8988 -1.0842
  281MOL0     H37051   2.291   8.808   9.344 -0.8493  0.3626 -0.4427
  281MOL0     H37052   2.506   8.934   9.363 -1.7617 -1.1618 -1.7659
  281MOL0     H37053   2.452   8.862   9.522 -0.1809 -0.3536 -0.6113
  281MOL0     H37054   2.480   9.296   9.623 -0.0949 -0.1149 -2.1402
  281MOL0     H37055   2.687   9.368   9.752 -0.1903  2.3466 -2.1336
  281MOL0     H37056   3.137   9.442   9.746  0.9528  0.5921 -0.4296
  281MOL0     H37057   3.372   9.492   9.790 -1.3401  1.4096  0.7093
  281MOL0     H37058   3.617   9.192   9.972 -1.0828  0.6730 -1.8273
  281MOL0     H37059   3.568   9.256  10.128 -0.5223  2.3064 -0.1271
  281MOL0     H37060   3.772   9.412   9.969 -0.3968  1.6543  1.1456
  281MOL0     H37061   3.816   9.280  10.071  0.6396  0.7357  0.5655
  281MOL0     H37062   3.630   9.504  10.186 -0.6027 -0.7868 -1.0464
  281MOL0     H37063   3.803   9.539  10.155  0.4492 -0.0580  1.6477
  281MOL0     H37064   3.686   9.328  10.353  0.0283  0.7037  0.5751
  281MOL0     H37065   3.851   9.315  10.298  3.4859  3.5471  0.3861
  281MOL0     H37066   3.888   9.561  10.365  0.2071  0.2410  1.5439
  281MOL0     H37067   3.873   9.426  10.485 -2.0064 -1.9897  0.8503
  281MOL0     H37068   3.635   9.476  10.519 -1.4366  0.7474 -0.5255
  281MOL0     H37069   3.643   9.615  10.416 -1.3671 -2.0712  0.9743
  281MOL0     H37070   3.802   9.578  10.677  3.7190  1.0652 -1.2094
  281MOL0     H37071   3.830   9.702  10.558  1.0158 -0.8938  0.0145
  281MOL0     H37072   3.612   9.705  10.771  2.5839  0.7690  1.3260
  281MOL0     H37073   3.554   9.748  10.618  1.8069 -2.4706 -2.1930
  281MOL0     H37074   3.409   9.108   9.998 -1.4561 -1.1790 -0.4780
  281MOL0     H37075   3.174   9.048   9.894 -3.9359  2.4800  1.9684
  281MOL0     H37076   2.885   8.995   9.639  0.2329  0.5605  1.5908
  281MOL0     H37077   2.697   8.914   9.536 -0.7801 -0.4727 -2.4206
  281MOL0     H37078   1.499   7.799   8.954  0.5352  1.7159  0.8063
  281MOL0     H37079   1.410   7.767   8.738  1.3068 -0.2468  2.4265
  281MOL0     H37080   1.196   7.568   8.409 -0.2104  0.5734  0.8521
  281MOL0     H37081   1.141   7.544   8.171  0.4085 -0.6303  0.7905
  281MOL0     H37082   1.214   7.859   7.949  1.9201 -2.8898 -2.3109
  281MOL0     H37083   1.052   7.892   7.921  0.0667  0.3839  1.1784
  281MOL0     H37084   1.145   7.824   7.712  1.4675 -2.4581 -1.8758
  281MOL0     H37085   1.191   7.667   7.779 -1.2050 -0.1689 -1.4424
  281MOL0     H37086   0.969   7.693   7.637  0.0383 -1.8542 -0.1632
  281MOL0     H37087   0.905   7.788   7.770  0.9127  1.0263 -2.3500
  281MOL0     H37088   0.894   7.610   7.921  0.7584  1.0557 -0.2445
  281MOL0     H37089   0.807   7.591   7.770  0.6089 -0.2470 -1.7490
  281MOL0     H37090   1.089   7.272   7.745 -0.4263 -1.3155  2.0554
  281MOL0     H37091   1.112   7.976   8.153 -0.9460  1.2555  1.2970
  281MOL0     H37092   1.118   8.004   8.361 -2.9625  0.1811 -1.9488
  282MOL0     O37093   9.266   8.229  10.502 -0.3735  0.0016  0.1658
  282MOL0     C37094   9.290   8.133  10.436  0.4338  0.2107  1.0118
  282MOL0     O37095   9.274   7.996  10.474 -0.2274  0.1619  0.2220
  282MOL0     C37096   9.217   7.966  10.595  0.3214  0.8233  0.3587
  282MOL0     C37097   9.110   8.034  10.654  0.4709 -0.4392  0.4983
  282MOL0     C37098   9.057   7.985  10.776  0.4062  0.0540  0.5758
  282MOL0     C37099   9.115   7.878  10.846  0.2130  0.4467 -0.3257
  282MOL0     O37100   9.071   7.843  10.978 -0.2375 -0.5567  0.6947
  282MOL0     C37101   9.087   7.702  10.994 -0.9360 -0.0344 -0.2616
  282MOL0     C37102   9.023   7.642  11.124 -0.4725 -1.0323  0.0254
  282MOL0     C37103   8.864   7.630  11.109  0.1596 -0.1703 -0.3054
  282MOL0     C37104   8.794   7.762  11.111 -0.6059  0.2290 -0.9124
  282MOL0     C37105   8.784   7.819  11.261  1.2102  0.6044 -1.1893
  282MOL0     C37106   8.749   7.974  11.265 -0.9049 -0.0962 -0.4196
  282MOL0     C37107   8.858   8.070  11.205 -0.4637 -1.2324 -0.9605
  282MOL0     C37108   8.990   8.065  11.280 -0.2277  0.1762 -0.2175
  282MOL0     N37109   9.077   8.170  11.218 -0.0466 -0.2624  0.5179
  282MOL0     C37110   9.137   8.162  11.100  0.7136 -0.3152  0.4998
  282MOL0     C37111   9.176   8.290  11.069 -1.3589  0.1907  0.5944
  282MOL0     C37112   9.243   8.359  10.955  1.0236 -0.4085  0.0467
  282MOL0     C37113   9.193   8.505  10.932 -0.8802 -0.6584  0.2449
  282MOL0     C37114   9.286   8.579  10.837  0.0389 -0.5200  0.5036
  282MOL0     C37115   9.260   8.559  10.690 -0.1859 -0.3081 -0.0404
  282MOL0     O37116   9.343   8.658  10.632  0.7245  0.3638  0.0436
  282MOL0     C37117   9.352   8.668  10.497  0.0056 -0.0589 -0.7118
  282MOL0     C37118   9.457   8.758  10.454  0.0994  0.6701 -0.0225
  282MOL0     C37119   9.466   8.788  10.324  0.1592  0.3513 -0.6255
  282MOL0     C37120   9.372   8.733  10.237  0.9927  0.1758  0.8294
  282MOL0     C37121   9.379   8.755  10.093  0.8232 -0.3091  1.6774
  282MOL0     O37122   9.308   8.681  10.005 -0.0707 -0.3676 -0.7710
  282MOL0     C37123   9.331   8.703   9.869  0.2472  0.2526 -0.2156
  282MOL0     C37124   9.456   8.678   9.808  0.4109 -0.0985  0.0201
  282MOL0     C37125   9.469   8.688   9.663 -0.2082  0.4614  0.0599
  282MOL0     C37126   9.351   8.724   9.586 -0.6254  0.6809  0.8963
  282MOL0     O37127   9.346   8.738   9.448  0.5972  0.2986 -0.0218
  282MOL0     C37128   9.433   8.652   9.371  0.4754 -0.0138  0.5288
  282MOL0     C37129   9.376   8.514   9.348  0.8068  0.1178  0.6436
  282MOL0     C37130   9.243   8.523   9.272 -0.9933 -0.0044 -0.3965
  282MOL0     C37131   9.210   8.393   9.219 -0.0835  0.7443 -0.3641
  282MOL0     C37132   9.064   8.404   9.170  0.6617 -0.2183 -0.2287
  282MOL0     C37133   9.032   8.323   9.042  0.2571  0.1685  0.5142
  282MOL0     C37134   8.910   8.388   8.967 -0.8038  1.0832 -0.5539
  282MOL0     C37135   8.870   8.285   8.861  0.6586  0.1502 -0.3435
  282MOL0    Cl37136   9.001   8.262   8.749  0.0466  0.1487  0.2212
  282MOL0     C37137   9.240   8.750   9.654 -0.3538  0.9766  0.0796
  282MOL0     C37138   9.228   8.750   9.797  0.7665 -0.0541 -0.3886
  282MOL0     O37139   9.459   8.846  10.055 -0.7472  0.6517 -0.4204
  282MOL0     C37140   9.271   8.650  10.282  1.3104  0.4989  0.2799
  282MOL0     C37141   9.266   8.618  10.412  0.3075 -0.6387 -0.4720
  282MOL0     N37142   9.133   8.370  11.177 -0.1696 -0.9193  1.2526
  282MOL0     N37143   9.084   8.291  11.264  0.5975 -0.3508  0.8508
  282MOL0     C37144   9.230   7.822  10.787  0.0839  0.1441 -0.3604
  282MOL0     C37145   9.274   7.857  10.656  0.2639 -0.3943  0.0304
  282MOL0     C37146   9.321   8.157  10.294  0.7583 -0.6820  0.7773
  282MOL0     C37147   9.353   8.054  10.209 -0.1853  0.7335 -0.1863
  282MOL0     C37148   9.380   8.069  10.077 -0.7298 -0.7700 -0.4477
  282MOL0     C37149   9.394   8.202  10.023  0.2373  0.6021  0.4271
  282MOL0     O37150   9.417   8.214   9.890 -0.7349  0.0068  0.0116
  282MOL0     C37151   9.416   8.346   9.833 -0.1239  0.8241 -0.3733
  282MOL0     C37152   9.416   8.344   9.679  0.0267 -0.5595  0.3772
  282MOL0     C37153   9.290   8.261   9.626  0.4477 -0.6279  0.1251
  282MOL0     C37154   9.150   8.331   9.647 -0.8249 -0.7509 -0.4940
  282MOL0     C37155   9.046   8.234   9.598 -0.2298  0.3307  0.0672
  282MOL0     C37156   8.954   8.159   9.565  0.5538 -0.5457 -0.1018
  282MOL0     C37157   9.369   8.315  10.106  0.8388 -0.8615  0.6862
  282MOL0     C37158   9.333   8.286  10.238 -0.1977 -0.5676  0.6881
  282MOL0     H37159   9.062   8.113  10.597 -1.0795 -2.5590 -1.3048
  282MOL0     H37160   8.969   8.036  10.815  2.0358  2.3066  1.4881
  282MOL0     H37161   9.194   7.682  11.005 -1.2630 -2.1842 -0.5032
  282MOL0     H37162   9.052   7.644  10.908  0.5185 -3.4070  1.2517
  282MOL0     H37163   9.056   7.694  11.214 -0.3912 -0.1397 -0.5004
  282MOL0     H37164   9.065   7.541  11.127  2.4312  0.1139  0.8647
  282MOL0     H37165   8.822   7.577  11.196 -1.6008  1.2429 -0.2203
  282MOL0     H37166   8.841   7.561  11.027  3.9454 -1.6985 -0.2478
  282MOL0     H37167   8.846   7.823  11.037 -0.5159 -2.3755 -3.1406
  282MOL0     H37168   8.695   7.746  11.066 -0.6283 -0.1424 -0.7328
  282MOL0     H37169   8.871   7.804  11.325  0.7638  1.1040 -0.4594
  282MOL0     H37170   8.706   7.761  11.312 -0.6229  2.1351 -2.1217
  282MOL0     H37171   8.727   8.000  11.369  0.4722 -2.3440  0.5232
  282MOL0     H37172   8.653   7.987  11.214  0.5184  2.9285 -2.6301
  282MOL0     H37173   8.881   8.029  11.106  0.2051 -2.2452 -0.3916
  282MOL0     H37174   8.817   8.171  11.213  0.8175 -0.6698 -1.2262
  282MOL0     H37175   9.036   7.968  11.258  1.0759  0.9008 -0.7580
  282MOL0     H37176   8.978   8.068  11.389 -1.7318 -1.5984 -0.2675
  282MOL0     H37177   9.160   8.075  11.040  0.0028  0.3973 -0.8641
  282MOL0     H37178   9.241   8.306  10.860  1.9472  3.6642 -2.4863
  282MOL0     H37179   9.347   8.358  10.988  0.9874  0.2313  0.2020
  282MOL0     H37180   9.196   8.553  11.030 -0.0754 -0.0781 -0.0574
  282MOL0     H37181   9.093   8.499  10.888  0.9078  1.7809 -5.0336
  282MOL0     H37182   9.257   8.684  10.851 -3.5700 -0.7026 -3.6306
  282MOL0     H37183   9.390   8.555  10.861  0.0708 -0.3585  0.5328
  282MOL0     H37184   9.154   8.576  10.673 -1.0507 -3.1812  1.6938
  282MOL0     H37185   9.282   8.460  10.648  1.3372 -0.0997  0.2065
  282MOL0     H37186   9.521   8.803  10.529 -1.9295  1.3340  1.3829
  282MOL0     H37187   9.542   8.858  10.292  2.9115 -2.3880 -0.5518
  282MOL0     H37188   9.540   8.653   9.872 -0.0205 -0.6597  0.3823
  282MOL0     H37189   9.568   8.670   9.622 -1.2186  0.6702 -2.7136
  282MOL0     H37190   9.530   8.660   9.421  0.5629 -1.4850  0.6481
  282MOL0     H37191   9.440   8.689   9.269 -1.6144 -1.5620 -0.2531
  282MOL0     H37192   9.351   8.483   9.450  1.6741 -0.1742  0.7786
  282MOL0     H37193   9.445   8.437   9.314  0.7870  1.0473 -1.6961
  282MOL0     H37194   9.248   8.602   9.196 -2.6825 -0.7620 -1.3413
  282MOL0     H37195   9.172   8.557   9.347 -0.3402  1.6603 -0.4840
  282MOL0     H37196   9.282   8.370   9.140  4.4929  1.2459  3.2326
  282MOL0     H37197   9.223   8.308   9.285  3.7271  2.1096  0.9320
  282MOL0     H37198   9.050   8.509   9.142  4.7446  1.2602  2.3096
  282MOL0     H37199   8.995   8.377   9.250 -0.5159  0.5770 -0.9445
  282MOL0     H37200   9.015   8.222   9.078  0.1825  0.3400  0.9683
  282MOL0     H37201   9.128   8.321   8.990  1.7955 -1.2056  3.1907
  282MOL0     H37202   8.826   8.419   9.030 -1.2880  0.6918 -0.9928
  282MOL0     H37203   8.938   8.479   8.912 -0.2077  0.2149 -1.7271
  282MOL0     H37204   8.781   8.312   8.803  0.0295 -1.3940 -0.1360
  282MOL0     H37205   8.840   8.195   8.916  2.9662 -0.0021  0.7670
  282MOL0     H37206   9.150   8.771   9.597 -1.3449  0.3782  1.3592
  282MOL0     H37207   9.127   8.778   9.827 -0.0988 -1.3073 -1.9558
  282MOL0     H37208   9.190   8.608  10.224  2.9517  1.1833 -2.7432
  282MOL0     H37209   9.190   8.545  10.440  0.9664 -1.8638 -1.7418
  282MOL0     H37210   9.283   7.752  10.852 -1.2584  1.8513  2.7980
  282MOL0     H37211   9.361   7.808  10.612 -0.0505  0.4532 -1.5861
  282MOL0     H37212   9.351   7.949  10.236 -3.2766  0.5679 -0.6932
  282MOL0     H37213   9.396   7.982  10.013  2.8301 -0.5667 -0.0174
  282MOL0     H37214   9.508   8.387   9.876 -0.5438 -0.6763  2.2115
  282MOL0     H37215   9.330   8.410   9.854  0.8110  2.8635 -2.3959
  282MOL0     H37216   9.422   8.444   9.636  1.9690  0.0246  1.8825
  282MOL0     H37217   9.514   8.302   9.655  0.3648  0.2193  0.3984
  282MOL0     H37218   9.294   8.159   9.664  0.9191 -1.2141 -1.4666
  282MOL0     H37219   9.294   8.256   9.517 -0.0553  1.6100 -0.0621
  282MOL0     H37220   9.131   8.359   9.751 -1.5040 -2.0499 -0.2435
  282MOL0     H37221   9.154   8.418   9.581 -1.0444 -2.2991 -2.6333
  282MOL0     H37222   8.862   8.105   9.549  0.9918 -0.5689 -3.0281
  282MOL0     H37223   9.374   8.422  10.085 -1.6171  0.2107  4.4565
  282MOL0     H37224   9.322   8.369  10.307  1.1462  0.5717 -0.4061
  283MOL0     O37225   3.522   5.564   9.259 -0.4063 -0.2616  0.4177
  283MOL0     C37226   3.623   5.626   9.215 -0.0963 -0.4291  0.1145
  283MOL0     O37227   3.664   5.749   9.244  0.0281  0.1380 -0.0532
  283MOL0     C37228   3.578   5.850   9.261 -0.1099  0.9487  0.0754
  283MOL0     C37229   3.646   5.972   9.273 -0.1394  0.2848 -1.2915
  283MOL0     C37230   3.578   6.096   9.278  0.0044  0.3505  0.4655
  283MOL0     C37231   3.439   6.096   9.271  0.4267  0.3603 -0.1539
  283MOL0     O37232   3.371   6.219   9.272 -0.3422 -0.2175 -0.0422
  283MOL0     C37233   3.329   6.257   9.134 -0.3625  0.0576 -0.1253
  283MOL0     C37234   3.300   6.409   9.132  0.2113 -0.3272  0.9763
  283MOL0     C37235   3.232   6.421   9.000 -0.7100  0.4523  0.7206
  283MOL0     C37236   3.169   6.556   8.975 -0.2715 -0.3339 -0.1167
  283MOL0     C37237   3.114   6.566   8.827  0.3395 -0.4743 -0.5315
  283MOL0     C37238   3.006   6.676   8.804 -0.4049  0.6090  0.4170
  283MOL0     C37239   2.979   6.697   8.654  0.8740 -0.5014 -0.2482
  283MOL0     C37240   2.876   6.813   8.640 -0.3816 -0.0965 -0.1049
  283MOL0     N37241   2.867   6.851   8.503  1.2399 -0.4815  0.0628
  283MOL0     C37242   2.911   6.791   8.384 -0.2977 -0.9137 -0.1719
  283MOL0     C37243   2.877   6.862   8.276 -0.2985 -0.7063  0.8064
  283MOL0     C37244   2.894   6.813   8.123  0.5874  0.1073 -0.6185
  283MOL0     C37245   2.758   6.827   8.048  0.1616 -0.9008  0.2396
  283MOL0     C37246   2.768   6.776   7.901 -0.2628 -0.6152 -0.3759
  283MOL0     C37247   2.843   6.868   7.796  0.3256  0.3768 -0.1273
  283MOL0     O37248   2.980   6.857   7.801  0.5043 -0.3681  0.0351
  283MOL0     C37249   3.064   6.775   7.736 -0.4555  0.2946  0.2602
  283MOL0     C37250   3.034   6.659   7.662  0.1368 -0.8487 -1.0519
  283MOL0     C37251   3.126   6.586   7.597 -0.4043  0.5551  1.1615
  283MOL0     C37252   3.257   6.630   7.610 -0.9483  0.4888 -0.5058
  283MOL0     C37253   3.370   6.569   7.534 -0.4187  1.1934 -0.9574
  283MOL0     O37254   3.332   6.450   7.469 -0.3583 -0.3829  0.1882
  283MOL0     C37255   3.413   6.408   7.372 -0.3696 -0.2735  0.8633
  283MOL0     C37256   3.374   6.453   7.250  0.4062 -0.0737 -0.8490
  283MOL0     C37257   3.463   6.432   7.144  1.0261  0.1440  0.0639
  283MOL0     C37258   3.575   6.350   7.152 -0.6263  0.2623  0.1276
  283MOL0     O37259   3.658   6.336   7.038  0.0014 -0.0285 -0.9078
  283MOL0     C37260   3.750   6.232   7.025 -0.4835  0.1766  0.1811
  283MOL0     C37261   3.721   6.194   6.882 -0.5519 -0.2479 -0.5869
  283MOL0     C37262   3.752   6.306   6.782  0.0020  0.7979  0.0620
  283MOL0     C37263   3.715   6.273   6.642  0.2005  0.3332 -0.2209
  283MOL0     C37264   3.756   6.384   6.544  0.0857  0.1475  0.2246
  283MOL0     C37265   3.733   6.334   6.407 -0.2907 -0.1139  0.9601
  283MOL0     C37266   3.760   6.429   6.281 -0.0198  0.6132  1.1473
  283MOL0     C37267   3.669   6.553   6.278  0.1370 -0.5147 -0.1334
  283MOL0    Cl37268   3.501   6.526   6.332 -0.0764  0.4751  0.6784
  283MOL0     C37269   3.610   6.296   7.278  0.7247  0.5641  0.0889
  283MOL0     C37270   3.522   6.326   7.390  0.2603  0.4366 -0.7615
  283MOL0     O37271   3.482   6.622   7.534  1.0941  0.3181 -0.3261
  283MOL0     C37272   3.288   6.740   7.691 -0.7679 -0.1145 -0.2112
  283MOL0     C37273   3.194   6.806   7.767  0.3398  0.3265  0.2469
  283MOL0     N37274   2.821   6.981   8.324  0.1035  0.6896  0.0637
  283MOL0     N37275   2.824   6.974   8.459  0.0422 -0.0580 -0.0520
  283MOL0     C37276   3.367   5.975   9.252  0.0281  0.2216 -0.0782
  283MOL0     C37277   3.434   5.848   9.261 -0.0094  0.7110 -0.2306
  283MOL0     C37278   3.722   5.556   9.122 -1.0352  0.2820 -0.8049
  283MOL0     C37279   3.717   5.420   9.098  0.7175  1.1072 -0.1311
  283MOL0     C37280   3.816   5.354   9.020 -0.3312  1.2213 -0.0031
  283MOL0     C37281   3.920   5.426   8.958  0.0300 -0.3268 -0.1833
  283MOL0     O37282   4.002   5.351   8.880 -0.2663 -1.2141 -0.0128
  283MOL0     C37283   4.142   5.394   8.846 -0.1553 -0.5138  0.1355
  283MOL0     C37284   4.151   5.455   8.703 -0.0837  0.5586  0.0203
  283MOL0     C37285   4.272   5.525   8.668 -0.2631  0.5747  0.7845
  283MOL0     C37286   4.384   5.425   8.658  0.2655  0.3284 -0.3687
  283MOL0     C37287   4.415   5.405   8.515 -0.1159 -0.1713 -0.6332
  283MOL0     C37288   4.457   5.383   8.403  0.4088  0.8259  0.5711
  283MOL0     C37289   3.920   5.568   8.965  0.2506 -0.9288 -0.3599
  283MOL0     C37290   3.826   5.629   9.048  0.3786 -0.2216 -0.7691
  283MOL0     H37291   3.754   5.974   9.285 -0.3354 -1.6282  1.6765
  283MOL0     H37292   3.634   6.188   9.271  0.4805  0.1362  1.2820
  283MOL0     H37293   3.238   6.204   9.103 -0.6497  0.8382 -0.6446
  283MOL0     H37294   3.402   6.231   9.057  1.4943 -0.1898  1.6324
  283MOL0     H37295   3.395   6.462   9.144  1.1108 -1.4059 -1.0153
  283MOL0     H37296   3.224   6.439   9.205 -2.5572 -0.7687 -1.5458
  283MOL0     H37297   3.150   6.349   8.991  2.3374 -3.1403 -1.8684
  283MOL0     H37298   3.302   6.393   8.920 -1.4998  0.7948 -0.1054
  283MOL0     H37299   3.075   6.551   9.032 -0.5732 -2.9790 -0.7092
  283MOL0     H37300   3.233   6.641   9.000 -0.9938  0.0792  0.3638
  283MOL0     H37301   3.073   6.474   8.784  1.1577 -0.1621 -2.0487
  283MOL0     H37302   3.199   6.595   8.764 -1.7155  5.0890 -1.3114
  283MOL0     H37303   3.041   6.757   8.868  2.2021 -0.5740  0.6212
  283MOL0     H37304   2.912   6.649   8.853 -0.0924  0.0506  0.7184
  283MOL0     H37305   3.071   6.731   8.606  0.1686 -0.4002 -1.6073
  283MOL0     H37306   2.937   6.602   8.619 -0.8273  0.7516 -1.8511
  283MOL0     H37307   2.908   6.896   8.703 -2.8285 -1.5950  3.3918
  283MOL0     H37308   2.779   6.793   8.685  0.0506 -1.2162  0.3823
  283MOL0     H37309   2.968   6.699   8.372  2.4065  0.7651 -0.8984
  283MOL0     H37310   2.919   6.706   8.119 -0.9792 -0.3261  0.3112
  283MOL0     H37311   2.978   6.871   8.085  1.0626 -0.1226  0.0523
  283MOL0     H37312   2.727   6.932   8.048  1.2990 -0.5351 -0.8785
  283MOL0     H37313   2.682   6.764   8.096  2.4245 -3.5971  0.5613
  283MOL0     H37314   2.802   6.672   7.906  2.5711  0.2948  1.8002
  283MOL0     H37315   2.669   6.773   7.856 -0.1156  1.7910 -0.9646
  283MOL0     H37316   2.803   6.969   7.803 -0.8545  0.0863 -1.9070
  283MOL0     H37317   2.804   6.836   7.699  1.9075  0.6954 -0.9130
  283MOL0     H37318   2.931   6.622   7.664  0.4791 -1.8481  1.0391
  283MOL0     H37319   3.094   6.498   7.543  1.0853  0.4414  0.4161
  283MOL0     H37320   3.295   6.526   7.236  2.2501  2.1987 -0.0463
  283MOL0     H37321   3.437   6.462   7.043 -0.0964 -1.2599 -0.0886
  283MOL0     H37322   3.724   6.145   7.086  0.2460  2.8307  4.8525
  283MOL0     H37323   3.852   6.270   7.036 -0.0111 -0.7877 -0.7470
  283MOL0     H37324   3.619   6.156   6.869 -0.9605 -0.0332  1.6535
  283MOL0     H37325   3.767   6.098   6.857 -2.3442 -1.4672  0.5543
  283MOL0     H37326   3.860   6.322   6.790  0.2076 -0.1959 -0.5570
  283MOL0     H37327   3.693   6.394   6.810 -0.0918  1.1147 -1.0864
  283MOL0     H37328   3.773   6.187   6.607  0.5429  0.3520  0.2777
  283MOL0     H37329   3.607   6.263   6.651 -0.2112  0.5858 -3.6599
  283MOL0     H37330   3.865   6.395   6.547  0.2790 -0.7990 -2.0404
  283MOL0     H37331   3.700   6.473   6.575 -0.3231 -0.6196  1.8279
  283MOL0     H37332   3.628   6.303   6.405 -0.7663  1.4243  0.2873
  283MOL0     H37333   3.799   6.247   6.398 -0.0387 -0.8720  6.5224
  283MOL0     H37334   3.867   6.451   6.273  0.0465  0.0647  0.4391
  283MOL0     H37335   3.737   6.376   6.188 -0.0046  0.2084  1.3738
  283MOL0     H37336   3.667   6.580   6.173  1.9824 -1.7037 -0.5258
  283MOL0     H37337   3.715   6.626   6.345 -0.8892 -1.1425  1.3141
  283MOL0     H37338   3.708   6.250   7.288  0.9382  0.9122 -0.3552
  283MOL0     H37339   3.548   6.280   7.485 -0.0351 -1.3153 -1.4866
  283MOL0     H37340   3.384   6.788   7.704 -2.4001  2.9677  1.4824
  283MOL0     H37341   3.204   6.883   7.843 -4.4360  2.5272 -0.9673
  283MOL0     H37342   3.259   5.987   9.252 -0.1681 -1.3696 -0.6301
  283MOL0     H37343   3.379   5.757   9.284 -3.0828  2.6152  0.4629
  283MOL0     H37344   3.633   5.375   9.149  1.2989  1.0315  0.7980
  283MOL0     H37345   3.819   5.247   9.008  1.1857  1.3695 -1.2354
  283MOL0     H37346   4.209   5.307   8.839 -1.7876 -2.1843  3.1757
  283MOL0     H37347   4.174   5.472   8.916  1.4623 -0.5004 -0.5754
  283MOL0     H37348   4.152   5.375   8.628  0.0241  3.0689 -2.8417
  283MOL0     H37349   4.067   5.519   8.677 -0.1951 -0.7149 -3.2766
  283MOL0     H37350   4.293   5.591   8.753 -1.5381 -0.1573  1.6958
  283MOL0     H37351   4.252   5.583   8.577 -4.9580  0.2960  1.3788
  283MOL0     H37352   4.473   5.475   8.698 -0.4304 -0.4116  2.2942
  283MOL0     H37353   4.368   5.334   8.716 -1.3492  2.8502  3.5850
  283MOL0     H37354   4.510   5.361   8.312 -1.4667 -1.3730 -0.0932
  283MOL0     H37355   3.999   5.615   8.909 -1.4360  0.0078 -2.0630
  283MOL0     H37356   3.835   5.737   9.051 -0.6764 -0.0539 -2.3239
  284MOL0     O37357   4.709   1.541   3.171 -0.3825  0.2395  0.1412
  284MOL0     C37358   4.762   1.467   3.085 -0.2789  0.8277 -0.2363
  284MOL0     O37359   4.872   1.391   3.106  0.4108 -0.6031  0.7365
  284MOL0     C37360   4.961   1.391   3.213  0.2490  0.9222  0.1437
  284MOL0     C37361   5.064   1.293   3.197 -0.0686 -0.0446 -0.1970
  284MOL0     C37362   5.156   1.276   3.303 -0.9008 -0.5500  0.1582
  284MOL0     C37363   5.151   1.360   3.417 -0.7319 -1.0071  0.3323
  284MOL0     O37364   5.243   1.315   3.502  0.6780  0.2022  0.3445
  284MOL0     C37365   5.269   1.382   3.625  0.4044 -0.5867 -0.0189
  284MOL0     C37366   5.180   1.326   3.730  0.5969  0.5000 -0.6078
  284MOL0     C37367   5.175   1.404   3.864 -0.5794  1.0586  0.7971
  284MOL0     C37368   5.309   1.396   3.938 -0.3720 -0.8640 -0.6768
  284MOL0     C37369   5.313   1.469   4.074 -0.0342 -0.1129  0.4107
  284MOL0     C37370   5.181   1.456   4.149 -0.5770  0.0607  1.1806
  284MOL0     C37371   5.179   1.508   4.292 -1.0924  0.2105  0.2072
  284MOL0     C37372   5.272   1.625   4.330 -1.2051 -0.2074 -0.1833
  284MOL0     N37373   5.252   1.671   4.470 -0.5818 -0.2210 -0.0256
  284MOL0     C37374   5.179   1.774   4.521  1.0086 -0.3626 -0.4183
  284MOL0     C37375   5.194   1.756   4.655  0.3624  0.2232  0.9631
  284MOL0     C37376   5.150   1.836   4.775  0.6477  0.4028  0.2046
  284MOL0     C37377   5.000   1.877   4.766  0.4000  0.3545  0.0976
  284MOL0     C37378   4.900   1.763   4.781 -0.4229 -0.0064 -0.1336
  284MOL0     C37379   4.897   1.639   4.695 -0.2623  0.2715  0.5201
  284MOL0     O37380   4.781   1.562   4.709 -0.9295  0.4313 -0.3500
  284MOL0     C37381   4.784   1.439   4.629  0.4865 -0.0765 -1.0195
  284MOL0     C37382   4.856   1.417   4.519 -0.5259  1.0127  0.5279
  284MOL0     C37383   4.848   1.297   4.449  1.1098 -0.0014 -0.0953
  284MOL0     C37384   4.762   1.197   4.488  0.2710  0.8411  0.4230
  284MOL0     C37385   4.740   1.065   4.417 -0.0446 -0.2384  0.2897
  284MOL0     O37386   4.834   1.021   4.319  0.5272  0.0926 -0.7852
  284MOL0     C37387   4.800   0.894   4.277  0.9769  0.1814  0.6433
  284MOL0     C37388   4.681   0.862   4.201  0.2382  0.6366 -0.1731
  284MOL0     C37389   4.661   0.733   4.152 -0.3161 -0.0559 -0.7951
  284MOL0     C37390   4.758   0.639   4.165 -0.3268 -0.2385  0.2725
  284MOL0     O37391   4.730   0.518   4.106  0.4596  0.5287 -0.1919
  284MOL0     C37392   4.842   0.447   4.049 -0.5749  0.1688 -0.5389
  284MOL0     C37393   4.814   0.370   3.923 -0.4822 -0.1100  0.3175
  284MOL0     C37394   4.949   0.299   3.872  0.9918 -0.7129  0.0731
  284MOL0     C37395   4.914   0.198   3.759  0.0708 -0.9906  0.4590
  284MOL0     C37396   4.830   0.258   3.636 -0.5328 -0.1086  0.3574
  284MOL0     C37397   4.806   0.158   3.522 -1.4100 -0.2565 -0.0922
  284MOL0     C37398   4.691   0.062   3.549  0.6775  0.2913  0.5019
  284MOL0     C37399   4.558   0.141   3.539  1.1963 -0.0489 -0.0701
  284MOL0    Cl37400   4.415   0.037   3.540  0.2913  0.3750  0.5930
  284MOL0     C37401   4.873   0.671   4.232 -0.3668 -0.0453  0.5930
  284MOL0     C37402   4.892   0.795   4.294  0.1869  0.6033  1.1477
  284MOL0     O37403   4.641   1.000   4.457 -0.2151  0.1334 -1.0944
  284MOL0     C37404   4.683   1.223   4.599 -1.0420 -0.2717  0.1566
  284MOL0     C37405   4.691   1.349   4.663  0.6469  0.4442 -0.6325
  284MOL0     N37406   5.272   1.648   4.684 -0.7697  0.3890 -0.4595
  284MOL0     N37407   5.316   1.609   4.570  0.2888  0.3057 -0.5324
  284MOL0     C37408   5.065   1.470   3.419  0.2378  0.4891 -0.4055
  284MOL0     C37409   4.964   1.479   3.322 -0.0645  0.1483 -0.4773
  284MOL0     C37410   4.689   1.449   2.956 -0.3135  0.3847  0.2171
  284MOL0     C37411   4.715   1.336   2.879  0.0398 -0.5182  0.7552
  284MOL0     C37412   4.648   1.325   2.761  1.1367 -1.3912 -0.5791
  284MOL0     C37413   4.553   1.419   2.715  0.8056  0.4756  0.6103
  284MOL0     O37414   4.510   1.392   2.587  0.4184 -0.0766 -0.4534
  284MOL0     C37415   4.441   1.491   2.524  0.4955  0.1700  1.6009
  284MOL0     C37416   4.370   1.447   2.400 -1.0926 -0.2173  0.0977
  284MOL0     C37417   4.256   1.345   2.437  1.6251 -0.1375  0.1956
  284MOL0     C37418   4.188   1.288   2.304 -1.2170 -0.3846 -0.7864
  284MOL0     C37419   4.291   1.230   2.219 -0.2609 -0.6133 -0.9172
  284MOL0     C37420   4.359   1.193   2.132 -0.6635 -0.0252  0.4938
  284MOL0     C37421   4.509   1.521   2.812  0.4968 -0.1923 -0.0301
  284MOL0     C37422   4.583   1.543   2.929 -0.3258 -1.3915  0.1733
  284MOL0     H37423   5.066   1.228   3.110  0.6460 -0.6112  0.2306
  284MOL0     H37424   5.235   1.204   3.285  0.6480  1.5335 -1.8187
  284MOL0     H37425   5.248   1.490   3.629 -0.1084 -0.6893  3.5695
  284MOL0     H37426   5.374   1.365   3.650  0.9927  0.0957 -1.8503
  284MOL0     H37427   5.213   1.226   3.761 -2.0475 -0.5297 -0.8894
  284MOL0     H37428   5.079   1.327   3.687  0.7012  0.6038 -0.8511
  284MOL0     H37429   5.093   1.354   3.916 -1.6273  0.0770 -1.6360
  284MOL0     H37430   5.149   1.509   3.848  2.7890  1.5751 -2.6190
  284MOL0     H37431   5.341   1.293   3.956  0.6439 -0.1476  2.0196
  284MOL0     H37432   5.389   1.434   3.874 -0.9081 -1.1799 -1.5548
  284MOL0     H37433   5.315   1.575   4.045 -3.7697 -0.0230  0.0548
  284MOL0     H37434   5.403   1.438   4.127  1.9388  2.8670 -0.8949
  284MOL0     H37435   5.160   1.349   4.140  2.4260 -0.6668  1.5966
  284MOL0     H37436   5.107   1.516   4.096 -1.6144 -1.5867  0.6605
  284MOL0     H37437   5.075   1.532   4.317 -1.5206 -1.3395  0.0249
  284MOL0     H37438   5.216   1.426   4.354 -0.6504 -0.3512 -0.7866
  284MOL0     H37439   5.255   1.708   4.261 -1.0605 -0.4630 -0.5290
  284MOL0     H37440   5.378   1.600   4.318 -0.3124  2.2665  1.7422
  284MOL0     H37441   5.117   1.848   4.469  1.4390  0.9530  0.8764
  284MOL0     H37442   5.213   1.925   4.773  0.6492  0.3999 -1.7808
  284MOL0     H37443   5.178   1.766   4.854  2.2574  0.7851 -0.0017
  284MOL0     H37444   4.974   1.916   4.668  0.8611  1.1512  0.2864
  284MOL0     H37445   4.975   1.949   4.844 -1.7503 -0.1487 -0.0594
  284MOL0     H37446   4.911   1.733   4.886 -1.5131  0.4783  0.1342
  284MOL0     H37447   4.797   1.801   4.776 -1.7794 -3.4611 -2.0054
  284MOL0     H37448   4.978   1.569   4.716 -2.5664 -2.4076  1.1639
  284MOL0     H37449   4.914   1.675   4.593  2.5676  1.7629  1.4218
  284MOL0     H37450   4.931   1.481   4.473  2.8492 -0.1397  3.8541
  284MOL0     H37451   4.898   1.272   4.355 -1.7245 -1.4018 -1.3384
  284MOL0     H37452   4.597   0.929   4.182 -0.5213 -0.0189  0.7464
  284MOL0     H37453   4.562   0.715   4.112  0.4082 -0.3293 -2.5676
  284MOL0     H37454   4.887   0.376   4.119 -1.3607  0.5987  0.4384
  284MOL0     H37455   4.918   0.522   4.025 -0.0250  0.2064  1.1794
  284MOL0     H37456   4.795   0.449   3.849  0.7681 -0.9192 -0.9195
  284MOL0     H37457   4.734   0.297   3.939  0.4232 -0.8219  1.7687
  284MOL0     H37458   4.978   0.233   3.954 -3.2256 -1.6527  1.0108
  284MOL0     H37459   5.014   0.379   3.834  0.9681 -1.7633 -2.3677
  284MOL0     H37460   5.007   0.162   3.713  0.2129  0.4704 -0.4542
  284MOL0     H37461   4.865   0.108   3.798 -1.1144 -0.0638  1.1739
  284MOL0     H37462   4.885   0.345   3.598  0.2268 -1.4206 -1.7395
  284MOL0     H37463   4.732   0.300   3.659 -0.6507 -0.7086  0.9621
  284MOL0     H37464   4.902   0.106   3.525 -1.3761 -0.2943 -1.2466
  284MOL0     H37465   4.787   0.210   3.427 -0.1334  3.0182  1.2857
  284MOL0     H37466   4.693  -0.021   3.478  1.8422  0.3695  0.4273
  284MOL0     H37467   4.693   0.008   3.644 -0.2188  1.8676  1.4604
  284MOL0     H37468   4.552   0.209   3.453  2.4746 -0.3760 -0.4438
  284MOL0     H37469   4.541   0.206   3.625 -2.9161 -0.1230 -0.6196
  284MOL0     H37470   4.949   0.594   4.228  1.1604  1.4450 -2.7134
  284MOL0     H37471   4.967   0.831   4.364 -1.5261  0.4376  3.1749
  284MOL0     H37472   4.620   1.149   4.647 -0.9794  0.5468  1.5443
  284MOL0     H37473   4.628   1.353   4.752 -2.9503  0.1768 -2.9511
  284MOL0     H37474   5.071   1.532   3.508  1.4622 -0.2252  0.0254
  284MOL0     H37475   4.891   1.559   3.328  0.5377  0.6067  1.9418
  284MOL0     H37476   4.785   1.262   2.918 -0.9012 -0.8308  1.9167
  284MOL0     H37477   4.675   1.263   2.676 -0.0429 -0.6768 -1.5088
  284MOL0     H37478   4.491   1.586   2.503 -1.9397  0.7556 -2.9173
  284MOL0     H37479   4.358   1.507   2.593 -0.2708  0.3353  0.6685
  284MOL0     H37480   4.319   1.531   2.352 -0.6086  0.0667  0.0833
  284MOL0     H37481   4.448   1.412   2.332  1.3267 -1.0612  3.0723
  284MOL0     H37482   4.182   1.387   2.506  0.5251  2.1987 -2.2234
  284MOL0     H37483   4.300   1.257   2.485  2.3037  0.0130 -0.1379
  284MOL0     H37484   4.106   1.218   2.322 -1.9120  0.4412 -0.7068
  284MOL0     H37485   4.141   1.365   2.243  0.3049  0.5368 -0.8565
  284MOL0     H37486   4.431   1.166   2.057 -0.5980  1.0867  0.1324
  284MOL0     H37487   4.434   1.597   2.789 -0.3248 -0.8670  0.3640
  284MOL0     H37488   4.554   1.617   3.003 -1.8713  0.6211 -2.2737
  285MOL0     O37489  10.630   1.396   9.219  0.3000  0.0373  0.5852
  285MOL0     C37490  10.582   1.481   9.148  0.9558 -0.5609  0.2516
  285MOL0     O37491  10.635   1.512   9.024  0.0960 -0.4326 -1.1849
  285MOL0     C37492  10.732   1.429   8.964  0.0804 -0.3508  0.3291
  285MOL0     C37493  10.807   1.496   8.860  0.0252  0.5730 -0.6084
  285MOL0     C37494  10.889   1.429   8.777  0.2912  0.1700  0.0603
  285MOL0     C37495  10.902   1.290   8.774  0.0345  0.9744  1.0247
  285MOL0     O37496  10.982   1.226   8.678  0.3625 -0.3478  0.3808
  285MOL0     C37497  10.971   1.264   8.541 -0.0292 -0.2265 -0.3635
  285MOL0     C37498  10.857   1.184   8.469 -0.2753  0.4019 -0.4427
  285MOL0     C37499  10.856   1.215   8.320  0.0418  0.0543  0.9674
  285MOL0     C37500  10.789   1.120   8.223 -0.1788  0.6845 -0.4831
  285MOL0     C37501  10.798   1.178   8.084  0.6572 -0.2178 -0.9463
  285MOL0     C37502  10.724   1.098   7.974 -0.5391  0.4199  0.8867
  285MOL0     C37503  10.724   1.178   7.839 -0.7173  0.1640 -1.1411
  285MOL0     C37504  10.707   1.101   7.713 -1.0933  0.1507  0.0057
  285MOL0     N37505  10.851   1.077   7.676  0.7197  0.1808  0.1471
  285MOL0     C37506  10.923   0.968   7.716  0.7790  0.3910  0.2315
  285MOL0     C37507  11.018   0.943   7.628 -0.1701  0.3911  0.5431
  285MOL0     C37508  11.140   0.861   7.665 -0.0657  0.2725 -0.5951
  285MOL0     C37509  11.250   0.864   7.560  0.7465  0.0723 -0.0034
  285MOL0     C37510  11.205   0.810   7.422 -0.8616  0.4109 -0.0870
  285MOL0     C37511  11.331   0.779   7.338  0.1899 -0.6618  0.6848
  285MOL0     O37512  11.411   0.902   7.322  0.7316  0.1029  0.4877
  285MOL0     C37513  11.501   0.908   7.225 -0.5460  0.7619  0.6786
  285MOL0     C37514  11.594   0.805   7.192 -0.0223 -1.1934  0.6154
  285MOL0     C37515  11.683   0.842   7.088 -0.4646  0.4442 -0.6017
  285MOL0     C37516  11.673   0.957   7.010 -0.2874 -1.3228 -0.9199
  285MOL0     C37517  11.754   0.972   6.886 -0.2229 -0.7379 -0.4806
  285MOL0     O37518  11.748   1.088   6.825  0.5161  0.0283  1.0586
  285MOL0     C37519  11.844   1.126   6.727 -0.1788  0.4948  0.6642
  285MOL0     C37520  11.898   1.042   6.624  1.2084  0.3189  0.6096
  285MOL0     C37521  12.002   1.092   6.538 -0.0009 -0.1009 -0.4702
  285MOL0     C37522  12.043   1.228   6.551 -1.2123  0.3599  1.1345
  285MOL0     O37523  12.140   1.295   6.467 -0.3678 -0.8204 -0.2204
  285MOL0     C37524  12.238   1.213   6.415 -0.1291  0.0481 -0.7921
  285MOL0     C37525  12.371   1.246   6.493 -0.2507  0.5375  0.4597
  285MOL0     C37526  12.367   1.223   6.638  0.0152  0.1652  0.2568
  285MOL0     C37527  12.375   1.070   6.669  0.8616 -1.2670  0.5362
  285MOL0     C37528  12.393   1.033   6.814  0.1711 -0.4711 -0.2504
  285MOL0     C37529  12.277   1.062   6.919 -0.8044  0.2629 -0.4461
  285MOL0     C37530  12.294   0.959   7.030  0.5363 -0.0423 -0.3991
  285MOL0     C37531  12.173   0.973   7.138 -0.3552  0.0960  0.9883
  285MOL0    Cl37532  12.112   0.821   7.194  0.1253  0.1849  0.2132
  285MOL0     C37533  11.975   1.303   6.646 -0.7802 -0.1329  0.7378
  285MOL0     C37534  11.877   1.260   6.728  0.8675  0.1228  0.2843
  285MOL0     O37535  11.824   0.874   6.856 -0.2945 -0.0004 -0.1550
  285MOL0     C37536  11.578   1.045   7.042  0.5186 -0.4475 -0.4791
  285MOL0     C37537  11.496   1.026   7.145 -1.0470 -1.1897 -0.3038
  285MOL0     N37538  11.013   1.044   7.538 -0.8073 -0.0871  0.0143
  285MOL0     N37539  10.901   1.110   7.563 -0.2603 -0.9629  0.0368
  285MOL0     C37540  10.831   1.222   8.872  0.1121 -0.1670 -0.3245
  285MOL0     C37541  10.748   1.290   8.968  0.3108  0.4241  0.4671
  285MOL0     C37542  10.458   1.547   9.209 -0.1479 -0.3060 -0.0471
  285MOL0     C37543  10.383   1.627   9.126  1.4104 -0.2734 -0.4745
  285MOL0     C37544  10.272   1.701   9.181 -0.0525  0.2832  0.0220
  285MOL0     C37545  10.239   1.690   9.317  0.0832  0.7219  0.3967
  285MOL0     O37546  10.145   1.755   9.380 -0.0066 -0.5062 -0.0106
  285MOL0     C37547  10.008   1.756   9.328 -0.5687  0.4200  0.0277
  285MOL0     C37548   9.995   1.900   9.262 -0.5650  0.6077 -0.4934
  285MOL0     C37549   9.973   2.007   9.380 -0.0877  0.3026 -0.4560
  285MOL0     C37550   9.984   2.148   9.305  0.6065 -0.6792  0.3710
  285MOL0     C37551  10.119   2.197   9.267  0.2482 -0.7706  0.6058
  285MOL0     C37552  10.216   2.256   9.254  0.0537  0.1434  0.3741
  285MOL0     C37553  10.322   1.611   9.396 -0.7567 -0.0506 -0.6029
  285MOL0     C37554  10.427   1.535   9.350  0.9587  0.5141 -0.2726
  285MOL0     H37555  10.803   1.603   8.846  4.0069  1.1756  1.3790
  285MOL0     H37556  10.923   1.498   8.700  0.2967 -0.5107 -0.5543
  285MOL0     H37557  11.061   1.232   8.487  0.6374 -0.8644  1.0941
  285MOL0     H37558  10.961   1.371   8.523  1.3823 -0.0374 -0.1133
  285MOL0     H37559  10.766   1.215   8.522  1.6576  2.4586  1.9731
  285MOL0     H37560  10.874   1.079   8.494 -1.6543  0.8619  2.9679
  285MOL0     H37561  10.957   1.211   8.279 -1.1619  1.0044 -2.4221
  285MOL0     H37562  10.811   1.314   8.306  0.7640  0.3551  0.7553
  285MOL0     H37563  10.834   1.020   8.223  0.0114  0.6824 -3.4685
  285MOL0     H37564  10.684   1.107   8.250 -0.5188  0.2322 -1.9337
  285MOL0     H37565  10.903   1.189   8.053  1.1433  1.6940  1.1746
  285MOL0     H37566  10.758   1.280   8.084  4.4814  1.4874  0.3525
  285MOL0     H37567  10.621   1.078   8.006  0.2813 -1.0660  2.7855
  285MOL0     H37568  10.768   0.999   7.959 -4.4177 -1.3859  0.0115
  285MOL0     H37569  10.641   1.248   7.851 -0.6545  0.0096  0.4601
  285MOL0     H37570  10.816   1.237   7.834 -0.3620 -0.4215 -1.5907
  285MOL0     H37571  10.651   1.158   7.638 -3.1342 -1.0702  0.5160
  285MOL0     H37572  10.659   1.003   7.721  2.0023 -1.3563  2.4516
  285MOL0     H37573  10.931   0.898   7.799  2.9824 -1.6851 -1.5896
  285MOL0     H37574  11.112   0.757   7.680 -0.1767  0.0889 -2.0187
  285MOL0     H37575  11.178   0.906   7.758 -3.0292  0.6236  0.5431
  285MOL0     H37576  11.329   0.800   7.601  0.2625 -0.1751  0.5481
  285MOL0     H37577  11.278   0.967   7.536 -4.8494  1.4949 -1.7936
  285MOL0     H37578  11.151   0.715   7.433 -0.8917  0.2489 -1.4311
  285MOL0     H37579  11.141   0.887   7.379 -1.5931 -1.3076 -2.2322
  285MOL0     H37580  11.293   0.761   7.237  0.3419  2.5068 -0.0501
  285MOL0     H37581  11.386   0.694   7.379 -2.2803 -1.5290  2.3875
  285MOL0     H37582  11.600   0.720   7.258  1.5460  0.1375  2.2920
  285MOL0     H37583  11.761   0.769   7.069  0.4163  1.0930  0.3977
  285MOL0     H37584  11.866   0.939   6.610  1.5718  0.2900 -0.0332
  285MOL0     H37585  12.033   1.030   6.454 -2.6496 -1.3012 -0.6844
  285MOL0     H37586  12.240   1.233   6.308  0.8898  0.5464 -0.6957
  285MOL0     H37587  12.211   1.107   6.417 -1.2438  0.2744 -2.4601
  285MOL0     H37588  12.384   1.354   6.493  0.3939  0.4855 -1.4909
  285MOL0     H37589  12.455   1.199   6.441 -1.7941  0.7682 -2.4341
  285MOL0     H37590  12.279   1.266   6.686  0.3834  0.4259  0.7072
  285MOL0     H37591  12.458   1.267   6.680  3.0272 -3.8787 -1.3773
  285MOL0     H37592  12.280   1.024   6.641 -0.3350  1.1859  0.2891
  285MOL0     H37593  12.453   1.020   6.611  1.4800 -1.6249  1.6437
  285MOL0     H37594  12.489   1.072   6.850 -0.2961  2.4453 -1.9175
  285MOL0     H37595  12.398   0.923   6.813 -3.2899 -0.7534  1.0868
  285MOL0     H37596  12.191   1.033   6.859  0.4139  2.1761 -3.4041
  285MOL0     H37597  12.278   1.161   6.965  1.0456 -0.3706  1.0005
  285MOL0     H37598  12.310   0.856   6.999  0.6000 -0.7439  1.7954
  285MOL0     H37599  12.385   0.983   7.087  1.6826 -3.5048 -0.5567
  285MOL0     H37600  12.084   1.027   7.105  0.1961 -1.1812 -3.1491
  285MOL0     H37601  12.212   1.031   7.223 -2.3179  1.9731  0.6963
  285MOL0     H37602  12.010   1.405   6.650 -0.0237 -0.1741 -2.3581
  285MOL0     H37603  11.836   1.323   6.806 -1.6707  1.6841 -2.1734
  285MOL0     H37604  11.559   1.133   6.982  3.2770  0.6207  0.0489
  285MOL0     H37605  11.423   1.100   7.173 -1.5161 -1.8795  0.3273
  285MOL0     H37606  10.849   1.116   8.880 -0.5892 -0.2992 -0.4057
  285MOL0     H37607  10.691   1.238   9.044  0.0334  2.2103  1.5381
  285MOL0     H37608  10.404   1.634   9.019 -0.5396 -1.6511 -1.0128
  285MOL0     H37609  10.208   1.760   9.116 -2.8839 -0.2082  2.1375
  285MOL0     H37610   9.937   1.753   9.411 -0.2548  0.7102  0.3100
  285MOL0     H37611   9.989   1.672   9.260 -1.4912  1.3500 -0.9132
  285MOL0     H37612  10.084   1.923   9.202 -0.8722  0.7584 -0.8941
  285MOL0     H37613   9.906   1.886   9.200  0.1088  0.2731 -1.4115
  285MOL0     H37614  10.053   1.983   9.450  1.4306 -2.1926 -2.8375
  285MOL0     H37615   9.883   2.000   9.442 -1.6420  2.5614 -2.2760
  285MOL0     H37616   9.923   2.147   9.214  2.0802  1.1911 -0.7193
  285MOL0     H37617   9.935   2.232   9.356  3.2239 -0.7684  3.3635
  285MOL0     H37618  10.316   2.296   9.249  0.7003 -1.6052 -3.2228
  285MOL0     H37619  10.318   1.609   9.504  2.0903  0.4312 -0.4208
  285MOL0     H37620  10.483   1.476   9.421  0.6263  0.7928  0.2257
  286MOL0     O37621   3.872   9.481   5.348 -0.0732 -0.2941  0.4895
  286MOL0     C37622   3.873   9.427   5.243 -0.5311  0.1669 -1.8720
  286MOL0     O37623   3.780   9.435   5.143  0.0655 -0.0899 -0.5698
  286MOL0     C37624   3.664   9.516   5.155  0.1615  0.2727  0.0819
  286MOL0     C37625   3.593   9.537   5.036 -0.5578  0.2807 -0.8093
  286MOL0     C37626   3.465   9.585   5.025  0.3271 -0.5070  0.4962
  286MOL0     C37627   3.426   9.655   5.129  0.7272 -0.3476 -0.4822
  286MOL0     O37628   3.314   9.740   5.118 -0.4940 -0.3260 -0.5910
  286MOL0     C37629   3.197   9.672   5.092 -0.1554  1.1063  0.2735
  286MOL0     C37630   3.091   9.739   5.175 -0.0801 -0.5065 -0.5354
  286MOL0     C37631   2.966   9.659   5.175  0.1018  0.3650 -0.1786
  286MOL0     C37632   2.840   9.750   5.209  0.2834  0.7674  0.8473
  286MOL0     C37633   2.728   9.647   5.216  0.3638  1.2853  0.2273
  286MOL0     C37634   2.651   9.674   5.077 -1.0812  0.1366  0.9286
  286MOL0     C37635   2.552   9.789   5.066  0.8731 -0.2722 -0.2364
  286MOL0     C37636   2.510   9.794   4.917 -0.3214 -0.2571 -0.2113
  286MOL0     N37637   2.404   9.695   4.878  0.2711  0.0545  0.2026
  286MOL0     C37638   2.398   9.551   4.867 -0.0438 -0.2825 -0.2486
  286MOL0     C37639   2.266   9.512   4.839 -0.9611 -0.8448 -0.0715
  286MOL0     C37640   2.221   9.371   4.810 -0.3126 -0.3327 -0.6216
  286MOL0     C37641   2.329   9.291   4.737  0.9440  0.2576  0.7299
  286MOL0     C37642   2.350   9.336   4.598  0.3567  0.1766  1.0952
  286MOL0     C37643   2.410   9.228   4.503  0.3938  0.5041  0.5099
  286MOL0     O37644   2.545   9.186   4.539 -0.2841 -0.8806  0.1846
  286MOL0     C37645   2.568   9.049   4.550  0.4880 -0.0518  0.3549
  286MOL0     C37646   2.479   8.940   4.515  0.1045 -0.5430  0.4107
  286MOL0     C37647   2.521   8.808   4.531  0.5976 -0.0469 -0.9915
  286MOL0     C37648   2.659   8.779   4.567 -0.7810  0.2104  0.9771
  286MOL0     C37649   2.706   8.635   4.558 -0.1565  0.5254  0.3044
  286MOL0     O37650   2.629   8.540   4.608 -0.3574  0.2697  0.1023
  286MOL0     C37651   2.620   8.413   4.546 -0.5003 -0.3804  0.1377
  286MOL0     C37652   2.500   8.373   4.493  0.6167 -0.2643 -1.0536
  286MOL0     C37653   2.491   8.255   4.421 -1.2630 -0.2826 -0.0206
  286MOL0     C37654   2.602   8.173   4.405  0.4007  0.5469 -0.1213
  286MOL0     O37655   2.605   8.061   4.327  0.1762 -0.0780  0.6474
  286MOL0     C37656   2.485   8.000   4.259 -0.3140  0.1357 -0.7247
  286MOL0     C37657   2.530   7.902   4.146  0.2773 -0.8249  0.3316
  286MOL0     C37658   2.636   7.806   4.177 -0.1800  0.2520 -0.3287
  286MOL0     C37659   2.622   7.659   4.130  0.0925  0.7548 -0.0050
  286MOL0     C37660   2.621   7.643   3.978 -0.3157 -0.5734 -0.4649
  286MOL0     C37661   2.486   7.637   3.917  0.4430  0.5875  0.7034
  286MOL0     C37662   2.476   7.635   3.767 -1.4765 -0.9213 -0.1298
  286MOL0     C37663   2.340   7.624   3.703  0.7648  0.0045  0.1033
  286MOL0    Cl37664   2.356   7.558   3.538  0.4417 -0.2712 -0.2314
  286MOL0     C37665   2.722   8.217   4.455  0.6103  0.4539  0.1729
  286MOL0     C37666   2.734   8.335   4.533  0.6091 -0.4123  0.4386
  286MOL0     O37667   2.809   8.617   4.493 -0.8667 -0.2978 -0.5837
  286MOL0     C37668   2.748   8.882   4.594 -0.1451  0.5608 -0.1663
  286MOL0     C37669   2.692   9.011   4.591 -0.0989 -0.2541 -0.3389
  286MOL0     N37670   2.195   9.631   4.849 -0.3124 -0.5221  0.4303
  286MOL0     N37671   2.267   9.735   4.879 -0.3908 -0.3660  0.3477
  286MOL0     C37672   3.488   9.651   5.251  0.4676  0.8994  0.6071
  286MOL0     C37673   3.606   9.573   5.261  0.0524  0.0013  0.1840
  286MOL0     C37674   3.993   9.347   5.206  0.0738 -0.0998 -0.1096
  286MOL0     C37675   4.091   9.329   5.311  1.0788 -0.3516  0.3118
  286MOL0     C37676   4.200   9.241   5.288  0.0829  0.3202 -0.0126
  286MOL0     C37677   4.221   9.180   5.164 -0.8897 -1.2495 -0.2067
  286MOL0     O37678   4.331   9.108   5.129  0.1858  0.2846  0.1995
  286MOL0     C37679   4.434   9.075   5.227  0.2838  1.0267  0.5574
  286MOL0     C37680   4.516   8.975   5.163 -1.0066 -0.2930  0.3421
  286MOL0     C37681   4.451   8.848   5.127 -0.4550  1.2229 -1.0356
  286MOL0     C37682   4.542   8.736   5.084 -0.6136 -0.0978 -0.6607
  286MOL0     C37683   4.471   8.611   5.095 -0.1124 -0.8898  0.4625
  286MOL0     C37684   4.425   8.502   5.089  0.3375  0.8095  0.3309
  286MOL0     C37685   4.135   9.202   5.057 -0.3180 -0.6963 -0.3461
  286MOL0     C37686   4.019   9.287   5.081  0.1523  0.2995 -0.6414
  286MOL0     H37687   3.636   9.498   4.945 -1.7263  0.8217 -1.6254
  286MOL0     H37688   3.413   9.595   4.931 -1.6551 -1.8274  1.3919
  286MOL0     H37689   3.198   9.568   5.123 -0.8507  1.2242  0.7143
  286MOL0     H37690   3.168   9.672   4.986 -0.1522  1.4835  0.2690
  286MOL0     H37691   3.068   9.833   5.125 -1.3199 -1.5608 -2.0612
  286MOL0     H37692   3.135   9.753   5.274 -0.7116  2.7549 -0.5993
  286MOL0     H37693   2.964   9.577   5.248  1.0559 -1.1657 -1.7723
  286MOL0     H37694   2.959   9.605   5.080  2.3053 -0.9782  0.3350
  286MOL0     H37695   2.849   9.784   5.312  2.0743  0.2744  0.8767
  286MOL0     H37696   2.806   9.837   5.151 -4.3773  0.2221  2.3808
  286MOL0     H37697   2.667   9.661   5.305  1.4358  0.6531  1.0833
  286MOL0     H37698   2.765   9.545   5.224  0.2520  1.0107 -1.9924
  286MOL0     H37699   2.598   9.582   5.049  1.5811 -0.8890 -1.2357
  286MOL0     H37700   2.725   9.685   4.997 -2.5360  2.0871 -0.2296
  286MOL0     H37701   2.464   9.780   5.130  0.2790  3.8338 -0.2030
  286MOL0     H37702   2.590   9.890   5.087 -1.8336  0.8996 -0.5579
  286MOL0     H37703   2.596   9.765   4.857  1.2580 -0.4149  2.0111
  286MOL0     H37704   2.490   9.895   4.878  2.6643  1.1061  1.4668
  286MOL0     H37705   2.468   9.469   4.875 -1.7290 -1.6075  2.1658
  286MOL0     H37706   2.133   9.381   4.745 -0.1811  0.6636 -0.6680
  286MOL0     H37707   2.190   9.322   4.902  0.6626  0.3604  0.0981
  286MOL0     H37708   2.290   9.189   4.741 -0.0507  0.4631 -1.6986
  286MOL0     H37709   2.420   9.279   4.797  1.0507  0.3715  0.5896
  286MOL0     H37710   2.263   9.381   4.550  1.5503 -0.2968 -1.7109
  286MOL0     H37711   2.425   9.414   4.591  0.0216  0.3797 -0.6002
  286MOL0     H37712   2.412   9.278   4.406 -0.9136 -0.8612 -0.2482
  286MOL0     H37713   2.334   9.150   4.500  1.8688 -0.9459 -0.7207
  286MOL0     H37714   2.381   8.954   4.472  1.0962  2.3320 -1.1698
  286MOL0     H37715   2.445   8.734   4.510  0.9442 -0.0158 -2.4474
  286MOL0     H37716   2.408   8.429   4.510  0.9144  0.9417 -3.0575
  286MOL0     H37717   2.400   8.208   4.385 -1.8007 -0.1271  1.0778
  286MOL0     H37718   2.429   8.082   4.213  0.8074  1.1332 -0.3807
  286MOL0     H37719   2.421   7.944   4.327  0.4595 -1.1816 -1.0505
  286MOL0     H37720   2.553   7.949   4.050  0.4319 -1.1225  0.2226
  286MOL0     H37721   2.438   7.854   4.111 -1.6369  0.7505  2.8311
  286MOL0     H37722   2.659   7.796   4.283  1.5454 -2.3886 -0.8520
  286MOL0     H37723   2.726   7.856   4.140 -0.1879  1.3515  1.0700
  286MOL0     H37724   2.715   7.611   4.161  0.0979  1.0133  0.3920
  286MOL0     H37725   2.531   7.618   4.175 -3.6358  4.3062 -3.4679
  286MOL0     H37726   2.692   7.570   3.938  1.8753  1.2006  0.0072
  286MOL0     H37727   2.667   7.728   3.926 -1.9112  0.7260  0.1446
  286MOL0     H37728   2.422   7.718   3.953 -0.6204 -0.3433  0.9410
  286MOL0     H37729   2.446   7.543   3.956 -0.5887  0.9436  0.5349
  286MOL0     H37730   2.518   7.730   3.734 -2.2265  0.3509  2.2619
  286MOL0     H37731   2.527   7.550   3.722 -0.7794 -2.0988  2.6775
  286MOL0     H37732   2.278   7.715   3.704  1.3155  0.4094 -0.9967
  286MOL0     H37733   2.292   7.544   3.758  0.9314 -0.3526 -0.2667
  286MOL0     H37734   2.797   8.139   4.454 -1.0139 -1.1819  0.9016
  286MOL0     H37735   2.827   8.359   4.584  0.1935  0.9907  0.5762
  286MOL0     H37736   2.853   8.865   4.616 -0.1549 -1.4420 -1.4342
  286MOL0     H37737   2.761   9.086   4.628 -1.2445  0.2815  0.7845
  286MOL0     H37738   3.452   9.704   5.339 -1.2261  0.1122  0.4341
  286MOL0     H37739   3.664   9.573   5.353  0.6978  1.4860 -0.1877
  286MOL0     H37740   4.086   9.365   5.413  2.6572  0.1742  0.2336
  286MOL0     H37741   4.268   9.210   5.367 -1.6183 -0.2306  1.3035
  286MOL0     H37742   4.391   9.038   5.321  1.4676 -3.5054 -0.4356
  286MOL0     H37743   4.494   9.161   5.259  0.3230  1.2001  0.0262
  286MOL0     H37744   4.556   9.003   5.065  0.1037 -2.9161 -0.0421
  286MOL0     H37745   4.599   8.955   5.231 -1.0788  0.1902  0.5765
  286MOL0     H37746   4.398   8.871   5.034 -1.4622  2.0190 -0.2985
  286MOL0     H37747   4.371   8.826   5.199 -0.5812 -0.3757 -1.6269
  286MOL0     H37748   4.561   8.745   4.976  2.2137 -0.2424 -0.2327
  286MOL0     H37749   4.637   8.736   5.138 -1.7729 -0.1358  1.5016
  286MOL0     H37750   4.400   8.399   5.103 -1.6562  1.2416  0.2217
  286MOL0     H37751   4.170   9.165   4.961  0.8953 -0.1709 -0.1343
  286MOL0     H37752   3.940   9.292   5.007 -0.3305 -1.8030 -0.3264
  287MOL0     O37753   1.016   2.455  10.977 -0.0376  0.3823  0.0469
  287MOL0     C37754   1.093   2.372  11.023 -0.0893  0.2142 -0.1027
  287MOL0     O37755   1.102   2.241  10.984  0.4144 -0.3381  0.1700
  287MOL0     C37756   0.999   2.152  10.927 -0.3730 -1.4073 -0.9630
  287MOL0     C37757   0.868   2.189  10.932  0.9418  0.1845  0.2913
  287MOL0     C37758   0.768   2.108  10.877  0.8625  0.2502 -0.2807
  287MOL0     C37759   0.803   1.999  10.799 -0.4100 -0.1816 -0.5610
  287MOL0     O37760   0.695   1.930  10.735  0.4205  0.6732 -0.7397
  287MOL0     C37761   0.692   1.790  10.779 -0.1718  0.0549 -0.0361
  287MOL0     C37762   0.697   1.698  10.667  0.5692  0.4000  0.1677
  287MOL0     C37763   0.597   1.736  10.547 -0.4364 -1.1815 -0.3177
  287MOL0     C37764   0.615   1.656  10.415  0.6647  0.8393  0.1453
  287MOL0     C37765   0.525   1.711  10.305  0.6175 -0.0286 -0.0701
  287MOL0     C37766   0.384   1.647  10.326  0.5330 -0.2470  0.7304
  287MOL0     C37767   0.309   1.675  10.194  0.9639 -0.0417  0.4159
  287MOL0     C37768   0.155   1.639  10.214  0.0581  0.8463 -0.4002
  287MOL0     N37769   0.120   1.524  10.122  0.8200  0.3253  0.9338
  287MOL0     C37770   0.017   1.531  10.029  0.6258  0.0223 -0.3174
  287MOL0     C37771  -0.037   1.408  10.031  0.7210 -0.0254 -0.0664
  287MOL0     C37772  -0.179   1.380   9.976  0.3840  0.3423 -0.0192
  287MOL0     C37773  -0.166   1.365   9.825 -0.5820 -0.0337 -0.0386
  287MOL0     C37774  -0.281   1.295   9.763  0.4831 -0.1341  0.4652
  287MOL0     C37775  -0.424   1.337   9.805  0.4348  0.4484 -0.0299
  287MOL0     O37776  -0.513   1.260   9.739  0.3206  0.7586 -1.0063
  287MOL0     C37777  -0.538   1.142   9.806 -0.5896 -0.3405  0.8710
  287MOL0     C37778  -0.490   1.091   9.929 -0.5414 -0.4556  0.5340
  287MOL0     C37779  -0.520   0.958   9.969 -0.4654  0.0901 -1.1124
  287MOL0     C37780  -0.610   0.876   9.897 -0.6040  0.5982  0.3106
  287MOL0     C37781  -0.639   0.731   9.925  0.8899  0.1136  0.6145
  287MOL0     O37782  -0.712   0.660   9.834  0.8086  1.0799 -0.3987
  287MOL0     C37783  -0.702   0.521   9.831  0.0266  0.0783 -0.9315
  287MOL0     C37784  -0.582   0.454   9.846 -0.3962  0.9503  0.0496
  287MOL0     C37785  -0.583   0.322   9.903  0.3103 -0.0308  0.9886
  287MOL0     C37786  -0.699   0.243   9.913  1.0268 -0.2731 -0.7358
  287MOL0     O37787  -0.693   0.126   9.969 -0.0408 -0.4228  0.2574
  287MOL0     C37788  -0.681   0.143  10.114 -0.8710 -0.2483  0.3891
  287MOL0     C37789  -0.672  -0.000  10.190  0.1457 -0.2752  0.0745
  287MOL0     C37790  -0.743   0.015  10.329  0.6876  0.4738 -0.6566
  287MOL0     C37791  -0.704  -0.082  10.446  0.5420 -0.1969 -0.3455
  287MOL0     C37792  -0.719  -0.010  10.583  0.5083  0.0271 -0.0157
  287MOL0     C37793  -0.858   0.057  10.599  0.3496 -0.6031  0.8106
  287MOL0     C37794  -0.903   0.078  10.747 -0.9849  0.1351  0.0996
  287MOL0     C37795  -1.035   0.161  10.761 -0.6115 -0.2380  0.1625
  287MOL0    Cl37796  -1.106   0.160  10.930  0.2336  0.1586 -0.2204
  287MOL0     C37797  -0.816   0.306   9.875  1.4576  0.0751  0.0771
  287MOL0     C37798  -0.824   0.444   9.841  0.3671 -0.0205  0.3508
  287MOL0     O37799  -0.584   0.679  10.025  0.7024 -0.2316  0.0657
  287MOL0     C37800  -0.676   0.934   9.786 -0.6001  0.7148  1.1573
  287MOL0     C37801  -0.629   1.054   9.740  0.3523  0.9973  0.7409
  287MOL0     N37802   0.048   1.315  10.092 -0.4967 -0.3681  0.2624
  287MOL0     N37803   0.138   1.385  10.147  0.2441 -0.4965  0.1291
  287MOL0     C37804   0.937   1.967  10.785 -0.2839 -1.1786  1.1685
  287MOL0     C37805   1.035   2.048  10.845 -1.0002  0.0000  0.3190
  287MOL0     C37806   1.169   2.413  11.141 -1.2170 -0.3862  0.5866
  287MOL0     C37807   1.285   2.338  11.176  0.6027  0.1916  1.2530
  287MOL0     C37808   1.357   2.357  11.292 -0.7236 -0.2065 -0.0288
  287MOL0     C37809   1.319   2.462  11.383 -0.5001  0.2344  0.6867
  287MOL0     O37810   1.388   2.487  11.501  0.3480  0.5068  0.7399
  287MOL0     C37811   1.519   2.432  11.509 -0.9458  0.6851  0.0723
  287MOL0     C37812   1.624   2.487  11.419  0.5690  0.2967  0.0375
  287MOL0     C37813   1.612   2.639  11.410 -0.6688 -0.4721 -0.7349
  287MOL0     C37814   1.739   2.713  11.365 -0.8153 -0.1429  0.5196
  287MOL0     C37815   1.786   2.668  11.233  0.4466 -0.5875 -0.9123
  287MOL0     C37816   1.820   2.644  11.114  0.5405 -1.3263 -0.1514
  287MOL0     C37817   1.203   2.541  11.347  0.1534 -0.0561  0.3617
  287MOL0     C37818   1.133   2.524  11.214 -0.5969  0.4190  0.0188
  287MOL0     H37819   0.832   2.281  10.978  0.6598  1.5031 -2.3618
  287MOL0     H37820   0.666   2.129  10.907  1.2439 -0.3034  1.5786
  287MOL0     H37821   0.608   1.772  10.846 -1.8361  3.0261 -1.1307
  287MOL0     H37822   0.778   1.765  10.841 -0.8348 -1.5662  0.2740
  287MOL0     H37823   0.652   1.603  10.699  0.6325  0.4392  0.3712
  287MOL0     H37824   0.796   1.684  10.622 -0.7086  0.6933 -3.0524
  287MOL0     H37825   0.611   1.841  10.524 -2.0271 -0.3060  2.2548
  287MOL0     H37826   0.495   1.718  10.581  0.3414  0.4880  3.4661
  287MOL0     H37827   0.714   1.663  10.369 -0.4066  1.8377 -2.1544
  287MOL0     H37828   0.598   1.548  10.418 -3.6716  1.3649  2.2685
  287MOL0     H37829   0.566   1.691  10.205  2.1965  2.2854  0.0535
  287MOL0     H37830   0.529   1.819  10.316 -0.7395 -0.0417  0.6910
  287MOL0     H37831   0.327   1.695  10.407 -0.7555 -0.0227 -0.2650
  287MOL0     H37832   0.391   1.538  10.330 -2.7924 -1.0852 -4.9659
  287MOL0     H37833   0.318   1.779  10.162 -1.8371  0.3010  0.5014
  287MOL0     H37834   0.349   1.621  10.108 -0.6958 -0.0318 -0.3792
  287MOL0     H37835   0.083   1.720  10.204 -2.9728 -1.2647  2.3525
  287MOL0     H37836   0.155   1.602  10.317 -0.2447  1.1101 -0.3065
  287MOL0     H37837  -0.025   1.624   9.991  0.9425  0.4718  0.3920
  287MOL0     H37838  -0.243   1.467   9.998  1.0615  0.7416  0.3976
  287MOL0     H37839  -0.206   1.281  10.014  2.1206 -0.5125 -0.9126
  287MOL0     H37840  -0.078   1.306   9.796 -0.4296  0.7301 -1.1785
  287MOL0     H37841  -0.152   1.464   9.781  2.8747  0.3591  1.5755
  287MOL0     H37842  -0.280   1.298   9.654  0.8606  2.3371  0.4860
  287MOL0     H37843  -0.270   1.187   9.774 -0.2103 -0.2030  0.5650
  287MOL0     H37844  -0.411   1.430   9.749  1.7525 -0.7684 -1.8841
  287MOL0     H37845  -0.433   1.334   9.914 -2.1388 -2.9430 -0.1603
  287MOL0     H37846  -0.424   1.150   9.991 -1.6480  0.0911  1.2299
  287MOL0     H37847  -0.473   0.919  10.058  0.1587  0.3780 -1.3069
  287MOL0     H37848  -0.488   0.509   9.842 -1.4560  2.7933 -2.4949
  287MOL0     H37849  -0.493   0.272   9.938  0.9319  0.5129  0.1811
  287MOL0     H37850  -0.769   0.193  10.155  0.3395  1.9268  0.4708
  287MOL0     H37851  -0.605   0.213  10.149 -1.2882 -0.2363  1.3207
  287MOL0     H37852  -0.571  -0.041  10.203  0.3739  0.7447  1.9915
  287MOL0     H37853  -0.731  -0.070  10.130 -2.5098  1.3523  0.6149
  287MOL0     H37854  -0.851   0.020  10.317  0.3849 -0.3681  1.3214
  287MOL0     H37855  -0.706   0.110  10.369 -0.7993  0.5587  0.5784
  287MOL0     H37856  -0.772  -0.168  10.444 -2.5789  2.0119  1.5071
  287MOL0     H37857  -0.604  -0.126  10.442 -0.1941 -2.2949  1.7630
  287MOL0     H37858  -0.646   0.067  10.608 -0.8354  0.6259  2.3001
  287MOL0     H37859  -0.718  -0.085  10.663 -4.1280  0.0100  0.2835
  287MOL0     H37860  -0.934  -0.010  10.557 -1.2368  1.6343 -0.0537
  287MOL0     H37861  -0.858   0.142  10.530 -3.0935 -1.3605 -0.3108
  287MOL0     H37862  -0.891  -0.013  10.807 -1.4915 -1.3756 -1.9821
  287MOL0     H37863  -0.830   0.149  10.788 -1.5651 -0.1283  1.6246
  287MOL0     H37864  -1.114   0.120  10.697  0.5260  0.3942 -1.7382
  287MOL0     H37865  -1.019   0.264  10.727  0.7865 -0.7070 -0.7256
  287MOL0     H37866  -0.909   0.252   9.862  2.6488 -2.0603 -0.0476
  287MOL0     H37867  -0.920   0.495   9.840 -1.2090 -2.8079 -1.0387
  287MOL0     H37868  -0.753   0.875   9.737  0.4760 -0.4829  0.8584
  287MOL0     H37869  -0.675   1.090   9.649  1.3552  3.0204  0.9893
  287MOL0     H37870   0.974   1.878  10.737  2.8476 -0.6986  2.4312
  287MOL0     H37871   1.141   2.033  10.833 -1.3149 -0.9792 -1.6350
  287MOL0     H37872   1.303   2.253  11.110 -1.9313  0.7371 -0.2657
  287MOL0     H37873   1.441   2.288  11.297  0.0150  0.7648  1.5163
  287MOL0     H37874   1.517   2.324  11.489  2.2824  0.8411 -1.6772
  287MOL0     H37875   1.551   2.454  11.611  3.5322 -0.2806 -0.9403
  287MOL0     H37876   1.727   2.463  11.447  0.5203  0.6850  0.5577
  287MOL0     H37877   1.610   2.467  11.313 -1.3838  3.0249 -0.3127
  287MOL0     H37878   1.595   2.673  11.513  3.4982 -1.5619  0.5316
  287MOL0     H37879   1.533   2.680  11.347 -1.8467  0.4679  1.2554
  287MOL0     H37880   1.721   2.820  11.355 -3.2891 -0.4653  0.7576
  287MOL0     H37881   1.809   2.702  11.448  2.3552  1.5241 -1.7550
  287MOL0     H37882   1.854   2.643  11.012  3.9948  1.3285  0.7732
  287MOL0     H37883   1.174   2.625  11.410  1.1399 -0.5005  1.4508
  287MOL0     H37884   1.044   2.578  11.183 -1.7275 -1.3784 -0.0087
  288MOL0     O37885   7.500   0.289   1.703  0.5054  0.4868  0.5368
  288MOL0     C37886   7.532   0.225   1.599  0.1230  0.5972 -0.3396
  288MOL0     O37887   7.457   0.210   1.487 -0.5287 -1.5588 -0.2029
  288MOL0     C37888   7.325   0.235   1.503  0.3110  0.8241  0.5894
  288MOL0     C37889   7.280   0.359   1.453 -0.2886  0.1780 -0.0629
  288MOL0     C37890   7.140   0.387   1.471 -0.6364 -0.8437  0.2994
  288MOL0     C37891   7.046   0.298   1.537  0.2714 -0.6380 -0.0856
  288MOL0     O37892   6.929   0.366   1.560  0.4971  0.1746  0.9559
  288MOL0     C37893   6.822   0.284   1.607  0.1345 -0.5005  0.3020
  288MOL0     C37894   6.707   0.373   1.627  0.5328  0.1537 -0.2514
  288MOL0     C37895   6.647   0.433   1.497  0.6108 -0.7219  0.1689
  288MOL0     C37896   6.529   0.535   1.497 -0.4431  0.4605 -0.5153
  288MOL0     C37897   6.522   0.611   1.370  0.3759  0.3259  0.3771
  288MOL0     C37898   6.506   0.535   1.243 -0.2644  1.7605 -0.4475
  288MOL0     C37899   6.484   0.638   1.119  0.2298  0.8064 -0.2370
  288MOL0     C37900   6.444   0.573   0.998  0.6178  0.0357 -0.0194
  288MOL0     N37901   6.328   0.482   0.973  0.9723  0.3820 -0.3221
  288MOL0     C37902   6.240   0.497   0.866  0.5113 -0.2975 -0.3647
  288MOL0     C37903   6.169   0.388   0.864  0.0857  0.4065 -0.9766
  288MOL0     C37904   6.082   0.331   0.770 -0.9344  0.6536 -0.4061
  288MOL0     C37905   6.164   0.242   0.674  0.7195  0.1910 -0.0112
  288MOL0     C37906   6.082   0.210   0.557 -0.3053  0.4392 -0.6189
  288MOL0     C37907   6.165   0.117   0.463  0.2280 -0.9600  0.0627
  288MOL0     O37908   6.278   0.183   0.399 -0.6463 -0.8500  0.3998
  288MOL0     C37909   6.390   0.110   0.382  0.0873  0.6980 -0.4051
  288MOL0     C37910   6.394  -0.024   0.333 -1.1631 -0.1569 -0.2458
  288MOL0     C37911   6.496  -0.118   0.333  0.7912 -0.5890 -0.6378
  288MOL0     C37912   6.621  -0.067   0.376 -0.0946  0.6999 -0.0984
  288MOL0     C37913   6.742  -0.147   0.375  0.1825 -0.0693  0.4162
  288MOL0     O37914   6.858  -0.076   0.349 -0.0349 -0.1937 -0.4010
  288MOL0     C37915   6.963  -0.123   0.278  0.6120  0.3358  0.2787
  288MOL0     C37916   7.012  -0.048   0.167 -0.7793 -0.0227 -0.4634
  288MOL0     C37917   7.125  -0.079   0.088 -0.2867 -0.3944 -0.6980
  288MOL0     C37918   7.191  -0.193   0.134  0.3545  0.1276  0.0719
  288MOL0     O37919   7.314  -0.226   0.088 -0.2322  1.1816  0.0245
  288MOL0     C37920   7.386  -0.164  -0.020  0.1608  0.5836 -0.1307
  288MOL0     C37921   7.521  -0.238  -0.036 -0.4327  0.5569 -0.0866
  288MOL0     C37922   7.585  -0.178  -0.160  0.2842 -0.5340  0.3963
  288MOL0     C37923   7.706  -0.256  -0.213 -0.6673 -0.6169 -0.2690
  288MOL0     C37924   7.832  -0.289  -0.123  1.1830 -0.7401  0.1449
  288MOL0     C37925   7.901  -0.170  -0.057  0.5805  0.5440 -0.3828
  288MOL0     C37926   8.034  -0.216  -0.011 -0.0925 -0.3608  1.4075
  288MOL0     C37927   8.036  -0.347   0.054 -0.3784 -0.6384  0.2520
  288MOL0    Cl37928   7.926  -0.358   0.194  0.1060  0.2520 -0.0879
  288MOL0     C37929   7.142  -0.274   0.236 -0.5366  0.1851  0.2158
  288MOL0     C37930   7.028  -0.239   0.314 -0.4211  0.0912  1.0083
  288MOL0     O37931   6.720  -0.269   0.375 -0.4242  0.3309  1.1653
  288MOL0     C37932   6.628   0.067   0.425 -0.3537  0.0934  0.0260
  288MOL0     C37933   6.514   0.155   0.422  0.0088  0.2272  0.6148
  288MOL0     N37934   6.223   0.296   0.956 -0.1872 -0.5407 -0.5276
  288MOL0     N37935   6.314   0.353   1.022  0.0901 -0.0407 -0.5528
  288MOL0     C37936   7.102   0.184   1.598 -0.0026  0.6276 -0.5563
  288MOL0     C37937   7.237   0.149   1.573 -0.2605 -0.2667  1.0061
  288MOL0     C37938   7.670   0.165   1.597  0.0444 -0.6530  0.1734
  288MOL0     C37939   7.761   0.181   1.707  1.0965 -0.2154  0.1897
  288MOL0     C37940   7.890   0.127   1.678 -0.3735 -1.5064  0.0648
  288MOL0     C37941   7.937   0.066   1.567  0.5809  0.9709 -0.2205
  288MOL0     O37942   8.068   0.018   1.567  0.2546 -0.0399  0.0502
  288MOL0     C37943   8.137   0.064   1.454  0.0159  0.2509  0.6354
  288MOL0     C37944   8.259   0.155   1.494 -0.4951 -0.0788  0.7128
  288MOL0     C37945   8.198   0.297   1.522 -0.7160 -0.1128 -0.0804
  288MOL0     C37946   8.297   0.365   1.615 -0.5491  0.2035  0.3348
  288MOL0     C37947   8.318   0.306   1.757  0.3616  0.3202 -0.1222
  288MOL0     C37948   8.295   0.256   1.864 -0.3755 -0.3477 -1.0021
  288MOL0     C37949   7.848   0.058   1.458 -0.6609 -0.1504 -0.6450
  288MOL0     C37950   7.720   0.107   1.471  0.1403  0.4529 -0.8072
  288MOL0     H37951   7.357   0.425   1.414 -2.0671  0.6227 -3.0440
  288MOL0     H37952   7.116   0.481   1.422 -0.3919 -1.4008 -0.9293
  288MOL0     H37953   6.853   0.244   1.704 -0.2038 -0.1694  0.5461
  288MOL0     H37954   6.800   0.191   1.553  1.8451 -0.7803  0.0303
  288MOL0     H37955   6.750   0.440   1.702 -0.3304  0.4517 -0.0033
  288MOL0     H37956   6.629   0.319   1.681 -1.2847  1.6248 -1.2397
  288MOL0     H37957   6.608   0.353   1.434 -3.3219 -0.9370  2.5480
  288MOL0     H37958   6.728   0.482   1.441 -0.5021  1.9977  0.7595
  288MOL0     H37959   6.434   0.489   1.528  0.2542 -1.0385 -0.4736
  288MOL0     H37960   6.561   0.613   1.567  2.3692  0.9699 -2.2320
  288MOL0     H37961   6.613   0.671   1.357 -0.7728  2.6542  2.3576
  288MOL0     H37962   6.434   0.675   1.380  0.6789  0.6096  1.3041
  288MOL0     H37963   6.421   0.468   1.253  1.2619 -0.1244  0.6241
  288MOL0     H37964   6.589   0.464   1.234 -0.7200  0.9400  1.4764
  288MOL0     H37965   6.408   0.715   1.136  0.2077  0.7052  0.1409
  288MOL0     H37966   6.572   0.696   1.089  1.4750 -0.3869  0.9242
  288MOL0     H37967   6.533   0.530   0.951  1.6609  1.6569  0.3470
  288MOL0     H37968   6.415   0.651   0.927  0.0531 -3.4751 -4.0008
  288MOL0     H37969   6.241   0.582   0.799  2.4777  3.6576  4.0356
  288MOL0     H37970   6.020   0.397   0.709 -3.4008 -1.2049 -0.0631
  288MOL0     H37971   6.013   0.261   0.818 -0.6361  0.2170 -0.5974
  288MOL0     H37972   6.211   0.155   0.721 -0.4700 -0.4539  0.0202
  288MOL0     H37973   6.243   0.309   0.638  2.0234 -1.5219 -0.4474
  288MOL0     H37974   5.990   0.159   0.589  0.0776 -0.3587 -0.7613
  288MOL0     H37975   6.066   0.297   0.493  0.3497  1.6878  0.8591
  288MOL0     H37976   6.100   0.087   0.380  2.8271 -1.6425 -1.8559
  288MOL0     H37977   6.196   0.025   0.514  2.4116 -2.4617 -3.5538
  288MOL0     H37978   6.301  -0.063   0.295 -0.3012 -1.9218 -0.6300
  288MOL0     H37979   6.488  -0.218   0.291  0.6352 -0.5441 -0.7183
  288MOL0     H37980   6.948   0.037   0.147  0.4368  1.4689  1.5669
  288MOL0     H37981   7.149  -0.012   0.006 -1.5592  3.4073  1.7933
  288MOL0     H37982   7.397  -0.059   0.007  0.9372  0.3783  0.3738
  288MOL0     H37983   7.324  -0.182  -0.108 -0.3539 -2.7885  0.7890
  288MOL0     H37984   7.503  -0.345  -0.031  1.0930  0.3116  0.9551
  288MOL0     H37985   7.577  -0.219   0.056 -0.9876  0.9861  0.1694
  288MOL0     H37986   7.618  -0.075  -0.142 -2.8997  1.1915 -2.3736
  288MOL0     H37987   7.509  -0.168  -0.238  3.7248  1.8151 -3.0384
  288MOL0     H37988   7.670  -0.346  -0.265  0.9628 -1.8853  0.7138
  288MOL0     H37989   7.745  -0.202  -0.299  0.7243  0.9821  1.2814
  288MOL0     H37990   7.913  -0.334  -0.180 -0.3512  0.3048 -3.1074
  288MOL0     H37991   7.798  -0.365  -0.052 -0.9036  1.0524  1.1925
  288MOL0     H37992   7.835  -0.132   0.022 -1.6764 -1.2511 -1.2716
  288MOL0     H37993   7.922  -0.093  -0.131  4.8362 -3.3122 -3.8104
  288MOL0     H37994   8.098  -0.226  -0.099  0.2622  2.9414  1.1796
  288MOL0     H37995   8.067  -0.146   0.066 -1.1911  0.7097  0.9317
  288MOL0     H37996   8.133  -0.355   0.104 -0.1568  1.6229  0.3163
  288MOL0     H37997   8.021  -0.431  -0.014 -0.4590  1.1822 -2.1433
  288MOL0     H37998   7.188  -0.363   0.276 -1.4301  0.5721  2.1953
  288MOL0     H37999   6.997  -0.294   0.403  1.7414  1.1851  2.5291
  288MOL0     H38000   6.723   0.103   0.465  0.3565 -1.5482 -0.1298
  288MOL0     H38001   6.528   0.260   0.446  0.0016  0.2589  0.4798
  288MOL0     H38002   7.041   0.123   1.664 -0.8464  2.1057  0.0623
  288MOL0     H38003   7.291   0.069   1.623  2.6788  1.1178  0.3149
  288MOL0     H38004   7.740   0.217   1.807  1.2904 -1.3043  0.6401
  288MOL0     H38005   7.961   0.139   1.760 -0.9170  2.3754  0.1384
  288MOL0     H38006   8.086   0.123   1.377 -2.1608 -2.5772 -0.2281
  288MOL0     H38007   8.156  -0.034   1.410 -2.5335  0.3691 -0.9084
  288MOL0     H38008   8.314   0.102   1.573  2.0764  2.6981  0.9734
  288MOL0     H38009   8.332   0.176   1.415 -0.2680  0.7083  1.1221
  288MOL0     H38010   8.103   0.306   1.576  0.5214 -1.4587  2.5008
  288MOL0     H38011   8.190   0.337   1.420  1.5881 -0.7811 -0.5732
  288MOL0     H38012   8.395   0.357   1.567 -1.4291  2.0300 -2.0060
  288MOL0     H38013   8.277   0.471   1.633  2.3791  0.3624  3.5399
  288MOL0     H38014   8.297   0.205   1.958  1.9247 -1.5624 -1.6171
  288MOL0     H38015   7.880   0.028   1.359  0.0117  0.3692 -0.5864
  288MOL0     H38016   7.658   0.101   1.382 -3.0909 -0.5960  1.3137
  289MOL0     O38017   8.893   5.147   8.427 -0.3858  0.2646 -0.9071
  289MOL0     C38018   8.914   5.161   8.304 -0.7016  0.1927 -0.5102
  289MOL0     O38019   8.996   5.258   8.248  0.1530 -0.3178 -0.0677
  289MOL0     C38020   9.037   5.372   8.316  0.7941  0.3150  0.4819
  289MOL0     C38021   9.048   5.487   8.237 -0.1633  0.3687  0.5841
  289MOL0     C38022   9.094   5.608   8.291 -0.1267  0.0267  0.1856
  289MOL0     C38023   9.126   5.623   8.429 -0.4155 -0.5504 -0.1864
  289MOL0     O38024   9.161   5.743   8.482  0.4396  0.1001 -0.5144
  289MOL0     C38025   9.254   5.831   8.412  0.4866  0.2519  0.5041
  289MOL0     C38026   9.266   5.970   8.489  0.2559  0.1477 -1.0801
  289MOL0     C38027   9.317   5.974   8.639 -0.1036  0.2708 -0.4283
  289MOL0     C38028   9.218   5.910   8.742 -0.0849  0.1885  0.3143
  289MOL0     C38029   9.256   5.956   8.883  1.3125  0.3022  0.3957
  289MOL0     C38030   9.253   6.104   8.906  0.6964 -0.5033  0.3933
  289MOL0     C38031   9.214   6.143   9.051 -0.3726  0.5250 -0.1354
  289MOL0     C38032   9.200   6.302   9.060 -0.7247 -0.1741  0.4550
  289MOL0     N38033   9.321   6.372   9.035  0.2660 -0.4108  0.3816
  289MOL0     C38034   9.411   6.410   9.136  0.9850  0.2810  0.4757
  289MOL0     C38035   9.494   6.494   9.068  0.0533  0.5039 -0.1706
  289MOL0     C38036   9.596   6.572   9.133  0.5090 -0.5333  0.4838
  289MOL0     C38037   9.545   6.699   9.214  0.3153  0.4463 -0.7449
  289MOL0     C38038   9.446   6.799   9.155  0.0789 -0.8484  0.6736
  289MOL0     C38039   9.471   6.827   9.010 -0.7849  0.0651  0.1866
  289MOL0     O38040   9.392   6.928   8.955  0.9612 -0.2456  0.2771
  289MOL0     C38041   9.269   6.897   8.904  0.4465 -0.3936 -0.1233
  289MOL0     C38042   9.222   6.774   8.860  0.3386  0.5594  0.6927
  289MOL0     C38043   9.104   6.756   8.803  0.2243  0.3350 -0.0438
  289MOL0     C38044   9.013   6.864   8.793  0.6157  0.5970  0.7852
  289MOL0     C38045   8.885   6.837   8.737 -0.1447 -0.1258  0.1274
  289MOL0     O38046   8.867   6.704   8.693  0.1791 -1.2712 -0.2871
  289MOL0     C38047   8.746   6.666   8.646  0.2334 -0.1671  0.1510
  289MOL0     C38048   8.680   6.734   8.542  0.2292 -0.2649  0.7324
  289MOL0     C38049   8.563   6.691   8.492  0.5312 -0.5991  0.7195
  289MOL0     C38050   8.513   6.565   8.524 -0.2302 -0.6334 -0.2388
  289MOL0     O38051   8.405   6.511   8.459 -0.2749 -0.3084 -0.8785
  289MOL0     C38052   8.317   6.583   8.373  1.1072  0.0164 -0.3698
  289MOL0     C38053   8.220   6.479   8.311  0.2318  0.0660  0.1108
  289MOL0     C38054   8.112   6.542   8.216  0.2908 -0.1039  1.0517
  289MOL0     C38055   8.179   6.619   8.098  0.3997 -0.7787 -0.1092
  289MOL0     C38056   8.066   6.668   7.998 -0.4752  0.4799 -0.0221
  289MOL0     C38057   8.051   6.816   8.028 -0.0352  0.1627  0.1795
  289MOL0     C38058   7.981   6.890   7.914 -0.4167  0.2451  0.1722
  289MOL0     C38059   7.980   7.042   7.946  0.4987 -0.5400  0.1069
  289MOL0    Cl38060   7.811   7.098   7.977 -0.1174  0.0860 -0.1029
  289MOL0     C38061   8.578   6.496   8.630 -1.0737  0.2208  0.9477
  289MOL0     C38062   8.696   6.549   8.691  0.3844  0.9511 -0.4224
  289MOL0     O38063   8.811   6.934   8.719 -0.0234  0.0180 -0.3623
  289MOL0     C38064   9.052   6.989   8.833 -0.3623  0.0492  0.2303
  289MOL0     C38065   9.186   7.004   8.886  0.0481 -0.4772  0.1924
  289MOL0     N38066   9.459   6.507   8.933 -0.3312  0.2625  0.8677
  289MOL0     N38067   9.360   6.429   8.915  0.5962  0.2183 -0.0657
  289MOL0     C38068   9.114   5.508   8.508 -0.6537  0.3580  0.1273
  289MOL0     C38069   9.091   5.381   8.454  0.7102  0.2169 -0.2915
  289MOL0     C38070   8.861   5.057   8.209  0.3861  0.4194 -0.2604
  289MOL0     C38071   8.747   4.984   8.251 -0.5864  0.4207  0.2465
  289MOL0     C38072   8.669   4.915   8.161 -0.4308 -0.7609  0.1400
  289MOL0     C38073   8.708   4.917   8.026  0.5579 -0.3967  0.1463
  289MOL0     O38074   8.629   4.856   7.932 -0.7937 -0.1492 -0.4728
  289MOL0     C38075   8.525   4.939   7.877 -0.1664 -0.7991  0.8672
  289MOL0     C38076   8.382   4.900   7.931 -0.6305  0.7096  0.5114
  289MOL0     C38077   8.280   4.990   7.865  0.4244  0.2985 -0.7651
  289MOL0     C38078   8.138   4.940   7.901  0.3499 -0.2911  0.0346
  289MOL0     C38079   8.108   4.998   8.034  0.3264  0.6638  0.4387
  289MOL0     C38080   8.087   5.067   8.128 -0.5741  0.7998 -0.5366
  289MOL0     C38081   8.824   4.995   7.981 -0.0750  0.6997 -0.2799
  289MOL0     C38082   8.902   5.061   8.071  0.2330  0.2648 -0.7231
  289MOL0     H38083   9.042   5.475   8.129 -2.2974  0.6052  0.6243
  289MOL0     H38084   9.098   5.690   8.220 -0.3770 -1.4480 -1.6382
  289MOL0     H38085   9.210   5.842   8.313 -1.0517  4.1930  1.4198
  289MOL0     H38086   9.340   5.764   8.406 -2.3486 -3.6245 -1.1321
  289MOL0     H38087   9.168   6.019   8.483  0.7911  1.1721 -1.8933
  289MOL0     H38088   9.334   6.025   8.422 -2.4544  2.6656 -2.0071
  289MOL0     H38089   9.339   6.080   8.651  1.2207  0.0809 -0.9346
  289MOL0     H38090   9.413   5.923   8.657 -0.2684  1.0540  3.5109
  289MOL0     H38091   9.118   5.941   8.711 -0.4400 -1.8168 -0.7309
  289MOL0     H38092   9.218   5.801   8.730  2.4875 -0.3178  3.4851
  289MOL0     H38093   9.353   5.919   8.921  1.0488 -0.0352  0.7562
  289MOL0     H38094   9.182   5.905   8.946 -0.7281  0.4909 -1.7550
  289MOL0     H38095   9.178   6.151   8.842 -0.3514 -1.0527  1.1894
  289MOL0     H38096   9.348   6.150   8.877 -0.7912  0.3930 -3.8256
  289MOL0     H38097   9.116   6.108   9.086  1.4921 -2.1818  3.0018
  289MOL0     H38098   9.281   6.112   9.132 -0.8834 -0.3854 -0.0462
  289MOL0     H38099   9.148   6.321   9.155 -2.1037 -0.5093 -0.2093
  289MOL0     H38100   9.138   6.325   8.973  0.6932 -3.2705 -1.5227
  289MOL0     H38101   9.406   6.393   9.243 -1.5635  2.9868  0.9149
  289MOL0     H38102   9.655   6.608   9.048  0.3206  1.2347  1.0505
  289MOL0     H38103   9.648   6.504   9.200 -0.3557 -1.8043 -0.0973
  289MOL0     H38104   9.632   6.758   9.243  0.6155  0.6599 -2.0202
  289MOL0     H38105   9.499   6.665   9.308  0.1500  1.0221 -0.6133
  289MOL0     H38106   9.344   6.761   9.151 -0.1498 -0.3989  1.7459
  289MOL0     H38107   9.453   6.889   9.217  1.5644 -1.7566  1.8972
  289MOL0     H38108   9.469   6.736   8.948 -1.1705  0.7273 -0.8062
  289MOL0     H38109   9.574   6.865   9.004 -0.6243 -0.4429 -0.3993
  289MOL0     H38110   9.290   6.690   8.863  0.3787  0.4736 -1.3466
  289MOL0     H38111   9.076   6.659   8.763  0.8101 -0.4613  1.4320
  289MOL0     H38112   8.730   6.817   8.493 -1.0215 -0.3883 -0.8489
  289MOL0     H38113   8.528   6.755   8.412 -0.1735  1.8572  2.8480
  289MOL0     H38114   8.373   6.628   8.290 -1.8940  1.0566 -1.9824
  289MOL0     H38115   8.245   6.659   8.405 -1.8774 -2.3276 -1.0047
  289MOL0     H38116   8.161   6.423   8.384  0.9869 -2.8870 -1.3877
  289MOL0     H38117   8.279   6.409   8.253  1.4908  1.0598  0.1470
  289MOL0     H38118   8.048   6.612   8.272 -2.5099  0.9150 -2.9111
  289MOL0     H38119   8.053   6.459   8.175  1.6516 -1.8758  2.5320
  289MOL0     H38120   8.235   6.706   8.135 -1.0638  1.1758 -2.2230
  289MOL0     H38121   8.243   6.551   8.041 -0.8978 -2.3266  0.2110
  289MOL0     H38122   7.968   6.620   8.007 -0.7668  1.3184  1.5720
  289MOL0     H38123   8.096   6.661   7.893  1.9309  0.7824  0.5995
  289MOL0     H38124   8.149   6.860   8.046 -0.8273  1.9056  0.3883
  289MOL0     H38125   8.002   6.807   8.126  3.4269 -3.0906  1.8617
  289MOL0     H38126   8.017   6.876   7.811 -1.5795 -1.0878 -0.0937
  289MOL0     H38127   7.875   6.865   7.910 -0.0297 -2.8917  3.6161
  289MOL0     H38128   8.032   7.093   7.864 -0.1872 -2.5946 -1.7069
  289MOL0     H38129   8.038   7.071   8.034 -2.1692  3.2674  0.8480
  289MOL0     H38130   8.538   6.396   8.628  0.1858 -0.5347 -4.5568
  289MOL0     H38131   8.751   6.499   8.771  0.7413  0.7409 -0.7927
  289MOL0     H38132   8.994   7.075   8.801 -1.6725 -1.4509 -1.5937
  289MOL0     H38133   9.234   7.100   8.901  1.2357 -0.9982 -0.1198
  289MOL0     H38134   9.143   5.516   8.613  1.7640 -0.9487 -0.3668
  289MOL0     H38135   9.103   5.297   8.522 -4.5888  0.9354  2.0438
  289MOL0     H38136   8.723   4.992   8.356  0.9588  2.4487  0.5042
  289MOL0     H38137   8.575   4.866   8.184 -1.5690  1.5520  0.7092
  289MOL0     H38138   8.515   4.920   7.770  4.0675 -0.1074  0.1606
  289MOL0     H38139   8.541   5.047   7.883 -0.5735 -0.5955 -1.0452
  289MOL0     H38140   8.374   4.795   7.901  2.2914  1.3426 -3.3294
  289MOL0     H38141   8.376   4.916   8.039 -0.2078  0.9917  0.4959
  289MOL0     H38142   8.278   4.990   7.755 -0.0269 -0.7828 -0.7757
  289MOL0     H38143   8.300   5.091   7.899 -0.3682 -0.5377  2.5391
  289MOL0     H38144   8.080   4.980   7.817 -0.3127 -0.3128  0.4743
  289MOL0     H38145   8.141   4.831   7.895  1.3985 -0.6000  3.6474
  289MOL0     H38146   8.054   5.124   8.212 -0.2928  0.6647 -0.3340
  289MOL0     H38147   8.857   5.007   7.878  0.3939  0.9371 -0.1023
  289MOL0     H38148   8.994   5.117   8.056  1.0636 -0.6718  0.6976
  290MOL0     O38149  10.147   7.163   9.822  0.3208  0.4732 -0.5090
  290MOL0     C38150  10.038   7.156   9.774  0.2857  0.3063 -0.2190
  290MOL0     O38151  10.009   7.144   9.645 -0.1008 -0.1606 -0.2715
  290MOL0     C38152  10.100   7.166   9.544 -0.2899  0.1282  0.5564
  290MOL0     C38153  10.206   7.267   9.558 -0.3283  0.8406  0.4921
  290MOL0     C38154  10.290   7.288   9.447  0.8209 -0.3905 -0.4638
  290MOL0     C38155  10.273   7.213   9.330  0.5210  0.2496  0.1502
  290MOL0     O38156  10.368   7.233   9.229  0.0148  0.4405 -0.5849
  290MOL0     C38157  10.333   7.195   9.095  0.6709 -0.2185  0.3729
  290MOL0     C38158  10.433   7.281   9.017 -0.0975 -0.1137  0.5187
  290MOL0     C38159  10.462   7.230   8.878 -0.5880 -0.5098  0.3040
  290MOL0     C38160  10.568   7.312   8.805 -0.4993 -0.0964  0.0678
  290MOL0     C38161  10.706   7.250   8.820 -0.1795 -0.9297  0.6623
  290MOL0     C38162  10.731   7.133   8.740 -0.0282  0.4140  0.2353
  290MOL0     C38163  10.885   7.096   8.750 -0.2295 -1.3127 -0.4057
  290MOL0     C38164  10.910   6.972   8.658 -0.1503  0.8169 -0.5168
  290MOL0     N38165  10.893   6.986   8.510  0.3482 -0.0113 -0.4955
  290MOL0     C38166  10.782   6.935   8.443 -0.2273  0.1372  0.1927
  290MOL0     C38167  10.786   7.002   8.323  0.2885  0.5659  0.2822
  290MOL0     C38168  10.689   6.971   8.216  0.6524 -0.8527  0.9790
  290MOL0     C38169  10.585   7.076   8.218  0.3677 -0.1321  0.3303
  290MOL0     C38170  10.623   7.203   8.142  0.4274 -0.9364 -0.4664
  290MOL0     C38171  10.498   7.283   8.122  0.0373  0.0974  0.5907
  290MOL0     O38172  10.505   7.386   8.226  1.1012 -0.3719  0.1058
  290MOL0     C38173  10.559   7.512   8.197 -0.3556 -1.0782  1.2443
  290MOL0     C38174  10.548   7.603   8.301 -0.6106 -0.0020  0.4173
  290MOL0     C38175  10.627   7.717   8.304 -0.1271 -0.6578 -0.5166
  290MOL0     C38176  10.718   7.753   8.202 -0.3765  0.2372  0.0309
  290MOL0     C38177  10.797   7.875   8.221 -0.2564 -0.7335 -0.1249
  290MOL0     O38178  10.915   7.891   8.141 -0.3318 -0.6108  0.2972
  290MOL0     C38179  11.003   7.982   8.177 -0.9912  0.7420  0.4225
  290MOL0     C38180  11.024   8.100   8.112  0.6131  0.2390 -0.3876
  290MOL0     C38181  11.120   8.184   8.162  0.2277  0.4898 -0.4812
  290MOL0     C38182  11.201   8.161   8.282 -0.4281  0.1528  0.0553
  290MOL0     O38183  11.295   8.250   8.337  0.0491 -0.5063 -0.1080
  290MOL0     C38184  11.360   8.216   8.456 -0.1951 -0.1601  0.5951
  290MOL0     C38185  11.453   8.329   8.514  0.6584  0.0418  0.7443
  290MOL0     C38186  11.550   8.290   8.622 -0.7449 -0.2596  0.5064
  290MOL0     C38187  11.496   8.324   8.762  0.2604  1.0725  0.7373
  290MOL0     C38188  11.497   8.474   8.793  0.5616  0.2680  0.0090
  290MOL0     C38189  11.626   8.514   8.869 -0.3071  0.5355  1.1815
  290MOL0     C38190  11.637   8.662   8.891 -0.1219 -0.7343  0.1019
  290MOL0     C38191  11.785   8.717   8.865 -0.3541 -0.6539  0.8230
  290MOL0    Cl38192  11.906   8.637   8.979  0.0148  0.0637 -0.3675
  290MOL0     C38193  11.183   8.035   8.337  0.2490  0.1708 -0.0724
  290MOL0     C38194  11.089   7.944   8.282  0.1378 -0.5873  0.6416
  290MOL0     O38195  10.760   7.952   8.310  0.3405  0.4023 -0.2055
  290MOL0     C38196  10.705   7.683   8.084  0.0321  0.5068  1.1838
  290MOL0     C38197  10.640   7.554   8.081 -0.5356 -1.2126  0.0431
  290MOL0     N38198  10.898   7.085   8.320  0.3056 -1.0399 -0.1136
  290MOL0     N38199  10.965   7.065   8.431  1.1286  0.1675 -0.2074
  290MOL0     C38200  10.181   7.100   9.330  0.8626 -0.2435  0.2013
  290MOL0     C38201  10.090   7.082   9.433  0.1438  1.1186 -1.3052
  290MOL0     C38202   9.920   7.132   9.866  0.7312  0.6269 -0.4325
  290MOL0     C38203   9.904   7.194   9.998 -0.0138  0.2566  0.3102
  290MOL0     C38204   9.780   7.189  10.069  0.5322  0.4904 -0.0479
  290MOL0     C38205   9.683   7.099  10.027  0.6575  0.0249 -0.3688
  290MOL0     O38206   9.559   7.111  10.105  0.6116  0.0227  0.0330
  290MOL0     C38207   9.448   7.045  10.040 -0.1063 -0.2145  0.2718
  290MOL0     C38208   9.316   7.097  10.094 -0.5724  0.6124 -0.2325
  290MOL0     C38209   9.319   7.179  10.223 -0.3607 -0.0686 -0.1752
  290MOL0     C38210   9.385   7.108  10.351  1.1178  0.4226 -0.8945
  290MOL0     C38211   9.287   7.105  10.459  0.9349  0.6159 -0.1398
  290MOL0     C38212   9.194   7.096  10.536  0.4213  0.9322  0.0894
  290MOL0     C38213   9.707   7.025   9.914  0.6147 -0.5192  0.1188
  290MOL0     C38214   9.818   7.043   9.832 -0.5233 -0.2466  0.1784
  290MOL0     H38215  10.221   7.335   9.641  2.3675  4.1411 -2.3721
  290MOL0     H38216  10.363   7.367   9.455 -1.1731  1.5509 -0.6278
  290MOL0     H38217  10.230   7.219   9.068  0.0772  0.0557  2.6530
  290MOL0     H38218  10.343   7.087   9.082 -0.9605 -0.0715 -3.1086
  290MOL0     H38219  10.529   7.286   9.069  0.7987  0.1250 -1.0813
  290MOL0     H38220  10.388   7.379   8.999 -3.4982 -2.0019 -2.6959
  290MOL0     H38221  10.374   7.253   8.818  1.5759  1.6483 -2.3526
  290MOL0     H38222  10.480   7.123   8.864 -0.8952 -0.7294  1.4892
  290MOL0     H38223  10.538   7.313   8.700  1.8277 -1.3132 -0.6776
  290MOL0     H38224  10.564   7.413   8.846  1.5929  1.4848 -3.1802
  290MOL0     H38225  10.722   7.222   8.925  0.5732 -1.5186  0.3981
  290MOL0     H38226  10.786   7.317   8.787 -2.8938  0.8895 -2.9933
  290MOL0     H38227  10.720   7.165   8.636  0.7853  3.2228  0.9309
  290MOL0     H38228  10.649   7.061   8.751 -0.8017  1.6427  3.3552
  290MOL0     H38229  10.949   7.181   8.726 -2.0081  0.7694  1.7469
  290MOL0     H38230  10.899   7.058   8.851 -2.0126 -2.9004 -0.6966
  290MOL0     H38231  10.838   6.895   8.686 -0.9992  1.4868 -0.8164
  290MOL0     H38232  11.005   6.920   8.676 -0.4640  0.5134  0.2763
  290MOL0     H38233  10.720   6.859   8.490  3.0859 -0.3376  4.3941
  290MOL0     H38234  10.644   6.872   8.231  0.8272 -1.6751 -2.7844
  290MOL0     H38235  10.729   6.961   8.114 -2.2810  1.9994 -0.6380
  290MOL0     H38236  10.557   7.116   8.315  3.1349  2.2216  0.3196
  290MOL0     H38237  10.491   7.032   8.185 -0.3087  2.5810 -1.7619
  290MOL0     H38238  10.701   7.249   8.203  1.1046 -2.8160  0.1598
  290MOL0     H38239  10.665   7.178   8.044  3.7376 -2.4714  1.1787
  290MOL0     H38240  10.410   7.217   8.127  0.1085 -0.2091 -1.4061
  290MOL0     H38241  10.488   7.334   8.026 -3.7259  0.4676  0.9990
  290MOL0     H38242  10.482   7.587   8.386 -1.5324  1.0727 -0.0640
  290MOL0     H38243  10.622   7.775   8.396  1.4258  0.1684 -0.9107
  290MOL0     H38244  10.955   8.133   8.035 -0.8599  2.8138  1.8774
  290MOL0     H38245  11.138   8.279   8.111  1.1441  0.1829 -0.7541
  290MOL0     H38246  11.421   8.125   8.447 -0.5882 -0.7380  3.0079
  290MOL0     H38247  11.287   8.199   8.536  0.8839  0.6706  1.7890
  290MOL0     H38248  11.387   8.405   8.556  1.9438  1.4480  0.3158
  290MOL0     H38249  11.507   8.375   8.431 -0.7453  0.8637  0.2613
  290MOL0     H38250  11.642   8.349   8.623  1.8957 -3.8708 -2.0546
  290MOL0     H38251  11.582   8.186   8.617 -2.3037 -0.7906  0.9282
  290MOL0     H38252  11.392   8.290   8.762  0.8720 -0.8705  0.9291
  290MOL0     H38253  11.554   8.271   8.837 -0.1542 -1.4000 -0.5813
  290MOL0     H38254  11.412   8.487   8.860  0.1353 -3.5694  0.4908
  290MOL0     H38255  11.473   8.537   8.707 -0.6235 -3.0011 -2.2782
  290MOL0     H38256  11.713   8.488   8.808 -1.7868 -1.7783 -0.0694
  290MOL0     H38257  11.615   8.469   8.968 -2.5903 -1.3111  0.1669
  290MOL0     H38258  11.574   8.722   8.825  1.7320  1.7815  0.4598
  290MOL0     H38259  11.600   8.683   8.992  0.3767 -2.7619  0.7643
  290MOL0     H38260  11.782   8.826   8.870 -5.0592 -0.6152  1.6206
  290MOL0     H38261  11.811   8.701   8.760 -2.5862  0.9585 -0.0719
  290MOL0     H38262  11.263   8.011   8.406  1.2685  3.0550 -0.1291
  290MOL0     H38263  11.089   7.846   8.330  4.6965 -1.1926 -0.1693
  290MOL0     H38264  10.764   7.709   7.996 -1.1068 -2.7215 -0.7306
  290MOL0     H38265  10.652   7.482   8.000 -2.9477 -3.3267  1.4210
  290MOL0     H38266  10.181   7.019   9.257  4.7403 -1.3896  1.2640
  290MOL0     H38267  10.023   6.997   9.439  2.8878 -1.1627 -1.0497
  290MOL0     H38268   9.988   7.256  10.027  2.0032 -1.0359 -2.3762
  290MOL0     H38269   9.757   7.235  10.165 -4.0534 -1.4966  0.0666
  290MOL0     H38270   9.459   6.938  10.058  1.9197  0.1422  1.4115
  290MOL0     H38271   9.450   7.060   9.931 -0.6076  1.3814  0.4516
  290MOL0     H38272   9.278   7.159  10.013  1.7451  0.3895 -1.5931
  290MOL0     H38273   9.248   7.013  10.111 -0.0645  0.2202 -0.1298
  290MOL0     H38274   9.217   7.207  10.252 -0.9073 -1.6747 -0.4335
  290MOL0     H38275   9.373   7.272  10.207  0.4678 -0.2328  1.3951
  290MOL0     H38276   9.406   7.001  10.337 -2.1391 -1.0253  2.9879
  290MOL0     H38277   9.477   7.162  10.373 -0.9452  4.5754 -1.5726
  290MOL0     H38278   9.122   7.101  10.615  1.2291  0.2296  0.8811
  290MOL0     H38279   9.635   6.953   9.878 -0.0092 -0.2685  0.8452
  290MOL0     H38280   9.821   6.986   9.740 -2.6374 -1.1294  0.6072
  291MOL0     O38281   1.674   1.903   1.017  0.2388  0.3783  0.4522
  291MOL0     C38282   1.794   1.933   1.001 -0.0925 -0.2058 -0.1102
  291MOL0     O38283   1.847   2.055   0.957  0.1169  0.6446 -0.0830
  291MOL0     C38284   1.763   2.164   0.942 -0.5118 -0.0123 -0.0451
  291MOL0     C38285   1.682   2.195   0.830  0.1131 -0.0418  0.5473
  291MOL0     C38286   1.610   2.313   0.839 -0.0479 -0.9565  0.6344
  291MOL0     C38287   1.616   2.390   0.958  0.3862  0.3036  0.7069
  291MOL0     O38288   1.555   2.514   0.956 -0.2485 -0.6230  0.3945
  291MOL0     C38289   1.588   2.625   1.042  0.0042  0.0057  0.0360
  291MOL0     C38290   1.564   2.770   0.992 -0.0508  0.1886 -0.6387
  291MOL0     C38291   1.614   2.780   0.851  0.7996 -0.1303 -0.3987
  291MOL0     C38292   1.601   2.922   0.797  0.1703 -0.4476 -0.3680
  291MOL0     C38293   1.675   2.940   0.654  0.6961 -0.4114 -0.7628
  291MOL0     C38294   1.605   2.862   0.543  0.0202  0.6750  0.4336
  291MOL0     C38295   1.450   2.882   0.535  0.5022  0.7223 -0.1551
  291MOL0     C38296   1.398   3.018   0.532  0.7236  0.4366 -0.6190
  291MOL0     N38297   1.410   3.087   0.406 -0.4388 -0.3709 -1.0432
  291MOL0     C38298   1.520   3.155   0.355 -0.3784 -0.8869 -0.6985
  291MOL0     C38299   1.508   3.169   0.221 -1.0120 -0.6220  0.2629
  291MOL0     C38300   1.591   3.243   0.114 -0.9397  0.2601  0.2157
  291MOL0     C38301   1.593   3.155  -0.010 -0.5269  0.1016  0.3609
  291MOL0     C38302   1.689   3.219  -0.123  0.2682  0.5069 -0.2915
  291MOL0     C38303   1.835   3.204  -0.093 -0.4709  0.7107  0.8740
  291MOL0     O38304   1.876   3.061  -0.098 -0.8366 -0.2584  0.0377
  291MOL0     C38305   1.920   3.007  -0.216  0.1403 -0.6354  0.6654
  291MOL0     C38306   1.880   3.053  -0.343  0.0330 -0.9194 -0.1716
  291MOL0     C38307   1.921   2.998  -0.461  0.0242  0.4429 -0.4022
  291MOL0     C38308   2.003   2.887  -0.463 -0.0419 -0.0963 -0.1684
  291MOL0     C38309   2.036   2.824  -0.593  0.2570  0.2874 -0.6848
  291MOL0     O38310   2.115   2.714  -0.574 -0.7682  0.6027 -0.1307
  291MOL0     C38311   2.212   2.671  -0.654 -0.0227 -0.2654  0.3836
  291MOL0     C38312   2.250   2.730  -0.786 -0.0914  0.6244  0.1174
  291MOL0     C38313   2.360   2.677  -0.859  1.0409 -0.6201  0.2643
  291MOL0     C38314   2.426   2.559  -0.822 -0.3531  0.2843  1.0606
  291MOL0     O38315   2.506   2.490  -0.907  0.6927 -0.2179  0.2864
  291MOL0     C38316   2.586   2.381  -0.854 -0.4833  0.3737 -0.0936
  291MOL0     C38317   2.689   2.342  -0.958 -0.6289  0.5664  0.1776
  291MOL0     C38318   2.630   2.283  -1.082 -0.4579 -0.4399  0.7937
  291MOL0     C38319   2.729   2.217  -1.191 -0.0950  0.6877 -0.4253
  291MOL0     C38320   2.646   2.196  -1.324  0.5914  1.0382 -0.4964
  291MOL0     C38321   2.731   2.113  -1.416 -0.4233  0.7876 -0.7745
  291MOL0     C38322   2.731   1.963  -1.376 -0.2674  0.2060 -0.3956
  291MOL0     C38323   2.853   1.891  -1.432 -0.0879 -0.4778  0.2598
  291MOL0    Cl38324   2.831   1.718  -1.402 -0.1062  0.2831  0.0115
  291MOL0     C38325   2.382   2.508  -0.697 -0.2236  0.9414 -0.0473
  291MOL0     C38326   2.290   2.569  -0.614  0.7973  0.1711 -0.4733
  291MOL0     O38327   1.984   2.862  -0.695  0.5570  0.1246 -0.0151
  291MOL0     C38328   2.057   2.843  -0.337 -0.9743  0.4946 -0.1337
  291MOL0     C38329   2.017   2.905  -0.213 -0.3622  0.4190  0.4562
  291MOL0     N38330   1.380   3.124   0.193 -0.3589  0.1875  0.2569
  291MOL0     N38331   1.326   3.075   0.298 -0.2362  0.7318  0.7175
  291MOL0     C38332   1.692   2.358   1.070 -0.5954 -0.0389 -0.0889
  291MOL0     C38333   1.771   2.245   1.050 -0.3506  0.1521  0.0756
  291MOL0     C38334   1.894   1.831   1.044 -0.4615 -0.1543  0.5178
  291MOL0     C38335   2.032   1.853   1.011  0.4941  0.5453 -0.2531
  291MOL0     C38336   2.130   1.755   1.051  0.0655  0.0614 -1.1132
  291MOL0     C38337   2.090   1.638   1.125 -0.1005 -0.3311  0.1783
  291MOL0     O38338   2.174   1.543   1.175 -0.1749 -0.5223 -0.5419
  291MOL0     C38339   2.306   1.535   1.143 -0.0844  0.0052  0.1588
  291MOL0     C38340   2.359   1.404   1.196 -0.2551 -0.0444  0.1194
  291MOL0     C38341   2.335   1.294   1.086  0.1956 -0.8124 -0.1668
  291MOL0     C38342   2.422   1.162   1.090 -0.2681  0.1397 -0.7301
  291MOL0     C38343   2.386   1.076   0.978  1.4606 -0.2937  0.6016
  291MOL0     C38344   2.346   0.998   0.893 -0.3571 -0.6631  0.2980
  291MOL0     C38345   1.964   1.622   1.152  0.5031  1.0209 -0.7620
  291MOL0     C38346   1.865   1.719   1.115  0.2810 -0.0782  0.1481
  291MOL0     H38347   1.687   2.139   0.737  0.9887 -1.1983  1.2609
  291MOL0     H38348   1.558   2.342   0.749 -2.3315  4.0959  3.1810
  291MOL0     H38349   1.694   2.617   1.070  0.0016  0.0285  0.0530
  291MOL0     H38350   1.522   2.601   1.126 -2.0460 -1.1642 -1.7928
  291MOL0     H38351   1.629   2.835   1.051  1.1509 -2.2118  0.8334
  291MOL0     H38352   1.458   2.794   0.995 -0.3812 -1.0718  3.7947
  291MOL0     H38353   1.554   2.705   0.797 -1.0640  0.7207  0.3796
  291MOL0     H38354   1.715   2.738   0.847  1.1779  0.0910  3.2759
  291MOL0     H38355   1.495   2.945   0.780  0.1435 -1.1266 -1.2010
  291MOL0     H38356   1.639   2.996   0.867 -1.9105  0.0846  0.2787
  291MOL0     H38357   1.779   2.909   0.664  0.5694 -1.0241 -1.2994
  291MOL0     H38358   1.671   3.047   0.634 -0.1249  0.2363  2.3123
  291MOL0     H38359   1.626   2.757   0.565  1.2893  0.7710 -0.2330
  291MOL0     H38360   1.648   2.877   0.443  1.5209 -2.5502  0.4733
  291MOL0     H38361   1.403   2.823   0.456  0.5450 -0.1621  0.4649
  291MOL0     H38362   1.409   2.833   0.624  0.6058 -0.0156 -0.5075
  291MOL0     H38363   1.456   3.077   0.603 -0.7305  1.7898 -0.4994
  291MOL0     H38364   1.291   3.023   0.550  0.7891  1.3146 -0.4266
  291MOL0     H38365   1.609   3.178   0.413 -0.0987 -1.7284 -0.7889
  291MOL0     H38366   1.693   3.253   0.153 -1.3092 -0.6975  1.5188
  291MOL0     H38367   1.545   3.341   0.100 -2.0912 -0.3746 -0.6070
  291MOL0     H38368   1.489   3.155  -0.043 -1.2517 -0.1426  2.4656
  291MOL0     H38369   1.599   3.049   0.016  3.4854  0.2843  0.7755
  291MOL0     H38370   1.662   3.178  -0.221 -5.0397 -1.2922  1.5699
  291MOL0     H38371   1.654   3.322  -0.124  0.3308  0.5226 -0.7869
  291MOL0     H38372   1.853   3.247   0.006  0.1868 -1.4040  1.7344
  291MOL0     H38373   1.897   3.267  -0.156 -4.6194  4.1563 -0.2311
  291MOL0     H38374   1.811   3.135  -0.360  2.2310  1.0449 -0.0579
  291MOL0     H38375   1.882   3.042  -0.553 -3.0554  0.8975  0.9841
  291MOL0     H38376   2.191   2.804  -0.840 -0.8663 -1.0873 -1.4899
  291MOL0     H38377   2.391   2.717  -0.956  0.5621 -0.6003  0.1202
  291MOL0     H38378   2.530   2.292  -0.825  0.8785 -0.6498 -0.4872
  291MOL0     H38379   2.633   2.414  -0.761  0.6911  0.1183 -0.5748
  291MOL0     H38380   2.749   2.262  -0.915 -2.9025 -1.7816 -0.7868
  291MOL0     H38381   2.760   2.422  -0.981 -1.1261  1.3022  1.1392
  291MOL0     H38382   2.561   2.357  -1.124  0.7537 -0.9520 -2.4302
  291MOL0     H38383   2.567   2.203  -1.041 -2.1489  0.2417 -0.3516
  291MOL0     H38384   2.811   2.288  -1.204 -0.2819  0.8566 -0.6792
  291MOL0     H38385   2.771   2.124  -1.150  0.1474  0.5282 -1.0311
  291MOL0     H38386   2.620   2.297  -1.358  0.5924  1.9882  2.1199
  291MOL0     H38387   2.549   2.146  -1.314  1.4257 -0.0429  4.2460
  291MOL0     H38388   2.832   2.153  -1.418 -0.9611  2.2062 -0.4553
  291MOL0     H38389   2.688   2.121  -1.516 -0.7503 -3.5454 -1.1911
  291MOL0     H38390   2.729   1.951  -1.267  1.2690 -0.5179 -0.4174
  291MOL0     H38391   2.641   1.914  -1.413  0.4365 -1.6701  0.2400
  291MOL0     H38392   2.943   1.927  -1.382  0.8018 -2.0262 -0.1727
  291MOL0     H38393   2.862   1.910  -1.539 -3.1320 -0.0876 -0.0176
  291MOL0     H38394   2.416   2.409  -0.669  1.8925  1.4377 -0.6694
  291MOL0     H38395   2.268   2.521  -0.519 -2.2116 -4.5795 -3.1498
  291MOL0     H38396   2.109   2.748  -0.338  0.6782  1.3758 -0.7915
  291MOL0     H38397   2.044   2.859  -0.119  0.3089 -4.6093 -1.8694
  291MOL0     H38398   1.687   2.405   1.168  0.5896 -2.3501  1.1737
  291MOL0     H38399   1.838   2.211   1.128  1.9577 -0.0553 -1.8656
  291MOL0     H38400   2.066   1.945   0.965  2.1315  0.8621  1.4584
  291MOL0     H38401   2.237   1.771   1.037  0.2638  0.8026  0.9369
  291MOL0     H38402   2.365   1.618   1.181 -2.4867  0.1515  4.1470
  291MOL0     H38403   2.326   1.538   1.036 -0.5193  0.2298  0.0836
  291MOL0     H38404   2.466   1.398   1.220 -0.6083 -2.9525  1.3548
  291MOL0     H38405   2.305   1.374   1.286  0.0416  3.9807  1.8478
  291MOL0     H38406   2.345   1.336   0.986 -2.9897 -2.0149 -1.0810
  291MOL0     H38407   2.232   1.271   1.113 -0.1120  2.2051  1.8035
  291MOL0     H38408   2.530   1.180   1.095 -0.4388  1.1271  3.7094
  291MOL0     H38409   2.393   1.111   1.183 -0.5136 -0.1244 -0.9492
  291MOL0     H38410   2.315   0.923   0.823 -0.0647  0.2163 -0.8174
  291MOL0     H38411   1.938   1.536   1.212  2.5575  0.8877  0.0149
  291MOL0     H38412   1.759   1.704   1.133 -0.0478  2.0175  0.1988
  292MOL0     O38413   2.158  10.254   3.122 -0.2943  0.8101 -0.3853
  292MOL0     C38414   2.201  10.292   3.013  0.2964 -0.0339  0.8246
  292MOL0     O38415   2.338  10.303   2.987  0.1606  0.1384 -1.2351
  292MOL0     C38416   2.421  10.235   3.073  0.7543 -0.7845  0.6652
  292MOL0     C38417   2.520  10.312   3.137  0.1954 -0.7691 -0.0407
  292MOL0     C38418   2.614  10.251   3.215  0.5230 -0.1251  0.0164
  292MOL0     C38419   2.623  10.110   3.221  0.7475 -0.2263 -0.0978
  292MOL0     O38420   2.723  10.047   3.284 -0.3441 -0.1418  0.2642
  292MOL0     C38421   2.825  10.125   3.354 -1.1356  0.0460  0.0161
  292MOL0     C38422   2.936  10.035   3.417  1.0698  0.9402  0.4392
  292MOL0     C38423   2.946   9.893   3.375 -0.9212  0.1216  0.2989
  292MOL0     C38424   3.001   9.866   3.236 -1.9975  0.4055  0.2291
  292MOL0     C38425   3.087   9.735   3.232  0.3970 -0.0815  0.6554
  292MOL0     C38426   3.184   9.737   3.131 -1.2020 -0.0529 -0.5635
  292MOL0     C38427   3.124   9.718   2.999  0.2002  0.4400 -1.1257
  292MOL0     C38428   3.225   9.674   2.894 -0.5628 -0.2132  0.5180
  292MOL0     N38429   3.323   9.783   2.881  0.5569 -0.0108  0.6036
  292MOL0     C38430   3.304   9.887   2.793  0.4661  0.5008  0.2060
  292MOL0     C38431   3.417   9.963   2.820 -0.8361  0.0977  0.6811
  292MOL0     C38432   3.442  10.096   2.745  0.1340 -1.5707 -0.5738
  292MOL0     C38433   3.600  10.115   2.751  0.1144 -0.6513 -0.2542
  292MOL0     C38434   3.655  10.221   2.652  0.0352  0.0119 -0.6113
  292MOL0     C38435   3.806  10.213   2.635  0.6636  0.0183 -0.4929
  292MOL0     O38436   3.834  10.290   2.516 -0.7548  0.6197 -1.2187
  292MOL0     C38437   3.817  10.230   2.390 -0.1594 -0.4103 -0.0923
  292MOL0     C38438   3.806  10.317   2.279  0.0372 -0.3631 -0.2205
  292MOL0     C38439   3.777  10.263   2.152 -0.4301 -0.7053  0.3880
  292MOL0     C38440   3.750  10.128   2.132  0.3812 -0.2152  0.7990
  292MOL0     C38441   3.704  10.089   2.001  0.0526 -0.1409 -0.0286
  292MOL0     O38442   3.725  10.171   1.899  0.1853 -0.3935  0.4030
  292MOL0     C38443   3.649  10.174   1.779 -0.3821 -0.1107  0.2858
  292MOL0     C38444   3.707  10.225   1.659 -0.4929  0.9268  0.1330
  292MOL0     C38445   3.629  10.218   1.541 -0.1441  0.2594  0.0566
  292MOL0     C38446   3.496  10.185   1.534 -0.2827  0.4166 -0.0493
  292MOL0     O38447   3.411  10.189   1.425  0.4011  0.4342 -0.5188
  292MOL0     C38448   3.458  10.260   1.319  0.2384 -0.0294 -0.2071
  292MOL0     C38449   3.339  10.291   1.221 -0.2318 -0.2446  0.2719
  292MOL0     C38450   3.218  10.352   1.280  0.0492 -0.6137  0.3616
  292MOL0     C38451   3.119  10.396   1.170  0.5490 -0.2155 -0.5189
  292MOL0     C38452   2.980  10.430   1.233 -0.0388 -0.4494  0.5333
  292MOL0     C38453   2.891  10.485   1.125  0.2604 -0.1526  0.1546
  292MOL0     C38454   2.758  10.538   1.178  1.2017 -0.1374  0.4696
  292MOL0     C38455   2.659  10.559   1.065 -0.0161 -0.6841  0.8475
  292MOL0    Cl38456   2.707  10.675   0.943 -0.4201 -0.2952  0.2070
  292MOL0     C38457   3.433  10.147   1.652 -0.1664 -0.4346 -0.1461
  292MOL0     C38458   3.513  10.147   1.766 -0.5954  1.0984 -0.3743
  292MOL0     O38459   3.643   9.987   1.998  0.1524  0.3393 -0.1540
  292MOL0     C38460   3.754  10.039   2.241  0.0898  0.2883  0.3295
  292MOL0     C38461   3.788  10.093   2.369  0.3626  0.3692 -0.1624
  292MOL0     N38462   3.494   9.901   2.914 -0.0583  0.4964 -0.0154
  292MOL0     N38463   3.435   9.802   2.955 -1.0092  0.6713  0.6736
  292MOL0     C38464   2.523  10.026   3.161 -0.4792 -0.4153  0.1823
  292MOL0     C38465   2.422  10.092   3.080 -1.8288 -0.9243 -0.2189
  292MOL0     C38466   2.112  10.370   2.920 -0.4510  0.3069 -0.0047
  292MOL0     C38467   2.160  10.438   2.812 -0.2997  0.9436 -0.2408
  292MOL0     C38468   2.070  10.510   2.733  0.1032 -0.1810 -0.8601
  292MOL0     C38469   1.937  10.531   2.763  0.0981  0.4540 -0.0864
  292MOL0     O38470   1.853  10.610   2.692  0.2558  0.3691  0.3144
  292MOL0     C38471   1.904  10.743   2.667  0.6060 -0.2498  1.1687
  292MOL0     C38472   1.809  10.822   2.566 -0.2779  0.6850 -0.4756
  292MOL0     C38473   1.798  10.744   2.441  1.1338 -0.8578  0.0997
  292MOL0     C38474   1.725  10.828   2.335  0.3830 -0.1648 -0.7470
  292MOL0     C38475   1.793  10.946   2.290 -0.5695 -0.0898  1.9261
  292MOL0     C38476   1.845  11.053   2.276  0.2074  0.2988  0.2655
  292MOL0     C38477   1.895  10.469   2.884  0.3403  0.6494  0.7815
  292MOL0     C38478   1.975  10.389   2.951 -0.7799  0.6011  0.5383
  292MOL0     H38479   2.514  10.419   3.120 -0.5546 -0.7213  0.4423
  292MOL0     H38480   2.691  10.316   3.257 -2.3595  1.6351  3.1587
  292MOL0     H38481   2.774  10.189   3.426  0.8271 -0.9798  2.4923
  292MOL0     H38482   2.879  10.185   3.280  0.3650  0.4148  1.3545
  292MOL0     H38483   2.909  10.027   3.523  1.5220  2.4533  0.7020
  292MOL0     H38484   3.038  10.071   3.400  1.7031  0.3714  2.7327
  292MOL0     H38485   2.844   9.853   3.376 -2.0337  2.5975  3.9468
  292MOL0     H38486   2.995   9.833   3.451 -0.9633 -0.5398 -0.1838
  292MOL0     H38487   2.925   9.836   3.163  0.7046  0.9568 -3.0727
  292MOL0     H38488   3.049   9.947   3.180 -0.1691 -0.0076  1.1298
  292MOL0     H38489   3.017   9.651   3.225 -1.7369  1.6363  0.3345
  292MOL0     H38490   3.137   9.711   3.327 -0.5154 -1.7475  0.7582
  292MOL0     H38491   3.264   9.667   3.157 -1.7598 -1.1420 -1.6658
  292MOL0     H38492   3.229   9.837   3.131  4.5679 -2.2154  1.0329
  292MOL0     H38493   3.055   9.635   3.013  2.2290 -0.7948  3.7795
  292MOL0     H38494   3.072   9.809   2.966  1.4127  1.5882 -0.0223
  292MOL0     H38495   3.169   9.670   2.801 -3.2986  2.7654  1.8600
  292MOL0     H38496   3.277   9.584   2.929 -0.0937 -0.0254  0.3152
  292MOL0     H38497   3.213   9.899   2.734 -0.6517  0.1065  1.7721
  292MOL0     H38498   3.390  10.176   2.799  1.9542 -1.0132  0.4330
  292MOL0     H38499   3.408  10.088   2.641  3.1215 -1.4419 -1.6612
  292MOL0     H38500   3.643  10.021   2.716 -0.5151 -0.8122 -0.5944
  292MOL0     H38501   3.643  10.143   2.848  2.5597 -1.8791 -0.8989
  292MOL0     H38502   3.615  10.209   2.550  1.8208  0.3244 -1.3938
  292MOL0     H38503   3.625  10.319   2.689  1.9939  0.3410  0.2039
  292MOL0     H38504   3.842  10.112   2.614 -0.6150 -0.2330 -1.6122
  292MOL0     H38505   3.861  10.243   2.725  1.8652 -1.6649 -0.6282
  292MOL0     H38506   3.820  10.424   2.288  1.8064 -0.6875  1.6561
  292MOL0     H38507   3.785  10.332   2.068  1.2400 -1.2090  0.0957
  292MOL0     H38508   3.808  10.264   1.649 -0.3576  0.0037 -2.9551
  292MOL0     H38509   3.683  10.250   1.452  0.1461 -0.3830 -0.0056
  292MOL0     H38510   3.535  10.217   1.255 -0.7417 -2.6471  0.2452
  292MOL0     H38511   3.498  10.356   1.355 -0.6910 -0.2898  1.6522
  292MOL0     H38512   3.310  10.199   1.170  0.3904 -0.3033  0.0160
  292MOL0     H38513   3.381  10.360   1.147  1.1745 -1.3112  0.0412
  292MOL0     H38514   3.248  10.441   1.337 -0.7900 -0.1514  0.0954
  292MOL0     H38515   3.170  10.283   1.350 -0.5674  1.0131  1.5975
  292MOL0     H38516   3.166  10.485   1.127  0.5696  0.6342  1.1740
  292MOL0     H38517   3.101  10.316   1.097 -0.1236  1.0438 -1.7646
  292MOL0     H38518   3.003  10.506   1.309  0.7461  0.2301 -0.3660
  292MOL0     H38519   2.940  10.346   1.290  1.5885 -1.3452  0.4049
  292MOL0     H38520   2.875  10.415   1.043  2.6778  0.3797 -0.8520
  292MOL0     H38521   2.939  10.571   1.079  2.1962 -0.8170  0.8523
  292MOL0     H38522   2.715  10.470   1.252  3.3001 -1.7958  0.2517
  292MOL0     H38523   2.766  10.635   1.227 -0.7187  1.2216 -1.6949
  292MOL0     H38524   2.559  10.582   1.102  0.1808 -0.6408  1.3646
  292MOL0     H38525   2.651  10.461   1.017  2.3666 -0.0445 -1.0743
  292MOL0     H38526   3.326  10.129   1.660 -0.6705  2.1486 -0.3014
  292MOL0     H38527   3.463  10.105   1.852 -0.3624 -3.6218 -2.2405
  292MOL0     H38528   3.732   9.935   2.220 -2.5257  0.0093  3.7314
  292MOL0     H38529   3.784  10.016   2.446  3.0955 -4.8382 -4.5665
  292MOL0     H38530   2.538   9.919   3.155 -0.6112 -0.3790 -1.2610
  292MOL0     H38531   2.351  10.030   3.026  0.7453 -2.4158 -2.1040
  292MOL0     H38532   2.261  10.416   2.782 -1.1204  1.1690 -3.5705
  292MOL0     H38533   2.117  10.552   2.645 -1.3428 -1.8631 -2.5298
  292MOL0     H38534   1.996  10.722   2.612  0.8027  1.1716  0.9180
  292MOL0     H38535   1.933  10.791   2.761  2.6375  1.2017 -0.1312
  292MOL0     H38536   1.705  10.827   2.600  0.2856  0.3266  1.4084
  292MOL0     H38537   1.856  10.917   2.542  2.6486 -0.6859 -0.5392
  292MOL0     H38538   1.746  10.648   2.448 -1.6946  0.4747 -1.1160
  292MOL0     H38539   1.897  10.721   2.400  1.9034 -1.9929  2.4325
  292MOL0     H38540   1.701  10.756   2.255  0.5499 -1.3504  0.2401
  292MOL0     H38541   1.632  10.863   2.379  1.3247  0.3778  0.8787
  292MOL0     H38542   1.886  11.152   2.274 -0.1308  0.4220 -1.2127
  292MOL0     H38543   1.790  10.476   2.912 -0.2506  1.3704 -1.4348
  292MOL0     H38544   1.933  10.339   3.038  0.8297 -1.2709  0.3329
  293MOL0     O38545   8.008   8.639   8.587 -0.1058  0.9846  0.5063
  293MOL0     C38546   8.124   8.646   8.636  0.4467  0.8306  0.3453
  293MOL0     O38547   8.216   8.753   8.633 -0.9378  0.3965  0.3277
  293MOL0     C38548   8.168   8.867   8.567 -0.9539  0.1554 -0.3416
  293MOL0     C38549   8.133   8.875   8.426 -1.6707 -0.0527  0.2547
  293MOL0     C38550   8.104   8.995   8.372 -1.1634  0.1956  0.5422
  293MOL0     C38551   8.069   9.108   8.449  0.3498 -0.2129  0.2305
  293MOL0     O38552   8.063   9.225   8.380  0.2182 -0.3890 -0.0801
  293MOL0     C38553   7.922   9.254   8.359  0.4197 -0.0499  1.0907
  293MOL0     C38554   7.862   9.197   8.235 -0.0242  0.0956  0.5201
  293MOL0     C38555   7.729   9.262   8.181 -0.2237  0.0524  0.1799
  293MOL0     C38556   7.731   9.416   8.160 -0.4197  0.0894 -0.3941
  293MOL0     C38557   7.680   9.436   8.022  0.0684  1.0275 -0.3884
  293MOL0     C38558   7.671   9.586   8.002  0.2538  0.0227  0.4782
  293MOL0     C38559   7.654   9.633   7.854 -0.3003  0.1568 -0.4600
  293MOL0     C38560   7.779   9.636   7.773 -0.8634  0.3071 -0.1911
  293MOL0     N38561   7.754   9.694   7.634 -0.6192 -1.6226 -0.6342
  293MOL0     C38562   7.846   9.760   7.559 -0.4615  0.8375  0.8371
  293MOL0     C38563   7.782   9.783   7.433 -0.7382 -0.0078 -0.0118
  293MOL0     C38564   7.848   9.830   7.297 -0.1385  0.4247 -0.1127
  293MOL0     C38565   7.892   9.973   7.317 -0.0984  0.4601 -0.1907
  293MOL0     C38566   7.993  10.015   7.212 -0.4436 -0.4066  1.1628
  293MOL0     C38567   7.979  10.168   7.166 -0.1641  0.3088  0.1367
  293MOL0     O38568   8.001  10.258   7.275 -0.1820 -0.1618  1.1253
  293MOL0     C38569   7.885  10.326   7.307 -0.2998  0.4516  0.8316
  293MOL0     C38570   7.824  10.316   7.431 -1.1392 -0.6094  0.2288
  293MOL0     C38571   7.724  10.407   7.467  0.9747 -0.2941 -0.2089
  293MOL0     C38572   7.675  10.511   7.377  0.7817  0.1143 -0.5602
  293MOL0     C38573   7.574  10.608   7.422 -1.1666  0.9407  1.0970
  293MOL0     O38574   7.521  10.684   7.330  0.2419 -0.3873  0.7688
  293MOL0     C38575   7.417  10.759   7.359  0.0999 -0.6815 -0.4091
  293MOL0     C38576   7.451  10.888   7.396  0.0716 -0.2762 -0.7707
  293MOL0     C38577   7.352  10.989   7.404  0.3259 -0.0799  0.1268
  293MOL0     C38578   7.215  10.953   7.388 -1.4060  0.9176  0.0572
  293MOL0     O38579   7.116  11.051   7.404 -0.4223  0.4938  0.1639
  293MOL0     C38580   7.130  11.160   7.314 -0.0598  0.0681  0.2880
  293MOL0     C38581   6.989  11.165   7.263  0.2607  0.5547  0.5009
  293MOL0     C38582   6.886  11.224   7.357  0.1670 -0.4547 -0.4526
  293MOL0     C38583   6.738  11.252   7.311 -0.1532  0.2723  0.9605
  293MOL0     C38584   6.660  11.341   7.415  0.6138 -0.6869  0.3335
  293MOL0     C38585   6.514  11.356   7.375  0.8947  0.6086  0.3333
  293MOL0     C38586   6.449  11.444   7.481  0.4592  0.0558 -1.1859
  293MOL0     C38587   6.312  11.498   7.438  0.0503  0.6147 -0.0324
  293MOL0    Cl38588   6.338  11.598   7.300  0.1048 -0.5153 -0.2690
  293MOL0     C38589   7.190  10.817   7.351 -0.0535 -1.1445  0.3435
  293MOL0     C38590   7.284  10.721   7.336 -0.4414 -0.4696  0.2648
  293MOL0     O38591   7.558  10.623   7.545 -0.7994  0.0263  0.8957
  293MOL0     C38592   7.736  10.511   7.251 -0.1588  0.1937  0.6506
  293MOL0     C38593   7.836  10.429   7.222  0.2858 -0.4059 -0.1607
  293MOL0     N38594   7.654   9.745   7.444 -0.4331 -0.4540  0.3425
  293MOL0     N38595   7.632   9.703   7.566  0.3967 -0.2188 -0.2039
  293MOL0     C38596   8.096   9.095   8.590 -0.8589 -0.5126  0.5104
  293MOL0     C38597   8.137   8.978   8.639  0.5824  0.1855 -0.8432
  293MOL0     C38598   8.162   8.531   8.727 -0.4304  0.2143  0.2900
  293MOL0     C38599   8.288   8.533   8.787 -0.2420  0.3649 -0.2666
  293MOL0     C38600   8.324   8.451   8.887 -0.1737  0.1424  0.6062
  293MOL0     C38601   8.238   8.347   8.933  0.3787  1.8841  0.5982
  293MOL0     O38602   8.287   8.247   9.013 -0.1384  0.3159  0.3538
  293MOL0     C38603   8.197   8.144   9.066 -0.3088 -0.4759 -0.2055
  293MOL0     C38604   8.260   8.049   9.157  0.1555 -0.0363 -0.8487
  293MOL0     C38605   8.313   8.115   9.295  0.4594 -0.5255  0.5475
  293MOL0     C38606   8.411   8.032   9.370  0.2730  0.3401 -0.0929
  293MOL0     C38607   8.481   8.110   9.473 -0.0176 -0.5056 -0.5974
  293MOL0     C38608   8.559   8.154   9.557  0.5952 -0.3142 -0.3980
  293MOL0     C38609   8.107   8.346   8.883 -0.6924 -0.1923 -0.0019
  293MOL0     C38610   8.063   8.446   8.795 -0.0087 -0.8597  0.7103
  293MOL0     H38611   8.171   8.798   8.360 -0.0018 -1.0146  2.2052
  293MOL0     H38612   8.130   9.008   8.268 -2.8414  0.9548  0.1846
  293MOL0     H38613   7.905   9.362   8.364  0.4691  0.3055 -2.9294
  293MOL0     H38614   7.855   9.205   8.430 -0.4538 -1.3554 -0.5599
  293MOL0     H38615   7.847   9.092   8.258 -0.2367 -0.0913 -0.4282
  293MOL0     H38616   7.939   9.212   8.158 -1.9129  5.1843 -0.7894
  293MOL0     H38617   7.639   9.234   8.237 -0.8243  2.5252  0.5284
  293MOL0     H38618   7.722   9.210   8.085 -0.7365  2.4270 -1.1474
  293MOL0     H38619   7.659   9.461   8.229  0.2644  0.2606  0.2236
  293MOL0     H38620   7.831   9.453   8.185 -0.4437 -2.0864  3.8821
  293MOL0     H38621   7.575   9.404   8.023  0.5932 -1.2864 -3.5707
  293MOL0     H38622   7.725   9.371   7.946  2.5023 -0.3830  2.0930
  293MOL0     H38623   7.761   9.631   8.045  1.0432  1.0292 -2.0601
  293MOL0     H38624   7.587   9.627   8.060  2.1089  2.6347  1.5115
  293MOL0     H38625   7.581   9.581   7.791 -1.2714  1.7495 -0.7176
  293MOL0     H38626   7.620   9.737   7.847 -2.9380 -0.7102 -2.1607
  293MOL0     H38627   7.810   9.531   7.763  0.3476  0.6023  0.2679
  293MOL0     H38628   7.849   9.692   7.836 -1.0728  0.1552  0.1814
  293MOL0     H38629   7.950   9.775   7.584  0.0160  1.3355 -1.2688
  293MOL0     H38630   7.783   9.822   7.210  0.9698 -1.4481 -0.8162
  293MOL0     H38631   7.936   9.767   7.281 -0.6094  0.0874 -1.4484
  293MOL0     H38632   7.948   9.996   7.409  3.9025  2.3078 -2.8157
  293MOL0     H38633   7.807  10.042   7.322 -0.6054 -0.0992 -0.9585
  293MOL0     H38634   8.096   9.996   7.242  0.9720  2.6651 -1.1768
  293MOL0     H38635   7.981   9.955   7.121 -1.2637 -1.8961  2.2223
  293MOL0     H38636   7.878  10.173   7.127 -0.4955  0.6543  1.0131
  293MOL0     H38637   8.044  10.197   7.083  0.4234  1.7894  1.0536
  293MOL0     H38638   7.862  10.244   7.503 -0.8156 -0.2969  0.3740
  293MOL0     H38639   7.683  10.394   7.567  0.8485  0.9745 -0.0845
  293MOL0     H38640   7.552  10.926   7.394 -0.4278  1.0562 -1.4032
  293MOL0     H38641   7.378  11.087   7.440 -3.6377  0.2482  2.7037
  293MOL0     H38642   7.192  11.147   7.225 -0.0787  3.8650 -0.4486
  293MOL0     H38643   7.146  11.256   7.364 -0.2015  0.3047 -0.1179
  293MOL0     H38644   6.943  11.071   7.232  1.4534  0.5420 -1.3612
  293MOL0     H38645   6.979  11.234   7.179  0.3937 -2.3047 -2.0643
  293MOL0     H38646   6.925  11.319   7.395 -0.7544 -0.8756  1.6884
  293MOL0     H38647   6.892  11.167   7.450 -1.2305 -0.1756 -0.1738
  293MOL0     H38648   6.727  11.292   7.210 -0.0416 -0.5594  0.6112
  293MOL0     H38649   6.689  11.154   7.307  1.7640 -0.6994 -0.1861
  293MOL0     H38650   6.709  11.439   7.417 -1.4872  0.4043  2.1418
  293MOL0     H38651   6.673  11.299   7.515  0.5882 -1.4470  0.0238
  293MOL0     H38652   6.461  11.261   7.370 -0.2860  1.2879 -0.8969
  293MOL0     H38653   6.505  11.391   7.271  3.2021 -3.3737 -1.4269
  293MOL0     H38654   6.427  11.384   7.570 -0.0034 -1.4098 -2.2411
  293MOL0     H38655   6.514  11.528   7.504  3.1950 -1.9544 -1.1027
  293MOL0     H38656   6.264  11.548   7.524 -1.0134  2.1824 -1.4653
  293MOL0     H38657   6.244  11.416   7.415  0.7096 -1.1003  3.4875
  293MOL0     H38658   7.088  10.782   7.348 -0.4856 -0.4886  3.7793
  293MOL0     H38659   7.263  10.618   7.311 -0.3240 -0.2397 -0.8510
  293MOL0     H38660   7.721  10.586   7.175  0.3116 -2.0030 -1.7407
  293MOL0     H38661   7.895  10.446   7.132 -1.6189  0.6270 -1.2709
  293MOL0     H38662   8.096   9.180   8.657  3.7479 -0.3279  0.6189
  293MOL0     H38663   8.138   8.961   8.746  0.1980 -1.4561 -1.0632
  293MOL0     H38664   8.358   8.603   8.743 -1.0948  0.7193 -1.1018
  293MOL0     H38665   8.415   8.464   8.944 -0.7474 -0.6723  1.7544
  293MOL0     H38666   8.140   8.094   8.987 -3.6925  2.0000  0.4766
  293MOL0     H38667   8.115   8.185   9.126 -1.4147 -0.7722 -1.4687
  293MOL0     H38668   8.186   7.975   9.188 -1.1702  1.6009  0.0813
  293MOL0     H38669   8.346   7.996   9.116 -0.8252 -3.0807  0.6989
  293MOL0     H38670   8.221   8.133   9.352 -2.5825  0.4223 -4.0150
  293MOL0     H38671   8.346   8.217   9.272  0.3254 -0.3975  0.9065
  293MOL0     H38672   8.362   7.941   9.406 -3.6127  1.6813 -1.5469
  293MOL0     H38673   8.489   7.994   9.303  0.6113 -1.5177  1.2788
  293MOL0     H38674   8.627   8.184   9.634 -0.2187 -1.2211  0.7098
  293MOL0     H38675   8.039   8.272   8.922  1.2309 -1.5214  0.9555
  293MOL0     H38676   7.959   8.458   8.764  0.3589 -0.5972 -0.5123
  294MOL0     O38677   7.617   9.390   3.166 -0.4326 -0.4764 -0.5682
  294MOL0     C38678   7.514   9.328   3.195 -0.4736  0.7163 -0.5203
  294MOL0     O38679   7.387   9.371   3.163  0.4730  0.0840 -0.5392
  294MOL0     C38680   7.370   9.466   3.073 -0.1299 -0.4182  0.6329
  294MOL0     C38681   7.428   9.459   2.947 -0.0599 -0.2650 -0.4748
  294MOL0     C38682   7.413   9.563   2.853 -0.9566  1.1788  0.3165
  294MOL0     C38683   7.323   9.665   2.876 -0.0942 -0.4843  0.1792
  294MOL0     O38684   7.306   9.771   2.788  0.3356  0.8186 -0.6581
  294MOL0     C38685   7.308   9.759   2.645  0.1148  0.7404  0.7316
  294MOL0     C38686   7.246   9.883   2.587 -0.0481 -0.8175  0.2200
  294MOL0     C38687   7.100   9.922   2.645  0.0944 -0.1910  0.9006
  294MOL0     C38688   6.998   9.808   2.628 -0.1908  0.0007  0.0002
  294MOL0     C38689   6.872   9.808   2.724  1.4372  0.7933 -0.2716
  294MOL0     C38690   6.913   9.786   2.872  0.2351  0.1904  0.1003
  294MOL0     C38691   6.791   9.735   2.952 -0.5487 -0.1546 -1.1326
  294MOL0     C38692   6.844   9.693   3.089 -0.4815  0.2572  0.1178
  294MOL0     N38693   6.885   9.803   3.182  0.0438  0.4731  0.8874
  294MOL0     C38694   6.787   9.884   3.238 -0.0068 -0.0393 -0.5591
  294MOL0     C38695   6.869   9.959   3.314  0.4105 -1.2608  0.2312
  294MOL0     C38696   6.827  10.079   3.401 -0.0924  0.3822 -0.1769
  294MOL0     C38697   6.752  10.193   3.331 -0.0535  1.1095  0.0206
  294MOL0     C38698   6.629  10.156   3.252  0.3455  0.4853  0.2642
  294MOL0     C38699   6.522  10.267   3.228 -0.5442 -0.3690  0.0314
  294MOL0     O38700   6.398  10.233   3.289 -0.2277  0.3999  0.1474
  294MOL0     C38701   6.370  10.287   3.416 -0.2102  0.1790 -1.1203
  294MOL0     C38702   6.450  10.363   3.500  1.0178 -1.1699  0.3125
  294MOL0     C38703   6.405  10.413   3.627 -0.1321  0.3826  0.1907
  294MOL0     C38704   6.274  10.400   3.668 -0.3379  0.1016  0.9170
  294MOL0     C38705   6.220  10.463   3.791 -0.2912  0.0405  0.5272
  294MOL0     O38706   6.306  10.555   3.847  0.1215  0.0701 -0.0532
  294MOL0     C38707   6.277  10.625   3.966  0.6734  0.5420 -0.1106
  294MOL0     C38708   6.301  10.762   3.949 -0.4775 -0.6274  0.3291
  294MOL0     C38709   6.278  10.854   4.051  0.0642  0.7703 -0.6758
  294MOL0     C38710   6.238  10.807   4.178 -0.1170  0.6938 -0.2785
  294MOL0     O38711   6.203  10.887   4.278 -0.5444  0.3298 -0.8876
  294MOL0     C38712   6.221  11.023   4.264  0.5179 -0.3064 -0.1055
  294MOL0     C38713   6.201  11.099   4.404 -0.5365  0.3783  0.7603
  294MOL0     C38714   6.054  11.089   4.451  0.0830 -0.3383 -0.1366
  294MOL0     C38715   6.045  11.143   4.591 -0.2692  0.1014 -1.1496
  294MOL0     C38716   6.046  11.296   4.586 -0.3291  0.7202  0.2191
  294MOL0     C38717   5.985  11.351   4.715  0.8877  0.3348  0.0385
  294MOL0     C38718   5.971  11.499   4.704  0.5067  0.2403 -0.1129
  294MOL0     C38719   6.098  11.570   4.701  0.1625 -0.1478  0.2291
  294MOL0    Cl38720   6.218  11.518   4.821 -0.3294  0.6043 -0.5237
  294MOL0     C38721   6.215  10.666   4.187 -0.1318  0.8862 -0.2750
  294MOL0     C38722   6.230  10.576   4.079 -0.6484  0.7004  0.1375
  294MOL0     O38723   6.118  10.423   3.840  0.4493  0.3029  0.0453
  294MOL0     C38724   6.193  10.331   3.577  0.1023 -0.5403  0.3427
  294MOL0     C38725   6.239  10.265   3.464  0.3724 -0.2257 -0.1610
  294MOL0     N38726   7.002   9.913   3.317  0.8165 -0.3532 -0.1158
  294MOL0     N38727   7.010   9.821   3.233 -0.5839 -0.3386 -0.0962
  294MOL0     C38728   7.262   9.673   3.000  0.8242  0.3777 -0.4998
  294MOL0     C38729   7.284   9.569   3.090 -0.2963 -0.0420 -0.1761
  294MOL0     C38730   7.523   9.214   3.302 -0.5517 -0.9619 -0.5240
  294MOL0     C38731   7.409   9.128   3.308 -0.4868 -0.1705  0.2691
  294MOL0     C38732   7.425   9.030   3.395 -0.1624 -0.4965  0.0370
  294MOL0     C38733   7.541   9.005   3.469 -0.3710 -0.0027 -0.6250
  294MOL0     O38734   7.530   8.919   3.575  0.1810  0.1064 -0.6217
  294MOL0     C38735   7.647   8.876   3.642 -0.8054 -0.4165 -0.9880
  294MOL0     C38736   7.626   8.747   3.719  1.1656 -0.3146 -0.1528
  294MOL0     C38737   7.755   8.674   3.753  0.4510 -0.1737 -0.1168
  294MOL0     C38738   7.745   8.532   3.816 -1.2449  0.9263 -0.6225
  294MOL0     C38739   7.618   8.479   3.862  0.3379 -0.7144 -0.1583
  294MOL0     C38740   7.524   8.423   3.911 -0.5838  0.5652  0.3327
  294MOL0     C38741   7.646   9.094   3.469  0.3035  0.1452  0.5733
  294MOL0     C38742   7.643   9.197   3.375 -0.8512 -0.5483 -0.1342
  294MOL0     H38743   7.498   9.378   2.928 -1.9351 -1.8099 -1.1321
  294MOL0     H38744   7.468   9.564   2.760 -0.8381  1.7622  0.3931
  294MOL0     H38745   7.253   9.671   2.612  2.3528 -0.4489 -0.0676
  294MOL0     H38746   7.411   9.754   2.607  0.0461 -0.1658  0.6510
  294MOL0     H38747   7.235   9.865   2.479  1.4236  0.4063 -0.1755
  294MOL0     H38748   7.308   9.971   2.608 -0.0105 -0.3239 -1.7516
  294MOL0     H38749   7.065  10.016   2.601  1.9336 -0.2545 -0.8161
  294MOL0     H38750   7.116   9.929   2.753  1.2208 -1.9307  0.8910
  294MOL0     H38751   6.968   9.810   2.523  0.6547 -0.4428 -0.2600
  294MOL0     H38752   7.047   9.711   2.644  0.4434  0.0439 -1.5192
  294MOL0     H38753   6.808   9.725   2.693  0.2025  1.7200 -0.3329
  294MOL0     H38754   6.814   9.900   2.710  1.9573  1.2385  0.4494
  294MOL0     H38755   6.955   9.879   2.911  4.9191 -2.5067  2.3486
  294MOL0     H38756   6.982   9.701   2.881 -0.2010 -0.0635  1.1635
  294MOL0     H38757   6.733   9.825   2.971 -3.4969 -2.2042  0.3595
  294MOL0     H38758   6.739   9.660   2.892 -0.8891 -0.0771 -0.9307
  294MOL0     H38759   6.932   9.628   3.093  2.0358  3.3497 -0.4246
  294MOL0     H38760   6.762   9.639   3.136 -1.5790  0.8974 -1.0067
  294MOL0     H38761   6.679   9.876   3.226  0.0204 -3.5545  0.3948
  294MOL0     H38762   6.909  10.116   3.463 -0.7782 -2.4963  2.7908
  294MOL0     H38763   6.751  10.045   3.473 -1.2610 -0.3197 -1.6805
  294MOL0     H38764   6.825  10.241   3.264 -1.6268 -0.0162 -2.6797
  294MOL0     H38765   6.716  10.263   3.407  0.2456  1.8644 -0.5192
  294MOL0     H38766   6.663  10.123   3.153 -0.5682 -2.1399  0.7283
  294MOL0     H38767   6.599  10.067   3.309  2.6855 -0.1887  0.5361
  294MOL0     H38768   6.524  10.290   3.121  3.2260  0.8210  0.2221
  294MOL0     H38769   6.555  10.364   3.265 -1.5984 -0.8383  2.3713
  294MOL0     H38770   6.555  10.390   3.488  1.1035 -0.2964  2.5771
  294MOL0     H38771   6.477  10.452   3.698 -1.2745  1.8036  0.5965
  294MOL0     H38772   6.321  10.798   3.849  1.6128 -2.2851  0.0584
  294MOL0     H38773   6.296  10.959   4.033  0.7504  1.0467  1.3793
  294MOL0     H38774   6.149  11.059   4.190 -1.5035 -0.1807  1.8163
  294MOL0     H38775   6.322  11.037   4.225  1.5848 -4.0200  0.9619
  294MOL0     H38776   6.224  11.206   4.404 -0.0011  0.3345  3.8174
  294MOL0     H38777   6.274  11.066   4.478  2.1409  2.6644 -0.6836
  294MOL0     H38778   6.043  10.981   4.463 -2.7304 -0.5852 -3.4340
  294MOL0     H38779   5.984  11.128   4.377  1.8067  1.8452 -0.7307
  294MOL0     H38780   5.957  11.097   4.636  0.2698  0.1408 -0.0157
  294MOL0     H38781   6.129  11.101   4.647 -1.0617  0.2454  0.1819
  294MOL0     H38782   6.001  11.333   4.494  1.6921 -1.1119 -1.6327
  294MOL0     H38783   6.149  11.331   4.581  0.4513 -1.4764 -0.5099
  294MOL0     H38784   6.047  11.334   4.803  0.1372 -1.4452  0.2643
  294MOL0     H38785   5.889  11.299   4.727  1.7473 -0.9740  1.6087
  294MOL0     H38786   5.919  11.523   4.610  1.1716  2.6473  0.0738
  294MOL0     H38787   5.914  11.528   4.793  1.1383 -1.6939  0.9595
  294MOL0     H38788   6.085  11.679   4.700  0.8157  0.0181  2.6203
  294MOL0     H38789   6.145  11.555   4.603  2.3968  0.7000  1.0869
  294MOL0     H38790   6.177  10.626   4.281 -2.8151  3.2056 -0.2143
  294MOL0     H38791   6.213  10.469   4.074 -1.7863  0.8676  0.1796
  294MOL0     H38792   6.090  10.316   3.610 -1.1769 -0.3135 -3.1173
  294MOL0     H38793   6.170  10.200   3.411 -0.6519 -0.8008  1.7490
  294MOL0     H38794   7.189   9.751   3.021  2.0406  1.3128  0.4388
  294MOL0     H38795   7.223   9.580   3.179 -3.6292  2.0759 -2.4908
  294MOL0     H38796   7.321   9.165   3.256  0.4466  1.3617 -0.3080
  294MOL0     H38797   7.340   8.972   3.429 -2.2740  3.3338  2.0359
  294MOL0     H38798   7.672   8.954   3.715 -1.9777 -1.7466  0.9089
  294MOL0     H38799   7.731   8.858   3.573 -0.0208  0.7438 -0.3789
  294MOL0     H38800   7.563   8.752   3.809  0.7591 -0.5880 -0.4158
  294MOL0     H38801   7.579   8.676   3.649 -0.6314 -0.6293  1.2911
  294MOL0     H38802   7.810   8.737   3.823 -1.8751  1.2300  0.5519
  294MOL0     H38803   7.819   8.663   3.665 -0.3539 -0.0015 -0.7296
  294MOL0     H38804   7.783   8.462   3.740 -1.6171 -0.3449  0.3186
  294MOL0     H38805   7.826   8.519   3.888 -1.6561  1.6410 -0.0192
  294MOL0     H38806   7.449   8.359   3.952 -5.1980  4.5364 -1.0420
  294MOL0     H38807   7.741   9.082   3.520  1.8864 -0.7873 -2.3510
  294MOL0     H38808   7.728   9.264   3.364 -1.6104  0.5186  0.2977
  295MOL0     O38809   3.330   3.218   4.573 -0.3162  0.4567  0.2260
  295MOL0     C38810   3.312   3.294   4.668  0.0212  0.3702  0.8444
  295MOL0     O38811   3.357   3.274   4.795  0.2546  0.2016 -0.8884
  295MOL0     C38812   3.454   3.175   4.796  0.0744 -0.8011 -0.0686
  295MOL0     C38813   3.426   3.042   4.788  0.1584  0.1766 -0.2660
  295MOL0     C38814   3.532   2.940   4.810  0.1479 -0.3843  0.6614
  295MOL0     C38815   3.664   2.978   4.823 -0.9488  0.0101 -0.5019
  295MOL0     O38816   3.763   2.882   4.841 -0.1349 -0.0305  0.7892
  295MOL0     C38817   3.895   2.920   4.856 -0.3263  1.0417 -0.0257
  295MOL0     C38818   3.978   2.802   4.903 -1.1683  0.5836 -0.4435
  295MOL0     C38819   3.957   2.682   4.816 -0.6560 -0.0113 -0.3472
  295MOL0     C38820   4.097   2.601   4.820  0.2640 -0.4207  0.1300
  295MOL0     C38821   4.101   2.492   4.711 -0.1058 -0.0940 -0.3438
  295MOL0     C38822   3.992   2.394   4.730  0.5876 -0.2085  0.3355
  295MOL0     C38823   4.033   2.277   4.635  0.8473 -0.6239 -0.1947
  295MOL0     C38824   4.145   2.196   4.699 -0.3157  1.4253  0.3351
  295MOL0     N38825   4.170   2.087   4.606 -0.1158  0.0823 -0.2014
  295MOL0     C38826   4.252   2.093   4.500  0.6311 -0.2377  0.2420
  295MOL0     C38827   4.235   1.964   4.444  1.0678 -0.4261 -0.1106
  295MOL0     C38828   4.297   1.909   4.324  1.2696  0.3843  0.1938
  295MOL0     C38829   4.197   1.854   4.225  0.0913 -0.2064 -0.9598
  295MOL0     C38830   4.271   1.770   4.117 -0.3575 -0.4703  0.3573
  295MOL0     C38831   4.175   1.677   4.049 -0.1740 -0.3524 -0.6348
  295MOL0     O38832   4.245   1.591   3.958 -0.1018 -0.3649  0.8769
  295MOL0     C38833   4.162   1.516   3.880 -0.0043 -0.4444  0.6646
  295MOL0     C38834   4.134   1.567   3.751 -0.1268  0.9252  0.2931
  295MOL0     C38835   4.031   1.515   3.675 -0.7421 -0.3126 -0.1242
  295MOL0     C38836   3.968   1.399   3.710 -0.2455  0.2481  0.2023
  295MOL0     C38837   3.869   1.339   3.618  0.0195  0.4543 -0.8485
  295MOL0     O38838   3.784   1.243   3.692  0.4524 -0.3870 -0.3422
  295MOL0     C38839   3.685   1.182   3.621 -0.1579  0.6704  1.2444
  295MOL0     C38840   3.697   1.139   3.482  0.4243 -0.6743  0.2425
  295MOL0     C38841   3.594   1.084   3.411 -1.1048 -0.5844  0.4881
  295MOL0     C38842   3.471   1.059   3.477  0.3454  1.3113  0.5097
  295MOL0     O38843   3.376   0.983   3.415 -0.4013  0.3598  0.6071
  295MOL0     C38844   3.237   0.979   3.467  0.2032 -0.1745  0.3018
  295MOL0     C38845   3.167   0.908   3.350 -0.0105 -0.3558  0.5037
  295MOL0     C38846   3.198   0.765   3.354 -0.4572  0.3829 -0.9313
  295MOL0     C38847   3.134   0.684   3.248 -1.0982  0.5953  0.2824
  295MOL0     C38848   3.155   0.533   3.280 -0.6727  0.5208  0.0649
  295MOL0     C38849   3.140   0.447   3.152 -1.2326 -0.3458  0.2330
  295MOL0     C38850   3.181   0.297   3.165  0.1412 -0.4034  0.0672
  295MOL0     C38851   3.077   0.214   3.239  0.8128 -0.2788 -0.4249
  295MOL0    Cl38852   2.927   0.220   3.135  0.0030 -0.4899 -0.4405
  295MOL0     C38853   3.456   1.091   3.615  1.0004  1.2130 -0.1919
  295MOL0     C38854   3.565   1.148   3.681 -0.1208  0.1738 -0.1608
  295MOL0     O38855   3.852   1.391   3.512  0.0022  0.7280  1.0069
  295MOL0     C38856   4.001   1.337   3.838 -1.0907 -0.2195 -0.1537
  295MOL0     C38857   4.091   1.404   3.928  0.3601  0.2802 -0.4475
  295MOL0     N38858   4.159   1.892   4.534 -0.1756 -0.5416  0.2775
  295MOL0     N38859   4.128   1.959   4.631  0.0963  0.0550  0.5052
  295MOL0     C38860   3.687   3.118   4.844  0.3052 -0.0412  0.8481
  295MOL0     C38861   3.587   3.207   4.827  0.3716  0.7175 -0.6198
  295MOL0     C38862   3.269   3.435   4.625 -0.6843  0.1199  0.3336
  295MOL0     C38863   3.193   3.471   4.512 -0.7399  0.5498  0.1577
  295MOL0     C38864   3.149   3.604   4.489 -0.0036 -0.5453  0.6036
  295MOL0     C38865   3.186   3.706   4.574  0.2983 -0.7589 -1.0920
  295MOL0     O38866   3.154   3.835   4.555 -0.5398  0.6576 -0.3551
  295MOL0     C38867   3.007   3.851   4.524 -0.2733 -0.1025 -0.1020
  295MOL0     C38868   2.945   3.979   4.543 -0.1459  0.5193 -0.6023
  295MOL0     C38869   3.028   4.099   4.493  0.6924 -0.1613 -0.5427
  295MOL0     C38870   2.977   4.237   4.534 -0.5103  0.7168  0.5507
  295MOL0     C38871   2.954   4.246   4.679  0.2545 -0.4184  1.7080
  295MOL0     C38872   2.920   4.275   4.793  0.0245  0.1347 -0.5129
  295MOL0     C38873   3.281   3.686   4.677  0.1136 -0.3040  0.0893
  295MOL0     C38874   3.319   3.551   4.703 -0.0453 -0.1329  0.5417
  295MOL0     H38875   3.327   3.010   4.759  0.3403 -3.2562  2.2707
  295MOL0     H38876   3.510   2.834   4.799  1.2947 -0.7398  1.5584
  295MOL0     H38877   3.904   2.994   4.937 -1.9744  0.1605  1.0044
  295MOL0     H38878   3.933   2.949   4.758  1.8330 -0.8694  0.1556
  295MOL0     H38879   3.942   2.778   5.003 -4.0863  0.0643 -1.5241
  295MOL0     H38880   4.083   2.832   4.913 -1.0021 -0.6192  2.1888
  295MOL0     H38881   3.921   2.705   4.715  0.7497  0.0404 -0.8602
  295MOL0     H38882   3.884   2.611   4.856  0.2750  0.5511  2.6186
  295MOL0     H38883   4.185   2.665   4.815  0.1176 -0.1916  0.4328
  295MOL0     H38884   4.105   2.547   4.914 -2.3847 -0.6517  0.3163
  295MOL0     H38885   4.201   2.449   4.717 -1.0841 -2.3461  1.5092
  295MOL0     H38886   4.089   2.542   4.615 -0.6232  2.2722  0.8797
  295MOL0     H38887   3.899   2.441   4.695  0.8636  0.3953  0.3959
  295MOL0     H38888   3.975   2.372   4.836 -2.3385  2.0675  0.4715
  295MOL0     H38889   3.948   2.211   4.614  3.1111 -3.4764 -1.2003
  295MOL0     H38890   4.057   2.317   4.536 -2.5843  1.8318 -0.1843
  295MOL0     H38891   4.111   2.171   4.800 -4.3120 -1.4615 -1.4852
  295MOL0     H38892   4.239   2.253   4.698 -0.7775  2.2061 -0.7453
  295MOL0     H38893   4.305   2.178   4.460  0.4280 -1.9775 -4.3355
  295MOL0     H38894   4.361   1.828   4.361  0.7552  0.0832  0.4406
  295MOL0     H38895   4.364   1.973   4.267  1.5990 -3.3126 -4.0683
  295MOL0     H38896   4.149   1.938   4.173 -0.6321 -0.4046 -0.6347
  295MOL0     H38897   4.117   1.797   4.274 -0.0143  2.0750  1.8203
  295MOL0     H38898   4.301   1.839   4.038 -1.5994  0.1248  0.3711
  295MOL0     H38899   4.360   1.726   4.163  0.8415 -0.5169 -1.8746
  295MOL0     H38900   4.094   1.737   4.007 -0.1286 -0.1926 -0.4944
  295MOL0     H38901   4.130   1.611   4.124 -0.7399 -0.1535 -0.7980
  295MOL0     H38902   4.181   1.661   3.724 -1.5431  2.2303  2.1566
  295MOL0     H38903   4.009   1.572   3.585  2.2661  1.6793  0.2747
  295MOL0     H38904   3.786   1.160   3.424  0.3918 -0.1443  0.3747
  295MOL0     H38905   3.612   1.049   3.310  2.5978 -1.4685  1.2885
  295MOL0     H38906   3.188   1.076   3.477 -1.4177 -0.8980 -0.3538
  295MOL0     H38907   3.235   0.930   3.565 -0.7752 -1.0782 -0.1497
  295MOL0     H38908   3.186   0.952   3.252 -0.8955  0.4720  0.6859
  295MOL0     H38909   3.059   0.907   3.367  0.2360  0.0827  2.4394
  295MOL0     H38910   3.170   0.729   3.453 -0.4786  3.1146  0.1576
  295MOL0     H38911   3.304   0.746   3.339 -0.6335  0.6251 -2.8136
  295MOL0     H38912   3.025   0.696   3.246 -1.2017 -0.0317  1.5432
  295MOL0     H38913   3.181   0.707   3.152 -2.0154 -0.0691 -0.3489
  295MOL0     H38914   3.082   0.498   3.353 -1.4650 -1.5672 -1.6278
  295MOL0     H38915   3.255   0.516   3.320 -0.1147 -0.4256 -1.6581
  295MOL0     H38916   3.189   0.495   3.067 -0.4028 -2.4089 -0.5154
  295MOL0     H38917   3.034   0.459   3.124 -1.0602  0.4235 -0.1358
  295MOL0     H38918   3.194   0.258   3.064  1.3722  0.5308 -0.1598
  295MOL0     H38919   3.278   0.294   3.217  0.2230 -0.1651 -0.0684
  295MOL0     H38920   3.070   0.255   3.340  4.0134 -3.0701  1.0938
  295MOL0     H38921   3.100   0.107   3.237  2.8869  0.1001 -3.1307
  295MOL0     H38922   3.367   1.058   3.668  1.1747  2.3836  0.8778
  295MOL0     H38923   3.549   1.162   3.787 -2.8995  0.1039 -0.5013
  295MOL0     H38924   3.964   1.238   3.862  0.8227 -0.5427  1.7823
  295MOL0     H38925   4.131   1.384   4.027  2.4326  2.6176 -0.7236
  295MOL0     H38926   3.774   3.176   4.873  1.2335  1.0453 -3.4622
  295MOL0     H38927   3.614   3.312   4.840  1.2867  1.0702 -4.1636
  295MOL0     H38928   3.164   3.387   4.449  0.9389 -1.2947  1.7054
  295MOL0     H38929   3.084   3.625   4.405 -0.6244 -2.1529  0.6467
  295MOL0     H38930   2.944   3.788   4.588 -0.9155  1.8646  1.2959
  295MOL0     H38931   2.985   3.821   4.421 -3.2524  0.0939  0.3940
  295MOL0     H38932   2.848   3.973   4.492  0.1150 -0.8187 -0.9706
  295MOL0     H38933   2.914   3.988   4.647 -2.8025 -2.5963 -0.9612
  295MOL0     H38934   3.019   4.089   4.385  1.2237  1.8136 -0.8124
  295MOL0     H38935   3.134   4.077   4.511  0.7313 -0.3582 -1.0127
  295MOL0     H38936   3.044   4.324   4.531  0.0575  0.4590  3.0775
  295MOL0     H38937   2.888   4.267   4.480  0.1207  1.0690 -0.3199
  295MOL0     H38938   2.885   4.292   4.893 -2.4182 -0.0055 -1.2750
  295MOL0     H38939   3.314   3.775   4.730 -2.9473 -0.3600  2.3313
  295MOL0     H38940   3.386   3.541   4.787 -0.1977  0.6307  0.7656
  296MOL0     O38941   2.565   4.555   1.832 -0.6291 -0.2957 -0.5438
  296MOL0     C38942   2.602   4.439   1.806  0.7340 -0.4107  0.3779
  296MOL0     O38943   2.700   4.409   1.717  0.1874  0.3996 -0.2338
  296MOL0     C38944   2.793   4.504   1.710 -0.6330  0.0935 -0.1808
  296MOL0     C38945   2.811   4.583   1.598 -0.5006 -0.6292  1.3382
  296MOL0     C38946   2.906   4.686   1.600 -0.4582 -0.2658 -0.8598
  296MOL0     C38947   2.991   4.695   1.719 -0.1426  0.4489  0.3748
  296MOL0     O38948   3.097   4.776   1.731 -0.3692  0.3915 -0.0766
  296MOL0     C38949   3.120   4.893   1.654 -0.2042 -0.1132 -0.8546
  296MOL0     C38950   3.246   4.959   1.696 -1.0618  0.0917 -0.0651
  296MOL0     C38951   3.254   5.038   1.831  0.7068 -1.2041 -0.2407
  296MOL0     C38952   3.231   4.947   1.951  0.4551  0.1921 -0.3092
  296MOL0     C38953   3.238   5.037   2.080  0.0416 -0.2751  0.3252
  296MOL0     C38954   3.213   4.976   2.224 -0.8937  0.4519  1.1483
  296MOL0     C38955   3.294   5.025   2.343  0.0780 -0.7888  0.2997
  296MOL0     C38956   3.265   4.934   2.463 -0.3243 -0.1304  0.5063
  296MOL0     N38957   3.317   5.003   2.578  0.4169 -0.5550 -0.3212
  296MOL0     C38958   3.293   5.140   2.617 -0.2392 -0.3754  0.7228
  296MOL0     C38959   3.357   5.161   2.739  1.3250  0.3249 -0.1506
  296MOL0     C38960   3.328   5.270   2.839  0.3574 -0.6334 -0.8944
  296MOL0     C38961   3.391   5.409   2.797 -0.1136  0.6925 -0.4316
  296MOL0     C38962   3.534   5.448   2.838  0.5144  0.2221 -0.5019
  296MOL0     C38963   3.627   5.348   2.781 -0.0883 -0.6107  0.3528
  296MOL0     O38964   3.759   5.415   2.801  0.4387 -0.6279  0.5481
  296MOL0     C38965   3.854   5.322   2.777 -1.7428 -0.2695  0.1996
  296MOL0     C38966   3.844   5.190   2.723  1.3876 -0.5249  0.2140
  296MOL0     C38967   3.944   5.108   2.689  0.2807 -0.4300 -0.3341
  296MOL0     C38968   4.074   5.142   2.710  0.5391  0.2531  0.6878
  296MOL0     C38969   4.186   5.063   2.661 -0.2904 -0.6567 -0.8049
  296MOL0     O38970   4.317   5.111   2.669  0.7595 -0.3264  0.3011
  296MOL0     C38971   4.425   5.035   2.649 -0.8524 -0.0407  1.1609
  296MOL0     C38972   4.516   5.003   2.752  0.4935 -0.9602 -0.1209
  296MOL0     C38973   4.638   4.939   2.718 -0.8160 -0.0804  0.5061
  296MOL0     C38974   4.657   4.899   2.584  0.2903  0.1889 -0.1976
  296MOL0     O38975   4.771   4.824   2.561  0.6928  0.0952  0.1350
  296MOL0     C38976   4.861   4.884   2.470  0.1715  1.6162 -0.1443
  296MOL0     C38977   4.950   4.978   2.551  0.3217  0.3015 -0.1394
  296MOL0     C38978   4.905   5.127   2.560 -0.6511 -0.1461 -0.1101
  296MOL0     C38979   4.990   5.201   2.662 -0.5424  0.0631 -0.0833
  296MOL0     C38980   5.148   5.207   2.629  0.0883  0.5540  0.1724
  296MOL0     C38981   5.218   5.299   2.731  0.3364 -1.1293 -0.0607
  296MOL0     C38982   5.215   5.446   2.706  0.1900 -0.7562  0.3137
  296MOL0     C38983   5.116   5.517   2.794  0.1199 -0.1460 -0.0249
  296MOL0    Cl38984   5.140   5.683   2.751  0.5140  0.2952  0.1028
  296MOL0     C38985   4.560   4.916   2.484  0.5169  0.4464 -0.7924
  296MOL0     C38986   4.448   4.985   2.516  1.4254  0.5187 -0.3000
  296MOL0     O38987   4.145   4.964   2.608 -0.0086 -0.3663  0.6179
  296MOL0     C38988   4.093   5.274   2.755  0.2702  0.2464 -0.2605
  296MOL0     C38989   3.986   5.363   2.798 -0.5420  0.9004  0.9908
  296MOL0     N38990   3.421   5.035   2.761 -1.1293 -0.1105 -0.3261
  296MOL0     N38991   3.399   4.954   2.667 -0.2248 -0.3640  0.2590
  296MOL0     C38992   2.997   4.589   1.810 -0.0536 -0.4767 -0.3173
  296MOL0     C38993   2.887   4.503   1.812  0.3234 -0.3631  0.2856
  296MOL0     C38994   2.558   4.326   1.890 -1.0696 -1.2835 -0.4114
  296MOL0     C38995   2.618   4.207   1.874  0.0486  0.1990 -0.1205
  296MOL0     C38996   2.610   4.113   1.968 -0.9046  0.6485  0.1591
  296MOL0     C38997   2.521   4.124   2.080  0.6411  0.3059  0.6351
  296MOL0     O38998   2.521   4.013   2.166 -0.3142  0.6459 -0.0934
  296MOL0     C38999   2.477   4.034   2.300  0.2781  0.8542 -0.7452
  296MOL0     C39000   2.519   3.913   2.389 -0.0513 -0.2918 -0.0599
  296MOL0     C39001   2.670   3.921   2.427 -1.0923 -0.6780  0.2985
  296MOL0     C39002   2.686   3.861   2.568  0.4184  0.2384 -0.5592
  296MOL0     C39003   2.646   3.717   2.547 -0.0762 -0.6322  0.0375
  296MOL0     C39004   2.654   3.596   2.551 -0.0740 -0.4582 -0.4732
  296MOL0     C39005   2.447   4.238   2.100 -1.1238 -0.0257  0.1752
  296MOL0     C39006   2.468   4.341   2.000  1.5899  0.1470  1.3733
  296MOL0     H39007   2.739   4.573   1.518 -0.1010 -4.4250  1.2782
  296MOL0     H39008   2.913   4.757   1.518 -3.6396 -0.9440 -1.8691
  296MOL0     H39009   3.027   4.950   1.662 -0.4910 -0.8534  2.9304
  296MOL0     H39010   3.139   4.872   1.548  0.0689 -0.4036 -0.7483
  296MOL0     H39011   3.271   5.033   1.619  1.3087  0.8316  1.2908
  296MOL0     H39012   3.327   4.885   1.691 -0.1016  1.1531 -0.7321
  296MOL0     H39013   3.179   5.118   1.825  2.0523 -0.0119 -3.2980
  296MOL0     H39014   3.348   5.090   1.848 -0.5688  0.8522  0.9750
  296MOL0     H39015   3.129   4.908   1.963  0.9049 -1.9182 -2.6734
  296MOL0     H39016   3.310   4.872   1.954  1.3874  1.1739  0.2023
  296MOL0     H39017   3.178   5.128   2.071  1.8966  1.5170  3.8546
  296MOL0     H39018   3.345   5.062   2.082 -0.0219  0.0312  0.0239
  296MOL0     H39019   3.252   4.874   2.216 -0.5266  0.7341 -2.1115
  296MOL0     H39020   3.105   4.978   2.241 -1.6549  0.3572 -2.6805
  296MOL0     H39021   3.402   5.041   2.343 -0.3642  3.3180  1.1822
  296MOL0     H39022   3.248   5.122   2.367 -0.0681 -1.2869  2.2037
  296MOL0     H39023   3.300   4.831   2.455 -3.2888 -1.2087  0.0523
  296MOL0     H39024   3.158   4.935   2.485 -0.4972  2.2972 -0.1466
  296MOL0     H39025   3.230   5.214   2.570 -0.0087 -0.1200  0.8116
  296MOL0     H39026   3.352   5.232   2.939 -2.1125 -0.6785 -0.2493
  296MOL0     H39027   3.222   5.298   2.840 -0.3061 -2.9052 -0.1029
  296MOL0     H39028   3.326   5.484   2.842 -0.2353  1.6269 -2.1208
  296MOL0     H39029   3.380   5.418   2.689 -2.0527 -2.0552 -0.5844
  296MOL0     H39030   3.559   5.544   2.794  1.8401 -0.2653 -0.8614
  296MOL0     H39031   3.544   5.464   2.946 -0.0736 -1.2642 -0.1936
  296MOL0     H39032   3.605   5.333   2.675 -1.9131 -1.8917  0.8604
  296MOL0     H39033   3.614   5.251   2.830 -1.3765  0.5193  2.3855
  296MOL0     H39034   3.752   5.139   2.698  1.7915  0.7130 -5.1568
  296MOL0     H39035   3.906   5.012   2.656 -2.9123  1.3609 -2.4206
  296MOL0     H39036   4.485   5.032   2.852 -0.3031  0.7501 -0.8074
  296MOL0     H39037   4.713   4.909   2.790  0.3632  1.4708 -0.0448
  296MOL0     H39038   4.806   4.929   2.387 -0.7482 -2.3247 -1.8878
  296MOL0     H39039   4.920   4.797   2.440 -0.7788  1.0628 -0.4618
  296MOL0     H39040   5.051   4.995   2.513  0.6399  4.8770  2.0858
  296MOL0     H39041   4.942   4.945   2.655 -3.2270  2.9036  0.6289
  296MOL0     H39042   4.802   5.131   2.598 -0.4548  0.5903  0.3585
  296MOL0     H39043   4.920   5.180   2.465  0.6039  0.0478  0.1825
  296MOL0     H39044   4.962   5.306   2.654 -0.2634  0.0707 -1.1210
  296MOL0     H39045   4.968   5.154   2.758  3.3011  3.5224  2.9145
  296MOL0     H39046   5.162   5.235   2.524 -0.0112 -4.1288 -1.3180
  296MOL0     H39047   5.192   5.108   2.644  0.1444  0.7600  1.4968
  296MOL0     H39048   5.324   5.272   2.740  0.2439 -0.9099  2.1902
  296MOL0     H39049   5.164   5.274   2.823 -2.3731  2.4490 -0.4735
  296MOL0     H39050   5.316   5.487   2.722 -1.5219  4.7501 -0.8108
  296MOL0     H39051   5.188   5.455   2.601  1.1427 -2.9211 -0.1829
  296MOL0     H39052   5.141   5.505   2.900  2.1901  5.3317  0.4310
  296MOL0     H39053   5.014   5.486   2.771 -0.8960  1.8272  1.4910
  296MOL0     H39054   4.572   4.866   2.388  0.1980 -2.0464  0.3767
  296MOL0     H39055   4.373   4.989   2.438  2.2102  1.9480 -1.0264
  296MOL0     H39056   4.187   5.326   2.771  1.9191 -2.1990 -1.3593
  296MOL0     H39057   4.000   5.459   2.846 -3.9919  2.1820 -0.3224
  296MOL0     H39058   3.070   4.596   1.890  0.4035 -0.3119 -0.7452
  296MOL0     H39059   2.873   4.426   1.887  1.1622  2.1965  3.3119
  296MOL0     H39060   2.681   4.181   1.789 -2.0608  0.5392 -1.8628
  296MOL0     H39061   2.659   4.017   1.957  0.6580  1.1689  2.0201
  296MOL0     H39062   2.368   4.034   2.311  0.4061 -0.8249  1.3011
  296MOL0     H39063   2.519   4.125   2.344  3.2563 -0.1104 -1.3656
  296MOL0     H39064   2.466   3.928   2.483  5.3320  4.7326  2.7506
  296MOL0     H39065   2.492   3.818   2.340 -0.2131 -1.1593  1.6611
  296MOL0     H39066   2.702   4.025   2.423  0.1946 -1.0843 -1.7595
  296MOL0     H39067   2.733   3.872   2.352  1.3348  0.4306  1.4892
  296MOL0     H39068   2.791   3.869   2.596  0.4433  1.6578 -0.9680
  296MOL0     H39069   2.614   3.902   2.640  1.4334 -0.6333  0.9916
  296MOL0     H39070   2.671   3.493   2.575  2.4854 -0.0773 -0.2680
  296MOL0     H39071   2.372   4.265   2.173  0.1160  4.7177  0.0206
  296MOL0     H39072   2.404   4.429   2.001 -0.8113 -1.4959  1.6478
  297MOL0     O39073   3.779   0.002   2.451  0.5915 -0.6176  0.1155
  297MOL0     C39074   3.784  -0.051   2.561 -1.1382  0.1950  0.7797
  297MOL0     O39075   3.745  -0.176   2.596 -0.0455  0.5212  0.2012
  297MOL0     C39076   3.711  -0.273   2.506 -0.1433 -0.0121  0.1249
  297MOL0     C39077   3.772  -0.403   2.505 -0.7656 -0.9097 -0.1937
  297MOL0     C39078   3.745  -0.491   2.400  0.3420  0.1575  0.3059
  297MOL0     C39079   3.654  -0.463   2.305 -0.0043 -0.2869  0.0575
  297MOL0     O39080   3.630  -0.539   2.197  0.3196  1.2151 -0.1364
  297MOL0     C39081   3.558  -0.656   2.235  0.1762  0.3561  0.2955
  297MOL0     C39082   3.499  -0.718   2.111  0.1475  0.8378  0.0535
  297MOL0     C39083   3.484  -0.872   2.121 -0.1695 -0.6814  0.8856
  297MOL0     C39084   3.482  -0.934   1.972  0.8843  0.5614  0.3682
  297MOL0     C39085   3.367  -0.883   1.891  1.0199  0.4654 -0.6221
  297MOL0     C39086   3.359  -0.958   1.757 -0.8879  0.9073 -0.3030
  297MOL0     C39087   3.246  -0.892   1.669 -0.3812  0.1126  0.4699
  297MOL0     C39088   3.279  -0.737   1.648  0.2619  0.6536 -0.5638
  297MOL0     N39089   3.219  -0.676   1.535  0.1775 -0.1096 -0.5781
  297MOL0     C39090   3.254  -0.706   1.402  0.3506  0.2611 -0.3068
  297MOL0     C39091   3.158  -0.644   1.332 -0.6882  0.3288  0.8167
  297MOL0     C39092   3.127  -0.662   1.183  0.1938  0.0007  0.6686
  297MOL0     C39093   3.200  -0.562   1.090 -0.4126 -0.4426 -0.3197
  297MOL0     C39094   3.120  -0.434   1.092  0.2770 -0.8140 -0.5591
  297MOL0     C39095   3.145  -0.344   0.967 -0.8696 -0.8360 -0.4346
  297MOL0     O39096   3.064  -0.227   0.974  0.5123  0.4486 -0.3821
  297MOL0     C39097   3.055  -0.147   0.867  0.8365  0.0878 -0.0543
  297MOL0     C39098   3.116  -0.165   0.746 -0.9009  0.1685  0.6307
  297MOL0     C39099   3.085  -0.081   0.628  0.4492  0.1072 -0.4724
  297MOL0     C39100   2.987   0.022   0.643 -0.8023  0.2871 -0.0925
  297MOL0     C39101   2.947   0.104   0.524 -0.0154 -0.6487  0.0451
  297MOL0     O39102   2.874   0.218   0.550 -1.1604 -0.2653  0.0631
  297MOL0     C39103   2.836   0.296   0.445  0.5229  0.2064  0.7779
  297MOL0     C39104   2.743   0.251   0.354 -0.0182 -0.6638  0.2444
  297MOL0     C39105   2.726   0.339   0.243 -0.0308 -0.2313 -0.0988
  297MOL0     C39106   2.794   0.461   0.218  0.0235  0.7606 -0.2198
  297MOL0     O39107   2.786   0.546   0.108  0.0252  0.0205 -0.2662
  297MOL0     C39108   2.676   0.529   0.009  0.0995  0.4849 -0.9401
  297MOL0     C39109   2.677   0.605  -0.121 -0.1298  0.3208 -1.6921
  297MOL0     C39110   2.644   0.749  -0.092  1.0137 -0.6775 -0.4049
  297MOL0     C39111   2.625   0.840  -0.208  0.2180 -0.1003 -0.7623
  297MOL0     C39112   2.536   0.957  -0.185  0.3058  0.1759  0.6960
  297MOL0     C39113   2.553   1.075  -0.273  0.2353 -0.0181  0.2786
  297MOL0     C39114   2.459   1.189  -0.258 -0.0680  0.4266 -0.8488
  297MOL0     C39115   2.511   1.317  -0.317 -0.0446 -0.0722  0.0129
  297MOL0    Cl39116   2.655   1.386  -0.227 -0.2002 -0.1214  0.0087
  297MOL0     C39117   2.868   0.504   0.326  0.2961  0.4397 -0.3216
  297MOL0     C39118   2.892   0.421   0.434 -0.5839  0.8314  0.2230
  297MOL0     O39119   2.976   0.061   0.413 -0.7835 -0.2292 -0.0101
  297MOL0     C39120   2.932   0.041   0.766 -0.7280 -0.5698 -0.5131
  297MOL0     C39121   2.963  -0.043   0.879  1.0192 -0.1215  0.8691
  297MOL0     N39122   3.075  -0.579   1.411  0.0452 -0.3756 -0.2875
  297MOL0     N39123   3.120  -0.588   1.530  0.2954 -0.9687 -0.1713
  297MOL0     C39124   3.574  -0.341   2.320  0.7745 -0.2223 -0.5985
  297MOL0     C39125   3.601  -0.248   2.418 -0.1199 -0.0059 -0.3958
  297MOL0     C39126   3.847   0.030   2.667 -0.8044  0.2870  1.1882
  297MOL0     C39127   3.853  -0.010   2.805 -0.1928 -0.2715 -0.1688
  297MOL0     C39128   3.904   0.084   2.905 -0.2743 -0.4755  0.3383
  297MOL0     C39129   3.959   0.209   2.875  0.0979  0.1683  0.2083
  297MOL0     O39130   4.019   0.285   2.976 -0.5004 -0.4097  0.5717
  297MOL0     C39131   4.023   0.228   3.109 -0.9197  0.0195  0.3902
  297MOL0     C39132   4.118   0.306   3.203 -0.3986  0.1483  0.5575
  297MOL0     C39133   4.260   0.316   3.133 -0.4944 -1.1735 -0.2578
  297MOL0     C39134   4.345   0.405   3.231 -0.3214 -0.1456 -0.2952
  297MOL0     C39135   4.487   0.369   3.211 -0.3479 -0.8514 -0.0036
  297MOL0     C39136   4.607   0.358   3.195  1.0900  0.3979  0.2070
  297MOL0     C39137   3.965   0.245   2.741  0.9753  0.0313 -0.1526
  297MOL0     C39138   3.906   0.156   2.643  0.1526  0.4784 -0.9175
  297MOL0     H39139   3.845  -0.433   2.579 -1.1755  0.9747  1.0437
  297MOL0     H39140   3.792  -0.589   2.394 -2.2621 -1.1546  0.2903
  297MOL0     H39141   3.481  -0.638   2.312 -0.9355 -2.0821 -0.1375
  297MOL0     H39142   3.626  -0.730   2.279  0.4947 -0.0309 -0.8340
  297MOL0     H39143   3.567  -0.692   2.030  0.6566  3.1923  1.1686
  297MOL0     H39144   3.403  -0.670   2.094 -0.3914 -0.6283 -1.2671
  297MOL0     H39145   3.395  -0.913   2.170  0.8983 -2.8513  1.1466
  297MOL0     H39146   3.569  -0.911   2.178 -0.2250 -1.1295  0.6717
  297MOL0     H39147   3.574  -0.915   1.918  2.1323  2.4401  2.9420
  297MOL0     H39148   3.453  -1.039   1.983 -1.7946  0.8976 -2.2566
  297MOL0     H39149   3.371  -0.773   1.886  0.3144  0.4616 -1.7073
  297MOL0     H39150   3.277  -0.913   1.944  1.3760 -0.5076 -0.5608
  297MOL0     H39151   3.354  -1.064   1.784  1.9863  1.1482  1.6782
  297MOL0     H39152   3.456  -0.946   1.709  0.6257  1.4970  2.6522
  297MOL0     H39153   3.244  -0.935   1.568  3.6455  0.6407  0.0117
  297MOL0     H39154   3.148  -0.911   1.714 -0.4918 -1.8827 -0.4857
  297MOL0     H39155   3.386  -0.725   1.633  0.6077 -2.5721 -1.5550
  297MOL0     H39156   3.249  -0.686   1.740  0.1490  0.9279 -0.7526
  297MOL0     H39157   3.333  -0.770   1.364  0.1435  0.7297 -1.5501
  297MOL0     H39158   3.021  -0.642   1.170  0.2602  0.4221  0.7564
  297MOL0     H39159   3.159  -0.759   1.143  0.8331  0.3285  0.3644
  297MOL0     H39160   3.190  -0.611   0.992  1.2078 -1.0067 -0.2323
  297MOL0     H39161   3.305  -0.539   1.111  0.2826 -1.9903 -1.8274
  297MOL0     H39162   3.013  -0.454   1.091 -0.1208  0.9994  0.5276
  297MOL0     H39163   3.149  -0.381   1.183 -2.8964 -2.0109  1.2971
  297MOL0     H39164   3.121  -0.394   0.872 -1.6034 -0.3791 -0.5059
  297MOL0     H39165   3.253  -0.328   0.970 -0.9228 -0.4732 -0.4487
  297MOL0     H39166   3.184  -0.248   0.729 -0.0204  0.6907  1.5269
  297MOL0     H39167   3.124  -0.093   0.528 -0.5363  0.7492 -0.9570
  297MOL0     H39168   2.692   0.155   0.364  1.7000 -1.6343  0.0259
  297MOL0     H39169   2.661   0.299   0.166 -0.0472  0.7544 -0.6062
  297MOL0     H39170   2.580   0.542   0.060  0.9123 -3.3610  2.0345
  297MOL0     H39171   2.687   0.423  -0.014  1.7866  0.3440  0.2762
  297MOL0     H39172   2.598   0.568  -0.188 -1.7208  1.2414 -0.4000
  297MOL0     H39173   2.776   0.584  -0.161  0.6699  1.7579 -0.5601
  297MOL0     H39174   2.702   0.800  -0.015 -0.4716  2.6123 -1.2814
  297MOL0     H39175   2.542   0.743  -0.052  0.3787 -1.2806 -2.0004
  297MOL0     H39176   2.722   0.885  -0.234  0.2717  2.0300  2.5792
  297MOL0     H39177   2.585   0.790  -0.297 -0.7206 -0.7197 -0.0024
  297MOL0     H39178   2.561   0.984  -0.082  0.3597 -1.6817  1.1987
  297MOL0     H39179   2.433   0.923  -0.199  0.3543  0.2140  0.2461
  297MOL0     H39180   2.544   1.046  -0.379 -0.2165  3.3305 -0.7055
  297MOL0     H39181   2.658   1.103  -0.262 -0.0027 -0.0719  3.6178
  297MOL0     H39182   2.373   1.174  -0.324  0.9615  2.1763 -2.7388
  297MOL0     H39183   2.429   1.207  -0.155  0.1577 -0.4385 -0.6272
  297MOL0     H39184   2.425   1.383  -0.304 -1.9897 -1.9377 -2.5614
  297MOL0     H39185   2.532   1.315  -0.424 -2.1720  2.1050 -0.5302
  297MOL0     H39186   2.902   0.606   0.338 -0.8801  0.9758 -1.3132
  297MOL0     H39187   2.952   0.461   0.515 -1.6810 -2.8680  3.1716
  297MOL0     H39188   2.865   0.127   0.767  1.7461  1.5394 -2.3414
  297MOL0     H39189   2.915  -0.021   0.973 -1.9337  2.3649 -1.0216
  297MOL0     H39190   3.502  -0.330   2.239 -3.0493 -2.3340  2.1959
  297MOL0     H39191   3.566  -0.145   2.422 -1.8746 -0.5381 -0.9167
  297MOL0     H39192   3.812  -0.103   2.844  1.1049 -1.3062 -1.1643
  297MOL0     H39193   3.898   0.037   3.002 -1.5426 -0.3294  0.3460
  297MOL0     H39194   4.063   0.126   3.105 -1.5549 -0.3276  2.1046
  297MOL0     H39195   3.926   0.225   3.158 -0.6020  4.2476  1.6471
  297MOL0     H39196   4.072   0.400   3.234 -3.8795 -0.0500 -3.1421
  297MOL0     H39197   4.129   0.244   3.292  2.2429 -1.4270 -0.7608
  297MOL0     H39198   4.257   0.368   3.037 -1.5752  0.1458  0.4534
  297MOL0     H39199   4.311   0.220   3.119 -0.6715 -1.9608  3.4695
  297MOL0     H39200   4.336   0.513   3.216 -0.9917 -0.4647 -2.7514
  297MOL0     H39201   4.319   0.383   3.334 -0.7217  0.2596 -0.3037
  297MOL0     H39202   4.701   0.309   3.181 -0.7314 -3.5497  0.4411
  297MOL0     H39203   4.016   0.332   2.702 -2.3196  1.2942 -2.0357
  297MOL0     H39204   3.900   0.200   2.544 -2.9484 -1.8247 -1.8993
  298MOL0     O39205   2.843  10.529   6.601 -0.4284 -0.2519 -0.4890
  298MOL0     C39206   2.829  10.652   6.623  0.1409  0.9608  0.1540
  298MOL0     O39207   2.816  10.739   6.520  0.2145 -0.0136  0.5429
  298MOL0     C39208   2.802  10.700   6.389 -0.2620  0.8192 -1.1659
  298MOL0     C39209   2.741  10.573   6.344  0.1135  0.0024 -0.0986
  298MOL0     C39210   2.737  10.554   6.206 -0.4107 -0.8339  0.3176
  298MOL0     C39211   2.785  10.648   6.114 -0.2316  0.6022  0.3624
  298MOL0     O39212   2.762  10.625   5.974 -0.1640  0.0745 -0.2083
  298MOL0     C39213   2.798  10.714   5.872 -0.0438 -0.1740 -1.3746
  298MOL0     C39214   2.792  10.639   5.735 -0.6143  0.9396 -0.9662
  298MOL0     C39215   2.662  10.571   5.684 -0.4616  0.5179 -0.2120
  298MOL0     C39216   2.544  10.668   5.656 -0.3504 -0.2159  0.2847
  298MOL0     C39217   2.412  10.591   5.633 -0.2779  0.1919  0.0233
  298MOL0     C39218   2.285  10.671   5.619  1.2955 -0.0607  0.1375
  298MOL0     C39219   2.155  10.601   5.580  0.1336 -0.5881 -0.3829
  298MOL0     C39220   2.030  10.693   5.558  0.2864  0.2535 -0.0065
  298MOL0     N39221   2.057  10.830   5.508  0.4507  0.5860 -0.5672
  298MOL0     C39222   2.085  10.871   5.384  0.2089  0.6698 -0.4569
  298MOL0     C39223   2.106  11.010   5.394 -0.0877  0.0295  0.5981
  298MOL0     C39224   2.141  11.093   5.270 -0.6029 -0.9499  1.2751
  298MOL0     C39225   2.292  11.113   5.234 -0.2019 -0.0335  0.1203
  298MOL0     C39226   2.370  10.988   5.226 -0.1906  0.1334  0.4269
  298MOL0     C39227   2.517  11.013   5.206  0.3525  0.5450 -0.2708
  298MOL0     O39228   2.591  10.884   5.202  0.1905  0.1862  0.0096
  298MOL0     C39229   2.728  10.892   5.193 -0.6983 -0.3244 -0.6870
  298MOL0     C39230   2.807  10.979   5.261  0.1735 -0.9449  0.6337
  298MOL0     C39231   2.945  10.996   5.235  0.3975  0.0224 -0.5763
  298MOL0     C39232   3.011  10.919   5.135 -0.8463  0.4338  0.3683
  298MOL0     C39233   3.158  10.922   5.124  0.1207 -1.0624 -0.9570
  298MOL0     O39234   3.217  10.825   5.060 -0.1831 -0.3588 -0.2429
  298MOL0     C39235   3.348  10.819   5.038  0.6427 -0.0506  0.1454
  298MOL0     C39236   3.392  10.744   4.923 -0.0652  0.1324 -0.3586
  298MOL0     C39237   3.531  10.720   4.900  0.6758 -0.7916  0.1944
  298MOL0     C39238   3.624  10.792   4.983  0.8289  0.4948 -0.2020
  298MOL0     O39239   3.758  10.797   4.965  0.1382  0.2421 -0.3970
  298MOL0     C39240   3.807  10.741   4.846  0.2917 -0.1064 -0.1141
  298MOL0     C39241   3.843  10.596   4.887  0.3347 -0.3217 -0.8712
  298MOL0     C39242   3.942  10.587   5.001  0.3462  0.2993  0.2729
  298MOL0     C39243   3.945  10.444   5.045  0.0238 -0.3228  0.6947
  298MOL0     C39244   4.064  10.447   5.146 -0.5386  0.2475 -0.5886
  298MOL0     C39245   4.094  10.298   5.184 -1.2176 -1.2959  0.9844
  298MOL0     C39246   4.227  10.289   5.274  0.5157  0.5907 -0.0498
  298MOL0     C39247   4.285  10.142   5.249 -0.4849 -0.7566  0.3263
  298MOL0    Cl39248   4.432  10.119   5.342  0.1922 -0.0005 -0.1686
  298MOL0     C39249   3.575  10.869   5.092  0.3149  0.6517  0.9059
  298MOL0     C39250   3.443  10.881   5.116  0.3122 -1.1149  0.3415
  298MOL0     O39251   3.208  11.018   5.182 -0.4843  0.0351 -0.0783
  298MOL0     C39252   2.941  10.819   5.073  0.7467 -0.0676  0.1361
  298MOL0     C39253   2.799  10.810   5.107 -0.0373 -0.0769  1.4789
  298MOL0     N39254   2.087  11.048   5.527  1.3285  0.4546 -0.3324
  298MOL0     N39255   2.053  10.939   5.596 -0.0787 -0.7083  1.0013
  298MOL0     C39256   2.823  10.777   6.166  0.5850  0.1195 -1.2113
  298MOL0     C39257   2.823  10.808   6.302  1.2707 -0.9557 -0.1055
  298MOL0     C39258   2.828  10.699   6.759  0.8461 -0.0769  0.0736
  298MOL0     C39259   2.808  10.833   6.783  0.7050 -0.2097  0.2037
  298MOL0     C39260   2.813  10.883   6.918  0.4449  1.1234  0.1718
  298MOL0     C39261   2.843  10.803   7.023  0.3780 -0.7796 -0.0300
  298MOL0     O39262   2.856  10.867   7.147  0.3624  0.5369  1.2304
  298MOL0     C39263   2.876  11.013   7.169 -0.4793 -0.2717  0.2839
  298MOL0     C39264   2.906  11.038   7.313 -0.2062 -0.0765 -0.9931
  298MOL0     C39265   2.912  11.193   7.320  0.2105  0.9048  0.3512
  298MOL0     C39266   2.966  11.239   7.459 -0.3899 -0.4045  0.1458
  298MOL0     C39267   2.898  11.169   7.570 -0.4448  0.0684  0.0441
  298MOL0     C39268   2.856  11.121   7.677 -0.2531  0.1241 -0.5983
  298MOL0     C39269   2.867  10.673   6.999 -0.4249  1.1363  0.5175
  298MOL0     C39270   2.856  10.616   6.872 -0.4660  0.0246 -0.7840
  298MOL0     H39271   2.726  10.487   6.409  3.3942 -0.7115 -0.1166
  298MOL0     H39272   2.706  10.461   6.159 -3.9873  0.7181 -0.7154
  298MOL0     H39273   2.900  10.753   5.871  1.1953 -3.1962 -2.6701
  298MOL0     H39274   2.720  10.792   5.876 -0.0437 -0.1087 -2.4656
  298MOL0     H39275   2.873  10.566   5.735  2.6515  4.3034 -0.8858
  298MOL0     H39276   2.825  10.706   5.655  3.5145 -1.2663 -1.3869
  298MOL0     H39277   2.621  10.507   5.763 -0.4603  2.2789  1.2789
  298MOL0     H39278   2.690  10.506   5.600 -3.5597 -2.4843  0.8425
  298MOL0     H39279   2.522  10.730   5.743 -2.1446 -1.1904  0.5712
  298MOL0     H39280   2.576  10.733   5.573  0.5518  0.3648  1.0610
  298MOL0     H39281   2.411  10.527   5.722  2.1572 -0.9385 -0.6571
  298MOL0     H39282   2.438  10.542   5.539  0.0835  0.6408 -0.1142
  298MOL0     H39283   2.313  10.753   5.552  3.9056  0.0355  1.2483
  298MOL0     H39284   2.262  10.712   5.718 -1.1446 -2.4786  0.6877
  298MOL0     H39285   2.183  10.546   5.490  0.2459  1.4162 -1.6370
  298MOL0     H39286   2.112  10.529   5.650 -1.9681  1.1609  0.2289
  298MOL0     H39287   1.982  10.712   5.654 -1.8672 -1.8137 -0.5819
  298MOL0     H39288   1.955  10.635   5.504  0.3505  0.0256  0.1501
  298MOL0     H39289   2.103  10.825   5.288 -0.5704  1.3000 -0.9216
  298MOL0     H39290   2.102  11.195   5.273  0.9690 -0.0622 -2.5355
  298MOL0     H39291   2.088  11.052   5.183 -0.0040  0.8842 -0.0027
  298MOL0     H39292   2.346  11.171   5.309  0.7938 -1.7069  0.7652
  298MOL0     H39293   2.302  11.168   5.141 -2.3243  0.6613  0.2512
  298MOL0     H39294   2.359  10.928   5.317 -3.3364 -0.0890  0.0377
  298MOL0     H39295   2.330  10.929   5.142  0.4884 -2.0346  1.5511
  298MOL0     H39296   2.563  11.071   5.286  1.5464  1.3445 -1.4860
  298MOL0     H39297   2.530  11.068   5.112  0.7594  0.4088 -0.2955
  298MOL0     H39298   2.765  11.044   5.336  0.0628 -1.5847  1.1361
  298MOL0     H39299   3.003  11.076   5.280 -1.0841  1.9264 -1.9093
  298MOL0     H39300   3.320  10.697   4.856  0.8575 -1.3437 -0.3666
  298MOL0     H39301   3.560  10.651   4.822 -1.0107  0.7693 -1.9487
  298MOL0     H39302   3.893  10.797   4.808  0.0573 -0.1458 -0.7195
  298MOL0     H39303   3.735  10.749   4.764 -1.2035  5.6135  1.3366
  298MOL0     H39304   3.881  10.534   4.805 -0.5833 -3.7733  1.1103
  298MOL0     H39305   3.755  10.539   4.917 -1.2743  2.7644  0.7946
  298MOL0     H39306   3.918  10.655   5.084  0.9922 -0.3650  1.0208
  298MOL0     H39307   4.039  10.623   4.965  0.0292  0.8254 -0.0719
  298MOL0     H39308   3.849  10.432   5.095 -1.5601  0.2412 -2.0313
  298MOL0     H39309   3.951  10.374   4.962  0.0711  1.0043 -0.4657
  298MOL0     H39310   4.043  10.501   5.239 -1.4252 -2.4434  0.8976
  298MOL0     H39311   4.149  10.489   5.091  0.9681  1.6502  2.5074
  298MOL0     H39312   4.114  10.246   5.090 -0.8008 -1.3113  1.0816
  298MOL0     H39313   4.006  10.257   5.234 -2.2463 -2.8204 -1.8560
  298MOL0     H39314   4.307  10.355   5.239  1.3632 -1.1299 -1.5437
  298MOL0     H39315   4.208  10.315   5.379  1.5122 -0.0763  0.3090
  298MOL0     H39316   4.298  10.125   5.142 -2.1641 -0.8393  0.0989
  298MOL0     H39317   4.210  10.065   5.272  1.0996 -2.5545 -0.2064
  298MOL0     H39318   3.661  10.912   5.143  1.4215 -2.4464  1.8732
  298MOL0     H39319   3.421  10.940   5.205  0.2496  0.1904 -0.5199
  298MOL0     H39320   2.987  10.746   5.006 -1.1587  0.5001 -1.8928
  298MOL0     H39321   2.737  10.731   5.066  1.1257 -0.7912  1.0517
  298MOL0     H39322   2.845  10.855   6.093 -2.0138  0.4742 -1.7029
  298MOL0     H39323   2.840  10.908   6.338 -1.2620  0.4861 -2.5230
  298MOL0     H39324   2.781  10.906   6.707  0.4027  0.4609  0.9340
  298MOL0     H39325   2.786  10.985   6.940  0.3612  0.5935  2.8187
  298MOL0     H39326   2.781  11.058   7.137 -1.2901 -1.8250  0.4082
  298MOL0     H39327   2.957  11.054   7.109 -0.6882 -0.0466  0.1544
  298MOL0     H39328   2.820  10.996   7.364 -0.5909  2.2727  0.4298
  298MOL0     H39329   2.997  10.994   7.357  0.0693  2.2861  0.9972
  298MOL0     H39330   2.810  11.231   7.321 -0.2592 -0.2284  2.7299
  298MOL0     H39331   2.971  11.243   7.243  1.0960  2.1623  1.7742
  298MOL0     H39332   3.074  11.243   7.475 -0.3433 -0.3210 -0.1800
  298MOL0     H39333   2.929  11.341   7.475  2.0914  0.7108 -0.7967
  298MOL0     H39334   2.826  11.074   7.768 -0.5337  1.0791 -0.1879
  298MOL0     H39335   2.909  10.614   7.081  2.2586 -0.6741 -1.9757
  298MOL0     H39336   2.863  10.508   6.866  0.6592  0.0403  0.0830
  299MOL0     O39337   1.184   5.862   5.838 -0.3551 -0.9849 -0.7481
  299MOL0     C39338   1.146   5.949   5.921  0.2003  0.8135  1.3928
  299MOL0     O39339   1.141   5.934   6.059 -0.3373  0.3636 -0.1173
  299MOL0     C39340   1.137   5.809   6.120  0.2696  0.0334 -0.5447
  299MOL0     C39341   1.075   5.704   6.049  1.0492  1.0201 -0.2135
  299MOL0     C39342   1.066   5.581   6.101  0.1911  0.1840  0.1056
  299MOL0     C39343   1.112   5.556   6.230 -1.0863  0.0241 -0.2145
  299MOL0     O39344   1.101   5.438   6.285  0.0401 -0.0843 -0.3882
  299MOL0     C39345   1.169   5.412   6.410 -0.5217 -0.1345 -1.7111
  299MOL0     C39346   1.137   5.280   6.450  0.1745  0.4355 -1.3752
  299MOL0     C39347   1.097   5.274   6.600 -0.1410  0.0410  0.5630
  299MOL0     C39348   1.087   5.128   6.665  0.8330  0.4656 -0.5594
  299MOL0     C39349   0.945   5.067   6.642 -0.5175 -0.0849 -0.0278
  299MOL0     C39350   0.929   4.935   6.717 -0.6603  0.4724 -1.1009
  299MOL0     C39351   0.808   4.857   6.679 -0.0100  0.1760  0.4314
  299MOL0     C39352   0.676   4.934   6.693 -0.2758 -0.0634 -0.2038
  299MOL0     N39353   0.570   4.839   6.692 -0.1520 -0.1015 -0.0881
  299MOL0     C39354   0.514   4.774   6.588 -0.1786  0.6367 -0.6617
  299MOL0     C39355   0.403   4.714   6.628  0.3838  0.0201  0.5475
  299MOL0     C39356   0.322   4.631   6.543 -0.1894  0.5195 -0.0313
  299MOL0     C39357   0.365   4.481   6.548  0.2084 -0.5677  0.0663
  299MOL0     C39358   0.507   4.448   6.494  0.3183 -0.3429  0.0013
  299MOL0     C39359   0.527   4.293   6.486 -0.6801 -0.7577  0.1060
  299MOL0     O39360   0.409   4.221   6.515 -0.2977  0.3252  0.9116
  299MOL0     C39361   0.414   4.105   6.591  0.9600 -0.1847  0.1911
  299MOL0     C39362   0.319   4.007   6.568 -1.0832  1.2072  0.3698
  299MOL0     C39363   0.325   3.884   6.635  0.8277 -0.0560  0.7316
  299MOL0     C39364   0.415   3.862   6.741 -0.5789  1.2938  0.4936
  299MOL0     C39365   0.424   3.733   6.818  0.4618  0.4245 -0.3767
  299MOL0     O39366   0.387   3.620   6.764  0.0903 -0.3371 -1.2424
  299MOL0     C39367   0.433   3.508   6.822  0.5289  0.6604  0.4410
  299MOL0     C39368   0.555   3.461   6.779  0.4562  0.7994  0.0116
  299MOL0     C39369   0.624   3.344   6.841  0.8775  0.4673  0.9246
  299MOL0     C39370   0.558   3.288   6.946  0.9710  0.3748  0.1710
  299MOL0     O39371   0.611   3.189   7.018 -0.1266 -0.6385 -0.3471
  299MOL0     C39372   0.703   3.230   7.125 -0.3589  0.2401 -1.1837
  299MOL0     C39373   0.634   3.190   7.262 -0.2042  0.9093  0.0550
  299MOL0     C39374   0.605   3.042   7.284 -0.6616 -0.8562  0.3358
  299MOL0     C39375   0.723   2.945   7.246  1.0796 -0.1255 -0.6124
  299MOL0     C39376   0.699   2.798   7.267 -0.0982  0.0246 -1.5310
  299MOL0     C39377   0.567   2.736   7.213 -0.0807 -0.6591  0.7125
  299MOL0     C39378   0.574   2.725   7.051  0.1755 -0.4230  0.3099
  299MOL0     C39379   0.449   2.645   7.003 -0.0588  0.2310  0.3028
  299MOL0    Cl39380   0.438   2.659   6.825  0.2945 -0.0333 -0.2486
  299MOL0     C39381   0.431   3.329   6.996  0.0779  0.0064  0.3507
  299MOL0     C39382   0.372   3.437   6.932 -0.2645  0.5660 -0.3122
  299MOL0     O39383   0.452   3.750   6.938 -0.0713  0.3806  0.8686
  299MOL0     C39384   0.522   3.954   6.758 -0.4730 -0.3946  0.5109
  299MOL0     C39385   0.515   4.078   6.686 -0.7091 -0.1659 -0.1288
  299MOL0     N39386   0.393   4.747   6.770 -0.1611  0.2915 -0.0426
  299MOL0     N39387   0.493   4.823   6.804  0.3201 -0.0412 -0.1232
  299MOL0     C39388   1.153   5.670   6.300 -0.0250 -0.1159  0.4945
  299MOL0     C39389   1.177   5.795   6.247  2.0006  1.1775  0.1483
  299MOL0     C39390   1.129   6.087   5.869  0.7094 -0.2288  0.3525
  299MOL0     C39391   1.161   6.116   5.733 -0.3577 -0.2076  0.3196
  299MOL0     C39392   1.151   6.245   5.684  0.3646  0.1636 -0.3725
  299MOL0     C39393   1.110   6.347   5.766  0.7743 -0.0617 -0.5352
  299MOL0     O39394   1.098   6.474   5.710  0.9393  0.5334 -0.6814
  299MOL0     C39395   1.049   6.586   5.791 -0.2014 -0.0148  0.0947
  299MOL0     C39396   1.047   6.719   5.715 -0.7894 -1.0741 -0.0616
  299MOL0     C39397   1.030   6.844   5.823 -0.0155 -0.8167  0.3523
  299MOL0     C39398   0.981   6.977   5.748 -1.0152 -0.3069  0.2377
  299MOL0     C39399   1.090   7.040   5.672 -0.5988  0.0821 -0.3184
  299MOL0     C39400   1.173   7.096   5.606  0.8241 -0.1651 -0.8352
  299MOL0     C39401   1.094   6.321   5.907 -0.3260 -0.2765  0.0931
  299MOL0     C39402   1.092   6.194   5.953  0.3681 -1.3154 -0.8728
  299MOL0     H39403   1.025   5.725   5.956 -0.8477  0.0020  0.5232
  299MOL0     H39404   1.024   5.503   6.038  3.2877 -1.1971 -0.4579
  299MOL0     H39405   1.139   5.481   6.490 -0.3315 -0.4948 -1.3290
  299MOL0     H39406   1.277   5.425   6.403  0.2459 -2.4707  2.5199
  299MOL0     H39407   1.226   5.215   6.448 -1.9394 -2.9018  1.5403
  299MOL0     H39408   1.052   5.236   6.397  0.7195 -1.9907 -0.3762
  299MOL0     H39409   1.019   5.346   6.628 -0.4119 -0.7127  1.7939
  299MOL0     H39410   1.173   5.328   6.657 -3.1588  0.6681  4.3873
  299MOL0     H39411   1.163   5.055   6.635 -0.8768 -1.3766 -0.6540
  299MOL0     H39412   1.089   5.127   6.774 -1.1551 -0.1139 -0.4932
  299MOL0     H39413   0.937   5.034   6.538 -0.9623 -2.3995  0.6914
  299MOL0     H39414   0.869   5.130   6.689  0.6769  1.3902 -0.0080
  299MOL0     H39415   0.922   4.939   6.826 -1.9226 -0.6130 -1.1113
  299MOL0     H39416   1.016   4.875   6.690  1.0326  1.8351  0.9513
  299MOL0     H39417   0.815   4.824   6.575  3.8052  1.5332  0.0851
  299MOL0     H39418   0.807   4.776   6.752  0.6752 -1.0081 -0.8170
  299MOL0     H39419   0.668   5.024   6.631 -1.0850  0.0173  0.0062
  299MOL0     H39420   0.663   4.968   6.797 -4.2723 -0.1235 -0.5206
  299MOL0     H39421   0.536   4.773   6.482  0.1381 -0.4088 -0.5983
  299MOL0     H39422   0.322   4.664   6.439  1.0623 -1.1197 -0.5891
  299MOL0     H39423   0.215   4.635   6.563 -0.4043 -1.8205 -0.5080
  299MOL0     H39424   0.299   4.415   6.492  0.5945 -1.9371  1.1562
  299MOL0     H39425   0.374   4.456   6.654  3.1742  2.5143  0.7041
  299MOL0     H39426   0.522   4.502   6.400  1.4365 -0.6175  0.0104
  299MOL0     H39427   0.574   4.503   6.561 -1.7248  2.7081 -0.2836
  299MOL0     H39428   0.620   4.270   6.539 -0.3238 -0.6944 -0.4846
  299MOL0     H39429   0.543   4.276   6.379  3.5268 -1.8729  0.7263
  299MOL0     H39430   0.248   4.025   6.487  0.7221 -0.0694 -1.5839
  299MOL0     H39431   0.244   3.816   6.613 -1.8903  3.8534 -2.9869
  299MOL0     H39432   0.606   3.515   6.700  0.2108  1.8522  0.5601
  299MOL0     H39433   0.725   3.311   6.822  0.2537 -1.1661  0.2263
  299MOL0     H39434   0.718   3.338   7.124  1.1881  0.1803  2.0816
  299MOL0     H39435   0.805   3.193   7.111  0.3775  0.3807  2.6479
  299MOL0     H39436   0.543   3.249   7.272 -0.5250  0.4813 -0.2972
  299MOL0     H39437   0.700   3.222   7.344  0.7785 -1.1204  0.1356
  299MOL0     H39438   0.521   3.009   7.223  0.7160 -2.9216 -0.5828
  299MOL0     H39439   0.583   3.033   7.391  0.3708  1.3196  0.7893
  299MOL0     H39440   0.752   2.957   7.141 -1.0450 -3.3017 -1.7396
  299MOL0     H39441   0.805   2.974   7.312 -0.6277  0.5064  1.3409
  299MOL0     H39442   0.695   2.777   7.374 -2.8197  1.1773 -1.3236
  299MOL0     H39443   0.784   2.754   7.215 -0.1920  2.0326 -3.5478
  299MOL0     H39444   0.469   2.776   7.242 -0.9092 -0.8208 -1.5873
  299MOL0     H39445   0.556   2.634   7.249 -3.3044 -0.9685 -0.8164
  299MOL0     H39446   0.563   2.825   7.008 -2.2416 -0.9908 -0.4955
  299MOL0     H39447   0.669   2.672   7.035  0.1562 -1.8826  4.0124
  299MOL0     H39448   0.357   2.670   7.057 -1.7956 -1.1784 -1.8314
  299MOL0     H39449   0.455   2.537   7.019 -0.3020 -0.3704 -3.0332
  299MOL0     H39450   0.403   3.289   7.092  0.3843 -2.8492 -0.6491
  299MOL0     H39451   0.274   3.471   6.966 -1.6531  0.2433 -3.6109
  299MOL0     H39452   0.601   3.951   6.832  0.0965  2.6316  0.1609
  299MOL0     H39453   0.603   4.141   6.692 -1.5031  0.9948 -0.4751
  299MOL0     H39454   1.171   5.670   6.407  1.4954 -2.8709  0.3363
  299MOL0     H39455   1.223   5.870   6.311  0.7363  0.7633  1.6109
  299MOL0     H39456   1.190   6.034   5.668 -1.1155 -0.4590  0.2852
  299MOL0     H39457   1.185   6.262   5.582 -2.9623  1.4333 -1.3870
  299MOL0     H39458   1.088   6.604   5.892 -0.2117 -0.5934  0.2026
  299MOL0     H39459   0.942   6.564   5.798 -1.0936  1.9320 -4.2694
  299MOL0     H39460   1.141   6.744   5.665  0.4109  0.2481  2.6604
  299MOL0     H39461   0.968   6.720   5.639  0.2153 -1.1310 -1.1447
  299MOL0     H39462   1.126   6.874   5.866  0.2605 -1.1959  0.0054
  299MOL0     H39463   0.957   6.825   5.902 -0.8872  0.0349 -0.2339
  299MOL0     H39464   0.906   6.941   5.677  1.0608 -4.1425 -0.2278
  299MOL0     H39465   0.941   7.055   5.814  1.0551  1.3811 -0.4029
  299MOL0     H39466   1.247   7.156   5.557  4.1246 -1.2601  2.3888
  299MOL0     H39467   1.067   6.406   5.970  0.2088  0.4575 -0.6405
  299MOL0     H39468   1.066   6.181   6.058 -0.1671  0.5021 -0.7514
  300MOL0     O39469   5.780   3.352   3.590 -0.2365 -1.0193 -0.0917
  300MOL0     C39470   5.751   3.390   3.705  0.2365 -1.1168 -0.1688
  300MOL0     O39471   5.832   3.455   3.798  0.4860 -0.2974  0.2580
  300MOL0     C39472   5.954   3.516   3.772 -0.3556  0.9474  0.4684
  300MOL0     C39473   5.991   3.562   3.645 -1.3197  0.1968 -0.1419
  300MOL0     C39474   6.119   3.606   3.635  0.1507 -0.2717  0.0937
  300MOL0     C39475   6.223   3.588   3.735  0.4393 -0.3047  0.4160
  300MOL0     O39476   6.351   3.622   3.719  0.4232  0.0347 -0.5714
  300MOL0     C39477   6.446   3.519   3.737  0.0272 -0.0405 -0.8791
  300MOL0     C39478   6.561   3.570   3.661 -0.4120  0.6377  0.0704
  300MOL0     C39479   6.658   3.454   3.655  0.3209  0.0290 -0.0112
  300MOL0     C39480   6.599   3.321   3.610  0.5435  0.1917 -0.5202
  300MOL0     C39481   6.723   3.230   3.603 -0.3014  0.5760  0.0651
  300MOL0     C39482   6.721   3.130   3.489  0.4989  0.7471 -0.2452
  300MOL0     C39483   6.830   3.023   3.512  0.4502  0.2832  0.1834
  300MOL0     C39484   6.827   2.905   3.417  0.2100  0.1221  0.1643
  300MOL0     N39485   6.945   2.815   3.433  0.2459 -0.1473  0.8254
  300MOL0     C39486   6.947   2.708   3.512 -0.1191 -0.3207  0.8670
  300MOL0     C39487   7.067   2.646   3.483  0.3730 -0.7046  0.6991
  300MOL0     C39488   7.101   2.510   3.531 -0.1253 -0.5672  0.0534
  300MOL0     C39489   7.080   2.489   3.674 -0.0965  0.1999 -0.7999
  300MOL0     C39490   7.192   2.550   3.760 -0.9734 -0.2990 -0.2299
  300MOL0     C39491   7.325   2.478   3.740 -0.3720  0.8751 -0.3089
  300MOL0     O39492   7.427   2.513   3.841 -0.4430  0.0318 -0.0772
  300MOL0     C39493   7.556   2.466   3.828  0.1242 -0.4627  0.5021
  300MOL0     C39494   7.607   2.404   3.716  0.9578 -0.0797  0.0979
  300MOL0     C39495   7.743   2.371   3.717 -1.0659  0.1027 -1.5048
  300MOL0     C39496   7.830   2.396   3.826  0.0527 -0.4463  0.0240
  300MOL0     C39497   7.973   2.365   3.838 -0.3562 -0.9041  0.6658
  300MOL0     O39498   8.047   2.443   3.923  0.3733 -0.6757  0.4195
  300MOL0     C39499   8.180   2.423   3.927 -0.0091  0.6305 -0.1933
  300MOL0     C39500   8.258   2.488   3.835  0.4203  0.0032  0.2334
  300MOL0     C39501   8.397   2.468   3.819  0.5329 -0.3918 -1.2095
  300MOL0     C39502   8.463   2.381   3.903 -0.5296 -0.5425  0.1665
  300MOL0     O39503   8.599   2.350   3.892 -0.6547  0.9161  0.1149
  300MOL0     C39504   8.677   2.396   3.779 -0.1212 -0.1586 -0.6163
  300MOL0     C39505   8.643   2.318   3.651  0.3980 -0.6361  0.5513
  300MOL0     C39506   8.699   2.176   3.668 -0.0329  0.1352  0.3553
  300MOL0     C39507   8.692   2.086   3.546  0.1564 -0.0207  0.5394
  300MOL0     C39508   8.767   1.952   3.557  0.7018 -1.1230 -0.1294
  300MOL0     C39509   8.679   1.855   3.633 -0.5904 -0.3210  0.1232
  300MOL0     C39510   8.723   1.709   3.621 -0.4018 -0.6535 -0.0991
  300MOL0     C39511   8.848   1.684   3.698 -0.1909 -0.4533 -0.1949
  300MOL0    Cl39512   8.812   1.594   3.851 -0.1793 -0.1984  0.5914
  300MOL0     C39513   8.383   2.324   4.002 -0.3621 -0.7202  0.6121
  300MOL0     C39514   8.244   2.335   4.014 -0.5122 -0.3211 -0.7508
  300MOL0     O39515   8.014   2.276   3.766  0.1009 -0.5567  0.0289
  300MOL0     C39516   7.768   2.459   3.941  0.8141 -0.1181  1.1738
  300MOL0     C39517   7.628   2.491   3.938 -0.5303 -0.1701 -0.3406
  300MOL0     N39518   7.145   2.733   3.399  1.0620 -0.1035 -1.0979
  300MOL0     N39519   7.064   2.829   3.369  0.0122 -0.1018 -0.3317
  300MOL0     C39520   6.177   3.532   3.854  0.4417 -0.6126 -1.0315
  300MOL0     C39521   6.044   3.501   3.875  0.2332  0.0974  0.0850
  300MOL0     C39522   5.602   3.377   3.730 -0.6063 -0.5598  0.3795
  300MOL0     C39523   5.548   3.429   3.847  0.8676  0.1885 -0.3346
  300MOL0     C39524   5.409   3.425   3.871  0.6792 -0.2106  0.1335
  300MOL0     C39525   5.313   3.396   3.772  0.1219  0.1828  0.1281
  300MOL0     O39526   5.175   3.422   3.782 -0.5405  1.0695  0.0707
  300MOL0     C39527   5.137   3.511   3.883 -0.5553  0.6448 -0.0797
  300MOL0     C39528   4.993   3.544   3.874 -0.0648  0.1090 -0.4069
  300MOL0     C39529   4.899   3.422   3.905  0.5150 -0.1680  0.9367
  300MOL0     C39530   4.745   3.439   3.889 -0.9424  0.2880 -0.6328
  300MOL0     C39531   4.688   3.301   3.866 -0.5732  0.8160 -0.2464
  300MOL0     C39532   4.634   3.201   3.835 -0.3566  0.2919  0.0175
  300MOL0     C39533   5.371   3.366   3.646 -0.0642 -0.1303 -0.1862
  300MOL0     C39534   5.509   3.345   3.621 -0.4498 -0.8684  0.1827
  300MOL0     H39535   5.920   3.559   3.564 -1.2053 -0.6885 -0.2254
  300MOL0     H39536   6.140   3.662   3.545 -0.4450  0.3759  0.3522
  300MOL0     H39537   6.402   3.423   3.706 -1.9490  0.3922  0.3480
  300MOL0     H39538   6.472   3.506   3.843 -1.2988  1.3091 -0.3475
  300MOL0     H39539   6.590   3.667   3.703  0.3746  1.2199 -1.7009
  300MOL0     H39540   6.534   3.599   3.559  2.9623  3.5006 -0.1998
  300MOL0     H39541   6.706   3.443   3.753 -0.5078 -1.0228  0.2986
  300MOL0     H39542   6.734   3.481   3.581  2.5723  1.8447  2.7469
  300MOL0     H39543   6.530   3.276   3.682  1.5164  0.3251  0.5341
  300MOL0     H39544   6.554   3.338   3.512  0.4187 -0.8813 -0.6586
  300MOL0     H39545   6.726   3.193   3.706  0.2317  2.3591  0.7252
  300MOL0     H39546   6.814   3.290   3.592 -0.5734  1.1724  0.9692
  300MOL0     H39547   6.729   3.170   3.388 -0.8144  0.9385 -0.2829
  300MOL0     H39548   6.623   3.082   3.489 -0.4663  2.5807  0.8910
  300MOL0     H39549   6.928   3.073   3.504  0.2916  0.6892  0.7111
  300MOL0     H39550   6.817   2.976   3.610 -2.6798 -0.5635 -0.5497
  300MOL0     H39551   6.824   2.931   3.310 -1.1985  0.3690  0.2524
  300MOL0     H39552   6.739   2.840   3.417  0.8627 -0.9025 -1.9741
  300MOL0     H39553   6.861   2.684   3.574  0.6087 -1.5054  1.4432
  300MOL0     H39554   7.203   2.486   3.499 -0.4333  0.5959 -1.9454
  300MOL0     H39555   7.048   2.440   3.466  0.8139  0.1697 -1.5730
  300MOL0     H39556   7.078   2.379   3.680 -1.9217  0.1604 -1.5388
  300MOL0     H39557   6.979   2.523   3.700 -0.6623 -0.4670 -1.9999
  300MOL0     H39558   7.198   2.656   3.732 -2.0669 -0.4943 -1.2936
  300MOL0     H39559   7.175   2.546   3.868  0.3832 -0.4184 -0.0046
  300MOL0     H39560   7.361   2.506   3.641  2.8685  1.3509  0.8528
  300MOL0     H39561   7.323   2.369   3.737  0.3415  0.7750  1.3344
  300MOL0     H39562   7.551   2.385   3.625 -2.6792  1.6220  1.7319
  300MOL0     H39563   7.782   2.324   3.628 -3.5929  0.9235 -3.1483
  300MOL0     H39564   8.202   2.547   3.763  1.0083 -1.6316 -1.6679
  300MOL0     H39565   8.459   2.512   3.741  0.5067 -2.0809 -2.2529
  300MOL0     H39566   8.783   2.397   3.804 -0.3673  1.2375  0.5417
  300MOL0     H39567   8.658   2.500   3.751  2.4458  0.1179 -1.6035
  300MOL0     H39568   8.703   2.366   3.574  1.2763 -1.0456  0.9693
  300MOL0     H39569   8.539   2.326   3.617 -0.5736 -1.5210  3.0492
  300MOL0     H39570   8.634   2.138   3.747  0.5638 -1.5764  0.0745
  300MOL0     H39571   8.797   2.181   3.717 -1.0029 -1.7277  2.6573
  300MOL0     H39572   8.587   2.065   3.521  0.6759 -0.4394 -1.4744
  300MOL0     H39573   8.736   2.152   3.471 -0.9775  3.2839  2.5347
  300MOL0     H39574   8.866   1.958   3.603  0.5916 -0.3447  0.0182
  300MOL0     H39575   8.782   1.910   3.457  3.5047  1.2808 -0.8548
  300MOL0     H39576   8.589   1.862   3.571  0.7754 -1.1117 -2.0546
  300MOL0     H39577   8.669   1.887   3.737 -0.3862  1.9120 -0.4999
  300MOL0     H39578   8.647   1.644   3.665  1.7644 -3.1128  0.2743
  300MOL0     H39579   8.731   1.685   3.515  1.3251 -0.8977  0.0555
  300MOL0     H39580   8.898   1.774   3.734  1.3752 -0.7959 -1.3887
  300MOL0     H39581   8.929   1.635   3.643  0.8684  0.1670  0.7779
  300MOL0     H39582   8.440   2.237   4.034  1.1579 -1.3889 -3.3753
  300MOL0     H39583   8.190   2.284   4.094  2.8739 -0.1993  1.8126
  300MOL0     H39584   7.832   2.489   4.023  4.1647 -1.2231 -0.8612
  300MOL0     H39585   7.572   2.532   4.021  2.0281  0.2026  1.3145
  300MOL0     H39586   6.231   3.506   3.945  0.0133 -2.9927 -1.4054
  300MOL0     H39587   6.002   3.482   3.973 -4.2826  4.5133 -0.5306
  300MOL0     H39588   5.610   3.470   3.926 -0.2599  1.2428  0.0340
  300MOL0     H39589   5.378   3.451   3.972  2.6380  2.3091  0.1738
  300MOL0     H39590   5.192   3.603   3.862 -2.0526  1.3292 -1.2193
  300MOL0     H39591   5.172   3.479   3.981  0.8228 -1.4292 -1.1694
  300MOL0     H39592   4.963   3.621   3.946  0.2673 -1.4221  1.4283
  300MOL0     H39593   4.978   3.587   3.774 -2.4512  0.0638 -0.1040
  300MOL0     H39594   4.906   3.402   4.013 -0.2604 -0.2030  0.9853
  300MOL0     H39595   4.937   3.335   3.850  1.1470  0.1493  0.8719
  300MOL0     H39596   4.699   3.492   3.973  1.3287  1.9849 -0.3758
  300MOL0     H39597   4.719   3.489   3.796 -3.7022 -0.7660 -0.5261
  300MOL0     H39598   4.565   3.125   3.803  1.0602 -2.0712  2.1745
  300MOL0     H39599   5.303   3.344   3.564  0.9752 -3.3839 -0.3130
  300MOL0     H39600   5.547   3.310   3.526 -4.2591 -2.2608 -1.0251
  301MOL0     O39601   8.509   7.284   4.654  0.6204  0.5593 -0.3343
  301MOL0     C39602   8.406   7.214   4.621 -1.2970 -0.9056  0.7169
  301MOL0     O39603   8.404   7.123   4.525 -0.2816 -0.6088 -0.0620
  301MOL0     C39604   8.526   7.090   4.469 -0.2611  0.3419  0.7934
  301MOL0     C39605   8.566   6.950   4.456 -0.0077 -1.0213 -0.5586
  301MOL0     C39606   8.685   6.914   4.389 -1.0888 -1.4899  0.5818
  301MOL0     C39607   8.776   7.019   4.345 -0.3684 -0.2246 -0.3439
  301MOL0     O39608   8.896   6.967   4.287  0.5843  0.1626  0.3396
  301MOL0     C39609   9.001   7.067   4.285 -0.9067  0.6539 -0.7810
  301MOL0     C39610   9.133   7.009   4.235 -0.3121  0.3820 -0.0822
  301MOL0     C39611   9.241   7.118   4.197 -0.8243  0.7179  0.1806
  301MOL0     C39612   9.363   7.047   4.136  0.6368  0.1976  0.2271
  301MOL0     C39613   9.463   7.161   4.089 -0.2591 -0.9694 -0.9234
  301MOL0     C39614   9.583   7.111   4.007  0.3943  0.1907 -0.3206
  301MOL0     C39615   9.671   7.228   3.968  0.4578 -0.4329  0.0952
  301MOL0     C39616   9.745   7.296   4.091 -1.0293 -0.2823  0.5335
  301MOL0     N39617   9.809   7.426   4.047  0.8883  0.1113  0.7344
  301MOL0     C39618   9.898   7.468   3.952 -0.4709  0.1138 -0.5623
  301MOL0     C39619   9.929   7.596   3.974  0.0948  0.2163  0.5308
  301MOL0     C39620  10.020   7.690   3.887  0.5035  0.4188 -0.3909
  301MOL0     C39621  10.145   7.729   3.972 -0.6178  0.3860 -0.5668
  301MOL0     C39622  10.243   7.620   3.989  0.7246  0.3194  0.0332
  301MOL0     C39623  10.368   7.687   4.032 -0.4213 -0.3818 -0.1963
  301MOL0     O39624  10.362   7.740   4.171  0.0251 -0.2357  0.8003
  301MOL0     C39625  10.481   7.775   4.226  0.0776 -1.0522 -0.4900
  301MOL0     C39626  10.610   7.759   4.180 -0.9483  0.8652 -0.0446
  301MOL0     C39627  10.723   7.793   4.255  0.5145  0.2406  0.2227
  301MOL0     C39628  10.710   7.859   4.378 -0.4649  1.0966  0.5477
  301MOL0     C39629  10.830   7.881   4.466  0.6604  0.5122  0.0667
  301MOL0     O39630  10.929   7.781   4.473  0.1800  0.7369 -0.0629
  301MOL0     C39631  11.045   7.806   4.544  0.3508 -0.7634 -1.2319
  301MOL0     C39632  11.101   7.916   4.606  0.4507 -0.5845 -0.2224
  301MOL0     C39633  11.211   7.910   4.691  0.3958 -0.4089  0.6053
  301MOL0     C39634  11.280   7.787   4.705  0.2881 -0.5523  0.7049
  301MOL0     O39635  11.384   7.763   4.781 -0.0456  0.7308 -0.3829
  301MOL0     C39636  11.461   7.867   4.845  0.4562  0.0087 -1.3150
  301MOL0     C39637  11.549   7.803   4.950  0.7431  1.0248 -0.3352
  301MOL0     C39638  11.695   7.844   4.935 -0.3312  0.0210  0.2239
  301MOL0     C39639  11.708   7.983   5.002  0.4940  0.9570 -0.1788
  301MOL0     C39640  11.846   8.034   4.971  0.1387 -0.6057  0.8748
  301MOL0     C39641  11.875   8.184   5.023  0.5995  0.5724 -0.3028
  301MOL0     C39642  11.776   8.283   4.949 -0.0693 -0.6006 -0.8631
  301MOL0     C39643  11.816   8.300   4.799  0.4941  0.1175 -0.0219
  301MOL0    Cl39644  11.975   8.366   4.752  0.1208 -0.5017 -0.0565
  301MOL0     C39645  11.237   7.673   4.643 -0.1107 -0.3517 -0.6473
  301MOL0     C39646  11.116   7.681   4.562 -0.2039  0.6262  0.1788
  301MOL0     O39647  10.833   7.984   4.529 -0.1509  0.2290  0.6075
  301MOL0     C39648  10.576   7.894   4.416  0.5293  0.0651  1.1261
  301MOL0     C39649  10.462   7.849   4.344 -1.4438 -0.8056  0.1939
  301MOL0     N39650   9.860   7.631   4.089  0.0578 -0.7523 -0.9433
  301MOL0     N39651   9.786   7.530   4.123 -0.4582 -0.1130 -0.3695
  301MOL0     C39652   8.744   7.150   4.372 -0.0725  0.8645 -0.3671
  301MOL0     C39653   8.612   7.187   4.414  0.5773  0.2491  0.4428
  301MOL0     C39654   8.281   7.234   4.688  0.3538 -0.5052  0.8419
  301MOL0     C39655   8.160   7.186   4.637 -0.0960  0.1829 -0.1101
  301MOL0     C39656   8.038   7.191   4.714  0.2461  0.9472  0.2966
  301MOL0     C39657   8.038   7.261   4.835 -0.8764  0.0668 -0.4679
  301MOL0     O39658   7.934   7.274   4.924  0.3938  1.3486  0.2287
  301MOL0     C39659   7.829   7.183   4.931  1.2680 -1.1364 -0.3751
  301MOL0     C39660   7.734   7.209   5.046  1.2963 -0.5491  0.3699
  301MOL0     C39661   7.595   7.255   5.010 -0.6929  0.4733 -0.0235
  301MOL0     C39662   7.489   7.247   5.122  0.4546  0.6167 -0.1902
  301MOL0     C39663   7.450   7.110   5.171  1.0494 -0.4617 -0.1240
  301MOL0     C39664   7.405   7.007   5.205  0.2627  0.1870  0.0244
  301MOL0     C39665   8.154   7.329   4.875  0.0765  0.7842 -1.2079
  301MOL0     C39666   8.275   7.305   4.804 -0.3785 -0.9451  0.1416
  301MOL0     H39667   8.500   6.868   4.483 -2.5205 -0.1038 -3.3229
  301MOL0     H39668   8.730   6.818   4.366 -0.3866 -1.1257  0.4164
  301MOL0     H39669   9.021   7.107   4.385 -0.3593 -1.3517 -0.0194
  301MOL0     H39670   8.968   7.142   4.214 -2.6392 -0.0825 -0.8103
  301MOL0     H39671   9.114   6.953   4.143  3.4828  0.6552 -1.2282
  301MOL0     H39672   9.174   6.949   4.317  2.2643  1.1586 -0.6908
  301MOL0     H39673   9.265   7.159   4.296  2.2320 -0.1032 -0.1183
  301MOL0     H39674   9.212   7.200   4.130  1.6689  1.1674 -0.4437
  301MOL0     H39675   9.408   6.984   4.213 -0.4177 -0.2615  0.4903
  301MOL0     H39676   9.337   6.985   4.050  1.4079 -2.4684  1.8035
  301MOL0     H39677   9.500   7.216   4.177  1.3655  0.8275 -2.6124
  301MOL0     H39678   9.411   7.234   4.027 -0.0385 -1.1032 -1.2650
  301MOL0     H39679   9.539   7.056   3.923  0.3604  0.1895 -0.3028
  301MOL0     H39680   9.625   7.026   4.061  1.0576 -0.2297 -1.4608
  301MOL0     H39681   9.742   7.202   3.889 -0.8510 -0.4832 -1.1173
  301MOL0     H39682   9.614   7.316   3.936  0.5255  0.1028  1.3827
  301MOL0     H39683   9.820   7.230   4.136 -0.4711 -0.2072 -0.2652
  301MOL0     H39684   9.671   7.334   4.162 -0.7015 -1.6150  1.6278
  301MOL0     H39685   9.941   7.399   3.881  2.1301  0.2608  0.7475
  301MOL0     H39686   9.949   7.772   3.871 -0.7578 -0.0810  2.1540
  301MOL0     H39687  10.045   7.637   3.795  1.0354  0.9336 -0.5484
  301MOL0     H39688  10.119   7.781   4.065  1.5745  1.3312 -0.4186
  301MOL0     H39689  10.192   7.814   3.921 -0.1582 -0.3168 -1.3143
  301MOL0     H39690  10.214   7.542   4.060  1.5607  0.4572  0.5471
  301MOL0     H39691  10.257   7.571   3.892  0.1261 -1.5890  0.8774
  301MOL0     H39692  10.385   7.773   3.966 -1.3929  0.1376  0.2134
  301MOL0     H39693  10.445   7.609   4.024 -0.9400 -0.9163 -0.0665
  301MOL0     H39694  10.623   7.723   4.078 -0.1155  0.5570  0.1603
  301MOL0     H39695  10.814   7.751   4.215 -2.1323 -1.6894 -4.4544
  301MOL0     H39696  11.051   8.012   4.600  0.1750 -0.7306 -0.2819
  301MOL0     H39697  11.237   8.004   4.738  0.4797  1.0391 -2.0969
  301MOL0     H39698  11.397   7.940   4.895  2.7501  0.9648  0.3761
  301MOL0     H39699  11.520   7.914   4.766 -0.3913 -0.5181 -2.2864
  301MOL0     H39700  11.544   7.694   4.944  1.5291  0.3253  5.8985
  301MOL0     H39701  11.519   7.828   5.052  2.0344 -0.7781  0.5547
  301MOL0     H39702  11.723   7.847   4.830 -0.2707  0.1184  0.2421
  301MOL0     H39703  11.765   7.776   4.986 -2.2097 -1.2893  1.1748
  301MOL0     H39704  11.627   8.045   4.962 -0.4370  1.2542  1.9759
  301MOL0     H39705  11.694   7.983   5.111 -1.5464  0.4214 -0.3944
  301MOL0     H39706  11.861   8.031   4.863 -1.7636 -0.8270  0.5845
  301MOL0     H39707  11.925   7.975   5.018 -0.3043 -1.2164  0.8604
  301MOL0     H39708  11.978   8.218   5.005  1.8057 -1.9545  1.2472
  301MOL0     H39709  11.859   8.198   5.131 -2.4991 -0.6492 -0.5035
  301MOL0     H39710  11.674   8.245   4.945  0.0180 -1.1026  0.8789
  301MOL0     H39711  11.780   8.376   5.006  0.3823  0.4822 -2.5972
  301MOL0     H39712  11.749   8.370   4.748  0.6905 -0.1467 -0.6511
  301MOL0     H39713  11.799   8.197   4.767 -2.1781 -0.0352  1.5938
  301MOL0     H39714  11.300   7.587   4.660  1.6775  1.1421  0.7068
  301MOL0     H39715  11.083   7.585   4.525  4.0800 -0.8159 -0.5194
  301MOL0     H39716  10.567   7.961   4.501  0.0676  1.5927 -0.0731
  301MOL0     H39717  10.367   7.891   4.376 -0.9074  1.4937 -1.0498
  301MOL0     H39718   8.809   7.237   4.379 -0.0777  0.7260  3.2921
  301MOL0     H39719   8.576   7.288   4.429 -1.9919 -0.6205  0.5200
  301MOL0     H39720   8.156   7.145   4.537 -1.7105 -0.8943  0.3602
  301MOL0     H39721   7.950   7.148   4.667  1.0012 -1.6474  1.0911
  301MOL0     H39722   7.867   7.080   4.923 -2.5823 -2.7659  0.1845
  301MOL0     H39723   7.775   7.212   4.841 -0.3928  1.9035  1.4187
  301MOL0     H39724   7.724   7.118   5.106 -0.1914 -0.3720  0.4313
  301MOL0     H39725   7.770   7.293   5.106 -1.0579  0.2558  0.7697
  301MOL0     H39726   7.555   7.200   4.924  0.8058 -0.9049  0.1020
  301MOL0     H39727   7.605   7.355   4.969 -5.1011  1.2088  0.2762
  301MOL0     H39728   7.525   7.305   5.208 -1.3977  0.8723  0.4718
  301MOL0     H39729   7.398   7.298   5.090  2.1859  3.8380 -0.3316
  301MOL0     H39730   7.380   6.909   5.239 -1.6334  0.6035 -0.1031
  301MOL0     H39731   8.141   7.392   4.963 -2.0600  1.2446 -1.7835
  301MOL0     H39732   8.365   7.359   4.833  2.6087 -4.0390 -2.4433
  302MOL0     O39733   7.338   6.398  10.145 -0.6863 -0.4450 -1.3639
  302MOL0     C39734   7.439   6.361  10.087 -0.2488  0.3377  1.0625
  302MOL0     O39735   7.527   6.437  10.014  0.5579 -0.8484  0.1640
  302MOL0     C39736   7.491   6.570  10.003  0.8334 -0.6516 -0.0250
  302MOL0     C39737   7.366   6.621   9.965  0.1702 -0.2229 -0.3970
  302MOL0     C39738   7.346   6.764   9.955 -0.1011  1.3004 -0.2196
  302MOL0     C39739   7.462   6.843   9.962 -0.4252  0.6009  0.3814
  302MOL0     O39740   7.459   6.978   9.936  0.3637 -0.0842  0.1237
  302MOL0     C39741   7.336   7.053   9.956  0.4323  0.1723 -0.0655
  302MOL0     C39742   7.354   7.196  10.004  0.2800 -0.0508 -0.4925
  302MOL0     C39743   7.268   7.304   9.949 -0.3389  0.8561 -0.3306
  302MOL0     C39744   7.122   7.295   9.973  0.6695  0.4268 -0.4906
  302MOL0     C39745   7.086   7.335  10.115 -0.0363 -0.3340 -0.3743
  302MOL0     C39746   6.934   7.348  10.126 -0.3584 -0.5574  0.2927
  302MOL0     C39747   6.844   7.235  10.084  0.4868 -0.4496  0.0972
  302MOL0     C39748   6.882   7.103  10.136  0.1507  0.3197  0.2272
  302MOL0     N39749   6.872   7.104  10.284 -0.2792 -0.6029 -0.2752
  302MOL0     C39750   6.801   7.014  10.366  1.1264 -0.0457  0.2448
  302MOL0     C39751   6.851   7.031  10.491  0.7927  0.4411  0.2486
  302MOL0     C39752   6.806   6.943  10.604 -0.0370  0.7268  0.1693
  302MOL0     C39753   6.652   6.916  10.614 -0.7731 -0.4040  0.4023
  302MOL0     C39754   6.582   7.052  10.630 -1.2780  0.5427 -0.8658
  302MOL0     C39755   6.583   7.103  10.782 -0.0835 -0.4373 -0.0604
  302MOL0     O39756   6.453   7.127  10.827  0.0080  0.0475 -0.4327
  302MOL0     C39757   6.368   7.023  10.853  0.1583  1.0407 -0.5479
  302MOL0     C39758   6.238   7.063  10.897 -0.4446 -0.0550  0.6498
  302MOL0     C39759   6.157   6.966  10.938  0.3915  0.2996  0.6533
  302MOL0     C39760   6.186   6.825  10.950 -0.8076 -0.3559 -0.5779
  302MOL0     C39761   6.081   6.727  10.978  0.2567  0.5510 -1.0125
  302MOL0     O39762   5.981   6.770  11.070  0.4237 -0.2560  0.0348
  302MOL0     C39763   5.894   6.689  11.143  0.3745  0.5058  0.3638
  302MOL0     C39764   5.769   6.736  11.182  0.4103  0.4995 -0.3798
  302MOL0     C39765   5.693   6.656  11.264 -0.5404 -1.0190  0.1664
  302MOL0     C39766   5.725   6.520  11.292  0.1645  0.0062  0.4496
  302MOL0     O39767   5.668   6.442  11.380  0.0252  0.8410 -0.5265
  302MOL0     C39768   5.608   6.315  11.339  0.9573 -0.0021  0.7605
  302MOL0     C39769   5.518   6.265  11.447  0.0725 -0.0142 -0.0125
  302MOL0     C39770   5.430   6.145  11.399 -0.4416 -0.0179 -0.6863
  302MOL0     C39771   5.332   6.098  11.501 -0.8971 -0.6126  0.1020
  302MOL0     C39772   5.249   5.978  11.470  0.1562  1.2693  0.3387
  302MOL0     C39773   5.178   5.908  11.588 -0.3281  0.5138  0.2650
  302MOL0     C39774   5.278   5.796  11.644 -0.1239 -0.5230  0.0635
  302MOL0     C39775   5.269   5.757  11.785 -1.0767  0.4829  0.8812
  302MOL0    Cl39776   5.090   5.711  11.818  0.2838 -0.3854 -0.6289
  302MOL0     C39777   5.845   6.473  11.241  0.5464 -0.6950 -0.0078
  302MOL0     C39778   5.937   6.559  11.180 -0.6848  0.2601  0.0949
  302MOL0     O39779   6.097   6.611  10.945 -0.2384 -0.0029 -0.3516
  302MOL0     C39780   6.314   6.787  10.917  0.2087 -0.4560  0.0487
  302MOL0     C39781   6.401   6.887  10.866 -0.1190  0.8413 -0.3471
  302MOL0     N39782   6.953   7.117  10.480 -0.0202  0.5366 -0.7687
  302MOL0     N39783   6.964   7.162  10.359  1.3138 -0.1167 -0.3974
  302MOL0     C39784   7.581   6.787   9.986  0.0906 -0.6827 -0.8898
  302MOL0     C39785   7.598   6.657  10.016 -0.2552 -0.0607 -0.6461
  302MOL0     C39786   7.480   6.222  10.108  0.5330  0.2634  0.4821
  302MOL0     C39787   7.559   6.158  10.012 -0.1479 -0.4011 -0.0324
  302MOL0     C39788   7.594   6.024  10.023  0.1456  1.0141  0.6495
  302MOL0     C39789   7.566   5.958  10.139 -0.7182  1.0824  0.0708
  302MOL0     O39790   7.595   5.823  10.152 -0.5133  0.9798  0.1062
  302MOL0     C39791   7.734   5.797  10.154  1.2855 -0.6641  0.1706
  302MOL0     C39792   7.782   5.683  10.246  0.1538 -0.6506  0.6628
  302MOL0     C39793   7.704   5.558  10.241 -0.5892  0.3402 -0.2130
  302MOL0     C39794   7.761   5.431  10.322  1.3851  0.1277 -0.2374
  302MOL0     C39795   7.753   5.454  10.476 -0.4872  0.4054 -0.2407
  302MOL0     C39796   7.746   5.459  10.603  0.1248 -0.2972  0.2602
  302MOL0     C39797   7.470   6.015  10.229 -0.0223  0.0962  1.0621
  302MOL0     C39798   7.422   6.144  10.215 -0.6958 -0.3081 -0.0055
  302MOL0     H39799   7.280   6.555   9.960  1.6128 -2.6498  3.2233
  302MOL0     H39800   7.246   6.801   9.938 -0.3709  1.1695  0.9589
  302MOL0     H39801   7.268   7.009  10.029  0.6391  0.3821  0.2556
  302MOL0     H39802   7.292   7.062   9.856  0.0842 -2.2143 -0.2021
  302MOL0     H39803   7.457   7.223   9.978 -0.0898  3.0223  0.8029
  302MOL0     H39804   7.336   7.204  10.111 -1.8328 -1.3492 -0.7077
  302MOL0     H39805   7.280   7.304   9.840  2.1698 -1.2948 -0.1552
  302MOL0     H39806   7.303   7.399   9.988 -2.4733  1.8243 -0.6296
  302MOL0     H39807   7.067   7.370   9.915 -2.2530 -1.5124 -0.4730
  302MOL0     H39808   7.073   7.205   9.934 -0.5387  1.0402 -0.4509
  302MOL0     H39809   7.141   7.419  10.160  0.8257 -1.6195  1.0669
  302MOL0     H39810   7.117   7.255  10.183 -2.9742  1.1840  3.0929
  302MOL0     H39811   6.896   7.431  10.064  0.3202  0.6341  1.4138
  302MOL0     H39812   6.899   7.394  10.219 -3.0525  1.6125 -1.6210
  302MOL0     H39813   6.744   7.272  10.109  2.8158  4.3254  4.0963
  302MOL0     H39814   6.858   7.233   9.975  0.7978 -0.0381  0.1299
  302MOL0     H39815   6.982   7.084  10.096  0.9460  0.3613  2.1190
  302MOL0     H39816   6.818   7.021  10.102  3.7189 -2.5819 -0.0669
  302MOL0     H39817   6.725   6.942  10.337 -0.1092  1.4101 -0.3244
  302MOL0     H39818   6.840   6.983  10.699 -1.9907  1.7313  0.4946
  302MOL0     H39819   6.865   6.851  10.593  1.8425  1.6390  1.9956
  302MOL0     H39820   6.622   6.845  10.691 -0.9140 -1.0260 -0.2186
  302MOL0     H39821   6.636   6.866  10.518  2.2602 -2.3814  0.7990
  302MOL0     H39822   6.637   7.120  10.565 -0.9908 -2.0520 -3.5274
  302MOL0     H39823   6.484   7.026  10.589  0.4896 -0.9966 -4.4726
  302MOL0     H39824   6.637   7.197  10.796 -0.2691 -0.5243  1.3598
  302MOL0     H39825   6.635   7.029  10.844  0.2593 -0.3884 -0.2837
  302MOL0     H39826   6.213   7.167  10.912 -0.6965  0.1692 -1.1374
  302MOL0     H39827   6.052   6.979  10.960 -0.8871 -3.1415 -2.3762
  302MOL0     H39828   5.745   6.840  11.160 -0.1836  0.2705 -0.8473
  302MOL0     H39829   5.595   6.686  11.298 -0.2927 -1.3567  1.1973
  302MOL0     H39830   5.693   6.248  11.320  0.1972 -0.2854 -2.2447
  302MOL0     H39831   5.545   6.328  11.250 -0.5741 -0.7101  1.7161
  302MOL0     H39832   5.454   6.346  11.482  0.1466  0.4780 -0.9758
  302MOL0     H39833   5.588   6.234  11.525  1.2415 -0.6317 -1.2609
  302MOL0     H39834   5.496   6.058  11.392  0.4255  0.3633  1.7363
  302MOL0     H39835   5.379   6.174  11.307 -2.0771  3.3632  1.1203
  302MOL0     H39836   5.393   6.067  11.586 -1.0361 -0.9819  0.0690
  302MOL0     H39837   5.269   6.186  11.520  1.2611  1.1470 -0.4719
  302MOL0     H39838   5.306   5.900  11.418  0.9436  3.5185 -2.3992
  302MOL0     H39839   5.175   5.997  11.392 -0.9352  2.4965  1.6254
  302MOL0     H39840   5.077   5.870  11.570 -0.1854  0.1334  0.2585
  302MOL0     H39841   5.161   5.987  11.662  0.6166  0.3476  0.6770
  302MOL0     H39842   5.263   5.707  11.582 -6.0159 -0.3237  0.6494
  302MOL0     H39843   5.375   5.840  11.619 -1.0568 -0.2336 -3.8337
  302MOL0     H39844   5.299   5.835  11.855 -1.9280  1.1283  0.5457
  302MOL0     H39845   5.328   5.667  11.807 -0.3930  0.9069  0.8007
  302MOL0     H39846   5.867   6.371  11.269 -2.3679 -1.5388 -0.4554
  302MOL0     H39847   6.032   6.517  11.151 -0.2567 -0.1465  1.9354
  302MOL0     H39848   6.344   6.683  10.922  0.2651 -0.6164 -2.2723
  302MOL0     H39849   6.504   6.852  10.864 -0.1856  0.5248  0.8869
  302MOL0     H39850   7.667   6.853   9.988  0.3864 -1.0913  0.9654
  302MOL0     H39851   7.699   6.625  10.039  0.8774  1.7402 -2.7063
  302MOL0     H39852   7.598   6.227   9.938 -0.6975 -1.1009 -0.9813
  302MOL0     H39853   7.655   5.982   9.945  2.8548  0.4945  2.8819
  302MOL0     H39854   7.790   5.886  10.185 -0.0146  0.6668 -1.1282
  302MOL0     H39855   7.738   5.779  10.047 -1.4805  0.8644 -0.2760
  302MOL0     H39856   7.883   5.664  10.209  0.8206  1.9803  0.9423
  302MOL0     H39857   7.763   5.725  10.345 -0.8555  2.7636 -0.8440
  302MOL0     H39858   7.679   5.538  10.136 -3.5797 -1.8869  0.7866
  302MOL0     H39859   7.612   5.593  10.288 -0.9712  0.1555 -0.8097
  302MOL0     H39860   7.707   5.340  10.294 -0.6468  1.4033 -0.6182
  302MOL0     H39861   7.869   5.430  10.301  2.7510  0.0613  5.2596
  302MOL0     H39862   7.736   5.449  10.709  0.8465 -0.8545  0.2833
  302MOL0     H39863   7.452   5.948  10.312 -0.4920 -1.9580 -0.5847
  302MOL0     H39864   7.367   6.185  10.299 -0.1553  0.5287 -0.0486
  303MOL0     O39865  11.218   1.022   4.379 -0.5435 -0.1190  0.2975
  303MOL0     C39866  11.296   0.935   4.347  0.6569 -0.0767  0.6546
  303MOL0     O39867  11.287   0.849   4.241 -0.2478 -0.5896 -0.2119
  303MOL0     C39868  11.178   0.852   4.154  0.0160 -0.7213  0.1092
  303MOL0     C39869  11.157   0.742   4.081  0.3181 -0.2750 -0.4191
  303MOL0     C39870  11.054   0.732   3.979  0.0074 -0.2122 -0.9061
  303MOL0     C39871  10.988   0.844   3.938 -0.6847 -0.1413 -0.3088
  303MOL0     O39872  10.905   0.845   3.830  0.0576  0.3171  0.3587
  303MOL0     C39873  10.767   0.872   3.853  0.6177  0.5801  0.5565
  303MOL0     C39874  10.696   0.846   3.718  0.4654 -1.4724  0.4520
  303MOL0     C39875  10.771   0.934   3.609 -0.7837  0.0144 -0.2279
  303MOL0     C39876  10.726   0.898   3.469  1.2471 -0.5782  0.2830
  303MOL0     C39877  10.736   1.020   3.374  0.6021 -0.3823  0.1270
  303MOL0     C39878  10.874   1.080   3.342 -0.4350  1.7717 -0.4291
  303MOL0     C39879  10.961   0.977   3.271 -0.6550  0.0401  0.4517
  303MOL0     C39880  11.067   1.034   3.176 -0.0749  1.7445 -0.2252
  303MOL0     N39881  11.156   1.128   3.239  1.0928 -0.3773  0.0894
  303MOL0     C39882  11.153   1.263   3.219 -0.5957 -0.2491  1.0388
  303MOL0     C39883  11.245   1.308   3.300 -0.6465 -0.7217 -0.7999
  303MOL0     C39884  11.283   1.450   3.294 -0.3108  0.6381 -0.6486
  303MOL0     C39885  11.355   1.491   3.161 -1.3099  0.8689  0.6779
  303MOL0     C39886  11.460   1.600   3.199 -0.2324 -0.2909  0.6548
  303MOL0     C39887  11.401   1.734   3.256  0.0782  0.2037 -0.2444
  303MOL0     O39888  11.272   1.782   3.224  0.4840 -0.4404  0.0846
  303MOL0     C39889  11.238   1.784   3.095 -0.0431  0.3579 -0.9610
  303MOL0     C39890  11.103   1.769   3.048 -0.2625 -0.4829 -0.7663
  303MOL0     C39891  11.076   1.789   2.906  0.3436  0.1543 -0.1647
  303MOL0     C39892  11.172   1.793   2.813  0.4639 -0.0235  0.1501
  303MOL0     C39893  11.129   1.821   2.673 -0.7888 -0.6413  1.1442
  303MOL0     O39894  11.224   1.898   2.607 -0.1208  0.1899 -1.0508
  303MOL0     C39895  11.220   1.907   2.472 -0.0952  0.3810 -0.2583
  303MOL0     C39896  11.135   1.997   2.410  0.7793 -0.3069  0.2248
  303MOL0     C39897  11.141   2.022   2.277  0.1414  0.6636  0.3139
  303MOL0     C39898  11.228   1.947   2.186 -0.0037  0.3916  0.4474
  303MOL0     O39899  11.218   1.976   2.057  0.0213 -0.4208  0.0006
  303MOL0     C39900  11.314   1.902   1.973 -0.5646  0.7447 -0.8405
  303MOL0     C39901  11.336   1.969   1.842  0.7687 -0.0192  0.1882
  303MOL0     C39902  11.196   1.963   1.768 -0.0736  0.5992  0.1845
  303MOL0     C39903  11.216   2.034   1.631 -0.4221 -0.4863 -0.0515
  303MOL0     C39904  11.081   2.053   1.562 -0.5842 -0.5124  1.2322
  303MOL0     C39905  11.098   2.159   1.450  0.1350 -0.1968  0.3144
  303MOL0     C39906  11.018   2.138   1.323 -0.5516 -0.5048 -1.1608
  303MOL0     C39907  10.876   2.173   1.344  0.4654  0.1340 -0.4958
  303MOL0    Cl39908  10.787   2.177   1.191 -0.3994  0.0845  0.2107
  303MOL0     C39909  11.316   1.852   2.251  0.3132 -0.4978  0.5983
  303MOL0     C39910  11.313   1.843   2.389  0.6417  0.4685 -0.4376
  303MOL0     O39911  11.020   1.787   2.631 -0.3092 -0.4068 -0.4232
  303MOL0     C39912  11.296   1.796   2.854 -0.2296  0.0291  0.5410
  303MOL0     C39913  11.334   1.803   2.989  0.3561  0.7286  0.4757
  303MOL0     N39914  11.288   1.210   3.388  0.5661  0.0600 -0.1456
  303MOL0     N39915  11.231   1.103   3.347  0.2193 -0.7205 -0.6141
  303MOL0     C39916  11.001   0.959   4.019 -0.0696 -0.4185  0.5362
  303MOL0     C39917  11.102   0.968   4.117  0.8271  0.6059  0.1987
  303MOL0     C39918  11.413   0.912   4.440 -0.4592  1.0326 -0.4657
  303MOL0     C39919  11.506   0.804   4.410 -0.7615  0.2635 -0.8199
  303MOL0     C39920  11.604   0.765   4.503  0.5857 -0.1461 -0.4867
  303MOL0     C39921  11.607   0.831   4.623 -0.6135 -0.5683 -0.7532
  303MOL0     O39922  11.682   0.783   4.725  0.8235 -0.3798  0.2075
  303MOL0     C39923  11.660   0.645   4.743 -0.6605  0.6829 -0.2490
  303MOL0     C39924  11.723   0.605   4.873  0.1362  0.7144 -0.4616
  303MOL0     C39925  11.697   0.461   4.921 -0.5797  1.2297 -0.0571
  303MOL0     C39926  11.771   0.357   4.826  0.1041 -0.0312 -0.0435
  303MOL0     C39927  11.705   0.225   4.825 -0.4978 -0.0137  0.6859
  303MOL0     C39928  11.641   0.124   4.819  0.7600  0.5241 -0.4175
  303MOL0     C39929  11.519   0.936   4.649  0.6434  0.7051  1.0476
  303MOL0     C39930  11.425   0.983   4.562  0.2280  0.2997  0.2865
  303MOL0     H39931  11.221   0.658   4.106  0.4404  0.1098  0.6131
  303MOL0     H39932  11.035   0.633   3.939  2.1596 -1.1685  0.2662
  303MOL0     H39933  10.747   0.973   3.890 -3.7279 -0.4452  1.6039
  303MOL0     H39934  10.725   0.792   3.915 -2.1311  1.9417  0.6146
  303MOL0     H39935  10.593   0.878   3.741  0.6215  1.3355 -2.1445
  303MOL0     H39936  10.697   0.742   3.687  1.4835 -0.8808 -1.6368
  303MOL0     H39937  10.876   0.906   3.613 -0.5322  0.9047 -0.3956
  303MOL0     H39938  10.755   1.039   3.634 -2.5285 -0.7695  2.3440
  303MOL0     H39939  10.789   0.816   3.434  4.1467  1.2903  0.7471
  303MOL0     H39940  10.619   0.881   3.478  0.5672  3.2738  1.5367
  303MOL0     H39941  10.671   1.104   3.400  0.1545  0.4458 -3.1186
  303MOL0     H39942  10.692   0.988   3.279  2.2922 -1.5980 -0.3068
  303MOL0     H39943  10.937   1.097   3.429  1.2528 -0.8231 -1.0271
  303MOL0     H39944  10.870   1.171   3.282  0.7199  2.6452  0.7858
  303MOL0     H39945  11.006   0.905   3.340 -2.2404 -0.3534  1.1282
  303MOL0     H39946  10.894   0.922   3.204 -0.6653  1.7915 -1.0330
  303MOL0     H39947  11.005   1.084   3.101 -1.0026  2.3009  0.8844
  303MOL0     H39948  11.119   0.955   3.121 -0.9036  0.0195  1.3306
  303MOL0     H39949  11.105   1.319   3.139  1.0515  1.4750  1.1863
  303MOL0     H39950  11.349   1.466   3.380 -0.8008 -0.9315  0.0498
  303MOL0     H39951  11.197   1.512   3.320 -0.7442 -0.6256  1.0275
  303MOL0     H39952  11.282   1.520   3.085  0.6631 -0.2038 -1.7424
  303MOL0     H39953  11.400   1.399   3.123 -4.6050 -0.5281 -0.1022
  303MOL0     H39954  11.534   1.555   3.266  2.1580 -0.3919 -1.9223
  303MOL0     H39955  11.517   1.628   3.110  0.5110  0.7624  1.4440
  303MOL0     H39956  11.479   1.805   3.225 -1.7221  2.2085 -0.3618
  303MOL0     H39957  11.396   1.728   3.365 -0.6449 -1.4489 -0.3434
  303MOL0     H39958  11.037   1.761   3.133 -1.2329  2.6883 -1.1024
  303MOL0     H39959  10.973   1.817   2.885  0.7304  0.2102 -2.1005
  303MOL0     H39960  11.047   2.039   2.458 -1.6151 -1.0282 -3.1233
  303MOL0     H39961  11.075   2.093   2.228 -3.2777 -0.4900  2.8499
  303MOL0     H39962  11.284   1.797   1.974  0.0029  0.4641  3.4681
  303MOL0     H39963  11.417   1.906   2.011 -0.9215  1.2585  0.0948
  303MOL0     H39964  11.421   1.917   1.798  2.7234 -1.9416  5.3914
  303MOL0     H39965  11.365   2.075   1.843  0.2383  0.1357  1.1768
  303MOL0     H39966  11.117   2.016   1.821 -0.9947 -0.7425  0.2082
  303MOL0     H39967  11.180   1.855   1.758  1.8334  0.4289 -1.8959
  303MOL0     H39968  11.261   2.132   1.643  0.5730 -1.1762  2.3628
  303MOL0     H39969  11.279   1.969   1.568 -1.4190  0.6368 -2.3261
  303MOL0     H39970  11.016   2.104   1.633  0.2995  0.3119  1.4747
  303MOL0     H39971  11.061   1.956   1.515  1.0063  0.4988 -1.8055
  303MOL0     H39972  11.202   2.165   1.416 -0.3644 -4.3556 -2.6876
  303MOL0     H39973  11.082   2.259   1.494  0.0572 -0.6443  1.3424
  303MOL0     H39974  11.054   2.202   1.242  0.1302  0.3910 -0.1790
  303MOL0     H39975  11.015   2.031   1.299  3.1160 -0.7803 -0.9127
  303MOL0     H39976  10.866   2.274   1.385  1.6380 -1.1687  3.4980
  303MOL0     H39977  10.833   2.101   1.414  0.5199  0.1485 -0.4481
  303MOL0     H39978  11.387   1.787   2.201 -0.3360 -1.2365  0.6235
  303MOL0     H39979  11.378   1.772   2.439 -0.3346 -0.6107 -0.6557
  303MOL0     H39980  11.376   1.824   2.786  0.8645 -1.7574  1.0163
  303MOL0     H39981  11.430   1.840   3.021 -0.0744  1.5599  0.8369
  303MOL0     H39982  10.955   1.053   3.991  3.4337  0.7406 -1.9611
  303MOL0     H39983  11.129   1.066   4.154 -3.2184  1.2110  2.1280
  303MOL0     H39984  11.522   0.741   4.323 -0.2636 -0.8245  0.0415
  303MOL0     H39985  11.673   0.683   4.482 -1.5891 -2.7396  1.7923
  303MOL0     H39986  11.675   0.577   4.658 -1.6481 -1.9145  1.5061
  303MOL0     H39987  11.555   0.625   4.768 -0.1773 -1.7612  0.0908
  303MOL0     H39988  11.828   0.632   4.864 -0.0771  1.4285 -0.9122
  303MOL0     H39989  11.668   0.663   4.947 -0.9987  0.7878 -1.3287
  303MOL0     H39990  11.589   0.448   4.905 -0.7313  3.7224 -1.5773
  303MOL0     H39991  11.730   0.453   5.025 -0.1246 -1.3641 -0.3263
  303MOL0     H39992  11.768   0.403   4.727 -4.9247  1.4078  0.5002
  303MOL0     H39993  11.872   0.333   4.861 -0.9134 -3.9765  0.8021
  303MOL0     H39994  11.577   0.041   4.798  0.3291  1.1589 -1.6813
  303MOL0     H39995  11.534   0.975   4.749  3.2881 -1.9856  1.8351
  303MOL0     H39996  11.347   1.055   4.582 -0.2189  1.8810 -5.4354
  304MOL0     O39997   8.774   4.546   1.330 -0.0837 -1.0181  0.1415
  304MOL0     C39998   8.785   4.433   1.372  0.0049 -1.0438 -0.9626
  304MOL0     O39999   8.882   4.346   1.338 -1.1032 -0.0897 -0.2994
  304MOL0     C40000   9.012   4.387   1.291  0.1269  0.5891 -0.0993
  304MOL0     C40001   9.116   4.304   1.342 -0.4032 -0.3775  0.2655
  304MOL0     C40002   9.251   4.334   1.304  0.0372 -0.5293 -0.1052
  304MOL0     C40003   9.286   4.428   1.207  0.7627 -0.3461 -0.2389
  304MOL0     O40004   9.411   4.471   1.174 -0.2657  0.0042 -0.3861
  304MOL0     C40005   9.520   4.434   1.262  0.2414  0.7514  0.2389
  304MOL0     C40006   9.595   4.303   1.199 -1.2661  0.3230 -0.6387
  304MOL0     C40007   9.724   4.242   1.271 -0.4108  0.6054  0.1237
  304MOL0     C40008   9.779   4.135   1.170 -0.7517  0.3215 -0.0725
  304MOL0     C40009   9.757   3.985   1.207 -0.3854  0.2525 -0.1674
  304MOL0     C40010   9.837   3.940   1.326 -0.1762  0.5187 -0.4883
  304MOL0     C40011   9.800   3.795   1.371 -0.2578  0.4155  0.1673
  304MOL0     C40012   9.882   3.759   1.494  0.6031  0.6021  0.0088
  304MOL0     N40013   9.845   3.628   1.549  0.0607 -0.3091 -0.1157
  304MOL0     C40014   9.734   3.597   1.623 -0.6768  1.1241  0.0407
  304MOL0     C40015   9.754   3.463   1.669 -0.1421  0.5545 -0.1774
  304MOL0     C40016   9.662   3.376   1.753  0.0193  0.2668 -0.1112
  304MOL0     C40017   9.687   3.380   1.909  0.3784 -0.5386 -0.0031
  304MOL0     C40018   9.668   3.523   1.963 -0.6294 -0.2375 -0.0907
  304MOL0     C40019   9.520   3.572   1.990  0.2282  0.1352  0.8188
  304MOL0     O40020   9.480   3.515   2.108 -0.8041 -0.3459  0.5875
  304MOL0     C40021   9.347   3.545   2.133  0.4665 -1.1045  0.9876
  304MOL0     C40022   9.296   3.461   2.236 -1.6156 -0.4610  0.8205
  304MOL0     C40023   9.170   3.490   2.288  0.2706 -0.5159  0.1096
  304MOL0     C40024   9.078   3.577   2.214 -0.8654 -0.2513 -0.1705
  304MOL0     C40025   8.928   3.570   2.254 -0.1229 -0.3173 -0.6411
  304MOL0     O40026   8.907   3.513   2.370  0.0514  0.8628  0.4567
  304MOL0     C40027   8.795   3.432   2.384  0.8794  0.1771  0.4978
  304MOL0     C40028   8.745   3.432   2.514  0.7665  1.0741 -0.4073
  304MOL0     C40029   8.624   3.365   2.543  0.2557  0.2539 -0.4627
  304MOL0     C40030   8.559   3.302   2.436  0.5620 -0.1575 -0.3868
  304MOL0     O40031   8.437   3.239   2.446  0.4572 -1.1185  0.2017
  304MOL0     C40032   8.374   3.221   2.577 -0.2977  0.0537  0.0391
  304MOL0     C40033   8.227   3.153   2.566  0.3316 -0.5000  0.0510
  304MOL0     C40034   8.182   3.083   2.693  0.0131  0.5117  0.5336
  304MOL0     C40035   8.163   3.176   2.814 -0.4741  0.5282 -0.0260
  304MOL0     C40036   8.151   3.095   2.939 -0.1904  0.1972 -0.2361
  304MOL0     C40037   8.148   3.180   3.064  0.0459  1.0717  0.2761
  304MOL0     C40038   8.130   3.093   3.186 -0.0890 -0.0540  0.8286
  304MOL0     C40039   8.074   3.176   3.304 -0.4888  0.3718 -0.5233
  304MOL0    Cl40040   8.063   3.061   3.442 -0.1398  0.0184  0.5012
  304MOL0     C40041   8.609   3.315   2.301  0.4273  0.4726 -0.3086
  304MOL0     C40042   8.727   3.368   2.282 -0.4447 -0.4258  0.1261
  304MOL0     O40043   8.841   3.626   2.186 -1.1238 -0.7543  0.4794
  304MOL0     C40044   9.135   3.657   2.111  0.0952  0.2165 -0.7121
  304MOL0     C40045   9.271   3.644   2.070  0.2952  0.7244 -0.8577
  304MOL0     N40046   9.885   3.429   1.626  0.9874 -0.5426 -0.1867
  304MOL0     N40047   9.933   3.520   1.556  0.3163 -0.1282  1.1557
  304MOL0     C40048   9.176   4.510   1.152  0.1533  0.8649  0.3355
  304MOL0     C40049   9.040   4.484   1.197  0.6431 -0.2657 -0.1274
  304MOL0     C40050   8.677   4.405   1.470  0.3356 -0.7183 -0.3325
  304MOL0     C40051   8.662   4.272   1.495  0.2663  0.7163  0.1548
  304MOL0     C40052   8.561   4.226   1.574  0.4051  0.1712 -0.7114
  304MOL0     C40053   8.473   4.319   1.644  0.1190  0.0163  0.5271
  304MOL0     O40054   8.370   4.280   1.736 -0.4518  0.1632 -0.3979
  304MOL0     C40055   8.265   4.209   1.673 -0.4969  0.0241 -0.1199
  304MOL0     C40056   8.129   4.179   1.745 -0.4224 -0.4920  0.7343
  304MOL0     C40057   8.145   4.082   1.861  0.5046  0.7239  0.7535
  304MOL0     C40058   8.009   4.070   1.941 -0.4096  0.5527 -0.1690
  304MOL0     C40059   7.919   3.987   1.859 -0.7785 -0.4239 -0.1563
  304MOL0     C40060   7.842   3.925   1.795 -0.3610  0.8371 -0.3127
  304MOL0     C40061   8.498   4.453   1.628  0.5205 -0.6173  0.3302
  304MOL0     C40062   8.599   4.499   1.541 -0.0355  0.5371 -0.6459
  304MOL0     H40063   9.101   4.215   1.403  0.8724 -0.1428  0.9675
  304MOL0     H40064   9.321   4.258   1.337  0.3204 -0.0756  0.3585
  304MOL0     H40065   9.497   4.421   1.368  2.7228 -1.3510  0.6177
  304MOL0     H40066   9.601   4.508   1.263 -0.4635  1.5724 -0.8292
  304MOL0     H40067   9.631   4.338   1.102  1.0302  1.0867  0.4019
  304MOL0     H40068   9.527   4.218   1.192 -0.3403 -0.4500 -0.4591
  304MOL0     H40069   9.687   4.201   1.365 -0.3165  3.4725  1.4996
  304MOL0     H40070   9.788   4.327   1.295 -1.6810  0.4795  5.0200
  304MOL0     H40071   9.724   4.146   1.076 -0.1838  1.0221 -0.3349
  304MOL0     H40072   9.887   4.140   1.156 -0.8014  0.1751 -0.5303
  304MOL0     H40073   9.785   3.916   1.127 -3.1587 -0.6580 -0.4798
  304MOL0     H40074   9.648   3.973   1.217 -0.1995 -0.4563  1.2245
  304MOL0     H40075   9.822   4.007   1.411 -0.8436 -0.1526 -0.0654
  304MOL0     H40076   9.945   3.946   1.309  0.2831  2.2742  2.3538
  304MOL0     H40077   9.694   3.790   1.397  0.2166 -0.4230  2.0542
  304MOL0     H40078   9.822   3.723   1.291  0.5850  0.8774 -0.0340
  304MOL0     H40079   9.874   3.834   1.573  0.5638 -2.7360  3.4654
  304MOL0     H40080   9.986   3.756   1.460  0.7151  3.2801 -0.0847
  304MOL0     H40081   9.657   3.673   1.625  0.6659  2.5102  1.0408
  304MOL0     H40082   9.661   3.273   1.715 -4.1891 -0.4775  1.4520
  304MOL0     H40083   9.560   3.406   1.728  0.3384 -0.7554 -2.9981
  304MOL0     H40084   9.790   3.345   1.921  1.3324  1.9564 -0.3247
  304MOL0     H40085   9.613   3.313   1.952 -0.4021 -1.5739 -2.7165
  304MOL0     H40086   9.725   3.524   2.056 -0.6501  1.1978 -0.0645
  304MOL0     H40087   9.728   3.589   1.898 -0.2995 -0.0080  0.4431
  304MOL0     H40088   9.460   3.540   1.904  2.0087  1.8397 -1.1812
  304MOL0     H40089   9.520   3.681   1.982 -0.6948  0.0844 -0.1715
  304MOL0     H40090   9.355   3.376   2.268 -1.3235 -1.2901 -1.6942
  304MOL0     H40091   9.138   3.443   2.381 -0.1761  0.0689  0.2549
  304MOL0     H40092   8.795   3.480   2.598 -0.0461  1.7297 -0.2803
  304MOL0     H40093   8.574   3.396   2.634  0.2937  2.7118 -1.2119
  304MOL0     H40094   8.358   3.318   2.626  1.1684 -0.0614  0.7843
  304MOL0     H40095   8.444   3.162   2.637 -0.6191 -0.4085 -0.0408
  304MOL0     H40096   8.219   3.080   2.486 -0.7646 -0.9855  0.5810
  304MOL0     H40097   8.142   3.216   2.536  1.3385  0.5573 -0.6461
  304MOL0     H40098   8.249   2.998   2.707  0.0300 -0.0272 -2.1958
  304MOL0     H40099   8.087   3.031   2.683  1.4111 -2.0500 -0.2106
  304MOL0     H40100   8.239   3.252   2.831  2.6252 -1.9298 -1.8437
  304MOL0     H40101   8.074   3.239   2.807  1.4862  3.3225 -2.6630
  304MOL0     H40102   8.229   3.019   2.931 -0.5438 -0.1071 -0.9076
  304MOL0     H40103   8.060   3.034   2.931  0.3040 -0.7062  0.7393
  304MOL0     H40104   8.058   3.244   3.064 -0.9754 -0.1701  3.6197
  304MOL0     H40105   8.236   3.242   3.080  1.0584 -0.9853  3.3629
  304MOL0     H40106   8.059   3.011   3.174  0.4071 -0.5939  1.5146
  304MOL0     H40107   8.226   3.051   3.217 -1.0581 -0.9540  2.7564
  304MOL0     H40108   7.978   3.227   3.298 -1.4880 -0.9762  2.2929
  304MOL0     H40109   8.155   3.247   3.323  0.1830  0.0785 -2.0938
  304MOL0     H40110   8.551   3.268   2.222 -0.2191  3.2761 -1.5978
  304MOL0     H40111   8.771   3.379   2.183  0.2227 -0.2173  0.4461
  304MOL0     H40112   9.066   3.725   2.064 -0.0151  0.2611 -0.4890
  304MOL0     H40113   9.298   3.703   1.983 -0.9251 -1.4784 -2.8529
  304MOL0     H40114   9.197   4.584   1.075 -2.0560  0.3654 -0.8097
  304MOL0     H40115   8.958   4.550   1.171 -1.0128 -1.9983  0.5120
  304MOL0     H40116   8.738   4.206   1.455 -2.3749 -1.4503 -1.7116
  304MOL0     H40117   8.542   4.119   1.578  1.0897  0.0621  0.0050
  304MOL0     H40118   8.303   4.109   1.647 -0.1452  0.4468 -1.3074
  304MOL0     H40119   8.242   4.251   1.575  1.7338 -2.7118 -2.0150
  304MOL0     H40120   8.078   4.270   1.778 -0.7102 -1.2127  2.3402
  304MOL0     H40121   8.070   4.118   1.676 -0.6204 -0.4451  0.8631
  304MOL0     H40122   8.231   4.112   1.922 -0.1200  3.4852  0.4111
  304MOL0     H40123   8.165   3.983   1.819 -0.8910  0.7115  0.0840
  304MOL0     H40124   8.025   4.038   2.044 -4.8272 -0.6917  0.3636
  304MOL0     H40125   7.969   4.172   1.945 -0.4806  0.5737 -1.1476
  304MOL0     H40126   7.771   3.867   1.740  2.9273 -4.2654  0.1010
  304MOL0     H40127   8.435   4.518   1.688  1.6346  2.0136 -1.1818
  304MOL0     H40128   8.619   4.603   1.518  1.8021 -0.0195 -1.7778
  305MOL0     O40129   2.974   0.418  11.202 -0.2160  0.4650 -0.1211
  305MOL0     C40130   3.002   0.318  11.275 -0.5644  0.0805 -0.2260
  305MOL0     O40131   2.947   0.194  11.273  0.4653 -0.5353  0.1261
  305MOL0     C40132   2.865   0.158  11.172  0.5095 -0.6401 -0.4436
  305MOL0     C40133   2.907   0.044  11.098  1.0843 -1.1491 -0.5081
  305MOL0     C40134   2.826  -0.009  10.991  0.4931  0.3720  0.1964
  305MOL0     C40135   2.702   0.056  10.967 -0.0932  0.0093  0.3698
  305MOL0     O40136   2.626   0.008  10.866  0.4267  0.0213 -0.5934
  305MOL0     C40137   2.483   0.024  10.884 -0.1744 -0.4962  0.1932
  305MOL0     C40138   2.420  -0.060  10.780  0.5088  0.3340  0.0264
  305MOL0     C40139   2.409   0.030  10.656 -0.4193 -0.3168 -0.1212
  305MOL0     C40140   2.366  -0.057  10.539  0.1081 -0.8498 -0.0765
  305MOL0     C40141   2.345   0.031  10.414 -0.5998 -0.9106  0.5768
  305MOL0     C40142   2.295  -0.039  10.290  0.3950  1.0784  1.3439
  305MOL0     C40143   2.386  -0.154  10.228  0.2516  0.7355  0.2554
  305MOL0     C40144   2.371  -0.296  10.267 -0.2750 -0.0359 -0.7222
  305MOL0     N40145   2.221  -0.348  10.255 -0.9228 -0.1446  0.2535
  305MOL0     C40146   2.142  -0.363  10.365  0.3669  0.2049  1.0987
  305MOL0     C40147   2.050  -0.457  10.332  0.3466  0.4573  1.4887
  305MOL0     C40148   1.939  -0.496  10.427 -0.5973  0.9464 -0.3786
  305MOL0     C40149   1.803  -0.472  10.369  0.8055  0.3490  0.0339
  305MOL0     C40150   1.691  -0.496  10.478  0.9365 -0.6841 -0.0308
  305MOL0     C40151   1.658  -0.644  10.499  0.8488 -0.7430 -0.0407
  305MOL0     O40152   1.521  -0.654  10.550  0.8761 -0.2127 -0.5236
  305MOL0     C40153   1.414  -0.599  10.477  0.0993 -0.7482 -0.0359
  305MOL0     C40154   1.310  -0.533  10.555 -0.3122  1.5062 -0.3157
  305MOL0     C40155   1.210  -0.470  10.498  0.5096  1.1611  0.5624
  305MOL0     C40156   1.209  -0.467  10.357  0.9249 -0.0310 -0.4433
  305MOL0     C40157   1.098  -0.395  10.279 -0.3546  0.9499 -0.0580
  305MOL0     O40158   1.014  -0.333  10.366  0.0150 -0.0339 -0.0760
  305MOL0     C40159   0.885  -0.300  10.337  0.3112  0.4147  0.2739
  305MOL0     C40160   0.796  -0.280  10.442 -0.3378  0.1592 -0.9553
  305MOL0     C40161   0.658  -0.259  10.428 -0.6800  0.8739 -0.0035
  305MOL0     C40162   0.604  -0.271  10.300 -0.1444 -0.2155  0.4263
  305MOL0     O40163   0.473  -0.266  10.283 -0.0958  0.0648 -0.8753
  305MOL0     C40164   0.408  -0.149  10.334 -0.3358 -0.9899 -0.0453
  305MOL0     C40165   0.266  -0.177  10.298  0.1131  0.2067  0.0867
  305MOL0     C40166   0.216  -0.152  10.146  0.5815  0.2677  0.8673
  305MOL0     C40167   0.080  -0.210  10.116  1.0775  0.6441  0.3982
  305MOL0     C40168  -0.008  -0.124  10.016  0.2343 -0.3590  0.0544
  305MOL0     C40169  -0.148  -0.185  10.003  0.1471 -0.3895  0.7592
  305MOL0     C40170  -0.198  -0.187   9.846 -0.8560 -0.2564 -0.0832
  305MOL0     C40171  -0.318  -0.290   9.840 -0.5769  0.2126  0.5063
  305MOL0    Cl40172  -0.473  -0.225   9.922 -0.2372 -0.2263  0.0793
  305MOL0     C40173   0.685  -0.307  10.201 -0.0460  0.0758  0.5261
  305MOL0     C40174   0.825  -0.326  10.214 -0.6494 -0.9818  0.9489
  305MOL0     O40175   1.083  -0.414  10.159  0.4099  0.0106  0.1639
  305MOL0     C40176   1.303  -0.540  10.279  0.0082  1.2534  0.4295
  305MOL0     C40177   1.409  -0.604  10.342 -0.4525 -0.3962 -0.4242
  305MOL0     N40178   2.067  -0.476  10.196  0.0371 -0.3724 -0.4015
  305MOL0     N40179   2.175  -0.414  10.151  0.7877  0.8782  0.5925
  305MOL0     C40180   2.680   0.176  11.031  0.2499 -0.0866  0.5340
  305MOL0     C40181   2.751   0.225  11.139 -0.3184 -0.2948  0.0518
  305MOL0     C40182   3.084   0.336  11.400  0.5433  0.2222 -0.3134
  305MOL0     C40183   3.174   0.439  11.412  0.0442 -0.4199 -0.6252
  305MOL0     C40184   3.244   0.461  11.532 -0.3053 -0.3686  0.6885
  305MOL0     C40185   3.206   0.394  11.648  0.2047 -0.2867 -1.3948
  305MOL0     O40186   3.260   0.430  11.772  0.2403  0.6267  0.0142
  305MOL0     C40187   3.270   0.351  11.884  0.8206 -0.0461 -0.0451
  305MOL0     C40188   3.361   0.411  11.979 -0.0152 -0.5819  0.3353
  305MOL0     C40189   3.307   0.547  12.017  1.0703 -0.2884 -0.1208
  305MOL0     C40190   3.284   0.568  12.166  0.2289  0.3623 -0.4751
  305MOL0     C40191   3.180   0.472  12.217 -0.0316 -0.7385  0.5030
  305MOL0     C40192   3.098   0.392  12.250  0.3344  0.2456 -0.4305
  305MOL0     C40193   3.117   0.292  11.639  1.1562  0.2697 -0.5085
  305MOL0     C40194   3.062   0.252  11.519  0.2693  0.5213  0.3287
  305MOL0     H40195   3.001  -0.006  11.120  1.4353 -0.3506 -0.1499
  305MOL0     H40196   2.853  -0.095  10.931 -3.9578  0.1153 -1.8004
  305MOL0     H40197   2.452   0.128  10.872  0.3617 -0.1496  1.6560
  305MOL0     H40198   2.452  -0.013  10.982 -0.6316  0.1713  0.3097
  305MOL0     H40199   2.315  -0.085  10.801  0.1173  1.1679 -0.8410
  305MOL0     H40200   2.474  -0.155  10.768 -2.5942 -1.6493  0.3923
  305MOL0     H40201   2.507   0.078  10.658 -0.2750 -0.5415  3.0945
  305MOL0     H40202   2.336   0.111  10.670 -1.1262 -1.2863  2.2732
  305MOL0     H40203   2.451  -0.124  10.523  2.1720  2.1853 -3.3004
  305MOL0     H40204   2.277  -0.118  10.552 -0.0837 -0.9701 -1.7733
  305MOL0     H40205   2.429   0.093  10.384 -2.0403  0.2054 -1.4388
  305MOL0     H40206   2.266   0.096  10.453 -0.4019 -0.3499  0.0521
  305MOL0     H40207   2.279   0.030  10.207  2.1312  1.5607  1.3728
  305MOL0     H40208   2.197  -0.085  10.304  0.4226  0.3952 -0.4488
  305MOL0     H40209   2.379  -0.158  10.119 -1.8611 -0.2406  0.3832
  305MOL0     H40210   2.489  -0.118  10.240  0.4699  0.9604 -1.8130
  305MOL0     H40211   2.395  -0.318  10.372  3.6468  2.6030 -0.8773
  305MOL0     H40212   2.438  -0.359  10.209  0.9401 -0.1765  0.7694
  305MOL0     H40213   2.156  -0.313  10.460  1.3974  2.4447 -0.1408
  305MOL0     H40214   1.949  -0.436  10.518  0.3686  1.0400 -0.5420
  305MOL0     H40215   1.950  -0.602  10.450 -0.6098  1.3448  1.6585
  305MOL0     H40216   1.787  -0.534  10.280 -0.4224  0.6100  0.0566
  305MOL0     H40217   1.795  -0.367  10.341 -2.4415 -0.3804 -2.4938
  305MOL0     H40218   1.714  -0.448  10.574  1.6393 -0.8039 -0.1326
  305MOL0     H40219   1.611  -0.437  10.432  0.8299 -2.0504 -1.6796
  305MOL0     H40220   1.723  -0.686  10.576  0.9074  0.4210  0.5781
  305MOL0     H40221   1.679  -0.709  10.414  3.6093 -1.2987  0.9811
  305MOL0     H40222   1.333  -0.522  10.661  3.1883  0.5351 -0.8665
  305MOL0     H40223   1.124  -0.428  10.547 -0.3734 -0.5969  0.6064
  305MOL0     H40224   0.841  -0.280  10.541  1.4658  0.3438 -1.7274
  305MOL0     H40225   0.595  -0.231  10.512  1.0980  0.6724  1.4488
  305MOL0     H40226   0.443  -0.062  10.277  1.5289 -3.0716 -2.3344
  305MOL0     H40227   0.420  -0.132  10.441  0.9766  0.5618 -0.4039
  305MOL0     H40228   0.202  -0.120  10.365  0.8528  0.2966  0.7333
  305MOL0     H40229   0.260  -0.282  10.330  2.4268  0.1112  0.3746
  305MOL0     H40230   0.286  -0.192  10.072  0.1209  1.3868 -0.1997
  305MOL0     H40231   0.217  -0.046  10.121 -0.2661  0.0597 -0.1140
  305MOL0     H40232   0.092  -0.312  10.078 -0.0210  1.6267 -2.9957
  305MOL0     H40233   0.019  -0.216  10.206 -1.3226 -1.1833 -1.2198
  305MOL0     H40234   0.051  -0.127   9.924  3.7533 -1.5870  2.1435
  305MOL0     H40235   0.002  -0.025  10.062 -1.2381 -0.4271  0.5520
  305MOL0     H40236  -0.210  -0.125  10.070  1.0746  2.1547 -0.5151
  305MOL0     H40237  -0.137  -0.290  10.034  2.0285 -0.4748 -0.0340
  305MOL0     H40238  -0.219  -0.086   9.809  1.2213 -0.7667 -3.0282
  305MOL0     H40239  -0.113  -0.222   9.788 -0.7216  2.3589 -1.6635
  305MOL0     H40240  -0.286  -0.389   9.872 -1.1481  0.2204  1.1228
  305MOL0     H40241  -0.332  -0.297   9.731  2.5595  2.3349 -0.1735
  305MOL0     H40242   0.640  -0.318  10.102  2.5248  2.6326 -1.0808
  305MOL0     H40243   0.875  -0.349  10.121  0.1643  0.0245  1.1248
  305MOL0     H40244   1.305  -0.540  10.170 -3.5581  3.4198  0.2078
  305MOL0     H40245   1.474  -0.670  10.284  2.6713  3.0117 -1.1658
  305MOL0     H40246   2.589   0.234  11.018 -1.1216 -2.3060 -0.3443
  305MOL0     H40247   2.701   0.295  11.205  1.4555 -2.1091  3.6610
  305MOL0     H40248   3.181   0.513  11.333 -2.6894 -0.2888 -0.8626
  305MOL0     H40249   3.319   0.538  11.548  0.3308 -1.2018  1.8715
  305MOL0     H40250   3.317   0.261  11.841  0.7620 -0.3834  0.5907
  305MOL0     H40251   3.172   0.349  11.932  0.5373  1.3461 -0.5119
  305MOL0     H40252   3.374   0.341  12.062  1.4564 -0.0158  0.6027
  305MOL0     H40253   3.456   0.433  11.931  0.8861  1.1281  2.7456
  305MOL0     H40254   3.212   0.556  11.963  0.6540  0.1879  0.6750
  305MOL0     H40255   3.369   0.630  11.982 -1.7455  2.4798  0.9563
  305MOL0     H40256   3.379   0.544  12.215 -0.8224  1.1921  2.2048
  305MOL0     H40257   3.255   0.673  12.176  4.2751  1.5419  0.8304
  305MOL0     H40258   3.023   0.338  12.304  0.1376  2.9617  2.2583
  305MOL0     H40259   3.079   0.241  11.727 -1.0616  1.0929 -0.9243
  305MOL0     H40260   2.998   0.165  11.513  0.9642  0.0897 -1.3730
  306MOL0     O40261   9.169   9.387   0.651  0.6410  0.3968  0.4390
  306MOL0     C40262   9.073   9.349   0.581 -0.6390  0.7606  0.2772
  306MOL0     O40263   9.071   9.333   0.449 -0.9626 -0.7706 -0.1589
  306MOL0     C40264   9.191   9.352   0.379 -0.0279  0.0263 -0.0059
  306MOL0     C40265   9.311   9.295   0.427 -0.3215 -0.2250 -0.2138
  306MOL0     C40266   9.435   9.337   0.362  1.5345 -0.3240 -1.2347
  306MOL0     C40267   9.427   9.414   0.248 -0.5624  0.1257 -0.7862
  306MOL0     O40268   9.547   9.432   0.192  0.1916 -0.5674  0.2564
  306MOL0     C40269   9.537   9.422   0.052  0.8921  0.9672  0.2830
  306MOL0     C40270   9.674   9.400  -0.020 -0.2541 -0.5603 -0.0353
  306MOL0     C40271   9.675   9.402  -0.177  0.7949 -0.0640  0.3871
  306MOL0     C40272   9.595   9.521  -0.239 -0.2673  0.3887  0.6542
  306MOL0     C40273   9.623   9.523  -0.394 -0.3309 -0.4691  0.0684
  306MOL0     C40274   9.507   9.595  -0.456  1.2808 -0.0911  0.4196
  306MOL0     C40275   9.475   9.736  -0.406  0.5891  0.2713 -0.2092
  306MOL0     C40276   9.365   9.810  -0.484  0.2920  0.7610 -0.0839
  306MOL0     N40277   9.380   9.836  -0.633  0.6862  0.4796 -0.1513
  306MOL0     C40278   9.436   9.951  -0.692  0.3930 -0.7439  0.3409
  306MOL0     C40279   9.441   9.930  -0.827 -0.6618  0.5591 -0.3651
  306MOL0     C40280   9.499  10.012  -0.929  1.0634 -0.4011  0.4299
  306MOL0     C40281   9.650  10.023  -0.911  0.1043 -0.3608 -0.0165
  306MOL0     C40282   9.700  10.170  -0.959  0.4390  0.3074  0.3326
  306MOL0     C40283   9.690  10.278  -0.851  0.7240  0.5236  0.5744
  306MOL0     O40284   9.716  10.407  -0.906 -0.0309 -0.2820  0.0809
  306MOL0     C40285   9.757  10.506  -0.823  0.0356 -0.1286 -0.5155
  306MOL0     C40286   9.768  10.627  -0.888  0.5583  0.2536  0.6808
  306MOL0     C40287   9.776  10.749  -0.822 -0.0158  0.0336  0.1468
  306MOL0     C40288   9.788  10.744  -0.684  0.3114 -0.3932  0.3382
  306MOL0     C40289   9.778  10.872  -0.601  0.0341 -0.6088 -0.8632
  306MOL0     O40290   9.745  10.987  -0.668 -0.2045  0.8914  0.4057
  306MOL0     C40291   9.754  11.109  -0.603 -0.2126  0.0101  0.1604
  306MOL0     C40292   9.645  11.198  -0.589 -0.7168  0.1450  1.2160
  306MOL0     C40293   9.662  11.331  -0.535  0.7037  0.2852 -0.4054
  306MOL0     C40294   9.787  11.375  -0.490  0.3322  0.8907  0.1171
  306MOL0     O40295   9.827  11.494  -0.444 -0.1083 -0.2916 -0.1005
  306MOL0     C40296   9.761  11.617  -0.486  0.1565  0.5416 -1.1185
  306MOL0     C40297   9.830  11.668  -0.610 -0.6824  0.1926  0.4497
  306MOL0     C40298   9.828  11.580  -0.739 -0.6136  0.0601 -0.3093
  306MOL0     C40299   9.918  11.638  -0.852  0.5140 -0.2154 -0.5446
  306MOL0     C40300  10.028  11.541  -0.903 -0.0679 -0.2474  0.0555
  306MOL0     C40301  10.102  11.612  -1.011 -0.2463 -0.0910  0.2208
  306MOL0     C40302  10.225  11.534  -1.064  0.5011 -1.1243 -0.8016
  306MOL0     C40303  10.194  11.456  -1.193 -0.0076  0.3514 -0.0973
  306MOL0    Cl40304  10.311  11.332  -1.250 -0.3822  0.1845 -0.5958
  306MOL0     C40305   9.895  11.285  -0.496  0.2171  0.3527 -1.2701
  306MOL0     C40306   9.878  11.158  -0.552  0.4543  0.6955 -0.7557
  306MOL0     O40307   9.786  10.870  -0.475  0.0141  0.0414  0.0917
  306MOL0     C40308   9.786  10.622  -0.615  0.3455 -0.0570 -0.1614
  306MOL0     C40309   9.768  10.507  -0.684  0.1755  0.5116 -0.4469
  306MOL0     N40310   9.407   9.798  -0.845 -0.1131  1.2811 -0.2790
  306MOL0     N40311   9.367   9.744  -0.738  1.3571  0.2956 -0.6005
  306MOL0     C40312   9.302   9.457   0.201  0.2365 -0.2801  0.1472
  306MOL0     C40313   9.184   9.425   0.263  0.3048  0.3683  0.3794
  306MOL0     C40314   8.942   9.325   0.646  0.7712 -0.1733 -0.0330
  306MOL0     C40315   8.826   9.271   0.584  0.0174 -1.2575  0.1385
  306MOL0     C40316   8.704   9.256   0.645  0.9350  0.3593  0.3280
  306MOL0     C40317   8.686   9.307   0.769 -0.1526 -1.1752 -0.1264
  306MOL0     O40318   8.564   9.279   0.825 -0.1690 -0.4007 -0.4832
  306MOL0     C40319   8.452   9.344   0.769  1.0900  0.0929  0.2044
  306MOL0     C40320   8.405   9.445   0.867 -0.1847 -0.7170  0.7357
  306MOL0     C40321   8.508   9.557   0.898  0.5036  1.2261 -0.2161
  306MOL0     C40322   8.528   9.659   0.787 -0.5670  0.3157 -0.7577
  306MOL0     C40323   8.603   9.773   0.851  0.1798  0.2360  0.4860
  306MOL0     C40324   8.667   9.869   0.886 -0.1919 -1.2633 -1.1295
  306MOL0     C40325   8.795   9.369   0.836  0.4800 -0.0753 -0.1408
  306MOL0     C40326   8.930   9.373   0.781  0.3043  0.3033 -0.8449
  306MOL0     H40327   9.327   9.232   0.514  0.0704  1.9424  1.3899
  306MOL0     H40328   9.533   9.299   0.391  1.3730 -0.2597 -0.5914
  306MOL0     H40329   9.499   9.519   0.019 -3.0808 -0.8079 -1.0536
  306MOL0     H40330   9.460   9.350   0.023  0.5590  1.8493 -1.1291
  306MOL0     H40331   9.716   9.305   0.015 -1.6188 -1.0999  0.2138
  306MOL0     H40332   9.739   9.480   0.015 -1.6510  0.0453  1.2851
  306MOL0     H40333   9.635   9.307  -0.214  0.5649 -0.6290  1.9998
  306MOL0     H40334   9.781   9.412  -0.204  0.2240  2.6167 -1.3245
  306MOL0     H40335   9.488   9.511  -0.222 -1.2926  1.4066 -3.8892
  306MOL0     H40336   9.634   9.609  -0.187  3.6888 -2.1380  2.4333
  306MOL0     H40337   9.625   9.424  -0.439 -1.2894 -0.6285  0.3634
  306MOL0     H40338   9.712   9.582  -0.420 -0.4612 -0.7331 -1.0336
  306MOL0     H40339   9.419   9.537  -0.427  0.9493  0.1467 -0.1043
  306MOL0     H40340   9.521   9.590  -0.564 -0.7833  1.5765  0.0022
  306MOL0     H40341   9.444   9.733  -0.302 -1.5961  0.7342 -0.7944
  306MOL0     H40342   9.558   9.806  -0.412 -0.8527  2.2988  1.8005
  306MOL0     H40343   9.358   9.908  -0.437  1.5376  0.6870  0.2879
  306MOL0     H40344   9.279   9.744  -0.471  0.3229  0.5855 -0.7246
  306MOL0     H40345   9.465  10.041  -0.639  0.2722  0.2917 -1.2839
  306MOL0     H40346   9.454  10.111  -0.930 -1.2041 -1.1443  4.7185
  306MOL0     H40347   9.486   9.977  -1.032 -0.2586  0.5885  0.2447
  306MOL0     H40348   9.708   9.950  -0.968  0.2877 -0.3289  0.1301
  306MOL0     H40349   9.680   9.991  -0.811  0.7842  2.8621  0.9619
  306MOL0     H40350   9.802  10.158  -0.997 -1.2226 -3.6316 -3.8912
  306MOL0     H40351   9.644  10.210  -1.044 -1.7508 -0.1039  1.5228
  306MOL0     H40352   9.766  10.252  -0.776  0.1329 -1.1584  0.6366
  306MOL0     H40353   9.593  10.290  -0.802  1.1313 -1.4728  2.0343
  306MOL0     H40354   9.742  10.626  -0.993 -0.4867 -2.9880  0.8477
  306MOL0     H40355   9.775  10.849  -0.864 -2.5058  0.9485  2.1296
  306MOL0     H40356   9.550  11.160  -0.625  0.0523 -1.5106  0.8334
  306MOL0     H40357   9.587  11.409  -0.537  1.9159  1.6804  2.6838
  306MOL0     H40358   9.765  11.699  -0.414  0.1689 -1.2687  1.0550
  306MOL0     H40359   9.652  11.604  -0.488 -0.0704  1.7684  0.8412
  306MOL0     H40360   9.933  11.685  -0.577 -1.4397  1.7580  2.2460
  306MOL0     H40361   9.777  11.759  -0.639 -1.7799  0.2466  2.4517
  306MOL0     H40362   9.724  11.566  -0.769 -1.1257 -1.8768  2.0501
  306MOL0     H40363   9.872  11.482  -0.717  0.1546  0.5056  0.2041
  306MOL0     H40364   9.861  11.673  -0.939  1.4435 -2.7308 -2.2672
  306MOL0     H40365   9.947  11.737  -0.816 -0.5806 -0.3663  0.8644
  306MOL0     H40366   9.984  11.448  -0.941 -0.0298 -0.6541  0.9675
  306MOL0     H40367  10.105  11.519  -0.828 -1.2801  3.4976  2.7015
  306MOL0     H40368  10.151  11.702  -0.971 -1.3552  0.7967 -0.3665
  306MOL0     H40369  10.043  11.635  -1.100 -2.0196 -1.1754  1.0602
  306MOL0     H40370  10.303  11.605  -1.093  1.4934 -0.0878  3.6787
  306MOL0     H40371  10.263  11.454  -1.000 -0.7888 -2.1050 -1.2152
  306MOL0     H40372  10.178  11.541  -1.259 -1.4797  1.6229  1.7983
  306MOL0     H40373  10.095  11.410  -1.183 -1.0843  2.6371  0.3180
  306MOL0     H40374   9.980  11.317  -0.436 -2.5193 -3.0678  5.3747
  306MOL0     H40375   9.965  11.094  -0.556  0.0984 -0.0536  1.8534
  306MOL0     H40376   9.797  10.626  -0.507 -3.4277  4.3632  0.3796
  306MOL0     H40377   9.756  10.409  -0.638 -0.4856 -1.2187 -3.8930
  306MOL0     H40378   9.300   9.523   0.115  2.5691 -0.9382 -0.4828
  306MOL0     H40379   9.082   9.447   0.232 -0.0912  0.0371  1.4198
  306MOL0     H40380   8.842   9.249   0.479  4.5088 -2.2412  0.8132
  306MOL0     H40381   8.618   9.198   0.613  1.0678 -0.0816  0.7578
  306MOL0     H40382   8.373   9.271   0.750  0.0354  0.5617  2.5439
  306MOL0     H40383   8.464   9.384   0.668  0.3413 -1.0628 -0.3604
  306MOL0     H40384   8.312   9.490   0.831 -2.9538 -4.6808  2.2417
  306MOL0     H40385   8.367   9.404   0.961 -3.6067  0.2420 -0.1052
  306MOL0     H40386   8.605   9.514   0.923  0.7991  1.4892 -0.8919
  306MOL0     H40387   8.472   9.615   0.982 -2.7320  1.2824 -1.4968
  306MOL0     H40388   8.583   9.622   0.700 -1.9251  3.2452 -3.0640
  306MOL0     H40389   8.427   9.681   0.751 -2.8398 -3.7536  2.2344
  306MOL0     H40390   8.737   9.945   0.916 -0.3392 -0.9164 -1.6583
  306MOL0     H40391   8.793   9.419   0.933  4.2818 -1.6059  0.9005
  306MOL0     H40392   8.998   9.414   0.855 -2.0274 -0.5693  1.9912
  307MOL0     O40393   3.142   9.792   9.262  0.0241 -0.2712  0.5535
  307MOL0     C40394   3.070   9.883   9.304 -0.2068  0.5884  0.1319
  307MOL0     O40395   3.052  10.001   9.255  0.0320  0.1898  0.0733
  307MOL0     C40396   3.113  10.036   9.132 -0.6252 -0.3144  0.6131
  307MOL0     C40397   3.183  10.155   9.116 -0.7235 -0.7127 -1.2061
  307MOL0     C40398   3.246  10.177   8.991  0.5145 -0.0665 -0.1845
  307MOL0     C40399   3.231  10.089   8.883 -0.0175 -0.0193 -0.2339
  307MOL0     O40400   3.304  10.119   8.775 -0.5594  0.3764  1.2127
  307MOL0     C40401   3.396  10.016   8.732  0.2634 -0.3326  0.0770
  307MOL0     C40402   3.523  10.086   8.696 -0.3701 -0.1882 -0.1463
  307MOL0     C40403   3.620  10.006   8.612  0.0125  0.3277 -1.3029
  307MOL0     C40404   3.659   9.862   8.657  0.7933  0.3055  0.3011
  307MOL0     C40405   3.770   9.799   8.582 -0.5161 -1.0472  0.0761
  307MOL0     C40406   3.781   9.651   8.598 -0.0227  0.4126  0.0190
  307MOL0     C40407   3.854   9.603   8.732  0.3841 -0.3991 -0.3416
  307MOL0     C40408   3.882   9.459   8.728 -1.1775  0.0006 -0.1314
  307MOL0     N40409   3.763   9.381   8.708  0.2996  0.1819  0.0855
  307MOL0     C40410   3.648   9.393   8.774 -0.1994  1.0630 -0.1404
  307MOL0     C40411   3.560   9.318   8.705 -0.3087 -0.7040 -0.2170
  307MOL0     C40412   3.411   9.334   8.712  0.5930  0.8122  0.0642
  307MOL0     C40413   3.349   9.208   8.669  0.2530 -0.0747 -0.0944
  307MOL0     C40414   3.193   9.195   8.667 -1.2208  0.2375  0.3826
  307MOL0     C40415   3.136   9.162   8.806 -0.2105 -0.3227 -1.4559
  307MOL0     O40416   3.123   9.022   8.824  0.0052  0.6897 -0.0594
  307MOL0     C40417   3.036   8.972   8.915  0.3114  0.1258  1.0675
  307MOL0     C40418   2.970   8.857   8.873  0.3344  0.6763 -0.2042
  307MOL0     C40419   2.877   8.796   8.965 -0.7466 -0.4092  0.2434
  307MOL0     C40420   2.850   8.853   9.094  0.2623 -0.2379 -0.1873
  307MOL0     C40421   2.747   8.793   9.188 -0.0861 -0.1878 -0.1904
  307MOL0     O40422   2.686   8.680   9.141  0.1331  0.7039 -0.3471
  307MOL0     C40423   2.600   8.621   9.224 -0.3111  0.4087 -0.0819
  307MOL0     C40424   2.464   8.638   9.202 -0.4728 -0.1425 -0.8998
  307MOL0     C40425   2.379   8.549   9.269 -0.2386 -0.9182 -0.7203
  307MOL0     C40426   2.427   8.457   9.365  0.3568 -1.1428  0.0428
  307MOL0     O40427   2.326   8.381   9.428  0.3641 -0.8630 -0.1909
  307MOL0     C40428   2.333   8.358   9.566  0.2806 -0.3534 -0.5025
  307MOL0     C40429   2.193   8.322   9.622 -0.3216 -0.8474  0.4787
  307MOL0     C40430   2.179   8.299   9.775  0.3720 -0.1222  0.6002
  307MOL0     C40431   2.234   8.163   9.835 -0.4899  0.1731  0.4346
  307MOL0     C40432   2.165   8.033   9.783  0.2076 -0.0264 -0.1238
  307MOL0     C40433   2.026   8.020   9.839  0.3585  0.7821 -0.4155
  307MOL0     C40434   1.972   7.883   9.794 -0.7712 -0.1017 -0.7468
  307MOL0     C40435   1.821   7.862   9.767  1.3380 -0.0105 -0.5438
  307MOL0    Cl40436   1.745   7.971   9.646 -0.0240 -0.0678 -0.1751
  307MOL0     C40437   2.555   8.461   9.402  0.1031  0.2488  1.0421
  307MOL0     C40438   2.642   8.543   9.325 -0.3130  0.0105 -0.6297
  307MOL0     O40439   2.723   8.847   9.290 -0.6567  0.1382 -0.3274
  307MOL0     C40440   2.906   8.979   9.121  0.4774 -0.1737  0.0340
  307MOL0     C40441   2.989   9.035   9.029  0.1949 -0.3745 -0.3169
  307MOL0     N40442   3.628   9.254   8.605  0.3909  0.9039 -0.7638
  307MOL0     N40443   3.753   9.290   8.609 -0.8757 -0.0267  0.4422
  307MOL0     C40444   3.150   9.987   8.895 -0.5263 -0.7495 -0.8480
  307MOL0     C40445   3.099   9.950   9.022  0.2641 -0.0715  0.2456
  307MOL0     C40446   3.006   9.858   9.433 -0.8784 -0.4320  0.2048
  307MOL0     C40447   3.066   9.765   9.524 -0.0854  0.8342  0.0559
  307MOL0     C40448   2.999   9.729   9.644  0.2589 -0.4429 -0.8500
  307MOL0     C40449   2.884   9.792   9.688 -0.4576 -0.7936 -0.3142
  307MOL0     O40450   2.842   9.767   9.818  0.0303 -0.1874 -0.1849
  307MOL0     C40451   2.713   9.818   9.853 -0.0587  0.5938  0.0814
  307MOL0     C40452   2.678   9.773  10.005  0.5776  0.7353  1.1490
  307MOL0     C40453   2.558   9.688  10.016  0.0387  0.7003 -0.0013
  307MOL0     C40454   2.604   9.552   9.956  0.2152  0.0946  0.1395
  307MOL0     C40455   2.669   9.468  10.048  0.3668 -0.5103 -0.6939
  307MOL0     C40456   2.710   9.400  10.135 -0.3389  1.1732  0.2309
  307MOL0     C40457   2.834   9.893   9.606 -0.4620  0.5321  0.5991
  307MOL0     C40458   2.896   9.931   9.481 -0.2215  0.1314 -0.2140
  307MOL0     H40459   3.177  10.226   9.197 -2.9195 -1.4467 -0.6586
  307MOL0     H40460   3.313  10.261   8.972  1.1695 -0.9392 -1.9571
  307MOL0     H40461   3.350   9.971   8.644 -0.5851  1.4465 -0.4340
  307MOL0     H40462   3.414   9.940   8.810  0.0602  1.0669  1.5380
  307MOL0     H40463   3.573  10.132   8.782  0.6403  2.6547 -2.0949
  307MOL0     H40464   3.499  10.172   8.633  2.3719 -1.6805 -3.5217
  307MOL0     H40465   3.717  10.056   8.615  0.3805 -0.4260  0.5340
  307MOL0     H40466   3.578  10.029   8.513  0.9830 -0.7877 -1.9935
  307MOL0     H40467   3.664   9.859   8.766  0.8727 -2.6677  0.2838
  307MOL0     H40468   3.578   9.789   8.651 -0.0738  1.1296  1.4637
  307MOL0     H40469   3.856   9.858   8.613 -2.1991  1.1292  0.8553
  307MOL0     H40470   3.749   9.822   8.477 -3.9778 -0.8106  0.6934
  307MOL0     H40471   3.846   9.605   8.522  0.1518 -0.5646  0.7368
  307MOL0     H40472   3.682   9.605   8.589  0.2605 -0.3640  0.7393
  307MOL0     H40473   3.942   9.668   8.742  0.2312 -0.5570  3.4632
  307MOL0     H40474   3.800   9.638   8.821  2.9480 -1.1051  1.6197
  307MOL0     H40475   3.932   9.424   8.819  0.6289  3.8783  0.5767
  307MOL0     H40476   3.951   9.435   8.647  1.2694 -0.8132  2.0473
  307MOL0     H40477   3.625   9.453   8.861 -5.3856  2.8506 -2.3467
  307MOL0     H40478   3.363   9.400   8.639 -6.0688 -0.6142  2.4687
  307MOL0     H40479   3.371   9.356   8.811  0.0486 -1.5858  0.4359
  307MOL0     H40480   3.394   9.134   8.735  1.1908 -0.9034 -1.6056
  307MOL0     H40481   3.386   9.186   8.569 -2.7884  5.1523 -2.8455
  307MOL0     H40482   3.158   9.283   8.614  2.5048  1.1522 -0.8612
  307MOL0     H40483   3.172   9.109   8.602  2.2730  0.3044 -1.0864
  307MOL0     H40484   3.039   9.212   8.796  1.2678  2.2481 -4.4834
  307MOL0     H40485   3.186   9.209   8.891 -0.8498  0.0117 -1.2586
  307MOL0     H40486   2.999   8.825   8.774  2.3985  3.2203 -0.5477
  307MOL0     H40487   2.825   8.704   8.937  1.1485 -0.7933 -2.4585
  307MOL0     H40488   2.427   8.710   9.130 -0.0066  2.6492  1.4338
  307MOL0     H40489   2.274   8.553   9.246 -0.0141 -0.7723 -1.7557
  307MOL0     H40490   2.374   8.445   9.618 -1.6460  1.1549 -1.3622
  307MOL0     H40491   2.393   8.269   9.583 -1.1895 -1.1521  0.7888
  307MOL0     H40492   2.154   8.242   9.558 -0.2869 -0.5029  0.0190
  307MOL0     H40493   2.132   8.410   9.597  1.4587  1.0303  2.3353
  307MOL0     H40494   2.073   8.298   9.804  0.8796  0.1302  2.6123
  307MOL0     H40495   2.227   8.378   9.833  2.5098  0.1072 -1.3543
  307MOL0     H40496   2.339   8.147   9.809 -0.4196 -0.4700  1.0736
  307MOL0     H40497   2.230   8.165   9.944  1.8546 -2.2921  0.6762
  307MOL0     H40498   2.232   7.959   9.828  0.0148  0.5071  1.0769
  307MOL0     H40499   2.168   8.035   9.674 -0.5643  1.6443 -0.1472
  307MOL0     H40500   1.962   8.099   9.798  3.5489  3.9313  0.1887
  307MOL0     H40501   2.017   8.016   9.948 -1.4066  3.5824 -0.3537
  307MOL0     H40502   2.014   7.859   9.696 -0.3060 -0.3793 -0.4839
  307MOL0     H40503   2.004   7.799   9.855  2.0679  1.1693 -0.3527
  307MOL0     H40504   1.766   7.881   9.860 -0.3266 -1.4920 -1.1724
  307MOL0     H40505   1.812   7.760   9.730  0.9007  0.4965 -1.9143
  307MOL0     H40506   2.589   8.403   9.487 -0.8374  0.4567  1.5765
  307MOL0     H40507   2.745   8.547   9.358 -0.4694 -2.5376  0.3889
  307MOL0     H40508   2.894   9.030   9.216 -0.6820  1.6023 -1.0131
  307MOL0     H40509   3.041   9.126   9.057 -2.3887  0.6395  1.5209
  307MOL0     H40510   3.121   9.935   8.804 -1.4693 -1.9130  0.0697
  307MOL0     H40511   3.043   9.859   9.042  0.3772  0.1024  1.4116
  307MOL0     H40512   3.145   9.701   9.486 -1.4982 -1.2021  0.3821
  307MOL0     H40513   3.040   9.665   9.721  1.1725  2.0965  0.9156
  307MOL0     H40514   2.632   9.772   9.795 -1.3990  1.2964  1.3298
  307MOL0     H40515   2.702   9.926   9.846 -0.1209  0.5243 -1.0076
  307MOL0     H40516   2.762   9.728  10.060  1.2594 -0.4176 -0.7210
  307MOL0     H40517   2.665   9.865  10.063  1.0648  1.6440 -0.1427
  307MOL0     H40518   2.481   9.741   9.959  1.0785  0.2619 -1.8974
  307MOL0     H40519   2.540   9.676  10.124 -0.3095  2.3261  0.1506
  307MOL0     H40520   2.513   9.498   9.926 -0.7674  1.9636 -0.3624
  307MOL0     H40521   2.673   9.561   9.872  0.5206  1.4386  0.5200
  307MOL0     H40522   2.735   9.338  10.218 -0.5444  0.0552 -0.5202
  307MOL0     H40523   2.738   9.938   9.630 -0.1903  0.6694  1.4762
  307MOL0     H40524   2.851  10.012   9.425  1.2972  2.2012  1.3699
  308MOL0     O40525   1.629   4.914   6.098  0.1240  1.0329 -0.3198
  308MOL0     C40526   1.713   5.009   6.105  0.4687  0.9833 -0.1328
  308MOL0     O40527   1.749   5.093   6.004  0.2440  0.2241  0.3356
  308MOL0     C40528   1.712   5.079   5.869 -0.0617 -0.9953  0.3917
  308MOL0     C40529   1.776   5.157   5.793 -0.9117  0.4371  0.2827
  308MOL0     C40530   1.760   5.156   5.652  0.5285 -0.1557 -0.1056
  308MOL0     C40531   1.669   5.074   5.589 -1.1442 -0.1153  0.4141
  308MOL0     O40532   1.658   5.072   5.451  1.4639 -0.5807  0.6257
  308MOL0     C40533   1.617   5.205   5.399 -0.2712 -0.0980 -0.2742
  308MOL0     C40534   1.615   5.203   5.247 -0.0666  0.0452  0.0126
  308MOL0     C40535   1.476   5.160   5.188  0.5183 -0.3484  0.2323
  308MOL0     C40536   1.488   5.120   5.047 -0.0976  0.6397 -0.1443
  308MOL0     C40537   1.348   5.110   4.987 -0.4528 -0.2143 -0.2558
  308MOL0     C40538   1.345   5.098   4.829 -0.3780 -0.5444  0.4669
  308MOL0     C40539   1.224   5.166   4.751 -0.1079  0.3421 -0.2115
  308MOL0     C40540   1.098   5.166   4.838 -1.0658  0.3975  0.2774
  308MOL0     N40541   0.997   5.196   4.747 -0.1233 -0.8810  0.3827
  308MOL0     C40542   0.912   5.122   4.677 -0.6721  0.0783 -0.5514
  308MOL0     C40543   0.829   5.199   4.612  0.0570 -0.6449  0.3017
  308MOL0     C40544   0.720   5.155   4.511  0.3172  0.1172  0.0008
  308MOL0     C40545   0.616   5.058   4.583 -0.2547 -0.4564  0.5558
  308MOL0     C40546   0.549   4.955   4.483  0.3004  0.1242  0.0059
  308MOL0     C40547   0.474   5.032   4.379 -0.1399 -0.2301  0.2989
  308MOL0     O40548   0.378   5.116   4.443  0.3404 -0.1603  0.1928
  308MOL0     C40549   0.280   5.060   4.512 -0.8214 -0.4189 -0.7284
  308MOL0     C40550   0.213   5.139   4.604 -0.4295  0.3625  0.7467
  308MOL0     C40551   0.127   5.081   4.692 -0.3764 -0.5849 -0.2074
  308MOL0     C40552   0.097   4.943   4.683 -0.3743 -0.4511  0.1462
  308MOL0     C40553  -0.002   4.884   4.777 -1.1469 -0.3776  1.2122
  308MOL0     O40554  -0.053   4.772   4.741  0.1110  0.5105 -0.7222
  308MOL0     C40555  -0.173   4.740   4.805 -0.7421 -0.7723  0.3137
  308MOL0     C40556  -0.297   4.792   4.759  0.5913 -0.4277  0.5492
  308MOL0     C40557  -0.420   4.753   4.822 -0.4902  0.4899 -0.2966
  308MOL0     C40558  -0.413   4.655   4.926 -0.4234  1.0669 -0.3507
  308MOL0     O40559  -0.525   4.600   4.983  0.1227 -0.2376  0.1528
  308MOL0     C40560  -0.651   4.683   4.984  0.2592 -0.5062  0.9290
  308MOL0     C40561  -0.742   4.641   5.097  0.5770  0.7456 -0.6342
  308MOL0     C40562  -0.755   4.484   5.128 -0.6054 -0.5032 -0.4791
  308MOL0     C40563  -0.867   4.441   5.212  0.8557 -1.0722 -0.2862
  308MOL0     C40564  -0.866   4.303   5.256 -0.4108 -0.2202  0.3107
  308MOL0     C40565  -0.923   4.202   5.148 -0.7120 -0.1140 -0.6762
  308MOL0     C40566  -0.903   4.049   5.184 -0.2909  0.2839  0.9426
  308MOL0     C40567  -0.766   4.005   5.218 -0.1195  0.0608  0.2941
  308MOL0    Cl40568  -0.731   3.832   5.181  0.4133 -0.3378 -0.2718
  308MOL0     C40569  -0.287   4.595   4.963 -0.2548  0.3192  0.3391
  308MOL0     C40570  -0.162   4.638   4.903  0.5554  0.2192 -0.0756
  308MOL0     O40571  -0.042   4.965   4.865 -0.2797  0.7424  0.0248
  308MOL0     C40572   0.150   4.862   4.578 -0.2135  0.4964  0.4203
  308MOL0     C40573   0.249   4.932   4.499  0.5679  1.3509 -0.0154
  308MOL0     N40574   0.861   5.331   4.647 -1.1329 -0.2219 -0.3462
  308MOL0     N40575   0.967   5.328   4.718  0.1214 -0.2349 -0.1625
  308MOL0     C40576   1.594   4.991   5.670  0.0494 -0.5209 -0.4788
  308MOL0     C40577   1.618   4.987   5.810 -0.7065  0.2949  0.4110
  308MOL0     C40578   1.788   5.036   6.228  0.2543  0.0625  0.9962
  308MOL0     C40579   1.890   5.134   6.235 -0.2181 -0.3475  0.0180
  308MOL0     C40580   1.937   5.178   6.357 -0.6646  0.0027 -0.4126
  308MOL0     C40581   1.912   5.104   6.478  0.2144 -0.4085  0.6039
  308MOL0     O40582   1.976   5.137   6.587  0.0127 -0.8914  0.7762
  308MOL0     C40583   1.947   5.079   6.718 -0.2339  0.6886 -0.2941
  308MOL0     C40584   2.082   5.056   6.796  0.3220  0.6510  1.2657
  308MOL0     C40585   2.191   4.979   6.711 -0.0233  0.2068 -0.1509
  308MOL0     C40586   2.133   4.835   6.677 -0.9083  0.9072 -1.2141
  308MOL0     C40587   2.252   4.741   6.668 -0.4323  0.3520 -0.6381
  308MOL0     C40588   2.350   4.672   6.658 -0.4227 -0.4836  0.1091
  308MOL0     C40589   1.810   5.004   6.465 -0.2914  0.0643 -0.4872
  308MOL0     C40590   1.750   4.972   6.345  0.6313  0.7211 -0.1807
  308MOL0     H40591   1.852   5.218   5.840  1.9679 -1.6386 -1.3148
  308MOL0     H40592   1.826   5.223   5.597  1.1751  0.7602  1.7127
  308MOL0     H40593   1.697   5.275   5.425  0.3886 -1.0177  0.1995
  308MOL0     H40594   1.525   5.251   5.437 -0.2343  0.5080 -0.8906
  308MOL0     H40595   1.699   5.150   5.202 -0.3696  0.4498 -1.0575
  308MOL0     H40596   1.619   5.308   5.217 -1.1492 -0.9354 -4.2928
  308MOL0     H40597   1.406   5.242   5.207  1.2682  0.1999  0.6545
  308MOL0     H40598   1.445   5.071   5.244  2.0777 -0.6968  0.5796
  308MOL0     H40599   1.548   5.193   4.991 -0.0310  1.1798  0.6218
  308MOL0     H40600   1.539   5.024   5.040 -0.1275  0.5685  0.5569
  308MOL0     H40601   1.285   5.192   5.022 -0.9651  0.2224 -2.0686
  308MOL0     H40602   1.294   5.020   5.018 -1.4807 -0.3675 -2.2929
  308MOL0     H40603   1.374   4.996   4.802 -0.2758  0.0519 -1.9294
  308MOL0     H40604   1.423   5.165   4.790 -1.9476  1.1413  0.0558
  308MOL0     H40605   1.242   5.269   4.721  2.5909  0.2371  0.8554
  308MOL0     H40606   1.213   5.106   4.660  1.7758 -2.4253  1.2576
  308MOL0     H40607   1.102   5.226   4.929 -1.1288  2.2373 -0.8758
  308MOL0     H40608   1.078   5.060   4.860 -2.8969  0.7547  0.4691
  308MOL0     H40609   0.925   5.015   4.670 -1.9084 -0.6153  4.1119
  308MOL0     H40610   0.769   5.103   4.428 -0.1410 -0.6289  0.1877
  308MOL0     H40611   0.657   5.236   4.473  1.0105 -0.0934 -1.7036
  308MOL0     H40612   0.552   5.137   4.621 -0.6433 -2.1222  3.7013
  308MOL0     H40613   0.660   5.004   4.668  1.5958 -0.4190 -0.3328
  308MOL0     H40614   0.631   4.899   4.436 -1.4351 -3.1732  0.5795
  308MOL0     H40615   0.490   4.886   4.544  1.8966 -0.8897  0.4948
  308MOL0     H40616   0.445   4.952   4.311 -0.2280 -1.8498  2.1736
  308MOL0     H40617   0.529   5.086   4.301 -0.2096  1.7915  1.5700
  308MOL0     H40618   0.226   5.246   4.618  1.4365  0.1591  0.8670
  308MOL0     H40619   0.088   5.150   4.766  2.2932  1.5950 -0.6625
  308MOL0     H40620  -0.294   4.867   4.681 -0.6377  0.6537  1.4872
  308MOL0     H40621  -0.522   4.786   4.801 -0.5720  0.6752  0.3757
  308MOL0     H40622  -0.699   4.671   4.886  0.7072  1.4376  0.4362
  308MOL0     H40623  -0.634   4.790   5.001 -0.3360 -0.4437  1.1690
  308MOL0     H40624  -0.842   4.680   5.076 -0.0226 -0.5326 -0.2668
  308MOL0     H40625  -0.701   4.684   5.189  0.0156 -0.5365  0.2473
  308MOL0     H40626  -0.663   4.444   5.171 -0.7277 -3.2394 -2.4766
  308MOL0     H40627  -0.758   4.436   5.030  5.3964  0.7275 -1.6503
  308MOL0     H40628  -0.866   4.500   5.305 -2.6650 -4.2738  2.0383
  308MOL0     H40629  -0.949   4.471   5.147  2.1435  5.0533  0.2654
  308MOL0     H40630  -0.923   4.294   5.349 -1.8075 -1.4990 -0.6182
  308MOL0     H40631  -0.769   4.268   5.293 -1.8386 -2.4973  2.2647
  308MOL0     H40632  -0.866   4.213   5.055  2.0459  1.4399  1.0519
  308MOL0     H40633  -1.028   4.229   5.137 -0.5629  0.7483 -0.0716
  308MOL0     H40634  -0.979   4.017   5.257 -0.8709  1.9433  1.1006
  308MOL0     H40635  -0.932   3.998   5.091 -1.7532  1.5176  0.6691
  308MOL0     H40636  -0.746   4.026   5.323 -0.4094  2.5069 -0.0933
  308MOL0     H40637  -0.693   4.064   5.162  0.3100  2.0490  2.7907
  308MOL0     H40638  -0.292   4.510   5.030  0.1858 -1.6920 -2.0134
  308MOL0     H40639  -0.063   4.602   4.928  1.7956  2.8619 -0.8059
  308MOL0     H40640   0.118   4.759   4.572  3.5088 -0.7146 -2.5000
  308MOL0     H40641   0.291   4.874   4.418 -1.0134 -1.0611  0.7592
  308MOL0     H40642   1.527   4.912   5.637 -0.6059 -0.5034  0.7266
  308MOL0     H40643   1.569   4.921   5.880 -0.8695 -0.6596 -0.5853
  308MOL0     H40644   1.922   5.182   6.143  1.3115 -1.8993 -0.3167
  308MOL0     H40645   2.005   5.263   6.361 -1.0914  0.3080  2.2411
  308MOL0     H40646   1.892   4.984   6.715  1.2996 -0.2306 -0.9903
  308MOL0     H40647   1.882   5.148   6.772 -1.0654  0.6332 -1.1956
  308MOL0     H40648   2.117   5.151   6.837 -0.7224  1.8124 -0.4251
  308MOL0     H40649   2.053   4.995   6.882 -0.5519  0.6609  0.9875
  308MOL0     H40650   2.284   4.986   6.768  0.5431  2.1871 -1.2176
  308MOL0     H40651   2.214   5.028   6.616  0.4408 -1.0650 -0.7175
  308MOL0     H40652   2.074   4.791   6.757 -0.0891 -1.0216 -1.6078
  308MOL0     H40653   2.075   4.833   6.584  0.0044 -0.7711 -1.7950
  308MOL0     H40654   2.434   4.606   6.652  0.1198  0.1201  0.7950
  308MOL0     H40655   1.777   4.931   6.538 -1.2168 -0.0348 -0.9861
  308MOL0     H40656   1.673   4.897   6.358  2.6486 -1.3341  0.7423
  309MOL0     O40657   5.594   3.878   2.673 -0.6895  0.2586  0.0394
  309MOL0     C40658   5.623   3.755   2.668  0.3982 -0.3583 -0.3010
  309MOL0     O40659   5.577   3.658   2.745  0.7058  1.2883 -0.4348
  309MOL0     C40660   5.504   3.700   2.848 -0.1894 -0.6487  0.5884
  309MOL0     C40661   5.363   3.703   2.846  0.2787  0.3853  0.1774
  309MOL0     C40662   5.286   3.729   2.963 -0.7007  0.1423  0.3585
  309MOL0     C40663   5.344   3.756   3.084 -0.1016  0.0880  0.5561
  309MOL0     O40664   5.260   3.789   3.182 -0.0687 -0.1895  0.8083
  309MOL0     C40665   5.274   3.921   3.236  0.4718  0.4622  0.7980
  309MOL0     C40666   5.137   3.981   3.221 -0.5257  0.5337 -0.5389
  309MOL0     C40667   5.123   4.135   3.254 -0.3408 -0.9724 -0.2093
  309MOL0     C40668   5.194   4.231   3.155 -0.3705 -0.6354  0.0601
  309MOL0     C40669   5.143   4.380   3.178 -0.6404  0.5292  0.5213
  309MOL0     C40670   5.166   4.469   3.060  0.1992 -0.8709  1.2601
  309MOL0     C40671   5.150   4.619   3.077 -0.1048 -0.1957 -0.3060
  309MOL0     C40672   5.010   4.663   3.125  0.5920 -0.8329  0.6879
  309MOL0     N40673   4.968   4.805   3.110  0.3544 -0.1159  0.1253
  309MOL0     C40674   5.013   4.912   3.180 -0.5374 -0.1581  0.4396
  309MOL0     C40675   4.960   5.018   3.112 -0.3339 -0.1628 -0.7937
  309MOL0     C40676   4.994   5.154   3.163  0.7685  0.5355  0.3342
  309MOL0     C40677   4.927   5.265   3.088  1.0094 -0.6827 -0.1412
  309MOL0     C40678   4.982   5.408   3.110 -0.0362  0.5335 -1.2266
  309MOL0     C40679   4.919   5.480   3.226 -0.1745 -0.6725  1.0261
  309MOL0     O40680   4.777   5.494   3.204 -0.0710 -0.0499 -0.1349
  309MOL0     C40681   4.732   5.624   3.176 -0.6223 -0.3635  1.2553
  309MOL0     C40682   4.818   5.724   3.119 -0.0347  0.2228 -0.0779
  309MOL0     C40683   4.784   5.856   3.079 -0.7706 -0.4798 -0.1699
  309MOL0     C40684   4.645   5.887   3.085  0.7999 -0.1430  0.1998
  309MOL0     C40685   4.600   6.020   3.051  0.3096  0.4697 -1.1610
  309MOL0     O40686   4.687   6.096   2.984  0.0728  0.2826 -0.7176
  309MOL0     C40687   4.670   6.227   2.956  0.9780  0.1893 -0.2190
  309MOL0     C40688   4.750   6.280   2.854 -0.1562  0.3802  0.0824
  309MOL0     C40689   4.746   6.418   2.813 -0.0501 -0.6373 -0.6751
  309MOL0     C40690   4.665   6.505   2.900  0.8540  0.3491 -0.1286
  309MOL0     O40691   4.665   6.640   2.897 -0.3221  1.0484  0.7966
  309MOL0     C40692   4.787   6.711   2.916 -0.3812  0.1451 -0.2578
  309MOL0     C40693   4.903   6.656   3.006 -0.6719 -0.0868  0.1283
  309MOL0     C40694   5.031   6.719   2.956  0.2362  0.1979  0.2808
  309MOL0     C40695   5.143   6.709   3.057  0.3902 -0.2819 -0.5265
  309MOL0     C40696   5.194   6.557   3.085  0.8268 -0.6574  0.8391
  309MOL0     C40697   5.308   6.559   3.191 -0.3546  0.1034  0.2189
  309MOL0     C40698   5.407   6.444   3.165 -0.5348  0.6073 -0.1362
  309MOL0     C40699   5.526   6.448   3.266 -0.6856  0.3560  0.1590
  309MOL0    Cl40700   5.454   6.418   3.443 -0.0196 -0.6629 -0.1996
  309MOL0     C40701   4.592   6.458   3.008  1.0299 -0.5232  0.7835
  309MOL0     C40702   4.595   6.319   3.024  0.3388 -0.4512 -1.6078
  309MOL0     O40703   4.481   6.050   3.087 -0.2926  0.0560  0.5991
  309MOL0     C40704   4.560   5.783   3.134  1.3624  0.7273  0.6664
  309MOL0     C40705   4.599   5.655   3.181 -0.1632  0.1533 -0.3606
  309MOL0     N40706   4.867   4.980   3.008 -0.1597  0.3146  0.0382
  309MOL0     N40707   4.886   4.853   3.008 -0.9169  0.2468 -0.2283
  309MOL0     C40708   5.480   3.736   3.092  0.2844 -0.1150 -0.5254
  309MOL0     C40709   5.555   3.708   2.978 -1.0913  0.7645 -0.5946
  309MOL0     C40710   5.710   3.706   2.558  0.4388  0.3179  0.3348
  309MOL0     C40711   5.756   3.788   2.451  0.5691  0.5838 -0.3460
  309MOL0     C40712   5.830   3.736   2.341  0.3402 -0.2309  0.0345
  309MOL0     C40713   5.880   3.610   2.340 -0.2357  0.1780  0.2780
  309MOL0     O40714   5.950   3.551   2.237  0.0648  0.1944 -0.0860
  309MOL0     C40715   5.892   3.553   2.107 -0.6013 -0.6201  0.5861
  309MOL0     C40716   5.796   3.436   2.110  0.5908  1.1182  0.4381
  309MOL0     C40717   5.863   3.295   2.117  0.0005  0.0465  1.0842
  309MOL0     C40718   5.779   3.180   2.160 -0.4276  0.2952  0.5047
  309MOL0     C40719   5.720   3.184   2.295  0.0002 -0.4309 -0.2096
  309MOL0     C40720   5.694   3.179   2.412  0.0788 -0.4005 -0.1981
  309MOL0     C40721   5.848   3.531   2.447 -0.7621 -0.1548 -0.9987
  309MOL0     C40722   5.761   3.572   2.548 -0.2639 -0.5423 -0.2012
  309MOL0     H40723   5.312   3.675   2.754 -3.6956 -0.7628  2.4736
  309MOL0     H40724   5.180   3.706   2.967 -0.1874 -2.3352  1.6707
  309MOL0     H40725   5.340   3.989   3.181 -1.1831  0.7083 -1.0222
  309MOL0     H40726   5.297   3.916   3.342  2.7849 -3.5806  0.2756
  309MOL0     H40727   5.077   3.924   3.293  0.5924 -1.6285 -1.2376
  309MOL0     H40728   5.119   3.964   3.115 -0.9822 -1.4664 -0.1695
  309MOL0     H40729   5.174   4.151   3.349  2.6911 -4.9129 -0.9123
  309MOL0     H40730   5.016   4.144   3.272 -0.0776 -0.7500  1.3428
  309MOL0     H40731   5.303   4.221   3.167 -0.5636 -0.5971  2.1170
  309MOL0     H40732   5.158   4.193   3.059  0.7438  2.7350 -1.8483
  309MOL0     H40733   5.204   4.417   3.260 -1.1035  2.3143  0.0994
  309MOL0     H40734   5.038   4.385   3.210 -2.4893  0.5224 -4.5480
  309MOL0     H40735   5.108   4.434   2.973  3.5556 -2.3784 -0.5898
  309MOL0     H40736   5.266   4.458   3.017 -0.1755  2.6968 -0.8774
  309MOL0     H40737   5.222   4.653   3.152  0.1087 -1.0992 -0.0935
  309MOL0     H40738   5.172   4.672   2.983 -2.1890 -2.0741 -1.9698
  309MOL0     H40739   4.992   4.635   3.229  2.6659 -0.7387  1.1182
  309MOL0     H40740   4.935   4.602   3.072  2.1276 -1.1687 -1.2291
  309MOL0     H40741   5.084   4.909   3.262  1.1570  1.3388 -0.8685
  309MOL0     H40742   5.103   5.169   3.156  0.7193  0.5836 -0.4542
  309MOL0     H40743   4.979   5.159   3.271  0.0373  3.3469  0.1893
  309MOL0     H40744   4.820   5.254   3.107  0.1278  2.1708 -2.5633
  309MOL0     H40745   4.942   5.256   2.980 -0.4485 -4.2678 -0.1698
  309MOL0     H40746   5.088   5.392   3.128  0.0699  2.1253 -0.2663
  309MOL0     H40747   4.970   5.461   3.015 -0.2647 -0.0801 -1.5531
  309MOL0     H40748   4.978   5.571   3.243 -0.7923  0.2136 -1.2517
  309MOL0     H40749   4.936   5.414   3.311 -0.9702  0.0201  1.7442
  309MOL0     H40750   4.924   5.705   3.109 -0.0299  0.3489 -0.2680
  309MOL0     H40751   4.849   5.929   3.031  1.6645 -2.1472  0.4148
  309MOL0     H40752   4.825   6.212   2.815  0.4068  0.5329  0.8938
  309MOL0     H40753   4.811   6.453   2.733 -0.5074 -0.9789 -1.2044
  309MOL0     H40754   4.761   6.814   2.941 -0.5498 -0.7920  4.3876
  309MOL0     H40755   4.827   6.721   2.815  2.7840  0.9090  0.9596
  309MOL0     H40756   4.907   6.547   2.995  3.6296  0.1292 -3.1733
  309MOL0     H40757   4.886   6.684   3.110  2.3107  0.4400  0.5661
  309MOL0     H40758   5.004   6.824   2.951  1.5576  0.4793 -2.7736
  309MOL0     H40759   5.050   6.695   2.851 -1.0696  6.0282 -1.6419
  309MOL0     H40760   5.227   6.766   3.016  1.0414  0.8380  2.1342
  309MOL0     H40761   5.106   6.758   3.148 -2.3111 -0.7649 -1.2716
  309MOL0     H40762   5.221   6.513   2.988  0.7922  3.4243 -1.2862
  309MOL0     H40763   5.113   6.498   3.126 -0.5157  1.8136  1.9881
  309MOL0     H40764   5.269   6.551   3.293 -1.4766  2.0218 -0.0217
  309MOL0     H40765   5.357   6.656   3.186  1.0537 -0.6456 -2.8697
  309MOL0     H40766   5.368   6.342   3.174 -0.7197  0.7121  0.3290
  309MOL0     H40767   5.439   6.451   3.061  0.5123 -2.9918 -0.1975
  309MOL0     H40768   5.577   6.544   3.253 -0.3842  0.2669  0.6901
  309MOL0     H40769   5.603   6.372   3.258  0.5405  1.6169 -0.3600
  309MOL0     H40770   4.530   6.527   3.064 -2.0638 -1.7861 -0.8070
  309MOL0     H40771   4.523   6.291   3.100 -1.4210  1.7170 -2.3700
  309MOL0     H40772   4.453   5.805   3.135  0.7565 -1.7536 -0.7479
  309MOL0     H40773   4.530   5.574   3.207 -2.2864  0.5871 -3.9485
  309MOL0     H40774   5.521   3.751   3.191 -0.5644 -0.7386 -0.0643
  309MOL0     H40775   5.660   3.690   2.997 -1.8971 -2.0291  2.1295
  309MOL0     H40776   5.702   3.882   2.449 -0.5362  0.0645  1.9474
  309MOL0     H40777   5.844   3.798   2.253  0.6692 -3.1805 -2.1321
  309MOL0     H40778   5.973   3.516   2.044 -0.6071 -5.4154  2.9074
  309MOL0     H40779   5.854   3.650   2.074  2.4172  0.7434  0.8269
  309MOL0     H40780   5.719   3.451   2.186  0.5601 -1.0628  0.9070
  309MOL0     H40781   5.735   3.439   2.019  0.8842  1.2281  0.2451
  309MOL0     H40782   5.944   3.311   2.189  1.0725  1.0118 -0.2945
  309MOL0     H40783   5.897   3.279   2.014 -0.3027  3.5337  0.3167
  309MOL0     H40784   5.714   3.157   2.075 -1.5479 -2.1654  1.9076
  309MOL0     H40785   5.848   3.095   2.153 -0.4616  0.0469  2.5210
  309MOL0     H40786   5.666   3.185   2.515 -0.9421  1.9797 -0.5486
  309MOL0     H40787   5.892   3.432   2.457  1.2701  0.8675  1.5347
  309MOL0     H40788   5.733   3.495   2.619  0.0948 -0.5395 -0.0564
  310MOL0     O40789   3.835   6.703   1.523 -0.1552 -0.1991 -0.0301
  310MOL0     C40790   3.720   6.715   1.474 -1.0269 -0.1457  0.1283
  310MOL0     O40791   3.652   6.837   1.468 -0.5294  0.1889  0.3223
  310MOL0     C40792   3.717   6.945   1.519  0.3407 -0.7785 -0.0453
  310MOL0     C40793   3.776   7.040   1.435 -0.6193  0.3686  0.0396
  310MOL0     C40794   3.852   7.139   1.493 -0.0216  0.3883 -0.5360
  310MOL0     C40795   3.874   7.141   1.633  0.5847 -0.0501  0.1258
  310MOL0     O40796   3.939   7.251   1.672  0.4075  0.0146 -0.4049
  310MOL0     C40797   4.005   7.238   1.804 -1.0064  0.0985  0.6515
  310MOL0     C40798   4.119   7.345   1.814 -0.2829  1.0653 -0.1800
  310MOL0     C40799   4.192   7.337   1.950  0.0135  0.2760  0.3628
  310MOL0     C40800   4.117   7.420   2.059 -0.7261  0.2615  0.2045
  310MOL0     C40801   4.146   7.373   2.203  0.1281 -0.6334  0.3367
  310MOL0     C40802   4.113   7.489   2.293  0.1172  1.1603 -0.3855
  310MOL0     C40803   4.102   7.444   2.441  0.3354 -0.6935  0.0830
  310MOL0     C40804   4.162   7.560   2.526 -0.4218 -0.5484  0.8082
  310MOL0     N40805   4.304   7.585   2.503 -0.3516 -0.2925  0.9387
  310MOL0     C40806   4.369   7.691   2.551  0.7972 -0.7183 -0.2595
  310MOL0     C40807   4.496   7.680   2.512  0.3554  0.2510  1.2370
  310MOL0     C40808   4.597   7.785   2.540 -0.1098 -0.7576 -0.2730
  310MOL0     C40809   4.731   7.770   2.488 -0.8916  0.0027 -0.0987
  310MOL0     C40810   4.832   7.671   2.554 -0.0244 -0.3189 -0.1973
  310MOL0     C40811   4.875   7.712   2.705 -0.2205 -0.8159  0.2401
  310MOL0     O40812   4.802   7.625   2.798  0.4481  0.6038  0.7002
  310MOL0     C40813   4.833   7.627   2.928  0.0330 -0.3174  0.0180
  310MOL0     C40814   4.884   7.733   2.998  0.2227  0.4993  0.1219
  310MOL0     C40815   4.926   7.724   3.132 -0.2798  0.0853 -0.3872
  310MOL0     C40816   4.919   7.606   3.198  0.0663  0.4718 -0.1794
  310MOL0     C40817   4.973   7.593   3.334  0.1032  0.5440  0.6373
  310MOL0     O40818   4.945   7.480   3.403  0.1561  0.5127 -0.1185
  310MOL0     C40819   4.997   7.473   3.526 -0.8552  0.0422 -0.8622
  310MOL0     C40820   5.100   7.384   3.546  0.5305 -0.2196  1.0086
  310MOL0     C40821   5.137   7.349   3.672 -0.4555  1.3911 -0.6345
  310MOL0     C40822   5.074   7.392   3.779  1.0908 -1.0835 -0.0057
  310MOL0     O40823   5.102   7.357   3.912  0.0115 -0.4692  0.0359
  310MOL0     C40824   5.098   7.212   3.942  0.5064 -1.1886  1.0196
  310MOL0     C40825   4.953   7.189   3.994 -0.0885  0.9700 -0.1044
  310MOL0     C40826   4.944   7.042   4.044 -0.3646 -0.8667 -0.0377
  310MOL0     C40827   5.046   7.012   4.159  0.3073  0.4103  0.6946
  310MOL0     C40828   5.009   6.889   4.246 -0.8867  0.1091  0.3482
  310MOL0     C40829   5.118   6.870   4.348 -0.0341 -0.0438 -0.5500
  310MOL0     C40830   5.084   6.757   4.455  0.6956 -0.1176  0.1119
  310MOL0     C40831   5.205   6.701   4.539 -0.6088 -1.2377 -0.0485
  310MOL0    Cl40832   5.269   6.829   4.647  0.3126 -0.5757 -0.3517
  310MOL0     C40833   4.963   7.482   3.763  0.0126 -0.3948  0.0944
  310MOL0     C40834   4.927   7.521   3.634  1.3732 -0.1183 -0.0160
  310MOL0     O40835   5.040   7.689   3.381  0.1459 -0.4926  0.3389
  310MOL0     C40836   4.859   7.495   3.132  0.3529 -0.5098 -0.0584
  310MOL0     C40837   4.823   7.508   2.998 -0.5454 -0.2157  0.0358
  310MOL0     N40838   4.514   7.550   2.457 -0.1672  0.2962 -0.6207
  310MOL0     N40839   4.400   7.492   2.460  1.0419 -0.0940 -0.2842
  310MOL0     C40840   3.821   7.046   1.718 -0.2779  0.0115  0.5661
  310MOL0     C40841   3.748   6.947   1.656 -0.3380  0.3493  0.6444
  310MOL0     C40842   3.648   6.598   1.427 -0.5258  0.2607  0.0262
  310MOL0     C40843   3.543   6.615   1.330 -0.3789 -0.4608  0.1241
  310MOL0     C40844   3.453   6.510   1.310 -1.1372  0.7305  0.4299
  310MOL0     C40845   3.462   6.391   1.388 -0.6028  0.3227 -0.2996
  310MOL0     O40846   3.376   6.284   1.369  0.2235  0.0588 -0.2834
  310MOL0     C40847   3.254   6.308   1.418  0.7553 -0.4694  0.3155
  310MOL0     C40848   3.162   6.186   1.443 -0.8173  0.1436 -0.2367
  310MOL0     C40849   3.142   6.111   1.313 -0.3132 -0.5374 -0.7993
  310MOL0     C40850   3.028   6.001   1.330  0.3287  0.2740  0.8297
  310MOL0     C40851   3.080   5.908   1.428 -1.0352 -0.2961 -0.4637
  310MOL0     C40852   3.121   5.822   1.501 -1.2194  0.0554  0.0901
  310MOL0     C40853   3.563   6.376   1.483  0.6742 -0.1452 -1.1781
  310MOL0     C40854   3.661   6.474   1.493 -0.6845 -0.0888 -0.2696
  310MOL0     H40855   3.755   7.025   1.330 -0.3391 -1.7034  0.2345
  310MOL0     H40856   3.897   7.223   1.441 -1.1657 -0.5126 -3.1741
  310MOL0     H40857   4.065   7.147   1.798 -1.3079  0.0112 -2.6119
  310MOL0     H40858   3.944   7.234   1.895  0.4872 -0.0411  1.6764
  310MOL0     H40859   4.087   7.449   1.800 -0.1521  1.0257 -0.7753
  310MOL0     H40860   4.189   7.312   1.738 -0.1123  1.0498 -0.0178
  310MOL0     H40861   4.289   7.386   1.937  1.6246 -2.1242  2.3793
  310MOL0     H40862   4.219   7.237   1.986  1.1443  0.7649  0.9385
  310MOL0     H40863   4.158   7.520   2.044  0.4102  0.1525  2.2672
  310MOL0     H40864   4.008   7.416   2.048 -1.3651 -0.8843  4.8470
  310MOL0     H40865   4.252   7.346   2.208  0.1908 -2.0894 -4.1513
  310MOL0     H40866   4.089   7.285   2.233  0.4240 -0.3757  1.7305
  310MOL0     H40867   4.018   7.536   2.264  0.3943  0.8151 -1.9615
  310MOL0     H40868   4.192   7.564   2.287  0.0953  1.2977  0.7986
  310MOL0     H40869   3.996   7.430   2.466 -1.3180  0.5538 -5.0095
  310MOL0     H40870   4.158   7.352   2.461  1.5046 -0.2498 -1.0439
  310MOL0     H40871   4.138   7.541   2.631 -1.6585  3.5445  1.4236
  310MOL0     H40872   4.101   7.646   2.497  1.2474  0.1255 -0.9252
  310MOL0     H40873   4.330   7.779   2.600 -1.0927 -1.8260  0.3469
  310MOL0     H40874   4.594   7.808   2.647  2.8421  3.5058 -0.8342
  310MOL0     H40875   4.554   7.883   2.518  0.9553 -0.0149  0.8681
  310MOL0     H40876   4.779   7.863   2.456 -2.8942 -0.0573 -3.8296
  310MOL0     H40877   4.709   7.729   2.389 -2.2363 -1.0066  0.6002
  310MOL0     H40878   4.797   7.568   2.557  0.9824 -0.6465  0.8599
  310MOL0     H40879   4.925   7.683   2.498  0.1549  2.5616  0.5593
  310MOL0     H40880   4.827   7.809   2.720  0.3157 -0.3382 -1.0776
  310MOL0     H40881   4.983   7.711   2.722 -0.2246 -2.0788  0.3301
  310MOL0     H40882   4.897   7.828   2.946 -1.7275  1.1903  0.7934
  310MOL0     H40883   4.973   7.806   3.185  0.2437 -2.6880  3.8847
  310MOL0     H40884   5.159   7.337   3.467  0.6519 -1.6209  1.8821
  310MOL0     H40885   5.226   7.289   3.690  0.5038  2.8920 -0.2480
  310MOL0     H40886   5.180   7.209   4.014  2.1815  2.9749 -0.3891
  310MOL0     H40887   5.102   7.150   3.851 -0.8748 -1.0205  0.8201
  310MOL0     H40888   4.880   7.210   3.916 -0.0137 -1.9605 -1.0831
  310MOL0     H40889   4.945   7.256   4.080  1.7006 -0.4106  1.2276
  310MOL0     H40890   4.974   6.972   3.965 -0.6452 -1.4647  0.3841
  310MOL0     H40891   4.842   7.014   4.070  0.4220 -1.0033  3.4140
  310MOL0     H40892   5.146   7.004   4.116  0.4358  1.2753  0.8074
  310MOL0     H40893   5.053   7.105   4.217  3.9645  0.9124 -0.3214
  310MOL0     H40894   4.998   6.800   4.183  2.8896 -1.0982  1.1004
  310MOL0     H40895   4.915   6.916   4.295  0.1159  0.2364  2.3124
  310MOL0     H40896   5.124   6.967   4.399 -3.1288  1.0614 -2.0284
  310MOL0     H40897   5.209   6.844   4.295 -0.4132  0.6723 -1.5836
  310MOL0     H40898   5.004   6.781   4.526  2.0786  1.7131  1.1597
  310MOL0     H40899   5.040   6.675   4.398 -0.2107  0.7364 -0.4536
  310MOL0     H40900   5.286   6.666   4.474  3.1537  0.4169  3.3356
  310MOL0     H40901   5.167   6.619   4.600 -0.1273 -0.8426  0.7864
  310MOL0     H40902   4.922   7.534   3.849  1.3822  1.1032 -0.1256
  310MOL0     H40903   4.842   7.585   3.613 -0.1954 -1.0493  2.8566
  310MOL0     H40904   4.862   7.395   3.173 -2.4212 -1.0649 -1.0103
  310MOL0     H40905   4.793   7.420   2.942  0.2544  0.9542 -2.3965
  310MOL0     H40906   3.834   7.059   1.825 -0.2735  0.5037  0.5063
  310MOL0     H40907   3.694   6.874   1.716 -1.3195  1.1846  0.8038
  310MOL0     H40908   3.537   6.707   1.272  1.1406  0.7452  1.7347
  310MOL0     H40909   3.378   6.530   1.234  1.7613 -0.3287 -2.9542
  310MOL0     H40910   3.202   6.373   1.346  0.9410 -2.5473 -1.8131
  310MOL0     H40911   3.258   6.364   1.512  2.7128 -0.6899  0.4004
  310MOL0     H40912   3.223   6.128   1.512 -1.4477  0.4714  0.6092
  310MOL0     H40913   3.070   6.221   1.491 -0.9951 -1.6450  0.8078
  310MOL0     H40914   3.236   6.068   1.279 -0.3812  1.6486 -4.1918
  310MOL0     H40915   3.110   6.189   1.244 -0.3379  0.2604  0.0892
  310MOL0     H40916   2.941   6.048   1.378 -0.9167 -0.2681 -0.8085
  310MOL0     H40917   3.001   5.953   1.235  0.3852  1.2058  0.3238
  310MOL0     H40918   3.162   5.746   1.563  1.1572  2.0156  1.0774
  310MOL0     H40919   3.580   6.286   1.541  3.5133  0.4272 -0.9627
  310MOL0     H40920   3.750   6.465   1.555 -0.5196 -1.7379 -0.6970
  311MOL0     O40921   4.412   2.384   9.710  0.4671 -0.0687  0.3141
  311MOL0     C40922   4.413   2.454   9.814  0.5784 -1.0348  0.4661
  311MOL0     O40923   4.385   2.587   9.819  0.6459  0.2611  0.1771
  311MOL0     C40924   4.335   2.645   9.699 -0.5383  0.1782 -1.2012
  311MOL0     C40925   4.383   2.773   9.679 -0.8182 -0.9868  1.3515
  311MOL0     C40926   4.332   2.842   9.570 -0.9654 -0.5997  0.9230
  311MOL0     C40927   4.225   2.788   9.491  0.3875 -1.1433  0.1239
  311MOL0     O40928   4.180   2.851   9.383 -0.1223  0.2497  0.0338
  311MOL0     C40929   4.277   2.913   9.296  1.1668  0.8175 -0.8649
  311MOL0     C40930   4.200   2.950   9.165  1.0078  0.2044  0.1058
  311MOL0     C40931   4.308   2.981   9.061 -1.1958  0.5062  0.2205
  311MOL0     C40932   4.243   3.057   8.945  0.0132 -0.2348  0.3956
  311MOL0     C40933   4.180   2.974   8.828 -0.0443 -0.7736  0.0459
  311MOL0     C40934   4.024   2.936   8.856  0.1815  0.2855  0.9864
  311MOL0     C40935   3.914   3.054   8.836 -0.4660 -0.0235  0.3724
  311MOL0     C40936   3.813   3.078   8.948 -0.8167 -0.0065  0.2778
  311MOL0     N40937   3.687   3.016   8.936 -0.1424 -0.5259  0.9043
  311MOL0     C40938   3.558   3.058   8.968 -0.7243  0.4485 -0.5951
  311MOL0     C40939   3.500   2.930   8.974  0.7757 -0.2864  0.2584
  311MOL0     C40940   3.353   2.892   9.006  1.0036  0.4204  0.0448
  311MOL0     C40941   3.318   2.900   9.146 -0.2309  1.2392 -0.0924
  311MOL0     C40942   3.169   2.856   9.157 -0.7765  0.9612  0.1806
  311MOL0     C40943   3.062   2.955   9.122 -0.6558 -0.1895 -0.7122
  311MOL0     O40944   3.071   2.980   8.987  0.4184 -0.7053 -1.0813
  311MOL0     C40945   2.955   3.013   8.927 -0.6762  0.4749  0.4909
  311MOL0     C40946   2.869   3.118   8.962 -0.1852 -1.0392 -0.8011
  311MOL0     C40947   2.748   3.129   8.899  0.5789  0.0606 -0.2186
  311MOL0     C40948   2.717   3.043   8.788 -0.0159 -0.3794 -0.2127
  311MOL0     C40949   2.585   3.045   8.727  1.1458  0.0991  0.1283
  311MOL0     O40950   2.540   2.947   8.644 -0.1754 -0.0137  0.1760
  311MOL0     C40951   2.416   2.967   8.583  0.3908 -0.5219 -1.1700
  311MOL0     C40952   2.327   2.855   8.597  0.6875  0.3015 -0.3165
  311MOL0     C40953   2.200   2.848   8.550  1.1222 -0.0808  0.0554
  311MOL0     C40954   2.152   2.953   8.474 -0.6275  0.7406  0.4598
  311MOL0     O40955   2.030   2.957   8.424 -0.9123 -0.1673 -0.9495
  311MOL0     C40956   1.944   3.069   8.447  0.1142  0.6363  0.2698
  311MOL0     C40957   1.928   3.157   8.317  0.6612 -0.0440 -0.0809
  311MOL0     C40958   1.870   3.068   8.195  0.0914  0.6056  0.0163
  311MOL0     C40959   1.818   3.169   8.086 -0.0513  0.3272  0.3222
  311MOL0     C40960   1.764   3.087   7.964  0.0136  0.5314 -0.2901
  311MOL0     C40961   1.875   3.042   7.880  0.6658  0.0155 -0.7204
  311MOL0     C40962   1.831   2.945   7.764  0.7875  0.3933  0.8067
  311MOL0     C40963   1.941   2.871   7.699 -0.1557 -0.0217  0.0954
  311MOL0    Cl40964   2.073   2.983   7.654 -0.2189  0.4738  0.4642
  311MOL0     C40965   2.239   3.070   8.444  0.5591  1.4090  0.5397
  311MOL0     C40966   2.370   3.070   8.501 -0.0483 -0.5337 -0.7138
  311MOL0     O40967   2.514   3.141   8.760  0.3263  0.2760 -0.6515
  311MOL0     C40968   2.815   2.958   8.749 -0.0444 -0.4730 -0.3195
  311MOL0     C40969   2.942   2.942   8.813  0.4082 -0.3680 -0.2750
  311MOL0     N40970   3.581   2.827   8.919  0.0455 -0.4840 -0.2623
  311MOL0     N40971   3.688   2.883   8.904 -0.6859  0.5872  0.1061
  311MOL0     C40972   4.181   2.657   9.518 -1.1275  0.5048 -0.3443
  311MOL0     C40973   4.232   2.585   9.623  0.4303 -0.4864  0.3914
  311MOL0     C40974   4.460   2.391   9.939  0.5443 -0.0998 -0.6546
  311MOL0     C40975   4.458   2.455  10.069  0.4264 -0.4866  0.5986
  311MOL0     C40976   4.490   2.385  10.184 -0.7224 -0.1298 -0.0447
  311MOL0     C40977   4.507   2.248  10.186  0.5272  0.4564 -0.2676
  311MOL0     O40978   4.527   2.174  10.301 -0.0192  0.3871  0.0320
  311MOL0     C40979   4.416   2.166  10.384  0.2754  0.5733  0.2991
  311MOL0     C40980   4.429   2.041  10.470  0.3615  0.8746 -1.0640
  311MOL0     C40981   4.507   2.070  10.597  0.0636 -0.3410  0.1009
  311MOL0     C40982   4.555   1.954  10.674  0.4908 -0.3676  0.6675
  311MOL0     C40983   4.675   1.900  10.612 -0.0147  0.5565 -0.2197
  311MOL0     C40984   4.762   1.832  10.563 -1.2058 -0.0482  0.5047
  311MOL0     C40985   4.496   2.181  10.061  0.0092 -0.7254  0.7811
  311MOL0     C40986   4.475   2.249   9.943 -0.0464  0.5657  0.7984
  311MOL0     H40987   4.466   2.814   9.735 -0.7077 -0.1872  0.6180
  311MOL0     H40988   4.386   2.924   9.524 -1.0978 -1.3826 -0.6999
  311MOL0     H40989   4.369   2.860   9.273  0.2609 -1.3931  0.2703
  311MOL0     H40990   4.313   3.012   9.323  0.0406  1.4655 -1.6182
  311MOL0     H40991   4.134   3.037   9.166  0.3317 -0.2984  0.0606
  311MOL0     H40992   4.144   2.864   9.126 -0.4146  1.7047 -1.3046
  311MOL0     H40993   4.361   2.888   9.039  1.2971  1.5991  1.2479
  311MOL0     H40994   4.375   3.051   9.111 -1.6776 -1.3905  3.8587
  311MOL0     H40995   4.153   3.108   8.982 -1.5853 -0.9499 -2.2526
  311MOL0     H40996   4.306   3.139   8.909 -3.5840  2.5427 -0.1372
  311MOL0     H40997   4.246   2.887   8.829  1.2293  0.1489 -0.4002
  311MOL0     H40998   4.193   3.040   8.741 -2.6147 -2.1025 -1.4914
  311MOL0     H40999   4.002   2.897   8.956  0.9042 -1.6098  0.4484
  311MOL0     H41000   4.009   2.855   8.785 -0.1704  0.9314  0.3100
  311MOL0     H41001   3.967   3.145   8.807 -1.3231  0.2977 -0.2419
  311MOL0     H41002   3.847   3.045   8.750 -3.6983 -0.3613  2.7194
  311MOL0     H41003   3.805   3.187   8.954  0.9739  0.1660  0.0807
  311MOL0     H41004   3.855   3.049   9.045 -0.7149  0.0210  0.2417
  311MOL0     H41005   3.510   3.155   8.974 -3.6226 -0.9071  0.0380
  311MOL0     H41006   3.324   2.788   8.992 -0.9004  1.0312 -0.9415
  311MOL0     H41007   3.289   2.952   8.940  2.3465  1.6199 -0.2385
  311MOL0     H41008   3.324   3.001   9.188 -1.7708  0.9461  0.9129
  311MOL0     H41009   3.391   2.843   9.205  1.5307  1.6805 -1.7405
  311MOL0     H41010   3.144   2.770   9.094  0.1469 -0.1886  1.3363
  311MOL0     H41011   3.154   2.815   9.257 -0.4129 -1.2704 -0.6046
  311MOL0     H41012   3.058   3.048   9.180  1.2775 -1.2843  1.2885
  311MOL0     H41013   2.969   2.904   9.150 -0.4695  1.5766  4.0477
  311MOL0     H41014   2.897   3.174   9.051  1.9876  0.1139 -2.1275
  311MOL0     H41015   2.671   3.192   8.943 -0.1936 -0.3723 -0.9290
  311MOL0     H41016   2.369   2.774   8.656 -0.3470  0.0569  0.1013
  311MOL0     H41017   2.132   2.765   8.564  1.8815 -0.3106  3.2062
  311MOL0     H41018   1.977   3.132   8.530  0.5992  0.7225  0.0161
  311MOL0     H41019   1.851   3.019   8.475 -1.2339  0.4403 -3.9109
  311MOL0     H41020   2.024   3.192   8.278 -0.4061  1.4365 -1.5450
  311MOL0     H41021   1.861   3.242   8.335  0.6890 -0.3594  1.6800
  311MOL0     H41022   1.776   3.018   8.221 -0.5889  1.3919 -0.8663
  311MOL0     H41023   1.945   2.993   8.168  0.3999  0.0653  2.2140
  311MOL0     H41024   1.748   3.244   8.122  0.5711  1.0935 -0.0260
  311MOL0     H41025   1.898   3.237   8.056  1.8036 -1.5039  0.8396
  311MOL0     H41026   1.693   3.134   7.895 -0.4192  0.0959 -0.1447
  311MOL0     H41027   1.725   2.992   8.000 -0.7260  0.6216 -0.8329
  311MOL0     H41028   1.963   3.013   7.938  0.0410  1.4542  1.0449
  311MOL0     H41029   1.913   3.131   7.830 -2.5701  0.2750 -2.9909
  311MOL0     H41030   1.752   2.875   7.793 -2.4064  2.7353 -1.4939
  311MOL0     H41031   1.777   3.002   7.688 -0.6438 -0.1666  1.3593
  311MOL0     H41032   1.910   2.802   7.619  2.3455 -1.8983  0.6345
  311MOL0     H41033   1.989   2.798   7.765  1.9557  0.2165 -1.0905
  311MOL0     H41034   2.214   3.151   8.376 -0.0896  1.7766  1.2094
  311MOL0     H41035   2.432   3.159   8.491  0.5827 -0.8847 -0.0174
  311MOL0     H41036   2.783   2.896   8.666 -1.1597  0.8186 -0.9033
  311MOL0     H41037   3.022   2.873   8.787  0.0137 -2.2910  3.0963
  311MOL0     H41038   4.095   2.614   9.469 -0.7974 -1.8770  1.0125
  311MOL0     H41039   4.186   2.488   9.637  0.4476 -0.3202  1.7113
  311MOL0     H41040   4.433   2.560  10.084 -0.8412 -0.5927 -0.5065
  311MOL0     H41041   4.500   2.438  10.278  2.9445 -1.1161  0.2779
  311MOL0     H41042   4.329   2.149  10.320 -0.6413 -1.2836  1.9036
  311MOL0     H41043   4.412   2.256  10.446  0.6904  2.3904 -2.1824
  311MOL0     H41044   4.329   2.002  10.492  0.3364  0.7463 -1.4091
  311MOL0     H41045   4.487   1.976  10.404  1.3331 -0.0347  0.6158
  311MOL0     H41046   4.440   2.132  10.657 -0.2675  1.8089 -2.2749
  311MOL0     H41047   4.596   2.132  10.583  0.0140 -0.3931 -0.4659
  311MOL0     H41048   4.575   1.985  10.777  1.9104 -0.0349  0.3107
  311MOL0     H41049   4.473   1.881  10.670 -0.3153  0.5686 -1.8729
  311MOL0     H41050   4.843   1.771  10.529 -0.5268  0.6170  0.8955
  311MOL0     H41051   4.512   2.074  10.071 -3.1162 -1.4979 -1.1243
  311MOL0     H41052   4.459   2.193   9.851 -0.4324  3.0163 -0.7351
  312MOL0     O41053   0.977  11.006   3.676 -0.3630 -0.0384  0.3378
  312MOL0     C41054   0.933  11.080   3.590 -0.0921 -0.6997 -0.6468
  312MOL0     O41055   1.002  11.098   3.467 -0.3516 -0.7203 -0.7230
  312MOL0     C41056   1.126  11.043   3.446  0.3593  0.3067 -0.5119
  312MOL0     C41057   1.235  11.081   3.530  0.0267  0.5078  0.4196
  312MOL0     C41058   1.367  11.018   3.512  0.4149 -0.0643 -0.7547
  312MOL0     C41059   1.393  10.927   3.413  0.1466 -0.2513 -0.3454
  312MOL0     O41060   1.508  10.863   3.388  0.1079 -0.5712  0.1624
  312MOL0     C41061   1.633  10.883   3.456  0.6791 -0.6905  0.1160
  312MOL0     C41062   1.639  10.825   3.595  0.4587 -0.6336 -0.5502
  312MOL0     C41063   1.632  10.676   3.615  0.2114 -0.6910 -0.4002
  312MOL0     C41064   1.724  10.601   3.516 -0.9837  0.8623 -0.1308
  312MOL0     C41065   1.881  10.619   3.540  0.6632 -0.5766 -0.0768
  312MOL0     C41066   1.958  10.539   3.435 -0.0238  0.0463 -0.4702
  312MOL0     C41067   2.097  10.611   3.410 -0.3556  0.0737 -0.5173
  312MOL0     C41068   2.175  10.557   3.301 -0.8316 -0.0130  0.7952
  312MOL0     N41069   2.307  10.619   3.285 -0.2691  0.4626 -0.5290
  312MOL0     C41070   2.421  10.570   3.348  0.4770  0.4406  0.3191
  312MOL0     C41071   2.509  10.669   3.316 -0.7198 -0.2664  0.3132
  312MOL0     C41072   2.650  10.671   3.377 -0.4927  0.4659  0.4825
  312MOL0     C41073   2.655  10.710   3.528  0.8849 -1.0385  0.4436
  312MOL0     C41074   2.627  10.862   3.546  0.6603 -0.0564 -0.9339
  312MOL0     C41075   2.629  10.893   3.706 -0.1224  0.7678 -0.9523
  312MOL0     O41076   2.524  10.848   3.785 -0.1143 -0.2603  0.0038
  312MOL0     C41077   2.398  10.907   3.771 -0.6437 -0.9325 -0.2052
  312MOL0     C41078   2.305  10.870   3.662 -0.5160  0.0145  0.7649
  312MOL0     C41079   2.184  10.933   3.642  0.1343 -0.1519 -0.5959
  312MOL0     C41080   2.138  11.011   3.744 -0.7601  0.8314  0.5070
  312MOL0     C41081   2.006  11.067   3.754  0.5398  1.1493  0.2669
  312MOL0     O41082   1.946  11.090   3.878 -0.1582  0.2517  0.9664
  312MOL0     C41083   1.830  11.153   3.866  0.1377 -0.0893 -0.3172
  312MOL0     C41084   1.714  11.096   3.929  0.2136 -0.4798  0.6030
  312MOL0     C41085   1.592  11.152   3.906 -0.1496  0.1152 -0.7926
  312MOL0     C41086   1.575  11.277   3.840 -0.1884 -0.0475  1.3147
  312MOL0     O41087   1.453  11.337   3.823  0.0822  0.2789 -0.5174
  312MOL0     C41088   1.429  11.425   3.711  0.4306  0.0502  0.0032
  312MOL0     C41089   1.284  11.456   3.704  0.2772 -0.9690 -0.0796
  312MOL0     C41090   1.250  11.521   3.569  0.1901  0.3904  0.4305
  312MOL0     C41091   1.100  11.506   3.528 -0.5262  0.0661 -0.2470
  312MOL0     C41092   1.051  11.609   3.427  0.0539  0.2720 -0.4328
  312MOL0     C41093   0.915  11.591   3.359 -1.0678 -0.3026  0.3965
  312MOL0     C41094   0.869  11.707   3.265 -0.3060 -0.2990  0.7557
  312MOL0     C41095   0.720  11.700   3.239  0.9207 -0.0907  0.3213
  312MOL0    Cl41096   0.619  11.732   3.380  0.1108 -0.4126 -0.6089
  312MOL0     C41097   1.694  11.342   3.790 -0.3892 -0.8808 -0.2080
  312MOL0     C41098   1.819  11.277   3.792  0.2283 -0.0794  0.7942
  312MOL0     O41099   1.958  11.082   3.645 -0.2143  0.6225  0.0927
  312MOL0     C41100   2.226  11.057   3.851 -1.2070  0.6426 -0.1750
  312MOL0     C41101   2.360  11.009   3.862  0.4274  0.5580  0.1742
  312MOL0     N41102   2.448  10.777   3.255 -0.1156  0.0951 -0.0015
  312MOL0     N41103   2.329  10.744   3.234 -0.0763 -0.2418 -0.1107
  312MOL0     C41104   1.280  10.902   3.332 -0.0099  0.4653  0.6674
  312MOL0     C41105   1.148  10.957   3.353  0.8497  0.2903  0.1579
  312MOL0     C41106   0.809  11.165   3.609 -0.5398  0.9052 -0.2626
  312MOL0     C41107   0.762  11.269   3.530 -0.5673  0.8584  0.9345
  312MOL0     C41108   0.639  11.337   3.559 -0.1350  0.4856  0.1636
  312MOL0     C41109   0.557  11.292   3.668 -0.0595  0.4224  0.7042
  312MOL0     O41110   0.426  11.345   3.681  0.8806 -0.1265 -0.7248
  312MOL0     C41111   0.362  11.451   3.609 -0.4224  0.1114 -0.9521
  312MOL0     C41112   0.224  11.484   3.665 -0.2972  0.2354 -0.4491
  312MOL0     C41113   0.116  11.380   3.643  0.1898 -0.9154 -0.2130
  312MOL0     C41114   0.031  11.410   3.512 -0.9626  0.5967 -1.1100
  312MOL0     C41115  -0.102  11.468   3.542  0.0412 -0.7495 -0.0925
  312MOL0     C41116  -0.195  11.516   3.591  0.6675 -0.4018 -0.6241
  312MOL0     C41117   0.601  11.196   3.747 -0.4115 -0.8945  0.0713
  312MOL0     C41118   0.725  11.134   3.719 -0.8235  0.3917  0.6710
  312MOL0     H41119   1.220  11.147   3.615 -1.3115  2.3539 -1.1816
  312MOL0     H41120   1.445  11.022   3.586  1.1252  0.2056 -1.5038
  312MOL0     H41121   1.655  10.990   3.465 -3.5689  0.7211 -2.9466
  312MOL0     H41122   1.714  10.840   3.397  1.9391 -0.6636  1.7232
  312MOL0     H41123   1.570  10.872   3.665  0.6335 -2.7943  1.2041
  312MOL0     H41124   1.738  10.861   3.623 -1.0453  3.1589  0.4913
  312MOL0     H41125   1.527  10.647   3.611  0.5324 -1.9375 -0.2499
  312MOL0     H41126   1.665  10.660   3.718 -3.2520 -1.2099  0.7359
  312MOL0     H41127   1.697  10.496   3.529  0.2706  0.2432 -2.2261
  312MOL0     H41128   1.694  10.612   3.412  0.2964  2.3448 -0.3738
  312MOL0     H41129   1.899  10.592   3.644 -2.8974 -1.1049  0.5302
  312MOL0     H41130   1.900  10.726   3.526  0.3958 -0.4542  0.4655
  312MOL0     H41131   1.907  10.546   3.338 -2.0254  0.8442  0.5742
  312MOL0     H41132   1.964  10.436   3.471 -1.2397  0.6567  1.6352
  312MOL0     H41133   2.094  10.718   3.385  1.6558 -0.0123 -1.3507
  312MOL0     H41134   2.157  10.599   3.500 -0.4286 -0.4966 -0.5430
  312MOL0     H41135   2.121  10.566   3.207 -0.0893  1.5465  0.4684
  312MOL0     H41136   2.194  10.452   3.326  2.5176  0.7473  2.0512
  312MOL0     H41137   2.424  10.472   3.395  1.0604  0.5997  0.6160
  312MOL0     H41138   2.715  10.740   3.323  0.4731 -1.2740 -0.6606
  312MOL0     H41139   2.695  10.572   3.376 -2.3194 -0.4312 -1.6506
  312MOL0     H41140   2.761  10.703   3.553  0.7578  0.3111  1.5009
  312MOL0     H41141   2.594  10.650   3.596 -1.6135  1.1301  0.3099
  312MOL0     H41142   2.708  10.919   3.500  1.1508  0.5005  0.5619
  312MOL0     H41143   2.529  10.893   3.509 -0.0412 -0.6258  0.3607
  312MOL0     H41144   2.619  11.001   3.721  1.7594  0.9845 -1.0361
  312MOL0     H41145   2.727  10.869   3.748  0.0341 -0.9949 -2.2175
  312MOL0     H41146   2.330  10.790   3.593 -3.9075 -3.2071  2.8841
  312MOL0     H41147   2.115  10.900   3.564  0.3304  2.1351 -1.8510
  312MOL0     H41148   1.729  11.006   3.986  0.8933  0.9200  2.7579
  312MOL0     H41149   1.499  11.108   3.941 -1.2640  1.1736 -2.3056
  312MOL0     H41150   1.462  11.378   3.618  1.7290  2.5812 -0.9039
  312MOL0     H41151   1.480  11.521   3.717 -1.4092  1.2404 -2.1437
  312MOL0     H41152   1.253  11.510   3.794  0.9252  0.7832 -0.8550
  312MOL0     H41153   1.225  11.364   3.712 -3.5035  1.2224 -0.2476
  312MOL0     H41154   1.306  11.480   3.485 -2.0456  0.9072 -1.4078
  312MOL0     H41155   1.257  11.631   3.573 -2.2808  0.5752  2.8491
  312MOL0     H41156   1.098  11.409   3.477 -1.0607 -0.2171  0.2981
  312MOL0     H41157   1.032  11.509   3.613  3.0236 -1.4487  2.9849
  312MOL0     H41158   1.121  11.605   3.343  0.2143 -1.6635 -0.2437
  312MOL0     H41159   1.051  11.708   3.473  0.5820  0.1946 -0.2610
  312MOL0     H41160   0.844  11.567   3.439  1.4724 -3.8700  1.8524
  312MOL0     H41161   0.918  11.501   3.297 -0.5906  0.6596 -1.0251
  312MOL0     H41162   0.876  11.805   3.312 -1.0004 -0.9412  2.2863
  312MOL0     H41163   0.928  11.709   3.173 -1.3249  0.4324  0.1003
  312MOL0     H41164   0.699  11.600   3.198  1.7780 -0.4164  0.6391
  312MOL0     H41165   0.686  11.765   3.158 -0.3616  0.5767  1.3688
  312MOL0     H41166   1.681  11.443   3.753 -1.7051 -1.2848 -0.9240
  312MOL0     H41167   1.918  11.314   3.767 -0.9139  4.2380  1.9281
  312MOL0     H41168   2.194  11.131   3.923  3.6962 -0.0265  3.1125
  312MOL0     H41169   2.420  11.042   3.947 -0.2937 -0.4314  1.0900
  312MOL0     H41170   1.285  10.824   3.256  0.1354  1.2641 -0.1574
  312MOL0     H41171   1.065  10.936   3.286 -1.5549  0.8856  2.7762
  312MOL0     H41172   0.822  11.286   3.441  3.2897 -2.2481  2.6881
  312MOL0     H41173   0.612  11.420   3.494  3.1076  0.7322 -1.0404
  312MOL0     H41174   0.346  11.407   3.510  0.4836  0.8047 -1.4291
  312MOL0     H41175   0.420  11.544   3.608 -0.0119 -0.1321 -2.2842
  312MOL0     H41176   0.232  11.492   3.774 -1.6577  1.5980 -0.4098
  312MOL0     H41177   0.190  11.580   3.626  0.7069 -0.6362 -3.7514
  312MOL0     H41178   0.050  11.386   3.730  2.7344 -0.0751  1.7938
  312MOL0     H41179   0.149  11.277   3.657 -1.1323 -1.2979  0.2415
  312MOL0     H41180   0.087  11.486   3.456 -0.6428  0.6543 -0.7253
  312MOL0     H41181   0.027  11.315   3.458 -1.0331  0.2005 -0.4177
  312MOL0     H41182  -0.277  11.571   3.632 -1.2204 -2.8476 -0.8961
  312MOL0     H41183   0.546  11.165   3.835  0.2820 -2.3647  0.0267
  312MOL0     H41184   0.759  11.054   3.783  2.9869  1.7891  0.6815
  313MOL0     O41185   9.940   8.441   4.667  0.1009  0.1168 -0.0100
  313MOL0     C41186   9.824   8.481   4.653 -0.3591  0.4567 -0.1022
  313MOL0     O41187   9.774   8.601   4.686 -0.1523  0.0756 -0.1407
  313MOL0     C41188   9.869   8.694   4.743  0.1382  0.1561 -0.3255
  313MOL0     C41189   9.837   8.829   4.740  0.3630  1.0302  0.3280
  313MOL0     C41190   9.906   8.930   4.802 -0.4829 -0.0841 -0.4675
  313MOL0     C41191  10.005   8.902   4.892  0.3493  0.3678  0.1911
  313MOL0     O41192  10.066   8.997   4.970 -0.6964 -0.2866  0.0624
  313MOL0     C41193  10.120   9.123   4.902  1.2602 -0.5022 -0.2964
  313MOL0     C41194  10.242   9.183   4.994 -0.2785  0.1056 -1.0109
  313MOL0     C41195  10.353   9.071   5.021  0.2547 -0.4327 -0.8693
  313MOL0     C41196  10.455   9.117   5.132  0.1347  0.7949 -0.5593
  313MOL0     C41197  10.544   9.006   5.195 -0.3617 -0.6677  0.9384
  313MOL0     C41198  10.675   9.063   5.243 -0.7002 -0.2674  0.5282
  313MOL0     C41199  10.661   9.179   5.359  0.4572  0.6562  0.3404
  313MOL0     C41200  10.798   9.244   5.372  0.1633 -0.9139  1.0818
  313MOL0     N41201  10.903   9.147   5.404  0.2862  1.2817 -0.2492
  313MOL0     C41202  10.914   9.064   5.517 -0.7503 -0.3953 -0.8014
  313MOL0     C41203  11.044   9.015   5.521  0.4670  0.3331 -0.2663
  313MOL0     C41204  11.096   8.933   5.627  1.0250 -0.4043 -0.3380
  313MOL0     C41205  11.193   9.012   5.717 -0.4011  0.1338  0.8940
  313MOL0     C41206  11.298   8.918   5.786  0.2120 -0.4751  0.0423
  313MOL0     C41207  11.382   8.995   5.887 -0.2545 -0.6422  0.5452
  313MOL0     O41208  11.460   9.084   5.800  0.0749 -1.1371 -0.8405
  313MOL0     C41209  11.558   9.142   5.873 -0.4714  0.0618  0.0671
  313MOL0     C41210  11.607   9.100   6.001  0.0880  0.1847  0.1897
  313MOL0     C41211  11.692   9.174   6.073  0.0918  0.0627 -0.2437
  313MOL0     C41212  11.749   9.293   6.021  0.2304 -0.1673 -0.4200
  313MOL0     C41213  11.855   9.362   6.097  0.5047 -0.1152 -0.0187
  313MOL0     O41214  11.939   9.440   6.026 -0.3569 -0.2816 -0.1863
  313MOL0     C41215  12.046   9.500   6.094  0.1302 -0.3206  0.9264
  313MOL0     C41216  12.078   9.515   6.227  0.1471  1.2353 -0.3195
  313MOL0     C41217  12.181   9.594   6.270 -0.4433  0.0779 -0.6122
  313MOL0     C41218  12.256   9.668   6.185 -0.6410 -0.3963 -0.2489
  313MOL0     O41219  12.340   9.753   6.247  0.0391 -0.4396  0.2135
  313MOL0     C41220  12.404   9.860   6.176  0.7838  0.4719  0.3474
  313MOL0     C41221  12.531   9.803   6.111 -0.5565  0.0160 -0.1475
  313MOL0     C41222  12.605   9.704   6.203  0.7106 -0.7047  0.4655
  313MOL0     C41223  12.753   9.707   6.196 -0.1182 -0.5128 -1.0755
  313MOL0     C41224  12.822   9.608   6.289 -0.2012 -0.2131  0.4361
  313MOL0     C41225  12.963   9.657   6.299 -0.6156  0.3557  0.1748
  313MOL0     C41226  13.056   9.560   6.368  0.6160  0.1813  0.1644
  313MOL0     C41227  13.185   9.628   6.427  0.0124  0.0520 -0.0259
  313MOL0    Cl41228  13.133   9.758   6.548  0.4414 -0.2594 -0.2664
  313MOL0     C41229  12.235   9.649   6.050  0.8807  0.2743  0.3684
  313MOL0     C41230  12.132   9.567   6.014 -0.2671  0.0823  1.0770
  313MOL0     O41231  11.873   9.327   6.218 -0.4413 -0.1809  0.1361
  313MOL0     C41232  11.716   9.328   5.890 -0.2158  0.4372 -0.1357
  313MOL0     C41233  11.622   9.253   5.818  0.1038 -0.3179 -0.1648
  313MOL0     N41234  11.119   9.076   5.416  0.0458  0.3181 -0.1216
  313MOL0     N41235  11.032   9.148   5.347 -0.6049 -0.9454 -0.5055
  313MOL0     C41236  10.038   8.763   4.905  0.2243 -0.2178 -0.5825
  313MOL0     C41237   9.970   8.661   4.833  0.5663 -0.3192 -0.3011
  313MOL0     C41238   9.727   8.375   4.595 -0.4283 -0.5589  0.7834
  313MOL0     C41239   9.588   8.391   4.589  0.3219 -0.9974 -0.0667
  313MOL0     C41240   9.499   8.300   4.529  0.2015  0.0727  0.7239
  313MOL0     C41241   9.548   8.178   4.470 -0.4383 -0.1228 -0.7815
  313MOL0     O41242   9.456   8.103   4.406  1.0474 -0.3808  0.0688
  313MOL0     C41243   9.511   7.993   4.330  0.5759  1.6436 -0.8946
  313MOL0     C41244   9.387   7.953   4.253 -1.0677 -0.1656 -0.2630
  313MOL0     C41245   9.275   7.907   4.342  0.3538  0.0362  0.4037
  313MOL0     C41246   9.163   7.833   4.272  0.7599  0.9057  0.1645
  313MOL0     C41247   9.067   7.918   4.197 -0.3319 -0.6446  0.7283
  313MOL0     C41248   8.976   7.994   4.178  0.4863  1.0503  0.2029
  313MOL0     C41249   9.685   8.158   4.493  0.2197  0.2572 -0.8811
  313MOL0     C41250   9.769   8.251   4.546  0.6942 -0.6364 -0.8265
  313MOL0     H41251   9.748   8.856   4.684  1.8547  2.1564 -1.6540
  313MOL0     H41252   9.873   9.031   4.779 -1.9433 -0.5379 -0.4703
  313MOL0     H41253  10.045   9.203   4.903  1.0256 -0.7278  0.3943
  313MOL0     H41254  10.159   9.106   4.801 -2.2008  0.3385 -1.9559
  313MOL0     H41255  10.194   9.208   5.089 -0.5249 -2.1385 -0.4930
  313MOL0     H41256  10.286   9.269   4.943 -1.6658  0.5688 -1.4459
  313MOL0     H41257  10.388   9.027   4.927 -0.8166 -3.5509  0.0539
  313MOL0     H41258  10.302   8.986   5.068 -0.9119  1.3636  1.2756
  313MOL0     H41259  10.510   9.198   5.084 -1.6635  1.1816 -2.0994
  313MOL0     H41260  10.397   9.157   5.216  1.0246  0.5187  0.2003
  313MOL0     H41261  10.552   8.932   5.115 -2.0003 -0.0510  0.1541
  313MOL0     H41262  10.492   8.963   5.281 -1.3821  0.0617  0.7124
  313MOL0     H41263  10.718   9.110   5.154 -0.6221 -1.4041 -0.0616
  313MOL0     H41264  10.755   8.992   5.267 -1.8639 -1.0144  2.4257
  313MOL0     H41265  10.594   9.263   5.341  0.2960  1.5836  4.4035
  313MOL0     H41266  10.624   9.130   5.450  1.1146  1.8565  1.2697
  313MOL0     H41267  10.790   9.319   5.452  1.2471 -1.8342  2.1087
  313MOL0     H41268  10.832   9.297   5.283 -2.4610 -2.7786 -1.1689
  313MOL0     H41269  10.834   9.047   5.588 -0.3433  0.2519 -0.1739
  313MOL0     H41270  11.126   8.838   5.582 -2.2823 -1.6343 -0.2481
  313MOL0     H41271  11.012   8.910   5.694  3.5625 -2.7151  2.3483
  313MOL0     H41272  11.141   9.056   5.802  0.1381 -1.4445  2.0840
  313MOL0     H41273  11.248   9.076   5.647 -1.0090 -1.4644 -1.1478
  313MOL0     H41274  11.236   8.850   5.845 -0.1444  0.5170  0.8341
  313MOL0     H41275  11.361   8.875   5.707  1.1459  2.1029 -0.6971
  313MOL0     H41276  11.446   8.920   5.934  1.2019  1.6137  2.4469
  313MOL0     H41277  11.312   9.048   5.953  2.8035  2.7414  1.4035
  313MOL0     H41278  11.592   8.999   6.038  0.4317  0.6317  1.6166
  313MOL0     H41279  11.727   9.122   6.162 -1.4427  0.7145  0.7906
  313MOL0     H41280  12.015   9.475   6.305 -0.3843  2.5639 -0.0323
  313MOL0     H41281  12.216   9.586   6.372 -1.0870  1.3907 -0.2716
  313MOL0     H41282  12.438   9.923   6.259  3.5881 -0.7766  0.2443
  313MOL0     H41283  12.336   9.923   6.119  1.9619  1.2317 -0.2637
  313MOL0     H41284  12.604   9.883   6.095 -1.0594  0.8172  1.3043
  313MOL0     H41285  12.513   9.759   6.013 -3.5212 -0.1714  0.3703
  313MOL0     H41286  12.573   9.610   6.157 -1.1660 -1.3837  2.9488
  313MOL0     H41287  12.568   9.703   6.306  2.1020  2.1434  1.0989
  313MOL0     H41288  12.788   9.685   6.094  0.5923 -1.3400 -0.6636
  313MOL0     H41289  12.782   9.805   6.234 -2.3468 -0.9759  2.2422
  313MOL0     H41290  12.804   9.502   6.266 -0.3743 -0.5421  1.9446
  313MOL0     H41291  12.773   9.616   6.387  0.1454 -2.0140  0.7881
  313MOL0     H41292  12.967   9.754   6.348  0.0069  0.9263 -0.9563
  313MOL0     H41293  13.002   9.674   6.198  1.6472 -0.7904  0.7670
  313MOL0     H41294  13.004   9.513   6.453 -0.1259  0.5136 -0.1000
  313MOL0     H41295  13.074   9.481   6.294 -0.4083  0.2845 -0.2113
  313MOL0     H41296  13.242   9.683   6.352  2.1009 -1.1777  0.5824
  313MOL0     H41297  13.244   9.561   6.490  1.7323  2.5188  1.1254
  313MOL0     H41298  12.295   9.714   5.988  0.3887  1.6028  1.2388
  313MOL0     H41299  12.116   9.556   5.907 -0.1371 -3.1945  1.3058
  313MOL0     H41300  11.766   9.410   5.840  0.6464  1.1867  1.8450
  313MOL0     H41301  11.600   9.268   5.713  0.6703 -5.5254 -1.2944
  313MOL0     H41302  10.112   8.734   4.978 -0.1520 -0.1487 -0.1712
  313MOL0     H41303   9.993   8.556   4.850 -2.9380 -1.0644  0.7415
  313MOL0     H41304   9.540   8.484   4.619  0.0791 -0.9878 -0.4771
  313MOL0     H41305   9.391   8.313   4.528 -0.9334 -6.1988  0.6565
  313MOL0     H41306   9.536   7.908   4.394 -1.4748  0.6677 -1.3151
  313MOL0     H41307   9.603   8.016   4.276  1.6345  3.6027  1.5023
  313MOL0     H41308   9.352   8.033   4.187 -1.2965 -0.0853 -0.0437
  313MOL0     H41309   9.412   7.866   4.191  2.7745 -0.8645  1.9522
  313MOL0     H41310   9.234   7.990   4.400 -1.8398  0.2964 -1.3678
  313MOL0     H41311   9.320   7.834   4.410  2.2276  0.0834 -0.6982
  313MOL0     H41312   9.202   7.749   4.213  1.0361  1.2395 -0.1302
  313MOL0     H41313   9.107   7.789   4.356  2.0915 -0.6009  0.3095
  313MOL0     H41314   8.903   8.068   4.150 -1.0609 -1.3262 -2.6296
  313MOL0     H41315   9.720   8.075   4.434 -1.3870 -0.7998 -0.4146
  313MOL0     H41316   9.876   8.233   4.537  0.8049 -1.0185  0.9548
  314MOL0     O41317   3.506   6.373  10.125  0.3915  0.4910  0.2412
  314MOL0     C41318   3.452   6.342  10.231  0.2611  0.4293 -0.2259
  314MOL0     O41319   3.423   6.214  10.276  0.0264 -0.4730 -0.4515
  314MOL0     C41320   3.473   6.109  10.203 -0.1580 -0.3791 -0.5192
  314MOL0     C41321   3.382   6.025  10.139  0.4089  0.0149  0.4563
  314MOL0     C41322   3.432   5.936  10.036 -0.0837 -0.2952  1.2035
  314MOL0     C41323   3.572   5.921  10.017  0.8131  0.2753  0.2020
  314MOL0     O41324   3.634   5.831   9.939 -1.1498 -0.1172  1.2500
  314MOL0     C41325   3.561   5.729   9.877 -0.8971 -0.3858  0.4117
  314MOL0     C41326   3.653   5.633   9.803 -0.3115 -0.2303  0.3458
  314MOL0     C41327   3.732   5.705   9.697 -0.3974 -0.2642 -0.8623
  314MOL0     C41328   3.844   5.607   9.634  0.1102 -0.1410  0.5462
  314MOL0     C41329   3.913   5.671   9.517 -0.2948  0.4301  0.6498
  314MOL0     C41330   4.035   5.581   9.479 -1.2486  0.3784 -0.2639
  314MOL0     C41331   4.110   5.640   9.357 -0.4617 -0.0020  0.1592
  314MOL0     C41332   4.201   5.525   9.293 -0.5990  0.4936 -0.2795
  314MOL0     N41333   4.320   5.567   9.219 -0.0598 -0.4217 -0.6892
  314MOL0     C41334   4.427   5.645   9.272  0.6151  0.0970  0.1433
  314MOL0     C41335   4.517   5.647   9.170  0.0774 -0.0695  0.0119
  314MOL0     C41336   4.667   5.691   9.186  0.1488  0.4850  0.6389
  314MOL0     C41337   4.721   5.705   9.327  0.4997 -0.4616 -0.5199
  314MOL0     C41338   4.803   5.585   9.364  0.9363  0.2370  0.7272
  314MOL0     C41339   4.883   5.608   9.492  0.4041  0.4723 -1.1241
  314MOL0     O41340   4.840   5.531   9.600  0.1222 -0.1496  0.7947
  314MOL0     C41341   4.870   5.393   9.604  0.4551 -1.3073  0.7651
  314MOL0     C41342   4.800   5.316   9.693 -0.4113 -0.0034 -0.3579
  314MOL0     C41343   4.818   5.175   9.700  0.1069 -0.3112  0.2336
  314MOL0     C41344   4.920   5.118   9.628  0.6017  0.1394 -0.3057
  314MOL0     C41345   4.958   4.972   9.655  0.6648 -0.4408 -0.9420
  314MOL0     O41346   4.863   4.883   9.694 -0.6964 -0.0095 -0.3787
  314MOL0     C41347   4.894   4.754   9.720  0.5698  0.6824  0.1187
  314MOL0     C41348   4.962   4.671   9.634  0.2462  0.0564  0.4161
  314MOL0     C41349   5.021   4.552   9.684 -0.3476  0.5715 -1.1289
  314MOL0     C41350   4.992   4.499   9.809 -0.5438 -0.6958 -0.5901
  314MOL0     O41351   5.060   4.381   9.845 -0.2426 -0.3888 -0.5169
  314MOL0     C41352   5.103   4.355   9.981  0.3205  0.9752 -0.6010
  314MOL0     C41353   5.230   4.272   9.968  1.4005 -0.9639  0.4007
  314MOL0     C41354   5.367   4.329   9.924  0.4498  0.2035  0.9439
  314MOL0     C41355   5.410   4.455  10.004  0.4428  0.1755  0.1389
  314MOL0     C41356   5.502   4.539   9.918  0.0861  0.0808  0.0047
  314MOL0     C41357   5.435   4.620   9.807  0.0879 -0.5812 -0.7499
  314MOL0     C41358   5.535   4.731   9.751  0.2235  0.4381 -0.2845
  314MOL0     C41359   5.519   4.769   9.600 -0.3800 -0.2136  0.5828
  314MOL0    Cl41360   5.655   4.873   9.568  0.1446 -0.3180 -0.1085
  314MOL0     C41361   4.918   4.586   9.902  0.7334 -0.0786  0.5338
  314MOL0     C41362   4.881   4.712   9.855 -0.4376  0.4082 -1.2021
  314MOL0     O41363   5.080   4.946   9.647 -0.0758 -0.0790  0.0854
  314MOL0     C41364   4.993   5.191   9.549  0.1342 -1.3647 -0.5661
  314MOL0     C41365   4.962   5.330   9.524  0.3917  0.4324  0.3455
  314MOL0     N41366   4.462   5.584   9.058  0.1752  0.7670 -0.2080
  314MOL0     N41367   4.348   5.530   9.097  0.5311  0.2775 -0.4200
  314MOL0     C41368   3.652   6.016  10.074  0.1876  1.0424 -0.5610
  314MOL0     C41369   3.608   6.106  10.166  0.2256 -0.0850  0.3608
  314MOL0     C41370   3.430   6.461  10.328 -0.7295  0.5127 -0.3814
  314MOL0     C41371   3.448   6.430  10.462 -1.2735  0.6055 -1.0581
  314MOL0     C41372   3.426   6.528  10.557 -0.3357  0.6733  0.5391
  314MOL0     C41373   3.400   6.657  10.511  0.4038 -0.2688 -0.1983
  314MOL0     O41374   3.375   6.765  10.589 -0.4016  0.7664 -0.0616
  314MOL0     C41375   3.483   6.813  10.673  0.4653 -0.0636  0.2765
  314MOL0     C41376   3.430   6.904  10.791 -0.3370 -0.0152 -0.4393
  314MOL0     C41377   3.544   6.983  10.864 -0.2416 -0.7912  0.6906
  314MOL0     C41378   3.508   7.057  10.994 -0.2765  0.5787 -0.2210
  314MOL0     C41379   3.415   7.167  10.980  0.7344 -0.1789 -0.7547
  314MOL0     C41380   3.323   7.247  10.956 -1.1483 -1.1678  0.4961
  314MOL0     C41381   3.386   6.687  10.376  0.4014  0.8889  0.6993
  314MOL0     C41382   3.409   6.593  10.279 -1.0469  0.0464  0.2256
  314MOL0     H41383   3.277   6.049  10.152  0.3454  0.9707 -1.4899
  314MOL0     H41384   3.362   5.871   9.984  1.1532  1.5887 -3.3410
  314MOL0     H41385   3.508   5.788   9.801  1.4106  0.8334 -0.3478
  314MOL0     H41386   3.494   5.667   9.937 -0.5658 -1.0183  0.1276
  314MOL0     H41387   3.594   5.551   9.763 -2.1170 -0.2821  2.8768
  314MOL0     H41388   3.719   5.599   9.883  0.1262 -0.7134 -0.2135
  314MOL0     H41389   3.786   5.787   9.745 -2.2502 -1.2184  3.2742
  314MOL0     H41390   3.673   5.750   9.617 -1.4345 -1.6356 -0.9047
  314MOL0     H41391   3.919   5.580   9.708 -0.9236 -4.1983  0.3308
  314MOL0     H41392   3.792   5.519   9.595  1.0440 -1.2307  1.6784
  314MOL0     H41393   3.946   5.773   9.540 -3.2281  1.8793 -1.0053
  314MOL0     H41394   3.844   5.688   9.434 -0.3157 -3.5076 -0.3170
  314MOL0     H41395   4.000   5.481   9.452  0.1853 -0.1322 -0.2687
  314MOL0     H41396   4.111   5.578   9.558  1.1694  2.8504 -2.2845
  314MOL0     H41397   4.045   5.671   9.274  0.7944  3.4763  0.2883
  314MOL0     H41398   4.175   5.720   9.394 -1.1883  0.0505  1.3781
  314MOL0     H41399   4.147   5.453   9.231 -0.2257 -0.4311  0.4630
  314MOL0     H41400   4.242   5.465   9.374 -0.4675 -0.6030 -1.1376
  314MOL0     H41401   4.434   5.671   9.377 -3.1704 -2.5258  1.2461
  314MOL0     H41402   4.683   5.789   9.141 -1.6611  0.3426 -0.4310
  314MOL0     H41403   4.729   5.626   9.124 -1.6370 -0.6744 -0.0187
  314MOL0     H41404   4.643   5.717   9.403  1.1649 -4.5355  1.1062
  314MOL0     H41405   4.786   5.793   9.326  1.4930 -1.1715 -0.5351
  314MOL0     H41406   4.745   5.495   9.342  2.9502 -0.5646 -1.8289
  314MOL0     H41407   4.880   5.589   9.287 -0.4870 -6.4903 -1.6827
  314MOL0     H41408   4.877   5.711   9.527  1.6279  0.2983 -0.3164
  314MOL0     H41409   4.988   5.585   9.472  0.7024 -0.3192  1.0670
  314MOL0     H41410   4.726   5.364   9.756  1.1621  1.1266  0.7058
  314MOL0     H41411   4.751   5.125   9.770 -2.7922  2.1382 -0.5706
  314MOL0     H41412   4.987   4.697   9.532 -2.6000 -3.4829 -1.4218
  314MOL0     H41413   5.085   4.500   9.614  0.3318 -0.1066 -0.0257
  314MOL0     H41414   5.025   4.292  10.025  0.9736 -1.1872 -2.3818
  314MOL0     H41415   5.119   4.451  10.032  1.4963 -0.4905  1.9768
  314MOL0     H41416   5.209   4.195   9.893 -1.7755  1.1294 -1.0775
  314MOL0     H41417   5.249   4.220  10.062  3.0916 -2.1495 -0.5413
  314MOL0     H41418   5.351   4.347   9.818  2.7592 -0.9746  0.3358
  314MOL0     H41419   5.438   4.247   9.930 -0.0929 -0.3927 -0.3976
  314MOL0     H41420   5.316   4.508  10.022  0.2023  1.2647 -3.4781
  314MOL0     H41421   5.467   4.427  10.093  0.4872 -1.4642 -0.3800
  314MOL0     H41422   5.569   4.476   9.860  0.5000 -0.4611  1.0511
  314MOL0     H41423   5.561   4.612   9.975  0.7828 -1.6771  1.6476
  314MOL0     H41424   5.353   4.673   9.857 -0.3242  1.9023 -3.7946
  314MOL0     H41425   5.399   4.560   9.723 -0.1029 -2.2466  0.4622
  314MOL0     H41426   5.518   4.821   9.812 -1.5309  0.1252 -0.2529
  314MOL0     H41427   5.637   4.693   9.763 -1.1056 -3.2422  0.5476
  314MOL0     H41428   5.429   4.828   9.583  0.4027  0.1699 -2.8857
  314MOL0     H41429   5.537   4.675   9.547  2.5064 -0.5696  2.0016
  314MOL0     H41430   4.903   4.566  10.008  2.0003  2.6562  1.3115
  314MOL0     H41431   4.840   4.780   9.929  1.6315  0.3653  0.0779
  314MOL0     H41432   5.066   5.145   9.482 -0.3692 -0.2509 -1.9164
  314MOL0     H41433   5.018   5.383   9.448  2.2801 -1.2185  0.4759
  314MOL0     H41434   3.760   6.004  10.065 -0.0981 -0.8240 -2.4282
  314MOL0     H41435   3.678   6.177  10.209 -0.4740  1.7729 -1.3899
  314MOL0     H41436   3.492   6.339  10.500 -0.3411  0.7398 -1.7735
  314MOL0     H41437   3.445   6.508  10.661  2.8686  0.2910 -0.0218
  314MOL0     H41438   3.551   6.875  10.614 -1.4710  2.0901  0.1449
  314MOL0     H41439   3.544   6.733  10.716  3.0023  2.9855  2.9013
  314MOL0     H41440   3.358   6.982  10.763 -0.8144 -0.1758  0.3268
  314MOL0     H41441   3.372   6.841  10.858 -0.0721  0.4836  0.2722
  314MOL0     H41442   3.600   7.037  10.786  0.4591 -2.3351  0.0713
  314MOL0     H41443   3.609   6.897  10.885  0.8982 -0.3316 -0.7285
  314MOL0     H41444   3.456   6.980  11.051 -0.3243  1.6926  1.2908
  314MOL0     H41445   3.597   7.082  11.053  1.2626 -0.7165 -1.8465
  314MOL0     H41446   3.249   7.324  10.957  0.2040  0.2560 -1.3816
  314MOL0     H41447   3.371   6.792  10.350  2.0940  0.5529 -1.9121
  314MOL0     H41448   3.412   6.602  10.171  0.0535 -2.3406  0.0082
  315MOL0     O41449   2.307  11.366   0.338  0.6386 -0.5775  0.0060
  315MOL0     C41450   2.321  11.474   0.388  0.0847  0.7031 -0.8501
  315MOL0     O41451   2.396  11.503   0.505 -0.8516 -0.1545  0.5706
  315MOL0     C41452   2.451  11.390   0.576 -0.0625 -0.5143  1.0168
  315MOL0     C41453   2.364  11.288   0.618 -1.0295  0.1672 -0.9490
  315MOL0     C41454   2.412  11.184   0.699 -0.2420  0.7337  0.0270
  315MOL0     C41455   2.553  11.177   0.735 -0.3579  0.2440 -0.2788
  315MOL0     O41456   2.600  11.065   0.798 -0.0021  0.5389  0.1725
  315MOL0     C41457   2.739  11.035   0.804  0.2290 -0.2937  0.0922
  315MOL0     C41458   2.763  10.983   0.662 -0.1118  0.2521 -1.1157
  315MOL0     C41459   2.875  10.877   0.657  0.7141 -0.3166  0.8724
  315MOL0     C41460   2.886  10.831   0.515  0.3419 -0.4064  0.2745
  315MOL0     C41461   2.950  10.690   0.528 -0.0075  0.2004  0.5788
  315MOL0     C41462   2.965  10.620   0.382 -1.0071  1.3201  0.1280
  315MOL0     C41463   2.997  10.470   0.388  0.0134 -0.8932  0.7930
  315MOL0     C41464   2.966  10.393   0.256 -0.6260 -0.0767 -0.0071
  315MOL0     N41465   3.043  10.448   0.145 -1.3274 -0.4358  0.3954
  315MOL0     C41466   2.994  10.526   0.037 -0.5144  0.7979  0.3995
  315MOL0     C41467   3.098  10.578  -0.030  0.2021 -0.5440 -0.5234
  315MOL0     C41468   3.090  10.676  -0.139 -0.8168 -0.0488  0.4043
  315MOL0     C41469   3.131  10.614  -0.273 -1.0238  0.0510 -0.0513
  315MOL0     C41470   3.045  10.498  -0.304 -0.2712 -0.5032 -0.5152
  315MOL0     C41471   2.903  10.528  -0.366  0.1851 -0.6873 -1.2054
  315MOL0     O41472   2.795  10.466  -0.291  0.2186 -0.4349 -0.7384
  315MOL0     C41473   2.673  10.529  -0.279 -0.5412  0.9313  0.7489
  315MOL0     C41474   2.626  10.641  -0.346  0.4881 -0.4143 -0.7845
  315MOL0     C41475   2.506  10.706  -0.319  0.5828 -0.5506 -1.0920
  315MOL0     C41476   2.426  10.647  -0.218  0.6371 -0.2013 -0.2101
  315MOL0     C41477   2.310  10.725  -0.162 -0.3182  0.0493  0.1935
  315MOL0     O41478   2.306  10.855  -0.219 -0.7456  0.4742  0.2916
  315MOL0     C41479   2.211  10.932  -0.164 -1.1267  0.9810  0.1167
  315MOL0     C41480   2.242  10.986  -0.036 -0.1922 -1.4078  0.2337
  315MOL0     C41481   2.151  11.078   0.024  0.7005 -0.0504 -0.0150
  315MOL0     C41482   2.028  11.101  -0.048 -0.3319  0.7068  0.0381
  315MOL0     O41483   1.924  11.183   0.007  0.3824  0.0724 -0.1838
  315MOL0     C41484   1.914  11.170   0.152  0.7545 -0.9067 -0.0929
  315MOL0     C41485   1.862  11.037   0.211  0.3258 -0.2893 -0.0438
  315MOL0     C41486   1.703  11.033   0.185 -0.8814 -0.5209  0.2090
  315MOL0     C41487   1.632  10.913   0.232  0.4716  0.7768 -0.3023
  315MOL0     C41488   1.636  10.895   0.387 -0.6260 -0.1726 -0.5756
  315MOL0     C41489   1.543  10.778   0.419 -0.3799  0.1051 -0.8603
  315MOL0     C41490   1.605  10.632   0.404 -0.4687 -0.5412 -0.0521
  315MOL0     C41491   1.718  10.584   0.497  0.6689 -0.6454 -0.2068
  315MOL0    Cl41492   1.663  10.572   0.674  0.1949 -0.5885  0.3286
  315MOL0     C41493   2.005  11.049  -0.175 -0.7996 -0.3063  1.2737
  315MOL0     C41494   2.095  10.961  -0.229 -0.3573  0.5574  0.4579
  315MOL0     O41495   2.247  10.688  -0.063  0.6016 -0.0181 -0.2456
  315MOL0     C41496   2.459  10.518  -0.166 -0.1088  0.7890 -0.4427
  315MOL0     C41497   2.588  10.464  -0.196 -0.5808  0.8533 -0.5248
  315MOL0     N41498   3.203  10.513   0.027 -0.5823 -0.7420  1.1008
  315MOL0     N41499   3.183  10.440   0.128  0.1759  0.1336 -0.6979
  315MOL0     C41500   2.631  11.296   0.703 -0.5376  1.0432  0.1673
  315MOL0     C41501   2.586  11.402   0.623 -0.0749  0.1322  1.0341
  315MOL0     C41502   2.272  11.592   0.319 -0.1049 -0.3538 -0.1149
  315MOL0     C41503   2.240  11.581   0.184  0.2470  0.0492  0.1737
  315MOL0     C41504   2.237  11.691   0.100  0.2048  0.7601 -0.4932
  315MOL0     C41505   2.257  11.819   0.152  0.4491 -0.5820  0.6624
  315MOL0     O41506   2.255  11.921   0.056 -0.3381  0.0503 -0.3628
  315MOL0     C41507   2.282  12.056   0.107  0.8561 -0.4746  0.4372
  315MOL0     C41508   2.168  12.111   0.183  0.4817  0.2146  0.7582
  315MOL0     C41509   2.053  12.191   0.115 -0.2929 -1.2194 -0.5503
  315MOL0     C41510   2.091  12.326   0.053  0.1286  0.0860 -0.1676
  315MOL0     C41511   2.148  12.424   0.145 -1.2300 -0.1471  0.3578
  315MOL0     C41512   2.202  12.505   0.220 -0.3439 -0.4915  0.3582
  315MOL0     C41513   2.280  11.832   0.287 -0.1401  0.7065  0.4634
  315MOL0     C41514   2.283  11.725   0.371  0.1902  0.4386  0.4345
  315MOL0     H41515   2.256  11.283   0.612 -0.9749 -0.0262 -1.7790
  315MOL0     H41516   2.352  11.103   0.739 -0.8287  1.6634  1.0597
  315MOL0     H41517   2.744  10.949   0.872 -1.2977 -0.7408 -0.3385
  315MOL0     H41518   2.801  11.117   0.843 -1.4304  0.0982  2.1332
  315MOL0     H41519   2.794  11.059   0.590  3.5538 -1.6341 -1.7724
  315MOL0     H41520   2.672  10.948   0.614  0.2282 -2.7268  0.1551
  315MOL0     H41521   2.852  10.793   0.723 -0.6040  2.2170  3.9542
  315MOL0     H41522   2.958  10.933   0.703  2.6251 -1.5298 -0.9434
  315MOL0     H41523   2.792  10.827   0.460  0.3365  2.7926 -0.1157
  315MOL0     H41524   2.934  10.913   0.461  0.3081 -0.8257 -0.3960
  315MOL0     H41525   2.903  10.615   0.592  1.5272 -0.3385  1.1185
  315MOL0     H41526   3.054  10.704   0.558  0.0812  2.8037 -0.7080
  315MOL0     H41527   3.027  10.677   0.312 -1.1272 -0.7892 -1.8123
  315MOL0     H41528   2.861  10.621   0.349 -0.7811 -2.2353 -1.0380
  315MOL0     H41529   3.105  10.479   0.400 -0.2609  0.5951  2.5395
  315MOL0     H41530   2.949  10.417   0.472 -2.7883  3.3023  2.1719
  315MOL0     H41531   2.857  10.393   0.248 -1.0202 -0.5380  3.4860
  315MOL0     H41532   2.992  10.286   0.263 -0.9603 -0.0707  1.8676
  315MOL0     H41533   2.891  10.560   0.039 -1.5739 -1.9689  4.6397
  315MOL0     H41534   3.149  10.767  -0.127 -3.3034  1.8634 -0.7288
  315MOL0     H41535   2.991  10.721  -0.151 -0.4035  0.5448 -1.0579
  315MOL0     H41536   3.237  10.587  -0.262 -1.5011 -0.8613  3.0312
  315MOL0     H41537   3.115  10.689  -0.352 -3.0807  1.4938  1.6204
  315MOL0     H41538   3.100  10.441  -0.380 -2.2466 -1.8274 -1.0466
  315MOL0     H41539   3.030  10.432  -0.218  0.7696  0.9956  0.8602
  315MOL0     H41540   2.893  10.484  -0.466 -0.0383 -1.4901 -0.8351
  315MOL0     H41541   2.891  10.636  -0.376 -1.1047 -0.6618  0.3418
  315MOL0     H41542   2.692  10.681  -0.422  0.9403  0.6903  0.1485
  315MOL0     H41543   2.475  10.792  -0.376 -0.3993 -1.4321 -1.9233
  315MOL0     H41544   2.341  10.972   0.008 -0.5535 -0.7087  1.3168
  315MOL0     H41545   2.184  11.133   0.111  4.1486  1.1348 -1.9082
  315MOL0     H41546   1.846  11.248   0.187  0.5601 -2.8070  4.4032
  315MOL0     H41547   2.009  11.190   0.204  0.6557 -0.0285 -0.2292
  315MOL0     H41548   1.877  11.041   0.319 -4.2528 -1.6083  0.8580
  315MOL0     H41549   1.895  10.945   0.163 -2.7662 -0.9619 -1.1552
  315MOL0     H41550   1.689  11.043   0.077 -3.9476 -0.1500  0.5586
  315MOL0     H41551   1.667  11.118   0.242  0.1519 -1.1070  1.7992
  315MOL0     H41552   1.530  10.904   0.195  0.4568 -2.6594  0.2449
  315MOL0     H41553   1.663  10.821   0.181 -2.8042 -0.9614  0.5574
  315MOL0     H41554   1.604  10.989   0.432  0.3108  0.1925 -0.6448
  315MOL0     H41555   1.743  10.875   0.398 -0.5374  0.2493 -0.6619
  315MOL0     H41556   1.450  10.786   0.363 -1.7798  1.2540  1.4833
  315MOL0     H41557   1.528  10.801   0.525  1.8242  1.1518 -0.7186
  315MOL0     H41558   1.526  10.558   0.417 -0.9711 -0.6108 -2.9861
  315MOL0     H41559   1.661  10.626   0.311 -0.7641 -0.0082 -0.2685
  315MOL0     H41560   1.799  10.657   0.490  0.9086 -1.0402 -4.5330
  315MOL0     H41561   1.760  10.490   0.461  1.6328 -0.3764  0.1901
  315MOL0     H41562   1.918  11.078  -0.233  1.3214  4.1981 -0.0803
  315MOL0     H41563   2.088  10.928  -0.332 -2.5338  0.1752  0.6776
  315MOL0     H41564   2.386  10.468  -0.104 -1.1560  0.9379 -1.5103
  315MOL0     H41565   2.599  10.370  -0.144 -1.1465 -0.5773 -2.8026
  315MOL0     H41566   2.727  11.303   0.752 -0.5216 -0.4950  0.3945
  315MOL0     H41567   2.646  11.486   0.590 -1.4528  0.1526 -1.5863
  315MOL0     H41568   2.246  11.489   0.127 -1.3635  1.3912 -2.3579
  315MOL0     H41569   2.224  11.671  -0.006  0.8863 -1.7060 -0.1490
  315MOL0     H41570   2.303  12.132   0.031 -1.1680  1.4490  1.7017
  315MOL0     H41571   2.375  12.065   0.164  1.7148 -0.4917 -0.8853
  315MOL0     H41572   2.112  12.037   0.241  0.8219 -0.5306  0.1404
  315MOL0     H41573   2.206  12.181   0.258 -2.0768  1.4603  1.0345
  315MOL0     H41574   1.984  12.221   0.194 -0.0554 -0.9941 -0.4251
  315MOL0     H41575   1.994  12.129   0.046 -0.4017 -2.7702  0.8535
  315MOL0     H41576   2.147  12.307  -0.039 -0.6190  2.8430 -1.3067
  315MOL0     H41577   1.998  12.373   0.022  1.0079  0.1835 -2.8679
  315MOL0     H41578   2.259  12.561   0.292  2.0430  0.1980 -1.8846
  315MOL0     H41579   2.305  11.929   0.329  2.5872  0.0923  0.4559
  315MOL0     H41580   2.319  11.743   0.471  1.1710  1.3203 -0.0657
  316MOL0     O41581   0.706   3.182   0.235 -0.5018 -0.0237 -0.9754
  316MOL0     C41582   0.824   3.154   0.254  0.2907 -0.0034 -0.8005
  316MOL0     O41583   0.892   3.174   0.370  0.4407  0.3943  0.1342
  316MOL0     C41584   0.835   3.217   0.488  0.2602 -0.8920 -0.6131
  316MOL0     C41585   0.915   3.260   0.596 -0.8774  0.1347 -0.3340
  316MOL0     C41586   0.878   3.287   0.724  0.3428  0.1621 -0.7757
  316MOL0     C41587   0.742   3.292   0.757 -0.9211  0.3295 -0.7605
  316MOL0     O41588   0.701   3.329   0.885  0.0677 -0.4952 -0.3382
  316MOL0     C41589   0.559   3.336   0.921  0.2985 -0.2845 -0.3897
  316MOL0     C41590   0.551   3.364   1.070 -0.9531  0.2094 -0.2165
  316MOL0     C41591   0.446   3.297   1.155 -0.9737  0.1351 -0.7278
  316MOL0     C41592   0.302   3.330   1.115 -0.0553  0.8084 -0.1676
  316MOL0     C41593   0.203   3.265   1.221 -0.7629 -0.6753  1.0392
  316MOL0     C41594   0.234   3.322   1.363  0.2110 -0.7353 -0.1472
  316MOL0     C41595   0.129   3.268   1.472 -0.4423  0.7200  0.7023
  316MOL0     C41596   0.179   3.310   1.611 -0.6656 -0.7961 -0.8973
  316MOL0     N41597   0.129   3.252   1.737 -0.1710 -0.0379  0.5903
  316MOL0     C41598   0.154   3.319   1.860  0.6874  0.0529  0.6335
  316MOL0     C41599   0.105   3.237   1.955  0.3814  0.0789  0.1311
  316MOL0     C41600   0.110   3.257   2.108 -0.7891 -0.0143  0.6522
  316MOL0     C41601   0.246   3.217   2.186  0.0189 -0.6120  0.2917
  316MOL0     C41602   0.225   3.163   2.331  0.5280 -0.3400  0.9129
  316MOL0     C41603   0.353   3.089   2.379 -0.2699  0.9422 -0.3837
  316MOL0     O41604   0.336   3.034   2.513 -0.0224  0.3010  0.6367
  316MOL0     C41605   0.440   2.987   2.588  0.5131 -0.3446 -0.1281
  316MOL0     C41606   0.572   2.973   2.548  0.3938  0.5062  0.0798
  316MOL0     C41607   0.676   2.940   2.642  0.6010  0.3490  0.0915
  316MOL0     C41608   0.645   2.932   2.775 -0.7534 -0.2273  0.2212
  316MOL0     C41609   0.753   2.896   2.876 -0.6678  0.6011  0.9534
  316MOL0     O41610   0.889   2.920   2.839  0.2159 -0.1490  0.4739
  316MOL0     C41611   0.987   2.848   2.913 -0.5031  0.4651  0.2467
  316MOL0     C41612   1.047   2.745   2.839 -0.4268 -0.3438  0.1898
  316MOL0     C41613   1.176   2.701   2.882  0.7937  0.3028 -0.8517
  316MOL0     C41614   1.232   2.743   3.002 -0.4724  0.0116 -0.5488
  316MOL0     O41615   1.356   2.687   3.019 -0.0564 -0.1528 -0.1144
  316MOL0     C41616   1.429   2.712   3.140  0.2818 -0.4903 -0.3055
  316MOL0     C41617   1.547   2.612   3.155 -1.1698 -0.1943  0.1467
  316MOL0     C41618   1.491   2.461   3.170 -1.2578  0.5457  0.5487
  316MOL0     C41619   1.615   2.374   3.191 -0.0744  0.2919  0.5030
  316MOL0     C41620   1.593   2.224   3.194  0.5438 -0.2132  0.1238
  316MOL0     C41621   1.515   2.198   3.324 -0.6521  0.0814  0.5208
  316MOL0     C41622   1.592   2.136   3.436 -0.9777 -0.0655  0.4106
  316MOL0     C41623   1.687   2.233   3.508  0.7125  0.6474  0.6783
  316MOL0    Cl41624   1.713   2.175   3.679 -0.0867 -0.1202 -0.7717
  316MOL0     C41625   1.166   2.836   3.085 -0.2293 -0.5508  0.1871
  316MOL0     C41626   1.054   2.886   3.026 -0.5172 -0.9203 -0.5096
  316MOL0     O41627   0.714   2.849   2.982  0.1891 -0.0476  0.0012
  316MOL0     C41628   0.515   2.961   2.813 -0.1687  1.2152  0.3710
  316MOL0     C41629   0.411   2.983   2.723  0.6570 -0.4137  0.3782
  316MOL0     N41630   0.041   3.128   1.895  1.2804  0.6678  0.6698
  316MOL0     N41631   0.058   3.137   1.766 -0.2234  0.7499 -0.5144
  316MOL0     C41632   0.653   3.268   0.652 -0.0191 -0.0464 -0.2799
  316MOL0     C41633   0.693   3.221   0.522 -0.9562  0.1372 -0.6581
  316MOL0     C41634   0.886   3.094   0.135 -1.2078 -0.3584 -0.4850
  316MOL0     C41635   0.831   3.078   0.008 -0.3762  0.3077 -0.3185
  316MOL0     C41636   0.907   3.057  -0.102  0.4770  0.5296  0.7913
  316MOL0     C41637   1.038   3.013  -0.093  0.7682 -0.0596 -0.7036
  316MOL0     O41638   1.091   2.979  -0.207 -0.0354 -0.8112  0.8877
  316MOL0     C41639   1.223   3.020  -0.243 -0.1410 -0.3728  0.0690
  316MOL0     C41640   1.326   2.908  -0.227 -0.2396 -0.1722 -0.1575
  316MOL0     C41641   1.310   2.825  -0.360 -0.1839  0.2325 -0.4112
  316MOL0     C41642   1.415   2.720  -0.370  0.7920  0.3407 -0.4090
  316MOL0     C41643   1.393   2.665  -0.501 -0.8815  0.3612  0.6142
  316MOL0     C41644   1.356   2.611  -0.602 -0.0318  1.0568  0.1483
  316MOL0     C41645   1.102   3.004   0.030  0.8600  0.7370 -0.5536
  316MOL0     C41646   1.027   3.044   0.139  0.2473 -0.4014 -0.3619
  316MOL0     H41647   1.022   3.266   0.577 -0.9443  2.9514 -0.1332
  316MOL0     H41648   0.953   3.326   0.792 -1.5996  2.3257  0.2790
  316MOL0     H41649   0.499   3.245   0.904 -0.0368 -0.4571  1.4758
  316MOL0     H41650   0.505   3.416   0.869  1.5679 -1.6534 -4.1427
  316MOL0     H41651   0.535   3.471   1.088  1.0777  0.5357 -0.0698
  316MOL0     H41652   0.652   3.332   1.095  0.0190  0.8555 -2.8637
  316MOL0     H41653   0.466   3.312   1.262 -0.4128 -1.0575 -0.6546
  316MOL0     H41654   0.461   3.189   1.149 -0.5135  0.0545  1.2589
  316MOL0     H41655   0.291   3.439   1.114 -1.7457  0.9274  4.9334
  316MOL0     H41656   0.286   3.282   1.018  2.7125 -2.4083  0.7544
  316MOL0     H41657   0.226   3.159   1.206  0.7060  0.0324 -2.6066
  316MOL0     H41658   0.102   3.276   1.179  0.6826 -0.5157 -2.7953
  316MOL0     H41659   0.229   3.431   1.373 -0.1105 -0.9235  2.6814
  316MOL0     H41660   0.322   3.283   1.414 -0.3087  0.1281  1.4944
  316MOL0     H41661   0.030   3.310   1.450 -0.1785  2.6620  2.8346
  316MOL0     H41662   0.130   3.159   1.464 -1.0051  0.5787  2.2447
  316MOL0     H41663   0.154   3.415   1.627  0.2227 -0.6969 -0.0499
  316MOL0     H41664   0.287   3.319   1.619 -0.6699 -1.4333  0.0322
  316MOL0     H41665   0.209   3.412   1.867  1.5502 -0.1774 -1.7985
  316MOL0     H41666   0.027   3.203   2.155  0.5057  0.1940  3.3579
  316MOL0     H41667   0.088   3.360   2.137 -0.1117  0.4122 -0.2922
  316MOL0     H41668   0.315   3.302   2.177 -0.1657 -0.6456 -2.6967
  316MOL0     H41669   0.296   3.141   2.125  3.0183  1.7982 -0.4832
  316MOL0     H41670   0.188   3.244   2.395 -3.8895  1.3249 -3.1614
  316MOL0     H41671   0.142   3.092   2.324  0.5685 -0.4105  1.1527
  316MOL0     H41672   0.445   3.148   2.371  0.6181 -0.2749  0.4430
  316MOL0     H41673   0.350   2.995   2.324 -1.5675  0.1476  0.9533
  316MOL0     H41674   0.604   2.988   2.446 -3.8808  1.1246 -1.3611
  316MOL0     H41675   0.780   2.933   2.611  1.3437 -5.7210  2.5185
  316MOL0     H41676   1.017   2.707   2.742 -2.3894 -0.1115  0.6670
  316MOL0     H41677   1.220   2.627   2.816 -1.5559 -1.8788 -0.1029
  316MOL0     H41678   1.357   2.681   3.216  2.0316  0.6980  1.9820
  316MOL0     H41679   1.460   2.816   3.151 -2.5235  0.5674 -1.5473
  316MOL0     H41680   1.603   2.647   3.242 -1.0415  0.2588 -0.1200
  316MOL0     H41681   1.604   2.609   3.062 -1.2892 -2.1953  0.0871
  316MOL0     H41682   1.427   2.438   3.085  0.0008  1.9854 -0.8504
  316MOL0     H41683   1.429   2.470   3.260 -2.0571 -1.3724  0.2235
  316MOL0     H41684   1.685   2.396   3.110 -1.0217 -1.4711 -0.8921
  316MOL0     H41685   1.670   2.409   3.278  0.7771  0.0610  0.0668
  316MOL0     H41686   1.693   2.180   3.202  0.6236  0.0484  0.6363
  316MOL0     H41687   1.540   2.194   3.104  0.5410  1.1276 -0.3455
  316MOL0     H41688   1.437   2.127   3.295 -0.4511 -0.4656  1.3129
  316MOL0     H41689   1.477   2.292   3.365 -0.0090  1.0885 -1.0720
  316MOL0     H41690   1.512   2.108   3.505 -2.8769 -0.4961 -1.8597
  316MOL0     H41691   1.638   2.039   3.414  1.7201  1.0159  0.8914
  316MOL0     H41692   1.654   2.337   3.517  0.4530  0.3694  3.8626
  316MOL0     H41693   1.784   2.225   3.456  1.1209 -3.2150  1.7156
  316MOL0     H41694   1.185   2.876   3.185 -1.3449  0.7256 -0.0919
  316MOL0     H41695   1.005   2.969   3.076  1.1078 -0.5635  0.5971
  316MOL0     H41696   0.489   2.957   2.918  0.4929 -2.2767  0.5005
  316MOL0     H41697   0.308   3.006   2.747  0.5157 -2.1645  1.6676
  316MOL0     H41698   0.548   3.290   0.669  0.7553  3.0465  1.2131
  316MOL0     H41699   0.616   3.193   0.452 -0.9732 -0.7966 -0.2736
  316MOL0     H41700   0.723   3.092   0.005 -1.0318 -2.5959  3.4078
  316MOL0     H41701   0.855   3.068  -0.197  0.5292  1.3979  0.8544
  316MOL0     H41702   1.251   3.105  -0.180 -1.6535 -0.7522  1.3292
  316MOL0     H41703   1.214   3.061  -0.344  1.5971  1.5433  0.6125
  316MOL0     H41704   1.426   2.945  -0.203 -0.3609 -1.2714  2.3537
  316MOL0     H41705   1.294   2.844  -0.144  1.7681  0.9596  1.5628
  316MOL0     H41706   1.319   2.887  -0.449 -4.2780  0.8985 -0.5399
  316MOL0     H41707   1.209   2.783  -0.366 -0.5278  0.9176  0.4246
  316MOL0     H41708   1.514   2.766  -0.365 -0.6699  3.7254  0.9426
  316MOL0     H41709   1.398   2.646  -0.291  1.6720  1.3152  0.7536
  316MOL0     H41710   1.311   2.575  -0.692  0.4404 -1.1889  0.7307
  316MOL0     H41711   1.203   2.965   0.036  0.4400 -0.2741  0.3101
  316MOL0     H41712   1.084   3.042   0.232  0.3741 -2.3992 -0.4367
  317MOL0     O41713  10.628   0.904   1.049  0.4228  0.7133 -0.6223
  317MOL0     C41714  10.567   0.809   1.099  0.4585  0.3084  0.1722
  317MOL0     O41715  10.499   0.712   1.035 -0.5493  0.0193  0.7206
  317MOL0     C41716  10.464   0.726   0.904  0.7889 -0.1202 -0.2828
  317MOL0     C41717  10.526   0.805   0.805  0.6423 -0.8744 -0.0617
  317MOL0     C41718  10.486   0.786   0.674 -0.1473 -0.7140 -0.3659
  317MOL0     C41719  10.378   0.710   0.638 -0.5223 -0.0109  0.2318
  317MOL0     O41720  10.337   0.688   0.508 -0.3567 -0.5842  0.0811
  317MOL0     C41721  10.330   0.798   0.415 -0.5572  1.6665 -0.3277
  317MOL0     C41722  10.181   0.823   0.372  0.9238  0.7426  0.8817
  317MOL0     C41723  10.180   0.911   0.255 -0.3647 -0.1410  0.7108
  317MOL0     C41724  10.035   0.926   0.192 -0.3624  0.5002  0.1571
  317MOL0     C41725   9.977   1.064   0.195 -0.3364  0.1687 -0.0628
  317MOL0     C41726   9.979   1.134   0.333  0.3713 -0.2842 -0.8036
  317MOL0     C41727   9.887   1.264   0.317 -0.0739 -0.1771  0.0073
  317MOL0     C41728   9.831   1.312   0.447  0.3496 -0.0878  0.9154
  317MOL0     N41729   9.927   1.360   0.545  0.0993  0.5076 -0.6192
  317MOL0     C41730   9.992   1.299   0.636  0.2698  0.5071  0.2414
  317MOL0     C41731  10.055   1.396   0.709 -0.0058 -0.4816  0.7311
  317MOL0     C41732  10.145   1.370   0.833 -0.4563  1.0772  0.7059
  317MOL0     C41733  10.070   1.409   0.949  0.1744  0.7431  0.0994
  317MOL0     C41734  10.149   1.410   1.073  0.1302 -0.1124 -0.1962
  317MOL0     C41735  10.075   1.486   1.186 -1.1366 -0.3023 -0.2408
  317MOL0     O41736   9.989   1.404   1.259 -0.4632  0.1161  0.5461
  317MOL0     C41737   9.915   1.458   1.357  0.3275  0.1013  0.9113
  317MOL0     C41738   9.780   1.413   1.385 -0.3340 -0.1732  1.1869
  317MOL0     C41739   9.698   1.482   1.470 -0.1424  0.0128  1.1946
  317MOL0     C41740   9.734   1.601   1.529  0.7266 -0.0871  1.2260
  317MOL0     C41741   9.642   1.676   1.613  0.1430 -0.5674  0.4676
  317MOL0     O41742   9.512   1.662   1.605 -0.4974 -0.1677  0.6550
  317MOL0     C41743   9.432   1.757   1.651 -1.2653  0.4173 -0.5962
  317MOL0     C41744   9.349   1.715   1.755 -0.7851 -0.8808  0.1737
  317MOL0     C41745   9.256   1.810   1.813  1.0378  0.8822  0.3807
  317MOL0     C41746   9.228   1.930   1.750  0.2042 -0.9124 -0.0726
  317MOL0     O41747   9.119   2.001   1.788  1.2162  0.1769 -0.6078
  317MOL0     C41748   9.008   2.011   1.694 -0.8990  0.1222  0.5016
  317MOL0     C41749   8.935   1.880   1.667  0.2406  1.0121 -0.7941
  317MOL0     C41750   8.840   1.837   1.782  0.0057 -0.0495  0.2330
  317MOL0     C41751   8.789   1.699   1.724 -0.7109 -0.3825 -0.6514
  317MOL0     C41752   8.704   1.629   1.830 -0.2830 -0.7145  0.6807
  317MOL0     C41753   8.571   1.699   1.850  0.3876 -0.8786  0.5050
  317MOL0     C41754   8.453   1.605   1.868  0.7575  0.1879  0.4222
  317MOL0     C41755   8.313   1.659   1.837 -0.0840  0.5006  0.2318
  317MOL0    Cl41756   8.301   1.839   1.858 -0.2241  0.0508 -0.1074
  317MOL0     C41757   9.300   1.960   1.629  0.6200 -0.0257 -0.0098
  317MOL0     C41758   9.402   1.877   1.590  0.1977 -0.2803  0.3653
  317MOL0     O41759   9.703   1.758   1.683 -0.2264 -0.6778  0.0597
  317MOL0     C41760   9.864   1.649   1.506 -0.6529 -0.1036  1.0687
  317MOL0     C41761   9.944   1.573   1.422 -0.3370  0.4202  0.0020
  317MOL0     N41762  10.008   1.522   0.671 -0.5532  0.6094 -0.4655
  317MOL0     N41763   9.951   1.490   0.555  0.0702  0.6320  0.9702
  317MOL0     C41764  10.316   0.625   0.738 -0.0445  0.1310  0.5616
  317MOL0     C41765  10.362   0.631   0.865  0.2777 -0.3298 -0.2273
  317MOL0     C41766  10.555   0.817   1.242  0.2483  0.6869  0.0536
  317MOL0     C41767  10.496   0.700   1.303  0.3721 -0.1872 -0.0164
  317MOL0     C41768  10.473   0.704   1.439 -0.6720  0.4540 -0.7881
  317MOL0     C41769  10.514   0.809   1.523  0.2830  0.5295  0.5716
  317MOL0     O41770  10.469   0.786   1.654 -1.1824 -0.5479  0.7548
  317MOL0     C41771  10.491   0.893   1.751 -0.7092 -0.4621 -0.5237
  317MOL0     C41772  10.360   0.976   1.735  0.1870  0.2184 -1.1046
  317MOL0     C41773  10.322   1.035   1.875  0.4446 -0.3287  0.4843
  317MOL0     C41774  10.410   1.141   1.950 -0.2622 -0.0080  0.6688
  317MOL0     C41775  10.539   1.103   2.001 -0.0985  0.4684 -0.3584
  317MOL0     C41776  10.657   1.067   2.035  0.3425 -0.2209  1.0063
  317MOL0     C41777  10.577   0.918   1.468  0.2462 -0.5189 -0.1707
  317MOL0     C41778  10.590   0.923   1.325 -0.8036 -0.1934  0.1148
  317MOL0     H41779  10.612   0.869   0.820  2.7449 -3.9168  2.0581
  317MOL0     H41780  10.540   0.827   0.588  2.4234 -0.5832  1.2053
  317MOL0     H41781  10.382   0.784   0.320  0.8250  2.1787  0.3398
  317MOL0     H41782  10.367   0.890   0.459 -1.8446  2.2622 -0.4467
  317MOL0     H41783  10.146   0.889   0.452 -2.5215 -0.8439  0.8472
  317MOL0     H41784  10.114   0.739   0.354 -0.4278  1.6501  1.5092
  317MOL0     H41785  10.242   0.856   0.183  0.1011 -0.4451  1.3392
  317MOL0     H41786  10.226   1.009   0.273  1.1561 -0.7385  0.2158
  317MOL0     H41787  10.052   0.890   0.091  2.1251 -2.7356  1.5379
  317MOL0     H41788   9.963   0.860   0.241  1.3480 -0.2801  1.7429
  317MOL0     H41789   9.874   1.051   0.159 -0.7835  2.6694  0.1399
  317MOL0     H41790  10.027   1.137   0.131  1.6840 -0.9018  0.2236
  317MOL0     H41791  10.079   1.149   0.375 -0.2959 -2.8675  2.0671
  317MOL0     H41792   9.945   1.064   0.410 -1.0385 -0.1910 -1.3045
  317MOL0     H41793   9.948   1.349   0.283 -1.7671  0.7458 -0.8732
  317MOL0     H41794   9.817   1.240   0.237  0.2461  0.3960 -0.4546
  317MOL0     H41795   9.769   1.231   0.487  1.9439 -0.3143  3.0801
  317MOL0     H41796   9.771   1.400   0.422 -1.6127 -0.9128  2.3679
  317MOL0     H41797  10.007   1.192   0.650 -1.8090 -0.0283 -1.1786
  317MOL0     H41798  10.242   1.420   0.841 -0.3973  0.6831  4.4261
  317MOL0     H41799  10.164   1.263   0.829 -0.5751  0.9645  2.4555
  317MOL0     H41800   9.985   1.340   0.957  1.6278 -1.0722  0.5013
  317MOL0     H41801  10.028   1.507   0.923 -0.3110 -0.2921 -3.5519
  317MOL0     H41802  10.180   1.310   1.103  2.9881 -0.3746 -3.3927
  317MOL0     H41803  10.230   1.477   1.041 -1.4893  1.5860 -0.9507
  317MOL0     H41804  10.023   1.576   1.151 -0.8834 -0.5029 -1.1536
  317MOL0     H41805  10.146   1.522   1.261  1.8354 -2.4438 -1.8212
  317MOL0     H41806   9.743   1.325   1.334 -2.1421 -1.0654  3.8592
  317MOL0     H41807   9.601   1.439   1.491  0.8788 -2.3757  1.3466
  317MOL0     H41808   9.355   1.613   1.792 -4.7423 -2.7900 -3.5557
  317MOL0     H41809   9.186   1.783   1.891  0.9321 -1.3880 -0.4009
  317MOL0     H41810   9.051   2.047   1.600  0.8363 -0.0129  1.1948
  317MOL0     H41811   8.940   2.090   1.728 -1.4864 -0.0088 -0.3454
  317MOL0     H41812   9.001   1.799   1.635 -2.8814 -2.0289 -0.0673
  317MOL0     H41813   8.870   1.899   1.581 -2.6085 -0.0528  0.9733
  317MOL0     H41814   8.756   1.904   1.802 -1.8453 -1.7548 -1.4406
  317MOL0     H41815   8.892   1.821   1.877 -1.9160  2.3397  1.7972
  317MOL0     H41816   8.733   1.721   1.633 -1.6616 -3.0968 -0.8308
  317MOL0     H41817   8.866   1.624   1.706  2.0720  2.5580 -2.0636
  317MOL0     H41818   8.760   1.635   1.924  1.0587  2.4383 -0.1945
  317MOL0     H41819   8.707   1.525   1.797 -0.7122 -0.9258  1.2808
  317MOL0     H41820   8.557   1.764   1.763  2.1918  0.0636  0.8913
  317MOL0     H41821   8.584   1.773   1.930  1.1828  0.8999 -1.1988
  317MOL0     H41822   8.480   1.507   1.826  0.0568  0.5342 -0.8788
  317MOL0     H41823   8.446   1.585   1.976  0.4882 -0.3477  0.3079
  317MOL0     H41824   8.244   1.616   1.910  1.7378  2.7115  3.4740
  317MOL0     H41825   8.285   1.630   1.735  0.6196 -1.2173  0.4932
  317MOL0     H41826   9.285   2.040   1.557  0.7792 -1.1629 -1.3595
  317MOL0     H41827   9.451   1.892   1.494 -1.3871  0.8973 -0.2958
  317MOL0     H41828   9.900   1.743   1.548 -2.0621  2.1760 -2.3520
  317MOL0     H41829  10.044   1.617   1.416 -0.7499  1.7081  1.8117
  317MOL0     H41830  10.229   0.568   0.708 -0.8808  2.0523 -0.8596
  317MOL0     H41831  10.317   0.558   0.932 -0.0286 -2.4871 -2.6591
  317MOL0     H41832  10.475   0.611   1.245  2.4173 -2.4834  2.4578
  317MOL0     H41833  10.437   0.611   1.483  1.7243 -0.4173 -0.5228
  317MOL0     H41834  10.576   0.959   1.729 -2.7332  1.9277 -1.7287
  317MOL0     H41835  10.512   0.856   1.852 -0.2661  1.1711  0.0188
  317MOL0     H41836  10.367   1.061   1.666  1.2825  0.5624 -0.5882
  317MOL0     H41837  10.280   0.912   1.698 -1.6774  0.8149  1.5860
  317MOL0     H41838  10.297   0.953   1.944 -2.8664 -1.0349 -1.3414
  317MOL0     H41839  10.222   1.074   1.854  0.0930 -2.2694 -1.9435
  317MOL0     H41840  10.420   1.222   1.876  2.1494  1.0040  2.0062
  317MOL0     H41841  10.343   1.176   2.030 -1.5112 -1.5951  0.3810
  317MOL0     H41842  10.755   1.034   2.064  0.6471 -0.8443 -0.6534
  317MOL0     H41843  10.612   1.004   1.524  0.8300 -0.7487 -0.1672
  317MOL0     H41844  10.632   1.013   1.281 -3.1399  0.7475 -0.3254
  318MOL0     O41845  11.011   8.749   3.805  0.2139  0.0938  0.2927
  318MOL0     C41846  10.971   8.776   3.696  0.0272  0.7609 -0.8995
  318MOL0     O41847  10.992   8.888   3.622 -0.2370 -0.6343  0.2693
  318MOL0     C41848  11.069   8.994   3.661  0.7637  0.3817  0.6172
  318MOL0     C41849  11.087   9.015   3.794 -0.3864  0.1608  0.2131
  318MOL0     C41850  11.178   9.122   3.831  0.9954  0.1942 -0.3955
  318MOL0     C41851  11.234   9.209   3.733  0.3793  0.1442  0.5829
  318MOL0     O41852  11.318   9.316   3.754  1.2451 -0.8203 -0.3863
  318MOL0     C41853  11.368   9.319   3.890 -0.5393 -0.1280 -0.6708
  318MOL0     C41854  11.455   9.435   3.901  0.7410 -0.1361 -0.5939
  318MOL0     C41855  11.561   9.413   4.020 -0.1196  0.5771  0.2559
  318MOL0     C41856  11.659   9.534   4.038  0.9000  0.1128 -0.3897
  318MOL0     C41857  11.762   9.506   4.153 -0.1915  0.0936  0.7495
  318MOL0     C41858  11.708   9.560   4.292  0.4482  0.1051 -0.1400
  318MOL0     C41859  11.821   9.582   4.392  0.3514 -0.1054 -0.6432
  318MOL0     C41860  11.910   9.470   4.417  0.4220  0.0689 -0.0407
  318MOL0     N41861  12.033   9.512   4.488  0.1323 -1.2436 -0.1668
  318MOL0     C41862  12.046   9.589   4.604  1.4058 -0.4274  1.0720
  318MOL0     C41863  12.173   9.622   4.605  1.2652 -0.1659 -0.1312
  318MOL0     C41864  12.224   9.719   4.701  0.4453  0.3597  0.1127
  318MOL0     C41865  12.333   9.653   4.777 -0.1948  0.3560 -0.5483
  318MOL0     C41866  12.395   9.778   4.852  0.3296  1.0304  0.0716
  318MOL0     C41867  12.522   9.731   4.929  0.4480 -0.7778 -0.3081
  318MOL0     O41868  12.558   9.842   5.014  0.2357  0.3868 -0.3427
  318MOL0     C41869  12.692   9.839   5.055  0.7150 -0.4882 -0.9572
  318MOL0     C41870  12.804   9.827   4.975  0.1280  0.5238  0.9032
  318MOL0     C41871  12.942   9.835   5.009 -0.2585  0.5931  0.2874
  318MOL0     C41872  12.967   9.854   5.145  0.5519  0.4085 -1.3499
  318MOL0     C41873  13.104   9.870   5.199 -0.0696 -0.6230  0.5488
  318MOL0     O41874  13.115   9.863   5.336 -0.0051  0.7546  0.1844
  318MOL0     C41875  13.243   9.831   5.375 -0.8755 -0.5359 -0.0809
  318MOL0     C41876  13.354   9.913   5.340  0.3312 -0.1775  0.0338
  318MOL0     C41877  13.488   9.886   5.384  1.0788 -1.3391  0.1686
  318MOL0     C41878  13.505   9.792   5.483  0.3786  0.3651  0.7056
  318MOL0     O41879  13.631   9.776   5.541  0.4481 -0.5199 -0.2690
  318MOL0     C41880  13.667   9.644   5.592 -0.2676 -1.0056  0.4432
  318MOL0     C41881  13.815   9.630   5.623  1.1537  0.6462  0.2582
  318MOL0     C41882  13.877   9.757   5.703 -0.4097  1.0017  0.2295
  318MOL0     C41883  14.030   9.769   5.693 -0.3892  0.2187 -0.2170
  318MOL0     C41884  14.064   9.893   5.782 -0.0933 -0.9193 -0.6995
  318MOL0     C41885  14.219   9.912   5.789 -0.3762 -0.2715  0.1021
  318MOL0     C41886  14.242  10.052   5.868 -0.2004  0.6270 -0.1561
  318MOL0     C41887  14.386  10.081   5.892 -0.7076  0.5528  0.4487
  318MOL0    Cl41888  14.404  10.233   5.999  0.1484  0.1906  0.6283
  318MOL0     C41889  13.402   9.702   5.507 -0.5833  1.1657  0.1174
  318MOL0     C41890  13.271   9.725   5.460  0.0025 -0.0424 -0.2689
  318MOL0     O41891  13.189   9.896   5.107 -0.0068  0.2355  0.4930
  318MOL0     C41892  12.863   9.864   5.241  0.3278 -0.4156 -0.2269
  318MOL0     C41893  12.729   9.870   5.193  0.9089 -0.6866  0.0182
  318MOL0     N41894  12.238   9.562   4.500 -0.0749 -0.1503  0.3563
  318MOL0     N41895  12.155   9.496   4.428 -0.3144  0.9358  0.7322
  318MOL0     C41896  11.209   9.182   3.597  0.3989  0.2247 -0.6809
  318MOL0     C41897  11.120   9.077   3.560  0.0828 -0.2259 -0.1594
  318MOL0     C41898  10.873   8.671   3.648  0.1803 -0.2990  0.9049
  318MOL0     C41899  10.834   8.559   3.726  0.4793 -0.8454  1.0165
  318MOL0     C41900  10.727   8.468   3.693 -0.6904 -0.7625 -0.3443
  318MOL0     C41901  10.663   8.495   3.575  0.1050  0.2148 -0.1435
  318MOL0     O41902  10.551   8.421   3.534  0.4606  0.0535  0.6576
  318MOL0     C41903  10.443   8.411   3.630 -0.0034 -0.5932  0.8709
  318MOL0     C41904  10.377   8.546   3.634  0.4233 -0.7022 -0.3549
  318MOL0     C41905  10.256   8.527   3.727 -0.6750  0.1830 -0.5988
  318MOL0     C41906  10.115   8.577   3.693 -0.5001  0.1232 -0.4808
  318MOL0     C41907  10.046   8.561   3.816  0.8761  1.2460 -0.4780
  318MOL0     C41908   9.977   8.537   3.917 -0.1882 -0.4831  0.4927
  318MOL0     C41909  10.703   8.595   3.486 -1.2841 -0.4008 -0.5768
  318MOL0     C41910  10.811   8.681   3.517 -0.2634 -0.7378 -0.3958
  318MOL0     H41911  11.050   8.960   3.880 -0.5195 -2.3900 -1.3486
  318MOL0     H41912  11.193   9.149   3.936  2.7291  1.2596 -0.8759
  318MOL0     H41913  11.428   9.232   3.916 -1.1643  0.1462  1.9768
  318MOL0     H41914  11.286   9.328   3.961 -1.4478  1.8979 -1.8848
  318MOL0     H41915  11.398   9.528   3.913  1.6783  0.3009  0.6729
  318MOL0     H41916  11.504   9.438   3.803 -1.6746  0.6981 -1.8806
  318MOL0     H41917  11.613   9.323   3.987  0.3764  0.3429  1.5931
  318MOL0     H41918  11.503   9.386   4.109 -0.8894  0.0790 -0.3886
  318MOL0     H41919  11.716   9.541   3.945  1.5795  1.4290  0.0922
  318MOL0     H41920  11.607   9.628   4.057  0.9303  0.3621 -1.4661
  318MOL0     H41921  11.853   9.558   4.122 -0.8728  1.9359  1.7130
  318MOL0     H41922  11.784   9.399   4.153 -0.2628 -0.2086 -4.6843
  318MOL0     H41923  11.639   9.486   4.334  1.8119 -0.7339  0.7127
  318MOL0     H41924  11.656   9.655   4.276  0.4345 -0.0409 -1.0140
  318MOL0     H41925  11.882   9.663   4.350  2.6051  0.0483  2.5915
  318MOL0     H41926  11.789   9.619   4.489 -0.3818 -0.2301 -0.8361
  318MOL0     H41927  11.932   9.422   4.321  0.9142  1.2809 -0.5634
  318MOL0     H41928  11.861   9.401   4.485  0.9348 -0.8311 -0.5721
  318MOL0     H41929  11.968   9.621   4.673  1.0193  2.1546 -0.4152
  318MOL0     H41930  12.143   9.745   4.770 -0.1638  1.3315 -0.9502
  318MOL0     H41931  12.251   9.814   4.654  1.4850 -1.0159 -2.2510
  318MOL0     H41932  12.408   9.614   4.708  4.1671 -1.5256  4.5323
  318MOL0     H41933  12.298   9.577   4.848 -0.1852 -1.4055 -2.3532
  318MOL0     H41934  12.426   9.856   4.781 -0.2033  1.7084  0.5673
  318MOL0     H41935  12.319   9.824   4.915 -0.7394 -0.0443 -0.4185
  318MOL0     H41936  12.596   9.701   4.855  3.5506  2.4883  1.1957
  318MOL0     H41937  12.508   9.639   4.987 -1.4149 -1.3840 -1.6171
  318MOL0     H41938  12.772   9.814   4.872 -5.0370  2.4900  1.9507
  318MOL0     H41939  13.015   9.835   4.929  1.7123  1.6579  2.0098
  318MOL0     H41940  13.343  10.008   5.288  2.4876  0.6166  0.9502
  318MOL0     H41941  13.565   9.957   5.354  0.0997  0.1414  1.0330
  318MOL0     H41942  13.638   9.571   5.515 -2.2572  0.7238 -0.5604
  318MOL0     H41943  13.614   9.616   5.684 -0.6021 -0.7520  0.3307
  318MOL0     H41944  13.861   9.624   5.524  0.8707 -0.4243  0.1792
  318MOL0     H41945  13.836   9.540   5.682 -0.7572 -0.8638 -1.1845
  318MOL0     H41946  13.869   9.749   5.812 -0.6584  0.0959  0.1531
  318MOL0     H41947  13.818   9.838   5.660 -2.5024 -1.1494 -1.2287
  318MOL0     H41948  14.077   9.682   5.738  0.5340  0.6152 -0.3782
  318MOL0     H41949  14.052   9.781   5.586 -1.9340 -1.5178 -0.7640
  318MOL0     H41950  14.029   9.875   5.884 -1.3936  1.5251 -0.6291
  318MOL0     H41951  14.018   9.988   5.753  0.0899 -0.9230 -1.0088
  318MOL0     H41952  14.251   9.918   5.684 -2.8077  1.7940 -0.6398
  318MOL0     H41953  14.264   9.825   5.837 -0.7590 -0.8436 -0.5579
  318MOL0     H41954  14.194  10.128   5.805 -3.5171 -1.5116 -0.4527
  318MOL0     H41955  14.203  10.051   5.970 -0.9390  1.1378 -0.4265
  318MOL0     H41956  14.443  10.075   5.799 -2.7494 -0.2960 -0.8113
  318MOL0     H41957  14.421   9.997   5.952  0.5773  0.2312 -0.7017
  318MOL0     H41958  13.428   9.617   5.570  1.6637 -0.1125 -2.3155
  318MOL0     H41959  13.192   9.660   5.497 -1.1022  2.6425  2.7033
  318MOL0     H41960  12.870   9.878   5.349 -1.2548 -1.1926  0.0069
  318MOL0     H41961  12.667   9.903   5.275 -3.0347  0.3200 -3.0762
  318MOL0     H41962  11.240   9.240   3.511 -0.8432  0.1308 -1.2200
  318MOL0     H41963  11.106   9.064   3.454  0.2753  2.7321 -0.6295
  318MOL0     H41964  10.901   8.538   3.808 -0.7944 -0.0077  2.3121
  318MOL0     H41965  10.701   8.394   3.767  1.7610  0.2764  1.6708
  318MOL0     H41966  10.481   8.398   3.731  2.7776  1.1685  0.1882
  318MOL0     H41967  10.383   8.332   3.585  1.5464  0.0284 -2.6378
  318MOL0     H41968  10.444   8.626   3.668  1.8919 -2.2166  0.4886
  318MOL0     H41969  10.336   8.584   3.540 -0.0564  3.3720  1.3198
  318MOL0     H41970  10.298   8.579   3.814  2.9944 -1.4302 -1.2229
  318MOL0     H41971  10.259   8.423   3.759 -0.6580 -0.4075 -2.4362
  318MOL0     H41972  10.127   8.678   3.653  1.7729 -0.5963 -1.7827
  318MOL0     H41973  10.076   8.509   3.616 -0.0058  0.1189 -0.7359
  318MOL0     H41974   9.912   8.516   4.000 -1.2756  1.5738  0.2298
  318MOL0     H41975  10.661   8.613   3.388  0.8626  1.3391 -1.2566
  318MOL0     H41976  10.850   8.745   3.439 -0.4510  0.5481  0.5348
  319MOL0     O41977   7.896   7.611   3.295 -0.8579  0.9910  0.1228
  319MOL0     C41978   7.896   7.630   3.176  0.6821  0.2618  0.4093
  319MOL0     O41979   7.928   7.757   3.120  0.4517  0.4322 -0.2413
  319MOL0     C41980   7.942   7.868   3.200  0.5841 -0.0207  0.2688
  319MOL0     C41981   7.853   7.918   3.295  0.6469 -0.1897 -0.5397
  319MOL0     C41982   7.890   8.031   3.369  0.3421  0.1787 -0.8040
  319MOL0     C41983   8.013   8.099   3.348 -0.0755 -0.9079 -0.0593
  319MOL0     O41984   8.036   8.210   3.430 -0.0600  0.3838  0.1279
  319MOL0     C41985   8.133   8.296   3.378  0.2274 -0.9721  0.0565
  319MOL0     C41986   8.160   8.400   3.479  0.5296 -0.0168  0.1728
  319MOL0     C41987   8.233   8.524   3.411 -0.6906  0.4053 -0.0075
  319MOL0     C41988   8.358   8.493   3.329 -0.3327 -0.1083 -0.2398
  319MOL0     C41989   8.483   8.448   3.405  0.4735 -0.4084  0.6259
  319MOL0     C41990   8.603   8.409   3.310  0.1471 -0.2795  0.8148
  319MOL0     C41991   8.627   8.520   3.212  0.5883  0.3281  0.9648
  319MOL0     C41992   8.767   8.506   3.141 -0.2160  0.2046 -0.2324
  319MOL0     N41993   8.785   8.628   3.075 -0.0534  0.3853  0.3590
  319MOL0     C41994   8.790   8.622   2.941  0.7771 -0.4338 -0.6697
  319MOL0     C41995   8.824   8.747   2.901  0.6234  0.3206 -0.2302
  319MOL0     C41996   8.813   8.783   2.750  0.7233 -0.7191  0.3458
  319MOL0     C41997   8.688   8.854   2.710 -0.4554  0.7103  0.6683
  319MOL0     C41998   8.691   8.880   2.563 -0.4832  0.7878 -0.0931
  319MOL0     C41999   8.579   8.981   2.538  0.8395  0.1607  1.0084
  319MOL0     O42000   8.567   9.013   2.400 -0.6230  0.3978 -0.1374
  319MOL0     C42001   8.488   9.118   2.371 -1.4351  1.3663 -0.2633
  319MOL0     C42002   8.383   9.161   2.452 -0.8954 -1.1468  0.6746
  319MOL0     C42003   8.309   9.278   2.423  0.3249  0.1080 -0.4312
  319MOL0     C42004   8.337   9.350   2.301  0.0404  0.1871  0.3155
  319MOL0     C42005   8.270   9.475   2.270  0.0714 -0.0504 -0.9876
  319MOL0     O42006   8.176   9.505   2.359 -0.0937 -0.3743 -0.2403
  319MOL0     C42007   8.091   9.618   2.353 -0.9120 -0.4801 -0.7424
  319MOL0     C42008   7.970   9.601   2.428  0.9045  0.5748  0.5050
  319MOL0     C42009   7.870   9.694   2.429 -0.3512 -1.0070  0.4515
  319MOL0     C42010   7.887   9.818   2.354  0.7098  0.1753  0.0204
  319MOL0     O42011   7.797   9.928   2.367  0.7782 -0.3416 -0.2554
  319MOL0     C42012   7.696   9.935   2.468  0.3678  0.6517  0.0730
  319MOL0     C42013   7.593  10.050   2.434 -0.5060 -0.4050 -0.3087
  319MOL0     C42014   7.657  10.185   2.418 -0.0564  0.0856  0.2614
  319MOL0     C42015   7.560  10.303   2.450  0.4840  1.1461  0.5990
  319MOL0     C42016   7.608  10.448   2.469  0.1867 -0.1270 -0.5815
  319MOL0     C42017   7.508  10.551   2.467 -0.4243 -0.4927 -0.6201
  319MOL0     C42018   7.558  10.687   2.515  0.3892  0.2605 -0.2995
  319MOL0     C42019   7.592  10.709   2.664  0.7199  0.0313  0.3365
  319MOL0    Cl42020   7.761  10.663   2.689 -0.2282  0.0440 -0.4573
  319MOL0     C42021   7.999   9.845   2.287 -0.5686 -0.8750 -0.4970
  319MOL0     C42022   8.099   9.741   2.284 -0.2421 -0.7241  0.0647
  319MOL0     O42023   8.292   9.537   2.171  0.6352  0.1227  0.0279
  319MOL0     C42024   8.448   9.314   2.227 -0.8113  0.6031 -1.8094
  319MOL0     C42025   8.515   9.195   2.247  0.7437  0.5220 -1.0611
  319MOL0     N42026   8.865   8.813   3.010 -0.4236 -0.4381 -0.1266
  319MOL0     N42027   8.841   8.744   3.122  0.4309  0.0034 -0.9028
  319MOL0     C42028   8.085   8.053   3.240  0.1070  0.6798  0.0816
  319MOL0     C42029   8.061   7.934   3.179  0.0135 -0.2999  0.0087
  319MOL0     C42030   7.861   7.525   3.087  0.4031 -0.3887 -0.0780
  319MOL0     C42031   7.913   7.517   2.956  0.0393 -0.3452 -0.0541
  319MOL0     C42032   7.887   7.402   2.870 -0.4290 -0.2657  0.4962
  319MOL0     C42033   7.770   7.327   2.912 -0.3309  0.3828 -0.3143
  319MOL0     O42034   7.725   7.218   2.833 -0.3497  0.6110  0.4702
  319MOL0     C42035   7.649   7.104   2.877  0.7044  0.4085 -1.0499
  319MOL0     C42036   7.720   7.006   2.966  0.2857 -0.9630 -0.3658
  319MOL0     C42037   7.646   6.904   3.051 -0.4085 -0.3085 -0.1725
  319MOL0     C42038   7.727   6.773   3.088  0.1993  0.0220  0.2901
  319MOL0     C42039   7.837   6.813   3.176  1.3293  0.5452 -0.5630
  319MOL0     C42040   7.910   6.828   3.272 -0.4030 -0.5077 -0.1178
  319MOL0     C42041   7.715   7.342   3.038 -0.5332  0.2933 -0.2804
  319MOL0     C42042   7.765   7.442   3.131  1.0599 -0.9746 -0.0817
  319MOL0     H42043   7.753   7.877   3.304  0.7299 -0.2363  0.2141
  319MOL0     H42044   7.832   8.074   3.450  0.1737 -0.2834 -0.6720
  319MOL0     H42045   8.096   8.348   3.289 -1.8445 -0.5327  1.1086
  319MOL0     H42046   8.232   8.258   3.351 -0.0805  0.4000 -3.6290
  319MOL0     H42047   8.224   8.351   3.554 -2.5071 -1.8567  1.7594
  319MOL0     H42048   8.063   8.419   3.525  0.2600  0.5485 -0.6243
  319MOL0     H42049   8.250   8.591   3.496 -2.6655 -1.6153  2.1015
  319MOL0     H42050   8.158   8.573   3.348 -1.5902  0.1726  0.8435
  319MOL0     H42051   8.327   8.422   3.252 -0.8620 -0.1817  0.0299
  319MOL0     H42052   8.382   8.586   3.278  0.6287 -0.3395 -0.2317
  319MOL0     H42053   8.449   8.363   3.465 -0.0717 -0.1563  0.6779
  319MOL0     H42054   8.517   8.536   3.460  2.0434  0.3662 -1.4273
  319MOL0     H42055   8.567   8.317   3.263  1.4257 -0.3042 -0.1763
  319MOL0     H42056   8.690   8.383   3.371 -0.2574  0.3674  1.6961
  319MOL0     H42057   8.560   8.513   3.125  0.9525  1.2764  0.5933
  319MOL0     H42058   8.608   8.619   3.254  4.5351  1.3110  0.7618
  319MOL0     H42059   8.765   8.418   3.075 -0.8972  1.6171 -2.2089
  319MOL0     H42060   8.846   8.485   3.213 -2.6128  0.3698  2.6217
  319MOL0     H42061   8.782   8.541   2.870 -1.9522 -0.4654 -0.4291
  319MOL0     H42062   8.805   8.688   2.696  0.5933 -0.7818  0.4730
  319MOL0     H42063   8.907   8.828   2.718  0.5358 -0.2794  0.4064
  319MOL0     H42064   8.673   8.947   2.767  0.2722 -0.7166  3.3633
  319MOL0     H42065   8.600   8.794   2.737 -0.8527  1.5182  1.2052
  319MOL0     H42066   8.782   8.934   2.535 -0.9029  1.3010 -0.4939
  319MOL0     H42067   8.682   8.791   2.499 -0.1976 -0.5205  1.6030
  319MOL0     H42068   8.586   9.074   2.595  0.9399  2.6122 -2.6535
  319MOL0     H42069   8.485   8.931   2.562  0.9718 -0.1201  0.9367
  319MOL0     H42070   8.355   9.117   2.547  2.3920 -1.7751  1.4593
  319MOL0     H42071   8.236   9.317   2.493 -0.9677 -0.1254 -1.6196
  319MOL0     H42072   7.965   9.517   2.497 -4.1118  0.0978 -0.0677
  319MOL0     H42073   7.773   9.683   2.476 -0.5335 -1.7686 -0.0751
  319MOL0     H42074   7.741   9.955   2.566 -2.9060 -1.8890  2.3166
  319MOL0     H42075   7.644   9.839   2.473  0.4636  0.5674 -0.5130
  319MOL0     H42076   7.520  10.059   2.515  0.4210 -0.9061  0.6157
  319MOL0     H42077   7.544  10.026   2.339  0.8802 -0.6745 -0.9836
  319MOL0     H42078   7.696  10.200   2.317  0.5285 -0.2370  0.4346
  319MOL0     H42079   7.747  10.190   2.480  1.8795 -3.1624 -1.9590
  319MOL0     H42080   7.473  10.292   2.384  0.9415  1.4770 -0.0703
  319MOL0     H42081   7.517  10.292   2.550 -0.0468 -0.8141  0.2052
  319MOL0     H42082   7.675  10.470   2.385  0.5372  2.5100  0.3063
  319MOL0     H42083   7.652  10.456   2.569 -1.1545  2.7646 -0.1335
  319MOL0     H42084   7.430  10.527   2.539  0.5943  1.6676  1.3493
  319MOL0     H42085   7.454  10.562   2.373 -3.9421 -0.4467  1.2450
  319MOL0     H42086   7.650  10.709   2.460  0.1259  2.7527  0.1069
  319MOL0     H42087   7.504  10.780   2.491 -1.5412 -0.4020  1.2146
  319MOL0     H42088   7.523  10.643   2.716 -0.3650  0.5299 -0.4151
  319MOL0     H42089   7.577  10.813   2.696 -0.6489 -0.5401  1.6708
  319MOL0     H42090   8.007   9.934   2.226 -1.1433  1.3891  2.5218
  319MOL0     H42091   8.190   9.755   2.228  0.5675 -4.5627  0.1940
  319MOL0     H42092   8.488   9.372   2.144 -0.6840  2.3714 -0.5635
  319MOL0     H42093   8.601   9.174   2.185  2.5910  4.0159  0.0427
  319MOL0     H42094   8.176   8.100   3.205  0.3808 -1.6541 -2.7113
  319MOL0     H42095   8.126   7.905   3.097 -1.2219  0.9665 -1.4793
  319MOL0     H42096   7.984   7.587   2.914  0.2612 -0.2015  0.5576
  319MOL0     H42097   7.934   7.381   2.775 -1.6160 -1.6435  0.1625
  319MOL0     H42098   7.624   7.052   2.784  2.3529  1.1762 -1.9686
  319MOL0     H42099   7.561   7.131   2.936  0.4273 -1.4683 -0.5432
  319MOL0     H42100   7.792   6.948   2.907  1.5304 -1.1387  1.2717
  319MOL0     H42101   7.778   7.067   3.036 -0.2154 -1.7270  0.7363
  319MOL0     H42102   7.563   6.871   2.987 -0.0262 -2.5309  0.3997
  319MOL0     H42103   7.615   6.950   3.145 -1.9777 -2.6476  0.5494
  319MOL0     H42104   7.650   6.706   3.129  1.1645 -0.2442  1.7235
  319MOL0     H42105   7.759   6.734   2.991 -2.1734  0.3210 -0.6814
  319MOL0     H42106   7.980   6.848   3.351  1.6994 -0.1426 -1.9646
  319MOL0     H42107   7.632   7.281   3.071 -0.2194  1.4764  3.1609
  319MOL0     H42108   7.713   7.459   3.225  0.9898  0.2975 -0.3307
  320MOL0     O42109  10.081   6.501   1.519  0.1757  0.2492 -0.2078
  320MOL0     C42110   9.962   6.481   1.482 -0.5161 -0.5265 -0.3155
  320MOL0     O42111   9.912   6.511   1.367  0.4272  0.0148 -0.8637
  320MOL0     C42112   9.978   6.565   1.259  0.3348  0.9739 -0.4061
  320MOL0     C42113   9.899   6.567   1.135 -0.0419  0.7238 -0.7999
  320MOL0     C42114   9.962   6.620   1.024 -0.6981  0.0528  0.6298
  320MOL0     C42115  10.091   6.672   1.024  0.0244 -0.3375  0.8779
  320MOL0     O42116  10.138   6.688   0.896 -0.1647  0.0632 -0.7194
  320MOL0     C42117  10.270   6.643   0.869  0.4066 -0.8229  1.2342
  320MOL0     C42118  10.315   6.659   0.730  0.4600 -0.2140 -0.4391
  320MOL0     C42119  10.447   6.594   0.697  0.3074  0.2804 -0.2879
  320MOL0     C42120  10.492   6.482   0.792 -0.0710 -0.1190 -0.5008
  320MOL0     C42121  10.632   6.430   0.746  1.4493  0.8908 -0.7627
  320MOL0     C42122  10.704   6.345   0.843 -0.0757 -0.2447 -1.3750
  320MOL0     C42123  10.627   6.213   0.891 -1.4223  0.0368  0.1150
  320MOL0     C42124  10.709   6.125   0.979 -0.6264  0.6115 -0.3184
  320MOL0     N42125  10.634   6.001   1.012  0.9307 -0.2071 -0.2336
  320MOL0     C42126  10.620   5.898   0.925  0.4233  0.3117  0.6699
  320MOL0     C42127  10.545   5.805   0.994  0.6367  0.4849 -0.5758
  320MOL0     C42128  10.505   5.673   0.947  0.6248  0.1066  0.0709
  320MOL0     C42129  10.499   5.649   0.801  0.3094 -0.1473 -1.2198
  320MOL0     C42130  10.480   5.504   0.769 -0.4239  0.0397  0.0409
  320MOL0     C42131  10.423   5.484   0.632 -0.6507  0.7919 -0.5109
  320MOL0     O42132  10.512   5.508   0.521  0.1296 -0.5479 -0.0831
  320MOL0     C42133  10.630   5.441   0.503 -0.5419 -0.4893  0.2481
  320MOL0     C42134  10.729   5.508   0.439 -0.9443 -1.1314  0.5904
  320MOL0     C42135  10.853   5.457   0.417  0.8901 -0.4714  0.5263
  320MOL0     C42136  10.897   5.332   0.466  0.6070 -0.4017  0.7069
  320MOL0     C42137  11.033   5.274   0.425  0.0730  1.2821 -0.6611
  320MOL0     O42138  11.111   5.339   0.338  0.2692  0.1596  0.1980
  320MOL0     C42139  11.242   5.314   0.337  0.0092 -0.7191 -0.4041
  320MOL0     C42140  11.306   5.327   0.213 -0.0919 -0.1357  0.9705
  320MOL0     C42141  11.443   5.308   0.195 -0.0109 -0.4485  0.0105
  320MOL0     C42142  11.528   5.277   0.302  1.2321  0.2344  1.0288
  320MOL0     O42143  11.661   5.248   0.281 -0.9331  0.0455 -0.4522
  320MOL0     C42144  11.733   5.258   0.166  0.0111 -0.0795  0.4826
  320MOL0     C42145  11.886   5.249   0.185 -0.1443 -0.4027 -0.0471
  320MOL0     C42146  11.920   5.389   0.237  0.6233 -0.1831 -0.4605
  320MOL0     C42147  12.041   5.372   0.328  0.5733  0.8033 -0.5231
  320MOL0     C42148  12.133   5.489   0.316 -0.2763  0.2359 -0.7144
  320MOL0     C42149  12.267   5.475   0.393  0.7299  0.3999 -0.8792
  320MOL0     C42150  12.371   5.400   0.310 -0.2980  0.1797 -0.0973
  320MOL0     C42151  12.507   5.368   0.380 -1.0184  0.2149 -0.0040
  320MOL0    Cl42152  12.605   5.256   0.280 -0.0017 -0.4966  0.1059
  320MOL0     C42153  11.460   5.259   0.430  0.1680  0.2856  0.3773
  320MOL0     C42154  11.317   5.290   0.442 -1.2015 -0.6250 -0.2318
  320MOL0     O42155  11.066   5.168   0.480  0.3884  0.2255 -0.6299
  320MOL0     C42156  10.797   5.260   0.529  0.7404 -0.2714 -0.5591
  320MOL0     C42157  10.671   5.318   0.555  0.1469 -0.6691  0.3606
  320MOL0     N42158  10.526   5.858   1.119  0.1107  0.7750 -0.0676
  320MOL0     N42159  10.586   5.969   1.137 -0.0556 -0.4228 -0.8615
  320MOL0     C42160  10.161   6.682   1.135 -0.8444 -0.0350  0.4577
  320MOL0     C42161  10.100   6.628   1.254 -0.1367  0.1106  0.0624
  320MOL0     C42162   9.867   6.401   1.576 -0.1591 -1.2809  0.4186
  320MOL0     C42163   9.929   6.302   1.659 -1.1213  0.3514 -0.1364
  320MOL0     C42164   9.843   6.212   1.721 -0.9426 -0.2725 -0.5337
  320MOL0     C42165   9.702   6.230   1.713 -0.0793 -0.8212  0.6371
  320MOL0     O42166   9.604   6.157   1.778  0.5797 -0.3231 -0.2612
  320MOL0     C42167   9.633   6.133   1.918 -1.0207  0.4176  0.5816
  320MOL0     C42168   9.507   6.083   2.000  0.4056  0.4338  0.0319
  320MOL0     C42169   9.544   6.102   2.147  0.5051 -0.3900 -0.2824
  320MOL0     C42170   9.438   6.056   2.228  0.2687 -0.1602  0.8261
  320MOL0     C42171   9.303   6.096   2.188 -0.4679 -0.3751 -0.0394
  320MOL0     C42172   9.189   6.122   2.153 -0.0849  0.7092  0.6309
  320MOL0     C42173   9.650   6.328   1.628 -0.3744 -0.0481 -0.8000
  320MOL0     C42174   9.725   6.416   1.561 -1.2756 -0.0409 -0.0369
  320MOL0     H42175   9.800   6.522   1.135 -0.8295  2.4015 -1.3708
  320MOL0     H42176   9.919   6.617   0.925  0.9480 -1.6594 -0.0827
  320MOL0     H42177  10.264   6.536   0.890 -1.1181 -1.2024 -0.8746
  320MOL0     H42178  10.348   6.695   0.926  0.5831  2.1122 -1.4271
  320MOL0     H42179  10.302   6.767   0.721 -1.4388  0.1579  4.2425
  320MOL0     H42180  10.245   6.615   0.658  1.1771  0.7082 -1.7601
  320MOL0     H42181  10.531   6.664   0.705  1.5092 -0.5645 -3.7667
  320MOL0     H42182  10.450   6.560   0.593  2.5890 -0.9878  0.1327
  320MOL0     H42183  10.489   6.501   0.900 -0.0884 -2.1900 -0.0951
  320MOL0     H42184  10.419   6.402   0.779 -0.6825  0.3815 -0.2096
  320MOL0     H42185  10.696   6.515   0.722  1.1558  1.3517  0.0417
  320MOL0     H42186  10.615   6.376   0.653 -2.4363  2.1398 -0.9799
  320MOL0     H42187  10.738   6.406   0.927 -0.0016 -1.0700 -0.7872
  320MOL0     H42188  10.797   6.311   0.797  2.7323  0.3219  3.2004
  320MOL0     H42189  10.539   6.250   0.945 -0.3265 -1.8237  3.4408
  320MOL0     H42190  10.607   6.154   0.801  1.0429  1.6824 -1.6462
  320MOL0     H42191  10.741   6.176   1.070  3.4965 -0.9060 -0.7066
  320MOL0     H42192  10.797   6.102   0.919 -2.5427  1.8566 -3.9188
  320MOL0     H42193  10.655   5.896   0.822  0.4833  1.9837  0.6252
  320MOL0     H42194  10.404   5.654   0.985 -1.0825  1.8456 -3.1582
  320MOL0     H42195  10.562   5.587   0.984  2.5350  0.5587 -1.6751
  320MOL0     H42196  10.597   5.678   0.763  2.3116 -1.3873  2.4975
  320MOL0     H42197  10.415   5.709   0.764 -1.5206 -0.9618  1.3638
  320MOL0     H42198  10.563   5.433   0.777 -1.1495 -0.8174  0.0405
  320MOL0     H42199  10.405   5.472   0.842  2.6373 -1.0637  2.9880
  320MOL0     H42200  10.331   5.541   0.619 -1.9567 -1.2635 -0.7419
  320MOL0     H42201  10.396   5.379   0.622 -2.1080  1.0450  0.5257
  320MOL0     H42202  10.696   5.601   0.394 -0.9536  1.2819  5.0332
  320MOL0     H42203  10.932   5.511   0.364  0.2846 -1.2502 -1.2684
  320MOL0     H42204  11.261   5.361   0.120  2.9618  3.1379  0.4725
  320MOL0     H42205  11.492   5.310   0.098 -1.1169 -2.8184 -0.6631
  320MOL0     H42206  11.706   5.344   0.104 -3.8352 -2.3938 -1.4966
  320MOL0     H42207  11.692   5.174   0.108  2.4971  0.8589 -2.9405
  320MOL0     H42208  11.938   5.240   0.089 -0.6241 -0.9955 -0.2586
  320MOL0     H42209  11.917   5.166   0.249  5.5490  2.0531  0.9543
  320MOL0     H42210  11.840   5.443   0.288  0.9155  0.7219 -0.9494
  320MOL0     H42211  11.948   5.441   0.145  0.5543  0.1312 -0.3023
  320MOL0     H42212  12.002   5.360   0.429  1.2429  2.9643  0.0545
  320MOL0     H42213  12.099   5.281   0.307  0.8660  1.0373 -0.7410
  320MOL0     H42214  12.090   5.581   0.354 -1.2270  0.1088 -1.4383
  320MOL0     H42215  12.145   5.502   0.208  2.0413 -0.6502 -0.6204
  320MOL0     H42216  12.259   5.424   0.490  1.9568  1.4937 -0.1783
  320MOL0     H42217  12.313   5.572   0.413  0.1971  1.1061 -2.8276
  320MOL0     H42218  12.322   5.306   0.281 -3.0844  1.7332 -0.8015
  320MOL0     H42219  12.383   5.456   0.217 -0.6250 -1.6416 -1.2940
  320MOL0     H42220  12.483   5.315   0.472 -0.1720  1.8152  1.1913
  320MOL0     H42221  12.561   5.460   0.407  0.8630 -1.1442  1.1133
  320MOL0     H42222  11.523   5.224   0.511  1.6078  3.7963  0.9321
  320MOL0     H42223  11.268   5.302   0.538  1.1598  0.8146  0.8661
  320MOL0     H42224  10.816   5.156   0.557  0.1112 -0.4753 -0.8763
  320MOL0     H42225  10.589   5.268   0.605 -0.3367  0.6912  0.9639
  320MOL0     H42226  10.268   6.696   1.120 -0.9518 -1.1010 -1.7207
  320MOL0     H42227  10.161   6.616   1.343  0.4173 -2.4066 -0.5912
  320MOL0     H42228  10.036   6.287   1.661 -1.2508 -0.6932 -0.4116
  320MOL0     H42229   9.880   6.129   1.781  3.3921  1.7781 -0.0288
  320MOL0     H42230   9.662   6.226   1.968 -1.7870  1.1712 -0.3408
  320MOL0     H42231   9.717   6.064   1.928 -0.8990  0.4210 -0.3180
  320MOL0     H42232   9.424   6.146   1.965 -0.4939  0.2476  1.7392
  320MOL0     H42233   9.487   5.978   1.975  0.7303  0.2081  0.6988
  320MOL0     H42234   9.550   6.209   2.168  0.1212 -0.9946  3.5097
  320MOL0     H42235   9.644   6.068   2.173  0.4537  1.6946  3.1889
  320MOL0     H42236   9.454   5.948   2.225 -2.6108 -0.6407 -1.2239
  320MOL0     H42237   9.447   6.090   2.332  1.0244 -0.4969  0.8824
  320MOL0     H42238   9.092   6.162   2.133  0.9575  2.8714 -0.4048
  320MOL0     H42239   9.546   6.318   1.599  0.0308 -2.5163 -1.6500
  320MOL0     H42240   9.690   6.485   1.486  1.0551 -1.2626 -2.4110
  321MOL0     O42241   9.927   8.664   7.367  0.1104  0.8515  0.5441
  321MOL0     C42242   9.906   8.710   7.255  0.2856  1.2112  0.1967
  321MOL0     O42243   9.959   8.830   7.199  0.6267  0.1253  0.4550
  321MOL0     C42244  10.071   8.896   7.252  0.8016  0.3719  0.4057
  321MOL0     C42245  10.179   8.826   7.308  0.0798  0.0747 -0.1117
  321MOL0     C42246  10.283   8.899   7.353  1.0154 -0.6906 -0.1645
  321MOL0     C42247  10.291   9.034   7.350 -0.6961  0.3058 -0.5331
  321MOL0     O42248  10.416   9.093   7.384 -0.5754 -0.0515  0.3323
  321MOL0     C42249  10.415   9.228   7.437 -1.1457  0.0734  0.1432
  321MOL0     C42250  10.539   9.234   7.521  0.8003 -0.4891  0.7420
  321MOL0     C42251  10.670   9.190   7.434 -0.4656 -0.4696 -0.2480
  321MOL0     C42252  10.695   9.269   7.297 -0.1403  0.3256 -0.4871
  321MOL0     C42253  10.717   9.425   7.315 -0.4003  0.2665  0.7228
  321MOL0     C42254  10.595   9.511   7.292  0.1612 -1.2637  0.0491
  321MOL0     C42255  10.548   9.520   7.149  0.5656  0.7472  0.2083
  321MOL0     C42256  10.441   9.629   7.150  0.3058  0.5391  0.6815
  321MOL0     N42257  10.308   9.579   7.185  0.2752 -0.8748 -0.4022
  321MOL0     C42258  10.210   9.553   7.102  0.0609 -0.3387  0.5561
  321MOL0     C42259  10.106   9.508   7.181 -0.0687 -0.0527  0.4228
  321MOL0     C42260   9.970   9.474   7.133  0.1590 -0.9918  0.0804
  321MOL0     C42261   9.974   9.385   7.012  0.2295 -0.4469 -0.3593
  321MOL0     C42262   9.837   9.372   6.943  0.7285  0.3433 -0.3018
  321MOL0     C42263   9.816   9.242   6.855 -0.1202  0.0844  0.6373
  321MOL0     O42264   9.690   9.184   6.843  0.5191 -0.2512 -0.5297
  321MOL0     C42265   9.635   9.107   6.942  0.2492  0.2776 -0.5633
  321MOL0     C42266   9.694   9.070   7.064 -0.6989  0.3385  0.0731
  321MOL0     C42267   9.627   9.005   7.157 -0.7559  0.0840 -0.1141
  321MOL0     C42268   9.499   8.957   7.136  0.1431 -0.0674  0.6251
  321MOL0     C42269   9.422   8.898   7.245 -0.3984 -0.5222 -0.3178
  321MOL0     O42270   9.509   8.846   7.334  0.4555  0.3799  0.1484
  321MOL0     C42271   9.469   8.794   7.448  0.4758 -0.2058 -0.2842
  321MOL0     C42272   9.554   8.702   7.512 -0.2197 -0.0729 -0.0202
  321MOL0     C42273   9.528   8.648   7.643 -0.2907 -0.4274  0.5685
  321MOL0     C42274   9.413   8.694   7.711  0.1815 -0.8129  0.0683
  321MOL0     O42275   9.389   8.628   7.822 -0.4684 -0.5143  0.6098
  321MOL0     C42276   9.269   8.561   7.841 -0.7299  0.2239  0.3474
  321MOL0     C42277   9.280   8.470   7.961 -0.0397 -0.4338  0.2257
  321MOL0     C42278   9.162   8.391   7.994  0.2657  0.0203 -0.1554
  321MOL0     C42279   9.134   8.273   7.900 -0.9730  0.8464 -0.0479
  321MOL0     C42280   9.031   8.169   7.968 -0.1754 -0.9071 -0.1738
  321MOL0     C42281   9.087   8.060   8.061  0.3537 -0.8337 -0.3683
  321MOL0     C42282   9.004   7.933   8.069 -0.2378 -0.2121 -0.1298
  321MOL0     C42283   9.075   7.824   8.145 -0.5921 -0.6334 -0.4482
  321MOL0    Cl42284   8.975   7.683   8.143 -0.2675  0.3104 -0.2728
  321MOL0     C42285   9.331   8.783   7.646 -0.0723 -0.4286  0.2942
  321MOL0     C42286   9.360   8.838   7.525  1.3921 -0.0202 -0.3748
  321MOL0     O42287   9.300   8.900   7.249  0.2959  0.1024 -0.2130
  321MOL0     C42288   9.439   8.990   7.013  0.1352  0.2611  0.5607
  321MOL0     C42289   9.510   9.064   6.917  0.5704  0.8348 -0.0914
  321MOL0     N42290  10.158   9.511   7.308 -0.7590 -0.5972  0.6302
  321MOL0     N42291  10.270   9.561   7.310 -0.3257  0.6852 -0.1852
  321MOL0     C42292  10.189   9.105   7.296  1.2959 -0.4492 -0.0959
  321MOL0     C42293  10.079   9.039   7.237  0.6942 -0.3562 -1.2570
  321MOL0     C42294   9.797   8.640   7.179 -0.7133 -0.3121  0.0698
  321MOL0     C42295   9.778   8.673   7.041  1.5215 -0.7493 -0.5469
  321MOL0     C42296   9.673   8.613   6.967  0.0368 -0.3082 -0.6805
  321MOL0     C42297   9.586   8.523   7.034  0.0806 -0.9063 -0.8843
  321MOL0     O42298   9.493   8.445   6.960  0.2260 -0.3719 -0.7411
  321MOL0     C42299   9.508   8.435   6.821  0.4851  0.6728  0.1097
  321MOL0     C42300   9.425   8.324   6.781  0.3827  0.4549  1.4267
  321MOL0     C42301   9.421   8.300   6.630  0.4080  0.4493  0.1900
  321MOL0     C42302   9.315   8.197   6.585 -0.8528  0.2485 -0.0068
  321MOL0     C42303   9.388   8.067   6.577  0.1014  1.1943  0.3499
  321MOL0     C42304   9.460   7.962   6.574 -0.0169 -0.6143 -0.5706
  321MOL0     C42305   9.601   8.485   7.160 -0.2300  0.2867 -0.5026
  321MOL0     C42306   9.710   8.538   7.232  0.3133 -0.0782  0.0238
  321MOL0     H42307  10.195   8.718   7.310  4.0142  0.4053  3.9102
  321MOL0     H42308  10.365   8.838   7.390  1.0290 -0.9958 -0.6872
  321MOL0     H42309  10.328   9.253   7.499 -1.5541  0.2416 -0.4900
  321MOL0     H42310  10.415   9.300   7.354  3.0314  0.7976  0.5280
  321MOL0     H42311  10.530   9.174   7.612 -2.7078  2.1461  2.3494
  321MOL0     H42312  10.546   9.342   7.537  2.6297 -0.5474  0.6197
  321MOL0     H42313  10.655   9.083   7.415  0.4215 -1.3390  3.1991
  321MOL0     H42314  10.755   9.194   7.502  0.8780 -2.5618 -1.6614
  321MOL0     H42315  10.786   9.232   7.248  1.8094  4.8053 -0.7415
  321MOL0     H42316  10.616   9.247   7.225  0.4177 -0.5637 -0.8457
  321MOL0     H42317  10.794   9.447   7.241  2.2313  1.1817  3.5305
  321MOL0     H42318  10.767   9.444   7.411 -0.5069 -1.7133  1.2190
  321MOL0     H42319  10.624   9.614   7.312  0.4899 -0.6182 -3.1604
  321MOL0     H42320  10.516   9.484   7.362 -1.8414 -0.0424 -1.6273
  321MOL0     H42321  10.622   9.562   7.080  0.9638 -4.2178 -2.8375
  321MOL0     H42322  10.513   9.426   7.107 -1.3815  2.8473 -3.2947
  321MOL0     H42323  10.433   9.668   7.048 -0.3309  0.9048  0.8642
  321MOL0     H42324  10.468   9.718   7.208 -1.4184  0.6682  1.3645
  321MOL0     H42325  10.200   9.554   6.993 -2.1456  0.6673  0.7160
  321MOL0     H42326   9.912   9.567   7.127  2.0415  0.1772 -0.8448
  321MOL0     H42327   9.940   9.414   7.219 -0.7241 -2.4078 -1.1444
  321MOL0     H42328  10.030   9.295   7.037  0.3695 -0.2279  0.1097
  321MOL0     H42329  10.050   9.424   6.942 -0.2803  0.3344 -0.5004
  321MOL0     H42330   9.771   9.348   7.028  0.1554 -1.3186 -1.1679
  321MOL0     H42331   9.813   9.462   6.886  1.9441  0.1910 -1.0936
  321MOL0     H42332   9.875   9.159   6.895  0.4234  0.1763  0.0495
  321MOL0     H42333   9.855   9.276   6.759  0.9071  0.9601  1.3339
  321MOL0     H42334   9.798   9.093   7.084  0.4544 -2.4766 -2.0354
  321MOL0     H42335   9.684   9.001   7.250  1.9420  2.2096 -1.5004
  321MOL0     H42336   9.641   8.666   7.458  0.7308  1.0244  0.7559
  321MOL0     H42337   9.605   8.582   7.682  1.7077  0.1664 -2.0648
  321MOL0     H42338   9.254   8.492   7.757  0.4689 -2.5292  2.2197
  321MOL0     H42339   9.185   8.628   7.862 -0.5868  1.0694 -1.6060
  321MOL0     H42340   9.308   8.526   8.050 -1.6727  2.3435 -0.8973
  321MOL0     H42341   9.355   8.394   7.937  1.4084  1.2994 -1.0128
  321MOL0     H42342   9.068   8.448   7.997 -0.8230 -1.7039  0.0684
  321MOL0     H42343   9.189   8.348   8.091 -0.9446 -1.5836 -0.4808
  321MOL0     H42344   9.091   8.299   7.802  1.8546 -0.8784 -1.8849
  321MOL0     H42345   9.228   8.227   7.870  0.8743  3.7859  0.8701
  321MOL0     H42346   8.976   8.125   7.884 -1.9715  0.1070  0.4099
  321MOL0     H42347   8.959   8.230   8.024  1.6708  0.8199  0.4408
  321MOL0     H42348   9.097   8.107   8.159  0.6868 -0.6813 -0.4749
  321MOL0     H42349   9.187   8.033   8.024  0.9853  1.3218 -0.3440
  321MOL0     H42350   8.909   7.963   8.114 -0.1406 -0.2566  0.1080
  321MOL0     H42351   8.982   7.886   7.973 -0.1102 -2.8205  1.0369
  321MOL0     H42352   9.093   7.852   8.249  1.6801 -2.1017 -0.3747
  321MOL0     H42353   9.177   7.803   8.110 -0.4896  0.1342 -0.6184
  321MOL0     H42354   9.243   8.813   7.702 -1.9338  1.2686 -3.2285
  321MOL0     H42355   9.280   8.907   7.497 -0.1599 -1.7850 -0.5030
  321MOL0     H42356   9.335   8.966   6.990  1.2135 -3.8651 -0.9600
  321MOL0     H42357   9.467   9.088   6.820 -0.8965 -1.3349 -0.0441
  321MOL0     H42358  10.193   9.214   7.290  1.8091 -0.4444  0.2831
  321MOL0     H42359  10.005   9.094   7.179 -0.6214  1.7430  2.0975
  321MOL0     H42360   9.836   8.741   6.979 -2.5355  1.4010 -2.3557
  321MOL0     H42361   9.649   8.622   6.862 -2.0477 -1.5235 -0.3648
  321MOL0     H42362   9.611   8.413   6.792 -0.1863 -1.5869 -0.7176
  321MOL0     H42363   9.464   8.513   6.758  0.0201 -1.4823 -2.4122
  321MOL0     H42364   9.464   8.229   6.819  0.2785  0.5782  1.8445
  321MOL0     H42365   9.326   8.338   6.825 -1.9399 -3.4807 -1.7794
  321MOL0     H42366   9.517   8.267   6.588 -0.7022  0.2195 -2.3659
  321MOL0     H42367   9.387   8.392   6.582  3.5276  1.3597 -0.5120
  321MOL0     H42368   9.244   8.182   6.666 -0.1646  1.8532  0.9446
  321MOL0     H42369   9.271   8.223   6.488  2.3541 -2.7598 -2.5243
  321MOL0     H42370   9.535   7.888   6.555  0.3004  0.0460 -2.0009
  321MOL0     H42371   9.546   8.406   7.209  1.1442 -0.5917 -0.3121
  321MOL0     H42372   9.715   8.509   7.336 -2.8565 -1.7221 -0.1636
  322MOL0     O42373   3.531   4.469   8.238 -0.1388  0.8394 -0.3540
  322MOL0     C42374   3.523   4.419   8.122 -0.0022  0.2446 -0.3328
  322MOL0     O42375   3.508   4.289   8.101 -0.0386  0.6304  0.8574
  322MOL0     C42376   3.452   4.202   8.190  0.1377  0.6025  0.3241
  322MOL0     C42377   3.436   4.070   8.141  0.4652  0.4241 -0.2113
  322MOL0     C42378   3.385   3.962   8.217 -0.1569 -0.4316  0.3342
  322MOL0     C42379   3.352   3.983   8.349  0.4698  0.1526 -0.7246
  322MOL0     O42380   3.290   3.890   8.427 -0.6451 -0.0352 -0.2731
  322MOL0     C42381   3.275   3.759   8.379  0.3421 -0.9110  0.2044
  322MOL0     C42382   3.194   3.673   8.481  0.0791  0.5017 -0.6265
  322MOL0     C42383   3.055   3.736   8.525  0.9772 -0.0845 -0.6198
  322MOL0     C42384   3.003   3.671   8.667  0.7663  0.7278 -0.5485
  322MOL0     C42385   2.939   3.529   8.651 -1.3532  0.7674  1.2133
  322MOL0     C42386   2.804   3.545   8.574  0.0257 -0.0546 -0.3056
  322MOL0     C42387   2.730   3.413   8.580 -0.7390  0.0662  0.6921
  322MOL0     C42388   2.804   3.292   8.526  0.6020  0.2155  0.4147
  322MOL0     N42389   2.847   3.290   8.388 -0.6345  0.4322  1.4223
  322MOL0     C42390   2.781   3.341   8.280 -0.1730 -0.1721  0.4271
  322MOL0     C42391   2.868   3.318   8.181  0.5435  0.1703 -0.6482
  322MOL0     C42392   2.844   3.362   8.042 -0.1272 -0.4071  1.1041
  322MOL0     C42393   2.876   3.516   8.021  1.3149  0.0492  0.9527
  322MOL0     C42394   3.019   3.558   8.042 -0.8673 -0.8175 -0.1647
  322MOL0     C42395   3.022   3.707   8.011 -0.0434 -0.2831 -0.5122
  322MOL0     O42396   3.162   3.736   7.999  0.3629 -0.0294 -0.6907
  322MOL0     C42397   3.195   3.823   7.899 -0.1116 -0.1706 -0.4156
  322MOL0     C42398   3.303   3.795   7.818 -0.1864 -0.2468  0.0072
  322MOL0     C42399   3.358   3.902   7.738 -0.5333  0.2242 -0.3564
  322MOL0     C42400   3.299   4.028   7.733 -0.1108 -0.7996  0.5093
  322MOL0     C42401   3.336   4.122   7.628 -0.5508  0.1986 -1.1733
  322MOL0     O42402   3.447   4.097   7.550  0.2670 -0.2786 -0.6627
  322MOL0     C42403   3.472   4.181   7.437 -0.5071 -0.2047 -2.0535
  322MOL0     C42404   3.580   4.263   7.432  0.5228  0.3091  0.6238
  322MOL0     C42405   3.607   4.349   7.318  0.1362  0.1731  0.7187
  322MOL0     C42406   3.518   4.342   7.211  0.4554  0.3193  0.1339
  322MOL0     O42407   3.533   4.394   7.091  0.4977 -0.4429  0.0577
  322MOL0     C42408   3.666   4.444   7.054  0.8643 -0.1371 -0.2636
  322MOL0     C42409   3.647   4.553   6.956 -0.5027  0.1793  0.1185
  322MOL0     C42410   3.631   4.505   6.809  0.4578 -0.2644 -0.2701
  322MOL0     C42411   3.646   4.604   6.691  0.0014  1.0480  0.2134
  322MOL0     C42412   3.793   4.650   6.661 -0.4005  0.3608 -0.4187
  322MOL0     C42413   3.804   4.676   6.511 -1.0466 -1.0597  1.1806
  322MOL0     C42414   3.941   4.741   6.490 -2.0850 -0.2731  0.3170
  322MOL0     C42415   3.995   4.748   6.344  0.4309 -0.1526 -0.2698
  322MOL0    Cl42416   4.167   4.780   6.336  0.2627 -0.2637 -0.3394
  322MOL0     C42417   3.407   4.266   7.222 -0.3965 -0.3851  0.2652
  322MOL0     C42418   3.389   4.187   7.335  0.2730 -0.2129 -0.4712
  322MOL0     O42419   3.262   4.224   7.626  0.5579 -0.9576  0.6355
  322MOL0     C42420   3.195   4.049   7.828 -0.1196 -0.5186 -0.3999
  322MOL0     C42421   3.141   3.949   7.898  0.2708  0.1490  0.5245
  322MOL0     N42422   2.985   3.270   8.229 -1.1106  0.0467  0.6183
  322MOL0     N42423   2.973   3.269   8.356 -0.9750  0.0095  0.2623
  322MOL0     C42424   3.365   4.101   8.400  0.5494 -1.1978 -0.2870
  322MOL0     C42425   3.405   4.217   8.324 -0.1522 -0.3562  0.7742
  322MOL0     C42426   3.557   4.502   7.993  0.1786  0.5230  0.0583
  322MOL0     C42427   3.523   4.636   7.989  0.4347  0.4432  0.2297
  322MOL0     C42428   3.548   4.711   7.867  0.7290  0.1196 -0.5708
  322MOL0     C42429   3.594   4.649   7.754  1.0013  1.6283  0.2001
  322MOL0     O42430   3.619   4.705   7.632  0.0244 -0.5191 -0.7706
  322MOL0     C42431   3.564   4.843   7.599 -0.4213  0.8115 -0.2717
  322MOL0     C42432   3.530   4.827   7.453  0.9607 -0.5854 -0.7388
  322MOL0     C42433   3.648   4.847   7.360  0.6450  0.6059  0.6433
  322MOL0     C42434   3.608   4.807   7.219  0.4798  0.7941  0.2237
  322MOL0     C42435   3.714   4.862   7.130  0.5909 -0.4064 -0.7046
  322MOL0     C42436   3.800   4.916   7.065 -0.5684 -0.3653  0.1082
  322MOL0     C42437   3.620   4.512   7.760 -0.2264 -0.7967 -0.0649
  322MOL0     C42438   3.611   4.445   7.880 -0.0455  0.5048  0.6526
  322MOL0     H42439   3.467   4.040   8.041 -0.6784  1.7906 -1.0163
  322MOL0     H42440   3.370   3.861   8.180  1.3917 -0.3807 -0.5524
  322MOL0     H42441   3.375   3.715   8.367  0.5842 -0.3700  0.2551
  322MOL0     H42442   3.219   3.759   8.285 -1.9339 -2.1845  1.4632
  322MOL0     H42443   3.258   3.656   8.568 -2.1852 -3.8904  0.4366
  322MOL0     H42444   3.173   3.579   8.429  1.3982  1.1311 -2.3815
  322MOL0     H42445   2.987   3.724   8.440  2.3838 -2.3004 -1.5235
  322MOL0     H42446   3.052   3.845   8.541 -2.5758  0.2542 -2.5193
  322MOL0     H42447   3.092   3.660   8.729  1.0655 -2.5646 -1.3486
  322MOL0     H42448   2.931   3.739   8.713  2.2352  2.8053 -1.1751
  322MOL0     H42449   2.930   3.481   8.748  0.0691 -0.1864  0.8988
  322MOL0     H42450   3.007   3.471   8.589 -4.0676 -0.5042 -0.7725
  322MOL0     H42451   2.824   3.566   8.469  1.5138  0.1451 -0.0057
  322MOL0     H42452   2.735   3.616   8.621 -3.7750 -2.0452 -2.4475
  322MOL0     H42453   2.708   3.391   8.684  1.2631  4.6373  2.3268
  322MOL0     H42454   2.639   3.419   8.519 -0.8288 -0.3282  0.7884
  322MOL0     H42455   2.742   3.202   8.540  0.1003  0.4873 -0.0312
  322MOL0     H42456   2.894   3.277   8.587  0.5572  4.4582  1.8469
  322MOL0     H42457   2.683   3.387   8.267 -0.6295 -1.4379 -0.9465
  322MOL0     H42458   2.742   3.332   8.016  0.7680 -0.2166 -3.3859
  322MOL0     H42459   2.902   3.297   7.975  0.9923  3.9587 -2.6519
  322MOL0     H42460   2.815   3.576   8.090  1.7084 -2.3390  3.5758
  322MOL0     H42461   2.848   3.540   7.918 -4.5021  2.0587  2.5721
  322MOL0     H42462   3.065   3.545   8.141  0.2840  2.7682 -0.0984
  322MOL0     H42463   3.087   3.515   7.967  2.1424  1.9515  0.7404
  322MOL0     H42464   2.983   3.773   8.089  0.0585 -1.2833  0.4080
  322MOL0     H42465   2.970   3.719   7.915 -0.6507 -1.1368 -0.3000
  322MOL0     H42466   3.349   3.697   7.823  0.4457 -0.0956 -1.9513
  322MOL0     H42467   3.444   3.882   7.674  0.4645  3.6627 -0.2604
  322MOL0     H42468   3.649   4.257   7.515 -0.0473  2.1169  1.2794
  322MOL0     H42469   3.694   4.413   7.333 -0.8850  2.3395 -1.7458
  322MOL0     H42470   3.731   4.372   7.003  1.2667 -0.1829  0.3059
  322MOL0     H42471   3.710   4.485   7.145  0.1099  2.8550 -1.1473
  322MOL0     H42472   3.731   4.623   6.946 -1.2589  0.9133 -1.3436
  322MOL0     H42473   3.569   4.621   6.991 -0.5497  0.5699 -0.7239
  322MOL0     H42474   3.529   4.469   6.826  0.4962  0.6595  2.2220
  322MOL0     H42475   3.697   4.419   6.798 -1.5369 -1.6219 -2.8890
  322MOL0     H42476   3.605   4.545   6.609 -0.3145  2.2621 -0.5285
  322MOL0     H42477   3.575   4.686   6.702  0.6409  1.8614 -1.4098
  322MOL0     H42478   3.871   4.578   6.689  1.5508  3.2656  2.2136
  322MOL0     H42479   3.817   4.739   6.719  0.8251  0.1115 -0.5076
  322MOL0     H42480   3.725   4.744   6.474 -0.5916 -1.1782 -0.0556
  322MOL0     H42481   3.793   4.581   6.458  3.2683 -1.3344  0.4288
  322MOL0     H42482   3.947   4.841   6.534  0.2428 -0.7829  1.3152
  322MOL0     H42483   4.014   4.674   6.535 -2.0955 -1.0188 -0.7424
  322MOL0     H42484   3.950   4.828   6.285  1.6094 -0.1597 -1.2142
  322MOL0     H42485   3.967   4.651   6.302 -1.0552 -0.6068  1.6531
  322MOL0     H42486   3.333   4.270   7.143 -1.6536  0.0174  1.4282
  322MOL0     H42487   3.289   4.148   7.353 -0.4682  2.3403  1.5155
  322MOL0     H42488   3.138   4.141   7.833 -0.7756 -0.9304 -0.2333
  322MOL0     H42489   3.051   3.955   7.958 -0.3519 -0.1443 -0.3710
  322MOL0     H42490   3.331   4.131   8.498 -0.3118  4.2528 -1.9276
  322MOL0     H42491   3.412   4.318   8.364 -2.3861  0.8119 -1.4762
  322MOL0     H42492   3.495   4.678   8.084 -0.5612 -1.1053  0.6586
  322MOL0     H42493   3.539   4.819   7.857  0.9116  0.1893 -0.0003
  322MOL0     H42494   3.632   4.929   7.596  0.3407  0.2352  0.2636
  322MOL0     H42495   3.485   4.884   7.663  2.8664  3.1971  2.6501
  322MOL0     H42496   3.493   4.727   7.426 -4.1089  1.0034 -0.7398
  322MOL0     H42497   3.444   4.891   7.430 -0.3786 -1.7487  0.7960
  322MOL0     H42498   3.719   4.776   7.403 -1.2407 -0.4002  2.2451
  322MOL0     H42499   3.691   4.947   7.372 -0.7157  0.9005  4.5590
  322MOL0     H42500   3.608   4.698   7.218 -1.1177  0.6868  2.9183
  322MOL0     H42501   3.515   4.846   7.177 -0.2370 -1.6631 -0.6217
  322MOL0     H42502   3.860   4.969   6.993  1.9988  1.1172  3.1176
  322MOL0     H42503   3.661   4.449   7.682 -1.7124 -2.5587  0.5033
  322MOL0     H42504   3.641   4.341   7.890  1.4867  0.5954 -2.0534
  323MOL0     O42505   8.935   2.903   8.236 -0.3400  0.4366  0.4537
  323MOL0     C42506   9.007   2.990   8.192 -0.4284  0.5222  0.2719
  323MOL0     O42507   8.974   3.076   8.093  0.4930  0.2763  0.2075
  323MOL0     C42508   8.863   3.045   8.015 -0.9452  0.3579  0.0985
  323MOL0     C42509   8.730   3.023   8.058 -0.4006 -0.9140  1.0413
  323MOL0     C42510   8.629   3.011   7.970 -0.0089 -0.2292 -0.1427
  323MOL0     C42511   8.655   3.010   7.832 -0.0680 -0.2971 -0.3639
  323MOL0     O42512   8.542   3.007   7.752  0.3825  0.4313  0.2382
  323MOL0     C42513   8.555   2.965   7.615  0.5504  0.8763  0.3832
  323MOL0     C42514   8.416   2.966   7.550  0.9177  1.0171 -0.8706
  323MOL0     C42515   8.425   2.894   7.415  0.4034  0.2001  0.3671
  323MOL0     C42516   8.470   2.982   7.294 -0.2829  0.6135 -0.3009
  323MOL0     C42517   8.491   2.904   7.163  0.4545 -0.1257  0.4526
  323MOL0     C42518   8.491   3.002   7.047 -0.1345  0.6220  0.2579
  323MOL0     C42519   8.510   2.920   6.913 -0.0768 -0.3785  0.4916
  323MOL0     C42520   8.376   2.880   6.839  0.3900 -0.7026  1.1266
  323MOL0     N42521   8.403   2.824   6.708  1.4034 -0.0749 -0.2915
  323MOL0     C42522   8.405   2.888   6.584  0.1952  0.1971  0.2100
  323MOL0     C42523   8.433   2.786   6.497 -1.0405 -0.1290 -0.2422
  323MOL0     C42524   8.457   2.796   6.347 -1.3688 -0.2838 -0.2903
  323MOL0     C42525   8.364   2.711   6.263 -0.1238  0.2993 -0.5182
  323MOL0     C42526   8.220   2.768   6.251 -0.6658 -0.1023  0.2785
  323MOL0     C42527   8.146   2.709   6.126 -0.5206  0.4480 -0.7745
  323MOL0     O42528   8.139   2.561   6.122 -0.5375 -0.4347  1.0580
  323MOL0     C42529   8.079   2.519   6.013 -0.0488 -0.4665  0.5184
  323MOL0     C42530   8.048   2.593   5.896 -0.8753  0.0879 -0.2840
  323MOL0     C42531   7.980   2.541   5.791  0.6661  0.7559  0.2921
  323MOL0     C42532   7.952   2.399   5.789 -0.0573  0.2547 -0.2447
  323MOL0     C42533   7.876   2.341   5.679 -0.1224  0.1302  0.6646
  323MOL0     O42534   7.817   2.427   5.582 -0.2023 -0.8865 -1.0892
  323MOL0     C42535   7.774   2.360   5.474  0.4146  0.4630  0.3460
  323MOL0     C42536   7.842   2.355   5.352 -0.8619  0.2810  0.0437
  323MOL0     C42537   7.799   2.282   5.243  0.5387  0.1163  0.2947
  323MOL0     C42538   7.680   2.210   5.246  0.0910  0.4106 -0.2841
  323MOL0     O42539   7.623   2.139   5.136 -0.0875 -0.4054 -0.1535
  323MOL0     C42540   7.689   2.131   5.012 -0.0932  0.5461 -1.1196
  323MOL0     C42541   7.677   2.247   4.919 -0.4480 -1.4131  1.2867
  323MOL0     C42542   7.762   2.218   4.793  1.4122  0.3647 -0.2871
  323MOL0     C42543   7.914   2.239   4.810 -0.6740  0.1949 -0.0094
  323MOL0     C42544   7.942   2.387   4.851 -0.7002  0.0798 -0.2624
  323MOL0     C42545   8.098   2.409   4.841  0.6313  0.0436  0.3594
  323MOL0     C42546   8.127   2.553   4.879  0.5318  0.0058  0.1788
  323MOL0     C42547   8.280   2.584   4.892  0.9791 -0.6020  0.2748
  323MOL0    Cl42548   8.305   2.762   4.919 -0.0903  0.1970 -0.2157
  323MOL0     C42549   7.604   2.215   5.365 -0.2470  1.7850 -0.6372
  323MOL0     C42550   7.649   2.290   5.470  0.0121 -0.5778  0.1446
  323MOL0     O42551   7.873   2.224   5.667 -0.2644  0.4187  0.1552
  323MOL0     C42552   8.002   2.317   5.897 -0.2042 -0.2434 -0.5132
  323MOL0     C42553   8.057   2.382   6.016  0.2203 -0.5770  0.2812
  323MOL0     N42554   8.435   2.666   6.571  0.4335 -0.8864 -0.3733
  323MOL0     N42555   8.418   2.694   6.695 -0.3136 -0.5827  0.3224
  323MOL0     C42556   8.787   3.010   7.781 -0.2846 -0.4876 -0.4154
  323MOL0     C42557   8.894   3.030   7.877  0.5998  0.2009 -0.7706
  323MOL0     C42558   9.134   3.025   8.258  0.2452  0.6571 -1.1865
  323MOL0     C42559   9.221   3.128   8.207  0.4622  0.6153 -0.0500
  323MOL0     C42560   9.341   3.142   8.268  0.8368 -0.1596  0.9268
  323MOL0     C42561   9.374   3.073   8.383  0.5716  0.3509 -0.7532
  323MOL0     O42562   9.504   3.094   8.433  0.8146  0.3254 -0.9361
  323MOL0     C42563   9.508   3.090   8.575  0.3177 -0.6669 -0.5067
  323MOL0     C42564   9.652   3.109   8.610 -0.0726 -0.0515 -0.1145
  323MOL0     C42565   9.687   3.036   8.737 -0.2532 -0.2937  0.1101
  323MOL0     C42566   9.839   3.025   8.769 -0.5816  0.3268 -0.0390
  323MOL0     C42567   9.865   3.162   8.816  0.1073  0.8911 -0.1923
  323MOL0     C42568   9.890   3.267   8.862 -0.1960 -1.5321 -0.4841
  323MOL0     C42569   9.293   2.971   8.430 -0.2030  0.4614 -0.5307
  323MOL0     C42570   9.170   2.949   8.377 -1.0248 -0.2393 -0.9451
  323MOL0     H42571   8.701   3.050   8.159 -1.0865 -1.9776  1.1394
  323MOL0     H42572   8.528   3.004   8.006  0.5265  0.0676  1.4747
  323MOL0     H42573   8.586   2.862   7.596  0.3054  0.7245  0.8057
  323MOL0     H42574   8.621   3.038   7.568  1.0161 -0.0056 -0.3643
  323MOL0     H42575   8.384   3.070   7.543  2.3467  1.4879 -0.7274
  323MOL0     H42576   8.349   2.913   7.618  2.5038  1.2162  0.9303
  323MOL0     H42577   8.322   2.869   7.386 -0.1420 -3.0855  4.2126
  323MOL0     H42578   8.483   2.802   7.413  0.9702  0.5621 -1.5154
  323MOL0     H42579   8.395   3.061   7.295  1.5683  2.6075  3.5493
  323MOL0     H42580   8.566   3.025   7.326  0.5301 -2.0008  1.1178
  323MOL0     H42581   8.400   2.846   7.142  1.3164 -0.5085 -2.5845
  323MOL0     H42582   8.581   2.842   7.161  0.5375  0.0115 -0.1544
  323MOL0     H42583   8.583   3.060   7.052  0.5039 -0.0910 -2.0308
  323MOL0     H42584   8.401   3.063   7.030 -1.8187 -1.4283  1.3428
  323MOL0     H42585   8.566   2.977   6.838  0.1294 -0.9636  0.1858
  323MOL0     H42586   8.570   2.829   6.921 -1.0366 -1.6964 -4.1327
  323MOL0     H42587   8.321   2.974   6.829  5.0380  2.1068 -1.1988
  323MOL0     H42588   8.327   2.799   6.896 -0.1370 -0.8502  0.4808
  323MOL0     H42589   8.414   2.994   6.562  2.1085  0.2995  1.2413
  323MOL0     H42590   8.564   2.781   6.334 -0.1417  4.8832  1.4563
  323MOL0     H42591   8.448   2.901   6.315  0.3321  1.7221  4.9212
  323MOL0     H42592   8.365   2.609   6.302 -0.4120  1.0064  1.4705
  323MOL0     H42593   8.405   2.704   6.162 -1.1185  1.7455 -1.0597
  323MOL0     H42594   8.165   2.731   6.338 -1.3169 -2.4650 -1.0399
  323MOL0     H42595   8.215   2.878   6.245 -1.6828 -0.2085 -1.4746
  323MOL0     H42596   8.214   2.734   6.043  0.9875 -0.9963 -0.0392
  323MOL0     H42597   8.046   2.751   6.111 -1.4876 -2.0308 -1.8341
  323MOL0     H42598   8.055   2.699   5.876  0.4681 -0.2387 -1.7559
  323MOL0     H42599   7.946   2.612   5.716 -0.5735  1.1071  1.1616
  323MOL0     H42600   7.934   2.412   5.344 -1.5694  1.6911  1.3495
  323MOL0     H42601   7.848   2.305   5.149 -0.9785  3.2431  0.1365
  323MOL0     H42602   7.661   2.034   4.968 -1.3397 -2.0476  4.5506
  323MOL0     H42603   7.796   2.112   5.030 -0.1989  1.0335  0.0828
  323MOL0     H42604   7.701   2.345   4.960 -0.6250 -1.9998  2.8465
  323MOL0     H42605   7.573   2.254   4.885  0.7027 -1.0124 -2.6067
  323MOL0     H42606   7.726   2.289   4.718  0.3462  0.6759  0.4845
  323MOL0     H42607   7.740   2.114   4.767 -0.8972  0.1689  1.9831
  323MOL0     H42608   7.961   2.174   4.884 -1.7636 -0.8832 -0.2157
  323MOL0     H42609   7.957   2.217   4.713 -2.0823 -0.3303 -0.5420
  323MOL0     H42610   7.905   2.385   4.954 -2.0716 -1.4146 -0.7372
  323MOL0     H42611   7.887   2.464   4.795  4.2289  3.4775 -1.0393
  323MOL0     H42612   8.129   2.399   4.737  1.2236  2.6026  0.2040
  323MOL0     H42613   8.130   2.337   4.917 -0.7626 -1.9563 -0.8557
  323MOL0     H42614   8.089   2.604   4.790 -0.7985 -3.8792 -1.6809
  323MOL0     H42615   8.075   2.582   4.971 -1.5856 -3.2971  0.1754
  323MOL0     H42616   8.333   2.548   4.803  1.2079 -0.0183  0.1708
  323MOL0     H42617   8.313   2.527   4.979  3.0512  0.7096  0.4097
  323MOL0     H42618   7.505   2.172   5.371  0.1781  0.9939  2.2930
  323MOL0     H42619   7.580   2.311   5.551  0.2983 -1.5810  0.6649
  323MOL0     H42620   7.987   2.210   5.886  1.2994 -0.5334  0.0067
  323MOL0     H42621   8.092   2.312   6.092 -0.2169  0.8926  1.9022
  323MOL0     H42622   8.801   3.029   7.676 -0.6643  2.4186 -0.0347
  323MOL0     H42623   8.997   3.049   7.848  1.2120  1.5538  1.9660
  323MOL0     H42624   9.200   3.196   8.125  0.5074  1.0317  0.2796
  323MOL0     H42625   9.407   3.214   8.221  0.8352  0.0597  1.2541
  323MOL0     H42626   9.473   2.991   8.607 -0.3021 -1.6028 -3.7661
  323MOL0     H42627   9.444   3.169   8.616  1.5128 -0.0144  0.1858
  323MOL0     H42628   9.709   3.055   8.533 -1.3031 -1.3988 -0.1214
  323MOL0     H42629   9.667   3.216   8.625 -0.9826 -0.1915  2.0652
  323MOL0     H42630   9.659   2.930   8.734  1.1769 -0.7292  0.8648
  323MOL0     H42631   9.629   3.084   8.816  1.6447  1.7651  0.3690
  323MOL0     H42632   9.852   2.961   8.857  1.0326  2.0911  1.1107
  323MOL0     H42633   9.901   2.987   8.687 -1.2574 -1.1547  0.1179
  323MOL0     H42634   9.912   3.368   8.889 -2.3231 -0.7269 -1.5057
  323MOL0     H42635   9.320   2.913   8.518 -0.5411  0.7639 -0.2250
  323MOL0     H42636   9.122   2.859   8.413  0.5207  0.4076  3.3947
  324MOL0     O42637   1.927   5.326  10.382 -0.0145  0.5734 -0.6027
  324MOL0     C42638   1.845   5.318  10.296  0.5180  0.1765  0.1083
  324MOL0     O42639   1.719   5.375  10.301 -0.0825  0.0520  0.5703
  324MOL0     C42640   1.684   5.466  10.399  0.6743  0.5578 -0.2421
  324MOL0     C42641   1.669   5.427  10.540  0.2492 -0.0106  1.4176
  324MOL0     C42642   1.636   5.518  10.645  0.2580  0.7416 -0.8786
  324MOL0     C42643   1.615   5.653  10.614 -0.5635  0.1838 -0.6898
  324MOL0     O42644   1.565   5.753  10.693  0.0630 -0.6523  0.5301
  324MOL0     C42645   1.536   5.715  10.828 -0.1952  0.7731 -0.7623
  324MOL0     C42646   1.472   5.836  10.892 -0.2252 -0.3647  0.1246
  324MOL0     C42647   1.332   5.864  10.841 -0.5426 -0.2029  0.5404
  324MOL0     C42648   1.232   5.753  10.883 -0.2580 -0.1368  0.0439
  324MOL0     C42649   1.087   5.804  10.863  0.2173  0.3306 -1.6854
  324MOL0     C42650   0.998   5.709  10.948 -0.1201  0.5108  0.3811
  324MOL0     C42651   1.011   5.561  10.906  0.8558  0.0684 -0.4520
  324MOL0     C42652   0.896   5.472  10.965 -0.2909 -0.2051 -0.7891
  324MOL0     N42653   0.922   5.451  11.114 -0.0462 -0.4769  0.1761
  324MOL0     C42654   0.986   5.343  11.169  0.1835  0.2374  0.1253
  324MOL0     C42655   0.959   5.348  11.299 -0.0151 -0.0505  0.4396
  324MOL0     C42656   0.993   5.256  11.417 -0.7151  0.3835 -0.0880
  324MOL0     C42657   1.095   5.151  11.384 -0.5581  0.7087  0.5387
  324MOL0     C42658   1.245   5.213  11.362 -0.4804  0.1428  0.2252
  324MOL0     C42659   1.352   5.097  11.320  0.1467  0.1764  1.0609
  324MOL0     O42660   1.290   5.036  11.197  0.1228 -0.1238  0.1794
  324MOL0     C42661   1.325   4.903  11.174 -0.4621 -0.9860  0.1585
  324MOL0     C42662   1.434   4.833  11.225 -0.5982 -0.1567  0.4368
  324MOL0     C42663   1.456   4.699  11.202  0.1714  0.1349 -0.2329
  324MOL0     C42664   1.365   4.622  11.137 -1.6778  0.6091  0.8190
  324MOL0     C42665   1.391   4.470  11.134  0.3873  0.0004  0.0586
  324MOL0     O42666   1.295   4.397  11.081  0.5264 -0.0342 -0.3222
  324MOL0     C42667   1.311   4.262  11.068  0.8483 -0.4926  0.3378
  324MOL0     C42668   1.204   4.182  11.106  0.7216  0.4353 -0.3748
  324MOL0     C42669   1.213   4.037  11.098  0.8392 -0.1977  0.3346
  324MOL0     C42670   1.329   3.984  11.033  0.3195  0.4178  0.2173
  324MOL0     O42671   1.352   3.842  11.040 -0.0081 -0.3805  0.0558
  324MOL0     C42672   1.263   3.761  10.953 -0.0287 -0.1017 -0.1410
  324MOL0     C42673   1.342   3.642  10.894 -0.4363  0.3891  0.1797
  324MOL0     C42674   1.276   3.565  10.781  0.0724 -0.0998 -0.2860
  324MOL0     C42675   1.297   3.413  10.789 -0.0206  0.8883  0.8516
  324MOL0     C42676   1.218   3.351  10.671  0.1938 -0.3035 -0.6060
  324MOL0     C42677   1.231   3.198  10.675  0.0342 -0.3252 -0.0711
  324MOL0     C42678   1.185   3.117  10.551  0.3810 -0.1065  0.9966
  324MOL0     C42679   1.214   2.969  10.575  0.9548  0.4159 -0.4820
  324MOL0    Cl42680   1.120   2.864  10.465 -0.6760  0.4103 -0.5104
  324MOL0     C42681   1.429   4.065  10.990  0.4343 -0.0892  0.5754
  324MOL0     C42682   1.417   4.202  11.001 -0.7727 -0.1319 -0.0053
  324MOL0     O42683   1.492   4.432  11.188 -0.1005  0.2494 -0.6547
  324MOL0     C42684   1.256   4.684  11.085 -0.7125  0.7158 -0.2623
  324MOL0     C42685   1.234   4.819  11.108  0.6607  1.1236 -0.0170
  324MOL0     N42686   0.878   5.453  11.317  0.3321  0.3467 -0.0598
  324MOL0     N42687   0.857   5.520  11.204  0.3435  0.7852  0.1024
  324MOL0     C42688   1.645   5.692  10.481 -0.3156  0.4761 -0.4548
  324MOL0     C42689   1.689   5.600  10.377 -0.5003  0.0977 -0.0656
  324MOL0     C42690   1.866   5.250  10.171 -0.3205  0.0618  0.7369
  324MOL0     C42691   1.998   5.201  10.136 -1.0234 -0.3392  0.4678
  324MOL0     C42692   2.028   5.153  10.004  0.3492 -1.9814  0.3200
  324MOL0     C42693   1.932   5.157   9.900 -0.1129 -0.1309  0.1639
  324MOL0     O42694   1.968   5.098   9.782 -0.4923  0.4921  0.2050
  324MOL0     C42695   1.972   5.193   9.674  0.9356 -0.1711 -1.6062
  324MOL0     C42696   1.968   5.124   9.547  0.3508  1.1968  0.4357
  324MOL0     C42697   1.821   5.094   9.496 -0.4080  1.1182 -0.5842
  324MOL0     C42698   1.784   5.188   9.384 -0.1737 -0.0334  0.2447
  324MOL0     C42699   1.649   5.147   9.348  0.3714 -0.4063  0.4606
  324MOL0     C42700   1.534   5.108   9.311 -0.4891  0.0996 -0.2099
  324MOL0     C42701   1.805   5.206   9.933 -0.4605 -0.3492 -0.0735
  324MOL0     C42702   1.771   5.250  10.059 -0.2377 -0.2707 -0.2223
  324MOL0     H42703   1.683   5.321  10.563  0.9762  0.0315  1.1780
  324MOL0     H42704   1.611   5.496  10.748  0.4386  1.4701 -0.6803
  324MOL0     H42705   1.626   5.694  10.887 -0.8042  3.6632  1.4548
  324MOL0     H42706   1.478   5.624  10.846  3.0855 -0.8752  3.1547
  324MOL0     H42707   1.538   5.923  10.879 -0.7286  0.2247  1.2849
  324MOL0     H42708   1.457   5.829  11.001  3.3627 -0.5971  0.7392
  324MOL0     H42709   1.330   5.861  10.731 -0.5615 -1.5212  0.5697
  324MOL0     H42710   1.298   5.962  10.877 -2.7909  0.0550 -1.9766
  324MOL0     H42711   1.259   5.652  10.852 -1.4198 -0.9718  1.6045
  324MOL0     H42712   1.247   5.749  10.992  0.6083  0.0331 -0.0587
  324MOL0     H42713   1.062   5.800  10.757 -1.3505  1.7356 -1.4144
  324MOL0     H42714   1.069   5.909  10.888  1.3813  0.1779 -0.0060
  324MOL0     H42715   0.891   5.729  10.942 -0.9070 -2.9425  0.5988
  324MOL0     H42716   1.020   5.722  11.055 -5.2302 -1.2448  1.9443
  324MOL0     H42717   1.028   5.534  10.801  0.0751 -1.6575 -0.1606
  324MOL0     H42718   1.102   5.527  10.956 -0.1163  0.8879  2.0151
  324MOL0     H42719   0.882   5.376  10.914  0.2631  0.0979 -1.5390
  324MOL0     H42720   0.798   5.521  10.958 -0.0489  1.1917  3.1269
  324MOL0     H42721   1.027   5.262  11.110 -2.9666 -1.4042 -0.0479
  324MOL0     H42722   0.906   5.211  11.465  1.9988 -3.2559  1.8861
  324MOL0     H42723   1.044   5.325  11.485 -1.3346  0.4474  0.3153
  324MOL0     H42724   1.056   5.101  11.295 -1.1295  2.8740 -0.4714
  324MOL0     H42725   1.100   5.079  11.467  0.0765  1.7936  1.4630
  324MOL0     H42726   1.245   5.286  11.281 -0.0858 -3.2687 -3.1522
  324MOL0     H42727   1.286   5.258  11.453  1.9136 -0.4054 -0.4920
  324MOL0     H42728   1.371   5.022  11.397 -2.5567 -2.1189 -0.2795
  324MOL0     H42729   1.449   5.142  11.300  0.4533  0.1436  2.3781
  324MOL0     H42730   1.519   4.870  11.281 -0.9275  1.5775 -0.1667
  324MOL0     H42731   1.538   4.650  11.251  2.6060  2.9644 -1.1688
  324MOL0     H42732   1.121   4.234  11.154  0.3497 -0.4284 -0.0671
  324MOL0     H42733   1.134   3.972  11.131  2.5057 -2.8986 -0.6659
  324MOL0     H42734   1.223   3.824  10.873  0.5404  0.4256 -0.0168
  324MOL0     H42735   1.182   3.724  11.016  1.5586  0.9856  2.7426
  324MOL0     H42736   1.357   3.573  10.978 -0.5551 -0.3665 -0.4059
  324MOL0     H42737   1.433   3.679  10.845 -1.3065 -1.8440 -3.4853
  324MOL0     H42738   1.302   3.609  10.685  1.9998 -1.0843 -0.2529
  324MOL0     H42739   1.167   3.578  10.788 -0.1928 -1.4082 -1.6237
  324MOL0     H42740   1.404   3.390  10.782 -0.7000 -3.0485  0.9538
  324MOL0     H42741   1.253   3.357  10.873 -0.3140 -2.5492 -1.3940
  324MOL0     H42742   1.255   3.394  10.578 -4.6719  2.7932 -1.4639
  324MOL0     H42743   1.111   3.374  10.672  0.6890  2.1983 -0.5568
  324MOL0     H42744   1.175   3.170  10.765  1.4182  3.2486  2.1367
  324MOL0     H42745   1.337   3.171  10.687 -0.2090 -2.2557 -1.6578
  324MOL0     H42746   1.078   3.139  10.542  1.0119  3.0036 -0.3385
  324MOL0     H42747   1.234   3.148  10.458  1.5531 -3.3144  0.4105
  324MOL0     H42748   1.168   2.951  10.673  0.0199 -1.0787 -1.1466
  324MOL0     H42749   1.321   2.949  10.574  0.9984  0.6124 -1.8262
  324MOL0     H42750   1.515   4.019  10.940 -1.1656 -0.4592 -2.0531
  324MOL0     H42751   1.497   4.265  10.965 -0.2030 -1.6270 -1.5098
  324MOL0     H42752   1.175   4.618  11.058 -2.5873  2.9045 -0.2881
  324MOL0     H42753   1.142   4.866  11.076  1.4074  1.5543 -1.6237
  324MOL0     H42754   1.630   5.797  10.457 -0.7977  1.3567  3.1023
  324MOL0     H42755   1.708   5.636  10.276  1.8235 -0.0360  0.2635
  324MOL0     H42756   2.077   5.205  10.210  0.5764 -0.3754 -1.1773
  324MOL0     H42757   2.129   5.122   9.976  0.7964 -1.1345  0.9579
  324MOL0     H42758   2.073   5.234   9.669  2.1990 -3.0538 -2.2124
  324MOL0     H42759   1.899   5.274   9.680  3.0193  1.6978  0.6024
  324MOL0     H42760   2.024   5.180   9.472  1.0370 -1.7345 -1.3845
  324MOL0     H42761   2.024   5.031   9.554 -1.3806  0.0327 -0.4152
  324MOL0     H42762   1.751   5.122   9.575  2.2287  5.3374  0.5922
  324MOL0     H42763   1.806   4.990   9.468  2.0961  0.0394  1.7668
  324MOL0     H42764   1.790   5.289   9.427 -2.7123  0.2163  0.1313
  324MOL0     H42765   1.850   5.170   9.299  1.2594 -4.8683  2.0364
  324MOL0     H42766   1.430   5.094   9.291 -0.4404 -3.0944  1.2306
  324MOL0     H42767   1.730   5.204   9.854 -1.6441 -2.2465  1.0264
  324MOL0     H42768   1.664   5.256  10.077 -0.2368 -0.6164 -0.1027
  325MOL0     O42769   2.639   5.131   9.420 -0.4525  0.2619  0.1695
  325MOL0     C42770   2.622   5.244   9.463  0.0904 -0.1553 -0.4161
  325MOL0     O42771   2.553   5.277   9.584 -0.2378 -0.0340 -0.0029
  325MOL0     C42772   2.515   5.169   9.662 -1.0318  0.5563  0.3952
  325MOL0     C42773   2.596   5.078   9.738 -0.0713 -0.1524 -0.2145
  325MOL0     C42774   2.544   4.968   9.813 -0.5748  0.6404 -0.0525
  325MOL0     C42775   2.403   4.964   9.834  0.3894  0.8186 -0.2728
  325MOL0     O42776   2.329   4.878   9.916 -0.0994  0.4789 -0.1098
  325MOL0     C42777   2.359   4.872  10.054 -0.1520 -0.3741 -0.0164
  325MOL0     C42778   2.239   4.784  10.103 -0.3356  0.1458 -0.0964
  325MOL0     C42779   2.246   4.752  10.253  0.9064 -0.8534  0.1375
  325MOL0     C42780   2.235   4.875  10.347 -0.1694 -0.8065  0.1964
  325MOL0     C42781   2.262   4.839  10.495 -0.2640 -0.0520  0.4250
  325MOL0     C42782   2.192   4.937  10.592 -0.3842  0.3144 -0.2678
  325MOL0     C42783   2.239   5.086  10.576  0.0066 -0.3303 -0.2148
  325MOL0     C42784   2.234   5.168  10.716  0.3247 -0.0466  1.1329
  325MOL0     N42785   2.274   5.311  10.709  0.2947  0.8923  0.8790
  325MOL0     C42786   2.208   5.405  10.636 -0.0678  0.0652  0.3446
  325MOL0     C42787   2.279   5.525  10.645  0.0222 -0.1163 -0.2202
  325MOL0     C42788   2.253   5.664  10.594  0.4498  0.2850  0.3961
  325MOL0     C42789   2.152   5.678  10.483 -0.1784  0.7242  0.9634
  325MOL0     C42790   2.218   5.616  10.355  0.1294  0.0519  0.6122
  325MOL0     C42791   2.106   5.607  10.244 -1.1075 -0.3222 -0.3577
  325MOL0     O42792   2.166   5.595  10.116 -0.0744 -1.2915 -0.2583
  325MOL0     C42793   2.086   5.580   9.999  0.7077 -0.2072 -0.7801
  325MOL0     C42794   1.948   5.551  10.012  0.3536  0.0758  0.0612
  325MOL0     C42795   1.869   5.536   9.894  0.5341 -0.6028 -0.3514
  325MOL0     C42796   1.927   5.546   9.770 -1.3143  0.7543  0.5900
  325MOL0     C42797   1.847   5.530   9.646 -1.2205 -0.2588 -0.2379
  325MOL0     O42798   1.711   5.547   9.665  0.3536  0.0802  0.4139
  325MOL0     C42799   1.616   5.518   9.564  0.0370 -0.5585  1.1379
  325MOL0     C42800   1.539   5.402   9.567 -0.4992  0.6354  0.2576
  325MOL0     C42801   1.418   5.396   9.488 -0.1747  0.8377 -0.1815
  325MOL0     C42802   1.392   5.479   9.375  0.4520  0.0634  0.2961
  325MOL0     O42803   1.289   5.454   9.296  1.8424  0.3073  0.7213
  325MOL0     C42804   1.276   5.523   9.162 -0.1033  0.4701  0.2566
  325MOL0     C42805   1.169   5.430   9.082  0.0105 -0.2847 -0.0502
  325MOL0     C42806   1.029   5.485   9.114  0.5667  0.1877  0.4813
  325MOL0     C42807   0.931   5.360   9.103  0.0728 -0.7292  0.2102
  325MOL0     C42808   0.799   5.373   9.184  0.6093 -0.8278 -0.2828
  325MOL0     C42809   0.737   5.230   9.198 -0.2316 -0.9468 -0.1799
  325MOL0     C42810   0.611   5.243   9.305 -1.1509  0.3635 -0.2425
  325MOL0     C42811   0.515   5.116   9.291  0.0916 -0.1648 -0.9520
  325MOL0    Cl42812   0.363   5.143   9.375  0.5671  0.1071  0.0891
  325MOL0     C42813   1.474   5.588   9.370  0.8165  0.4395 -0.0244
  325MOL0     C42814   1.585   5.607   9.458 -0.1255  0.1381  0.2740
  325MOL0     O42815   1.908   5.545   9.539 -0.6807 -0.2758 -0.0368
  325MOL0     C42816   2.064   5.561   9.755 -0.2265 -0.1790 -0.1053
  325MOL0     C42817   2.136   5.587   9.873  0.3473  0.2464 -0.8609
  325MOL0     N42818   2.394   5.490  10.716 -0.0105 -1.5295 -0.3577
  325MOL0     N42819   2.379   5.368  10.758 -0.3906 -0.1997  0.1416
  325MOL0     C42820   2.328   5.058   9.764 -0.1516  0.3837 -0.4367
  325MOL0     C42821   2.384   5.142   9.664 -0.1299 -0.8489 -0.0030
  325MOL0     C42822   2.669   5.352   9.369 -1.1544 -0.7940  0.0371
  325MOL0     C42823   2.651   5.492   9.406 -0.3009 -0.5925 -0.0636
  325MOL0     C42824   2.711   5.595   9.330 -0.0821 -0.4593  0.5224
  325MOL0     C42825   2.791   5.575   9.220  1.1797  0.1468 -0.3638
  325MOL0     O42826   2.838   5.685   9.162  0.2355 -0.3682 -0.7203
  325MOL0     C42827   2.933   5.684   9.051  0.7322  1.2295 -0.4125
  325MOL0     C42828   3.077   5.709   9.093  0.1062 -0.5363  0.7553
  325MOL0     C42829   3.175   5.752   8.980 -0.4781 -0.3384 -0.1043
  325MOL0     C42830   3.166   5.665   8.857 -0.0254 -0.3199 -0.4893
  325MOL0     C42831   3.194   5.528   8.889 -0.7848 -0.1769  0.1173
  325MOL0     C42832   3.206   5.417   8.933 -0.4802  0.2638 -0.3129
  325MOL0     C42833   2.812   5.440   9.186  0.3507 -0.3516 -0.5024
  325MOL0     C42834   2.759   5.337   9.267 -0.0291 -0.5217  0.3584
  325MOL0     H42835   2.701   5.093   9.713 -0.6251  2.8807 -1.1200
  325MOL0     H42836   2.607   4.894   9.861  0.3811  2.5920  1.8753
  325MOL0     H42837   2.362   4.969  10.104  2.9688 -0.4147  0.1146
  325MOL0     H42838   2.450   4.813  10.074 -0.4341 -1.5253 -1.8193
  325MOL0     H42839   2.231   4.696  10.039  0.2941  1.1748 -1.6641
  325MOL0     H42840   2.144   4.836  10.082 -2.6076 -3.6461 -0.1434
  325MOL0     H42841   2.344   4.702  10.254  0.4041 -2.4250 -4.2714
  325MOL0     H42842   2.175   4.678  10.290 -0.1484  0.5586  0.9880
  325MOL0     H42843   2.299   4.952  10.303 -1.1371  0.2511  0.5884
  325MOL0     H42844   2.129   4.900  10.350  0.3756  1.8184  0.4088
  325MOL0     H42845   2.369   4.820  10.510 -0.4525 -2.7583 -1.0005
  325MOL0     H42846   2.231   4.737  10.517  0.8616 -0.4045  0.4112
  325MOL0     H42847   2.208   4.901  10.694  0.8684  1.6508  0.0374
  325MOL0     H42848   2.086   4.944  10.567 -0.4318  0.4530 -0.0267
  325MOL0     H42849   2.343   5.083  10.543  0.7306  3.7601  1.0743
  325MOL0     H42850   2.173   5.145  10.512 -2.9338  0.5217  3.2126
  325MOL0     H42851   2.294   5.112  10.789 -0.0430 -2.8790 -0.5574
  325MOL0     H42852   2.131   5.165  10.751 -0.6981  0.6045 -1.5263
  325MOL0     H42853   2.117   5.394  10.577  0.5330  4.3066 -1.7304
  325MOL0     H42854   2.347   5.693  10.546 -1.3155  2.4886 -1.9735
  325MOL0     H42855   2.232   5.738  10.673 -3.7274  0.0072 -0.2445
  325MOL0     H42856   2.138   5.784  10.462 -2.6847  0.2920 -0.0155
  325MOL0     H42857   2.064   5.615  10.502 -0.3770  1.8562  4.4289
  325MOL0     H42858   2.285   5.683  10.301 -1.1877 -0.8719 -2.3550
  325MOL0     H42859   2.255   5.515  10.377 -1.4353 -0.8134 -0.5712
  325MOL0     H42860   2.051   5.702  10.250  1.4100  1.1686  0.6195
  325MOL0     H42861   2.039   5.525  10.272 -0.9681  0.1502  1.4922
  325MOL0     H42862   1.899   5.525  10.106 -0.6684  0.7117 -0.2752
  325MOL0     H42863   1.763   5.513   9.899 -0.6535  3.6010 -1.7332
  325MOL0     H42864   1.554   5.322   9.638 -2.4832  1.1815  1.3745
  325MOL0     H42865   1.360   5.309   9.515  2.9661 -0.8935  1.6468
  325MOL0     H42866   1.367   5.519   9.102  1.0718 -0.6598  2.0080
  325MOL0     H42867   1.242   5.626   9.177 -0.4145 -0.1171  5.1554
  325MOL0     H42868   1.181   5.322   9.094  3.3448 -0.1589 -1.1426
  325MOL0     H42869   1.186   5.432   8.974 -0.6437 -0.6439 -0.1651
  325MOL0     H42870   1.016   5.567   9.042  1.7280  0.0975  0.1548
  325MOL0     H42871   1.047   5.519   9.217  2.5202 -0.2210  0.3035
  325MOL0     H42872   0.904   5.337   9.000 -2.2631 -0.3583  0.6665
  325MOL0     H42873   0.996   5.282   9.143  0.1385  0.2129  2.0884
  325MOL0     H42874   0.730   5.448   9.145  1.6122  0.6862  0.7664
  325MOL0     H42875   0.814   5.412   9.285 -2.6513  2.3253 -0.8038
  325MOL0     H42876   0.813   5.166   9.245 -0.0302 -1.8595 -1.6669
  325MOL0     H42877   0.695   5.196   9.103 -3.2910  0.1926  0.6488
  325MOL0     H42878   0.650   5.243   9.407 -4.4002 -1.1662  1.1494
  325MOL0     H42879   0.540   5.325   9.290 -1.3098  0.5400  1.3018
  325MOL0     H42880   0.560   5.023   9.328 -1.2023 -1.7853 -3.1704
  325MOL0     H42881   0.487   5.084   9.190  0.8232  1.9452 -1.8809
  325MOL0     H42882   1.439   5.671   9.310 -0.2198  0.0592  0.0466
  325MOL0     H42883   1.639   5.699   9.475 -0.2209  0.8133 -2.6156
  325MOL0     H42884   2.124   5.555   9.665 -0.4917 -0.3620 -0.2717
  325MOL0     H42885   2.239   5.614   9.855  0.6253 -2.2020 -3.7647
  325MOL0     H42886   2.221   5.066   9.783 -0.7643 -1.4197 -2.5693
  325MOL0     H42887   2.324   5.206   9.600  0.7475 -0.7339 -0.7349
  325MOL0     H42888   2.592   5.524   9.492 -3.1939 -2.7374 -1.0829
  325MOL0     H42889   2.699   5.699   9.359 -2.1270 -1.1024  2.3089
  325MOL0     H42890   2.908   5.764   8.981  0.1710  4.3477  3.0118
  325MOL0     H42891   2.912   5.594   8.993 -0.1465 -0.6882  2.6040
  325MOL0     H42892   3.061   5.788   9.167  1.5984 -0.9935  1.6031
  325MOL0     H42893   3.121   5.626   9.149  2.6077  2.2292  3.3184
  325MOL0     H42894   3.276   5.765   9.019 -1.3031 -0.2502  2.1210
  325MOL0     H42895   3.148   5.856   8.957  3.1466  0.7778  0.0071
  325MOL0     H42896   3.066   5.686   8.818 -1.1508 -1.2154  1.7900
  325MOL0     H42897   3.243   5.707   8.791 -1.0576  2.1804 -0.2421
  325MOL0     H42898   3.218   5.318   8.974 -0.0160 -0.1067 -1.3070
  325MOL0     H42899   2.873   5.414   9.100 -0.2890  0.4282 -1.2100
  325MOL0     H42900   2.784   5.237   9.235 -0.4115 -0.0791 -1.4146
  326MOL0     O42901   5.526  11.405   5.022 -0.8133  0.3465  0.5116
  326MOL0     C42902   5.635  11.362   5.069 -0.2030  0.1052  0.4094
  326MOL0     O42903   5.711  11.418   5.166  0.1586 -0.0549 -0.3606
  326MOL0     C42904   5.683  11.542   5.222  0.7492 -0.7168  0.4802
  326MOL0     C42905   5.653  11.656   5.152  0.8398 -0.7430  0.1840
  326MOL0     C42906   5.641  11.789   5.213  0.0516  0.3718  0.2965
  326MOL0     C42907   5.633  11.797   5.348 -0.4169  0.6935 -0.0866
  326MOL0     O42908   5.587  11.907   5.415 -0.1028  0.3304 -0.0429
  326MOL0     C42909   5.662  11.950   5.521 -0.1425 -0.2646 -0.5345
  326MOL0     C42910   5.765  12.050   5.480 -0.6056 -0.0058  0.4372
  326MOL0     C42911   5.827  12.117   5.602  0.2235  0.7229 -0.6801
  326MOL0     C42912   5.944  12.204   5.562 -0.2120  0.2934 -1.4434
  326MOL0     C42913   5.969  12.305   5.671 -0.7132  0.2081 -0.5475
  326MOL0     C42914   6.061  12.239   5.780 -0.3513 -0.3363 -0.2448
  326MOL0     C42915   6.040  12.315   5.914  0.1779 -0.0499  0.4921
  326MOL0     C42916   6.043  12.467   5.892 -0.0183  1.2973 -0.3803
  326MOL0     N42917   5.907  12.530   5.902 -0.0075 -0.3997  0.1105
  326MOL0     C42918   5.862  12.624   5.810 -0.4850  0.9562  0.3819
  326MOL0     C42919   5.756  12.678   5.884 -1.0987  0.1147 -0.2090
  326MOL0     C42920   5.667  12.786   5.820  0.2404  0.7003  0.2450
  326MOL0     C42921   5.533  12.724   5.778  1.4322  0.4365 -0.1527
  326MOL0     C42922   5.452  12.796   5.671  0.6874  0.1208  0.0702
  326MOL0     C42923   5.384  12.918   5.737  0.7065  0.3593  0.8637
  326MOL0     O42924   5.278  12.866   5.823  0.4379 -0.7854 -0.0162
  326MOL0     C42925   5.265  12.924   5.952  0.1129  0.3000  1.5447
  326MOL0     C42926   5.148  12.885   6.017 -0.2763  0.4411  0.3580
  326MOL0     C42927   5.113  12.945   6.137 -0.0686  0.0653 -0.6265
  326MOL0     C42928   5.192  13.048   6.200  0.0543  0.6892 -0.0597
  326MOL0     C42929   5.166  13.110   6.331 -0.4723  0.5851 -0.8530
  326MOL0     O42930   5.096  13.029   6.422  0.7495 -0.0697  0.5269
  326MOL0     C42931   5.060  13.098   6.538  0.3409 -0.1964  0.2818
  326MOL0     C42932   5.149  13.099   6.646  0.3211 -0.3365  0.5280
  326MOL0     C42933   5.104  13.136   6.769 -0.4500  0.1713  0.2327
  326MOL0     C42934   4.968  13.160   6.796 -0.9067  0.1171 -1.0996
  326MOL0     O42935   4.937  13.191   6.926  0.3806  0.2365  0.1149
  326MOL0     C42936   4.814  13.151   6.988  0.0772 -0.3856  0.2700
  326MOL0     C42937   4.810  13.009   7.048 -0.4785  0.1790  0.0260
  326MOL0     C42938   4.750  12.897   6.949  0.5403  1.0658 -0.5452
  326MOL0     C42939   4.850  12.835   6.858 -0.4052 -0.1952  0.8616
  326MOL0     C42940   4.783  12.733   6.777  0.0339  1.0976  0.5971
  326MOL0     C42941   4.883  12.680   6.665 -0.2832  0.3722  0.4725
  326MOL0     C42942   4.808  12.564   6.585  0.1768 -0.6804 -0.4254
  326MOL0     C42943   4.893  12.530   6.466 -0.5830  0.8507  0.4923
  326MOL0    Cl42944   4.876  12.664   6.346  0.6035  0.1833 -0.0123
  326MOL0     C42945   4.876  13.166   6.689  0.1276  0.6975 -0.2389
  326MOL0     C42946   4.931  13.140   6.555  0.7718  0.4568 -0.4730
  326MOL0     O42947   5.191  13.223   6.345  0.1646  0.2411  0.4927
  326MOL0     C42948   5.315  13.078   6.139 -0.0745 -0.3372  0.1882
  326MOL0     C42949   5.349  13.017   6.014  0.0950 -0.7034 -0.0868
  326MOL0     N42950   5.749  12.618   6.005  0.1975 -0.1819 -0.6621
  326MOL0     N42951   5.831  12.514   6.008  0.8933 -0.4645 -0.0519
  326MOL0     C42952   5.648  11.668   5.426 -0.1906 -0.7143  0.3900
  326MOL0     C42953   5.688  11.549   5.361 -1.0181 -0.3869 -0.2165
  326MOL0     C42954   5.679  11.232   5.021  0.0350 -1.1668 -0.2566
  326MOL0     C42955   5.819  11.202   5.017 -0.2169 -0.7121  0.9314
  326MOL0     C42956   5.860  11.081   4.960  0.0300  1.2466 -0.0518
  326MOL0     C42957   5.767  10.983   4.898  0.1437 -0.7197 -0.5914
  326MOL0     O42958   5.827  10.875   4.849 -0.2369  0.8145  0.1543
  326MOL0     C42959   5.760  10.787   4.755 -0.7122  0.0660  0.5758
  326MOL0     C42960   5.855  10.675   4.717 -0.1240 -0.3085 -0.4086
  326MOL0     C42961   5.979  10.724   4.644  0.0723 -0.6394  1.0084
  326MOL0     C42962   6.073  10.603   4.615 -0.0872  0.0060 -0.5305
  326MOL0     C42963   6.166  10.587   4.736  0.9122 -2.0713 -0.4250
  326MOL0     C42964   6.237  10.569   4.838  1.0355 -0.3713  0.6388
  326MOL0     C42965   5.629  11.013   4.909  0.3176 -0.7270 -0.4538
  326MOL0     C42966   5.583  11.138   4.974 -0.5226  0.3177 -0.5390
  326MOL0     H42967   5.657  11.651   5.043 -2.5064 -3.5189  0.0099
  326MOL0     H42968   5.625  11.887   5.167  1.4467  0.4470 -0.1024
  326MOL0     H42969   5.712  11.871   5.578 -1.6673  0.1676  1.5266
  326MOL0     H42970   5.588  11.997   5.586 -1.0718  0.3273 -1.9716
  326MOL0     H42971   5.730  12.124   5.407 -2.0128 -0.1044  0.9736
  326MOL0     H42972   5.845  11.997   5.428 -0.9770 -2.4218  2.1737
  326MOL0     H42973   5.866  12.042   5.672 -0.5518 -1.3345 -2.3256
  326MOL0     H42974   5.744  12.169   5.652  0.1178 -1.0653  1.1443
  326MOL0     H42975   6.032  12.143   5.536  1.4670  1.1996  1.6278
  326MOL0     H42976   5.929  12.261   5.470  1.8536 -1.2559 -2.8323
  326MOL0     H42977   5.877  12.350   5.709  1.4998  3.1944  1.6963
  326MOL0     H42978   6.030  12.383   5.625  0.1434 -0.6282 -0.8586
  326MOL0     H42979   6.168  12.251   5.759 -0.3881  1.6919  0.4959
  326MOL0     H42980   6.037  12.134   5.797  1.2217 -0.6205  0.4310
  326MOL0     H42981   5.942  12.285   5.951 -0.5573 -0.0794 -1.3765
  326MOL0     H42982   6.120  12.289   5.984  0.0203 -1.0630  0.3074
  326MOL0     H42983   6.098  12.496   5.802 -0.3189 -1.0741 -1.3989
  326MOL0     H42984   6.095  12.512   5.977  2.2388  0.0882 -1.0391
  326MOL0     H42985   5.892  12.641   5.707  0.1816  2.2355  0.7583
  326MOL0     H42986   5.722  12.833   5.738 -0.2379 -1.0579 -1.1367
  326MOL0     H42987   5.657  12.870   5.889  1.0798  1.1789 -0.1947
  326MOL0     H42988   5.461  12.698   5.856 -0.3754  0.5061 -1.7212
  326MOL0     H42989   5.551  12.624   5.738  0.3477  1.7215 -4.3545
  326MOL0     H42990   5.509  12.822   5.581 -1.3735 -1.5798 -1.8611
  326MOL0     H42991   5.372  12.725   5.647 -0.1067  1.3751 -1.2374
  326MOL0     H42992   5.344  12.982   5.658 -2.1712 -1.4905  0.6827
  326MOL0     H42993   5.456  12.978   5.793 -1.0880  1.6464  1.9065
  326MOL0     H42994   5.080  12.807   5.984 -0.3841 -0.2767  2.2173
  326MOL0     H42995   5.026  12.900   6.184 -0.2717 -3.2778 -3.8255
  326MOL0     H42996   5.252  13.066   6.637  0.3950  0.0484 -0.1152
  326MOL0     H42997   5.179  13.155   6.844  1.4968 -2.1392 -0.9934
  326MOL0     H42998   4.723  13.165   6.928  0.6613  1.2821 -0.2669
  326MOL0     H42999   4.795  13.227   7.064 -2.7254 -0.3708 -0.3367
  326MOL0     H43000   4.763  13.004   7.147 -0.2563  3.3858  0.3871
  326MOL0     H43001   4.915  12.983   7.066 -1.5857 -2.5860  3.7748
  326MOL0     H43002   4.668  12.945   6.895  0.3271  0.3282 -0.8857
  326MOL0     H43003   4.707  12.818   7.011  0.6929 -1.4555 -3.4374
  326MOL0     H43004   4.868  12.925   6.799 -3.6852  0.6861  1.0386
  326MOL0     H43005   4.939  12.791   6.904  1.0054  0.9491 -0.6619
  326MOL0     H43006   4.700  12.785   6.729 -0.5976 -0.9998 -0.7385
  326MOL0     H43007   4.756  12.642   6.832  2.2282 -1.9302 -2.8168
  326MOL0     H43008   4.982  12.643   6.693  0.2566  1.6093  0.2639
  326MOL0     H43009   4.894  12.765   6.598 -3.7120 -0.6775 -1.6494
  326MOL0     H43010   4.793  12.476   6.649  0.1533 -1.8623 -1.9764
  326MOL0     H43011   4.702  12.579   6.560 -0.0687  1.8104  1.7286
  326MOL0     H43012   4.858  12.440   6.415 -0.5260 -0.9554  3.4371
  326MOL0     H43013   4.995  12.510   6.501  0.6167  2.0776 -2.0131
  326MOL0     H43014   4.769  13.186   6.696 -0.3302 -1.5189 -0.3399
  326MOL0     H43015   4.859  13.124   6.475  0.5413  0.6209 -0.3005
  326MOL0     H43016   5.391  13.136   6.190 -1.1635  0.8615  0.4992
  326MOL0     H43017   5.442  13.063   5.984  1.2790 -1.9645  1.4908
  326MOL0     H43018   5.632  11.667   5.534  0.1622  2.8343  0.5729
  326MOL0     H43019   5.731  11.461   5.408  1.9752  0.4369 -1.1630
  326MOL0     H43020   5.887  11.271   5.066  0.2609 -1.6319  1.5872
  326MOL0     H43021   5.959  11.047   4.986 -0.8807 -0.2449  1.6337
  326MOL0     H43022   5.735  10.850   4.669  0.1543 -1.8057 -1.1206
  326MOL0     H43023   5.670  10.738   4.792  0.8573 -1.4693  2.6212
  326MOL0     H43024   5.893  10.622   4.805 -3.1162 -1.7880  0.1456
  326MOL0     H43025   5.797  10.599   4.664 -1.4116  2.5445 -3.4261
  326MOL0     H43026   6.033  10.798   4.704 -2.2585  2.1829 -0.1262
  326MOL0     H43027   5.954  10.779   4.553  0.8759 -1.6141  0.1668
  326MOL0     H43028   6.012  10.518   4.583 -0.5357  0.1043  0.0422
  326MOL0     H43029   6.140  10.615   4.530 -0.6819 -2.0094 -1.3273
  326MOL0     H43030   6.308  10.564   4.918  1.3484 -2.8231  0.3054
  326MOL0     H43031   5.567  10.942   4.856  1.9001 -3.9234  1.6464
  326MOL0     H43032   5.483  11.179   4.978  0.3316  2.5270  3.1105
  327MOL0     O43033   4.694   6.820   9.194  0.2198  0.1921 -0.7881
  327MOL0     C43034   4.792   6.753   9.162  0.4985  0.4247  0.3079
  327MOL0     O43035   4.794   6.661   9.068 -0.2685 -0.7136 -0.1562
  327MOL0     C43036   4.694   6.617   8.990  0.6568  0.3401 -0.7585
  327MOL0     C43037   4.728   6.489   8.934  0.3188 -0.2184  0.1050
  327MOL0     C43038   4.631   6.435   8.840  0.8624 -0.2502 -0.0769
  327MOL0     C43039   4.502   6.487   8.825 -0.6564 -0.4779 -0.4799
  327MOL0     O43040   4.436   6.431   8.709  0.3648 -0.5152 -0.6515
  327MOL0     C43041   4.310   6.487   8.681 -1.0754  0.0469 -0.9694
  327MOL0     C43042   4.254   6.437   8.549 -0.6176 -0.4478  0.4307
  327MOL0     C43043   4.107   6.465   8.539  0.2612  0.4853 -0.8168
  327MOL0     C43044   4.046   6.423   8.414  0.7070  0.8427  0.0912
  327MOL0     C43045   3.889   6.441   8.416 -0.2597 -0.7973 -0.4911
  327MOL0     C43046   3.836   6.377   8.298  0.1374  0.1981 -0.2719
  327MOL0     C43047   3.686   6.408   8.301 -1.1135  0.7995 -0.2387
  327MOL0     C43048   3.613   6.323   8.192 -0.2869 -0.1870  0.6684
  327MOL0     N43049   3.567   6.196   8.242  1.2522 -0.3580 -0.2298
  327MOL0     C43050   3.631   6.079   8.218 -0.8914 -0.2971 -1.0416
  327MOL0     C43051   3.532   5.990   8.241  0.1144 -0.4782  0.1975
  327MOL0     C43052   3.568   5.842   8.224  0.2143 -0.2319 -0.7933
  327MOL0     C43053   3.453   5.747   8.263  0.7662 -0.0753 -0.0497
  327MOL0     C43054   3.336   5.754   8.153  1.1799  0.7621 -0.2324
  327MOL0     C43055   3.210   5.669   8.197 -0.5128  1.0233 -0.1625
  327MOL0     O43056   3.263   5.541   8.252  0.8931 -0.4118  0.9707
  327MOL0     C43057   3.183   5.463   8.328  0.0080 -1.5769 -0.0174
  327MOL0     C43058   3.188   5.473   8.467 -0.1243  0.3273  1.6205
  327MOL0     C43059   3.109   5.392   8.551 -0.7474 -0.4300 -0.0551
  327MOL0     C43060   3.022   5.303   8.493  0.7106 -0.2919  0.3376
  327MOL0     C43061   2.927   5.216   8.570  0.4023 -0.1510 -0.3488
  327MOL0     O43062   2.940   5.236   8.703 -0.3905  0.4238 -0.0684
  327MOL0     C43063   2.899   5.133   8.784 -0.5289  1.2797  0.3076
  327MOL0     C43064   3.005   5.044   8.833 -0.5112  0.3120 -0.1220
  327MOL0     C43065   2.969   4.942   8.933  0.0817  0.5481 -0.3435
  327MOL0     C43066   2.835   4.916   8.957 -0.3338 -0.3315  0.7859
  327MOL0     O43067   2.799   4.814   9.036  0.3453  0.4669  0.3242
  327MOL0     C43068   2.717   4.849   9.145  0.0048 -0.2028  0.1199
  327MOL0     C43069   2.741   4.736   9.253 -0.0433  0.4754 -0.1048
  327MOL0     C43070   2.658   4.773   9.377 -0.1468  0.3697 -0.0773
  327MOL0     C43071   2.654   4.639   9.470 -0.1920 -0.8632  0.1331
  327MOL0     C43072   2.591   4.690   9.593 -0.0522  0.3249 -0.4340
  327MOL0     C43073   2.616   4.613   9.715 -0.2549  0.6208  0.7046
  327MOL0     C43074   2.571   4.470   9.693 -0.4318  0.1899 -0.3937
  327MOL0     C43075   2.576   4.368   9.814 -0.2186 -1.4805  1.1390
  327MOL0    Cl43076   2.744   4.363   9.877  0.2078 -0.1541  0.1091
  327MOL0     C43077   2.730   4.996   8.897 -0.9381  0.4818  0.2868
  327MOL0     C43078   2.766   5.106   8.806 -0.3689 -0.4658  0.3823
  327MOL0     O43079   2.861   5.123   8.511  0.9389  0.7256 -0.8592
  327MOL0     C43080   3.011   5.300   8.356 -0.6673  0.2308  0.5657
  327MOL0     C43081   3.095   5.374   8.265 -0.7052  0.8495 -0.5343
  327MOL0     N43082   3.418   6.058   8.272 -0.0441 -0.8580  1.5642
  327MOL0     N43083   3.434   6.178   8.273  0.0576  0.1220  0.0836
  327MOL0     C43084   4.469   6.602   8.898 -0.1529 -0.0210  0.1049
  327MOL0     C43085   4.566   6.667   8.973 -0.3714 -0.5807 -0.2374
  327MOL0     C43086   4.909   6.760   9.251 -0.8816  0.4929  1.0703
  327MOL0     C43087   5.015   6.673   9.240 -0.0310 -0.5227  0.7308
  327MOL0     C43088   5.126   6.695   9.323  0.2363 -0.1040  0.3757
  327MOL0     C43089   5.141   6.798   9.420  0.8484 -0.0148  0.2396
  327MOL0     O43090   5.242   6.809   9.515 -0.7010  0.7530 -0.4629
  327MOL0     C43091   5.315   6.682   9.547  0.5567  0.4038  0.1199
  327MOL0     C43092   5.372   6.717   9.682  0.3622 -0.1323  0.8137
  327MOL0     C43093   5.496   6.625   9.704 -0.5237  0.5283  0.8649
  327MOL0     C43094   5.619   6.694   9.647  0.1748  0.2412  0.3393
  327MOL0     C43095   5.747   6.654   9.723  0.1004  0.3037  0.0599
  327MOL0     C43096   5.844   6.646   9.793 -0.7213  0.2478  0.8720
  327MOL0     C43097   5.036   6.884   9.428  0.8875 -0.2522 -0.1195
  327MOL0     C43098   4.928   6.869   9.342  0.8923  0.4329  0.5021
  327MOL0     H43099   4.823   6.439   8.949 -0.2861 -1.5414 -0.3158
  327MOL0     H43100   4.659   6.343   8.790  0.1648 -0.3521 -0.2943
  327MOL0     H43101   4.319   6.596   8.683  1.6370 -0.1051 -1.6281
  327MOL0     H43102   4.240   6.455   8.759 -2.3487 -0.8596 -2.4199
  327MOL0     H43103   4.250   6.329   8.558 -0.7966 -0.3101  2.3669
  327MOL0     H43104   4.318   6.466   8.464 -1.6555  2.4735  0.5369
  327MOL0     H43105   4.081   6.569   8.558  0.9245  0.5073  0.0168
  327MOL0     H43106   4.055   6.413   8.621  2.9923 -2.6011 -0.8070
  327MOL0     H43107   4.104   6.466   8.332  3.4681 -1.3566  0.7372
  327MOL0     H43108   4.058   6.314   8.414 -0.2979  0.6574  2.6077
  327MOL0     H43109   3.856   6.545   8.414 -2.9693 -1.5835 -2.4728
  327MOL0     H43110   3.870   6.391   8.512  1.3175 -0.0477  0.2410
  327MOL0     H43111   3.846   6.269   8.288 -0.5829  0.0503  0.5254
  327MOL0     H43112   3.883   6.406   8.203  1.8615 -2.6691 -0.3963
  327MOL0     H43113   3.625   6.403   8.391 -3.7713  0.8267 -1.9314
  327MOL0     H43114   3.689   6.513   8.269  1.6863 -0.2552 -4.3137
  327MOL0     H43115   3.668   6.310   8.098  0.3363 -3.2099  1.3496
  327MOL0     H43116   3.527   6.385   8.165  1.4059  2.1065  0.1628
  327MOL0     H43117   3.722   6.061   8.162 -2.6331 -0.3086 -4.0941
  327MOL0     H43118   3.654   5.811   8.285 -1.0301 -2.9917 -0.2515
  327MOL0     H43119   3.595   5.825   8.119 -0.9292 -2.9230 -0.7414
  327MOL0     H43120   3.416   5.782   8.360  1.0188  0.4708 -0.1474
  327MOL0     H43121   3.481   5.641   8.264  0.9863 -0.0141  0.2836
  327MOL0     H43122   3.306   5.858   8.137  1.0634  0.8188  0.3496
  327MOL0     H43123   3.374   5.701   8.065 -1.3591 -1.9251  0.1143
  327MOL0     H43124   3.149   5.652   8.108  0.6767 -1.3179 -0.6372
  327MOL0     H43125   3.158   5.736   8.265 -1.0369 -1.1543  1.7285
  327MOL0     H43126   3.260   5.543   8.509  1.8158 -0.6455  0.1104
  327MOL0     H43127   3.124   5.399   8.659 -2.1950 -4.1392  0.5401
  327MOL0     H43128   3.107   5.066   8.806 -0.3542  2.6234  1.9989
  327MOL0     H43129   3.044   4.882   8.984 -0.0079 -0.2339 -1.0990
  327MOL0     H43130   2.610   4.863   9.125 -0.3112  1.9803  2.8622
  327MOL0     H43131   2.750   4.943   9.188 -0.7422 -0.3413  1.0227
  327MOL0     H43132   2.844   4.726   9.289 -0.6165 -1.8456  1.0683
  327MOL0     H43133   2.715   4.637   9.214 -3.3046  0.8150  0.9225
  327MOL0     H43134   2.565   4.806   9.331  0.6635  2.2163 -0.4798
  327MOL0     H43135   2.687   4.863   9.432 -2.3689  2.8119 -2.6335
  327MOL0     H43136   2.595   4.561   9.421 -0.7021 -0.4620  0.0921
  327MOL0     H43137   2.759   4.610   9.480 -0.4477 -1.5120  1.0209
  327MOL0     H43138   2.482   4.697   9.583 -0.4300  1.2791  3.0512
  327MOL0     H43139   2.625   4.793   9.610 -1.2064  0.4057  1.7313
  327MOL0     H43140   2.567   4.655   9.803  1.0796 -0.0081  1.7848
  327MOL0     H43141   2.723   4.613   9.739  0.4750  0.7813 -2.1570
  327MOL0     H43142   2.466   4.470   9.660  0.1605 -1.2623 -2.5122
  327MOL0     H43143   2.629   4.429   9.609  3.9485  3.1274  0.8571
  327MOL0     H43144   2.546   4.272   9.771 -0.7544 -0.1822 -1.6534
  327MOL0     H43145   2.507   4.393   9.895  0.6255  0.7339  1.2522
  327MOL0     H43146   2.623   4.987   8.911 -1.2567  0.9427 -1.5591
  327MOL0     H43147   2.686   5.167   8.764  1.0632  0.3479 -1.3047
  327MOL0     H43148   2.936   5.241   8.304  0.3883 -2.4513  1.8762
  327MOL0     H43149   3.088   5.375   8.156 -1.0630 -1.6051 -0.5885
  327MOL0     H43150   4.373   6.652   8.888  1.1372  3.0356  1.8163
  327MOL0     H43151   4.539   6.756   9.029  2.7516 -0.0247  0.6211
  327MOL0     H43152   5.008   6.587   9.175  1.4908 -2.7650  3.2990
  327MOL0     H43153   5.203   6.619   9.312 -0.3982 -1.0117  1.8609
  327MOL0     H43154   5.388   6.667   9.468  0.2873  1.1610 -0.2897
  327MOL0     H43155   5.238   6.604   9.555  0.0449  0.9469  0.7045
  327MOL0     H43156   5.409   6.820   9.678  1.6406 -0.5991 -2.5075
  327MOL0     H43157   5.299   6.702   9.763  0.4321 -0.1046  0.8811
  327MOL0     H43158   5.493   6.527   9.655  1.2665  1.9895 -2.4488
  327MOL0     H43159   5.516   6.613   9.811  0.7994  0.1113  0.5952
  327MOL0     H43160   5.639   6.662   9.544  0.3537 -0.1010  0.4777
  327MOL0     H43161   5.609   6.801   9.666 -3.3044 -0.0881  1.0982
  327MOL0     H43162   5.935   6.622   9.844  0.3570  2.4685  0.1370
  327MOL0     H43163   5.038   6.965   9.501  2.5894  0.7502 -1.1923
  327MOL0     H43164   4.845   6.939   9.349  0.2718 -0.0334 -1.5848
  328MOL0     O43165   4.916  10.283   9.318  0.1356 -0.0512  0.0585
  328MOL0     C43166   4.911  10.171   9.265 -0.6833 -0.7569  0.0892
  328MOL0     O43167   4.934  10.048   9.324  0.2976 -0.0410 -0.1677
  328MOL0     C43168   4.932  10.024   9.460 -0.4427  0.2462 -0.7648
  328MOL0     C43169   4.972  10.113   9.565  1.2269 -0.0414 -0.5811
  328MOL0     C43170   4.958  10.062   9.704 -0.5100 -0.4283  0.0762
  328MOL0     C43171   4.907   9.936   9.739 -0.1896  0.3864  0.4734
  328MOL0     O43172   4.918   9.898   9.865 -0.3788 -0.0751  0.2546
  328MOL0     C43173   4.812   9.818   9.922 -0.1021  1.0391 -0.1069
  328MOL0     C43174   4.835   9.822  10.066  0.0816  0.0609 -0.5280
  328MOL0     C43175   4.973   9.761  10.109 -0.7859 -0.1006 -0.3396
  328MOL0     C43176   4.991   9.765  10.257 -0.4705  0.3201  0.9509
  328MOL0     C43177   5.133   9.736  10.306  0.1765 -0.3598  0.0321
  328MOL0     C43178   5.144   9.698  10.455 -0.1286  0.5835 -0.0753
  328MOL0     C43179   5.084   9.560  10.473 -0.1698 -0.2133 -0.6238
  328MOL0     C43180   5.126   9.503  10.607  1.0516  0.5942  1.0602
  328MOL0     N43181   5.060   9.368  10.639  0.0361  0.7377  0.3269
  328MOL0     C43182   5.107   9.245  10.617 -0.4928 -0.3745  0.2937
  328MOL0     C43183   5.025   9.164  10.684 -0.0366  0.1658  0.4527
  328MOL0     C43184   5.037   9.015  10.688  0.0548  0.6255 -0.0891
  328MOL0     C43185   5.139   8.953  10.798 -0.8044  0.6211 -0.6793
  328MOL0     C43186   5.286   8.957  10.754  0.3713  0.6721 -0.9072
  328MOL0     C43187   5.316   8.829  10.673 -0.1990  0.7519  0.2323
  328MOL0     O43188   5.455   8.835  10.628  0.0042 -0.0673  0.0531
  328MOL0     C43189   5.524   8.724  10.591 -0.1531 -0.4652 -0.3560
  328MOL0     C43190   5.666   8.733  10.573 -0.3476 -0.3980  0.4067
  328MOL0     C43191   5.744   8.624  10.543  0.8575 -0.1975  0.0254
  328MOL0     C43192   5.685   8.503  10.505  0.4312 -0.1910  0.5508
  328MOL0     C43193   5.765   8.386  10.461  0.2020 -1.0892 -0.2317
  328MOL0     O43194   5.724   8.254  10.485  0.2636 -0.1090 -0.7782
  328MOL0     C43195   5.798   8.160  10.433  0.3169  0.0324 -0.3041
  328MOL0     C43196   5.868   8.067  10.504  0.2434 -0.8325  0.1114
  328MOL0     C43197   5.933   7.967  10.440 -0.4655 -0.1160  1.5614
  328MOL0     C43198   5.936   7.948  10.304 -0.4170  0.3313  0.9572
  328MOL0     O43199   6.008   7.852  10.235 -0.1288  0.7165 -0.1312
  328MOL0     C43200   6.000   7.723  10.306  0.0585 -0.3974  0.5384
  328MOL0     C43201   6.085   7.629  10.213 -0.6417  0.0823 -0.5347
  328MOL0     C43202   6.002   7.518  10.144 -0.2705  0.2692  0.1688
  328MOL0     C43203   5.888   7.567  10.049 -0.2042  1.0766 -0.0260
  328MOL0     C43204   5.938   7.660   9.940 -0.2018 -0.8805  0.0109
  328MOL0     C43205   5.843   7.703   9.824  0.3302  0.0356  0.3442
  328MOL0     C43206   5.714   7.770   9.865  0.0740 -0.3074  0.7876
  328MOL0     C43207   5.615   7.801   9.749 -0.3729 -1.1707  0.1328
  328MOL0    Cl43208   5.482   7.891   9.830  0.0244 -0.0344  0.5962
  328MOL0     C43209   5.867   8.046  10.230 -0.7840 -0.1808  0.0397
  328MOL0     C43210   5.796   8.151  10.292  0.0403  0.1319 -0.1920
  328MOL0     O43211   5.878   8.413  10.421  0.1172 -0.6339  0.1904
  328MOL0     C43212   5.545   8.501  10.502 -0.7524  0.3834 -0.3411
  328MOL0     C43213   5.463   8.605  10.554 -0.0848  0.6234  0.0954
  328MOL0     N43214   4.932   9.232  10.751  0.1329  0.7449  0.4919
  328MOL0     N43215   4.952   9.361  10.723 -0.3945  0.3257  0.1231
  328MOL0     C43216   4.858   9.858   9.633 -0.4837  0.6250  0.8500
  328MOL0     C43217   4.872   9.900   9.499  0.5185 -0.4101  0.8229
  328MOL0     C43218   4.908  10.171   9.118 -0.5202  0.6281 -1.1239
  328MOL0     C43219   4.978  10.267   9.034 -0.6168  0.0219 -0.9578
  328MOL0     C43220   4.981  10.261   8.892 -0.4046  0.8770 -1.7193
  328MOL0     C43221   4.923  10.146   8.830  0.1716  0.2047  1.0622
  328MOL0     O43222   4.929  10.128   8.694 -0.0222 -0.3977 -0.0948
  328MOL0     C43223   5.051  10.174   8.626  0.1480 -0.3122  0.0853
  328MOL0     C43224   5.068  10.098   8.498  0.7263 -0.3052 -0.2947
  328MOL0     C43225   5.112   9.953   8.548  0.2023  1.3873  0.4985
  328MOL0     C43226   5.158   9.865   8.425 -0.0201 -0.3012 -0.0736
  328MOL0     C43227   5.275   9.914   8.358  0.7460 -1.1469 -0.1965
  328MOL0     C43228   5.373   9.958   8.299  0.7675  0.8550  0.2970
  328MOL0     C43229   4.861  10.054   8.910 -0.6167 -0.2946 -0.6554
  328MOL0     C43230   4.852  10.061   9.053  0.0422 -0.3672  0.1638
  328MOL0     H43231   5.012  10.208   9.532 -3.0278  1.4025 -2.1796
  328MOL0     H43232   4.996  10.129   9.781 -1.1582  0.5701 -0.4379
  328MOL0     H43233   4.841   9.716   9.897 -2.3050  0.8760 -2.4168
  328MOL0     H43234   4.710   9.842   9.891 -1.0327  0.1804  2.0967
  328MOL0     H43235   4.754   9.768  10.116  0.6776 -1.2156 -0.9021
  328MOL0     H43236   4.837   9.923  10.107  1.2880 -0.9217  2.0696
  328MOL0     H43237   5.055   9.812  10.056 -0.4631  0.0297  0.2754
  328MOL0     H43238   4.981   9.654  10.088 -2.2139 -0.6315  1.5341
  328MOL0     H43239   4.953   9.860  10.295  2.9142  2.1411  0.1255
  328MOL0     H43240   4.920   9.699  10.309  1.1610 -0.3198  2.4789
  328MOL0     H43241   5.192   9.828  10.296 -0.6092  0.3268  1.4398
  328MOL0     H43242   5.171   9.662  10.235 -0.7962  1.0209 -2.0401
  328MOL0     H43243   5.090   9.773  10.514 -0.5095 -0.7833  1.3483
  328MOL0     H43244   5.250   9.700  10.483  0.5045  0.7778 -2.2937
  328MOL0     H43245   4.975   9.569  10.468 -0.0908  1.3899 -6.8793
  328MOL0     H43246   5.113   9.489  10.395 -0.9744 -1.2661  0.0067
  328MOL0     H43247   5.098   9.571  10.688  0.0964  3.2174 -1.2927
  328MOL0     H43248   5.235   9.489  10.610  0.8780 -1.4017 -0.2432
  328MOL0     H43249   5.188   9.215  10.550  1.1404  1.1252  1.5112
  328MOL0     H43250   5.065   8.980  10.588 -0.7572  1.7073 -0.7107
  328MOL0     H43251   4.936   8.978  10.707 -2.2592  5.6420 -0.9644
  328MOL0     H43252   5.098   8.853  10.810 -3.9068  1.3918 -3.3641
  328MOL0     H43253   5.128   9.000  10.896 -2.5975 -4.7790  2.0648
  328MOL0     H43254   5.302   9.051  10.701 -0.3891  2.5877  2.0279
  328MOL0     H43255   5.342   8.947  10.848 -0.3418  0.9766 -0.4439
  328MOL0     H43256   5.245   8.816  10.591  0.0922  0.8288 -0.0371
  328MOL0     H43257   5.313   8.738  10.733 -2.7431 -0.8892 -2.1269
  328MOL0     H43258   5.705   8.832  10.592  0.7527 -0.4773 -1.2905
  328MOL0     H43259   5.853   8.630  10.541  0.8721 -0.4317 -2.2543
  328MOL0     H43260   5.893   8.067  10.610  1.9403 -2.8813 -0.2177
  328MOL0     H43261   6.011   7.916  10.496 -0.4109  0.1661  1.7424
  328MOL0     H43262   5.900   7.679  10.310  0.5065 -1.3692  2.9885
  328MOL0     H43263   6.029   7.728  10.411 -1.8668 -2.9104  1.2807
  328MOL0     H43264   6.154   7.571  10.275  0.2519 -0.0976 -1.6534
  328MOL0     H43265   6.156   7.687  10.153  3.1562 -2.3169  1.2177
  328MOL0     H43266   5.948   7.459  10.219 -0.1206 -1.7550 -1.2193
  328MOL0     H43267   6.067   7.450  10.088 -1.6262 -0.9143 -0.0382
  328MOL0     H43268   5.840   7.483   9.998  1.2090 -0.4631  1.0894
  328MOL0     H43269   5.817   7.625  10.108  0.1567  0.4177  1.0840
  328MOL0     H43270   6.018   7.609   9.887  2.5646  1.7716  1.3322
  328MOL0     H43271   5.979   7.754   9.980 -3.2366  1.4670 -1.8863
  328MOL0     H43272   5.820   7.617   9.761 -3.5187  0.3500  1.1150
  328MOL0     H43273   5.899   7.780   9.770 -0.4869 -0.7834 -1.7605
  328MOL0     H43274   5.661   7.708   9.939 -3.6997  3.5065  1.6380
  328MOL0     H43275   5.723   7.867   9.914  0.7574 -0.7204  1.4994
  328MOL0     H43276   5.579   7.708   9.704 -3.1594  1.0205 -2.6864
  328MOL0     H43277   5.666   7.857   9.669 -2.1060  3.7067  2.0528
  328MOL0     H43278   5.868   8.040  10.122 -1.0185  2.3625 -0.1631
  328MOL0     H43279   5.751   8.221  10.222 -0.7129 -1.7106 -1.6254
  328MOL0     H43280   5.502   8.408  10.469 -0.4533 -0.9000  2.5684
  328MOL0     H43281   5.355   8.593  10.545  0.3079 -3.0341 -1.4926
  328MOL0     H43282   4.808   9.766   9.661 -1.8408  0.3914 -1.9841
  328MOL0     H43283   4.861   9.824   9.423  1.8264  1.6832 -1.6086
  328MOL0     H43284   5.024  10.348   9.091 -1.4034  1.0347 -1.7069
  328MOL0     H43285   5.037  10.327   8.826  0.5275 -0.8645 -2.7424
  328MOL0     H43286   5.144  10.171   8.684 -0.0470 -1.2956  0.3766
  328MOL0     H43287   5.033  10.277   8.595 -2.3836 -1.1820 -1.6670
  328MOL0     H43288   4.971  10.107   8.448 -0.1124  0.7234  1.4483
  328MOL0     H43289   5.138  10.159   8.440  0.7182 -0.3855 -0.3899
  328MOL0     H43290   5.035   9.913   8.614  1.6735 -0.3729  1.2428
  328MOL0     H43291   5.194   9.967   8.619  0.6416 -1.6764  0.7332
  328MOL0     H43292   5.181   9.766   8.466  3.6571  0.1816 -0.6798
  328MOL0     H43293   5.075   9.854   8.355  1.0436  0.8031 -1.5658
  328MOL0     H43294   5.459   9.988   8.242 -0.1360  0.0057 -1.5807
  328MOL0     H43295   4.810   9.967   8.871 -0.9891 -0.5233  0.3274
  328MOL0     H43296   4.807   9.983   9.114 -2.5377  0.2717 -0.7572
  329MOL0     O43297   3.666   7.436   9.252 -0.6565 -0.2822  0.0476
  329MOL0     C43298   3.602   7.469   9.153 -0.8735 -0.5145  0.4563
  329MOL0     O43299   3.606   7.591   9.096  0.2256 -0.3716 -0.0423
  329MOL0     C43300   3.700   7.684   9.141 -1.5779  0.3906 -0.2842
  329MOL0     C43301   3.669   7.793   9.227 -0.3176  0.2679 -0.4010
  329MOL0     C43302   3.777   7.894   9.247 -0.0559  0.3086 -0.7054
  329MOL0     C43303   3.904   7.891   9.184  0.6060 -0.4920 -0.0912
  329MOL0     O43304   3.993   7.997   9.199  0.9151  0.3119  1.0593
  329MOL0     C43305   3.944   8.130   9.231 -0.0963  0.3534  1.0465
  329MOL0     C43306   4.056   8.234   9.220 -0.1448 -0.3236  0.3151
  329MOL0     C43307   4.198   8.200   9.285 -0.4377  0.7332 -0.3686
  329MOL0     C43308   4.207   8.093   9.408 -0.0978  0.2494 -0.1822
  329MOL0     C43309   4.346   8.085   9.462 -0.0500 -0.4042  0.5932
  329MOL0     C43310   4.349   8.056   9.606 -0.0955 -0.2311  0.2727
  329MOL0     C43311   4.480   8.085   9.678 -0.0184 -0.3349 -0.9518
  329MOL0     C43312   4.460   8.072   9.829  0.0402  0.5561  0.2524
  329MOL0     N43313   4.453   7.926   9.867 -0.1998 -0.1569 -0.3715
  329MOL0     C43314   4.563   7.842   9.862 -0.0878  0.0920  0.0531
  329MOL0     C43315   4.517   7.722   9.904 -0.6000 -0.4843  0.3518
  329MOL0     C43316   4.595   7.590   9.915 -0.0278 -0.1534  0.4561
  329MOL0     C43317   4.685   7.588  10.048  0.4283 -0.5389  0.1833
  329MOL0     C43318   4.599   7.560  10.170 -0.1778  0.0598 -0.0426
  329MOL0     C43319   4.669   7.619  10.302 -0.1444  0.8730  0.3461
  329MOL0     O43320   4.712   7.756  10.290 -0.0681  0.7014 -0.2477
  329MOL0     C43321   4.613   7.860  10.287 -0.7133  0.7519  0.0497
  329MOL0     C43322   4.651   7.966  10.215 -0.4291  0.0474 -0.1335
  329MOL0     C43323   4.558   8.075  10.185  0.7297  1.3210  0.1178
  329MOL0     C43324   4.431   8.060  10.236 -0.0956 -0.7979  0.9192
  329MOL0     C43325   4.332   8.165  10.209  0.2391  0.9011 -0.0727
  329MOL0     O43326   4.207   8.158  10.268 -1.1934  0.2777 -0.8885
  329MOL0     C43327   4.098   8.176  10.193  0.0319 -0.1681  0.5662
  329MOL0     C43328   3.985   8.227  10.245  0.3535 -0.3499 -0.9402
  329MOL0     C43329   3.859   8.216  10.186 -0.1723 -0.0102 -0.4131
  329MOL0     C43330   3.847   8.168  10.056  0.2392 -0.0788  0.8676
  329MOL0     O43331   3.731   8.158   9.993 -0.2494  0.4244  0.1452
  329MOL0     C43332   3.638   8.264  10.006 -0.1105  0.3343  0.6333
  329MOL0     C43333   3.518   8.223   9.937 -0.4709  0.0326  1.1417
  329MOL0     C43334   3.421   8.336   9.897 -0.0818  0.2916 -0.1699
  329MOL0     C43335   3.379   8.410  10.032 -0.4527  1.1916 -0.1091
  329MOL0     C43336   3.262   8.501  10.011 -0.0019 -0.5918 -0.1977
  329MOL0     C43337   3.281   8.591   9.894 -0.1375 -0.7410 -0.5437
  329MOL0     C43338   3.390   8.700   9.896 -1.3405  0.4558 -0.1118
  329MOL0     C43339   3.393   8.772   9.762  0.0274  0.1059  0.0257
  329MOL0    Cl43340   3.453   8.668   9.631 -0.1247 -0.1815 -0.1814
  329MOL0     C43341   3.965   8.132   9.990  0.4094 -0.1859  0.3518
  329MOL0     C43342   4.090   8.130  10.056 -0.1915 -0.0103 -0.1998
  329MOL0     O43343   4.367   8.256  10.130  0.9833 -0.3107 -0.2256
  329MOL0     C43344   4.394   7.957  10.322  0.1124 -0.6254 -0.6326
  329MOL0     C43345   4.485   7.858  10.351  0.6328 -0.2133  0.0424
  329MOL0     N43346   4.385   7.731   9.938 -0.0007  0.0550 -0.8378
  329MOL0     N43347   4.342   7.854   9.917 -0.7737  0.3950 -0.4026
  329MOL0     C43348   3.924   7.774   9.105  0.4859  0.1179 -0.3132
  329MOL0     C43349   3.830   7.670   9.087  0.0809  0.5078 -0.2662
  329MOL0     C43350   3.515   7.369   9.100  1.0593  0.1386 -0.2013
  329MOL0     C43351   3.456   7.394   8.968  0.0511 -0.4901 -0.2999
  329MOL0     C43352   3.365   7.301   8.916 -0.0503 -0.0537  0.2092
  329MOL0     C43353   3.334   7.179   8.979 -0.2562  0.2767 -0.0754
  329MOL0     O43354   3.225   7.116   8.927  0.6185 -0.7620  0.0480
  329MOL0     C43355   3.230   6.969   8.908 -0.8163  0.1020  0.2158
  329MOL0     C43356   3.335   6.921   8.812  0.6624  0.6625 -0.1710
  329MOL0     C43357   3.297   6.937   8.656 -0.6171 -0.2748 -0.2821
  329MOL0     C43358   3.304   7.078   8.602 -0.4256  0.0194  0.6098
  329MOL0     C43359   3.434   7.160   8.616 -0.0193  0.5045 -0.4866
  329MOL0     C43360   3.549   7.208   8.616  0.3403 -0.0031  0.5938
  329MOL0     C43361   3.395   7.158   9.107  0.0042  0.4811  0.9401
  329MOL0     C43362   3.485   7.248   9.165  0.3666  0.3361 -0.8338
  329MOL0     H43363   3.571   7.797   9.272 -0.8685  1.0621 -1.6222
  329MOL0     H43364   3.750   7.975   9.314 -0.1511  0.7198 -1.2266
  329MOL0     H43365   3.915   8.125   9.337 -1.0426 -1.0725  0.7457
  329MOL0     H43366   3.858   8.155   9.169 -0.2505  0.0815  1.1495
  329MOL0     H43367   4.023   8.331   9.259 -1.1549 -0.4802 -0.1053
  329MOL0     H43368   4.093   8.240   9.118 -2.6736 -2.1773 -0.8116
  329MOL0     H43369   4.239   8.294   9.323 -2.6942  0.9535  1.7048
  329MOL0     H43370   4.263   8.174   9.201 -0.4102 -0.2457 -0.0592
  329MOL0     H43371   4.133   8.124   9.482  2.6374  4.1137  1.2051
  329MOL0     H43372   4.178   7.992   9.377  1.4936 -0.1735 -0.3859
  329MOL0     H43373   4.398   8.180   9.450  1.8292 -1.1936  1.8978
  329MOL0     H43374   4.401   8.008   9.406  1.0340  1.1686 -0.6032
  329MOL0     H43375   4.338   7.948   9.618  3.1212 -0.3978  3.2035
  329MOL0     H43376   4.263   8.104   9.654 -0.1859 -2.4077  2.5112
  329MOL0     H43377   4.568   8.031   9.642  0.7679 -1.0519  1.7804
  329MOL0     H43378   4.503   8.190   9.659  0.3139  0.3807  2.6540
  329MOL0     H43379   4.380   8.133   9.872  1.4976  0.3206  3.5872
  329MOL0     H43380   4.546   8.112   9.882 -0.1736 -0.1505  1.1550
  329MOL0     H43381   4.660   7.866   9.820 -0.9122  1.5412 -1.1408
  329MOL0     H43382   4.652   7.566   9.825  0.7526 -2.1598  1.4120
  329MOL0     H43383   4.523   7.509   9.931  0.3077 -0.3229  1.1730
  329MOL0     H43384   4.725   7.690  10.059 -1.4706  0.3660 -0.7455
  329MOL0     H43385   4.763   7.513  10.029 -0.9969 -2.2088  0.7069
  329MOL0     H43386   4.495   7.590  10.158 -0.3352 -1.0867 -1.9819
  329MOL0     H43387   4.593   7.452  10.186  1.1242  0.0130  0.2805
  329MOL0     H43388   4.758   7.564  10.336 -1.9492 -1.4805  1.5872
  329MOL0     H43389   4.603   7.603  10.388  1.1533 -0.2687  1.1895
  329MOL0     H43390   4.752   7.965  10.176 -0.3875  0.1962 -0.0266
  329MOL0     H43391   4.578   8.167  10.132 -0.1027  1.9590  0.8865
  329MOL0     H43392   4.000   8.238  10.352  2.9024 -2.6235 -0.9559
  329MOL0     H43393   3.775   8.244  10.250  0.0027  0.9806 -0.6074
  329MOL0     H43394   3.678   8.351   9.952 -1.3719 -0.6879 -2.1304
  329MOL0     H43395   3.616   8.290  10.110  1.2391 -0.6791  1.1975
  329MOL0     H43396   3.463   8.147   9.992 -0.5310 -0.3613  0.5522
  329MOL0     H43397   3.547   8.166   9.848  0.1831  0.8904  0.7856
  329MOL0     H43398   3.331   8.291   9.855 -0.0303 -1.7891  1.7780
  329MOL0     H43399   3.468   8.406   9.827  4.9465  1.2235  3.6244
  329MOL0     H43400   3.346   8.335  10.104  0.9176 -0.6431 -1.2888
  329MOL0     H43401   3.466   8.465  10.068  2.1243 -0.7763 -2.7536
  329MOL0     H43402   3.245   8.562  10.101  1.9377  0.5379 -0.5446
  329MOL0     H43403   3.169   8.444  10.001 -0.9840  0.3738  2.5268
  329MOL0     H43404   3.190   8.648   9.873 -1.2213 -0.8231  3.2142
  329MOL0     H43405   3.289   8.529   9.804  1.1686  1.6946 -2.2239
  329MOL0     H43406   3.369   8.772   9.976 -5.3059 -0.2369 -0.3033
  329MOL0     H43407   3.486   8.653   9.920 -1.8006  0.9249  3.1839
  329MOL0     H43408   3.466   8.852   9.776  0.9474 -0.8467  0.9850
  329MOL0     H43409   3.292   8.810   9.746 -1.1190 -0.4687  4.5542
  329MOL0     H43410   3.969   8.090   9.890  0.6234  2.2518 -0.7423
  329MOL0     H43411   4.174   8.085  10.002  0.1563 -1.1471  1.2383
  329MOL0     H43412   4.309   7.968  10.389  3.3436 -1.1524  3.9778
  329MOL0     H43413   4.462   7.774  10.416  1.3591  0.1711  0.8092
  329MOL0     H43414   4.019   7.784   9.054  1.6977  1.4002  2.0315
  329MOL0     H43415   3.841   7.582   9.025 -2.3994 -0.7182  0.9027
  329MOL0     H43416   3.483   7.479   8.906  1.0840 -0.3596  0.3078
  329MOL0     H43417   3.313   7.311   8.822 -0.2612  1.3243  0.4480
  329MOL0     H43418   3.135   6.940   8.862 -1.5680 -1.1767  2.4172
  329MOL0     H43419   3.241   6.932   9.010 -1.0631 -0.1122  0.1667
  329MOL0     H43420   3.432   6.964   8.835  0.8702  0.1146 -0.0024
  329MOL0     H43421   3.356   6.816   8.837  2.3349  0.7814 -0.9235
  329MOL0     H43422   3.191   6.911   8.644 -0.8773  0.3544  0.5263
  329MOL0     H43423   3.358   6.870   8.595 -2.0801 -3.0321  1.1198
  329MOL0     H43424   3.273   7.070   8.497  0.2536 -0.9607  0.4701
  329MOL0     H43425   3.227   7.131   8.659 -2.4259 -0.8849 -1.1073
  329MOL0     H43426   3.649   7.246   8.622  0.8650 -1.5436  2.5449
  329MOL0     H43427   3.364   7.073   9.168  0.9975 -0.5182  0.0832
  329MOL0     H43428   3.513   7.246   9.270 -1.5919  0.7307 -0.2756
  330MOL0     O43429   2.075   1.392   6.536  0.0824 -0.8566 -0.2030
  330MOL0     C43430   2.163   1.421   6.614  0.0829  0.1879  0.0917
  330MOL0     O43431   2.149   1.515   6.715  0.5926  0.2204 -0.3629
  330MOL0     C43432   2.063   1.618   6.681 -0.3597  0.6802 -0.1010
  330MOL0     C43433   2.103   1.722   6.606 -0.1771 -0.2107  0.4642
  330MOL0     C43434   2.016   1.818   6.567 -0.2438 -0.1706  0.2632
  330MOL0     C43435   1.890   1.832   6.628  1.2773 -0.3540  0.9843
  330MOL0     O43436   1.809   1.934   6.601  0.7881 -0.2859 -0.1704
  330MOL0     C43437   1.671   1.950   6.644 -0.6894 -0.0415 -0.5184
  330MOL0     C43438   1.613   2.040   6.549 -0.0062  0.5144 -0.6534
  330MOL0     C43439   1.466   2.074   6.585 -0.0332  0.3718  0.8472
  330MOL0     C43440   1.405   2.172   6.484 -0.6004 -1.6850  0.4974
  330MOL0     C43441   1.261   2.200   6.523 -0.3181 -0.1818 -0.5210
  330MOL0     C43442   1.200   2.316   6.445  0.6545 -0.2564  0.7871
  330MOL0     C43443   1.202   2.313   6.293  0.9332 -1.7201 -0.2369
  330MOL0     C43444   1.111   2.417   6.231  0.6819 -0.1301 -0.4847
  330MOL0     N43445   1.074   2.387   6.090  0.1247 -0.0540  0.4570
  330MOL0     C43446   0.951   2.345   6.037  0.4567 -0.2922  0.5281
  330MOL0     C43447   0.974   2.341   5.906  0.2330 -0.3169  0.1731
  330MOL0     C43448   0.866   2.279   5.819 -0.6047  0.2400  0.0380
  330MOL0     C43449   0.879   2.325   5.670 -0.5230 -0.8470  0.7730
  330MOL0     C43450   0.779   2.272   5.573  0.8960  0.1321 -0.4797
  330MOL0     C43451   0.634   2.275   5.623 -0.4353  0.4019  0.4368
  330MOL0     O43452   0.552   2.246   5.505 -0.4724 -0.2580 -0.0227
  330MOL0     C43453   0.436   2.320   5.508  0.2491  0.0273  0.2228
  330MOL0     C43454   0.401   2.405   5.399 -0.5023  0.3997  0.4080
  330MOL0     C43455   0.295   2.489   5.387 -0.3548 -0.0225  0.1804
  330MOL0     C43456   0.209   2.490   5.502  0.8224 -0.0034 -0.3139
  330MOL0     C43457   0.105   2.598   5.506  0.3190  0.4501 -0.0833
  330MOL0     O43458   0.043   2.643   5.382  0.5586 -1.2214 -1.0344
  330MOL0     C43459  -0.055   2.731   5.413 -0.1194  0.2266 -0.0196
  330MOL0     C43460  -0.033   2.863   5.412 -0.4058 -0.8028 -0.9623
  330MOL0     C43461  -0.135   2.952   5.431 -0.0551 -0.0749  0.6457
  330MOL0     C43462  -0.259   2.914   5.451 -0.2564 -0.7407 -0.5998
  330MOL0     O43463  -0.363   3.001   5.480  0.5393  0.3381 -0.4837
  330MOL0     C43464  -0.349   3.141   5.510  0.7159  0.7676 -0.1675
  330MOL0     C43465  -0.470   3.205   5.592  1.2937  0.4353 -0.2284
  330MOL0     C43466  -0.489   3.351   5.547 -0.5323  0.5979  0.2903
  330MOL0     C43467  -0.603   3.416   5.620  0.5751  0.0238  0.2043
  330MOL0     C43468  -0.624   3.567   5.593  1.1497 -0.4536 -0.9917
  330MOL0     C43469  -0.740   3.637   5.672  0.3029 -0.4006  0.5909
  330MOL0     C43470  -0.879   3.574   5.662  0.3327 -0.3084  0.1450
  330MOL0     C43471  -0.996   3.656   5.691  0.0925  0.4997 -0.6555
  330MOL0    Cl43472  -0.994   3.802   5.593 -0.0101  0.2327  0.0331
  330MOL0     C43473  -0.289   2.778   5.463 -0.0836 -0.2735 -0.2188
  330MOL0     C43474  -0.182   2.684   5.442  0.9141  0.2269  1.6473
  330MOL0     O43475   0.087   2.643   5.618  0.1852 -0.1531 -0.0231
  330MOL0     C43476   0.233   2.402   5.619  1.2079  1.0307  0.5714
  330MOL0     C43477   0.342   2.304   5.614 -0.8805  1.6567  0.0908
  330MOL0     N43478   1.102   2.388   5.874 -0.0105  1.3057  0.2325
  330MOL0     N43479   1.158   2.416   5.986 -0.6602  0.8731 -0.2690
  330MOL0     C43480   1.846   1.730   6.705  0.2513  0.1008 -0.1801
  330MOL0     C43481   1.930   1.624   6.730 -0.4597  0.5780 -0.2996
  330MOL0     C43482   2.282   1.334   6.603  0.5749 -0.1847  0.2244
  330MOL0     C43483   2.388   1.347   6.684  0.6806  0.3661 -0.9661
  330MOL0     C43484   2.503   1.285   6.673 -0.5566  0.4910  0.3380
  330MOL0     C43485   2.517   1.177   6.595  0.5423 -0.3585  0.1469
  330MOL0     O43486   2.630   1.117   6.579 -0.1525  0.4926 -1.2236
  330MOL0     C43487   2.646   0.974   6.547 -0.1057  0.1485 -0.3994
  330MOL0     C43488   2.792   0.951   6.528  0.1199 -0.2873  0.0079
  330MOL0     C43489   2.845   1.042   6.405 -0.1236  0.1301 -0.4887
  330MOL0     C43490   3.002   1.037   6.402 -0.0939  0.2340  0.0944
  330MOL0     C43491   3.032   1.069   6.267 -0.5021  0.0397  0.1396
  330MOL0     C43492   3.064   1.099   6.154  0.2499 -0.1467  0.9958
  330MOL0     C43493   2.404   1.150   6.503 -0.6181 -1.4531  0.9052
  330MOL0     C43494   2.294   1.226   6.511  0.0402 -0.2641 -0.8021
  330MOL0     H43495   2.207   1.711   6.575  0.3308 -0.5738  2.1815
  330MOL0     H43496   2.052   1.905   6.514 -1.4024  0.0647 -0.1683
  330MOL0     H43497   1.675   1.985   6.748  2.3662  0.9722 -0.8909
  330MOL0     H43498   1.623   1.852   6.643  0.4044 -0.9431  4.7869
  330MOL0     H43499   1.612   1.988   6.453 -2.4896  0.5810 -0.7291
  330MOL0     H43500   1.668   2.134   6.557 -1.8277  1.7386 -1.6778
  330MOL0     H43501   1.467   2.114   6.687 -1.1879  4.3897 -0.5428
  330MOL0     H43502   1.400   1.987   6.593  0.2485  0.0228 -0.3628
  330MOL0     H43503   1.461   2.266   6.480 -0.7644 -1.5935  0.3103
  330MOL0     H43504   1.420   2.134   6.383 -2.0387  0.3491 -0.5753
  330MOL0     H43505   1.256   2.234   6.627 -1.0686  2.9106 -1.4576
  330MOL0     H43506   1.211   2.103   6.520  1.3174 -1.0309 -3.0487
  330MOL0     H43507   1.244   2.410   6.478  0.1911  0.6462 -0.9910
  330MOL0     H43508   1.099   2.326   6.486  0.0925 -0.0519 -0.5988
  330MOL0     H43509   1.300   2.329   6.249  0.2624 -1.2643 -1.6129
  330MOL0     H43510   1.177   2.212   6.259  0.4180 -1.6097 -0.1968
  330MOL0     H43511   1.162   2.513   6.245 -1.4720  1.5021 -2.9892
  330MOL0     H43512   1.017   2.440   6.283  0.9409 -1.3030  0.5252
  330MOL0     H43513   0.865   2.313   6.094  0.1973 -0.8109 -0.1359
  330MOL0     H43514   0.776   2.293   5.880 -1.3539 -3.1477 -0.1108
  330MOL0     H43515   0.873   2.170   5.821 -1.2095  0.2099  1.6384
  330MOL0     H43516   0.977   2.295   5.633 -0.8249 -3.0207  1.6161
  330MOL0     H43517   0.854   2.432   5.678 -2.0579 -1.2661  1.9256
  330MOL0     H43518   0.777   2.334   5.483  0.1272 -1.4530 -1.6043
  330MOL0     H43519   0.807   2.173   5.534 -0.6342  0.5582 -2.8637
  330MOL0     H43520   0.603   2.374   5.660  1.1603  1.0735  0.0594
  330MOL0     H43521   0.606   2.204   5.701 -3.7034 -0.4161 -1.2969
  330MOL0     H43522   0.473   2.384   5.320 -0.0385 -0.8988  1.1578
  330MOL0     H43523   0.269   2.545   5.297 -2.5532 -0.5342  0.4326
  330MOL0     H43524   0.067   2.902   5.395 -0.4550 -0.5564 -0.6992
  330MOL0     H43525  -0.119   3.059   5.428 -1.9295  0.2657  1.7585
  330MOL0     H43526  -0.343   3.194   5.415 -0.1445  1.0440 -0.0750
  330MOL0     H43527  -0.258   3.154   5.569 -0.1560  0.1883  1.3719
  330MOL0     H43528  -0.466   3.212   5.701  0.8577  1.1317 -0.2505
  330MOL0     H43529  -0.570   3.164   5.577  1.3624  0.5950 -1.2365
  330MOL0     H43530  -0.517   3.355   5.441 -3.7413 -1.5739  0.9131
  330MOL0     H43531  -0.392   3.399   5.560 -0.9127  0.9890  1.8567
  330MOL0     H43532  -0.693   3.358   5.598  1.2054 -0.8306 -0.1625
  330MOL0     H43533  -0.590   3.403   5.728  1.5217  0.1282  0.1116
  330MOL0     H43534  -0.642   3.580   5.486 -1.1748 -0.6556 -0.6775
  330MOL0     H43535  -0.531   3.624   5.606  1.5958 -0.6741 -2.8991
  330MOL0     H43536  -0.746   3.742   5.644  2.1836  0.3802  2.7376
  330MOL0     H43537  -0.722   3.639   5.780  0.2274  1.0713  0.5946
  330MOL0     H43538  -0.906   3.549   5.559  2.5774  1.4281 -0.9617
  330MOL0     H43539  -0.889   3.481   5.719 -2.5543 -0.2238 -0.0840
  330MOL0     H43540  -0.994   3.678   5.798  3.4796 -1.2500 -0.1961
  330MOL0     H43541  -1.082   3.593   5.666  1.4674 -2.0465  0.5171
  330MOL0     H43542  -0.386   2.740   5.491 -0.3406 -0.4385 -1.3028
  330MOL0     H43543  -0.192   2.578   5.424  0.3168  0.6871 -1.1025
  330MOL0     H43544   0.160   2.408   5.699  1.2657  2.5402  0.5436
  330MOL0     H43545   0.352   2.229   5.693 -1.9937  0.3136 -0.9878
  330MOL0     H43546   1.751   1.745   6.756  1.4044 -0.1757  2.1580
  330MOL0     H43547   1.898   1.544   6.796  2.8856 -0.0365  0.8123
  330MOL0     H43548   2.375   1.431   6.752 -0.0719 -1.4380  1.2229
  330MOL0     H43549   2.589   1.319   6.730 -1.8171  2.6763  1.0640
  330MOL0     H43550   2.589   0.937   6.462  0.4961  2.7827 -2.0496
  330MOL0     H43551   2.605   0.925   6.636 -0.7735  1.2476 -0.0785
  330MOL0     H43552   2.842   0.983   6.620 -2.6118 -1.9021  2.2420
  330MOL0     H43553   2.818   0.846   6.512  0.5978  0.0278 -1.3467
  330MOL0     H43554   2.815   1.145   6.429 -0.5136  0.1421 -1.0101
  330MOL0     H43555   2.798   1.015   6.310 -1.6672 -2.3154  0.8635
  330MOL0     H43556   3.026   1.114   6.476  0.6129  2.2575 -2.1103
  330MOL0     H43557   3.049   0.940   6.419 -0.8525 -0.2354 -0.4047
  330MOL0     H43558   3.086   1.126   6.052  0.9750  0.0011  1.1847
  330MOL0     H43559   2.403   1.070   6.430 -0.8583  1.8835 -3.1293
  330MOL0     H43560   2.203   1.194   6.461 -1.4808  1.2448  0.8317
  331MOL0     O43561   7.762   5.789   1.243  0.7834 -0.0289  0.6609
  331MOL0     C43562   7.830   5.856   1.318 -0.5462 -0.2462  0.1111
  331MOL0     O43563   7.837   5.835   1.453 -0.2598  0.1748 -0.2761
  331MOL0     C43564   7.741   5.743   1.509 -0.7534 -0.0465  0.1598
  331MOL0     C43565   7.614   5.774   1.542  0.3423  0.0107  0.0422
  331MOL0     C43566   7.539   5.690   1.623  0.4549 -1.2430 -0.3568
  331MOL0     C43567   7.581   5.563   1.672  0.1314 -0.1579 -0.1434
  331MOL0     O43568   7.501   5.503   1.764 -0.0498  0.2196  0.1426
  331MOL0     C43569   7.550   5.382   1.827  0.3560  0.9387 -0.4432
  331MOL0     C43570   7.430   5.321   1.891  0.3868  0.3400  0.1986
  331MOL0     C43571   7.346   5.247   1.789 -1.0400  0.0601  0.8442
  331MOL0     C43572   7.401   5.105   1.742 -0.6858 -0.6951  1.0779
  331MOL0     C43573   7.295   5.065   1.643 -0.6836  0.8054  1.3687
  331MOL0     C43574   7.297   4.906   1.622 -0.2621 -0.6338 -0.1108
  331MOL0     C43575   7.430   4.854   1.572  0.9430 -0.3430  0.7689
  331MOL0     C43576   7.480   4.912   1.429  0.7116 -0.3238  1.1224
  331MOL0     N43577   7.597   4.848   1.374  0.8382  0.0648  0.5596
  331MOL0     C43578   7.634   4.840   1.243  0.0824  0.0896  0.0749
  331MOL0     C43579   7.743   4.764   1.242  0.3559  1.2858 -1.1752
  331MOL0     C43580   7.826   4.725   1.121 -0.4470  0.8583 -0.2356
  331MOL0     C43581   7.972   4.755   1.124 -0.3367 -0.6380  0.1733
  331MOL0     C43582   8.001   4.912   1.150  0.2986 -0.6623  0.1769
  331MOL0     C43583   8.157   4.934   1.164 -1.3219  0.5872 -0.2226
  331MOL0     O43584   8.186   5.048   1.080  0.4193  0.2311  0.1104
  331MOL0     C43585   8.308   5.111   1.089  0.2236 -0.6682 -0.1385
  331MOL0     C43586   8.323   5.225   1.014 -0.2238  0.1323  0.1246
  331MOL0     C43587   8.434   5.310   1.031 -0.7822  0.0818  1.3094
  331MOL0     C43588   8.542   5.273   1.109  0.5044 -0.5639  0.2366
  331MOL0     C43589   8.658   5.364   1.117  0.4496 -0.3241  0.0320
  331MOL0     O43590   8.748   5.342   1.211 -0.4239 -0.9399  0.5220
  331MOL0     C43591   8.870   5.412   1.214 -0.1923 -0.3219 -0.0418
  331MOL0     C43592   8.960   5.414   1.116 -0.2759 -0.3566  0.3272
  331MOL0     C43593   9.079   5.473   1.136  0.2311  0.3295 -0.0082
  331MOL0     C43594   9.103   5.563   1.244 -0.2399  0.0751  0.6391
  331MOL0     O43595   9.230   5.623   1.235  0.6858 -0.0430 -0.1340
  331MOL0     C43596   9.255   5.734   1.338  0.2048  0.6360 -0.1784
  331MOL0     C43597   9.376   5.808   1.276 -0.8646 -0.6769 -0.7983
  331MOL0     C43598   9.503   5.724   1.268  0.2693 -0.5080 -0.3961
  331MOL0     C43599   9.617   5.814   1.215  0.5144  0.1343 -0.7621
  331MOL0     C43600   9.742   5.733   1.182  0.2628 -0.3355 -0.7053
  331MOL0     C43601   9.733   5.635   1.064 -0.1366 -0.2279  0.8442
  331MOL0     C43602   9.824   5.515   1.079  0.4985  0.1968 -0.6912
  331MOL0     C43603   9.832   5.418   0.965 -0.0788 -0.6671 -0.9248
  331MOL0    Cl43604   9.677   5.371   0.894 -0.1280 -0.0179 -0.3335
  331MOL0     C43605   9.008   5.574   1.347  0.2398 -0.0818  0.1312
  331MOL0     C43606   8.892   5.498   1.327  0.0948  0.3354 -0.0057
  331MOL0     O43607   8.666   5.463   1.038  0.9089  0.3517  0.0307
  331MOL0     C43608   8.532   5.152   1.181 -0.1105  0.5510  0.3240
  331MOL0     C43609   8.419   5.073   1.167 -0.0310  1.0754  0.3062
  331MOL0     N43610   7.757   4.707   1.369 -0.6346  0.2662 -0.0264
  331MOL0     N43611   7.675   4.766   1.451 -0.5939  0.7683  0.3672
  331MOL0     C43612   7.712   5.524   1.617  0.8760 -0.0595 -0.3455
  331MOL0     C43613   7.794   5.617   1.543 -0.9749 -0.9229 -0.7666
  331MOL0     C43614   7.907   5.969   1.263 -0.1906 -0.0925  0.0596
  331MOL0     C43615   7.957   6.069   1.351  0.0098 -0.5730 -0.0539
  331MOL0     C43616   8.028   6.182   1.313 -0.1596 -0.3849 -0.4421
  331MOL0     C43617   8.067   6.197   1.180 -0.2953  0.1230  0.2906
  331MOL0     O43618   8.148   6.294   1.128 -0.4631 -0.2347  0.5594
  331MOL0     C43619   8.247   6.371   1.217  0.4314 -0.8746 -0.5347
  331MOL0     C43620   8.219   6.516   1.241  0.5286 -2.0887  0.0568
  331MOL0     C43621   8.077   6.542   1.297 -0.0815  0.6398 -0.3540
  331MOL0     C43622   8.023   6.686   1.313 -0.3603  0.6166 -0.2067
  331MOL0     C43623   8.122   6.770   1.379 -0.2883  0.9865  0.1603
  331MOL0     C43624   8.198   6.849   1.440  0.0292  0.5103  0.3510
  331MOL0     C43625   8.020   6.101   1.088  0.0456  0.1805  0.0412
  331MOL0     C43626   7.946   5.987   1.131 -0.6183  0.0857  0.6874
  331MOL0     H43627   7.566   5.866   1.509  1.5916  0.9603  0.7757
  331MOL0     H43628   7.442   5.714   1.665  1.6896  4.3191  0.0073
  331MOL0     H43629   7.628   5.389   1.903 -0.2152  3.5030  0.0112
  331MOL0     H43630   7.604   5.320   1.756  2.1316  2.0780 -0.1628
  331MOL0     H43631   7.365   5.394   1.941  2.0705  0.4072  2.4521
  331MOL0     H43632   7.454   5.262   1.980 -0.8460  2.2367  1.8923
  331MOL0     H43633   7.338   5.308   1.699  2.6995  1.0282  0.9955
  331MOL0     H43634   7.249   5.222   1.834 -0.8218 -0.2657  1.1428
  331MOL0     H43635   7.506   5.108   1.711 -2.0561 -0.4959 -4.4784
  331MOL0     H43636   7.399   5.034   1.826  3.8034 -0.4949  1.5899
  331MOL0     H43637   7.302   5.126   1.552 -1.6722  0.8070  1.2851
  331MOL0     H43638   7.194   5.095   1.670 -1.8250 -0.9458 -0.5783
  331MOL0     H43639   7.235   4.871   1.539  0.8485  3.2127 -2.8949
  331MOL0     H43640   7.276   4.848   1.712  3.1176 -0.4159  0.9598
  331MOL0     H43641   7.504   4.878   1.648  0.7359  0.3399  0.7621
  331MOL0     H43642   7.420   4.746   1.554 -2.5985 -0.1135  0.6928
  331MOL0     H43643   7.506   5.017   1.444 -0.2551 -0.3196  3.0009
  331MOL0     H43644   7.393   4.906   1.364  1.0782 -3.0541  0.7793
  331MOL0     H43645   7.585   4.889   1.159 -0.6863 -1.5849 -0.5084
  331MOL0     H43646   7.776   4.756   1.029  1.3689  1.9149 -0.9222
  331MOL0     H43647   7.827   4.616   1.115  5.2106  0.3732  2.2952
  331MOL0     H43648   7.997   4.741   1.018 -0.3636  1.3449 -0.1423
  331MOL0     H43649   8.031   4.694   1.193 -0.5229  1.1418  1.9951
  331MOL0     H43650   7.966   4.970   1.063 -2.9598 -0.8948  1.1705
  331MOL0     H43651   7.946   4.954   1.236  0.2322  1.6116 -0.8826
  331MOL0     H43652   8.207   4.841   1.136 -3.5421 -1.2514  1.5079
  331MOL0     H43653   8.181   4.953   1.269 -1.8963 -0.1179  0.0471
  331MOL0     H43654   8.239   5.262   0.956 -1.9864 -2.1738  1.0649
  331MOL0     H43655   8.426   5.402   0.974  0.2374 -1.6216 -1.8261
  331MOL0     H43656   8.929   5.353   1.031 -2.0552 -1.6522  1.8226
  331MOL0     H43657   9.154   5.459   1.060 -0.4775 -0.0717 -0.6521
  331MOL0     H43658   9.267   5.698   1.440 -4.4289 -4.3112 -0.8913
  331MOL0     H43659   9.177   5.809   1.354 -0.2540 -0.0576  0.9430
  331MOL0     H43660   9.401   5.891   1.343 -1.2589 -1.3600  0.2141
  331MOL0     H43661   9.352   5.848   1.176  2.0047  0.5147 -1.1067
  331MOL0     H43662   9.486   5.635   1.208  0.8804  0.4175 -2.0098
  331MOL0     H43663   9.520   5.706   1.375 -1.5770  1.6596  0.3508
  331MOL0     H43664   9.589   5.878   1.130 -0.5871  0.1087 -0.4335
  331MOL0     H43665   9.639   5.885   1.295  1.5238  0.2120 -1.0929
  331MOL0     H43666   9.770   5.680   1.275  2.5904  1.6768 -0.1600
  331MOL0     H43667   9.821   5.804   1.159  0.3035 -0.9121 -2.4825
  331MOL0     H43668   9.756   5.689   0.972  0.2834 -2.1795 -0.2480
  331MOL0     H43669   9.632   5.597   1.052 -0.0678 -0.5062  1.1099
  331MOL0     H43670   9.922   5.557   1.101  1.7429 -2.4694 -0.7896
  331MOL0     H43671   9.810   5.459   1.171  0.7387  2.9278  1.1366
  331MOL0     H43672   9.887   5.332   1.003 -2.5484 -1.5992  0.7931
  331MOL0     H43673   9.896   5.451   0.882  0.6216 -0.5410 -0.3426
  331MOL0     H43674   9.025   5.644   1.429 -3.2767  0.7600  0.2810
  331MOL0     H43675   8.810   5.512   1.397 -0.4894  1.7518 -0.9217
  331MOL0     H43676   8.613   5.116   1.244  0.3689 -1.6250 -1.4030
  331MOL0     H43677   8.419   4.979   1.221 -0.5137  0.6908 -0.3433
  331MOL0     H43678   7.756   5.425   1.628 -1.2926 -0.8831  1.4968
  331MOL0     H43679   7.886   5.576   1.504 -2.0455 -3.9221 -0.4615
  331MOL0     H43680   7.915   6.073   1.451  1.9910  0.8208  0.7606
  331MOL0     H43681   8.050   6.265   1.379 -0.6872 -0.3727 -0.2748
  331MOL0     H43682   8.346   6.367   1.173  1.5050 -0.3575  1.6633
  331MOL0     H43683   8.271   6.312   1.306  0.9146  1.0722  0.6841
  331MOL0     H43684   8.294   6.565   1.303  0.9085 -0.1977 -1.7885
  331MOL0     H43685   8.230   6.568   1.145  0.6886 -1.3670  0.4631
  331MOL0     H43686   8.084   6.513   1.402 -2.2203  2.0166  0.2425
  331MOL0     H43687   8.007   6.474   1.248  1.8439 -1.6781 -0.0322
  331MOL0     H43688   7.993   6.726   1.215 -0.5465 -0.2734 -0.5228
  331MOL0     H43689   7.935   6.690   1.378  1.6153  2.3075  2.5718
  331MOL0     H43690   8.266   6.912   1.493  0.2441 -0.4058  1.2047
  331MOL0     H43691   8.055   6.112   0.986  3.3159 -1.0307  0.9340
  331MOL0     H43692   7.929   5.903   1.065 -0.0668 -1.8991  2.9265
  332MOL0     O43693   9.304   2.796   7.453 -0.4219  0.1698  0.7757
  332MOL0     C43694   9.296   2.891   7.375 -0.6945 -0.4857  0.1528
  332MOL0     O43695   9.191   2.914   7.294  0.2149  0.1679 -0.3643
  332MOL0     C43696   9.093   2.816   7.275 -0.2112 -0.1243  0.3028
  332MOL0     C43697   9.025   2.755   7.387  1.2095 -0.7814  0.3729
  332MOL0     C43698   8.911   2.678   7.350 -0.5994  0.2937 -1.1569
  332MOL0     C43699   8.865   2.670   7.221  0.7472 -0.2758  0.0151
  332MOL0     O43700   8.748   2.610   7.186 -0.1388  0.5051 -0.2132
  332MOL0     C43701   8.669   2.558   7.285  0.2349  0.2955  0.0881
  332MOL0     C43702   8.541   2.496   7.232 -0.1098 -0.4289  0.0175
  332MOL0     C43703   8.578   2.390   7.121 -0.2644 -0.5624 -0.6970
  332MOL0     C43704   8.459   2.296   7.096 -0.1007 -0.0664 -0.0479
  332MOL0     C43705   8.345   2.392   7.055  0.1256 -0.3800  0.2746
  332MOL0     C43706   8.230   2.331   6.971  0.0885  0.7261  0.9480
  332MOL0     C43707   8.153   2.453   6.920  0.1099 -0.4020  0.4564
  332MOL0     C43708   8.052   2.419   6.812  0.1178 -0.4553 -0.0219
  332MOL0     N43709   8.116   2.359   6.699  0.3207 -0.1698 -0.4879
  332MOL0     C43710   8.231   2.405   6.626  1.4321  0.3220  0.2928
  332MOL0     C43711   8.244   2.314   6.527 -0.5388 -0.3469 -0.2644
  332MOL0     C43712   8.333   2.349   6.414  0.4250 -0.1120 -0.4457
  332MOL0     C43713   8.350   2.227   6.323 -0.1449  1.1971 -0.6042
  332MOL0     C43714   8.412   2.251   6.184 -1.4120 -0.7185 -0.3783
  332MOL0     C43715   8.530   2.355   6.184  0.5282  0.5436  0.0095
  332MOL0     O43716   8.632   2.299   6.261 -0.6092 -0.3027  0.1989
  332MOL0     C43717   8.753   2.364   6.249 -0.7687 -0.1185 -1.5745
  332MOL0     C43718   8.870   2.283   6.281  1.1979 -0.2399  0.6708
  332MOL0     C43719   8.998   2.332   6.261  0.2112  0.7913 -0.7050
  332MOL0     C43720   9.017   2.469   6.213  1.3368  0.6987 -1.1160
  332MOL0     C43721   9.147   2.538   6.195 -0.0508 -0.5069 -0.2304
  332MOL0     O43722   9.265   2.492   6.259 -0.2368  0.0655 -1.1098
  332MOL0     C43723   9.373   2.570   6.235  0.4688 -0.0834 -0.0183
  332MOL0     C43724   9.424   2.655   6.333  0.0574  0.5325  0.6316
  332MOL0     C43725   9.539   2.724   6.318  0.1622  0.3953 -0.8283
  332MOL0     C43726   9.599   2.714   6.184 -0.1071  0.3757 -0.6926
  332MOL0     O43727   9.713   2.774   6.142 -0.5682 -0.2044  0.7967
  332MOL0     C43728   9.775   2.880   6.228  1.3135 -0.8693 -0.5080
  332MOL0     C43729   9.911   2.901   6.177  0.2779  0.3809  0.7522
  332MOL0     C43730   9.916   2.958   6.029  0.6774  0.4052 -0.1668
  332MOL0     C43731  10.067   2.971   5.978 -0.2602  0.5332 -1.2601
  332MOL0     C43732  10.082   3.031   5.832  0.2356  0.4912  0.5679
  332MOL0     C43733  10.023   3.163   5.810  0.1726 -0.3449 -0.0774
  332MOL0     C43734  10.047   3.226   5.670 -0.0176 -0.4033 -0.5683
  332MOL0     C43735  10.003   3.142   5.546 -0.6691 -0.3781 -0.7875
  332MOL0    Cl43736   9.972   3.266   5.421  0.2645  0.1162 -0.4826
  332MOL0     C43737   9.550   2.634   6.078 -0.9076  0.5104 -0.2522
  332MOL0     C43738   9.431   2.568   6.104 -0.4216  0.7024 -0.3253
  332MOL0     O43739   9.144   2.641   6.126  0.1675  0.4902 -0.0566
  332MOL0     C43740   8.900   2.541   6.193 -0.8412 -0.6490 -0.1560
  332MOL0     C43741   8.770   2.496   6.211  0.2055  0.6064 -1.3052
  332MOL0     N43742   8.157   2.212   6.547 -0.7937  0.2571 -0.6535
  332MOL0     N43743   8.078   2.236   6.657 -0.8904  0.1013 -0.3530
  332MOL0     C43744   8.933   2.731   7.113  0.8435 -0.3430 -0.8119
  332MOL0     C43745   9.046   2.807   7.139 -0.1422  1.0465  0.2050
  332MOL0     C43746   9.409   2.993   7.370 -0.9748 -0.2834 -0.6871
  332MOL0     C43747   9.514   2.982   7.467  0.1792  0.6181  1.3812
  332MOL0     C43748   9.615   3.082   7.472  0.6812  0.4316 -0.5690
  332MOL0     C43749   9.606   3.186   7.378  0.1145  0.1408 -0.7303
  332MOL0     O43750   9.709   3.277   7.380  0.0587  0.1967  0.0399
  332MOL0     C43751   9.677   3.411   7.341  0.7497 -1.1704 -0.0180
  332MOL0     C43752   9.772   3.511   7.398 -0.1271 -0.2076 -0.5620
  332MOL0     C43753   9.752   3.659   7.353 -0.9108  0.2337  0.9232
  332MOL0     C43754   9.878   3.734   7.360  0.4145  0.6085  0.3891
  332MOL0     C43755   9.956   3.727   7.487  0.4433  0.4181  0.4368
  332MOL0     C43756  10.007   3.697   7.593 -0.7826  0.8338 -0.7749
  332MOL0     C43757   9.512   3.183   7.272 -0.1298  0.4612  0.0468
  332MOL0     C43758   9.423   3.086   7.267 -0.1633  1.0447 -0.4229
  332MOL0     H43759   9.069   2.760   7.486 -0.4878 -2.4512  1.2600
  332MOL0     H43760   8.864   2.622   7.430  2.5507 -1.0474 -0.0544
  332MOL0     H43761   8.650   2.642   7.352  0.6194  1.8759 -1.7020
  332MOL0     H43762   8.719   2.472   7.331 -1.6170 -1.2186 -0.5918
  332MOL0     H43763   8.478   2.578   7.197 -0.1756 -1.7312 -3.3366
  332MOL0     H43764   8.495   2.434   7.309 -1.8894  0.9451  0.1046
  332MOL0     H43765   8.664   2.343   7.169  0.9022  0.9596 -1.2169
  332MOL0     H43766   8.605   2.431   7.023 -1.0742  1.7527 -0.0137
  332MOL0     H43767   8.468   2.225   7.014  0.9810 -2.0378  1.6753
  332MOL0     H43768   8.429   2.257   7.194 -1.8236  3.5926  1.0596
  332MOL0     H43769   8.386   2.477   7.000 -0.8282 -1.6107 -2.5338
  332MOL0     H43770   8.300   2.440   7.142  2.1266  1.0782  0.5698
  332MOL0     H43771   8.168   2.260   7.027 -2.3003  1.2742 -0.8301
  332MOL0     H43772   8.284   2.278   6.892  0.3421 -2.5787  3.1230
  332MOL0     H43773   8.104   2.502   7.005  1.3519  0.8145  0.5086
  332MOL0     H43774   8.215   2.533   6.878  2.2329 -1.0986  2.0412
  332MOL0     H43775   8.010   2.513   6.775 -3.6001 -2.3698 -1.1127
  332MOL0     H43776   7.971   2.359   6.852  0.9112 -1.4837  0.0758
  332MOL0     H43777   8.282   2.495   6.659 -2.9953  1.8566  3.9297
  332MOL0     H43778   8.417   2.416   6.437  1.6410 -1.6872 -0.1659
  332MOL0     H43779   8.263   2.418   6.364 -1.1689 -0.3145  1.4015
  332MOL0     H43780   8.255   2.173   6.310  0.0023  0.9948 -0.8463
  332MOL0     H43781   8.412   2.152   6.374 -1.3653  1.2640  1.0864
  332MOL0     H43782   8.459   2.164   6.138  3.4582  1.8491 -0.8845
  332MOL0     H43783   8.328   2.279   6.119 -1.4646 -2.8894 -1.3522
  332MOL0     H43784   8.495   2.443   6.239 -0.4513 -0.0339  0.3324
  332MOL0     H43785   8.558   2.378   6.081  0.2673 -1.8032 -0.6475
  332MOL0     H43786   8.845   2.184   6.318 -1.5472  0.1954  0.1492
  332MOL0     H43787   9.090   2.287   6.298 -0.3696  2.8025  3.9165
  332MOL0     H43788   9.375   2.641   6.429  0.6507 -1.9658  0.6453
  332MOL0     H43789   9.577   2.785   6.400 -0.0559  0.5282 -0.8263
  332MOL0     H43790   9.778   2.865   6.336 -2.5161  1.5940  0.1358
  332MOL0     H43791   9.715   2.969   6.206  1.1467 -1.0779 -0.9173
  332MOL0     H43792   9.960   2.804   6.162 -0.5530  0.3979 -3.1022
  332MOL0     H43793   9.961   2.973   6.242 -0.5200  0.1368  1.6571
  332MOL0     H43794   9.875   3.059   6.029  0.2687  0.2419  0.1026
  332MOL0     H43795   9.860   2.896   5.959  0.0340  1.6084 -0.7367
  332MOL0     H43796  10.126   3.023   6.055 -2.5851  0.5312  0.6236
  332MOL0     H43797  10.101   2.867   5.976 -1.4899  0.1157 -0.9842
  332MOL0     H43798  10.022   2.970   5.765 -0.0021  2.7469 -1.4169
  332MOL0     H43799  10.184   3.044   5.794 -0.7724  1.6878 -2.0154
  332MOL0     H43800  10.058   3.237   5.882  0.4625 -0.3619 -0.2008
  332MOL0     H43801   9.914   3.160   5.823 -0.1073  0.3058 -1.9543
  332MOL0     H43802   9.988   3.318   5.668 -0.6163 -0.7804 -0.6944
  332MOL0     H43803  10.148   3.267   5.668 -0.1276 -0.0989  0.0493
  332MOL0     H43804   9.913   3.082   5.553 -0.9204  0.0374 -0.3882
  332MOL0     H43805  10.095   3.087   5.521  1.2259  0.8025  2.8680
  332MOL0     H43806   9.598   2.633   5.981 -2.0059 -2.3853 -0.8731
  332MOL0     H43807   9.395   2.496   6.032  2.0875  0.0276 -1.0204
  332MOL0     H43808   8.910   2.645   6.164 -2.1542 -0.3641  0.3470
  332MOL0     H43809   8.688   2.562   6.188 -0.4793  0.3513  0.3228
  332MOL0     H43810   8.897   2.723   7.011  0.2990  1.2852 -0.7701
  332MOL0     H43811   9.082   2.873   7.061 -1.8740 -0.4556 -1.9903
  332MOL0     H43812   9.521   2.898   7.536  2.2614 -1.0256 -0.6585
  332MOL0     H43813   9.692   3.077   7.549  2.6406 -1.9659 -2.5097
  332MOL0     H43814   9.573   3.432   7.368  1.2732  0.5698  0.8601
  332MOL0     H43815   9.667   3.416   7.232 -3.2036  4.0803  0.1750
  332MOL0     H43816   9.763   3.511   7.507 -0.6043  2.0347 -0.5490
  332MOL0     H43817   9.871   3.491   7.356 -0.5390 -0.4248 -1.4627
  332MOL0     H43818   9.682   3.710   7.420  0.7635 -0.1834  3.0900
  332MOL0     H43819   9.713   3.654   7.251 -0.5125  0.4592  0.7585
  332MOL0     H43820   9.941   3.691   7.281 -0.3404  0.7616 -0.3095
  332MOL0     H43821   9.859   3.834   7.318 -1.4877  1.4018  2.9278
  332MOL0     H43822  10.052   3.684   7.689 -1.3161 -4.2152 -0.9149
  332MOL0     H43823   9.510   3.259   7.195  3.0737 -0.5073 -1.1350
  332MOL0     H43824   9.345   3.087   7.192 -1.3818  2.8660  0.7873
  333MOL0     O43825   0.413  11.049   8.465  0.2514 -0.3960 -0.2140
  333MOL0     C43826   0.491  11.139   8.467 -0.3896  0.1738  0.0668
  333MOL0     O43827   0.482  11.253   8.397 -0.5507  0.2409  0.1174
  333MOL0     C43828   0.431  11.235   8.275 -0.9087  0.1229 -0.1251
  333MOL0     C43829   0.297  11.277   8.248  0.9039  0.5612  0.3736
  333MOL0     C43830   0.241  11.264   8.113 -0.4986  0.2518  0.0629
  333MOL0     C43831   0.328  11.211   8.007 -0.2670  0.5585 -0.3590
  333MOL0     O43832   0.276  11.182   7.883 -0.8035 -0.3784 -0.3626
  333MOL0     C43833   0.368  11.175   7.777  0.1481  0.7139 -0.0391
  333MOL0     C43834   0.295  11.128   7.651 -0.4384  0.1356  0.6388
  333MOL0     C43835   0.378  11.014   7.590 -0.4925 -0.4331  0.8473
  333MOL0     C43836   0.318  10.959   7.465 -0.3707 -0.3889 -0.3116
  333MOL0     C43837   0.347  10.812   7.445 -0.2942  0.5845 -0.1975
  333MOL0     C43838   0.261  10.756   7.319 -0.4719 -1.2182  0.3682
  333MOL0     C43839   0.304  10.619   7.265  0.1084  0.2933 -0.4629
  333MOL0     C43840   0.257  10.502   7.357  0.3900  0.4959 -0.2083
  333MOL0     N43841   0.298  10.360   7.308  0.2271 -0.1980  0.9204
  333MOL0     C43842   0.211  10.258   7.273  0.3771  0.1367  0.8283
  333MOL0     C43843   0.299  10.150   7.277  0.4147  0.6605  0.8320
  333MOL0     C43844   0.244  10.017   7.230  0.4524  0.0493  0.1736
  333MOL0     C43845   0.346   9.940   7.140  0.9376  0.4087  0.0523
  333MOL0     C43846   0.292   9.800   7.109 -0.2533 -0.0528 -0.1599
  333MOL0     C43847   0.380   9.720   7.011 -0.9352  0.0678  0.2549
  333MOL0     O43848   0.329   9.587   6.994  0.0113 -0.3844  0.0439
  333MOL0     C43849   0.236   9.563   6.893  0.0035  0.2581  0.3023
  333MOL0     C43850   0.179   9.432   6.899  0.3679  0.2583  0.1453
  333MOL0     C43851   0.058   9.392   6.836  1.1491  0.3810 -0.0997
  333MOL0     C43852  -0.008   9.484   6.762  0.5117  0.8822  1.0696
  333MOL0     C43853  -0.148   9.453   6.717 -0.4463 -0.2314  0.2748
  333MOL0     O43854  -0.176   9.320   6.674  0.0737  0.2401 -0.8766
  333MOL0     C43855  -0.303   9.296   6.652 -0.3022 -0.2962  1.0427
  333MOL0     C43856  -0.392   9.263   6.760  0.3268 -0.5595 -1.1656
  333MOL0     C43857  -0.524   9.239   6.730  0.6784 -0.4446  0.2930
  333MOL0     C43858  -0.569   9.238   6.596  0.3379  0.6203  0.7616
  333MOL0     O43859  -0.705   9.217   6.556  0.0503  0.0810 -0.6451
  333MOL0     C43860  -0.738   9.084   6.512  0.0580  0.2137 -0.2191
  333MOL0     C43861  -0.889   9.094   6.478  0.0271 -0.5431 -0.8347
  333MOL0     C43862  -0.909   9.065   6.336  1.0794 -0.2113  0.2508
  333MOL0     C43863  -1.062   9.065   6.286  0.2603  0.5192  0.2760
  333MOL0     C43864  -1.071   9.001   6.144 -0.8714  1.5908 -0.0974
  333MOL0     C43865  -1.216   8.994   6.086 -0.6123  0.1424 -0.3226
  333MOL0     C43866  -1.227   8.926   5.953 -0.2193 -0.9611 -0.5442
  333MOL0     C43867  -1.362   8.863   5.908 -0.3793 -0.1842 -0.5191
  333MOL0    Cl43868  -1.335   8.767   5.760  0.2274  0.0540 -0.2758
  333MOL0     C43869  -0.482   9.261   6.495  0.3291 -0.2025 -0.0150
  333MOL0     C43870  -0.349   9.282   6.512  0.1765  0.8817 -0.8900
  333MOL0     O43871  -0.218   9.557   6.702  0.0210  0.1142  0.4324
  333MOL0     C43872   0.047   9.616   6.736 -0.0986  0.3692  0.2213
  333MOL0     C43873   0.161   9.655   6.810  0.0647 -0.4686 -0.7489
  333MOL0     N43874   0.425  10.189   7.315 -0.3246  0.3802 -0.7070
  333MOL0     N43875   0.416  10.315   7.349  0.1358  0.7080 -0.2493
  333MOL0     C43876   0.463  11.174   8.041  0.1133 -0.5823  0.9707
  333MOL0     C43877   0.510  11.182   8.167  0.2642 -0.3996 -0.1596
  333MOL0     C43878   0.610  11.115   8.552 -0.6468  0.0476  0.0107
  333MOL0     C43879   0.643  10.988   8.607 -1.1499 -0.0139  0.1572
  333MOL0     C43880   0.749  10.970   8.693 -0.4028  0.4712  0.2378
  333MOL0     C43881   0.834  11.086   8.730 -0.7267  0.6105  0.7319
  333MOL0     O43882   0.945  11.076   8.815  0.5514  0.2282 -0.4065
  333MOL0     C43883   0.965  10.956   8.890  0.1741 -0.0332  1.4753
  333MOL0     C43884   1.078  10.979   9.003 -0.6444 -0.2272 -0.0378
  333MOL0     C43885   1.180  11.090   8.960 -0.0059  0.2860 -0.1779
  333MOL0     C43886   1.305  11.099   9.045 -0.5916  0.1360 -0.0782
  333MOL0     C43887   1.274  11.108   9.194  0.8543 -0.3814  0.0451
  333MOL0     C43888   1.266  11.127   9.315 -0.9634  0.0425 -0.0376
  333MOL0     C43889   0.803  11.212   8.676  0.9639 -0.6295  0.1693
  333MOL0     C43890   0.692  11.223   8.592 -0.8651 -0.3825  1.2030
  333MOL0     H43891   0.238  11.308   8.334  3.2954 -1.4443  2.9305
  333MOL0     H43892   0.137  11.288   8.094 -0.2346 -0.3526 -2.4594
  333MOL0     H43893   0.453  11.113   7.809 -0.5209  1.4181  3.5627
  333MOL0     H43894   0.406  11.277   7.762 -0.9421  1.1797  0.2955
  333MOL0     H43895   0.291  11.214   7.584  2.1823  1.0106  1.4857
  333MOL0     H43896   0.194  11.089   7.669  0.0857 -1.3182  0.5658
  333MOL0     H43897   0.397  10.935   7.663  1.3589 -0.2775  0.6040
  333MOL0     H43898   0.479  11.054   7.574 -0.2205 -0.6845  1.8761
  333MOL0     H43899   0.209  10.952   7.473 -0.4875  0.0011 -1.4168
  333MOL0     H43900   0.337  11.019   7.376 -3.7279  2.1519  0.4724
  333MOL0     H43901   0.318  10.758   7.535  1.6855  0.8897  0.6818
  333MOL0     H43902   0.456  10.814   7.438 -0.2541  1.0786  0.4595
  333MOL0     H43903   0.279  10.828   7.238 -1.3763 -0.1637  1.0782
  333MOL0     H43904   0.155  10.746   7.343 -0.7872 -0.1629 -0.4591
  333MOL0     H43905   0.264  10.609   7.164  0.0144 -1.6522 -0.2730
  333MOL0     H43906   0.414  10.619   7.264  0.1154 -0.5712  0.1361
  333MOL0     H43907   0.147  10.502   7.363  0.2991 -2.7042  0.0346
  333MOL0     H43908   0.301  10.519   7.455  1.5194 -0.3609 -0.5443
  333MOL0     H43909   0.112  10.262   7.230  0.6529  0.4960  0.2089
  333MOL0     H43910   0.158  10.024   7.162  0.6324 -2.7003 -0.4636
  333MOL0     H43911   0.216   9.951   7.313  0.2604  0.7430  0.6694
  333MOL0     H43912   0.443   9.927   7.189  1.3328 -0.4406 -0.9217
  333MOL0     H43913   0.346   9.982   7.039 -2.0320  0.1344 -0.1547
  333MOL0     H43914   0.270   9.740   7.198 -1.0477 -2.6670 -1.9857
  333MOL0     H43915   0.199   9.828   7.060  2.7637  1.6813 -5.7503
  333MOL0     H43916   0.484   9.704   7.039 -1.2523 -0.9840  0.8849
  333MOL0     H43917   0.386   9.774   6.916 -0.5705 -2.0258 -0.9691
  333MOL0     H43918   0.222   9.346   6.950 -0.0679 -1.3323 -2.0304
  333MOL0     H43919   0.022   9.293   6.861 -1.4994  1.6129  1.4268
  333MOL0     H43920  -0.368   9.275   6.865  0.1115  2.4534 -1.3769
  333MOL0     H43921  -0.603   9.225   6.803  0.2142 -0.7804 -0.2596
  333MOL0     H43922  -0.710   9.014   6.591  4.2986  0.5526 -1.1748
  333MOL0     H43923  -0.688   9.062   6.418 -2.1105  2.2136 -1.9525
  333MOL0     H43924  -0.920   9.196   6.503  0.7632 -0.5951  0.3656
  333MOL0     H43925  -0.936   9.026   6.549  0.4627  0.1866  0.1701
  333MOL0     H43926  -0.877   8.961   6.327  3.4783  0.5256 -0.8086
  333MOL0     H43927  -0.834   9.127   6.286  1.6750 -1.0498  0.0775
  333MOL0     H43928  -1.116   9.000   6.354  1.9618 -1.3964 -0.0984
  333MOL0     H43929  -1.097   9.168   6.281  4.7183  2.1960 -2.7025
  333MOL0     H43930  -1.029   8.901   6.158 -3.0631  0.4145 -1.3953
  333MOL0     H43931  -1.011   9.063   6.077  1.6813  1.4283  1.8701
  333MOL0     H43932  -1.258   9.094   6.075 -1.2137  0.0514  0.9665
  333MOL0     H43933  -1.287   8.945   6.154  1.1948 -0.8057  0.9556
  333MOL0     H43934  -1.203   8.999   5.875  0.3775  0.6147  1.0424
  333MOL0     H43935  -1.148   8.850   5.948 -0.6187 -1.4645  0.4322
  333MOL0     H43936  -1.442   8.938   5.903  0.3180  0.6161 -0.1622
  333MOL0     H43937  -1.393   8.788   5.982 -0.8989  0.0655 -0.4744
  333MOL0     H43938  -0.522   9.262   6.394 -2.0190 -1.0271  0.8457
  333MOL0     H43939  -0.274   9.303   6.437  2.0504 -0.9639  0.3380
  333MOL0     H43940   0.010   9.697   6.675  3.9430  3.7851  1.8140
  333MOL0     H43941   0.200   9.756   6.800 -2.6378  0.8270  0.6998
  333MOL0     H43942   0.533  11.137   7.966 -1.7304  2.8765 -2.8709
  333MOL0     H43943   0.616  11.159   8.163  0.8328  2.1619 -2.8640
  333MOL0     H43944   0.573  10.907   8.589  0.5571 -1.8292  1.2665
  333MOL0     H43945   0.775  10.871   8.730 -1.0709 -0.7260 -2.2679
  333MOL0     H43946   0.989  10.866   8.832  0.8247  2.0621 -1.8149
  333MOL0     H43947   0.879  10.928   8.951  2.0089  1.7566  5.2380
  333MOL0     H43948   1.034  11.008   9.098  2.3538  1.7789  0.8979
  333MOL0     H43949   1.127  10.881   9.008 -1.7619 -0.7794  0.4989
  333MOL0     H43950   1.129  11.187   8.970 -0.3539  0.1824 -0.8130
  333MOL0     H43951   1.189  11.087   8.851 -2.9067  0.9225 -0.5429
  333MOL0     H43952   1.359  11.009   9.016 -0.1283  1.2403 -2.9319
  333MOL0     H43953   1.369  11.182   9.014  1.9299 -1.7732 -0.2268
  333MOL0     H43954   1.277  11.144   9.420  3.3769 -0.0709 -0.3051
  333MOL0     H43955   0.867  11.296   8.701 -1.4896  1.4712 -0.1194
  333MOL0     H43956   0.658  11.322   8.563 -0.1090 -0.9826 -2.0994
  334MOL0     O43957   2.296   2.713  11.254  0.5472 -0.6204  0.2401
  334MOL0     C43958   2.305   2.664  11.364 -0.5729  0.5320 -0.0594
  334MOL0     O43959   2.260   2.544  11.400  0.6073  0.2704  0.0635
  334MOL0     C43960   2.241   2.456  11.297  0.0652 -0.0701  0.5871
  334MOL0     C43961   2.322   2.344  11.271  0.6973  0.2755  0.8035
  334MOL0     C43962   2.294   2.251  11.162  1.1903 -0.1302 -0.3651
  334MOL0     C43963   2.179   2.272  11.086  1.3157 -0.2645  0.5868
  334MOL0     O43964   2.150   2.200  10.974  0.2040  0.0422 -0.9225
  334MOL0     C43965   2.079   2.078  10.991  0.5386 -0.2131  0.0116
  334MOL0     C43966   2.055   2.045  10.846 -1.2126 -0.6906  0.4479
  334MOL0     C43967   2.173   2.046  10.746 -0.5707 -0.2394 -1.2930
  334MOL0     C43968   2.141   1.986  10.611  0.1923  0.1763 -0.5094
  334MOL0     C43969   2.254   1.950  10.518 -0.8718 -0.0114 -1.0463
  334MOL0     C43970   2.340   1.832  10.579  0.2601 -0.5699 -0.7377
  334MOL0     C43971   2.454   1.803  10.480 -0.1201 -0.4643  0.9399
  334MOL0     C43972   2.564   1.907  10.468 -0.0328 -0.3328 -0.0320
  334MOL0     N43973   2.699   1.853  10.473 -0.1420  0.0810  0.3151
  334MOL0     C43974   2.749   1.758  10.376  0.3870  0.5290  0.1439
  334MOL0     C43975   2.871   1.739  10.418 -0.0554  0.7261  0.0099
  334MOL0     C43976   2.960   1.621  10.385  0.5469  1.1768 -0.1565
  334MOL0     C43977   3.005   1.538  10.505 -0.5672  0.5971  0.7827
  334MOL0     C43978   3.124   1.436  10.464 -0.5059  0.4404  0.4472
  334MOL0     C43979   3.162   1.355  10.587  0.2518 -0.3467 -0.1120
  334MOL0     O43980   3.171   1.219  10.560  0.7038  0.4254 -0.7562
  334MOL0     C43981   3.279   1.162  10.509 -0.9590 -0.7368 -0.0848
  334MOL0     C43982   3.357   1.215  10.400  0.1720 -0.0216 -1.4775
  334MOL0     C43983   3.468   1.149  10.354 -0.2334  0.1044  0.0219
  334MOL0     C43984   3.510   1.032  10.417 -0.1186 -0.5620 -0.4658
  334MOL0     C43985   3.626   0.951  10.371 -0.0057 -0.1387  0.3806
  334MOL0     O43986   3.636   0.824  10.424 -0.4939 -0.7318 -1.0962
  334MOL0     C43987   3.763   0.772  10.406 -1.0576 -0.4581  0.8554
  334MOL0     C43988   3.813   0.731  10.283 -0.0214 -0.0846 -0.3277
  334MOL0     C43989   3.943   0.689  10.265 -0.1605 -0.8644 -0.0699
  334MOL0     C43990   4.029   0.665  10.381  0.8113 -0.9020  0.1269
  334MOL0     O43991   4.151   0.624  10.348  0.3517 -0.4503  0.4872
  334MOL0     C43992   4.245   0.588  10.449 -0.1098  0.1820  0.2270
  334MOL0     C43993   4.212   0.446  10.491  0.4115 -0.2499  0.0142
  334MOL0     C43994   4.279   0.404  10.609  0.9754 -1.3457 -0.6850
  334MOL0     C43995   4.201   0.310  10.694 -0.3943  0.6565  0.1026
  334MOL0     C43996   4.289   0.253  10.811  0.7890  0.2717 -0.2135
  334MOL0     C43997   4.390   0.148  10.779 -0.1048 -0.2319  0.0070
  334MOL0     C43998   4.333   0.038  10.681 -0.9686 -0.8530  0.1392
  334MOL0     C43999   4.445  -0.058  10.635 -0.0430  0.2337 -0.5274
  334MOL0    Cl44000   4.531  -0.139  10.772  0.1698 -0.4088 -0.0888
  334MOL0     C44001   3.979   0.700  10.507  0.0891  0.0166 -0.6168
  334MOL0     C44002   3.845   0.754  10.517  0.6867  0.8513  0.6839
  334MOL0     O44003   3.712   1.014  10.304  0.1766 -0.2862  0.8714
  334MOL0     C44004   3.433   0.982  10.523 -0.0447  0.8490  0.2335
  334MOL0     C44005   3.314   1.046  10.561 -0.0177 -0.1808  0.3217
  334MOL0     N44006   2.899   1.821  10.520  0.0858 -0.8782  0.4104
  334MOL0     N44007   2.795   1.893  10.553 -0.2860 -0.7607 -1.0693
  334MOL0     C44008   2.098   2.381  11.114 -0.8630  0.9010  0.0305
  334MOL0     C44009   2.132   2.469  11.215 -0.0984 -0.5721 -0.8322
  334MOL0     C44010   2.390   2.730  11.461 -0.4168  0.1881 -0.1314
  334MOL0     C44011   2.363   2.864  11.468  0.1344 -0.0666  0.2594
  334MOL0     C44012   2.450   2.949  11.544 -0.5921  0.2744 -0.4121
  334MOL0     C44013   2.558   2.893  11.615  0.0864 -0.6466 -0.1701
  334MOL0     O44014   2.636   2.976  11.701  1.4595  0.2953  0.2576
  334MOL0     C44015   2.762   2.920  11.722 -0.2273  0.0855  0.3664
  334MOL0     C44016   2.857   3.033  11.756 -0.3834  1.4397 -0.6222
  334MOL0     C44017   2.831   3.109  11.901 -0.1034  0.5092  0.5666
  334MOL0     C44018   2.909   3.222  11.927  0.6329 -0.1968 -0.1227
  334MOL0     C44019   2.910   3.329  11.833 -0.7625 -0.7819  0.6171
  334MOL0     C44020   2.920   3.419  11.753  0.6484 -1.1670  0.5485
  334MOL0     C44021   2.574   2.756  11.604 -1.2019  1.1874  0.7329
  334MOL0     C44022   2.499   2.674  11.520  0.5566  0.4440 -0.0705
  334MOL0     H44023   2.407   2.328  11.336  0.3926 -1.0865  0.8905
  334MOL0     H44024   2.356   2.165  11.138  2.0974  0.6077 -0.7604
  334MOL0     H44025   1.992   2.099  11.053 -0.9417 -2.6107 -1.1350
  334MOL0     H44026   2.131   1.992  11.035  1.0486 -0.5491 -1.1929
  334MOL0     H44027   1.981   2.116  10.809 -0.3463  0.1012  0.1802
  334MOL0     H44028   2.008   1.946  10.847 -1.8421 -0.3869  1.5815
  334MOL0     H44029   2.247   1.982  10.796  0.3433  0.6276 -1.5037
  334MOL0     H44030   2.217   2.146  10.744 -0.4538 -0.2853 -1.0708
  334MOL0     H44031   2.075   1.900  10.626 -2.1073  1.9285 -0.0254
  334MOL0     H44032   2.075   2.061  10.566 -1.9920 -0.8543  0.8038
  334MOL0     H44033   2.322   2.033  10.496 -2.1552  1.4282  0.1471
  334MOL0     H44034   2.220   1.923  10.418 -1.2855 -1.1047 -0.6248
  334MOL0     H44035   2.291   1.736  10.598  1.1767 -1.3815 -2.2169
  334MOL0     H44036   2.387   1.861  10.673 -0.7032  1.3797 -0.8160
  334MOL0     H44037   2.492   1.707  10.515  0.0235 -0.9683 -0.5428
  334MOL0     H44038   2.402   1.779  10.387  1.1633 -0.9760  0.3351
  334MOL0     H44039   2.563   1.976  10.553  1.4788  4.4600 -3.4757
  334MOL0     H44040   2.556   1.969  10.379 -0.5982 -3.1917 -2.1107
  334MOL0     H44041   2.706   1.697  10.298 -1.4290  0.9218  0.7847
  334MOL0     H44042   3.052   1.663  10.343  0.4232  0.9446 -0.6623
  334MOL0     H44043   2.909   1.551  10.319 -1.2923  2.6374 -0.3579
  334MOL0     H44044   2.918   1.478  10.534 -1.7287 -0.4418 -3.9728
  334MOL0     H44045   3.040   1.602  10.586 -1.7712  0.3809  1.4944
  334MOL0     H44046   3.090   1.377  10.379  2.8370 -0.7501 -0.2231
  334MOL0     H44047   3.215   1.487  10.431  1.6938 -2.1431  2.0604
  334MOL0     H44048   3.092   1.368  10.670  0.8686  1.7737  0.1373
  334MOL0     H44049   3.251   1.393  10.638 -1.0156 -0.7817  2.5852
  334MOL0     H44050   3.321   1.305  10.349 -1.6562 -0.5524 -1.2106
  334MOL0     H44051   3.530   1.189  10.275  2.1258 -1.7389  0.8249
  334MOL0     H44052   3.759   0.737  10.189  0.6488  0.6793 -0.6777
  334MOL0     H44053   3.993   0.677  10.169 -0.2842  1.4398 -0.4719
  334MOL0     H44054   4.239   0.666  10.525 -0.2665  1.6174 -1.2023
  334MOL0     H44055   4.346   0.590  10.407  1.3487 -2.6960  3.1605
  334MOL0     H44056   4.225   0.380  10.405 -0.9866 -0.1619 -0.2781
  334MOL0     H44057   4.104   0.452  10.502  0.5511  1.6630  0.7557
  334MOL0     H44058   4.279   0.493  10.673 -2.9749 -0.7052 -1.3404
  334MOL0     H44059   4.382   0.379  10.581  1.9865 -0.2976  1.7984
  334MOL0     H44060   4.112   0.359  10.735  0.4178 -0.8527  4.2115
  334MOL0     H44061   4.158   0.222  10.646  0.6421 -0.5649  1.3207
  334MOL0     H44062   4.218   0.232  10.891 -2.4920 -0.6039 -3.1026
  334MOL0     H44063   4.350   0.336  10.846 -2.0179  2.4581 -0.1649
  334MOL0     H44064   4.428   0.103  10.871 -1.0236 -0.0256  0.5001
  334MOL0     H44065   4.473   0.204  10.734  0.2050 -1.7553 -1.3877
  334MOL0     H44066   4.255  -0.030  10.720  0.5526 -1.9464  1.4243
  334MOL0     H44067   4.313   0.086  10.585  1.9854  0.5944  0.1388
  334MOL0     H44068   4.525  -0.003  10.584 -0.2831 -0.8433 -2.1542
  334MOL0     H44069   4.398  -0.130  10.567  0.3400 -1.0364  0.5207
  334MOL0     H44070   4.041   0.678  10.593 -1.4258  1.0569  0.7867
  334MOL0     H44071   3.798   0.779  10.612 -0.7739 -1.6588  0.7094
  334MOL0     H44072   3.466   0.899  10.584  1.8220  1.4421  0.0921
  334MOL0     H44073   3.250   1.008  10.640  0.0248 -0.0139  0.4367
  334MOL0     H44074   2.008   2.391  11.054  0.0880  0.3446 -1.5340
  334MOL0     H44075   2.067   2.552  11.241 -0.4897 -1.5112  1.4023
  334MOL0     H44076   2.278   2.904  11.414 -1.8382 -1.9601  1.7886
  334MOL0     H44077   2.420   3.051  11.564 -1.0167 -0.2396  1.8427
  334MOL0     H44078   2.804   2.883  11.629 -0.1749  1.2753 -0.1031
  334MOL0     H44079   2.763   2.842  11.799 -0.5161  0.3394  0.6358
  334MOL0     H44080   2.959   2.998  11.772 -1.2620 -0.7014  0.8767
  334MOL0     H44081   2.855   3.112  11.681 -0.4491  0.7885 -1.3196
  334MOL0     H44082   2.845   3.027  11.972  1.0618  0.9852  0.9143
  334MOL0     H44083   2.727   3.138  11.917 -0.1812 -0.5464  2.2424
  334MOL0     H44084   2.870   3.259  12.023 -0.4891  0.1766 -0.7106
  334MOL0     H44085   3.013   3.197  11.952  0.8347  1.5083  0.9320
  334MOL0     H44086   2.923   3.493  11.676 -1.7436  0.1841  1.6529
  334MOL0     H44087   2.657   2.698  11.643 -0.5859 -0.9301 -3.2131
  334MOL0     H44088   2.528   2.569  11.515  4.8507  1.4950 -0.5652
  335MOL0     O44089   2.353   1.183   9.035 -0.4525 -0.0693 -1.0855
  335MOL0     C44090   2.271   1.117   8.972  0.6806  0.4273  0.2654
  335MOL0     O44091   2.154   1.051   9.019 -0.8109 -0.6773  0.1482
  335MOL0     C44092   2.106   1.089   9.145  0.0688 -0.2003  0.8609
  335MOL0     C44093   2.109   1.001   9.254  0.3169 -0.5520  0.3078
  335MOL0     C44094   2.064   1.035   9.382 -1.0541  0.3789  0.4383
  335MOL0     C44095   2.022   1.168   9.402 -0.4594  0.0549 -0.9702
  335MOL0     O44096   1.985   1.201   9.533  0.3173 -0.2551  0.0285
  335MOL0     C44097   1.987   1.347   9.562 -0.2141 -0.3307  0.0071
  335MOL0     C44098   1.980   1.360   9.711  0.2392  0.3247  0.5881
  335MOL0     C44099   1.979   1.507   9.765 -0.0144 -0.0490  0.3606
  335MOL0     C44100   1.948   1.518   9.914  1.1392  0.6166  0.3309
  335MOL0     C44101   2.057   1.516  10.018 -0.0484 -0.7236  0.2386
  335MOL0     C44102   2.115   1.378  10.043  0.1844  0.1523 -0.2506
  335MOL0     C44103   2.214   1.361  10.152  0.3785  0.7350  0.3856
  335MOL0     C44104   2.355   1.413  10.104 -0.3233  0.5864 -0.5965
  335MOL0     N44105   2.445   1.408  10.222 -0.2109 -0.2928 -0.3237
  335MOL0     C44106   2.518   1.299  10.266  0.9563  0.0804 -0.2407
  335MOL0     C44107   2.558   1.336  10.394 -0.0224 -0.2511  0.3913
  335MOL0     C44108   2.664   1.261  10.489 -0.3215  0.0926  0.0729
  335MOL0     C44109   2.635   1.300  10.640  0.6610  0.8587  0.0568
  335MOL0     C44110   2.538   1.191  10.704  0.5767 -0.3225 -0.3432
  335MOL0     C44111   2.399   1.171  10.644 -0.9104  0.3283  0.5192
  335MOL0     O44112   2.333   1.049  10.686 -0.7098 -0.1545  0.5624
  335MOL0     C44113   2.339   0.937  10.597  0.2323 -0.2082 -0.2060
  335MOL0     C44114   2.442   0.921  10.510 -0.3281  0.0882 -0.3098
  335MOL0     C44115   2.439   0.815  10.416  0.4364 -1.0824 -0.3596
  335MOL0     C44116   2.341   0.720  10.418 -0.4130  0.3675 -0.6711
  335MOL0     C44117   2.346   0.603  10.317 -0.4935 -0.2745 -0.4820
  335MOL0     O44118   2.469   0.579  10.249  0.4444  0.5203 -0.1003
  335MOL0     C44119   2.462   0.463  10.174 -0.5855 -0.5860 -0.0609
  335MOL0     C44120   2.393   0.465  10.060 -0.4145 -0.3963 -0.6459
  335MOL0     C44121   2.408   0.360   9.971 -0.2738  0.4020 -0.0626
  335MOL0     C44122   2.484   0.243   9.994  0.0292 -0.3139 -0.8664
  335MOL0     O44123   2.510   0.131   9.917  0.0385 -0.6874  0.3842
  335MOL0     C44124   2.449   0.115   9.786  0.1044  0.1883  0.2738
  335MOL0     C44125   2.509   0.002   9.706 -0.3563  0.2169  1.1683
  335MOL0     C44126   2.486  -0.140   9.764  0.6902  0.8597 -0.3204
  335MOL0     C44127   2.617  -0.181   9.841 -0.3289  0.2613 -0.1115
  335MOL0     C44128   2.600  -0.338   9.881 -0.2790 -0.1204  1.6104
  335MOL0     C44129   2.712  -0.377   9.974 -0.6277  1.3127 -0.3757
  335MOL0     C44130   2.688  -0.521  10.026 -0.3046  0.0137 -0.6396
  335MOL0     C44131   2.798  -0.570  10.128  0.5411 -0.1520  0.2478
  335MOL0    Cl44132   2.776  -0.474  10.278  1.0265 -0.3000  0.2752
  335MOL0     C44133   2.551   0.249  10.117  0.2470 -0.3462  0.3111
  335MOL0     C44134   2.547   0.362  10.199  0.3676  0.7028 -0.4875
  335MOL0     O44135   2.249   0.528  10.309 -0.1815 -1.1496  0.6609
  335MOL0     C44136   2.240   0.727  10.516 -0.1319  0.0488  0.1839
  335MOL0     C44137   2.240   0.839  10.607 -0.4075 -0.3017  0.2705
  335MOL0     N44138   2.515   1.463  10.415  0.5481 -0.4687 -0.3989
  335MOL0     N44139   2.444   1.498  10.315 -0.0250 -0.4426  0.0129
  335MOL0     C44140   2.015   1.259   9.290 -0.4440 -0.1726  0.0457
  335MOL0     C44141   2.044   1.214   9.163 -0.0507 -0.0479 -0.4265
  335MOL0     C44142   2.306   1.100   8.833 -0.3771  0.3775 -0.2792
  335MOL0     C44143   2.247   1.001   8.760 -0.0593  0.5134  1.3230
  335MOL0     C44144   2.277   0.980   8.620 -0.9455 -0.1650 -0.0335
  335MOL0     C44145   2.386   1.053   8.567 -0.3356 -0.6533 -0.3739
  335MOL0     O44146   2.420   1.029   8.436 -0.2026 -0.2880 -0.0842
  335MOL0     C44147   2.414   0.892   8.393 -1.2851  0.7367 -0.4797
  335MOL0     C44148   2.512   0.796   8.469 -0.6290  0.2883 -1.2555
  335MOL0     C44149   2.516   0.655   8.416 -0.1639  0.4420  0.0627
  335MOL0     C44150   2.641   0.571   8.451  0.3823  0.3598 -0.7847
  335MOL0     C44151   2.633   0.437   8.398 -0.5930 -0.2611  0.7485
  335MOL0     C44152   2.622   0.332   8.343  0.3420 -0.0223  0.6271
  335MOL0     C44153   2.466   1.130   8.650 -0.2747 -0.6020 -0.0232
  335MOL0     C44154   2.428   1.155   8.783 -0.3527  0.1542 -1.0769
  335MOL0     H44155   2.158   0.904   9.244  2.7747  0.2532  3.1259
  335MOL0     H44156   2.070   0.953   9.452  2.9968 -0.2223 -0.3344
  335MOL0     H44157   1.899   1.397   9.519  0.8147  1.8098  0.2581
  335MOL0     H44158   2.077   1.398   9.528 -0.0335 -1.4171 -1.1667
  335MOL0     H44159   2.063   1.302   9.751  0.3659 -0.2588 -0.4832
  335MOL0     H44160   1.890   1.306   9.742  2.5008 -1.9388  3.8788
  335MOL0     H44161   1.904   1.564   9.707 -1.3448  0.6231  2.6222
  335MOL0     H44162   2.072   1.563   9.750  0.2536 -0.5472  0.1398
  335MOL0     H44163   1.902   1.617   9.921 -1.1810 -0.4859  2.2369
  335MOL0     H44164   1.875   1.438   9.932  0.7679  0.7680 -0.4485
  335MOL0     H44165   2.014   1.544  10.114  0.6835 -0.5966  0.5324
  335MOL0     H44166   2.130   1.588   9.979 -3.0905  1.1026 -2.6550
  335MOL0     H44167   2.157   1.331   9.954 -1.0184 -1.9336  0.2085
  335MOL0     H44168   2.034   1.312  10.077 -0.9967 -0.3476 -3.6731
  335MOL0     H44169   2.185   1.410  10.245 -2.3467  1.3173 -0.6678
  335MOL0     H44170   2.220   1.254  10.175  3.8529  1.1836  2.1748
  335MOL0     H44171   2.356   1.513  10.059  0.6821  0.9676  0.2344
  335MOL0     H44172   2.394   1.342  10.032 -1.4914  1.7736 -2.4884
  335MOL0     H44173   2.540   1.199  10.229  0.7759 -0.4517  1.0444
  335MOL0     H44174   2.761   1.299  10.455  0.8062 -4.6729 -2.8991
  335MOL0     H44175   2.652   1.154  10.470  1.7963  0.0589 -1.3902
  335MOL0     H44176   2.599   1.403  10.642  0.9873  0.9791 -0.0994
  335MOL0     H44177   2.723   1.297  10.705 -1.1742 -0.6901  2.6553
  335MOL0     H44178   2.588   1.094  10.707 -1.2813 -1.4331  4.6712
  335MOL0     H44179   2.518   1.215  10.809 -1.5928 -2.5528 -0.1579
  335MOL0     H44180   2.409   1.176  10.535 -3.0068  0.0807  0.2805
  335MOL0     H44181   2.338   1.261  10.657  2.2963  2.3404  3.8124
  335MOL0     H44182   2.526   0.989  10.512 -2.4873  3.0030 -1.2964
  335MOL0     H44183   2.512   0.799  10.338 -0.2039 -4.4081 -0.4097
  335MOL0     H44184   2.319   0.545  10.058  0.2683  0.2858  0.4906
  335MOL0     H44185   2.347   0.366   9.881 -0.2222  0.2764 -0.1056
  335MOL0     H44186   2.459   0.203   9.722  1.9361 -0.6107 -0.6210
  335MOL0     H44187   2.344   0.088   9.804  0.7811  0.1819  6.0058
  335MOL0     H44188   2.615   0.020   9.690 -0.5761 -0.8920 -2.7107
  335MOL0     H44189   2.458  -0.011   9.610  2.1591 -0.9318 -0.0930
  335MOL0     H44190   2.467  -0.220   9.692 -1.5320  0.0642  1.0662
  335MOL0     H44191   2.395  -0.144   9.824  0.1186 -2.1100 -1.1851
  335MOL0     H44192   2.703  -0.176   9.773  1.6706  1.0531  2.2788
  335MOL0     H44193   2.620  -0.116   9.929 -3.2036  0.0555  0.2392
  335MOL0     H44194   2.603  -0.406   9.795 -1.5142 -1.1098  2.3168
  335MOL0     H44195   2.503  -0.358   9.927  0.0100  1.1717  2.8534
  335MOL0     H44196   2.703  -0.314  10.062 -3.8553  1.0171 -0.3757
  335MOL0     H44197   2.805  -0.368   9.917 -1.2034 -3.7026 -2.6760
  335MOL0     H44198   2.586  -0.524  10.066 -0.5060  1.2557 -1.0135
  335MOL0     H44199   2.692  -0.603   9.952 -0.4621  1.0072 -1.7817
  335MOL0     H44200   2.897  -0.566  10.082 -0.7151  1.6924 -2.6186
  335MOL0     H44201   2.770  -0.670  10.161  0.7438  0.4400  2.3676
  335MOL0     H44202   2.592   0.152  10.146 -1.2940 -1.4815 -1.0965
  335MOL0     H44203   2.606   0.357  10.290 -0.7185 -2.6181  0.1760
  335MOL0     H44204   2.162   0.653  10.530  0.9359 -1.0834  0.2767
  335MOL0     H44205   2.162   0.853  10.681  0.2463  2.4897  0.5503
  335MOL0     H44206   1.988   1.363   9.299  3.6119  1.0008  0.5382
  335MOL0     H44207   2.053   1.277   9.075  3.0905  0.2312 -0.0136
  335MOL0     H44208   2.162   0.942   8.792  0.4771 -0.6233  0.7155
  335MOL0     H44209   2.224   0.901   8.568  1.4885 -0.6558 -2.0028
  335MOL0     H44210   2.436   0.880   8.286 -1.2679  0.7656 -0.4796
  335MOL0     H44211   2.311   0.858   8.405 -0.2844 -1.7623  2.7022
  335MOL0     H44212   2.610   0.845   8.469 -1.2442  1.7008  1.0642
  335MOL0     H44213   2.483   0.786   8.574  2.8944 -0.9934 -0.2462
  335MOL0     H44214   2.510   0.657   8.307  1.8317  1.6008 -0.0775
  335MOL0     H44215   2.440   0.588   8.457  0.1703 -0.1135 -0.2143
  335MOL0     H44216   2.735   0.613   8.413  1.6902  0.5825  2.4082
  335MOL0     H44217   2.660   0.589   8.557  2.7102  4.4324 -1.6379
  335MOL0     H44218   2.607   0.246   8.281  1.9546 -0.2628  0.5377
  335MOL0     H44219   2.552   1.189   8.620 -1.3543  1.2683  0.3746
  335MOL0     H44220   2.473   1.228   8.849 -3.1726  0.9497  0.0734
  336MOL0     O44221   9.678   2.116   8.404  0.4966 -0.0222 -0.4507
  336MOL0     C44222   9.707   2.022   8.480  0.0238  0.5684 -0.5406
  336MOL0     O44223   9.836   1.975   8.510  0.3074  0.0880  0.6306
  336MOL0     C44224   9.942   2.040   8.458  0.2038  0.6596  0.3726
  336MOL0     C44225   9.948   2.179   8.450  0.4221 -0.0940  1.0428
  336MOL0     C44226  10.076   2.234   8.418 -0.7119  0.1840 -0.5940
  336MOL0     C44227  10.194   2.154   8.402  0.3880 -1.0883  0.9478
  336MOL0     O44228  10.312   2.220   8.366  0.1839  0.8517  0.3124
  336MOL0     C44229  10.419   2.140   8.302  1.1693 -0.3460  0.9672
  336MOL0     C44230  10.378   2.086   8.163  0.9070  0.3113  0.5275
  336MOL0     C44231  10.487   2.007   8.090 -0.4888  0.2804  0.7269
  336MOL0     C44232  10.461   1.986   7.944 -0.2848 -0.6782 -0.5742
  336MOL0     C44233  10.354   1.880   7.924  0.3110  0.0013  0.1191
  336MOL0     C44234  10.367   1.818   7.788 -0.0934 -1.1114 -0.5491
  336MOL0     C44235  10.252   1.701   7.772  0.1015 -0.4801  0.7311
  336MOL0     C44236  10.278   1.584   7.678  0.3590 -0.9423 -0.1098
  336MOL0     N44237  10.308   1.629   7.542  0.0646 -0.4270 -0.2421
  336MOL0     C44238  10.224   1.686   7.453 -0.5631  0.6084 -0.4292
  336MOL0     C44239  10.294   1.690   7.341  1.9480 -0.4789 -0.0309
  336MOL0     C44240  10.228   1.732   7.212  0.2486  0.3519  0.4767
  336MOL0     C44241  10.230   1.620   7.111  1.1100  0.7194 -0.6341
  336MOL0     C44242  10.364   1.613   7.046 -0.2244  0.7824  0.9492
  336MOL0     C44243  10.354   1.529   6.918  0.1586  0.0592  0.0961
  336MOL0     O44244  10.377   1.385   6.962 -1.0544  0.5982 -0.0872
  336MOL0     C44245  10.286   1.295   6.920  0.6106  0.2420  0.1952
  336MOL0     C44246  10.243   1.205   7.017 -0.5029  0.7180 -0.8323
  336MOL0     C44247  10.146   1.104   6.991 -0.4307 -1.5295 -1.6912
  336MOL0     C44248  10.088   1.105   6.861  1.2552 -0.3263 -0.7327
  336MOL0     C44249   9.975   1.016   6.828 -0.3523 -0.1376 -0.7408
  336MOL0     O44250   9.948   0.992   6.697  0.2435 -0.0794  1.1393
  336MOL0     C44251   9.893   0.880   6.655  0.9147  0.1123  0.6689
  336MOL0     C44252   9.883   0.762   6.730 -0.8305 -0.0904 -0.2308
  336MOL0     C44253   9.804   0.657   6.682  0.9335 -1.1492 -0.4351
  336MOL0     C44254   9.738   0.659   6.551 -0.9725  0.1679  0.5164
  336MOL0     O44255   9.671   0.552   6.496 -0.4290  0.1081 -0.0765
  336MOL0     C44256   9.692   0.421   6.554  0.1613  1.2353  0.2653
  336MOL0     C44257   9.614   0.324   6.461 -0.7546  0.2562 -0.2670
  336MOL0     C44258   9.469   0.339   6.480 -0.0881  0.1839  0.4263
  336MOL0     C44259   9.400   0.235   6.387 -0.0026 -0.2886  0.4962
  336MOL0     C44260   9.248   0.241   6.420 -0.2249 -1.4839 -0.2115
  336MOL0     C44261   9.181   0.147   6.330 -0.2049  0.4690  1.3306
  336MOL0     C44262   9.163   0.214   6.194  0.7008  0.2741 -0.4086
  336MOL0     C44263   9.092   0.121   6.099  0.1426 -0.5967  0.3722
  336MOL0    Cl44264   9.184  -0.035   6.074  0.3148 -0.0431 -0.0005
  336MOL0     C44265   9.759   0.772   6.473 -0.4653 -0.9186 -1.0245
  336MOL0     C44266   9.832   0.880   6.528  0.7204 -0.0283  0.5425
  336MOL0     O44267   9.913   0.968   6.921 -0.3859  0.2670 -0.3648
  336MOL0     C44268  10.137   1.196   6.772 -0.1558  0.4175  0.9348
  336MOL0     C44269  10.227   1.292   6.798 -1.1569  0.2324  0.4653
  336MOL0     N44270  10.421   1.657   7.362  0.1628  0.8260 -0.3954
  336MOL0     N44271  10.431   1.613   7.485  0.1125 -0.1333 -0.2509
  336MOL0     C44272  10.176   2.021   8.410 -0.5377 -0.3533 -0.1175
  336MOL0     C44273  10.064   1.963   8.450  0.4760 -0.9468  0.3393
  336MOL0     C44274   9.589   1.951   8.526  0.6670 -0.7265 -0.0587
  336MOL0     C44275   9.478   2.027   8.583  0.2597 -0.2140  0.3382
  336MOL0     C44276   9.360   1.964   8.617 -0.1956 -0.4720  0.1879
  336MOL0     C44277   9.348   1.820   8.600  0.3866  0.5326  0.0413
  336MOL0     O44278   9.223   1.771   8.642 -0.6527  0.2480 -0.5424
  336MOL0     C44279   9.211   1.642   8.710  0.0543 -0.0193 -0.2926
  336MOL0     C44280   9.076   1.600   8.758  0.1153 -0.0883 -0.9467
  336MOL0     C44281   8.990   1.724   8.799  0.1986 -0.5705  0.2631
  336MOL0     C44282   8.862   1.693   8.869  0.6448 -0.1462 -1.5710
  336MOL0     C44283   8.875   1.616   8.996 -0.7599  0.1464 -0.6756
  336MOL0     C44284   8.887   1.560   9.111 -0.2505  0.2479  0.7094
  336MOL0     C44285   9.453   1.747   8.548 -0.3132 -0.5217  0.1769
  336MOL0     C44286   9.570   1.813   8.512  0.6091 -0.1594 -0.3830
  336MOL0     H44287   9.868   2.250   8.469 -1.2698 -1.7636  0.5153
  336MOL0     H44288  10.068   2.342   8.423  3.7756  0.6830  3.9453
  336MOL0     H44289  10.467   2.067   8.367  3.1406 -0.8032 -0.8945
  336MOL0     H44290  10.494   2.213   8.271 -0.6608  0.5007 -1.7946
  336MOL0     H44291  10.354   2.175   8.104  1.2993 -0.5553 -0.9889
  336MOL0     H44292  10.286   2.027   8.162  1.6306 -0.8686 -1.5296
  336MOL0     H44293  10.508   1.907   8.130  1.0221 -0.8256 -2.5279
  336MOL0     H44294  10.580   2.062   8.100  0.1074 -0.9188  2.2172
  336MOL0     H44295  10.424   2.074   7.889  0.2184  0.0108  0.1643
  336MOL0     H44296  10.549   1.959   7.886 -1.3654 -3.2112 -1.1398
  336MOL0     H44297  10.255   1.924   7.935 -1.7217 -3.5634 -1.8527
  336MOL0     H44298  10.367   1.808   8.006 -0.1615 -0.5053 -0.2426
  336MOL0     H44299  10.467   1.778   7.767  1.3426  1.7893  0.2300
  336MOL0     H44300  10.345   1.906   7.727 -1.0088  0.4361  1.8550
  336MOL0     H44301  10.238   1.640   7.862 -1.7287 -1.7672 -0.3551
  336MOL0     H44302  10.152   1.743   7.755  0.0213 -1.5597 -2.0551
  336MOL0     H44303  10.196   1.512   7.684 -2.5365  2.2390  2.9109
  336MOL0     H44304  10.358   1.527   7.725 -0.0375 -2.7780 -1.5528
  336MOL0     H44305  10.119   1.712   7.460 -0.6225  0.9627 -2.1491
  336MOL0     H44306  10.273   1.827   7.183  0.6592  0.8971  2.7065
  336MOL0     H44307  10.122   1.747   7.232 -0.3346  1.4330 -2.8581
  336MOL0     H44308  10.161   1.640   7.029  2.4670  1.9453 -1.5222
  336MOL0     H44309  10.200   1.528   7.163 -0.4500  1.3269 -0.3958
  336MOL0     H44310  10.390   1.713   7.010 -0.8972  1.2281  1.6662
  336MOL0     H44311  10.450   1.592   7.112  0.4969  2.7467  0.7252
  336MOL0     H44312  10.443   1.549   6.857 -1.1065  0.9798 -1.5130
  336MOL0     H44313  10.266   1.556   6.860  1.3155 -0.7711 -2.1755
  336MOL0     H44314  10.294   1.209   7.112  0.4150 -0.2687 -1.2665
  336MOL0     H44315  10.112   1.027   7.059  0.5338 -0.1367  0.4531
  336MOL0     H44316   9.939   0.758   6.822  0.9438  1.9131 -1.1312
  336MOL0     H44317   9.784   0.581   6.757 -3.7842  0.3620  0.2049
  336MOL0     H44318   9.653   0.421   6.657 -1.4768  0.4935 -0.3240
  336MOL0     H44319   9.799   0.398   6.556  0.6170  2.9099  3.9200
  336MOL0     H44320   9.648   0.221   6.463 -0.0863  0.4730 -0.1735
  336MOL0     H44321   9.634   0.347   6.356 -0.0771 -2.1926 -0.7373
  336MOL0     H44322   9.446   0.444   6.460 -3.4448 -0.3758  0.7622
  336MOL0     H44323   9.445   0.317   6.585  2.4443 -1.6092  0.7137
  336MOL0     H44324   9.402   0.258   6.280 -0.6054 -0.8867  0.3532
  336MOL0     H44325   9.445   0.136   6.394 -2.3251 -1.8839 -3.5697
  336MOL0     H44326   9.213   0.344   6.406 -1.1293 -1.6696  0.5839
  336MOL0     H44327   9.232   0.214   6.525 -3.3048 -0.0126 -0.1958
  336MOL0     H44328   9.083   0.122   6.371  0.2402 -0.1527  2.0380
  336MOL0     H44329   9.243   0.058   6.318  0.0765  0.4898  2.5067
  336MOL0     H44330   9.108   0.305   6.217  0.3922  0.5915 -2.2177
  336MOL0     H44331   9.258   0.238   6.145  0.8618 -1.9716 -1.2937
  336MOL0     H44332   9.071   0.178   6.008  1.4584 -1.1076 -0.2858
  336MOL0     H44333   8.995   0.086   6.135 -0.9006  0.6383 -1.1202
  336MOL0     H44334   9.721   0.762   6.372 -2.9496  2.8386 -0.6571
  336MOL0     H44335   9.855   0.963   6.462  0.4298 -0.3526  0.0261
  336MOL0     H44336  10.100   1.199   6.670 -0.9866  0.2010  1.2168
  336MOL0     H44337  10.263   1.359   6.721 -2.6582  0.1158 -0.3629
  336MOL0     H44338  10.272   1.970   8.402  1.1021  2.8272 -4.2061
  336MOL0     H44339  10.046   1.857   8.458 -1.5136 -0.6937 -0.1738
  336MOL0     H44340   9.489   2.134   8.591  2.0790 -0.3684  0.2903
  336MOL0     H44341   9.281   2.026   8.659  0.2161  1.0913 -1.2400
  336MOL0     H44342   9.273   1.644   8.800 -0.3416 -1.7146  0.0579
  336MOL0     H44343   9.253   1.566   8.643 -2.3212 -3.1095  1.4827
  336MOL0     H44344   9.023   1.555   8.673 -1.9153  0.7027 -0.1699
  336MOL0     H44345   9.084   1.530   8.841 -0.3785 -1.4248 -1.9734
  336MOL0     H44346   8.958   1.785   8.713 -0.4013 -1.1533  0.0621
  336MOL0     H44347   9.047   1.787   8.867  0.7732 -0.6676 -0.1187
  336MOL0     H44348   8.813   1.786   8.898 -1.3769 -2.5331  3.9628
  336MOL0     H44349   8.809   1.631   8.795  1.1452 -1.2512 -1.0129
  336MOL0     H44350   8.888   1.497   9.198  3.9726 -5.0657 -2.5507
  336MOL0     H44351   9.459   1.640   8.534  3.4453 -0.5664  1.0696
  336MOL0     H44352   9.656   1.756   8.479 -0.0434 -2.9305  2.2989
  337MOL0     O44353   7.631   9.040   4.607 -0.4319 -0.1882  0.4424
  337MOL0     C44354   7.697   9.138   4.563  0.3733 -0.5611 -0.1765
  337MOL0     O44355   7.824   9.138   4.512 -0.4093 -0.1540 -0.0086
  337MOL0     C44356   7.903   9.028   4.526  0.6794  0.3220  0.6124
  337MOL0     C44357   7.921   8.971   4.651 -0.1515  1.0517 -0.1523
  337MOL0     C44358   8.025   8.881   4.674 -1.2819 -0.0229  0.5459
  337MOL0     C44359   8.099   8.827   4.562  0.4175  0.0667  0.4486
  337MOL0     O44360   8.194   8.734   4.583  0.0737  1.1731 -0.4991
  337MOL0     C44361   8.303   8.779   4.667 -0.2646 -0.5003 -0.5112
  337MOL0     C44362   8.409   8.863   4.595  0.0782  0.3856  0.0460
  337MOL0     C44363   8.468   8.796   4.465 -0.4566 -0.4531 -0.0633
  337MOL0     C44364   8.605   8.859   4.428  0.2850  0.2985 -0.1876
  337MOL0     C44365   8.689   8.752   4.345  0.0306  0.1998 -0.3049
  337MOL0     C44366   8.832   8.790   4.302  0.8704  0.1922 -0.4466
  337MOL0     C44367   8.914   8.671   4.241 -0.1671  0.2604 -0.6440
  337MOL0     C44368   9.064   8.709   4.218  0.5036  0.1045 -0.2745
  337MOL0     N44369   9.145   8.703   4.348 -0.5609  0.8846 -0.1620
  337MOL0     C44370   9.238   8.802   4.382 -1.2497  0.0802  0.1338
  337MOL0     C44371   9.300   8.751   4.488 -0.4155  0.3330 -0.4314
  337MOL0     C44372   9.394   8.836   4.573 -0.2025 -0.2865  0.2357
  337MOL0     C44373   9.319   8.944   4.651  0.1096  0.0966  0.0749
  337MOL0     C44374   9.207   8.892   4.742 -0.1926  0.0647 -1.2311
  337MOL0     C44375   9.171   8.962   4.879  1.0250  0.2017 -0.6413
  337MOL0     O44376   9.089   8.869   4.963  0.4202  0.7435  0.3955
  337MOL0     C44377   8.952   8.889   4.969  0.6843 -0.5203  0.0408
  337MOL0     C44378   8.884   8.828   5.071 -0.3194  0.3873  0.1297
  337MOL0     C44379   8.748   8.828   5.087 -0.5864 -0.7625  0.0445
  337MOL0     C44380   8.669   8.902   5.001  0.4008 -0.0316 -0.1798
  337MOL0     C44381   8.529   8.910   5.021  0.3720 -0.0091  0.6579
  337MOL0     O44382   8.488   8.856   5.134 -0.1033 -0.3088  0.1515
  337MOL0     C44383   8.351   8.840   5.139 -0.1915  0.5033 -0.3318
  337MOL0     C44384   8.257   8.940   5.150 -0.6498 -0.8455  0.0440
  337MOL0     C44385   8.119   8.910   5.131  0.6997 -0.6958 -0.4221
  337MOL0     C44386   8.072   8.783   5.119 -0.2601  0.7108 -0.2498
  337MOL0     O44387   7.941   8.742   5.098  0.1883  0.1481 -1.2196
  337MOL0     C44388   7.847   8.846   5.102  0.2153 -0.1827 -0.0285
  337MOL0     C44389   7.712   8.787   5.074 -0.4211  0.5174 -1.0926
  337MOL0     C44390   7.666   8.677   5.172  0.2149 -0.5344  0.6460
  337MOL0     C44391   7.575   8.573   5.103 -0.2065  0.6677 -0.6255
  337MOL0     C44392   7.420   8.616   5.088  0.0251  0.0938  0.3062
  337MOL0     C44393   7.339   8.613   5.215  0.4673  0.5845 -0.4978
  337MOL0     C44394   7.311   8.466   5.264  0.1293 -0.5123  0.3247
  337MOL0     C44395   7.232   8.470   5.400  0.8812  1.4456 -0.7815
  337MOL0    Cl44396   7.349   8.456   5.525 -0.3046  0.1715 -0.3397
  337MOL0     C44397   8.166   8.679   5.132 -0.6800  0.0127  0.2378
  337MOL0     C44398   8.304   8.711   5.147  0.2947  0.7748  0.8506
  337MOL0     O44399   8.462   8.965   4.938  0.3512 -0.0190  0.3546
  337MOL0     C44400   8.728   8.968   4.889 -1.1239  0.7321  0.0477
  337MOL0     C44401   8.871   8.967   4.876 -0.5438  0.2297 -1.0157
  337MOL0     N44402   9.256   8.625   4.514  0.2069  0.3464 -0.0157
  337MOL0     N44403   9.171   8.589   4.419  0.2454 -0.7301  0.1474
  337MOL0     C44404   8.067   8.883   4.433  0.5540 -0.6867  0.3394
  337MOL0     C44405   7.961   8.974   4.414  0.1220  1.0978  0.4892
  337MOL0     C44406   7.627   9.266   4.545 -0.1603  0.1177  0.1296
  337MOL0     C44407   7.491   9.271   4.549 -0.2627 -0.1419 -1.2903
  337MOL0     C44408   7.410   9.393   4.520  0.3253 -0.3916  1.7423
  337MOL0     C44409   7.482   9.514   4.484  0.8484  0.4015  0.7854
  337MOL0     O44410   7.402   9.616   4.457  0.1720  0.6043  0.4697
  337MOL0     C44411   7.350   9.689   4.572  0.3171 -1.1184  0.6127
  337MOL0     C44412   7.308   9.840   4.523 -0.8287  0.3119 -0.6398
  337MOL0     C44413   7.299   9.927   4.649 -0.2848  0.4554 -0.2669
  337MOL0     C44414   7.403  10.034   4.675  0.2058  0.6044 -0.3549
  337MOL0     C44415   7.535   9.974   4.689 -0.8975  0.3386 -0.7157
  337MOL0     C44416   7.645   9.914   4.697 -0.2870 -0.9471 -0.3969
  337MOL0     C44417   7.620   9.520   4.487  0.6838  0.1714  0.4794
  337MOL0     C44418   7.687   9.396   4.511 -0.6042  0.6940  0.4745
  337MOL0     H44419   7.869   9.014   4.735 -0.5354 -1.6922  1.1262
  337MOL0     H44420   8.037   8.845   4.776  0.2745 -1.1623  0.0067
  337MOL0     H44421   8.360   8.695   4.709  2.0055 -0.7474 -3.7078
  337MOL0     H44422   8.255   8.843   4.742  0.7493 -1.4374  0.9863
  337MOL0     H44423   8.495   8.869   4.663 -0.0507  1.3623  0.1461
  337MOL0     H44424   8.360   8.953   4.557  0.2558  0.0060 -1.1117
  337MOL0     H44425   8.402   8.798   4.378 -0.5481  1.0008  0.0214
  337MOL0     H44426   8.485   8.690   4.483  1.2477 -0.7532 -2.8747
  337MOL0     H44427   8.595   8.949   4.367  1.5307  1.3423  1.0764
  337MOL0     H44428   8.659   8.888   4.518 -0.9523 -1.4678  1.1981
  337MOL0     H44429   8.634   8.717   4.257 -0.8758  1.0799 -0.1053
  337MOL0     H44430   8.697   8.659   4.402  2.7737  1.2553  1.2098
  337MOL0     H44431   8.892   8.835   4.382 -1.2191  2.7057 -0.1735
  337MOL0     H44432   8.834   8.870   4.227 -1.9625  1.8074  1.0579
  337MOL0     H44433   8.916   8.590   4.314  2.0610  1.7275  1.0680
  337MOL0     H44434   8.870   8.622   4.154 -0.2958 -1.6169  0.4378
  337MOL0     H44435   9.085   8.799   4.160  0.9420  1.6661  2.1964
  337MOL0     H44436   9.110   8.625   4.164  0.9451  0.7922 -0.9894
  337MOL0     H44437   9.245   8.906   4.349 -1.9607 -0.6409 -2.5164
  337MOL0     H44438   9.458   8.883   4.497 -1.2121  3.6751  1.5939
  337MOL0     H44439   9.448   8.781   4.650 -0.0050 -2.0523 -1.1024
  337MOL0     H44440   9.277   9.022   4.587 -2.0173 -0.1757  1.0652
  337MOL0     H44441   9.400   8.981   4.714  0.7563 -1.3725  0.1567
  337MOL0     H44442   9.117   8.873   4.683  1.3392 -2.1548 -3.0221
  337MOL0     H44443   9.239   8.796   4.784 -3.2536 -0.2231  0.6882
  337MOL0     H44444   9.123   9.060   4.867 -0.0925  0.4210  3.9663
  337MOL0     H44445   9.263   8.978   4.934  0.5855  2.5378 -0.4787
  337MOL0     H44446   8.945   8.766   5.137  0.0489  2.3415  1.7190
  337MOL0     H44447   8.703   8.760   5.159 -3.1181  0.4363 -0.2740
  337MOL0     H44448   8.291   9.043   5.156 -0.9397 -0.8110  2.5023
  337MOL0     H44449   8.066   9.003   5.111  0.9282  0.2438  2.8429
  337MOL0     H44450   7.860   8.921   5.024 -2.0244  0.8667  0.5198
  337MOL0     H44451   7.850   8.901   5.197  2.2898  1.0726 -0.7316
  337MOL0     H44452   7.721   8.739   4.977 -0.5563 -0.8639 -0.4479
  337MOL0     H44453   7.636   8.864   5.060 -0.6311  1.2458  2.8598
  337MOL0     H44454   7.611   8.715   5.259 -1.4444 -0.1627 -0.5159
  337MOL0     H44455   7.757   8.623   5.201  1.9066  3.1948  2.9641
  337MOL0     H44456   7.607   8.550   5.001  0.9833 -0.1384 -0.0831
  337MOL0     H44457   7.574   8.484   5.167  0.4782 -0.7222 -2.4472
  337MOL0     H44458   7.375   8.550   5.014 -0.1699 -0.5615  0.9944
  337MOL0     H44459   7.423   8.720   5.056  1.1270  0.4749  1.5073
  337MOL0     H44460   7.242   8.660   5.201 -0.6158 -1.0656  0.9737
  337MOL0     H44461   7.385   8.675   5.292  1.0398 -0.1416 -0.2396
  337MOL0     H44462   7.244   8.413   5.196 -2.0242 -1.2924  2.8859
  337MOL0     H44463   7.404   8.411   5.279  0.6344  0.4021  0.6530
  337MOL0     H44464   7.177   8.375   5.407  0.1183  2.0163  2.0763
  337MOL0     H44465   7.163   8.554   5.410  0.5799  1.0601  0.5883
  337MOL0     H44466   8.125   8.579   5.125  1.1221 -0.6220 -2.1478
  337MOL0     H44467   8.372   8.627   5.155  1.3961  1.6992  1.7469
  337MOL0     H44468   8.663   9.011   4.814 -3.2854 -0.6737  1.0177
  337MOL0     H44469   8.923   9.009   4.791 -0.9249  1.4472 -0.6696
  337MOL0     H44470   8.115   8.852   4.341  1.2103 -2.8519  1.3279
  337MOL0     H44471   7.937   9.010   4.314  0.6463 -0.9099 -0.3976
  337MOL0     H44472   7.437   9.181   4.575 -0.5005  0.4405  0.3389
  337MOL0     H44473   7.303   9.381   4.528  0.6808 -6.6372  2.2764
  337MOL0     H44474   7.427   9.701   4.649  1.8836  1.8431 -1.2238
  337MOL0     H44475   7.257   9.644   4.607  0.4692 -2.3345 -0.4732
  337MOL0     H44476   7.393   9.882   4.469  0.0175  0.5472  0.8303
  337MOL0     H44477   7.230   9.848   4.446  0.4387 -0.2814 -2.0290
  337MOL0     H44478   7.290   9.867   4.740 -2.4510  0.9439 -0.1090
  337MOL0     H44479   7.200   9.974   4.643  0.2383  2.0512  2.0469
  337MOL0     H44480   7.402  10.098   4.586 -3.6565 -1.1944 -1.8520
  337MOL0     H44481   7.386  10.092   4.766  2.3353  1.8243 -0.6685
  337MOL0     H44482   7.744   9.880   4.720 -0.6795  0.0496  3.2945
  337MOL0     H44483   7.675   9.609   4.456 -1.3832  1.8467  1.3966
  337MOL0     H44484   7.794   9.395   4.498 -0.8909 -0.3014 -2.3930
  338MOL0     O44485   0.628   0.913  10.802 -0.3675  0.3506 -0.0890
  338MOL0     C44486   0.567   0.818  10.756 -1.0179  0.4453 -0.3153
  338MOL0     O44487   0.541   0.702  10.825 -0.7464 -1.0326 -0.0337
  338MOL0     C44488   0.420   0.693  10.874  0.7483  0.9185  0.2496
  338MOL0     C44489   0.332   0.793  10.925 -0.0618 -0.4860  0.4307
  338MOL0     C44490   0.210   0.758  10.970  0.8357  0.1108 -0.6413
  338MOL0     C44491   0.180   0.622  10.995 -0.8546 -0.9507 -0.4743
  338MOL0     O44492   0.065   0.591  11.047  0.2617  0.1250  0.0802
  338MOL0     C44493   0.083   0.548  11.190  0.1882 -0.3350  0.0736
  338MOL0     C44494  -0.043   0.550  11.275 -0.4658 -0.4417 -0.0390
  338MOL0     C44495  -0.162   0.510  11.188 -0.9927 -0.9925  0.6930
  338MOL0     C44496  -0.295   0.476  11.257  0.5273 -0.1390  0.6023
  338MOL0     C44497  -0.344   0.588  11.348 -0.3378  0.4312 -0.9810
  338MOL0     C44498  -0.495   0.565  11.381 -0.4864  0.8978  0.2524
  338MOL0     C44499  -0.602   0.579  11.267  0.1864 -0.0185 -0.1130
  338MOL0     C44500  -0.749   0.561  11.316 -0.2015  0.3628  0.0835
  338MOL0     N44501  -0.859   0.608  11.230  0.4633 -0.9064 -0.1998
  338MOL0     C44502  -0.879   0.555  11.111  0.8275  0.8714 -0.3063
  338MOL0     C44503  -1.007   0.595  11.079  0.0692 -0.3086  0.3223
  338MOL0     C44504  -1.073   0.544  10.961  0.9099  0.0259  0.5452
  338MOL0     C44505  -1.103   0.655  10.860  0.2879  0.0290 -0.8882
  338MOL0     C44506  -1.095   0.592  10.714  0.1005  1.0036  0.4090
  338MOL0     C44507  -1.216   0.506  10.687 -0.0387  0.5153 -0.5247
  338MOL0     O44508  -1.344   0.573  10.674 -0.1188  0.5174 -0.5087
  338MOL0     C44509  -1.362   0.678  10.591 -0.5764  0.2303  0.2955
  338MOL0     C44510  -1.381   0.808  10.641 -0.2021 -0.4803 -0.8413
  338MOL0     C44511  -1.381   0.915  10.554 -0.5994  0.1360  0.2492
  338MOL0     C44512  -1.380   0.893  10.418 -0.0740 -0.4541 -0.1657
  338MOL0     C44513  -1.376   1.013  10.326 -0.4512 -0.1569 -0.2623
  338MOL0     O44514  -1.348   1.000  10.193 -0.2298 -0.5181 -0.3722
  338MOL0     C44515  -1.340   1.106  10.101 -0.0754  0.5178  0.2555
  338MOL0     C44516  -1.378   1.080   9.969  0.1985 -0.1227  0.0956
  338MOL0     C44517  -1.368   1.174   9.869  1.0142  0.3203  0.9055
  338MOL0     C44518  -1.340   1.308   9.884 -0.6254 -0.0002  0.1402
  338MOL0     O44519  -1.341   1.396   9.770 -0.2758  0.5544  1.2291
  338MOL0     C44520  -1.405   1.520   9.799 -0.2653  0.9506  0.6997
  338MOL0     C44521  -1.435   1.600   9.679  0.9653  0.4549 -1.0216
  338MOL0     C44522  -1.502   1.729   9.720 -0.2768 -0.8441  0.1992
  338MOL0     C44523  -1.422   1.822   9.807 -0.3342 -0.0771 -0.1276
  338MOL0     C44524  -1.466   1.970   9.796 -0.0051  0.1156 -1.0724
  338MOL0     C44525  -1.623   1.982   9.801 -1.2889  0.4168 -0.1746
  338MOL0     C44526  -1.656   2.123   9.794  0.6826  0.1525  0.2594
  338MOL0     C44527  -1.810   2.133   9.794 -1.1155 -0.1779 -0.6513
  338MOL0    Cl44528  -1.875   2.054   9.645 -0.2518  0.0676 -0.1810
  338MOL0     C44529  -1.295   1.338  10.023  1.1850 -0.3560  1.0778
  338MOL0     C44530  -1.289   1.233  10.128  0.7119  0.8174  0.0109
  338MOL0     O44531  -1.373   1.123  10.384  0.5148  0.7047  0.2254
  338MOL0     C44532  -1.372   0.765  10.357 -0.0434  0.5507  0.3029
  338MOL0     C44533  -1.370   0.655  10.452  0.3273 -0.1846 -0.7048
  338MOL0     N44534  -1.055   0.686  11.173 -1.0551  0.6443  0.6354
  338MOL0     N44535  -0.960   0.689  11.267 -0.5344  0.5312 -0.4992
  338MOL0     C44536   0.263   0.520  10.955 -0.3480 -0.1003  1.4327
  338MOL0     C44537   0.381   0.556  10.883  0.6494 -0.4695 -0.5344
  338MOL0     C44538   0.501   0.828  10.625  0.1655 -0.6642 -0.5894
  338MOL0     C44539   0.445   0.957  10.594  0.2252  0.6254  1.6183
  338MOL0     C44540   0.363   0.965  10.474  0.0502 -1.0997 -0.0539
  338MOL0     C44541   0.335   0.857  10.398  0.1642  0.2968  0.0544
  338MOL0     O44542   0.262   0.853  10.280 -0.6273  0.0604 -0.2878
  338MOL0     C44543   0.197   0.972  10.229 -0.2272 -0.8664  0.6841
  338MOL0     C44544   0.105   0.954  10.104 -0.3097 -0.3195 -0.5118
  338MOL0     C44545  -0.010   0.860  10.147 -0.2899  0.7592 -0.6901
  338MOL0     C44546   0.013   0.714  10.117 -0.2884 -0.2706  0.5336
  338MOL0     C44547  -0.117   0.648  10.108 -0.0036 -0.4811  0.7757
  338MOL0     C44548  -0.233   0.604  10.103  0.5775  0.0583  0.6766
  338MOL0     C44549   0.396   0.733  10.437 -0.3336  0.1632 -0.4294
  338MOL0     C44550   0.480   0.713  10.547 -0.1531  0.2266  0.0692
  338MOL0     H44551   0.366   0.896  10.930  1.9755 -1.0335 -0.8995
  338MOL0     H44552   0.154   0.847  10.998 -0.4565 -0.6979 -0.5995
  338MOL0     H44553   0.155   0.608  11.245  0.4375 -0.4879 -0.0824
  338MOL0     H44554   0.121   0.446  11.198  1.8764  0.2417 -0.3074
  338MOL0     H44555  -0.060   0.651  11.313 -0.7364 -1.3973  2.5860
  338MOL0     H44556  -0.028   0.479  11.357  2.2516  0.2770  0.1829
  338MOL0     H44557  -0.130   0.422  11.131 -0.0934 -0.7671  0.8290
  338MOL0     H44558  -0.181   0.592  11.118  3.1256 -0.6291 -0.2352
  338MOL0     H44559  -0.376   0.454  11.187 -0.3548  1.8179  0.9468
  338MOL0     H44560  -0.285   0.387  11.321  1.1089  0.6175  1.5921
  338MOL0     H44561  -0.323   0.691  11.315 -1.9417  0.6191 -1.4978
  338MOL0     H44562  -0.304   0.566  11.447 -0.7616 -3.1696 -1.5020
  338MOL0     H44563  -0.521   0.625  11.468 -2.1998 -1.2214  1.3102
  338MOL0     H44564  -0.511   0.464  11.420 -3.1836  1.3310  0.4883
  338MOL0     H44565  -0.597   0.678  11.221 -1.2600 -1.2837 -3.2552
  338MOL0     H44566  -0.584   0.510  11.185 -0.9844  2.0993 -2.2608
  338MOL0     H44567  -0.766   0.609  11.413 -2.8154  0.9154 -0.5855
  338MOL0     H44568  -0.757   0.453  11.327  2.4699 -0.0329 -0.9907
  338MOL0     H44569  -0.819   0.486  11.052 -1.8423  0.9991 -3.4546
  338MOL0     H44570  -1.154   0.481  10.997 -3.2380  2.4368 -3.5815
  338MOL0     H44571  -0.991   0.486  10.918  1.0142 -2.0911  3.3074
  338MOL0     H44572  -1.041   0.742  10.883  0.1115 -0.2075  0.6355
  338MOL0     H44573  -1.207   0.686  10.865  0.4650  0.6373 -0.9784
  338MOL0     H44574  -1.086   0.665  10.633 -1.0884  1.4739  0.6700
  338MOL0     H44575  -1.009   0.524  10.709  0.3041  1.0140  2.5404
  338MOL0     H44576  -1.215   0.436  10.772 -0.5471 -0.8834 -1.6417
  338MOL0     H44577  -1.206   0.438  10.603 -2.2766  0.1044 -0.5267
  338MOL0     H44578  -1.390   0.812  10.749 -0.6336 -3.7992 -0.6609
  338MOL0     H44579  -1.376   1.015  10.596  0.6174  0.4874 -0.6694
  338MOL0     H44580  -1.408   0.978   9.945 -0.7302  0.6564 -2.3434
  338MOL0     H44581  -1.390   1.135   9.770  0.1746  1.5929  0.5679
  338MOL0     H44582  -1.344   1.566   9.878 -0.8486  1.1609  1.0332
  338MOL0     H44583  -1.497   1.494   9.851 -1.9726  3.3790 -0.8987
  338MOL0     H44584  -1.495   1.547   9.606  2.7615 -4.2538  0.5666
  338MOL0     H44585  -1.345   1.619   9.619  0.7674 -2.1203 -2.2474
  338MOL0     H44586  -1.605   1.717   9.757 -0.8086  0.5259 -0.7579
  338MOL0     H44587  -1.519   1.779   9.624 -0.2155 -1.8150 -0.3253
  338MOL0     H44588  -1.430   1.785   9.909 -1.6281  1.4424  0.3606
  338MOL0     H44589  -1.313   1.824   9.791 -0.3873 -1.0306 -0.7104
  338MOL0     H44590  -1.437   2.010   9.698 -2.4324  0.5258 -1.6723
  338MOL0     H44591  -1.412   2.031   9.869 -1.6202  1.3388 -0.8612
  338MOL0     H44592  -1.665   1.930   9.887  0.3150 -2.0222 -0.7509
  338MOL0     H44593  -1.653   1.931   9.708 -1.5893  3.2544 -1.7556
  338MOL0     H44594  -1.612   2.167   9.884 -1.5943 -1.5336  2.3592
  338MOL0     H44595  -1.621   2.175   9.705 -1.8548 -3.2295 -3.0092
  338MOL0     H44596  -1.841   2.237   9.807  1.2780  0.5422 -0.1101
  338MOL0     H44597  -1.851   2.084   9.883  1.3754  1.7828  1.7344
  338MOL0     H44598  -1.249   1.433  10.049  2.7859 -1.2638  1.6727
  338MOL0     H44599  -1.257   1.269  10.225 -1.0146  0.8019  0.6227
  338MOL0     H44600  -1.355   0.763  10.250 -0.8896  2.2586  0.1021
  338MOL0     H44601  -1.368   0.550  10.425 -3.3374 -0.3662 -0.7797
  338MOL0     H44602   0.239   0.414  10.958  0.8084 -0.4892 -0.7836
  338MOL0     H44603   0.444   0.474  10.852  1.4168  1.5621 -5.3865
  338MOL0     H44604   0.473   1.045  10.650 -4.0882  2.4772  1.2606
  338MOL0     H44605   0.319   1.060  10.446  2.6000  0.8919  2.0894
  338MOL0     H44606   0.267   1.052  10.200 -2.7207  1.1784 -0.0946
  338MOL0     H44607   0.142   1.028  10.304 -0.4407  0.9975 -0.7648
  338MOL0     H44608   0.053   1.047  10.080  0.3058 -0.3810 -2.2332
  338MOL0     H44609   0.160   0.913  10.019 -3.4643  1.6653 -3.7395
  338MOL0     H44610  -0.104   0.883  10.094 -2.8144 -3.8096  1.2172
  338MOL0     H44611  -0.035   0.865  10.254 -0.2299  0.5209 -0.6652
  338MOL0     H44612   0.066   0.706  10.022  0.7995  1.8803  0.8898
  338MOL0     H44613   0.072   0.682  10.204  0.5263  0.6881  0.3503
  338MOL0     H44614  -0.336   0.581  10.084 -0.2264  2.5670  1.5961
  338MOL0     H44615   0.364   0.642  10.386  1.2735 -0.1657 -0.9131
  338MOL0     H44616   0.530   0.625  10.587 -0.6058 -0.7041 -1.3395
  339MOL0     O44617   6.941   5.346   5.276  0.6716  0.5168 -0.8041
  339MOL0     C44618   6.871   5.245   5.259  0.3413  0.8713 -0.6914
  339MOL0     O44619   6.899   5.148   5.173  0.2701  0.2591  0.5393
  339MOL0     C44620   7.015   5.147   5.098  0.1362  0.0335  0.0799
  339MOL0     C44621   7.013   5.102   4.967  0.0259  0.7165  0.4951
  339MOL0     C44622   7.136   5.078   4.903  0.2209 -0.3314 -0.0157
  339MOL0     C44623   7.264   5.117   4.962 -0.4176 -0.9671  0.6171
  339MOL0     O44624   7.386   5.121   4.897  0.2051  0.1898  0.3742
  339MOL0     C44625   7.389   5.062   4.771  0.1051  0.4503 -0.2082
  339MOL0     C44626   7.539   5.060   4.726  0.0122  0.4861 -0.7948
  339MOL0     C44627   7.600   5.194   4.709  0.4606 -0.1435 -0.0756
  339MOL0     C44628   7.745   5.184   4.668 -0.2697 -0.1236 -0.3883
  339MOL0     C44629   7.758   5.158   4.509  0.2284  0.0539 -0.3262
  339MOL0     C44630   7.898   5.194   4.464  0.0687 -0.3865  0.2824
  339MOL0     C44631   8.022   5.129   4.532  0.5408 -0.4912  0.0961
  339MOL0     C44632   8.149   5.183   4.472 -0.0718  1.4297  1.6199
  339MOL0     N44633   8.244   5.269   4.554 -0.0210 -0.4452  0.1173
  339MOL0     C44634   8.214   5.376   4.638 -0.1550  0.1890  0.2850
  339MOL0     C44635   8.329   5.416   4.686 -0.5155  0.1446 -0.8870
  339MOL0     C44636   8.354   5.551   4.765  0.2559  0.6499  0.0707
  339MOL0     C44637   8.496   5.601   4.727 -0.0316 -0.2819 -1.0494
  339MOL0     C44638   8.515   5.728   4.808  1.1254  0.5362 -0.0059
  339MOL0     C44639   8.666   5.768   4.810 -0.9306 -0.3533  0.7217
  339MOL0     O44640   8.686   5.902   4.858  0.6791  0.5599  0.4249
  339MOL0     C44641   8.622   5.935   4.975 -0.2557  0.6010 -1.0098
  339MOL0     C44642   8.528   6.038   4.983  0.4397 -0.3349  1.0006
  339MOL0     C44643   8.477   6.067   5.108 -0.0762 -0.5789  0.9238
  339MOL0     C44644   8.504   5.988   5.224 -0.2103 -0.4639  0.2761
  339MOL0     C44645   8.424   6.013   5.343  0.0473 -0.1638  0.2371
  339MOL0     O44646   8.322   6.109   5.339  0.9600  0.2600 -0.8488
  339MOL0     C44647   8.249   6.133   5.452  0.8528  0.1059  0.3391
  339MOL0     C44648   8.110   6.125   5.442  0.3125  0.3847 -0.2149
  339MOL0     C44649   8.030   6.183   5.549 -0.8440 -0.1275  0.1216
  339MOL0     C44650   8.103   6.246   5.653  0.3744  0.1067 -0.0764
  339MOL0     O44651   8.043   6.311   5.759 -0.1211  0.1248 -0.1085
  339MOL0     C44652   7.937   6.405   5.720 -0.3980  0.1993 -0.2906
  339MOL0     C44653   7.813   6.402   5.808  0.4453 -0.4891  0.5176
  339MOL0     C44654   7.716   6.298   5.757 -0.2456 -0.2250 -0.0395
  339MOL0     C44655   7.591   6.303   5.841 -0.2276  0.4997  0.4178
  339MOL0     C44656   7.479   6.210   5.784  0.4424 -0.2191 -1.4449
  339MOL0     C44657   7.341   6.250   5.861 -0.8354 -0.1730  0.1813
  339MOL0     C44658   7.209   6.185   5.806 -0.2055  0.2919  0.3095
  339MOL0     C44659   7.228   6.040   5.760 -0.9160  0.4749 -0.5695
  339MOL0    Cl44660   7.287   5.939   5.897  0.2217  0.2298  0.0736
  339MOL0     C44661   8.233   6.233   5.661 -0.1982  0.1928 -0.2086
  339MOL0     C44662   8.311   6.179   5.562  0.9063 -0.4941  0.2379
  339MOL0     O44663   8.439   5.946   5.445 -0.1215 -0.0630  0.1929
  339MOL0     C44664   8.598   5.876   5.211  0.6116 -0.3048 -1.8973
  339MOL0     C44665   8.651   5.854   5.085 -0.5199 -0.1666 -0.4214
  339MOL0     N44666   8.424   5.329   4.639  0.6210 -0.6519 -0.2027
  339MOL0     N44667   8.373   5.249   4.557  0.4389  0.7081 -0.3346
  339MOL0     C44668   7.262   5.179   5.088 -0.8703 -0.1797 -0.1687
  339MOL0     C44669   7.143   5.186   5.153 -0.4434 -0.5473 -0.7381
  339MOL0     C44670   6.739   5.231   5.321 -1.0983 -0.5915 -0.2547
  339MOL0     C44671   6.683   5.105   5.327  0.6620 -0.2185 -1.0024
  339MOL0     C44672   6.554   5.095   5.390 -0.2961 -0.3345 -0.5825
  339MOL0     C44673   6.493   5.204   5.454  0.0548  0.7884 -0.4880
  339MOL0     O44674   6.378   5.194   5.544  0.1706  0.4246  0.6740
  339MOL0     C44675   6.340   5.063   5.579  0.1107  0.5848  0.4526
  339MOL0     C44676   6.432   4.991   5.679  0.8953 -0.2707  0.3114
  339MOL0     C44677   6.408   5.033   5.829  1.1428  0.1542 -0.7211
  339MOL0     C44678   6.516   5.125   5.876 -0.7691 -1.2567 -0.0027
  339MOL0     C44679   6.474   5.273   5.871  0.5623  1.0644  0.1085
  339MOL0     C44680   6.430   5.384   5.860 -0.0956  0.8818  0.9113
  339MOL0     C44681   6.553   5.324   5.441  0.1374  0.4805  0.9263
  339MOL0     C44682   6.665   5.352   5.372 -0.3700 -0.1250 -0.6008
  339MOL0     H44683   6.922   5.076   4.914  0.8836 -1.0222 -0.1908
  339MOL0     H44684   7.123   5.024   4.809  0.6285 -0.8359  0.2143
  339MOL0     H44685   7.330   5.119   4.698 -1.7212 -2.5014 -1.2200
  339MOL0     H44686   7.344   4.964   4.786 -2.6390  1.7353  0.7327
  339MOL0     H44687   7.547   5.000   4.635  2.8335 -2.6371  1.2734
  339MOL0     H44688   7.592   5.012   4.809 -1.9739  0.2454  0.4111
  339MOL0     H44689   7.593   5.253   4.801 -2.6378  0.0031 -0.2954
  339MOL0     H44690   7.539   5.246   4.634 -1.2238  1.3381  2.1990
  339MOL0     H44691   7.800   5.276   4.693 -3.2878  1.1922  2.1068
  339MOL0     H44692   7.788   5.102   4.726  1.9930  1.4669  0.3581
  339MOL0     H44693   7.688   5.224   4.457 -0.1098  1.4882  1.8310
  339MOL0     H44694   7.730   5.057   4.476 -4.9071  0.7510  1.0807
  339MOL0     H44695   7.913   5.303   4.469  0.5752 -0.4767  0.7669
  339MOL0     H44696   7.906   5.166   4.358 -0.3268  2.5858 -0.6355
  339MOL0     H44697   8.025   5.131   4.641  0.8320 -3.7065  0.2275
  339MOL0     H44698   8.016   5.020   4.521 -0.4159 -0.6531  1.7647
  339MOL0     H44699   8.131   5.247   4.385 -1.1274  0.1267  0.8545
  339MOL0     H44700   8.202   5.101   4.424 -0.7122  1.2769  1.1608
  339MOL0     H44701   8.119   5.429   4.644 -2.5526 -3.6174 -0.8455
  339MOL0     H44702   8.348   5.536   4.874  0.8685  1.8318  0.2799
  339MOL0     H44703   8.273   5.622   4.744 -1.7510 -1.4211  0.3791
  339MOL0     H44704   8.493   5.625   4.620 -0.1818  1.3689 -0.7048
  339MOL0     H44705   8.575   5.529   4.749  3.3539  3.2870 -0.4213
  339MOL0     H44706   8.449   5.809   4.776  0.1422 -0.0381  0.5071
  339MOL0     H44707   8.484   5.710   4.912  1.8213 -1.6095 -0.1304
  339MOL0     H44708   8.703   5.777   4.707  0.1480  1.9285  1.2405
  339MOL0     H44709   8.728   5.692   4.858 -0.6932 -0.4818  0.2255
  339MOL0     H44710   8.504   6.110   4.905 -1.1010  0.9898  2.6151
  339MOL0     H44711   8.415   6.154   5.129  1.9819  0.8471  1.3560
  339MOL0     H44712   8.060   6.084   5.355  1.1788 -1.3062  0.0413
  339MOL0     H44713   7.922   6.192   5.553 -0.7472  1.1823  0.1338
  339MOL0     H44714   7.917   6.383   5.614  1.9011 -3.5300 -0.1393
  339MOL0     H44715   7.967   6.508   5.742 -4.2337  0.7035  3.9840
  339MOL0     H44716   7.770   6.501   5.818 -0.5933 -1.0820  2.3985
  339MOL0     H44717   7.842   6.373   5.910  1.0821 -3.5643 -0.4049
  339MOL0     H44718   7.756   6.196   5.757  1.9472  0.5743 -1.1525
  339MOL0     H44719   7.685   6.302   5.652  0.4856 -1.4947 -0.3211
  339MOL0     H44720   7.615   6.274   5.943 -0.5036  2.4961  1.0989
  339MOL0     H44721   7.552   6.405   5.846 -0.9839  0.3121 -0.9995
  339MOL0     H44722   7.500   6.106   5.812 -4.8252 -1.6620 -1.8176
  339MOL0     H44723   7.473   6.215   5.675 -1.2420 -2.1341 -1.4917
  339MOL0     H44724   7.328   6.358   5.852 -0.8404 -0.3141 -1.9769
  339MOL0     H44725   7.348   6.226   5.967 -1.4191 -0.2846  0.1987
  339MOL0     H44726   7.130   6.196   5.880 -1.0746 -0.6071 -0.4547
  339MOL0     H44727   7.187   6.243   5.716  3.7485 -0.3443 -1.3071
  339MOL0     H44728   7.289   6.025   5.670  0.4188 -0.6012  0.4713
  339MOL0     H44729   7.126   6.008   5.736 -0.3894 -0.5931 -1.5403
  339MOL0     H44730   8.284   6.285   5.742  1.0883  2.3862 -2.2955
  339MOL0     H44731   8.419   6.189   5.563  0.7275  2.1187  1.0231
  339MOL0     H44732   8.619   5.817   5.300  0.2439  0.4247 -1.3211
  339MOL0     H44733   8.730   5.782   5.067 -0.3099 -0.2330  0.6546
  339MOL0     H44734   7.352   5.213   5.138 -0.6954 -1.8209  0.7181
  339MOL0     H44735   7.143   5.214   5.258 -1.0662  0.7683 -1.0812
  339MOL0     H44736   6.723   5.012   5.290  0.7057 -0.7827  0.4028
  339MOL0     H44737   6.504   4.998   5.393  0.1420 -0.5606 -0.3874
  339MOL0     H44738   6.313   4.996   5.497  0.9442  1.2051 -0.3536
  339MOL0     H44739   6.248   5.074   5.638 -0.4782  2.2992 -0.7007
  339MOL0     H44740   6.406   4.885   5.670 -4.2447  0.5755  1.7654
  339MOL0     H44741   6.537   4.991   5.648  0.9357  1.4628  0.3180
  339MOL0     H44742   6.407   4.940   5.886  4.8536 -1.7005 -3.2828
  339MOL0     H44743   6.312   5.085   5.825  1.2014  0.2122 -1.3351
  339MOL0     H44744   6.554   5.103   5.976  0.6060 -2.9593 -0.8353
  339MOL0     H44745   6.607   5.135   5.816 -0.0889  1.8486  1.3536
  339MOL0     H44746   6.395   5.483   5.840 -3.0967 -0.3999 -0.7899
  339MOL0     H44747   6.501   5.408   5.486  0.6433  0.7937  0.9339
  339MOL0     H44748   6.697   5.455   5.357 -0.8367 -0.2001 -2.2917
  340MOL0     O44749   6.361   3.266   4.065  0.6136 -0.5537  0.2809
  340MOL0     C44750   6.420   3.241   4.169  0.7743 -0.6547 -0.5803
  340MOL0     O44751   6.403   3.311   4.285  0.0718 -0.6210  0.2186
  340MOL0     C44752   6.298   3.408   4.285  0.2354  0.1692 -0.8360
  340MOL0     C44753   6.319   3.536   4.329 -0.5729 -0.1947  0.9372
  340MOL0     C44754   6.217   3.625   4.349 -0.6549  0.2169  0.2601
  340MOL0     C44755   6.077   3.591   4.317 -0.4469  0.6265  0.1593
  340MOL0     O44756   5.970   3.676   4.343  0.3351  0.1630  0.2748
  340MOL0     C44757   5.976   3.806   4.275  0.1663 -0.3169 -0.1001
  340MOL0     C44758   5.950   3.787   4.124  0.5047 -0.0444  0.6306
  340MOL0     C44759   5.944   3.931   4.083  0.5452 -0.4376  0.4029
  340MOL0     C44760   5.905   3.945   3.925  0.3634 -0.3884  0.9949
  340MOL0     C44761   5.943   4.084   3.865 -0.4755 -0.0342  0.6533
  340MOL0     C44762   5.976   4.062   3.723 -0.5654  0.2377  0.6979
  340MOL0     C44763   6.048   4.190   3.675  0.3610  0.0254  0.0879
  340MOL0     C44764   6.035   4.214   3.523  0.3424 -0.3518  1.0502
  340MOL0     N44765   6.148   4.303   3.474  1.0652  0.0694  0.0303
  340MOL0     C44766   6.258   4.258   3.404  0.4217  0.0634 -0.3209
  340MOL0     C44767   6.314   4.369   3.344 -0.5062  0.4481 -0.4559
  340MOL0     C44768   6.429   4.379   3.251  0.0180  0.6615  0.1897
  340MOL0     C44769   6.369   4.427   3.117 -0.0638  0.0737 -0.3079
  340MOL0     C44770   6.461   4.433   2.990  0.4267  0.3259 -0.5414
  340MOL0     C44771   6.591   4.496   3.017  0.3213  0.3167  0.1971
  340MOL0     O44772   6.658   4.533   2.898 -0.8947 -0.3234  0.2881
  340MOL0     C44773   6.756   4.459   2.836 -0.2498  0.2109  1.1479
  340MOL0     C44774   6.770   4.322   2.853  0.6394 -0.1460 -0.6858
  340MOL0     C44775   6.881   4.246   2.811  1.2027  0.0093  0.4399
  340MOL0     C44776   6.976   4.322   2.744 -0.4423 -0.2460 -0.4573
  340MOL0     C44777   7.087   4.246   2.683 -0.2739 -0.4905  0.6765
  340MOL0     O44778   7.202   4.319   2.672  0.8162 -0.1195 -0.4177
  340MOL0     C44779   7.313   4.271   2.602  1.0895  0.2460 -0.0061
  340MOL0     C44780   7.296   4.194   2.493 -0.1716 -0.0224  1.1906
  340MOL0     C44781   7.407   4.155   2.421 -0.1850 -0.9707 -0.2702
  340MOL0     C44782   7.540   4.186   2.475  0.0531  0.2553 -0.8572
  340MOL0     O44783   7.655   4.168   2.405  0.1968  1.0233 -0.7213
  340MOL0     C44784   7.661   4.043   2.324  0.0075  0.6551 -0.7519
  340MOL0     C44785   7.798   3.980   2.358  0.1395  0.1091  0.2323
  340MOL0     C44786   7.850   3.856   2.275 -0.6529  0.0039  0.3540
  340MOL0     C44787   7.789   3.717   2.332 -1.3956 -1.3179  0.2675
  340MOL0     C44788   7.833   3.609   2.235 -0.3354 -0.3425  1.1261
  340MOL0     C44789   7.751   3.478   2.244  0.1909  0.5927  0.1637
  340MOL0     C44790   7.811   3.354   2.175  0.1636 -1.0483 -0.9405
  340MOL0     C44791   7.710   3.242   2.170 -0.7817 -0.0114 -0.3248
  340MOL0    Cl44792   7.796   3.079   2.153 -0.6404  0.1813 -0.4538
  340MOL0     C44793   7.551   4.262   2.589  0.5148  0.7414  1.0661
  340MOL0     C44794   7.439   4.311   2.653  0.4955  0.6079 -0.6921
  340MOL0     O44795   7.080   4.125   2.669 -0.4633  1.3597 -0.1565
  340MOL0     C44796   6.967   4.460   2.728  0.1525 -0.6965  1.1774
  340MOL0     C44797   6.853   4.525   2.758  0.2642 -0.7253  0.5710
  340MOL0     N44798   6.247   4.475   3.395  0.0944 -0.3991  0.1051
  340MOL0     N44799   6.147   4.443   3.471 -0.3797 -0.3315  0.2267
  340MOL0     C44800   6.053   3.471   4.256 -1.1757  0.6607 -0.7545
  340MOL0     C44801   6.164   3.375   4.259 -0.5747  0.0819  0.2227
  340MOL0     C44802   6.528   3.153   4.170  0.1079  0.6307 -0.9246
  340MOL0     C44803   6.566   3.082   4.285  0.2423 -0.0268 -0.2285
  340MOL0     C44804   6.669   2.988   4.282  0.3631  0.5193 -0.7379
  340MOL0     C44805   6.744   2.970   4.167 -0.0751  1.0628 -0.3275
  340MOL0     O44806   6.847   2.874   4.160  1.1626 -0.3452  0.3232
  340MOL0     C44807   6.917   2.841   4.284  1.0659  0.1532  0.4967
  340MOL0     C44808   7.029   2.763   4.231  0.4192  0.2386 -0.0162
  340MOL0     C44809   7.150   2.843   4.172  0.1087  0.1894 -0.0389
  340MOL0     C44810   7.251   2.757   4.109 -0.3040 -0.4093 -0.2086
  340MOL0     C44811   7.366   2.834   4.069 -1.3121  0.1898  0.5108
  340MOL0     C44812   7.470   2.871   4.025  0.6014  0.0077  0.3555
  340MOL0     C44813   6.705   3.041   4.053 -0.3904 -0.2724  0.2016
  340MOL0     C44814   6.607   3.133   4.050  1.0412  1.2951  0.0439
  340MOL0     H44815   6.418   3.572   4.353 -0.1175 -2.3169  2.5451
  340MOL0     H44816   6.232   3.723   4.392  1.0523  0.9264 -1.8075
  340MOL0     H44817   6.072   3.855   4.294 -0.6030  1.2642 -0.0475
  340MOL0     H44818   5.899   3.869   4.321  0.4889 -0.4954  0.6995
  340MOL0     H44819   5.848   3.749   4.112  0.0834  1.2067  0.0358
  340MOL0     H44820   6.025   3.733   4.065 -0.9060  0.4307 -1.7486
  340MOL0     H44821   6.038   3.981   4.106  0.9275 -0.5942 -0.7426
  340MOL0     H44822   5.866   3.980   4.142 -0.6898 -1.2917 -0.4520
  340MOL0     H44823   5.969   3.869   3.880  0.6323  0.5855 -0.3021
  340MOL0     H44824   5.801   3.920   3.902  0.0584  0.3013  1.5935
  340MOL0     H44825   6.029   4.130   3.913  0.8078  1.3192 -2.6317
  340MOL0     H44826   5.860   4.155   3.871  0.0672  0.6375  0.3139
  340MOL0     H44827   5.887   4.046   3.662 -0.1761 -2.9081  0.8246
  340MOL0     H44828   6.046   3.981   3.700  2.2460  2.7113 -0.0640
  340MOL0     H44829   6.003   4.276   3.725  2.2188  0.7658  0.5994
  340MOL0     H44830   6.154   4.178   3.701  0.3643 -2.7304 -0.8601
  340MOL0     H44831   5.941   4.263   3.497  0.8465 -0.6765 -1.6483
  340MOL0     H44832   6.043   4.120   3.468 -1.1219  0.3322 -0.4007
  340MOL0     H44833   6.291   4.154   3.397 -1.6101 -0.7738  1.6173
  340MOL0     H44834   6.469   4.278   3.237 -2.7455 -0.9801  2.7133
  340MOL0     H44835   6.504   4.448   3.291 -0.5361  0.3129  1.9400
  340MOL0     H44836   6.335   4.531   3.129  2.8158  1.0837  0.0187
  340MOL0     H44837   6.280   4.367   3.096 -1.3256  0.5235  3.0675
  340MOL0     H44838   6.474   4.336   2.942 -3.2077 -0.7706  0.3938
  340MOL0     H44839   6.409   4.497   2.918  0.5762  0.7949 -0.2393
  340MOL0     H44840   6.650   4.425   3.076 -0.3604 -0.4222  0.0180
  340MOL0     H44841   6.580   4.580   3.086  2.1793  0.8511 -0.1185
  340MOL0     H44842   6.692   4.273   2.911 -1.2537  2.7627 -0.5698
  340MOL0     H44843   6.887   4.140   2.832 -0.9987  0.2440  2.7910
  340MOL0     H44844   7.197   4.170   2.455  1.1487 -2.1206 -1.2103
  340MOL0     H44845   7.396   4.090   2.335 -0.4807  0.0054 -0.9843
  340MOL0     H44846   7.660   4.057   2.215 -3.2429 -3.9171 -1.6521
  340MOL0     H44847   7.583   3.970   2.350 -0.2046  0.8476 -0.8472
  340MOL0     H44848   7.793   3.950   2.463  0.5924 -3.2027 -0.5815
  340MOL0     H44849   7.875   4.057   2.348 -0.1423  0.0931 -2.9918
  340MOL0     H44850   7.957   3.848   2.291 -0.7580 -3.7401  0.0603
  340MOL0     H44851   7.839   3.879   2.169  3.2857  3.2038  0.4439
  340MOL0     H44852   7.821   3.679   2.430  2.4490 -1.2680 -0.8038
  340MOL0     H44853   7.682   3.720   2.311 -0.7902  0.9632 -3.2995
  340MOL0     H44854   7.932   3.568   2.254 -1.0481 -1.4165  2.7728
  340MOL0     H44855   7.843   3.646   2.133 -0.5569  0.4567  1.3923
  340MOL0     H44856   7.656   3.507   2.200 -0.5035  2.0069  2.4240
  340MOL0     H44857   7.732   3.467   2.351  1.8089  2.0730  0.6442
  340MOL0     H44858   7.836   3.371   2.070 -0.8166  2.2374 -0.7486
  340MOL0     H44859   7.898   3.311   2.226  1.1130  0.1161 -1.5003
  340MOL0     H44860   7.651   3.242   2.077 -1.0263 -2.5576 -0.2309
  340MOL0     H44861   7.643   3.237   2.256 -0.1135  1.6444  0.3186
  340MOL0     H44862   7.646   4.288   2.634  2.6191 -1.0743 -1.9376
  340MOL0     H44863   7.439   4.371   2.743 -0.5533 -0.6996  0.2312
  340MOL0     H44864   7.040   4.521   2.675 -1.9230  0.7478 -0.1786
  340MOL0     H44865   6.839   4.631   2.740 -3.2543 -1.2884 -0.6366
  340MOL0     H44866   5.952   3.443   4.225 -0.4635 -1.4752 -1.3098
  340MOL0     H44867   6.143   3.272   4.234  0.6363  0.5701 -3.4399
  340MOL0     H44868   6.519   3.093   4.382 -1.7883 -0.4839 -1.1116
  340MOL0     H44869   6.704   2.942   4.374  0.1622  1.0186 -0.4032
  340MOL0     H44870   6.853   2.783   4.351  1.0596  0.7878  1.0496
  340MOL0     H44871   6.950   2.932   4.336  1.2056  0.9168 -0.8590
  340MOL0     H44872   7.067   2.707   4.317  1.7838 -0.3602 -0.9688
  340MOL0     H44873   6.996   2.687   4.159 -1.3431  0.0434  0.9614
  340MOL0     H44874   7.190   2.906   4.252  0.9507 -0.7982  0.3237
  340MOL0     H44875   7.116   2.905   4.089  2.5220  0.4499 -0.9123
  340MOL0     H44876   7.284   2.679   4.179 -0.1568 -1.6278 -1.5849
  340MOL0     H44877   7.199   2.704   4.028 -0.5561  0.7018 -0.7919
  340MOL0     H44878   7.560   2.926   4.006  1.2960 -0.5710  1.8091
  340MOL0     H44879   6.775   3.040   3.970 -1.0430 -2.8288 -0.3929
  340MOL0     H44880   6.584   3.185   3.958 -1.9392 -2.0708 -1.3331
  341MOL0     O44881   4.586   6.345   5.528  0.2601  0.3151 -0.6205
  341MOL0     C44882   4.670   6.339   5.619  0.9326 -1.1632 -0.2926
  341MOL0     O44883   4.737   6.449   5.673  0.6941  0.0284 -0.1142
  341MOL0     C44884   4.774   6.556   5.592 -0.0834  0.3906 -0.2106
  341MOL0     C44885   4.790   6.684   5.637 -0.2249 -0.7925  0.6001
  341MOL0     C44886   4.842   6.786   5.547 -0.2959  0.2281 -0.2856
  341MOL0     C44887   4.876   6.755   5.414 -1.0906 -0.4181  0.4714
  341MOL0     O44888   4.932   6.853   5.332 -0.2634 -0.9566 -0.8498
  341MOL0     C44889   4.973   6.826   5.195 -0.1348 -0.0365 -0.6300
  341MOL0     C44890   5.116   6.749   5.192  0.3197  0.3116 -0.6228
  341MOL0     C44891   5.181   6.711   5.055 -0.2658 -0.2791  0.3908
  341MOL0     C44892   5.306   6.635   5.061 -0.1622 -0.4593  0.9375
  341MOL0     C44893   5.439   6.716   5.062 -0.2601 -0.3318 -0.9803
  341MOL0     C44894   5.467   6.745   4.915 -0.5281 -0.3670  0.7734
  341MOL0     C44895   5.614   6.793   4.887 -0.1839 -0.0075 -0.6526
  341MOL0     C44896   5.645   6.809   4.731  0.4766  0.1032  0.2867
  341MOL0     N44897   5.643   6.684   4.665  0.2965 -0.6546 -0.1961
  341MOL0     C44898   5.597   6.651   4.539  0.4352  0.2510 -0.4209
  341MOL0     C44899   5.605   6.516   4.528 -0.1641 -0.2247 -0.7299
  341MOL0     C44900   5.567   6.459   4.398  1.1471  0.3224 -0.2952
  341MOL0     C44901   5.690   6.432   4.317  0.5515 -0.4466 -1.0304
  341MOL0     C44902   5.657   6.383   4.171  0.1975  0.2471 -0.3352
  341MOL0     C44903   5.640   6.480   4.062 -0.5334 -0.2631  0.2692
  341MOL0     O44904   5.767   6.546   4.034  0.0411  0.9161  0.8997
  341MOL0     C44905   5.776   6.606   3.913  0.4398 -0.0644  0.1914
  341MOL0     C44906   5.908   6.657   3.868  0.0617  0.4042  0.0127
  341MOL0     C44907   5.922   6.727   3.747  0.5461  0.0445 -0.2647
  341MOL0     C44908   5.811   6.759   3.667  0.1392  0.2265  0.1792
  341MOL0     C44909   5.820   6.847   3.548  0.8497  0.3951 -0.2850
  341MOL0     O44910   5.942   6.895   3.516  0.7796  0.5423  0.6841
  341MOL0     C44911   5.959   6.972   3.400 -0.0084  0.4462  0.3450
  341MOL0     C44912   5.907   6.930   3.280  0.1692  0.4492  0.9296
  341MOL0     C44913   5.911   7.010   3.161  0.5270 -0.2330 -0.3060
  341MOL0     C44914   5.979   7.133   3.172  0.1082 -0.3292 -0.4077
  341MOL0     O44915   5.976   7.217   3.062  0.3018  0.7678 -0.0183
  341MOL0     C44916   6.108   7.250   3.016  0.5307  0.6247 -0.1936
  341MOL0     C44917   6.116   7.212   2.877 -0.5705  0.8010  0.3094
  341MOL0     C44918   6.092   7.068   2.849 -0.0875 -0.5071  0.1665
  341MOL0     C44919   6.111   7.032   2.699 -0.3268  0.0153  0.5526
  341MOL0     C44920   6.069   6.887   2.680  0.3201 -0.1879 -0.3108
  341MOL0     C44921   6.096   6.815   2.542 -0.4304 -0.0410  0.1654
  341MOL0     C44922   5.999   6.870   2.436 -0.0231  0.1159  0.3396
  341MOL0     C44923   6.052   6.870   2.293  0.0397 -0.3843  0.2381
  341MOL0    Cl44924   6.206   6.973   2.286 -0.6598 -0.2950  0.2004
  341MOL0     C44925   6.026   7.177   3.295  0.3662 -0.1635  0.0277
  341MOL0     C44926   6.016   7.098   3.410  0.5684  0.2093 -0.7303
  341MOL0     O44927   5.712   6.876   3.503  1.5397 -0.7473 -0.7938
  341MOL0     C44928   5.686   6.723   3.713 -0.1863  0.0802 -0.8052
  341MOL0     C44929   5.667   6.645   3.833  0.5471  0.1574  0.3012
  341MOL0     N44930   5.653   6.462   4.652  0.9702  0.4282  0.1655
  341MOL0     N44931   5.679   6.563   4.724  0.4812  1.1583  0.8508
  341MOL0     C44932   4.866   6.619   5.368 -0.2820 -0.5761 -0.0047
  341MOL0     C44933   4.814   6.527   5.460 -0.0674 -0.5450  0.2230
  341MOL0     C44934   4.694   6.204   5.678  0.2521 -0.5791  0.2332
  341MOL0     C44935   4.617   6.093   5.641  0.5242  0.2085 -1.0800
  341MOL0     C44936   4.635   5.973   5.711 -0.5540 -0.6893  0.5457
  341MOL0     C44937   4.743   5.956   5.803  0.2429  0.3351  0.0961
  341MOL0     O44938   4.791   5.849   5.869 -0.0975  0.1047 -0.9510
  341MOL0     C44939   4.718   5.722   5.849  0.3856  1.2902  0.5129
  341MOL0     C44940   4.750   5.622   5.966 -0.9096 -0.5031  0.6111
  341MOL0     C44941   4.658   5.675   6.072  0.2308  0.6092  0.2141
  341MOL0     C44942   4.704   5.599   6.196 -0.4445 -1.1419  0.1409
  341MOL0     C44943   4.620   5.624   6.313  0.2202 -0.6103  0.3745
  341MOL0     C44944   4.548   5.630   6.411 -0.0343 -0.0898  0.1443
  341MOL0     C44945   4.807   6.070   5.832 -0.4668  0.7765 -0.0950
  341MOL0     C44946   4.792   6.194   5.773  0.6743 -0.8506 -0.4294
  341MOL0     H44947   4.756   6.715   5.735 -2.2759  1.4495 -0.6922
  341MOL0     H44948   4.852   6.889   5.580  1.8751 -0.2106  0.6143
  341MOL0     H44949   4.988   6.924   5.149  0.9791  1.7603  3.1008
  341MOL0     H44950   4.902   6.765   5.139  1.2265 -1.9831 -0.3213
  341MOL0     H44951   5.100   6.652   5.239  1.5004  0.1591 -0.5112
  341MOL0     H44952   5.193   6.807   5.243  0.8642  0.6348 -1.7709
  341MOL0     H44953   5.206   6.795   4.990  2.7088 -1.0253  0.4052
  341MOL0     H44954   5.101   6.653   5.010 -2.8955 -0.2948  4.5050
  341MOL0     H44955   5.300   6.591   5.160  0.1794  4.0798  3.2385
  341MOL0     H44956   5.315   6.558   4.983  1.2181  1.7475 -1.2518
  341MOL0     H44957   5.514   6.648   5.103 -0.6229  0.8348  1.8988
  341MOL0     H44958   5.432   6.801   5.132  0.5118 -0.1793 -1.0817
  341MOL0     H44959   5.404   6.824   4.874  0.0704  0.9974  2.3463
  341MOL0     H44960   5.450   6.658   4.851 -1.9051  1.0118 -0.8126
  341MOL0     H44961   5.623   6.887   4.941  2.8501 -0.2298 -0.5828
  341MOL0     H44962   5.690   6.723   4.924  2.3953  2.4695 -0.8899
  341MOL0     H44963   5.733   6.868   4.704 -1.3483  1.5575 -3.3565
  341MOL0     H44964   5.564   6.874   4.694  2.5515  1.8266 -1.5275
  341MOL0     H44965   5.567   6.728   4.469  0.6820 -2.1831 -3.3734
  341MOL0     H44966   5.491   6.516   4.344 -0.0322 -1.8764 -1.0993
  341MOL0     H44967   5.524   6.359   4.407  1.5300  0.1749 -0.0673
  341MOL0     H44968   5.756   6.359   4.366  3.2126  2.4904  0.1220
  341MOL0     H44969   5.755   6.520   4.308  2.2545 -1.0512  3.0000
  341MOL0     H44970   5.725   6.308   4.131  0.3381 -0.2025  0.7221
  341MOL0     H44971   5.559   6.335   4.177 -1.6861  3.7156 -0.5459
  341MOL0     H44972   5.568   6.555   4.097  0.5387  2.0747 -2.2012
  341MOL0     H44973   5.595   6.439   3.972 -2.7302 -0.0362  1.2050
  341MOL0     H44974   5.993   6.641   3.933  0.8250  1.3015 -0.7525
  341MOL0     H44975   6.021   6.764   3.720 -0.3240  4.7425  1.9748
  341MOL0     H44976   5.875   6.826   3.275  1.0214  0.1153  1.8603
  341MOL0     H44977   5.854   6.976   3.076  1.3266  1.0755 -1.4031
  341MOL0     H44978   6.186   7.200   3.073  1.3341 -1.1189 -2.6140
  341MOL0     H44979   6.121   7.358   3.029  1.7153  0.4650  0.0515
  341MOL0     H44980   6.216   7.228   2.835 -0.0285  0.0581  1.2718
  341MOL0     H44981   6.048   7.267   2.811  1.4621  0.8531 -1.8786
  341MOL0     H44982   5.990   7.044   2.880 -0.2554  1.2308  1.0327
  341MOL0     H44983   6.153   7.012   2.920 -2.3864 -3.0006  0.3426
  341MOL0     H44984   6.045   7.099   2.643  1.4098  1.8728  0.6349
  341MOL0     H44985   6.217   7.049   2.677 -0.2441 -1.9848 -0.8391
  341MOL0     H44986   5.965   6.878   2.715  0.4704  0.7444  0.4245
  341MOL0     H44987   6.131   6.829   2.748  0.5893  0.6525  0.1751
  341MOL0     H44988   6.078   6.708   2.555  0.8354 -0.0903  1.8529
  341MOL0     H44989   6.201   6.819   2.512 -0.8767  1.4872 -1.3305
  341MOL0     H44990   5.905   6.814   2.435  0.3430 -0.5082  0.3507
  341MOL0     H44991   5.977   6.973   2.466  0.1343  0.1155  0.4540
  341MOL0     H44992   5.970   6.899   2.228 -0.7248 -1.3902  0.7139
  341MOL0     H44993   6.073   6.764   2.274 -0.5219 -0.5630  0.5796
  341MOL0     H44994   6.062   7.279   3.309 -1.6244  0.6770 -0.6373
  341MOL0     H44995   6.047   7.119   3.512 -1.2135 -1.9378  0.3420
  341MOL0     H44996   5.596   6.746   3.658  0.3493 -0.6221 -2.0260
  341MOL0     H44997   5.566   6.615   3.857  0.9208 -2.3882 -0.9196
  341MOL0     H44998   4.885   6.596   5.264 -1.3621  2.0423 -0.8856
  341MOL0     H44999   4.792   6.425   5.431 -1.8953  0.8220 -3.7975
  341MOL0     H45000   4.517   6.113   5.602 -1.8161  1.2641  4.4721
  341MOL0     H45001   4.585   5.893   5.657 -1.4237  0.1334  0.0908
  341MOL0     H45002   4.760   5.668   5.764 -2.5584 -1.7079  0.7763
  341MOL0     H45003   4.613   5.728   5.817  1.2525 -1.9892 -3.9511
  341MOL0     H45004   4.749   5.516   5.939  2.3481 -0.7459  1.0546
  341MOL0     H45005   4.855   5.639   5.992 -0.6249  1.1105 -1.3389
  341MOL0     H45006   4.557   5.657   6.035  0.2701 -1.3957  1.0004
  341MOL0     H45007   4.678   5.782   6.083 -0.6734  1.0289 -1.8791
  341MOL0     H45008   4.712   5.491   6.176 -0.2137 -1.0389 -0.3296
  341MOL0     H45009   4.802   5.631   6.231 -0.3602  0.7649 -1.6794
  341MOL0     H45010   4.492   5.646   6.501 -0.3470  0.3639 -0.1282
  341MOL0     H45011   4.882   6.079   5.910  1.4556 -1.3533 -1.5509
  341MOL0     H45012   4.858   6.278   5.792 -1.6832  1.6500 -2.6091
  342MOL0     O45013   2.813   2.130   6.810 -0.2909  0.0062  0.1746
  342MOL0     C45014   2.793   2.202   6.714  0.1171 -0.4776  0.0164
  342MOL0     O45015   2.863   2.314   6.676  0.0712 -0.3810 -0.5658
  342MOL0     C45016   2.956   2.375   6.760 -0.3864 -0.3594 -0.4646
  342MOL0     C45017   2.982   2.510   6.747 -0.0967 -0.6911  0.9006
  342MOL0     C45018   3.072   2.579   6.828 -0.4722 -0.3172  0.1514
  342MOL0     C45019   3.156   2.514   6.919  0.5660 -0.4155  0.1329
  342MOL0     O45020   3.261   2.579   6.983 -0.6967 -0.4360  0.5794
  342MOL0     C45021   3.278   2.568   7.128 -1.3013  0.0683 -0.2935
  342MOL0     C45022   3.415   2.508   7.176 -0.2719 -0.0617 -0.0747
  342MOL0     C45023   3.449   2.368   7.126 -0.0636  0.3070 -0.6633
  342MOL0     C45024   3.581   2.327   7.184  0.2149  0.4789  0.1594
  342MOL0     C45025   3.705   2.394   7.116 -0.4040  0.5017  0.5976
  342MOL0     C45026   3.692   2.414   6.959  0.3902  0.3924  0.5612
  342MOL0     C45027   3.827   2.447   6.899  0.0492  0.7608  0.2926
  342MOL0     C45028   3.904   2.313   6.859  0.1828  0.1683 -0.3517
  342MOL0     N45029   4.050   2.351   6.875  0.1238 -0.1172 -0.0275
  342MOL0     C45030   4.111   2.433   6.783  0.7964  0.1549 -0.1951
  342MOL0     C45031   4.239   2.439   6.821  1.0677  0.1066 -1.1413
  342MOL0     C45032   4.341   2.530   6.754  0.7860 -0.1378 -0.0786
  342MOL0     C45033   4.462   2.459   6.690 -0.4697 -0.6389 -0.1077
  342MOL0     C45034   4.405   2.393   6.554  0.1762  0.3104 -0.3572
  342MOL0     C45035   4.519   2.307   6.488 -0.0013 -0.3480  0.7084
  342MOL0     O45036   4.462   2.253   6.374  0.1860 -0.1401  0.3500
  342MOL0     C45037   4.522   2.140   6.333  0.2157 -1.4163  0.6028
  342MOL0     C45038   4.658   2.101   6.351 -0.9218 -0.0059  0.0862
  342MOL0     C45039   4.710   1.980   6.301  0.4404  0.6368 -0.1362
  342MOL0     C45040   4.624   1.892   6.238  0.3858 -0.4378  0.2288
  342MOL0     C45041   4.681   1.776   6.165  0.1635 -0.9207 -0.0477
  342MOL0     O45042   4.584   1.692   6.107 -0.3400  0.4644  0.8117
  342MOL0     C45043   4.614   1.574   6.048  1.0363  0.6772  0.0557
  342MOL0     C45044   4.732   1.503   6.065 -1.0189  0.3195  0.4332
  342MOL0     C45045   4.753   1.390   5.986  0.5459  0.1715  0.2263
  342MOL0     C45046   4.654   1.340   5.900 -0.5972 -0.6028  0.0766
  342MOL0     O45047   4.679   1.212   5.850 -1.2447  0.1039 -0.2982
  342MOL0     C45048   4.616   1.183   5.728 -0.3734 -0.1084  1.2766
  342MOL0     C45049   4.668   1.252   5.601  0.5881  0.7290 -0.4524
  342MOL0     C45050   4.804   1.212   5.552  0.1801  0.4173 -0.2967
  342MOL0     C45051   4.793   1.067   5.490  0.9866 -1.3360  1.2357
  342MOL0     C45052   4.931   1.045   5.430 -0.3687 -0.0528  0.1488
  342MOL0     C45053   4.945   0.895   5.398 -0.4066 -0.5555 -0.6951
  342MOL0     C45054   5.089   0.852   5.359 -0.3009 -0.0023 -0.9261
  342MOL0     C45055   5.093   0.720   5.277 -0.4805  0.0976  0.0027
  342MOL0    Cl45056   5.073   0.578   5.381  0.3810 -0.1469  0.3149
  342MOL0     C45057   4.540   1.405   5.892 -0.0266  0.1231  0.3870
  342MOL0     C45058   4.512   1.522   5.960 -0.1911  0.0550 -0.4089
  342MOL0     O45059   4.809   1.763   6.163  0.6871 -0.5550  0.3632
  342MOL0     C45060   4.490   1.931   6.220  0.6734 -0.7126  0.1753
  342MOL0     C45061   4.438   2.051   6.269 -0.7245 -1.0776  0.1314
  342MOL0     N45062   4.249   2.361   6.937 -0.0490 -0.5830 -0.0948
  342MOL0     N45063   4.141   2.308   6.966  0.3262 -0.3722 -0.5212
  342MOL0     C45064   3.134   2.375   6.938  0.5166 -1.3253 -0.1728
  342MOL0     C45065   3.028   2.313   6.869 -0.0884  0.3596  0.4846
  342MOL0     C45066   2.682   2.167   6.620 -0.2218  0.8837  0.1507
  342MOL0     C45067   2.653   2.241   6.504 -0.6373  0.7350  0.5840
  342MOL0     C45068   2.554   2.197   6.415 -0.4035  0.5841  0.2117
  342MOL0     C45069   2.472   2.091   6.452 -0.1620  0.6703  0.2557
  342MOL0     O45070   2.367   2.065   6.374  0.3253 -0.5429 -0.2761
  342MOL0     C45071   2.284   2.184   6.359 -0.7435 -0.9878 -0.0018
  342MOL0     C45072   2.186   2.197   6.464  0.8016  0.2624 -0.1577
  342MOL0     C45073   2.088   2.305   6.432 -0.1817 -0.6835 -0.3526
  342MOL0     C45074   1.990   2.312   6.548  0.0103 -0.6137  0.1365
  342MOL0     C45075   2.041   2.392   6.667  0.8609 -0.8464  0.5640
  342MOL0     C45076   2.063   2.461   6.772 -0.3298 -0.3729 -0.5710
  342MOL0     C45077   2.497   2.024   6.568 -0.3344  0.4938 -0.5447
  342MOL0     C45078   2.593   2.061   6.657 -0.0192  0.2286 -0.1855
  342MOL0     H45079   2.933   2.553   6.660  1.9645 -3.5462 -1.8951
  342MOL0     H45080   3.059   2.686   6.818 -0.3188 -0.3432 -0.3627
  342MOL0     H45081   3.202   2.510   7.182 -1.4940 -0.0927 -0.7324
  342MOL0     H45082   3.282   2.673   7.157  1.9564 -0.4245  1.5327
  342MOL0     H45083   3.411   2.500   7.284 -2.2243  0.2095 -0.0935
  342MOL0     H45084   3.482   2.590   7.146  0.2872 -0.8063 -0.8989
  342MOL0     H45085   3.457   2.370   7.017 -0.0161  0.6407 -0.6554
  342MOL0     H45086   3.371   2.301   7.161 -0.6461  1.3175  0.0304
  342MOL0     H45087   3.591   2.348   7.291 -1.1792  1.2273  0.1677
  342MOL0     H45088   3.598   2.220   7.167  2.0050  0.8311 -0.5347
  342MOL0     H45089   3.796   2.339   7.140 -1.8341 -1.1719  2.6093
  342MOL0     H45090   3.727   2.490   7.164  1.7635  0.5444 -0.3772
  342MOL0     H45091   3.623   2.494   6.932 -0.9127 -0.1621  2.0561
  342MOL0     H45092   3.664   2.326   6.900  0.8681  0.1092  0.7551
  342MOL0     H45093   3.813   2.512   6.813  0.7381  4.2345  2.5830
  342MOL0     H45094   3.888   2.504   6.970  0.8968 -0.0940  0.2579
  342MOL0     H45095   3.878   2.275   6.759  2.1517  0.7326 -1.1342
  342MOL0     H45096   3.881   2.233   6.929 -0.6314  2.2667  1.9103
  342MOL0     H45097   4.067   2.489   6.701  2.6828  2.1226  0.0486
  342MOL0     H45098   4.371   2.579   6.847 -2.0477 -1.0799  1.4691
  342MOL0     H45099   4.292   2.590   6.677 -2.1832  0.2655  1.9523
  342MOL0     H45100   4.500   2.381   6.756 -1.2875  1.0620  2.5255
  342MOL0     H45101   4.547   2.522   6.663  1.0504 -2.8810 -0.8686
  342MOL0     H45102   4.315   2.334   6.571  0.5714  0.1668  1.4581
  342MOL0     H45103   4.368   2.458   6.475 -0.7316 -0.4028 -0.5333
  342MOL0     H45104   4.556   2.231   6.558  1.2627 -1.6186 -1.2397
  342MOL0     H45105   4.603   2.365   6.449 -1.4765 -1.1972 -4.4853
  342MOL0     H45106   4.731   2.163   6.400  0.9119 -2.6450  0.9222
  342MOL0     H45107   4.813   1.956   6.321  0.1909  0.8109  1.4516
  342MOL0     H45108   4.815   1.539   6.126  0.0447 -1.3958  0.0664
  342MOL0     H45109   4.845   1.334   6.000  0.7946  0.6988  0.7757
  342MOL0     H45110   4.510   1.209   5.724 -0.5806 -1.0147  0.2475
  342MOL0     H45111   4.623   1.074   5.722  0.1008 -0.1458  2.2909
  342MOL0     H45112   4.660   1.360   5.610 -1.6244  0.6309 -0.8072
  342MOL0     H45113   4.603   1.239   5.514  0.7556  0.4805 -0.5423
  342MOL0     H45114   4.867   1.209   5.641 -1.7930 -3.7107  1.1949
  342MOL0     H45115   4.833   1.297   5.489 -2.6933  2.5318  0.9708
  342MOL0     H45116   4.766   0.997   5.570 -1.7809 -1.9826 -0.1730
  342MOL0     H45117   4.717   1.060   5.413 -2.0520 -0.2181  3.9133
  342MOL0     H45118   5.002   1.076   5.507 -1.3257  0.0550  1.0142
  342MOL0     H45119   4.933   1.112   5.344  0.6769  0.8485  0.8366
  342MOL0     H45120   4.872   0.872   5.320 -1.7211  3.3871 -0.8285
  342MOL0     H45121   4.916   0.823   5.476  0.0582 -1.1481 -1.0548
  342MOL0     H45122   5.136   0.934   5.305  0.1261  0.4330  0.0771
  342MOL0     H45123   5.142   0.842   5.454 -0.3004  2.2437 -0.6266
  342MOL0     H45124   5.181   0.710   5.213 -1.3586  0.0288 -1.2207
  342MOL0     H45125   5.008   0.716   5.210 -0.6181  2.8406 -0.0614
  342MOL0     H45126   4.462   1.373   5.824  1.5459 -3.9494  0.2670
  342MOL0     H45127   4.420   1.575   5.940 -2.1156 -2.3935  1.2912
  342MOL0     H45128   4.435   1.863   6.155  2.1721 -1.6740 -0.1416
  342MOL0     H45129   4.334   2.077   6.255 -0.2439  1.8211  1.1366
  342MOL0     H45130   3.181   2.335   7.027  0.4576  1.3375  1.1743
  342MOL0     H45131   3.018   2.210   6.900  1.2533 -0.1954 -0.7847
  342MOL0     H45132   2.724   2.321   6.484  0.9718 -0.9259 -0.8607
  342MOL0     H45133   2.545   2.255   6.324  2.1845 -1.3297 -1.4492
  342MOL0     H45134   2.241   2.181   6.258 -1.9495 -0.0293  0.4545
  342MOL0     H45135   2.344   2.275   6.360  0.1152 -1.5519  0.0242
  342MOL0     H45136   2.136   2.100   6.472 -0.6719  0.9877 -0.1196
  342MOL0     H45137   2.230   2.219   6.561 -0.5549 -2.7554  1.2597
  342MOL0     H45138   2.030   2.300   6.340 -3.3759  3.0478  1.1777
  342MOL0     H45139   2.145   2.398   6.432  0.1436 -0.8717  0.9707
  342MOL0     H45140   1.906   2.361   6.499  0.2649  2.8683  2.8029
  342MOL0     H45141   1.958   2.213   6.582 -0.4959 -0.0420  1.3530
  342MOL0     H45142   2.077   2.525   6.857  0.2666  2.0269 -2.3673
  342MOL0     H45143   2.444   1.931   6.585  0.8100 -0.4369 -1.8687
  342MOL0     H45144   2.598   2.006   6.751  3.1445  1.7535  0.6602
  343MOL0     O45145   1.306   9.586   1.003 -0.2976 -0.4436  0.1773
  343MOL0     C45146   1.293   9.708   0.966 -0.2838 -0.1570 -0.1236
  343MOL0     O45147   1.313   9.813   1.047  0.7162 -0.7067  0.4332
  343MOL0     C45148   1.359   9.804   1.171 -0.6571 -0.1151 -0.7950
  343MOL0     C45149   1.278   9.830   1.284 -0.3179  0.6880  0.2993
  343MOL0     C45150   1.334   9.809   1.407 -0.7748  0.3058 -0.9857
  343MOL0     C45151   1.470   9.773   1.423 -0.5502 -0.7547  0.0778
  343MOL0     O45152   1.532   9.763   1.545  0.7079  0.4940  0.9562
  343MOL0     C45153   1.497   9.846   1.655 -0.5416  0.5277 -1.1893
  343MOL0     C45154   1.597   9.808   1.766 -0.1570 -0.4584 -0.3387
  343MOL0     C45155   1.581   9.665   1.806 -0.0789  0.4377 -0.0083
  343MOL0     C45156   1.651   9.659   1.948 -0.2955 -0.6407  0.6105
  343MOL0     C45157   1.707   9.527   1.969  0.0463  0.5241  0.4014
  343MOL0     C45158   1.721   9.508   2.122  0.2119  0.7712  0.0744
  343MOL0     C45159   1.825   9.394   2.146 -0.6978 -0.0735 -0.6184
  343MOL0     C45160   1.864   9.400   2.303 -1.1403  0.4960 -0.5411
  343MOL0     N45161   1.943   9.287   2.340 -0.4637  0.3176 -0.4538
  343MOL0     C45162   2.049   9.221   2.280 -0.1881 -0.1114  0.4663
  343MOL0     C45163   2.096   9.126   2.367  0.4861 -1.5145 -0.2630
  343MOL0     C45164   2.196   9.024   2.318  0.4571  0.1062  0.1854
  343MOL0     C45165   2.150   8.884   2.264 -1.3682  0.3483  0.7673
  343MOL0     C45166   2.054   8.886   2.149 -1.3532 -0.0355  0.2572
  343MOL0     C45167   2.102   8.957   2.020  0.5773 -0.2836 -0.8887
  343MOL0     O45168   2.224   8.916   1.964  0.2844 -0.1257  0.3764
  343MOL0     C45169   2.250   8.783   1.940  0.2033 -0.2467 -0.4634
  343MOL0     C45170   2.375   8.743   1.962 -0.2260 -0.7018 -0.0354
  343MOL0     C45171   2.403   8.610   1.936 -0.1251 -0.0605 -0.2221
  343MOL0     C45172   2.308   8.519   1.887  0.7804 -0.5483  0.1428
  343MOL0     C45173   2.337   8.376   1.855  0.5998 -0.4816  0.8535
  343MOL0     O45174   2.236   8.306   1.791 -0.2746 -0.1009 -0.3201
  343MOL0     C45175   2.264   8.187   1.731  0.8066 -0.0783 -0.1404
  343MOL0     C45176   2.278   8.208   1.596 -0.0377 -0.6453 -0.0077
  343MOL0     C45177   2.254   8.101   1.508 -0.7283 -0.0039  0.6591
  343MOL0     C45178   2.217   7.969   1.554 -0.1846  0.3723 -0.3198
  343MOL0     O45179   2.186   7.866   1.482 -0.9124 -0.5113 -1.2344
  343MOL0     C45180   2.298   7.831   1.391  0.3912 -1.0772 -0.2663
  343MOL0     C45181   2.268   7.687   1.350 -0.6295  0.0293  1.2477
  343MOL0     C45182   2.374   7.648   1.237  0.2106 -1.7401 -0.5683
  343MOL0     C45183   2.300   7.559   1.134  0.0269 -0.3141  0.2048
  343MOL0     C45184   2.377   7.525   1.013 -1.2848  0.1605  0.5794
  343MOL0     C45185   2.300   7.450   0.906 -0.2029  0.5529 -0.1132
  343MOL0     C45186   2.370   7.444   0.764 -0.2648 -0.0745 -0.3860
  343MOL0     C45187   2.518   7.399   0.763  0.7739 -0.2156  0.1700
  343MOL0    Cl45188   2.526   7.252   0.844  0.0067 -0.0906  0.3291
  343MOL0     C45189   2.203   7.961   1.692  0.4837  0.3315 -0.0939
  343MOL0     C45190   2.220   8.064   1.780 -0.2305  0.6399  0.6195
  343MOL0     O45191   2.459   8.340   1.864  0.3638 -0.1491  0.1120
  343MOL0     C45192   2.177   8.564   1.866 -0.1828 -0.0047  1.2580
  343MOL0     C45193   2.151   8.697   1.880 -0.3110  0.0325 -0.7698
  343MOL0     N45194   2.015   9.127   2.479 -0.7553 -0.3315 -0.6244
  343MOL0     N45195   1.937   9.226   2.458  0.3483  0.1088  0.2743
  343MOL0     C45196   1.544   9.747   1.313 -1.2198 -0.4254  0.5415
  343MOL0     C45197   1.494   9.761   1.190 -0.1551  0.4233  0.2975
  343MOL0     C45198   1.243   9.736   0.827 -0.1029  0.0803  0.4678
  343MOL0     C45199   1.252   9.856   0.765 -0.4405 -1.0049  0.4852
  343MOL0     C45200   1.241   9.868   0.629  0.5300  0.4389  1.1556
  343MOL0     C45201   1.223   9.749   0.551  0.2169  0.2643 -0.2514
  343MOL0     O45202   1.209   9.746   0.418  0.0112  0.1445  0.0014
  343MOL0     C45203   1.244   9.862   0.336  0.2357 -0.0268  0.2105
  343MOL0     C45204   1.120   9.945   0.298  0.4007  0.2535 -1.4052
  343MOL0     C45205   0.987   9.863   0.277  0.9042  0.3295 -0.0727
  343MOL0     C45206   0.983   9.789   0.146 -0.5463  0.9380  0.7746
  343MOL0     C45207   0.960   9.880   0.032 -0.2345  0.0650  0.4847
  343MOL0     C45208   0.957   9.965  -0.049  0.3806 -0.4898  0.1430
  343MOL0     C45209   1.208   9.623   0.616  0.2055 -0.3581  0.1855
  343MOL0     C45210   1.213   9.616   0.758 -0.6220 -0.0423  0.2788
  343MOL0     H45211   1.178   9.873   1.281 -0.6629  0.4841  4.0174
  343MOL0     H45212   1.275   9.837   1.494  1.1289 -0.3801  0.6098
  343MOL0     H45213   1.395   9.833   1.690  0.1860  2.7664  2.2731
  343MOL0     H45214   1.515   9.951   1.627  1.2239  0.3171 -0.9791
  343MOL0     H45215   1.574   9.867   1.855 -0.2150  1.3945 -1.5274
  343MOL0     H45216   1.701   9.823   1.736 -0.4447  0.2236 -1.0208
  343MOL0     H45217   1.640   9.603   1.737  2.5296 -1.1763  3.3937
  343MOL0     H45218   1.473   9.646   1.812 -0.1617  0.9667  0.2330
  343MOL0     H45219   1.723   9.739   1.967 -1.9489  1.4011 -1.1600
  343MOL0     H45220   1.569   9.681   2.016 -0.6747  2.2970 -0.6758
  343MOL0     H45221   1.801   9.518   1.913 -1.2286  0.2654 -1.7988
  343MOL0     H45222   1.630   9.461   1.929 -0.1423  0.1899  1.2801
  343MOL0     H45223   1.625   9.483   2.169  0.8985  0.9065  1.5745
  343MOL0     H45224   1.755   9.603   2.165 -0.2593  0.6303  0.7731
  343MOL0     H45225   1.788   9.292   2.134 -1.0456 -0.2017  1.2348
  343MOL0     H45226   1.917   9.414   2.090  0.4222 -0.4212  1.0019
  343MOL0     H45227   1.782   9.408   2.375  2.0212  0.0017  3.4397
  343MOL0     H45228   1.919   9.493   2.314 -0.3304  0.2469 -2.1690
  343MOL0     H45229   2.102   9.245   2.188  0.8959  0.5067  1.2217
  343MOL0     H45230   2.271   9.017   2.397  2.2010 -1.4817 -1.4939
  343MOL0     H45231   2.241   9.060   2.225  0.1151 -1.6455 -0.7129
  343MOL0     H45232   2.107   8.824   2.344  3.9539 -1.0104  3.0532
  343MOL0     H45233   2.238   8.823   2.241 -2.0713 -1.6051  2.9476
  343MOL0     H45234   2.031   8.780   2.133 -2.0406  0.5347 -3.4384
  343MOL0     H45235   1.955   8.925   2.175 -2.3986 -3.0764  1.2661
  343MOL0     H45236   2.101   9.064   2.044 -0.2856 -0.5683  0.4483
  343MOL0     H45237   2.025   8.946   1.943 -2.5312  3.2569  1.3461
  343MOL0     H45238   2.454   8.812   1.989 -1.4746  1.9521 -2.4864
  343MOL0     H45239   2.501   8.571   1.960 -0.3942 -0.3115  0.5025
  343MOL0     H45240   2.304   8.309   1.566 -0.1647 -0.9086 -1.0589
  343MOL0     H45241   2.257   8.115   1.401  2.1496 -0.4957  0.5950
  343MOL0     H45242   2.399   7.849   1.429  1.2594 -1.3218 -2.3372
  343MOL0     H45243   2.288   7.889   1.299  1.4787  0.3755  0.4860
  343MOL0     H45244   2.165   7.690   1.313  0.2067  1.7225 -1.2341
  343MOL0     H45245   2.276   7.608   1.425 -2.3481 -1.8413 -0.3920
  343MOL0     H45246   2.455   7.599   1.292  0.4901  0.1233  0.7507
  343MOL0     H45247   2.403   7.735   1.178 -0.5472  0.2086  1.8118
  343MOL0     H45248   2.259   7.462   1.165 -0.0489 -1.2731 -2.6325
  343MOL0     H45249   2.225   7.633   1.105  0.8260  0.7974  0.8891
  343MOL0     H45250   2.457   7.463   1.055 -0.5233  0.2978 -0.6250
  343MOL0     H45251   2.414   7.617   0.967  1.1122 -1.6775 -1.4328
  343MOL0     H45252   2.204   7.501   0.890  0.8063  2.4598 -0.4822
  343MOL0     H45253   2.285   7.347   0.940  0.7906  1.2336  2.7403
  343MOL0     H45254   2.313   7.383   0.693 -1.8156  0.8420  0.0209
  343MOL0     H45255   2.380   7.543   0.718  2.9766  0.5073  1.2970
  343MOL0     H45256   2.592   7.473   0.794  2.2749 -0.9691 -1.4923
  343MOL0     H45257   2.544   7.388   0.657  1.0775 -1.6874  0.3906
  343MOL0     H45258   2.165   7.867   1.731 -2.8696  1.0192 -1.3196
  343MOL0     H45259   2.187   8.047   1.882  0.1849  0.9895  0.8128
  343MOL0     H45260   2.092   8.508   1.829 -0.7525  1.5738  0.0946
  343MOL0     H45261   2.051   8.739   1.873 -0.7080 -0.8620 -0.5467
  343MOL0     H45262   1.649   9.722   1.326 -0.1938  1.9854 -2.1264
  343MOL0     H45263   1.560   9.755   1.104 -1.2368  3.0089 -0.8305
  343MOL0     H45264   1.295   9.937   0.824  0.9733 -0.8421 -0.6926
  343MOL0     H45265   1.230   9.966   0.584 -2.6259 -0.5948 -0.6157
  343MOL0     H45266   1.294   9.835   0.243 -1.8453 -1.7962 -0.4673
  343MOL0     H45267   1.320   9.932   0.371 -2.3502  3.3322 -0.3900
  343MOL0     H45268   1.100  10.006   0.386 -0.5386 -2.4468  0.3771
  343MOL0     H45269   1.153  10.012   0.218  1.6535  2.6608  0.9942
  343MOL0     H45270   0.898   9.926   0.280  0.8157  0.4304 -2.4800
  343MOL0     H45271   0.973   9.783   0.350  3.6223 -0.0364  0.1677
  343MOL0     H45272   1.078   9.735   0.138 -0.2732  1.2643  1.7146
  343MOL0     H45273   0.897   9.722   0.146 -1.1367  1.5772  3.3684
  343MOL0     H45274   0.951  10.046  -0.119 -3.4505 -1.2367 -0.5786
  343MOL0     H45275   1.171   9.546   0.549 -1.2255  2.4898 -2.5724
  343MOL0     H45276   1.203   9.518   0.803 -2.0779 -1.1731 -2.2461
  344MOL0     O45277  10.295   1.138   4.076 -0.3204  0.0161  0.4401
  344MOL0     C45278  10.346   1.025   4.070  0.8579  0.2878  0.1551
  344MOL0     O45279  10.476   1.003   4.043  0.1623  0.8333  0.0274
  344MOL0     C45280  10.556   1.108   4.036 -0.3110 -0.6235 -0.0414
  344MOL0     C45281  10.648   1.122   4.144  0.4187 -0.4209  0.0715
  344MOL0     C45282  10.740   1.240   4.145 -0.1104 -0.3351 -0.2934
  344MOL0     C45283  10.752   1.315   4.031  0.8025  0.3986  1.6662
  344MOL0     O45284  10.835   1.423   4.014 -0.1158  0.7004  0.7331
  344MOL0     C45285  10.857   1.496   4.132 -0.2898  0.2948 -0.1777
  344MOL0     C45286  10.993   1.464   4.192  0.2745  0.0637  0.4011
  344MOL0     C45287  11.098   1.517   4.096 -0.4823 -0.2810 -0.4981
  344MOL0     C45288  11.230   1.529   4.172 -0.4125 -0.2375  0.3216
  344MOL0     C45289  11.316   1.402   4.213  0.2503  0.1205  0.9364
  344MOL0     C45290  11.347   1.298   4.107  0.2752  0.1081 -0.7373
  344MOL0     C45291  11.443   1.195   4.162  0.8968  0.3791  0.3898
  344MOL0     C45292  11.575   1.203   4.111  0.8902 -1.2340 -0.2531
  344MOL0     N45293  11.652   1.106   4.183 -0.0403 -0.0921  0.1130
  344MOL0     C45294  11.758   1.140   4.259  0.5821 -0.5829  0.7424
  344MOL0     C45295  11.812   1.023   4.297 -0.4731 -0.3653 -0.4501
  344MOL0     C45296  11.918   1.022   4.396 -0.0446  0.3767 -0.2072
  344MOL0     C45297  12.059   1.059   4.343 -0.1555  0.0418  0.4494
  344MOL0     C45298  12.070   1.200   4.284 -0.1029 -0.4893 -0.3573
  344MOL0     C45299  12.220   1.223   4.255 -0.3847 -0.0839  0.6959
  344MOL0     O45300  12.289   1.254   4.380 -0.1658 -0.0152 -0.4438
  344MOL0     C45301  12.419   1.293   4.374 -0.5926 -0.1722  0.3270
  344MOL0     C45302  12.500   1.304   4.260 -0.3418 -0.4049  0.0297
  344MOL0     C45303  12.635   1.348   4.281 -0.0459  0.2514  0.7469
  344MOL0     C45304  12.692   1.377   4.410  0.1142  0.1408 -0.0324
  344MOL0     C45305  12.831   1.428   4.436 -0.5811 -0.5041 -0.1961
  344MOL0     O45306  12.915   1.441   4.331 -0.3175  0.3532 -0.3918
  344MOL0     C45307  13.023   1.532   4.331  0.3002 -0.4979 -0.1508
  344MOL0     C45308  13.097   1.522   4.209  0.9569  0.1506 -0.3689
  344MOL0     C45309  13.207   1.608   4.182  0.3450  0.6262  1.2748
  344MOL0     C45310  13.237   1.711   4.273  0.2076 -0.0980  0.3776
  344MOL0     O45311  13.353   1.790   4.261 -0.6089 -0.2679  0.4575
  344MOL0     C45312  13.469   1.742   4.184  0.5457 -0.1993  0.2556
  344MOL0     C45313  13.586   1.812   4.235  0.3328 -0.2082  0.2393
  344MOL0     C45314  13.707   1.780   4.148  0.9854 -0.6717  0.1134
  344MOL0     C45315  13.813   1.888   4.196  0.1365  1.0525 -0.6563
  344MOL0     C45316  13.960   1.845   4.139  0.3432  0.8863  1.2573
  344MOL0     C45317  14.075   1.927   4.203 -0.2917 -0.1993 -0.1290
  344MOL0     C45318  14.208   1.907   4.121 -0.6957 -0.6324  0.4194
  344MOL0     C45319  14.323   2.014   4.150 -0.7412 -0.2203 -0.4300
  344MOL0    Cl45320  14.391   2.005   4.319  0.5099 -0.2520  0.5153
  344MOL0     C45321  13.169   1.716   4.394  0.0292  0.7044 -1.0243
  344MOL0     C45322  13.058   1.625   4.428 -0.5082  0.2304  1.1692
  344MOL0     O45323  12.858   1.452   4.553 -0.4005 -0.4332  0.4559
  344MOL0     C45324  12.601   1.370   4.517 -0.4273  0.5648  0.8304
  344MOL0     C45325  12.469   1.326   4.500  0.3775 -0.1463  0.2481
  344MOL0     N45326  11.754   0.926   4.229  0.1634 -0.3885 -0.4237
  344MOL0     N45327  11.650   0.974   4.166 -0.2841 -0.1197  0.4815
  344MOL0     C45328  10.674   1.283   3.918 -0.4457  0.3999  0.4256
  344MOL0     C45329  10.575   1.193   3.930  0.5945  0.8464  0.1163
  344MOL0     C45330  10.246   0.912   4.072  0.8751  0.8412  0.0038
  344MOL0     C45331  10.106   0.934   4.098  0.3272 -0.3468  0.5761
  344MOL0     C45332  10.015   0.826   4.104 -0.3002  0.9840 -0.6638
  344MOL0     C45333  10.063   0.694   4.073 -0.3977  0.7772 -0.3632
  344MOL0     O45334   9.970   0.595   4.100 -0.1801 -0.4768  0.1052
  344MOL0     C45335   9.997   0.452   4.129  0.2332  0.2520  0.4851
  344MOL0     C45336  10.068   0.426   4.268 -0.1381 -0.1370 -0.0863
  344MOL0     C45337   9.997   0.503   4.387  0.3370  0.7380  0.4291
  344MOL0     C45338  10.049   0.463   4.524 -0.3641 -0.0502 -0.0190
  344MOL0     C45339  10.190   0.513   4.539  1.4121 -0.4577  0.0112
  344MOL0     C45340  10.307   0.539   4.546  0.4322 -0.9507  1.0451
  344MOL0     C45341  10.201   0.673   4.044  0.4893  0.5312  0.2721
  344MOL0     C45342  10.296   0.781   4.040 -0.0855  0.7744  0.5190
  344MOL0     H45343  10.634   1.064   4.235  1.1099 -0.2879  0.2706
  344MOL0     H45344  10.799   1.265   4.233 -2.6465  1.3722  1.0352
  344MOL0     H45345  10.778   1.491   4.208  1.7738 -1.6497  2.0047
  344MOL0     H45346  10.854   1.598   4.094 -0.6252  0.0982 -0.6847
  344MOL0     H45347  10.987   1.355   4.203 -1.2834  0.0254 -0.4441
  344MOL0     H45348  11.004   1.502   4.294 -1.2050 -0.5159  0.8096
  344MOL0     H45349  11.072   1.620   4.070  1.3835 -0.0409 -1.6440
  344MOL0     H45350  11.109   1.457   4.005  1.5017 -2.9910  1.3657
  344MOL0     H45351  11.297   1.587   4.107  0.3572 -0.5556  0.8169
  344MOL0     H45352  11.210   1.570   4.271  1.0679  2.5726 -0.4229
  344MOL0     H45353  11.268   1.347   4.294 -0.0654 -0.0659  0.6241
  344MOL0     H45354  11.410   1.438   4.256  1.4170 -1.9323  0.2617
  344MOL0     H45355  11.390   1.335   4.013  1.2112  2.2508  0.4369
  344MOL0     H45356  11.251   1.253   4.081  1.1500 -1.1417 -1.9560
  344MOL0     H45357  11.448   1.198   4.272 -0.6773 -0.0331  0.4917
  344MOL0     H45358  11.408   1.095   4.135  3.3765  0.6172 -4.9522
  344MOL0     H45359  11.612   1.306   4.119 -1.5411 -0.2284 -1.0046
  344MOL0     H45360  11.575   1.172   4.007  2.2315 -2.5024  0.0902
  344MOL0     H45361  11.791   1.231   4.308 -0.2219 -0.0439  0.3128
  344MOL0     H45362  11.913   0.919   4.433  0.1073  0.4224 -0.0562
  344MOL0     H45363  11.894   1.083   4.484  1.2634 -1.4390  1.5147
  344MOL0     H45364  12.086   0.977   4.276 -1.3647 -0.5988  0.7136
  344MOL0     H45365  12.125   1.054   4.430  1.4289 -0.8214 -0.7359
  344MOL0     H45366  12.020   1.208   4.187 -4.8520 -0.6453  1.8127
  344MOL0     H45367  12.025   1.272   4.352  1.3465 -0.2627  0.4182
  344MOL0     H45368  12.237   1.311   4.192 -2.0636 -0.0616  0.2219
  344MOL0     H45369  12.270   1.148   4.192  2.1649  0.0505  2.3896
  344MOL0     H45370  12.453   1.276   4.166 -2.7835  1.5156  0.5931
  344MOL0     H45371  12.688   1.369   4.188 -2.1518  0.1131 -0.5554
  344MOL0     H45372  13.061   1.450   4.136 -1.5478  0.9007  0.0114
  344MOL0     H45373  13.260   1.606   4.087 -0.8985  1.5032  0.5270
  344MOL0     H45374  13.462   1.742   4.075 -0.1102  0.8060  0.2850
  344MOL0     H45375  13.474   1.634   4.203 -2.8139 -0.1813  2.0913
  344MOL0     H45376  13.615   1.792   4.338  0.0873 -3.1537 -0.1733
  344MOL0     H45377  13.567   1.920   4.234 -1.7400 -0.4152 -3.5709
  344MOL0     H45378  13.687   1.790   4.041 -0.3589  1.5072  0.4971
  344MOL0     H45379  13.744   1.679   4.166 -1.0525 -1.2878  1.1928
  344MOL0     H45380  13.776   1.982   4.154  0.7202  1.2143 -0.8246
  344MOL0     H45381  13.817   1.891   4.305  0.0501 -2.9396 -0.4092
  344MOL0     H45382  13.970   1.854   4.030  1.0594 -0.9303  1.1308
  344MOL0     H45383  13.990   1.743   4.164  1.6811  0.9041 -0.1044
  344MOL0     H45384  14.117   1.879   4.292 -0.6126  2.8199  1.7831
  344MOL0     H45385  14.047   2.030   4.226 -0.3702  0.0680 -1.3563
  344MOL0     H45386  14.257   1.812   4.147 -0.3779 -0.7065 -0.4060
  344MOL0     H45387  14.191   1.903   4.012  0.1594  0.9068  0.2085
  344MOL0     H45388  14.289   2.115   4.124  0.5655 -0.4856 -3.6913
  344MOL0     H45389  14.410   2.016   4.085 -1.2661  0.8636 -1.1432
  344MOL0     H45390  13.209   1.784   4.468  1.7092 -0.2490 -1.0122
  344MOL0     H45391  13.011   1.632   4.525  1.1929  3.3010  1.9132
  344MOL0     H45392  12.642   1.411   4.608 -1.0770  0.3781  1.2149
  344MOL0     H45393  12.399   1.324   4.583  1.2571  0.0877  1.0133
  344MOL0     H45394  10.696   1.335   3.825  0.1671 -1.9313 -0.7864
  344MOL0     H45395  10.501   1.157   3.859 -2.2104 -0.6452  3.5318
  344MOL0     H45396  10.074   1.029   4.140  0.6070 -1.2855  3.0589
  344MOL0     H45397   9.908   0.841   4.115 -0.2218  1.3320 -0.3410
  344MOL0     H45398  10.064   0.417   4.050  0.8418  1.8328  0.2607
  344MOL0     H45399   9.902   0.397   4.121 -0.7092  1.9860 -0.9640
  344MOL0     H45400  10.058   0.321   4.298  0.6490  0.1640  1.3713
  344MOL0     H45401  10.174   0.453   4.270  0.1983 -1.3646  0.8712
  344MOL0     H45402   9.891   0.477   4.391  0.8660 -1.7079  0.0753
  344MOL0     H45403  10.011   0.611   4.376 -0.0208  0.7467 -0.0016
  344MOL0     H45404   9.980   0.509   4.595 -0.4133  0.0577 -0.1367
  344MOL0     H45405  10.061   0.357   4.548 -1.7908 -0.0177  0.9748
  344MOL0     H45406  10.403   0.587   4.552 -0.5391  1.6981 -1.8765
  344MOL0     H45407  10.233   0.575   4.011  0.0641  0.6913 -0.6653
  344MOL0     H45408  10.403   0.775   4.021 -0.1692  1.2854 -0.1605
  345MOL0     O45409   3.588   9.841   4.372  0.4336 -0.1485  0.2659
  345MOL0     C45410   3.504   9.876   4.302  1.0660  0.2376 -0.1328
  345MOL0     O45411   3.415   9.782   4.240  0.2814  0.5851  0.2212
  345MOL0     C45412   3.452   9.649   4.234 -1.0364 -0.8535  0.3292
  345MOL0     C45413   3.549   9.616   4.142  0.1533 -0.4048 -0.6305
  345MOL0     C45414   3.592   9.482   4.137 -0.7868  0.2343 -0.3144
  345MOL0     C45415   3.548   9.385   4.220  0.1428  0.7507 -0.7034
  345MOL0     O45416   3.575   9.261   4.214 -0.1236 -0.8468  0.5173
  345MOL0     C45417   3.718   9.226   4.215 -0.0700  0.6374 -0.4566
  345MOL0     C45418   3.737   9.088   4.250  0.2079 -0.0021  0.5264
  345MOL0     C45419   3.729   9.035   4.394 -0.7765 -0.0699  0.0506
  345MOL0     C45420   3.783   8.890   4.408  0.3754 -0.2934  0.4101
  345MOL0     C45421   3.700   8.791   4.327  0.1058 -0.4483 -0.0461
  345MOL0     C45422   3.695   8.653   4.400  0.5284  0.8863 -0.5450
  345MOL0     C45423   3.593   8.567   4.319  0.1227 -0.0196  0.1889
  345MOL0     C45424   3.632   8.572   4.167 -0.5871  0.8233  0.0832
  345MOL0     N45425   3.538   8.488   4.095 -0.9601  0.4575  0.1389
  345MOL0     C45426   3.538   8.356   4.083 -0.1286  0.4132 -0.4177
  345MOL0     C45427   3.437   8.322   4.006  0.1604 -0.4676  0.9587
  345MOL0     C45428   3.371   8.190   3.967 -0.9306 -0.1394 -0.7365
  345MOL0     C45429   3.428   8.127   3.841  0.3300  0.5995  0.4232
  345MOL0     C45430   3.324   8.076   3.749  0.3209  0.3135 -0.0149
  345MOL0     C45431   3.379   8.006   3.628  0.7472  0.9196 -1.1881
  345MOL0     O45432   3.455   7.880   3.648 -0.1812  0.2821 -0.7063
  345MOL0     C45433   3.492   7.801   3.541  0.3170 -0.6493 -0.3801
  345MOL0     C45434   3.545   7.673   3.576 -0.5587  0.0079  1.2628
  345MOL0     C45435   3.575   7.581   3.482  0.5933 -0.7572 -0.5378
  345MOL0     C45436   3.527   7.601   3.353 -0.6382  1.3159  0.9124
  345MOL0     C45437   3.567   7.497   3.261 -0.3574  0.7104  0.1772
  345MOL0     O45438   3.663   7.403   3.296  0.4261 -0.0333  0.5008
  345MOL0     C45439   3.658   7.286   3.215 -1.0163 -0.1916 -0.2741
  345MOL0     C45440   3.725   7.278   3.091  0.0974 -0.3704  0.3575
  345MOL0     C45441   3.728   7.153   3.018  1.0908 -0.7266  0.3654
  345MOL0     C45442   3.642   7.052   3.062 -0.2398 -0.6828 -1.0236
  345MOL0     O45443   3.658   6.940   2.991  0.2152  0.5453  0.2105
  345MOL0     C45444   3.582   6.826   3.047 -1.0730  0.8420  0.9850
  345MOL0     C45445   3.604   6.706   2.958  0.0842 -1.2023 -0.1011
  345MOL0     C45446   3.561   6.730   2.816 -0.7182  0.8150  0.7205
  345MOL0     C45447   3.559   6.593   2.746 -0.8288 -0.9683 -0.1584
  345MOL0     C45448   3.509   6.613   2.603 -0.6440  0.3216 -0.0726
  345MOL0     C45449   3.488   6.473   2.527 -0.3755  0.0433  0.1000
  345MOL0     C45450   3.370   6.399   2.596 -0.8915  0.1337  0.1537
  345MOL0     C45451   3.312   6.288   2.518  0.6963 -0.0849  0.2553
  345MOL0    Cl45452   3.448   6.160   2.481 -0.4201 -0.1990  0.3347
  345MOL0     C45453   3.569   7.065   3.185 -0.5449 -0.4114  0.7028
  345MOL0     C45454   3.583   7.181   3.263  0.3134 -1.0258  0.6452
  345MOL0     O45455   3.513   7.507   3.152  0.6066  0.0202 -0.4622
  345MOL0     C45456   3.464   7.716   3.325 -0.1154 -0.1325  0.5068
  345MOL0     C45457   3.463   7.829   3.410  0.2660 -0.3375 -0.3954
  345MOL0     N45458   3.377   8.446   3.966  0.1377 -0.2197  0.0949
  345MOL0     N45459   3.453   8.546   4.003 -0.7639  0.2597  0.0545
  345MOL0     C45460   3.453   9.422   4.323 -0.2502 -0.0141 -0.0144
  345MOL0     C45461   3.406   9.558   4.319  0.9459  1.0875  0.2994
  345MOL0     C45462   3.450  10.015   4.302 -0.7456 -0.3338  0.1215
  345MOL0     C45463   3.449  10.086   4.420  0.3007  0.0475  0.1704
  345MOL0     C45464   3.386  10.214   4.426  0.4704  0.6492 -0.6646
  345MOL0     C45465   3.331  10.276   4.310  0.4572 -0.1621 -0.4797
  345MOL0     O45466   3.275  10.392   4.333  0.3195  0.3848  0.3926
  345MOL0     C45467   3.141  10.407   4.278  0.4274  0.2910 -0.7977
  345MOL0     C45468   3.042  10.300   4.310  0.3944 -0.2105 -0.7428
  345MOL0     C45469   2.899  10.341   4.274  0.2385  0.5175 -0.2238
  345MOL0     C45470   2.815  10.304   4.395  0.5748 -0.4434 -0.1827
  345MOL0     C45471   2.801  10.161   4.399 -0.0364  0.3239 -0.8136
  345MOL0     C45472   2.783  10.041   4.421 -0.4986 -0.6974  0.6089
  345MOL0     C45473   3.349  10.206   4.190 -1.1317  0.4470 -0.2903
  345MOL0     C45474   3.405  10.074   4.184 -0.1552  0.5267  0.1238
  345MOL0     H45475   3.586   9.688   4.069  0.4342  0.3749  0.2587
  345MOL0     H45476   3.669   9.463   4.063 -0.4204  2.1052 -0.4687
  345MOL0     H45477   3.784   9.290   4.275 -0.2104  1.2534 -0.9474
  345MOL0     H45478   3.754   9.234   4.112  3.5898 -1.4459  0.4723
  345MOL0     H45479   3.835   9.059   4.211  0.6412  0.5758  1.1662
  345MOL0     H45480   3.658   9.033   4.198  0.6315 -0.0832 -0.0445
  345MOL0     H45481   3.623   9.052   4.417 -1.8633 -1.4572 -3.1757
  345MOL0     H45482   3.800   9.098   4.447 -0.2538 -0.5679 -0.0507
  345MOL0     H45483   3.880   8.895   4.356  1.4045  2.4096  2.3722
  345MOL0     H45484   3.779   8.868   4.515  2.3841  0.6154  0.7163
  345MOL0     H45485   3.744   8.789   4.227  2.8077 -1.5541  1.0482
  345MOL0     H45486   3.595   8.821   4.319  0.2321 -0.3065 -1.3620
  345MOL0     H45487   3.659   8.664   4.502  1.4841  0.4623 -0.1468
  345MOL0     H45488   3.792   8.602   4.400 -0.0339 -0.2392  0.4715
  345MOL0     H45489   3.593   8.461   4.347 -0.4040 -0.9505 -2.9834
  345MOL0     H45490   3.494   8.609   4.337  0.7387  1.5243  0.1246
  345MOL0     H45491   3.737   8.541   4.160 -1.3765 -1.8130 -2.0352
  345MOL0     H45492   3.620   8.673   4.128 -1.7983  0.2635 -1.1068
  345MOL0     H45493   3.603   8.294   4.143 -3.7061 -0.5571  2.8815
  345MOL0     H45494   3.264   8.201   3.951 -1.1105 -1.9169 -0.9379
  345MOL0     H45495   3.384   8.117   4.048 -3.8209  1.7488  1.6298
  345MOL0     H45496   3.494   8.045   3.871  0.5100 -0.6673 -2.9706
  345MOL0     H45497   3.495   8.199   3.791 -0.3743  1.1423  0.2376
  345MOL0     H45498   3.260   8.002   3.797 -0.5870  0.4310 -0.9944
  345MOL0     H45499   3.264   8.162   3.717 -0.8089 -0.7781 -0.9530
  345MOL0     H45500   3.433   8.076   3.562  0.8379 -0.8789 -3.1382
  345MOL0     H45501   3.293   7.987   3.562  1.4306 -1.7977 -1.4010
  345MOL0     H45502   3.572   7.654   3.679  2.2517  1.9380  1.0242
  345MOL0     H45503   3.641   7.499   3.509  3.1638  0.0697 -3.6963
  345MOL0     H45504   3.779   7.361   3.048  0.8406 -1.5532 -1.0763
  345MOL0     H45505   3.785   7.128   2.929  0.4878 -2.5514  0.4687
  345MOL0     H45506   3.475   6.851   3.048 -1.1953  0.5047 -0.6898
  345MOL0     H45507   3.624   6.799   3.145  0.1036 -0.3412  0.1790
  345MOL0     H45508   3.549   6.628   3.013  0.8526 -0.8362  1.2094
  345MOL0     H45509   3.705   6.668   2.972 -1.0228 -4.6616 -0.4071
  345MOL0     H45510   3.632   6.789   2.757 -3.3975  2.5652 -0.9864
  345MOL0     H45511   3.468   6.787   2.817 -1.6462 -0.6408  0.3423
  345MOL0     H45512   3.660   6.553   2.733 -0.2587 -0.2326  1.6527
  345MOL0     H45513   3.493   6.520   2.795 -1.6274 -0.8614 -1.0463
  345MOL0     H45514   3.592   6.660   2.549 -0.0374  0.3809  0.8897
  345MOL0     H45515   3.419   6.674   2.599 -1.2442 -0.5725 -3.7149
  345MOL0     H45516   3.582   6.419   2.518  0.9597  2.5004 -2.2262
  345MOL0     H45517   3.455   6.499   2.426  1.1521 -1.3952 -0.8167
  345MOL0     H45518   3.416   6.373   2.691  3.5163  3.0109 -0.8844
  345MOL0     H45519   3.283   6.461   2.619 -1.4035  0.6874 -2.7872
  345MOL0     H45520   3.262   6.330   2.430  3.0399  0.5622 -0.8552
  345MOL0     H45521   3.247   6.236   2.588 -2.3585  0.4798 -1.9624
  345MOL0     H45522   3.501   6.984   3.212 -1.1619 -0.4384 -0.8459
  345MOL0     H45523   3.537   7.198   3.359 -0.7872  1.1740 -0.2128
  345MOL0     H45524   3.417   7.724   3.227  1.0237 -0.9108 -0.1216
  345MOL0     H45525   3.421   7.920   3.368 -0.2520 -0.1548  0.4789
  345MOL0     H45526   3.421   9.350   4.398 -1.7068  0.3975 -0.2070
  345MOL0     H45527   3.322   9.585   4.382 -0.6465  0.6837 -1.5641
  345MOL0     H45528   3.498  10.035   4.503  0.4822  0.1176  0.1077
  345MOL0     H45529   3.381  10.262   4.523 -0.0819  3.1922 -1.8598
  345MOL0     H45530   3.143  10.394   4.170 -1.8693  2.7093 -1.2192
  345MOL0     H45531   3.112  10.507   4.310  1.5097  0.1593  0.7096
  345MOL0     H45532   3.074  10.211   4.254  1.9894  0.5331 -1.0653
  345MOL0     H45533   3.039  10.283   4.418 -3.2749 -0.7204 -0.7835
  345MOL0     H45534   2.859  10.290   4.186  0.1286 -1.1707  0.7506
  345MOL0     H45535   2.885  10.447   4.252  0.1600  0.0664 -2.7103
  345MOL0     H45536   2.842  10.333   4.497 -0.2750 -2.3526  0.6572
  345MOL0     H45537   2.714  10.344   4.381  0.9268 -0.3139 -2.7666
  345MOL0     H45538   2.739   9.949   4.455  0.3118 -1.1182  0.5446
  345MOL0     H45539   3.323  10.249   4.093  0.0966  0.1072 -0.7965
  345MOL0     H45540   3.404  10.017   4.092  1.1805  0.7499 -0.0378
  346MOL0     O45541   6.624   5.776   0.021  0.7610 -0.1990 -0.4032
  346MOL0     C45542   6.739   5.826   0.014 -0.3303 -0.4081  1.4804
  346MOL0     O45543   6.855   5.766   0.032  0.4985 -0.1718  0.4964
  346MOL0     C45544   6.845   5.632   0.030  0.1500  0.2721 -0.0722
  346MOL0     C45545   6.815   5.551   0.138 -0.5980  0.7939  0.0892
  346MOL0     C45546   6.825   5.407   0.140  0.8693 -0.0373  0.9118
  346MOL0     C45547   6.875   5.351   0.014 -0.3558 -0.3089 -0.0670
  346MOL0     O45548   6.898   5.222   0.018  0.6070 -0.6043  0.7624
  346MOL0     C45549   7.006   5.174  -0.058 -0.4578  0.2962  0.2937
  346MOL0     C45550   6.996   5.018  -0.024  0.3004 -0.2629 -0.2694
  346MOL0     C45551   7.057   4.997   0.123 -0.1422 -0.4937  0.2403
  346MOL0     C45552   7.076   4.846   0.166  0.2467  0.0220  0.1615
  346MOL0     C45553   6.942   4.774   0.188  0.0113 -0.5780 -0.1363
  346MOL0     C45554   6.948   4.664   0.296 -0.2174 -0.1799  0.4787
  346MOL0     C45555   6.825   4.577   0.306 -0.0293  0.1435  0.0575
  346MOL0     C45556   6.856   4.458   0.400 -0.1423  0.5954  0.2633
  346MOL0     N45557   6.737   4.362   0.407 -0.8464  0.0747  0.0047
  346MOL0     C45558   6.739   4.245   0.325  0.3569 -0.5419  0.0965
  346MOL0     C45559   6.616   4.192   0.351  1.1021  0.4460  0.4887
  346MOL0     C45560   6.539   4.084   0.277  0.5296  0.0125  0.3064
  346MOL0     C45561   6.511   3.972   0.376 -0.4233 -0.2203  0.3885
  346MOL0     C45562   6.643   3.880   0.387  0.1826 -0.1673 -0.6355
  346MOL0     C45563   6.648   3.785   0.497 -0.6303 -0.1878  0.4164
  346MOL0     O45564   6.777   3.728   0.486  1.0601  0.1202  0.0012
  346MOL0     C45565   6.779   3.591   0.499 -0.0163 -0.6814 -0.2757
  346MOL0     C45566   6.864   3.539   0.596 -0.4551  0.1294  0.2004
  346MOL0     C45567   6.878   3.401   0.600  0.0811 -0.1500  0.2256
  346MOL0     C45568   6.797   3.307   0.530 -0.3092  0.6771 -0.0775
  346MOL0     C45569   6.812   3.161   0.537  0.2124 -0.3009  0.2015
  346MOL0     O45570   6.726   3.090   0.464  0.2624 -0.0893 -0.4851
  346MOL0     C45571   6.752   2.958   0.444  0.3861  0.1955 -0.7448
  346MOL0     C45572   6.750   2.863   0.551 -0.2515  0.2018 -1.3088
  346MOL0     C45573   6.738   2.726   0.509  0.0892 -0.4138 -0.4820
  346MOL0     C45574   6.757   2.679   0.378 -0.1987  0.2031  0.3287
  346MOL0     O45575   6.754   2.549   0.358  0.0775  0.0950 -0.2835
  346MOL0     C45576   6.861   2.470   0.408 -0.6732 -0.8966  0.0678
  346MOL0     C45577   6.810   2.343   0.477  0.8560 -0.6347 -0.5303
  346MOL0     C45578   6.716   2.370   0.603 -1.1361 -0.0196  0.4134
  346MOL0     C45579   6.731   2.255   0.704 -0.7173 -0.7254  0.0114
  346MOL0     C45580   6.679   2.126   0.636  0.4309  0.0899  0.3571
  346MOL0     C45581   6.530   2.132   0.619  0.0128  0.3820 -0.4001
  346MOL0     C45582   6.467   1.995   0.603 -0.9933 -0.1361  0.2037
  346MOL0     C45583   6.320   2.009   0.553  0.5033 -0.4251 -0.5163
  346MOL0    Cl45584   6.286   2.098   0.397  0.0080  0.2359 -0.0564
  346MOL0     C45585   6.755   2.775   0.285  0.0180  0.2198  0.6068
  346MOL0     C45586   6.741   2.908   0.312 -0.2736  0.9611 -0.2754
  346MOL0     O45587   6.909   3.119   0.600 -0.3059 -0.3295 -0.0528
  346MOL0     C45588   6.701   3.367   0.453 -0.1704  0.3459  0.1584
  346MOL0     C45589   6.690   3.500   0.432  0.0246  0.5347  0.3107
  346MOL0     N45590   6.553   4.264   0.444 -0.1482 -0.2541 -0.3090
  346MOL0     N45591   6.624   4.372   0.475  0.4258  0.6611 -0.2792
  346MOL0     C45592   6.904   5.433  -0.096 -0.3464  0.6301 -0.2132
  346MOL0     C45593   6.881   5.571  -0.091 -0.5706  1.1984  0.4641
  346MOL0     C45594   6.739   5.977   0.023 -0.7500  1.0203  0.8045
  346MOL0     C45595   6.867   6.039   0.039 -0.4218  0.3444  0.2635
  346MOL0     C45596   6.870   6.172   0.068  0.1299  0.8773 -0.3029
  346MOL0     C45597   6.754   6.252   0.061  0.2931 -0.5890  0.2449
  346MOL0     O45598   6.742   6.384   0.075 -0.0588  0.6423  0.2910
  346MOL0     C45599   6.856   6.459   0.126 -0.1742  0.1691  0.3781
  346MOL0     C45600   6.849   6.465   0.277 -0.5998 -0.5695 -0.0478
  346MOL0     C45601   6.959   6.548   0.333  0.2596  0.2751 -0.5047
  346MOL0     C45602   6.930   6.558   0.485  0.5485 -0.3488  0.9150
  346MOL0     C45603   6.998   6.671   0.550 -0.3986  0.9250 -0.4813
  346MOL0     C45604   7.069   6.756   0.607  0.9568  0.2312  0.0670
  346MOL0     C45605   6.637   6.201   0.020 -0.0180 -0.0961  0.1367
  346MOL0     C45606   6.625   6.065   0.011  0.9297 -0.7036 -0.8714
  346MOL0     H45607   6.800   5.605   0.230  1.6375 -1.3295  1.8411
  346MOL0     H45608   6.812   5.338   0.223  1.2596 -1.6426 -0.3090
  346MOL0     H45609   7.099   5.223  -0.029 -0.3482 -0.3705  1.1059
  346MOL0     H45610   7.004   5.196  -0.165 -0.2581 -0.4245  0.1357
  346MOL0     H45611   7.048   4.949  -0.091 -2.5427 -0.8363 -2.0551
  346MOL0     H45612   6.891   4.993  -0.013 -0.1787  1.4296 -0.6797
  346MOL0     H45613   7.004   5.040   0.208 -0.2348 -4.1593  2.1861
  346MOL0     H45614   7.156   5.044   0.125  1.0091 -2.8167  0.6720
  346MOL0     H45615   7.138   4.787   0.097  2.2679  1.8515  0.2930
  346MOL0     H45616   7.119   4.853   0.266  0.4322  2.4844 -0.0135
  346MOL0     H45617   6.910   4.745   0.088 -2.6372 -0.4923  0.6144
  346MOL0     H45618   6.875   4.854   0.222  1.8898  1.0548 -0.0990
  346MOL0     H45619   6.963   4.712   0.393  1.9672  2.6656 -1.1321
  346MOL0     H45620   7.043   4.611   0.297 -0.2063 -0.1647  1.2868
  346MOL0     H45621   6.735   4.631   0.335 -0.7678 -0.9415 -0.1614
  346MOL0     H45622   6.796   4.542   0.207  0.5371 -2.3758  0.7114
  346MOL0     H45623   6.879   4.480   0.504  1.3150  0.9504 -0.1097
  346MOL0     H45624   6.943   4.402   0.364  0.5542  0.5361  1.9791
  346MOL0     H45625   6.811   4.219   0.248  0.8015  1.4197 -0.2262
  346MOL0     H45626   6.605   4.058   0.194  1.7455  3.3420  0.0611
  346MOL0     H45627   6.451   4.134   0.236 -0.5711 -0.7960  1.6024
  346MOL0     H45628   6.422   3.913   0.351 -0.3803  0.6615 -2.2435
  346MOL0     H45629   6.496   4.008   0.478  1.2202  1.1139  0.2076
  346MOL0     H45630   6.649   3.812   0.302 -0.0165  0.8137 -1.4488
  346MOL0     H45631   6.727   3.944   0.414  1.6964 -2.5563  0.6631
  346MOL0     H45632   6.562   3.719   0.500 -1.0636  0.3971  1.1184
  346MOL0     H45633   6.650   3.848   0.586  1.2460  4.2532 -2.4054
  346MOL0     H45634   6.939   3.600   0.646 -1.0834 -0.0674  1.4183
  346MOL0     H45635   6.957   3.376   0.670 -0.4025  2.3229  1.7687
  346MOL0     H45636   6.750   2.908   0.649  1.8354 -1.1195 -0.6390
  346MOL0     H45637   6.715   2.653   0.586 -1.5996  0.2757 -0.2870
  346MOL0     H45638   6.941   2.516   0.466 -0.0333 -2.3470  0.3672
  346MOL0     H45639   6.909   2.440   0.314 -2.2319 -2.4916 -0.2697
  346MOL0     H45640   6.894   2.279   0.504  1.8452  1.0746  0.6184
  346MOL0     H45641   6.745   2.286   0.410  1.8836 -0.1717 -1.9820
  346MOL0     H45642   6.614   2.385   0.567 -0.8013  2.8299  0.4294
  346MOL0     H45643   6.737   2.470   0.642 -1.5592  1.0697 -1.9944
  346MOL0     H45644   6.835   2.243   0.735  0.6920  0.1775 -3.8371
  346MOL0     H45645   6.668   2.262   0.793 -2.4884 -2.9530 -0.9709
  346MOL0     H45646   6.708   2.046   0.704 -0.5246  2.1788  3.4499
  346MOL0     H45647   6.734   2.110   0.542 -1.6792 -0.0942 -0.9018
  346MOL0     H45648   6.495   2.185   0.530 -3.5706 -1.2279 -0.1210
  346MOL0     H45649   6.487   2.170   0.712 -0.1310 -2.5529  0.8275
  346MOL0     H45650   6.519   1.916   0.548 -0.7675  0.1991 -0.0672
  346MOL0     H45651   6.447   1.948   0.700  0.7233 -1.1048  0.1113
  346MOL0     H45652   6.266   2.069   0.628 -0.2870  0.1568 -1.5282
  346MOL0     H45653   6.264   1.915   0.549 -0.1352 -0.1657  1.2319
  346MOL0     H45654   6.756   2.762   0.177  3.3064  3.5872  0.0197
  346MOL0     H45655   6.714   2.979   0.234 -6.0571  2.2067  2.3689
  346MOL0     H45656   6.634   3.295   0.407 -0.0783 -2.0991  3.4363
  346MOL0     H45657   6.621   3.537   0.357 -0.8250 -1.1254  0.2405
  346MOL0     H45658   6.948   5.388  -0.184 -1.3171 -1.0048  0.0791
  346MOL0     H45659   6.922   5.631  -0.172  3.8616 -0.2014  1.3835
  346MOL0     H45660   6.956   5.980   0.023 -1.7783 -1.1731 -2.4216
  346MOL0     H45661   6.961   6.229   0.085 -0.0644  0.5594  2.0845
  346MOL0     H45662   6.842   6.561   0.089  0.8242 -0.2398 -1.2022
  346MOL0     H45663   6.953   6.422   0.090 -0.1111 -0.7793  1.4635
  346MOL0     H45664   6.755   6.511   0.308 -0.3415 -0.0565 -0.0278
  346MOL0     H45665   6.850   6.371   0.333 -1.2456 -0.8796 -0.5435
  346MOL0     H45666   6.957   6.645   0.282  2.3886 -0.5360 -2.3080
  346MOL0     H45667   7.052   6.496   0.308 -0.4410 -0.8441 -0.8062
  346MOL0     H45668   6.823   6.568   0.500 -0.3207  0.5821 -4.1294
  346MOL0     H45669   6.951   6.468   0.544  1.4018  0.2837  1.5997
  346MOL0     H45670   7.122   6.836   0.657 -0.3959  0.3207  1.4261
  346MOL0     H45671   6.547   6.261   0.025 -0.8492 -1.3424  4.1975
  346MOL0     H45672   6.529   6.016   0.001  0.1970  0.3999  0.4311
  347MOL0     O45673   3.147  11.347  10.505 -0.3466 -0.3556  0.3800
  347MOL0     C45674   3.160  11.226  10.514 -0.8686 -0.1662 -1.4207
  347MOL0     O45675   3.183  11.133  10.413  0.2638 -0.2422 -0.2393
  347MOL0     C45676   3.181  11.189  10.282 -0.9634 -0.2396  0.1752
  347MOL0     C45677   3.100  11.130  10.188 -0.4171  1.0326 -0.0659
  347MOL0     C45678   3.090  11.174  10.054 -0.0146 -0.4464 -0.8571
  347MOL0     C45679   3.172  11.284  10.017 -0.3696  0.1452 -0.3668
  347MOL0     O45680   3.167  11.299   9.878  0.4000  0.3263 -0.4852
  347MOL0     C45681   3.252  11.406   9.829 -0.0298 -0.1420  0.0351
  347MOL0     C45682   3.380  11.330   9.791 -0.6330 -1.1039 -0.3309
  347MOL0     C45683   3.363  11.243   9.664 -0.0886  0.1593  0.0628
  347MOL0     C45684   3.486  11.164   9.636 -0.4302  0.6091 -0.1870
  347MOL0     C45685   3.488  11.109   9.498 -0.6312  0.6499 -0.5087
  347MOL0     C45686   3.552  11.203   9.400 -0.4431  0.3564 -0.0630
  347MOL0     C45687   3.581  11.146   9.261  0.0795  0.6300  1.7332
  347MOL0     C45688   3.642  11.261   9.177 -0.1587 -0.2483  1.1170
  347MOL0     N45689   3.614  11.256   9.031 -0.3808 -0.0554  0.3715
  347MOL0     C45690   3.661  11.165   8.944  0.4931  0.1382  0.3039
  347MOL0     C45691   3.593  11.188   8.833 -0.6382  1.1620  0.6940
  347MOL0     C45692   3.627  11.115   8.707  0.3411 -0.0423  0.6409
  347MOL0     C45693   3.656  11.212   8.593 -0.2848 -0.2332 -1.3538
  347MOL0     C45694   3.670  11.126   8.469 -0.2014 -0.6230  0.1065
  347MOL0     C45695   3.724  11.200   8.357 -0.1686 -0.7358  0.2094
  347MOL0     O45696   3.668  11.344   8.343 -0.0964  0.9374 -0.2767
  347MOL0     C45697   3.589  11.380   8.238  0.6471 -0.1719  1.0510
  347MOL0     C45698   3.513  11.281   8.170  0.1272 -0.5033  0.4169
  347MOL0     C45699   3.428  11.313   8.069 -0.5585 -0.2159  0.3974
  347MOL0     C45700   3.424  11.445   8.013 -0.6293 -0.0643 -0.6962
  347MOL0     C45701   3.342  11.475   7.905 -0.4883  0.2262  1.3854
  347MOL0     O45702   3.297  11.386   7.805 -0.7105 -0.0185  0.4115
  347MOL0     C45703   3.237  11.448   7.704  1.0708  0.2986  0.0630
  347MOL0     C45704   3.321  11.460   7.589 -0.7725 -0.3032 -0.2874
  347MOL0     C45705   3.271  11.516   7.479 -0.0123 -0.4869 -0.3438
  347MOL0     C45706   3.139  11.571   7.460  0.2740 -0.0231  0.0778
  347MOL0     O45707   3.095  11.613   7.340  0.3819 -0.0490  0.4229
  347MOL0     C45708   3.177  11.599   7.228 -0.1546 -0.5244  0.5304
  347MOL0     C45709   3.281  11.704   7.206 -0.2926  0.1786 -0.9266
  347MOL0     C45710   3.218  11.849   7.222 -0.5835  0.7879  0.2770
  347MOL0     C45711   3.316  11.969   7.216  0.3295  0.1676 -0.0826
  347MOL0     C45712   3.259  12.107   7.202 -0.0614  0.0462  0.0699
  347MOL0     C45713   3.372  12.207   7.230 -0.6640  0.9947 -0.8901
  347MOL0     C45714   3.318  12.354   7.242 -0.2572  1.0905  0.3243
  347MOL0     C45715   3.240  12.408   7.116  0.4963 -0.0720  0.4244
  347MOL0    Cl45716   3.316  12.359   6.960 -0.3781 -0.0671  0.5055
  347MOL0     C45717   3.055  11.564   7.568 -0.3612  0.0771 -0.5742
  347MOL0     C45718   3.101  11.502   7.687 -0.8885  0.1276 -0.3030
  347MOL0     O45719   3.316  11.598   7.912  0.1917  0.4582  0.4343
  347MOL0     C45720   3.502  11.541   8.079 -0.2281 -0.2375 -0.2383
  347MOL0     C45721   3.588  11.511   8.189  0.2243 -0.8196  0.0244
  347MOL0     N45722   3.503  11.285   8.851  0.7111 -0.7583  0.5825
  347MOL0     N45723   3.512  11.318   8.973 -0.4278 -0.8815  0.3735
  347MOL0     C45724   3.260  11.345  10.112  0.0525 -0.6404  0.6977
  347MOL0     C45725   3.256  11.302  10.246 -0.9943 -0.1554 -0.2640
  347MOL0     C45726   3.129  11.172  10.651 -0.4261  0.1919  1.0845
  347MOL0     C45727   3.142  11.244  10.768  1.1010  0.1047 -0.7251
  347MOL0     C45728   3.116  11.197  10.891  0.7415  0.6323  0.0471
  347MOL0     C45729   3.079  11.057  10.905  0.6901 -0.0590 -0.3184
  347MOL0     O45730   3.048  10.996  11.019  0.5044 -0.0867  0.5961
  347MOL0     C45731   3.040  11.066  11.144 -0.4275 -0.2277  0.2487
  347MOL0     C45732   2.896  11.119  11.154  0.3305  0.4709  0.0420
  347MOL0     C45733   2.796  11.007  11.199 -0.3460  0.1393 -0.1286
  347MOL0     C45734   2.665  11.035  11.177 -0.1484 -0.2733  0.4326
  347MOL0     C45735   2.625  11.171  11.206  0.4213 -0.8755 -0.0350
  347MOL0     C45736   2.601  11.288  11.215  0.4573 -0.2328 -1.0159
  347MOL0     C45737   3.074  10.982  10.792 -0.4771  1.1974 -0.3784
  347MOL0     C45738   3.103  11.033  10.665 -0.1563 -0.1439  0.8652
  347MOL0     H45739   3.038  11.050  10.226 -0.6951 -0.0151 -2.4963
  347MOL0     H45740   3.025  11.133   9.977  0.0735  0.8494 -1.6671
  347MOL0     H45741   3.279  11.490   9.893  0.2265 -0.4257  0.3031
  347MOL0     H45742   3.211  11.454   9.740 -0.5202 -0.2065  0.2194
  347MOL0     H45743   3.428  11.270   9.869 -1.5893 -0.0694  1.0953
  347MOL0     H45744   3.454  11.409   9.776 -2.6815  0.7186 -1.3743
  347MOL0     H45745   3.335  11.308   9.581  0.1100 -1.1257 -1.0456
  347MOL0     H45746   3.277  11.175   9.672  0.8292 -0.9710  0.5225
  347MOL0     H45747   3.580  11.214   9.660  1.6081 -2.6337 -0.7376
  347MOL0     H45748   3.485  11.078   9.704 -1.3341  0.5578 -0.2549
  347MOL0     H45749   3.386  11.087   9.464 -0.2439 -1.2175 -0.5923
  347MOL0     H45750   3.553  11.021   9.501  0.8304  1.6988  2.3020
  347MOL0     H45751   3.647  11.238   9.442 -0.4810  1.9605 -1.2307
  347MOL0     H45752   3.488  11.291   9.393  1.2261  1.6143 -0.3665
  347MOL0     H45753   3.651  11.063   9.271 -0.5237  0.2308  2.7887
  347MOL0     H45754   3.486  11.111   9.220 -1.0879  5.4585 -0.4069
  347MOL0     H45755   3.751  11.270   9.190 -0.3765  1.1566  2.2165
  347MOL0     H45756   3.603  11.358   9.207 -2.3810 -1.0014  0.8202
  347MOL0     H45757   3.730  11.083   8.962  0.3216 -0.0322  0.1892
  347MOL0     H45758   3.543  11.055   8.672  0.5011 -1.5032  2.5814
  347MOL0     H45759   3.709  11.044   8.716  0.2616 -0.7530 -2.9642
  347MOL0     H45760   3.741  11.277   8.618 -0.4538 -2.0498  6.7194
  347MOL0     H45761   3.575  11.284   8.584 -0.7106 -0.5311 -0.1531
  347MOL0     H45762   3.725  11.034   8.489  1.2880  0.2250  0.0566
  347MOL0     H45763   3.573  11.078   8.452 -1.1210  0.8364  1.0039
  347MOL0     H45764   3.712  11.142   8.266  0.6493 -2.0837  0.9274
  347MOL0     H45765   3.831  11.199   8.378  0.2219 -4.6609 -1.2045
  347MOL0     H45766   3.504  11.179   8.207 -1.3501 -0.8582 -0.7903
  347MOL0     H45767   3.358  11.246   8.021  0.3086 -0.6197 -0.3063
  347MOL0     H45768   3.417  11.409   7.576  0.8607  1.3834  3.4516
  347MOL0     H45769   3.330  11.507   7.388 -1.1534 -3.0591 -0.9305
  347MOL0     H45770   3.115  11.606   7.139  1.9636 -0.3749 -1.0258
  347MOL0     H45771   3.212  11.496   7.222 -2.1187 -1.1522 -1.6812
  347MOL0     H45772   3.312  11.690   7.103 -0.7543  3.0780 -1.5404
  347MOL0     H45773   3.354  11.683   7.285 -2.3845 -1.6862  0.6548
  347MOL0     H45774   3.170  11.848   7.320 -1.7168  0.9202 -0.2612
  347MOL0     H45775   3.137  11.869   7.150  0.6454  0.0526 -1.3745
  347MOL0     H45776   3.380  11.981   7.304  0.7598  0.5832 -0.4424
  347MOL0     H45777   3.386  11.951   7.134 -0.9047  0.5207 -1.2396
  347MOL0     H45778   3.176  12.129   7.270  0.9046  0.5446  1.1187
  347MOL0     H45779   3.229  12.129   7.099 -0.0391  1.9965  0.4396
  347MOL0     H45780   3.455  12.204   7.159  0.2475  2.5213  0.0518
  347MOL0     H45781   3.419  12.186   7.327  2.4166 -0.3858 -2.5315
  347MOL0     H45782   3.250  12.378   7.324  0.1114  3.1431  0.0841
  347MOL0     H45783   3.403  12.420   7.263 -1.3528  2.3712  0.8964
  347MOL0     H45784   3.222  12.515   7.123 -0.3312 -0.0163 -1.7270
  347MOL0     H45785   3.137  12.370   7.118  0.0597  0.5449 -3.2514
  347MOL0     H45786   2.954  11.602   7.571  0.1302  1.3238  1.8971
  347MOL0     H45787   3.038  11.504   7.776 -3.0148  2.1754 -1.7490
  347MOL0     H45788   3.510  11.640   8.037  0.7823  0.0743  0.6386
  347MOL0     H45789   3.644  11.593   8.232  1.5239 -0.6380 -1.8779
  347MOL0     H45790   3.330  11.424  10.089  1.8169 -2.2155  0.4457
  347MOL0     H45791   3.314  11.351  10.323  0.3846 -2.2202  0.1130
  347MOL0     H45792   3.171  11.346  10.748 -1.4258  1.1010  0.2818
  347MOL0     H45793   3.122  11.269  10.972 -0.8307  1.2803 -0.3591
  347MOL0     H45794   3.117  11.142  11.157  0.9956 -1.7503  1.1900
  347MOL0     H45795   3.058  10.997  11.227 -0.4985 -2.0708 -1.2088
  347MOL0     H45796   2.903  11.194  11.233  0.5671 -1.2392  1.7203
  347MOL0     H45797   2.869  11.173  11.063 -1.7908 -1.8675 -0.8448
  347MOL0     H45798   2.813  10.996  11.306 -4.9078  3.4745  1.2072
  347MOL0     H45799   2.830  10.912  11.156  1.5921 -0.4040  2.3322
  347MOL0     H45800   2.638  11.030  11.071 -2.0522  3.8133  0.5320
  347MOL0     H45801   2.611  10.966  11.242  1.3804 -0.3792  1.6657
  347MOL0     H45802   2.573  11.391  11.223  0.6548 -0.1748 -1.0844
  347MOL0     H45803   3.046  10.877  10.801  0.7190  1.0403  2.1391
  347MOL0     H45804   3.092  10.976  10.573  0.7847  3.8792 -2.0566
  348MOL0     O45805   4.182   7.502  10.902 -0.6899  0.7158  0.5512
  348MOL0     C45806   4.106   7.571  10.843  0.1785 -0.3878  0.6199
  348MOL0     O45807   4.080   7.566  10.708 -0.6850  0.3935  0.1349
  348MOL0     C45808   4.162   7.481  10.635 -0.5353 -0.6830  0.6946
  348MOL0     C45809   4.249   7.531  10.542  0.2589 -0.3169 -0.3662
  348MOL0     C45810   4.335   7.444  10.476  0.6443 -0.3171 -0.3214
  348MOL0     C45811   4.330   7.303  10.495  0.0599  0.2850  0.5193
  348MOL0     O45812   4.408   7.227  10.412 -0.5652  0.2128 -0.1941
  348MOL0     C45813   4.375   7.088  10.381 -0.6533  0.1460 -0.7659
  348MOL0     C45814   4.249   7.086  10.289 -0.2690 -0.0167 -0.0704
  348MOL0     C45815   4.209   6.945  10.244  0.0787  0.5339  0.0138
  348MOL0     C45816   4.288   6.889  10.126 -0.0535  0.5876  0.5176
  348MOL0     C45817   4.282   6.741  10.131  0.8286 -1.2434  0.0064
  348MOL0     C45818   4.352   6.676  10.014 -0.8489 -0.4648 -0.2598
  348MOL0     C45819   4.275   6.690   9.891  0.3069 -0.3761 -0.3649
  348MOL0     C45820   4.335   6.610   9.779  0.3355  0.3656 -0.7987
  348MOL0     N45821   4.339   6.466   9.787  0.1666  1.1813 -0.1808
  348MOL0     C45822   4.262   6.385   9.705 -0.0168 -0.7188  0.1124
  348MOL0     C45823   4.286   6.263   9.736  0.7051 -0.2417 -0.5513
  348MOL0     C45824   4.232   6.134   9.680  0.2214 -0.0413  0.0354
  348MOL0     C45825   4.340   6.074   9.598 -1.2737  0.7433 -0.2831
  348MOL0     C45826   4.433   5.978   9.689 -0.5561 -0.4286  0.2987
  348MOL0     C45827   4.561   5.932   9.607  1.2242 -0.0323 -0.3411
  348MOL0     O45828   4.641   5.840   9.687  0.0011 -0.0241 -0.2234
  348MOL0     C45829   4.718   5.891   9.788 -0.3614 -0.3819  0.1322
  348MOL0     C45830   4.811   5.805   9.846  0.7692 -0.0777 -0.0433
  348MOL0     C45831   4.882   5.846   9.958 -0.3134  0.4773 -0.2716
  348MOL0     C45832   4.879   5.978  10.001  0.2598 -0.2212 -0.1037
  348MOL0     C45833   4.964   6.017  10.110  0.9509 -0.1685  0.0896
  348MOL0     O45834   5.063   5.932  10.149 -0.3669  0.1325  0.0040
  348MOL0     C45835   5.126   5.950  10.275 -1.0944  0.3148  0.6645
  348MOL0     C45836   5.257   5.890  10.298 -0.0674  0.1369  0.6549
  348MOL0     C45837   5.333   5.916  10.401 -0.4933 -1.0796 -1.2445
  348MOL0     C45838   5.277   5.977  10.507 -0.2516  0.4540 -0.3480
  348MOL0     O45839   5.339   5.994  10.630 -0.3095 -0.0957 -0.4395
  348MOL0     C45840   5.419   5.895  10.688 -0.1456  0.5853  0.4214
  348MOL0     C45841   5.324   5.778  10.743 -0.4120  0.2158 -0.3115
  348MOL0     C45842   5.393   5.700  10.853 -0.1263  0.3919 -0.0440
  348MOL0     C45843   5.516   5.636  10.791 -0.5009  0.0620  0.0937
  348MOL0     C45844   5.564   5.512  10.876  0.2304  0.2900 -0.1426
  348MOL0     C45845   5.705   5.443  10.843  0.5362 -0.3436 -0.5028
  348MOL0     C45846   5.724   5.295  10.890 -0.1622 -1.2455  0.5011
  348MOL0     C45847   5.802   5.294  11.017 -0.1035 -0.2786  0.5660
  348MOL0    Cl45848   5.967   5.334  10.987 -0.0870  0.0803  0.2737
  348MOL0     C45849   5.149   6.025  10.500  0.1798  0.0797  0.0539
  348MOL0     C45850   5.075   6.021  10.388  0.9163  0.4511  0.6070
  348MOL0     O45851   4.938   6.124  10.160  0.4309  0.3131  0.6751
  348MOL0     C45852   4.801   6.071   9.931 -0.9326  0.7824 -0.2722
  348MOL0     C45853   4.712   6.027   9.836 -0.4325 -0.1625  0.4084
  348MOL0     N45854   4.373   6.260   9.840 -0.3221  0.0604 -0.8163
  348MOL0     N45855   4.408   6.379   9.875  0.3503 -0.1444 -0.0548
  348MOL0     C45856   4.244   7.253  10.592  1.4634  0.2214  0.1444
  348MOL0     C45857   4.160   7.347  10.661  0.3248 -1.1189  0.3915
  348MOL0     C45858   4.042   7.671  10.942 -0.2006 -0.3512 -0.4544
  348MOL0     C45859   4.077   7.668  11.079 -0.6715 -1.0789  0.1718
  348MOL0     C45860   4.019   7.753  11.177 -1.2108  0.2128  0.6852
  348MOL0     C45861   3.919   7.839  11.134  0.4692 -0.1676 -1.1912
  348MOL0     O45862   3.869   7.921  11.228  0.3780  0.0613  0.3606
  348MOL0     C45863   3.731   7.967  11.220  0.4133  0.3444  0.5397
  348MOL0     C45864   3.687   7.974  11.374  0.8638  0.1446 -0.6056
  348MOL0     C45865   3.740   8.098  11.447  0.4248 -0.2859 -0.6772
  348MOL0     C45866   3.745   8.076  11.599  0.2301  0.4280  0.0327
  348MOL0     C45867   3.728   8.190  11.695  0.1446 -0.6550  0.0947
  348MOL0     C45868   3.722   8.290  11.776 -1.2270 -0.2963  1.0078
  348MOL0     C45869   3.894   7.850  11.002  0.8434  0.3855  1.0141
  348MOL0     C45870   3.945   7.758  10.909  0.1414 -0.3156  0.4048
  348MOL0     H45871   4.251   7.639  10.545 -0.0836 -0.3023  2.7651
  348MOL0     H45872   4.413   7.483  10.412  1.8538 -3.5373 -1.0399
  348MOL0     H45873   4.352   7.042  10.478 -0.2340 -0.2149 -0.8398
  348MOL0     H45874   4.449   7.033  10.323 -0.8799 -0.6783 -0.2962
  348MOL0     H45875   4.252   7.145  10.197 -2.8206  1.0151  0.4012
  348MOL0     H45876   4.166   7.128  10.348 -0.4377  0.1944 -0.4550
  348MOL0     H45877   4.108   6.965  10.205  1.0483  1.3727 -2.2652
  348MOL0     H45878   4.210   6.881  10.333  3.5263  2.1437  1.2950
  348MOL0     H45879   4.256   6.935  10.032 -1.9457  0.2104  0.9337
  348MOL0     H45880   4.385   6.937  10.143 -1.3748  4.6970 -2.0830
  348MOL0     H45881   4.177   6.710  10.141  1.5683 -4.2210 -0.4897
  348MOL0     H45882   4.340   6.702  10.215  0.0675 -0.9774  0.6648
  348MOL0     H45883   4.376   6.576  10.049 -1.6656 -0.6445 -0.1747
  348MOL0     H45884   4.445   6.732  10.004 -0.2818 -1.6225 -1.6768
  348MOL0     H45885   4.173   6.659   9.912  0.0238 -0.2413 -1.4889
  348MOL0     H45886   4.276   6.791   9.849 -2.8171 -0.7058 -1.4454
  348MOL0     H45887   4.443   6.631   9.778  0.5989 -0.9163 -0.6275
  348MOL0     H45888   4.297   6.641   9.681 -1.7678  2.8557  0.6662
  348MOL0     H45889   4.189   6.424   9.634 -0.1213  0.5714  0.9059
  348MOL0     H45890   4.144   6.152   9.617  0.7800  0.6856 -0.5519
  348MOL0     H45891   4.211   6.063   9.761 -0.9498 -1.3353 -1.3522
  348MOL0     H45892   4.405   6.149   9.552  2.3782 -1.6798  0.5188
  348MOL0     H45893   4.302   6.009   9.519  1.2317 -1.2054  0.0002
  348MOL0     H45894   4.459   6.027   9.783 -1.5194 -0.5227  0.6301
  348MOL0     H45895   4.361   5.902   9.720 -3.7506  2.3581  0.2970
  348MOL0     H45896   4.608   6.020   9.564  1.0126  0.2483 -0.0035
  348MOL0     H45897   4.515   5.877   9.524 -6.2593 -0.7171  3.3574
  348MOL0     H45898   4.819   5.699   9.826 -0.3493 -0.3668  0.9198
  348MOL0     H45899   4.949   5.773  10.001  0.6259 -0.6362 -3.3377
  348MOL0     H45900   5.314   5.857  10.211 -1.7689  1.1374 -0.9065
  348MOL0     H45901   5.439   5.893  10.402  0.2815  2.0313 -0.8811
  348MOL0     H45902   5.488   5.949  10.754  0.7262  1.0425 -0.8212
  348MOL0     H45903   5.487   5.848  10.617  0.7081  0.0321  1.5590
  348MOL0     H45904   5.301   5.720  10.653  1.0220  0.0734 -0.6137
  348MOL0     H45905   5.241   5.820  10.799  0.6286  3.0337 -0.7522
  348MOL0     H45906   5.326   5.631  10.905 -2.2014  2.9637  0.9498
  348MOL0     H45907   5.427   5.764  10.936  0.7858 -1.0321  0.7178
  348MOL0     H45908   5.495   5.602  10.689 -3.1418 -0.6511  0.7945
  348MOL0     H45909   5.597   5.709  10.786  0.5245 -0.6379  4.0369
  348MOL0     H45910   5.477   5.447  10.865  0.8157 -0.0947 -3.4436
  348MOL0     H45911   5.560   5.542  10.981 -1.3347 -3.1954  0.9611
  348MOL0     H45912   5.788   5.499  10.887 -0.7849 -0.0971  1.8037
  348MOL0     H45913   5.709   5.432  10.734 -0.1439 -1.1812 -0.4603
  348MOL0     H45914   5.626   5.252  10.914 -0.5472 -1.4479 -1.3000
  348MOL0     H45915   5.782   5.238  10.817  0.6996 -0.5499  0.6160
  348MOL0     H45916   5.801   5.203  11.078 -0.3302  1.4795  3.4116
  348MOL0     H45917   5.749   5.357  11.089 -0.2038 -1.5989  1.6918
  348MOL0     H45918   5.111   6.056  10.596  2.8158 -0.8396  1.4831
  348MOL0     H45919   4.974   6.060  10.391 -1.4392 -4.6277 -1.1840
  348MOL0     H45920   4.792   6.177   9.952 -1.1375  0.6853  0.1504
  348MOL0     H45921   4.653   6.107   9.792  1.8273  2.3449  1.6542
  348MOL0     H45922   4.223   7.149  10.615 -1.1175  1.1505  2.6409
  348MOL0     H45923   4.088   7.310  10.733  0.2771 -1.5801  0.1166
  348MOL0     H45924   4.158   7.605  11.115  2.8484  2.6523 -0.4609
  348MOL0     H45925   4.041   7.738  11.282  2.2747 -0.1141  0.0371
  348MOL0     H45926   3.661   7.898  11.172 -1.9797  2.6318  0.5379
  348MOL0     H45927   3.729   8.068  11.177  1.3857  1.0657  2.0870
  348MOL0     H45928   3.578   7.974  11.381  0.4073 -1.0900 -4.9685
  348MOL0     H45929   3.720   7.878  11.414 -1.9586  0.0011  1.6617
  348MOL0     H45930   3.664   8.174  11.431  2.0248  0.7751 -3.8856
  348MOL0     H45931   3.835   8.140  11.414  0.3479  0.2872 -0.1967
  348MOL0     H45932   3.666   8.002  11.618  0.0537  0.9612  1.5426
  348MOL0     H45933   3.835   8.020  11.624 -0.1880  0.0661  0.7726
  348MOL0     H45934   3.749   8.378  11.831  1.0571  1.3469 -2.3094
  348MOL0     H45935   3.822   7.923  10.967 -1.2831 -0.4072  3.3756
  348MOL0     H45936   3.922   7.764  10.803  1.3431  2.4840  0.2264
  349MOL0     O45937   5.233   3.603   5.879  0.2085 -0.0663 -0.1039
  349MOL0     C45938   5.170   3.501   5.864 -0.1271  0.2435 -0.2455
  349MOL0     O45939   5.099   3.478   5.750  0.2306  0.7584  0.3146
  349MOL0     C45940   5.095   3.560   5.638 -0.9277  0.8849 -0.8898
  349MOL0     C45941   4.982   3.635   5.617 -0.1502 -0.2748  0.6211
  349MOL0     C45942   4.963   3.712   5.500 -0.6559 -0.6967 -0.2743
  349MOL0     C45943   5.065   3.711   5.406 -0.4515  0.3891  0.2401
  349MOL0     O45944   5.076   3.767   5.281  0.2917 -0.1021 -0.3021
  349MOL0     C45945   4.953   3.820   5.220 -0.1921 -0.1334 -0.2448
  349MOL0     C45946   4.923   3.957   5.285  0.3057  0.1846 -0.3194
  349MOL0     C45947   4.960   4.083   5.193  0.4904 -0.3255 -1.4192
  349MOL0     C45948   4.888   4.090   5.055 -0.6791  0.7037 -0.4992
  349MOL0     C45949   4.887   4.226   4.997  0.2853 -0.0402  1.4312
  349MOL0     C45950   4.826   4.235   4.854  0.2708 -0.7438  0.3279
  349MOL0     C45951   4.692   4.172   4.832 -0.1583 -0.2391  0.6326
  349MOL0     C45952   4.579   4.247   4.911 -0.2160 -1.1219 -0.3299
  349MOL0     N45953   4.538   4.369   4.839  0.3679 -0.2630 -0.2249
  349MOL0     C45954   4.436   4.384   4.754 -0.3060  0.0134  0.9913
  349MOL0     C45955   4.425   4.511   4.727  0.6118 -0.0133 -1.3026
  349MOL0     C45956   4.329   4.596   4.639 -0.5333 -0.6219  0.1519
  349MOL0     C45957   4.353   4.584   4.486 -1.1918  0.4097  0.1756
  349MOL0     C45958   4.242   4.675   4.413  0.2308  0.2504 -1.3904
  349MOL0     C45959   4.268   4.651   4.268 -0.4455 -0.1221  0.0739
  349MOL0     O45960   4.220   4.767   4.201 -0.1031 -0.5546  1.2853
  349MOL0     C45961   4.097   4.827   4.238  0.1940 -0.7190 -0.4268
  349MOL0     C45962   4.072   4.956   4.282 -0.5262 -0.2454  0.2716
  349MOL0     C45963   3.948   4.997   4.335 -0.4109  0.1636  0.5740
  349MOL0     C45964   3.830   4.916   4.310 -0.9420 -0.5645 -0.1910
  349MOL0     C45965   3.690   4.953   4.347 -1.1576 -0.1913 -0.0108
  349MOL0     O45966   3.593   4.859   4.341  0.3768  0.6599 -0.3765
  349MOL0     C45967   3.462   4.886   4.383  0.4817 -0.6300  0.0493
  349MOL0     C45968   3.377   4.954   4.295 -1.1580  0.2736 -1.0757
  349MOL0     C45969   3.245   4.984   4.331  0.2184 -0.0438  0.6453
  349MOL0     C45970   3.200   4.951   4.459 -0.2057 -1.2345  0.0509
  349MOL0     O45971   3.093   5.004   4.508  0.3303 -0.1813  0.1923
  349MOL0     C45972   2.999   5.082   4.425 -0.4933 -0.0959 -0.2379
  349MOL0     C45973   2.880   5.123   4.504 -0.2761  0.1341  0.6411
  349MOL0     C45974   2.800   5.018   4.574 -0.6190  1.2507 -0.2210
  349MOL0     C45975   2.653   5.046   4.606  0.2681  0.3093  0.8998
  349MOL0     C45976   2.574   4.934   4.676 -0.5504 -1.0017  0.4817
  349MOL0     C45977   2.604   4.792   4.625 -0.3020  0.0086 -0.1828
  349MOL0     C45978   2.489   4.691   4.656  0.7776 -0.1279  0.3157
  349MOL0     C45979   2.527   4.541   4.628  0.2394 -0.7952 -0.2685
  349MOL0    Cl45980   2.566   4.524   4.455  0.7119  0.6466  0.1401
  349MOL0     C45981   3.293   4.893   4.550 -0.0586 -0.7658 -0.0991
  349MOL0     C45982   3.417   4.858   4.505 -0.6750 -0.0493  0.0651
  349MOL0     O45983   3.676   5.063   4.394 -0.2784 -0.3671  0.1781
  349MOL0     C45984   3.849   4.791   4.252 -0.3976 -0.5717  1.3087
  349MOL0     C45985   3.977   4.751   4.219 -0.0726 -0.1983  0.6030
  349MOL0     N45986   4.525   4.576   4.804  0.5065 -0.4171  0.2017
  349MOL0     N45987   4.590   4.495   4.870 -0.6981 -0.0971  0.4090
  349MOL0     C45988   5.190   3.654   5.436  0.8564 -0.0393 -0.4362
  349MOL0     C45989   5.206   3.579   5.551  0.3766 -0.1374 -0.1739
  349MOL0     C45990   5.165   3.400   5.971  0.2864  1.2286 -1.0736
  349MOL0     C45991   5.071   3.296   5.966  0.3624 -0.7047  0.5603
  349MOL0     C45992   5.043   3.214   6.079  0.5061  0.2611  0.5667
  349MOL0     C45993   5.130   3.226   6.182 -0.0423  0.5997 -0.9966
  349MOL0     O45994   5.131   3.141   6.291  0.1753  0.5269  0.0484
  349MOL0     C45995   5.029   3.032   6.290  1.3797  1.1739 -0.3018
  349MOL0     C45996   5.032   2.960   6.431 -0.5502 -0.8685 -0.5659
  349MOL0     C45997   4.961   3.060   6.529 -0.0618  0.0698 -0.0124
  349MOL0     C45998   5.003   3.029   6.675  0.2298 -0.2804 -0.3768
  349MOL0     C45999   4.943   3.126   6.762  0.1018 -0.0659 -0.6635
  349MOL0     C46000   4.890   3.211   6.829 -0.4283  0.2474  0.0495
  349MOL0     C46001   5.230   3.331   6.192 -0.1134  0.8083 -0.2019
  349MOL0     C46002   5.234   3.417   6.085 -1.1866  0.4723  0.7238
  349MOL0     H46003   4.899   3.621   5.686  1.4597 -1.9429  2.3553
  349MOL0     H46004   4.872   3.771   5.493 -0.3155  0.6605  4.0147
  349MOL0     H46005   4.872   3.747   5.230 -1.8145  1.7922  1.6476
  349MOL0     H46006   4.969   3.834   5.112  2.3520 -0.4558  0.0410
  349MOL0     H46007   4.967   3.978   5.383  1.2531 -0.4470 -0.5955
  349MOL0     H46008   4.816   3.962   5.304  0.5821 -0.9390  1.9337
  349MOL0     H46009   5.068   4.083   5.179  0.5027  0.0207 -1.3280
  349MOL0     H46010   4.938   4.172   5.253  0.9639 -1.8696  1.1905
  349MOL0     H46011   4.934   4.019   4.986  1.8429  1.1330  0.6241
  349MOL0     H46012   4.787   4.051   5.073  0.4602 -1.7570  0.9449
  349MOL0     H46013   4.993   4.253   4.987  0.0245  0.4599 -0.3815
  349MOL0     H46014   4.834   4.285   5.072  0.6492  2.0123  0.1521
  349MOL0     H46015   4.892   4.186   4.782 -1.8316 -0.8253 -1.6679
  349MOL0     H46016   4.813   4.342   4.832 -1.0280 -0.8216  0.6226
  349MOL0     H46017   4.668   4.169   4.726  1.9569 -1.6224  0.1445
  349MOL0     H46018   4.700   4.069   4.869 -1.2072 -1.1637 -1.5565
  349MOL0     H46019   4.618   4.265   5.011  3.7847  1.4735 -2.1042
  349MOL0     H46020   4.493   4.180   4.924 -1.3969  0.4700  0.3398
  349MOL0     H46021   4.377   4.306   4.707 -0.1712  0.9385 -0.7892
  349MOL0     H46022   4.339   4.699   4.673  0.6441 -0.5458 -0.3856
  349MOL0     H46023   4.227   4.565   4.663  0.4152 -2.9610  1.5768
  349MOL0     H46024   4.337   4.479   4.457 -0.8837  0.0699  1.1843
  349MOL0     H46025   4.449   4.628   4.460  0.3399 -2.0896  1.2646
  349MOL0     H46026   4.144   4.647   4.452  1.2934 -0.5394  0.8600
  349MOL0     H46027   4.270   4.776   4.445  1.5563 -0.3727 -0.4747
  349MOL0     H46028   4.217   4.562   4.228  0.6261 -0.3339 -0.8593
  349MOL0     H46029   4.375   4.634   4.252 -0.7423 -1.7371 -0.4249
  349MOL0     H46030   4.158   5.022   4.287 -0.9788  0.8049 -3.3305
  349MOL0     H46031   3.952   5.097   4.376  0.6572 -0.7093  2.7596
  349MOL0     H46032   3.425   4.975   4.200 -0.7066 -0.7742 -1.0934
  349MOL0     H46033   3.181   5.014   4.248  0.9064 -0.5223 -0.0729
  349MOL0     H46034   2.974   5.018   4.340 -1.8381  0.9706 -0.6742
  349MOL0     H46035   3.045   5.173   4.385 -0.3897 -0.3964 -0.8096
  349MOL0     H46036   2.808   5.179   4.443 -0.2364  2.3762  2.4998
  349MOL0     H46037   2.918   5.205   4.565 -0.7608  2.0176 -1.4343
  349MOL0     H46038   2.854   5.005   4.668 -1.0224  0.5824 -0.0678
  349MOL0     H46039   2.805   4.926   4.514  2.3360  0.6589  0.8009
  349MOL0     H46040   2.641   5.145   4.650 -2.2355  0.2664  0.5191
  349MOL0     H46041   2.601   5.040   4.509  1.8779 -3.3867  0.0798
  349MOL0     H46042   2.467   4.943   4.655 -0.4594 -1.9525 -0.4408
  349MOL0     H46043   2.591   4.938   4.784 -1.1838 -0.1845  0.5659
  349MOL0     H46044   2.697   4.758   4.671 -1.4890 -1.6901  1.0803
  349MOL0     H46045   2.632   4.794   4.519 -0.5474 -1.0692 -0.2788
  349MOL0     H46046   2.469   4.702   4.763  4.4906 -0.2824  1.1562
  349MOL0     H46047   2.410   4.720   4.586 -0.7177 -0.3175  1.8537
  349MOL0     H46048   2.436   4.489   4.659  0.7105 -0.8214  1.1532
  349MOL0     H46049   2.600   4.491   4.691 -0.2265 -0.6022  0.4413
  349MOL0     H46050   3.266   4.872   4.653 -3.1360 -1.2213 -0.8891
  349MOL0     H46051   3.490   4.824   4.578  0.0117 -0.1853 -0.6670
  349MOL0     H46052   3.757   4.736   4.235 -1.3641  1.0100  1.2286
  349MOL0     H46053   3.992   4.650   4.182  0.4067 -0.9821  2.8103
  349MOL0     H46054   5.276   3.667   5.371  0.9290  2.0493 -0.0049
  349MOL0     H46055   5.304   3.542   5.580  1.4755 -0.1404 -3.4872
  349MOL0     H46056   5.012   3.288   5.875 -0.6349 -0.4058  1.1669
  349MOL0     H46057   4.957   3.151   6.062 -3.1543  5.1963 -1.8662
  349MOL0     H46058   5.067   2.950   6.229  3.1544  2.0164 -0.4092
  349MOL0     H46059   4.927   3.047   6.254  1.0325 -1.4604 -0.5989
  349MOL0     H46060   4.982   2.863   6.421 -0.7842 -0.9505  1.0376
  349MOL0     H46061   5.129   2.938   6.476 -0.4296 -2.9483 -1.7232
  349MOL0     H46062   4.853   3.057   6.516  0.0827  0.6478 -1.5529
  349MOL0     H46063   4.985   3.163   6.502  0.0211 -0.1108 -0.6559
  349MOL0     H46064   4.987   2.923   6.697 -0.0306 -0.0728  0.4785
  349MOL0     H46065   5.110   3.049   6.686 -0.0164  0.1531  1.4070
  349MOL0     H46066   4.826   3.284   6.875 -1.7313  0.0801 -1.3730
  349MOL0     H46067   5.289   3.352   6.281  0.3268 -0.6098 -0.1328
  349MOL0     H46068   5.301   3.502   6.097 -3.6970  2.4264  1.8401
  350MOL0     O46069   0.440   4.871   5.191 -0.6330  0.1440 -0.6006
  350MOL0     C46070   0.387   4.856   5.303 -0.6270 -0.9916 -0.3445
  350MOL0     O46071   0.448   4.829   5.420 -0.2015 -0.0777  0.1690
  350MOL0     C46072   0.570   4.763   5.397 -0.0060 -0.2923  0.0096
  350MOL0     C46073   0.689   4.833   5.378 -0.5884 -0.5686 -0.1497
  350MOL0     C46074   0.806   4.771   5.353  0.0512 -0.5280  0.8519
  350MOL0     C46075   0.819   4.634   5.326 -0.4661 -1.1221  0.0795
  350MOL0     O46076   0.930   4.557   5.299  0.7803 -1.1155  0.3694
  350MOL0     C46077   1.058   4.628   5.304  0.0255  0.4269  0.4710
  350MOL0     C46078   1.174   4.539   5.262  0.4121 -0.1072  0.0889
  350MOL0     C46079   1.298   4.626   5.262 -0.7711 -0.1950  0.0266
  350MOL0     C46080   1.359   4.652   5.400 -0.2254 -0.6766  0.8261
  350MOL0     C46081   1.499   4.706   5.387 -0.1238 -0.0194 -0.0975
  350MOL0     C46082   1.606   4.597   5.369  0.0397 -0.2192 -0.3533
  350MOL0     C46083   1.740   4.658   5.322  0.0354  0.6842  0.8219
  350MOL0     C46084   1.850   4.554   5.322 -0.8147  0.3952  0.3057
  350MOL0     N46085   1.976   4.609   5.273 -0.5189  0.5928  0.2055
  350MOL0     C46086   2.074   4.522   5.217 -0.5162 -0.0854 -0.3755
  350MOL0     C46087   2.186   4.602   5.225  0.3375 -0.7900 -0.9135
  350MOL0     C46088   2.324   4.564   5.176  0.0207 -0.7796 -0.1659
  350MOL0     C46089   2.442   4.634   5.245  0.0802 -0.3554 -0.0406
  350MOL0     C46090   2.585   4.605   5.196  0.6070 -0.2150 -0.1782
  350MOL0     C46091   2.614   4.649   5.051 -0.4256  0.6067 -0.4492
  350MOL0     O46092   2.710   4.564   4.986  0.0262 -0.4526  0.4734
  350MOL0     C46093   2.836   4.611   4.965 -0.2239  0.6727  0.3054
  350MOL0     C46094   2.905   4.588   4.842 -0.0912 -1.0324 -1.1441
  350MOL0     C46095   3.042   4.625   4.835 -0.3811 -0.4154  0.1194
  350MOL0     C46096   3.108   4.674   4.944 -0.5216  0.2389 -0.5505
  350MOL0     C46097   3.251   4.720   4.920 -0.4513 -0.0722 -0.4033
  350MOL0     O46098   3.317   4.787   5.020  0.1751  0.9597  0.4669
  350MOL0     C46099   3.451   4.766   5.032  0.3340 -0.6849 -1.2381
  350MOL0     C46100   3.561   4.859   4.996  0.5536 -0.1500  0.2843
  350MOL0     C46101   3.689   4.813   5.039  0.5210 -0.2831  0.2970
  350MOL0     C46102   3.726   4.687   5.083  0.2539 -0.8996 -0.2106
  350MOL0     O46103   3.854   4.646   5.107 -0.5377 -1.1064  0.5190
  350MOL0     C46104   3.936   4.730   5.188  0.0850 -0.0187 -0.4731
  350MOL0     C46105   4.067   4.668   5.205  0.0130 -0.7324 -0.2141
  350MOL0     C46106   4.071   4.531   5.272  0.0185 -0.2256  0.5910
  350MOL0     C46107   4.039   4.556   5.430  0.4172  0.4522  0.3473
  350MOL0     C46108   4.080   4.443   5.521 -0.3798  0.5192  0.2075
  350MOL0     C46109   4.056   4.476   5.666 -0.3372  0.4673 -0.5390
  350MOL0     C46110   4.165   4.565   5.730  0.1097 -0.2506  0.6875
  350MOL0     C46111   4.165   4.551   5.883  0.5269  0.8319 -0.3693
  350MOL0    Cl46112   4.216   4.385   5.931 -0.0111  0.2945  0.9079
  350MOL0     C46113   3.622   4.598   5.105  0.3931  0.5717  0.7786
  350MOL0     C46114   3.485   4.638   5.089 -0.4513 -1.0664 -0.5913
  350MOL0     O46115   3.303   4.672   4.822  0.3286 -0.6421 -0.0998
  350MOL0     C46116   3.035   4.693   5.058 -0.9041  0.2253 -0.1806
  350MOL0     C46117   2.907   4.660   5.075 -0.6715  1.1327  0.3585
  350MOL0     N46118   2.154   4.729   5.282  0.2915 -0.7136 -0.5885
  350MOL0     N46119   2.029   4.731   5.311  0.1988  0.9538  0.7225
  350MOL0     C46120   0.692   4.564   5.339  0.4294 -0.1635  0.4316
  350MOL0     C46121   0.571   4.630   5.373  0.9421 -0.5034 -0.0284
  350MOL0     C46122   0.245   4.887   5.300 -0.3775  0.7977  1.3302
  350MOL0     C46123   0.188   4.937   5.410 -0.3776  0.1118  0.8071
  350MOL0     C46124   0.052   4.979   5.405  0.3295  0.4567 -0.3201
  350MOL0     C46125  -0.030   4.958   5.290 -0.4808  0.0923  0.7939
  350MOL0     O46126  -0.158   4.986   5.290  0.3232  0.4307 -0.5769
  350MOL0     C46127  -0.233   4.955   5.178  0.9224  0.7557  0.7259
  350MOL0     C46128  -0.385   4.970   5.220 -0.1463 -0.6428 -0.7531
  350MOL0     C46129  -0.430   4.877   5.338 -0.5101  0.3045  0.0952
  350MOL0     C46130  -0.429   4.729   5.304 -0.5768  0.5391 -0.0776
  350MOL0     C46131  -0.502   4.658   5.414  0.7296 -0.6046  0.2364
  350MOL0     C46132  -0.576   4.611   5.500  0.3052  0.7472 -0.3741
  350MOL0     C46133   0.029   4.882   5.183 -0.0416  0.7841  0.4367
  350MOL0     C46134   0.166   4.844   5.191 -0.5288 -0.5827  0.3020
  350MOL0     H46135   0.676   4.941   5.379 -0.3352 -0.5372 -0.2270
  350MOL0     H46136   0.892   4.833   5.331 -0.2037 -0.6642 -0.6183
  350MOL0     H46137   1.079   4.671   5.402  0.1243 -0.5765  0.9003
  350MOL0     H46138   1.063   4.714   5.236  1.6435 -0.8141 -1.0661
  350MOL0     H46139   1.162   4.487   5.167  0.0940 -1.9914  1.0978
  350MOL0     H46140   1.178   4.458   5.336  4.0779  0.8275  1.0794
  350MOL0     H46141   1.293   4.721   5.208  2.3626  0.6748  1.0589
  350MOL0     H46142   1.369   4.559   5.214 -1.2623 -1.8017  1.4347
  350MOL0     H46143   1.301   4.729   5.453 -1.3930 -1.0561  0.1304
  350MOL0     H46144   1.355   4.559   5.458  0.1077 -1.8491 -0.9664
  350MOL0     H46145   1.526   4.766   5.474 -0.9967 -1.2473  1.0561
  350MOL0     H46146   1.497   4.774   5.301 -0.1053  0.6808  0.4435
  350MOL0     H46147   1.564   4.516   5.309 -0.4695 -1.6365  1.7800
  350MOL0     H46148   1.622   4.546   5.465  1.7763  1.4255  0.2901
  350MOL0     H46149   1.738   4.707   5.225  3.0028  0.4591  0.5567
  350MOL0     H46150   1.762   4.729   5.403 -1.5440  0.0041  1.9106
  350MOL0     H46151   1.824   4.476   5.250  0.8468 -0.3390  0.4492
  350MOL0     H46152   1.863   4.502   5.417  1.0472 -0.6406 -0.4545
  350MOL0     H46153   2.052   4.423   5.179 -2.0297 -0.0566  0.3685
  350MOL0     H46154   2.325   4.563   5.067 -0.4798  0.7531 -0.2178
  350MOL0     H46155   2.343   4.458   5.196  0.9193 -1.2005 -2.9289
  350MOL0     H46156   2.434   4.593   5.346 -1.2211 -3.1982 -1.1751
  350MOL0     H46157   2.435   4.743   5.237  2.7977 -0.1972 -1.4870
  350MOL0     H46158   2.653   4.662   5.260  2.2736  0.6116 -2.5385
  350MOL0     H46159   2.603   4.498   5.209  2.9176  0.0103 -1.1511
  350MOL0     H46160   2.659   4.748   5.062  1.4931 -0.2321 -0.3466
  350MOL0     H46161   2.526   4.645   4.986  1.2322  1.0464 -2.8657
  350MOL0     H46162   2.861   4.542   4.754  1.9147 -2.4235 -1.4970
  350MOL0     H46163   3.093   4.600   4.742 -2.5081 -0.8867 -0.9987
  350MOL0     H46164   3.531   4.955   4.955 -1.6144 -0.1876  1.6236
  350MOL0     H46165   3.758   4.894   5.022 -1.2522  1.2864  0.2125
  350MOL0     H46166   3.886   4.748   5.284  0.6913 -0.6130 -0.0357
  350MOL0     H46167   3.950   4.827   5.138 -2.9356 -1.2531 -4.1458
  350MOL0     H46168   4.121   4.741   5.265  0.0886  1.1703 -2.4964
  350MOL0     H46169   4.109   4.650   5.106  0.8556 -1.1538  0.2094
  350MOL0     H46170   4.169   4.484   5.265 -0.7688 -1.7196 -1.8189
  350MOL0     H46171   3.997   4.461   5.230  1.6088 -2.9200  1.9873
  350MOL0     H46172   4.096   4.646   5.457  2.8837  0.1252 -3.1042
  350MOL0     H46173   3.934   4.579   5.451  0.7446 -0.9952  4.6041
  350MOL0     H46174   4.186   4.421   5.507 -0.3116 -0.3377  1.8747
  350MOL0     H46175   4.021   4.357   5.487  0.3494  0.2311 -0.3667
  350MOL0     H46176   4.047   4.384   5.725 -2.1827  0.3642 -0.9236
  350MOL0     H46177   3.958   4.521   5.684 -0.1321  1.0340 -0.8366
  350MOL0     H46178   4.264   4.551   5.684 -0.5721  0.5442 -1.1061
  350MOL0     H46179   4.145   4.672   5.722 -0.8725 -0.0389  4.2317
  350MOL0     H46180   4.063   4.554   5.923 -0.2164 -2.9292 -1.5766
  350MOL0     H46181   4.232   4.622   5.933 -1.3844  2.1270  0.4721
  350MOL0     H46182   3.638   4.495   5.136 -2.7636 -0.8857 -1.8915
  350MOL0     H46183   3.405   4.570   5.114 -3.5346  1.0595 -3.6862
  350MOL0     H46184   3.079   4.742   5.144  0.6138  2.3606 -2.0512
  350MOL0     H46185   2.876   4.662   5.179 -0.0285  1.3880  0.5498
  350MOL0     H46186   0.689   4.455   5.333 -1.5233 -0.1807  1.0354
  350MOL0     H46187   0.474   4.583   5.364 -0.3851  2.3750 -2.8890
  350MOL0     H46188   0.252   4.961   5.493  2.2837  1.1698 -1.3958
  350MOL0     H46189   0.018   5.022   5.499  2.3028  0.3462  0.4765
  350MOL0     H46190  -0.214   4.849   5.157 -0.6707 -0.3148  3.9507
  350MOL0     H46191  -0.203   5.019   5.094  3.6789  0.2962  1.2570
  350MOL0     H46192  -0.397   5.076   5.245  0.2521 -0.5024 -1.1447
  350MOL0     H46193  -0.456   4.951   5.138 -3.0824  0.0768  1.4409
  350MOL0     H46194  -0.535   4.893   5.364 -1.9811 -3.3418 -2.6880
  350MOL0     H46195  -0.359   4.888   5.421  1.7729 -1.0314 -1.5683
  350MOL0     H46196  -0.472   4.710   5.205 -2.6722 -1.2295  1.0933
  350MOL0     H46197  -0.324   4.703   5.286 -1.4182 -0.7047 -4.4612
  350MOL0     H46198  -0.633   4.572   5.582  0.4924  1.1498 -0.0476
  350MOL0     H46199  -0.025   4.858   5.092  1.2587 -0.9725  0.0884
  350MOL0     H46200   0.227   4.812   5.107  0.5177  1.7165  0.1323
  351MOL0     O46201   2.190  10.644   9.301  0.0741  0.7544 -0.1624
  351MOL0     C46202   2.252  10.544   9.275  0.2046 -0.7918 -0.5563
  351MOL0     O46203   2.376  10.543   9.224  0.1563 -0.1152 -0.2946
  351MOL0     C46204   2.451  10.652   9.184 -0.1284 -0.4588 -0.1597
  351MOL0     C46205   2.466  10.767   9.259  0.4282  0.0392 -0.2620
  351MOL0     C46206   2.556  10.865   9.224  0.1479 -0.7277 -0.4364
  351MOL0     C46207   2.637  10.849   9.110 -0.1201 -0.2002 -0.4554
  351MOL0     O46208   2.718  10.956   9.086  0.0294  0.1963  0.6427
  351MOL0     C46209   2.695  11.011   8.958 -0.5530 -0.4814  0.1209
  351MOL0     C46210   2.623  11.149   8.973 -0.2014  0.9279  0.3692
  351MOL0     C46211   2.560  11.187   8.835 -0.1727 -0.6325  0.2565
  351MOL0     C46212   2.652  11.190   8.711 -0.2289 -0.1550  0.0687
  351MOL0     C46213   2.562  11.232   8.583  0.2377 -0.3527 -0.5455
  351MOL0     C46214   2.637  11.192   8.451  0.5194  0.2589 -1.2692
  351MOL0     C46215   2.560  11.247   8.326 -0.8743 -0.1571 -0.1417
  351MOL0     C46216   2.604  11.395   8.300 -0.2021  0.9462  0.3099
  351MOL0     N46217   2.490  11.465   8.248  0.1244 -0.4862  0.4824
  351MOL0     C46218   2.385  11.515   8.323  0.2606  0.1102  0.0462
  351MOL0     C46219   2.295  11.554   8.239  0.6937  0.5627  0.2807
  351MOL0     C46220   2.160  11.604   8.273 -0.0592  0.5888 -0.1057
  351MOL0     C46221   2.150  11.752   8.273 -0.5577 -0.3424  0.0050
  351MOL0     C46222   2.038  11.798   8.174 -0.1275 -0.3777 -0.4481
  351MOL0     C46223   2.015  11.955   8.139  0.8965  0.0077  1.1749
  351MOL0     O46224   2.141  12.017   8.133 -0.4632  0.2856  0.2753
  351MOL0     C46225   2.142  12.152   8.110  0.2072  0.1797  0.5646
  351MOL0     C46226   2.026  12.229   8.080 -0.1465  0.0572 -0.2801
  351MOL0     C46227   2.037  12.346   8.019 -0.2332 -1.0959 -0.1596
  351MOL0     C46228   2.161  12.398   7.982 -0.4726  0.3350 -0.8050
  351MOL0     C46229   2.169  12.524   7.902 -0.2591  0.5963  0.5625
  351MOL0     O46230   2.055  12.576   7.855  0.2055 -0.8231 -0.4638
  351MOL0     C46231   2.051  12.679   7.770 -0.1520 -0.1251  0.5838
  351MOL0     C46232   2.076  12.811   7.819 -0.1352 -0.1573  0.3356
  351MOL0     C46233   2.038  12.916   7.731 -0.2374  0.3204 -0.3616
  351MOL0     C46234   1.988  12.881   7.608 -0.2474 -0.0904  0.6308
  351MOL0     O46235   1.941  12.992   7.525  0.0219  0.4353  0.1846
  351MOL0     C46236   1.809  13.049   7.556 -0.5332 -0.0315 -0.5617
  351MOL0     C46237   1.699  12.950   7.513  0.3357  0.1410  0.8243
  351MOL0     C46238   1.700  12.921   7.361  0.6184 -0.5017  0.4143
  351MOL0     C46239   1.603  13.020   7.288  0.3037  0.2664  0.1308
  351MOL0     C46240   1.605  13.009   7.139  0.1490  0.4128 -0.3944
  351MOL0     C46241   1.497  13.092   7.067 -0.3369  0.3211 -0.4014
  351MOL0     C46242   1.474  13.053   6.918  0.8824  0.1937  0.0632
  351MOL0     C46243   1.361  13.124   6.843  0.2618  0.2442 -0.3056
  351MOL0    Cl46244   1.210  13.143   6.944  0.0142  0.3393 -0.0118
  351MOL0     C46245   1.981  12.750   7.562 -0.1267  0.2416 -0.4086
  351MOL0     C46246   1.999  12.646   7.650 -0.2049 -0.1191 -0.1232
  351MOL0     O46247   2.282  12.580   7.875  0.7073 -0.4195 -0.4692
  351MOL0     C46248   2.276  12.325   8.012 -0.1909  1.1196 -0.4528
  351MOL0     C46249   2.262  12.202   8.082 -0.3375 -0.3550  0.0472
  351MOL0     N46250   2.349  11.551   8.111 -0.1669  0.4440 -0.1638
  351MOL0     N46251   2.463  11.496   8.117  0.2019  1.0495  0.7643
  351MOL0     C46252   2.637  10.728   9.036  0.5072  0.8184  0.2446
  351MOL0     C46253   2.550  10.626   9.082  0.8488  0.8624  0.3332
  351MOL0     C46254   2.182  10.427   9.299  0.7536 -0.3156 -0.7065
  351MOL0     C46255   2.041  10.428   9.321 -0.0596  0.8165 -0.0779
  351MOL0     C46256   1.971  10.319   9.357  0.1192 -0.3358  0.5049
  351MOL0     C46257   2.036  10.197   9.378 -0.6739 -1.0098  0.5810
  351MOL0     O46258   1.973  10.076   9.402 -0.3529 -0.2856  0.0829
  351MOL0     C46259   1.869  10.077   9.504 -0.1266  0.3608 -0.3545
  351MOL0     C46260   1.928  10.123   9.639 -0.2760  0.3967  0.9278
  351MOL0     C46261   1.815  10.113   9.747 -0.1415 -1.1701 -0.2659
  351MOL0     C46262   1.867  10.134   9.888 -1.2946 -0.1371 -0.0204
  351MOL0     C46263   1.753  10.162   9.983  0.2611  0.3067  0.4005
  351MOL0     C46264   1.654  10.188  10.042  0.7985  0.8542  0.5484
  351MOL0     C46265   2.172  10.187   9.341  0.5638 -0.8369  0.7352
  351MOL0     C46266   2.240  10.298   9.298  0.1848 -0.4044 -0.4077
  351MOL0     H46267   2.409  10.803   9.344  1.2537  1.5117 -0.3159
  351MOL0     H46268   2.567  10.956   9.283 -2.5233 -0.1394 -0.7127
  351MOL0     H46269   2.625  10.958   8.894  0.9525 -2.9325  0.3821
  351MOL0     H46270   2.788  11.005   8.900  0.3951 -0.3959  1.5814
  351MOL0     H46271   2.700  11.221   9.003  0.7386  0.0802  0.0280
  351MOL0     H46272   2.547  11.150   9.052 -3.8504  2.9353 -2.8082
  351MOL0     H46273   2.499  11.276   8.849  1.0370  0.3046 -0.2040
  351MOL0     H46274   2.483  11.110   8.828 -2.0399  1.2408 -0.9516
  351MOL0     H46275   2.738  11.257   8.721 -0.8307  0.7782 -0.8088
  351MOL0     H46276   2.691  11.090   8.692  0.5282  0.3258 -1.0003
  351MOL0     H46277   2.532  11.337   8.579 -1.5251 -0.8261 -0.6429
  351MOL0     H46278   2.469  11.176   8.596 -0.3306  0.3288 -1.5542
  351MOL0     H46279   2.640  11.083   8.437 -0.8122  0.2851 -1.9291
  351MOL0     H46280   2.737  11.236   8.452  0.0362  1.4358 -2.0685
  351MOL0     H46281   2.580  11.181   8.241 -1.5362 -0.4242 -0.1029
  351MOL0     H46282   2.453  11.230   8.344 -0.4943 -2.3907  0.2684
  351MOL0     H46283   2.688  11.398   8.230 -2.5417  0.3370 -2.7535
  351MOL0     H46284   2.633  11.436   8.397 -0.0187 -2.4907  1.8650
  351MOL0     H46285   2.373  11.497   8.430 -1.2671 -4.5811 -0.6596
  351MOL0     H46286   2.127  11.551   8.363 -1.7232  0.2239 -0.8941
  351MOL0     H46287   2.100  11.572   8.187  0.5000  2.1395 -1.1121
  351MOL0     H46288   2.244  11.806   8.257 -1.7141  1.6327 -0.4735
  351MOL0     H46289   2.127  11.782   8.375  1.4747 -2.8753  1.3293
  351MOL0     H46290   2.055  11.748   8.079  3.5772 -0.4586  0.1180
  351MOL0     H46291   1.942  11.757   8.207 -0.6588  0.5993 -0.7245
  351MOL0     H46292   1.947  12.008   8.205  0.8390 -1.0270  1.9715
  351MOL0     H46293   1.965  11.961   8.041  1.7604 -0.6154  0.6814
  351MOL0     H46294   1.927  12.187   8.096 -0.2801 -1.3808 -3.9960
  351MOL0     H46295   1.951  12.398   7.976  1.0394  0.2250 -1.2484
  351MOL0     H46296   2.101  12.831   7.922 -0.1643 -1.0764  0.5296
  351MOL0     H46297   2.043  13.017   7.771  0.5155  0.0538  0.2355
  351MOL0     H46298   1.798  13.141   7.498  2.6339  0.7937 -0.0666
  351MOL0     H46299   1.804  13.079   7.661 -1.7794 -1.7050 -0.0980
  351MOL0     H46300   1.598  12.978   7.543 -1.3438 -4.7236  0.7031
  351MOL0     H46301   1.727  12.858   7.567  0.6483  0.5376  1.3514
  351MOL0     H46302   1.652  12.822   7.355 -5.5516  1.8132  2.9849
  351MOL0     H46303   1.797  12.913   7.311 -0.1381  2.4408 -1.8086
  351MOL0     H46304   1.506  13.005   7.334  0.8539 -2.7980  0.4541
  351MOL0     H46305   1.625  13.124   7.316 -2.3625  1.1197 -0.6216
  351MOL0     H46306   1.583  12.904   7.116 -0.1096 -0.3555  2.9197
  351MOL0     H46307   1.706  13.039   7.111  0.6091 -0.1844  0.5638
  351MOL0     H46308   1.528  13.197   7.065  0.9143  0.1096  2.5366
  351MOL0     H46309   1.400  13.100   7.116 -1.5135  0.8290 -2.6821
  351MOL0     H46310   1.567  13.055   6.861 -1.3585  0.2387 -3.8984
  351MOL0     H46311   1.438  12.951   6.935 -0.4375  0.6423  0.0128
  351MOL0     H46312   1.336  13.066   6.754 -1.1536  0.4331 -0.0583
  351MOL0     H46313   1.399  13.215   6.795  1.3326 -1.2845 -2.5044
  351MOL0     H46314   1.943  12.724   7.463  1.1199 -0.6249 -0.6890
  351MOL0     H46315   1.976  12.543   7.626 -0.6339 -0.4831  1.7480
  351MOL0     H46316   2.374  12.356   7.980  0.7482  0.0096  1.1632
  351MOL0     H46317   2.351  12.143   8.103  1.2091  1.3232 -1.4119
  351MOL0     H46318   2.705  10.714   8.953  0.4025 -0.3241  0.3347
  351MOL0     H46319   2.567  10.536   9.025  0.1522  0.3207  0.9701
  351MOL0     H46320   1.986  10.521   9.311 -0.7913  0.2784 -1.2767
  351MOL0     H46321   1.863  10.326   9.363  0.0391 -0.8322 -0.1783
  351MOL0     H46322   1.835   9.973   9.502 -1.3097  0.6942  1.0804
  351MOL0     H46323   1.788  10.149   9.487  1.2214  1.9364 -0.3676
  351MOL0     H46324   2.006  10.054   9.671 -0.0381  0.3025  0.1726
  351MOL0     H46325   1.986  10.216   9.631  4.0857 -2.2111 -2.0904
  351MOL0     H46326   1.778  10.011   9.761 -0.9563 -0.8096  0.2664
  351MOL0     H46327   1.738  10.185   9.719  1.2916  0.4335 -0.2470
  351MOL0     H46328   1.925  10.045   9.913 -2.9520 -1.6250 -1.2837
  351MOL0     H46329   1.931  10.223   9.890 -1.3869 -0.0489 -0.8720
  351MOL0     H46330   1.555  10.193  10.083 -0.3099 -0.9745 -1.6820
  351MOL0     H46331   2.218  10.092   9.364 -2.1704 -2.0587  1.6325
  351MOL0     H46332   2.345  10.297   9.271  0.3112  1.6737 -0.1458
  352MOL0     O46333   0.680   4.586   1.146  0.0199 -0.0393  0.6776
  352MOL0     C46334   0.640   4.569   1.028  0.7549 -0.6705 -0.6207
  352MOL0     O46335   0.549   4.472   0.986 -0.9034 -0.0799  0.6429
  352MOL0     C46336   0.450   4.445   1.080  1.0693  0.9584  0.1383
  352MOL0     C46337   0.474   4.375   1.199 -0.1013  0.0745 -0.5163
  352MOL0     C46338   0.378   4.378   1.302  0.1457 -1.0228  0.5249
  352MOL0     C46339   0.252   4.437   1.282 -0.6521  0.1135 -0.2079
  352MOL0     O46340   0.158   4.465   1.377 -0.7732 -0.0637  0.0418
  352MOL0     C46341   0.194   4.453   1.517 -0.4349  0.4611 -0.0572
  352MOL0     C46342   0.094   4.542   1.590 -0.2441  0.4859 -1.5770
  352MOL0     C46343  -0.051   4.518   1.563 -1.3119  0.2705 -0.3270
  352MOL0     C46344  -0.133   4.610   1.651 -0.9549 -1.6434  0.0742
  352MOL0     C46345  -0.277   4.633   1.605  0.3311 -0.0120  0.0345
  352MOL0     C46346  -0.357   4.513   1.562  0.1696  0.3814  0.3723
  352MOL0     C46347  -0.477   4.543   1.465 -0.4421 -0.3569  0.3784
  352MOL0     C46348  -0.593   4.614   1.538 -0.0182  0.2367 -0.4187
  352MOL0     N46349  -0.608   4.561   1.670 -0.4341  0.7481  0.1025
  352MOL0     C46350  -0.650   4.436   1.701  0.5777  0.1080 -0.0374
  352MOL0     C46351  -0.645   4.421   1.838 -0.2487 -0.2845 -0.2024
  352MOL0     C46352  -0.673   4.314   1.934 -0.4215  0.1563 -0.7634
  352MOL0     C46353  -0.818   4.266   1.925  0.5085 -0.2556  0.5956
  352MOL0     C46354  -0.845   4.162   2.038  0.7757  0.2445  0.7139
  352MOL0     C46355  -0.980   4.092   2.008  0.8113 -0.9726 -0.2653
  352MOL0     O46356  -1.079   4.187   2.047  0.2710 -0.2397  0.1205
  352MOL0     C46357  -1.136   4.175   2.173 -0.0862  0.5748  0.5319
  352MOL0     C46358  -1.075   4.229   2.289  0.0894 -0.3635  0.0334
  352MOL0     C46359  -1.134   4.219   2.417  0.6980  0.0568  0.2084
  352MOL0     C46360  -1.252   4.157   2.429 -0.2517  0.0813 -0.1250
  352MOL0     C46361  -1.311   4.140   2.564  0.0662  0.4781  0.0913
  352MOL0     O46362  -1.435   4.079   2.561 -0.0527  0.0381  0.6406
  352MOL0     C46363  -1.493   4.028   2.674  0.3004 -0.1652  0.9637
  352MOL0     C46364  -1.628   4.043   2.705 -0.7178 -0.3140 -0.2409
  352MOL0     C46365  -1.686   3.966   2.811 -0.2353  0.2321 -0.6645
  352MOL0     C46366  -1.608   3.876   2.893 -0.3811 -1.6145 -0.1340
  352MOL0     O46367  -1.676   3.806   2.990  0.0373  0.3539 -0.1403
  352MOL0     C46368  -1.594   3.730   3.081 -0.0170 -0.0233  0.1887
  352MOL0     C46369  -1.693   3.651   3.172  0.5363 -0.1795 -0.1840
  352MOL0     C46370  -1.626   3.544   3.273 -0.2119  0.1514  0.0116
  352MOL0     C46371  -1.493   3.594   3.319 -0.1337  0.8514  0.1191
  352MOL0     C46372  -1.475   3.545   3.466  0.7637 -0.5261 -0.3629
  352MOL0     C46373  -1.463   3.394   3.485 -0.3964 -0.8475 -0.0381
  352MOL0     C46374  -1.334   3.338   3.428 -0.0139  0.1012  0.0943
  352MOL0     C46375  -1.315   3.193   3.437  0.4412  0.5943 -0.1768
  352MOL0    Cl46376  -1.330   3.147   3.612 -0.2198  0.1303  0.1093
  352MOL0     C46377  -1.476   3.867   2.850 -0.1920  0.4275  0.1952
  352MOL0     C46378  -1.421   3.941   2.748 -1.1932 -0.5109 -1.1900
  352MOL0     O46379  -1.241   4.165   2.662 -0.4747 -0.2288  0.3746
  352MOL0     C46380  -1.318   4.117   2.311  0.8204  0.0234 -0.4698
  352MOL0     C46381  -1.257   4.111   2.189 -0.2683 -0.5394 -0.2608
  352MOL0     N46382  -0.577   4.534   1.880 -0.3711 -0.2608 -0.4514
  352MOL0     N46383  -0.563   4.619   1.784 -0.0637  1.2441 -0.0438
  352MOL0     C46384   0.225   4.478   1.153 -0.1709  0.1637 -0.3338
  352MOL0     C46385   0.320   4.498   1.058 -0.7894  0.2033  0.8961
  352MOL0     C46386   0.702   4.660   0.930  0.0032  0.5699 -0.2002
  352MOL0     C46387   0.749   4.789   0.962  0.4557 -0.6606 -0.3532
  352MOL0     C46388   0.813   4.870   0.868  0.5827  0.3111  0.3711
  352MOL0     C46389   0.837   4.825   0.733  0.3861  0.2376 -0.8856
  352MOL0     O46390   0.890   4.913   0.645  0.4365 -0.5921 -0.3787
  352MOL0     C46391   0.819   4.959   0.527  0.2727  0.1081 -0.0716
  352MOL0     C46392   0.916   4.927   0.411 -0.0626 -1.0322 -0.1889
  352MOL0     C46393   0.854   4.948   0.276 -0.5017  0.7749  0.2208
  352MOL0     C46394   0.755   4.839   0.251  0.3882  0.5244  0.3265
  352MOL0     C46395   0.819   4.715   0.237  0.1492 -0.0247 -0.8098
  352MOL0     C46396   0.856   4.602   0.226  0.4048 -0.2364 -1.4384
  352MOL0     C46397   0.771   4.703   0.701 -0.7721  0.4555 -0.1806
  352MOL0     C46398   0.710   4.621   0.801 -0.1996 -0.0252 -0.4256
  352MOL0     H46399   0.573   4.333   1.213  0.2899  1.4841  1.3937
  352MOL0     H46400   0.391   4.337   1.401  3.6305 -0.1009  0.5828
  352MOL0     H46401   0.292   4.493   1.541  0.3586 -0.0748 -2.1856
  352MOL0     H46402   0.177   4.356   1.565  0.6308  1.0493  1.6021
  352MOL0     H46403   0.117   4.645   1.561  0.9433  1.5310  2.3993
  352MOL0     H46404   0.114   4.534   1.698  0.6049  1.2508 -1.6653
  352MOL0     H46405  -0.085   4.416   1.583 -3.7246  0.6454 -2.1212
  352MOL0     H46406  -0.080   4.548   1.462  0.8191  2.1892 -0.4511
  352MOL0     H46407  -0.128   4.588   1.758 -0.0273 -1.3092  0.1108
  352MOL0     H46408  -0.091   4.709   1.633  1.7035 -2.6583  0.1990
  352MOL0     H46409  -0.281   4.713   1.530  0.8883 -0.5106 -0.5344
  352MOL0     H46410  -0.324   4.690   1.686 -1.6179  0.5222 -1.3835
  352MOL0     H46411  -0.400   4.443   1.635  0.4731 -2.3893 -1.9003
  352MOL0     H46412  -0.301   4.448   1.495 -3.1952 -1.8817 -0.5248
  352MOL0     H46413  -0.441   4.605   1.382  1.1837  1.5689  2.4254
  352MOL0     H46414  -0.513   4.451   1.418 -0.8653 -0.4157  0.8146
  352MOL0     H46415  -0.683   4.620   1.477 -1.2122  2.2437  1.3922
  352MOL0     H46416  -0.554   4.716   1.551  0.8290 -0.0830 -0.4137
  352MOL0     H46417  -0.678   4.355   1.634  2.2782 -0.9470  0.4825
  352MOL0     H46418  -0.660   4.355   2.035 -1.4921 -1.4768  0.0919
  352MOL0     H46419  -0.601   4.233   1.916 -1.2564 -1.5675  2.6229
  352MOL0     H46420  -0.843   4.231   1.824 -0.1777  2.3635 -0.1996
  352MOL0     H46421  -0.881   4.351   1.951 -0.6277 -1.1381  0.8278
  352MOL0     H46422  -0.766   4.087   2.039 -0.5830 -1.2690  0.1867
  352MOL0     H46423  -0.852   4.209   2.136 -0.6353  0.5179  0.5067
  352MOL0     H46424  -0.996   4.008   2.077 -5.4157 -2.1174 -2.4497
  352MOL0     H46425  -1.000   4.058   1.906 -3.1175 -5.1538  1.5588
  352MOL0     H46426  -0.982   4.286   2.286  1.6963 -2.3507  4.4912
  352MOL0     H46427  -1.086   4.266   2.502  1.0098  0.8148 -0.3761
  352MOL0     H46428  -1.699   4.107   2.654 -2.8874 -1.3439  1.2984
  352MOL0     H46429  -1.794   3.976   2.818 -0.8020 -3.5465 -1.9072
  352MOL0     H46430  -1.533   3.799   3.139 -0.9978  0.8881  0.1640
  352MOL0     H46431  -1.529   3.661   3.027 -0.4840 -0.8746  0.6894
  352MOL0     H46432  -1.766   3.590   3.118 -0.0833  2.5838 -2.7264
  352MOL0     H46433  -1.755   3.720   3.230  0.5621 -2.1495  2.3760
  352MOL0     H46434  -1.611   3.444   3.233 -2.9282 -2.0730  3.8514
  352MOL0     H46435  -1.704   3.521   3.346  0.6866 -2.5000  0.2363
  352MOL0     H46436  -1.415   3.569   3.247 -0.9469  3.0450 -1.6268
  352MOL0     H46437  -1.492   3.704   3.313  1.4271  0.8471 -0.1248
  352MOL0     H46438  -1.563   3.586   3.517 -0.3835 -0.9874 -1.8792
  352MOL0     H46439  -1.395   3.599   3.517  0.7075  0.1692 -0.9953
  352MOL0     H46440  -1.546   3.330   3.455  0.5079 -0.6058 -3.4566
  352MOL0     H46441  -1.471   3.379   3.593  0.0731 -0.2676  0.0827
  352MOL0     H46442  -1.318   3.361   3.322  0.6410 -2.0030 -0.2993
  352MOL0     H46443  -1.251   3.383   3.485 -0.6209 -1.2816  2.1721
  352MOL0     H46444  -1.218   3.171   3.391  0.6995 -0.2173  0.7233
  352MOL0     H46445  -1.391   3.137   3.383 -1.3404  0.2046  2.5229
  352MOL0     H46446  -1.409   3.788   2.882 -0.4590  0.6606  1.3729
  352MOL0     H46447  -1.315   3.919   2.743 -1.0250 -0.4589  1.0772
  352MOL0     H46448  -1.421   4.084   2.316  0.8687 -0.1211 -0.4426
  352MOL0     H46449  -1.307   4.063   2.105  0.5189 -3.1785  0.6619
  352MOL0     H46450   0.126   4.522   1.143 -0.8817 -1.3898 -0.3688
  352MOL0     H46451   0.297   4.562   0.974 -0.7962  4.2418  3.6756
  352MOL0     H46452   0.750   4.824   1.065 -0.4579 -0.1564 -0.5092
  352MOL0     H46453   0.868   4.962   0.880  0.4699  0.4425 -0.1169
  352MOL0     H46454   0.806   5.067   0.538  0.4779  0.5963 -3.5834
  352MOL0     H46455   0.721   4.911   0.515  1.7708 -2.8727 -1.4731
  352MOL0     H46456   0.995   5.000   0.430 -0.8935 -0.3576  0.8773
  352MOL0     H46457   0.947   4.825   0.435  4.0203  0.0179 -0.2650
  352MOL0     H46458   0.930   4.944   0.197 -1.2349 -4.0020 -0.5912
  352MOL0     H46459   0.805   5.045   0.275  0.9736  1.5488 -0.7472
  352MOL0     H46460   0.680   4.834   0.331 -0.1754 -0.5179 -0.2426
  352MOL0     H46461   0.705   4.871   0.159 -0.7866 -0.8696  0.4359
  352MOL0     H46462   0.904   4.507   0.236  1.4575  0.4219  0.3611
  352MOL0     H46463   0.765   4.672   0.598 -0.6488  2.2100 -0.7457
  352MOL0     H46464   0.678   4.523   0.767  2.4528 -1.3157  0.5118
  353MOL0     O46465  10.776   0.215   4.269  0.2436  0.6370 -0.2745
  353MOL0     C46466  10.876   0.285   4.254  0.2755  1.0126  0.4452
  353MOL0     O46467  10.939   0.346   4.351 -0.6264  0.0275 -0.1616
  353MOL0     C46468  10.925   0.321   4.486  0.6988  0.3373  0.0973
  353MOL0     C46469  10.998   0.408   4.564  0.2006  0.6082 -0.3135
  353MOL0     C46470  10.991   0.397   4.706  0.1913  0.4524 -0.0656
  353MOL0     C46471  10.916   0.300   4.770 -0.6017 -0.3368 -0.0802
  353MOL0     O46472  10.920   0.297   4.902 -0.1517 -0.1660 -0.1781
  353MOL0     C46473  10.842   0.405   4.963  0.7766  0.2516  0.9807
  353MOL0     C46474  10.821   0.412   5.113 -0.6255 -0.1538 -0.5230
  353MOL0     C46475  10.711   0.521   5.134 -1.3113 -1.2654  0.1653
  353MOL0     C46476  10.677   0.555   5.285 -0.1527  0.1823 -0.7845
  353MOL0     C46477  10.793   0.633   5.357 -0.4073 -0.1454 -0.4632
  353MOL0     C46478  10.795   0.636   5.513 -1.0604 -0.4667 -0.1150
  353MOL0     C46479  10.920   0.693   5.580 -0.8059 -0.3561  0.3277
  353MOL0     C46480  10.914   0.851   5.563  1.0195  0.2824  0.0175
  353MOL0     N46481  10.955   0.921   5.682  0.0342 -0.6580 -0.4037
  353MOL0     C46482  11.082   0.962   5.709 -0.3741 -0.2970  0.1500
  353MOL0     C46483  11.068   1.026   5.823  1.2808 -0.1795  0.3024
  353MOL0     C46484  11.184   1.076   5.904  0.2626 -0.0982 -0.5330
  353MOL0     C46485  11.316   1.075   5.828  0.2859 -0.3351  0.2570
  353MOL0     C46486  11.429   1.143   5.897  0.0090  0.3850 -0.9844
  353MOL0     C46487  11.418   1.295   5.892  0.4658  0.1772  0.2142
  353MOL0     O46488  11.351   1.333   6.016 -0.0249  0.6224 -0.3999
  353MOL0     C46489  11.335   1.465   6.025  0.6649 -0.6528  0.2732
  353MOL0     C46490  11.435   1.551   6.067 -0.2323  0.0420  0.3618
  353MOL0     C46491  11.422   1.685   6.075 -0.1232 -0.1224  0.2330
  353MOL0     C46492  11.301   1.743   6.013 -0.7146  0.2617 -0.1568
  353MOL0     C46493  11.276   1.888   6.017 -0.0880  0.0148 -0.3730
  353MOL0     O46494  11.162   1.943   5.999 -0.6754 -0.0629  0.4900
  353MOL0     C46495  11.135   2.081   5.984 -0.0914 -0.5843 -1.1934
  353MOL0     C46496  11.196   2.187   6.055  0.4398 -0.3075  0.2364
  353MOL0     C46497  11.154   2.323   6.029 -0.1349  1.0638 -0.4276
  353MOL0     C46498  11.058   2.341   5.938  0.2749  0.3022  0.1902
  353MOL0     O46499  11.006   2.465   5.899  0.4427 -0.0868 -0.0479
  353MOL0     C46500  11.101   2.569   5.875 -0.7075 -0.5690 -0.1176
  353MOL0     C46501  11.067   2.638   5.748  0.6835  0.5365  0.5777
  353MOL0     C46502  10.929   2.694   5.735  0.3018  0.6849  0.1626
  353MOL0     C46503  10.867   2.738   5.860  0.1739  0.3806  0.0274
  353MOL0     C46504  10.725   2.809   5.843 -0.2702 -0.1489  0.3363
  353MOL0     C46505  10.624   2.721   5.782 -0.2825  0.1252 -0.1329
  353MOL0     C46506  10.504   2.787   5.705  0.4783  0.1996  0.0508
  353MOL0     C46507  10.412   2.693   5.630 -0.6525 -0.2492  0.4355
  353MOL0    Cl46508  10.313   2.597   5.746 -0.1419 -0.0646  0.0646
  353MOL0     C46509  10.997   2.236   5.869  0.0714  0.8361 -0.3413
  353MOL0     C46510  11.032   2.103   5.897 -0.1637 -0.1910  0.3713
  353MOL0     O46511  11.375   1.954   6.055  0.0444 -0.1417 -0.4638
  353MOL0     C46512  11.206   1.661   5.956  0.5904  0.4121  0.5371
  353MOL0     C46513  11.219   1.524   5.967 -0.1398  0.7523 -0.1336
  353MOL0     N46514  10.936   1.026   5.862  0.6746 -0.3642 -0.8275
  353MOL0     N46515  10.865   0.968   5.779  0.2764 -0.4340  0.8121
  353MOL0     C46516  10.832   0.223   4.687 -0.4414  0.1167 -0.1179
  353MOL0     C46517  10.837   0.241   4.553 -0.0042  0.1259  0.5369
  353MOL0     C46518  10.925   0.293   4.114 -0.3558  0.3141 -0.1815
  353MOL0     C46519  10.853   0.236   4.001 -0.6430 -0.6522 -0.1278
  353MOL0     C46520  10.916   0.248   3.871 -0.3191  0.5752 -0.1533
  353MOL0     C46521  11.032   0.327   3.864  0.5173  1.9400  0.3477
  353MOL0     O46522  11.085   0.338   3.738 -0.4333 -0.1250 -0.3850
  353MOL0     C46523  11.063   0.462   3.669 -0.7674  0.3756 -0.6354
  353MOL0     C46524  11.073   0.428   3.524 -0.0359  0.9520  0.2644
  353MOL0     C46525  11.036   0.534   3.412  0.0849  0.0402 -0.7021
  353MOL0     C46526  11.051   0.466   3.285  0.2987 -0.7951  0.2282
  353MOL0     C46527  11.054   0.565   3.175  0.6087  0.6916  0.4706
  353MOL0     C46528  11.060   0.648   3.086 -0.3544  0.4565  0.5095
  353MOL0     C46529  11.096   0.383   3.968 -0.9576  0.2731  0.2206
  353MOL0     C46530  11.050   0.355   4.094 -0.4343  0.8851  0.2792
  353MOL0     H46531  11.068   0.478   4.520 -1.6682  2.9345  0.2267
  353MOL0     H46532  11.033   0.460   4.784 -0.1474 -1.6739  1.9432
  353MOL0     H46533  10.743   0.394   4.919  0.5854  4.3024 -0.0003
  353MOL0     H46534  10.877   0.504   4.930  2.5318 -0.0276  1.9075
  353MOL0     H46535  10.910   0.446   5.166 -1.1061  2.8517 -1.4314
  353MOL0     H46536  10.776   0.317   5.143 -3.9449  1.9489  1.7122
  353MOL0     H46537  10.618   0.493   5.084 -0.4283 -1.1789 -1.5798
  353MOL0     H46538  10.746   0.615   5.089  0.5764 -0.9022  2.1984
  353MOL0     H46539  10.590   0.621   5.278 -0.1136  0.2601 -0.5554
  353MOL0     H46540  10.649   0.462   5.336  1.9957 -0.2816 -0.3565
  353MOL0     H46541  10.800   0.734   5.318 -0.0622  0.3306  0.7928
  353MOL0     H46542  10.891   0.593   5.328 -1.0587 -1.3444 -1.1014
  353MOL0     H46543  10.778   0.532   5.543 -0.7075 -0.6980 -0.6845
  353MOL0     H46544  10.702   0.684   5.543 -1.4550 -2.0141  1.2972
  353MOL0     H46545  10.915   0.680   5.688  0.9543  0.2971  0.5104
  353MOL0     H46546  11.000   0.643   5.525  0.2964  0.3478  1.2555
  353MOL0     H46547  10.813   0.887   5.540  1.0124  0.6036  0.5350
  353MOL0     H46548  10.970   0.884   5.475  0.8747 -3.3673 -1.6084
  353MOL0     H46549  11.170   0.944   5.649 -0.7162  0.2189 -0.5238
  353MOL0     H46550  11.205   1.015   5.992 -0.2174  2.4515  1.4972
  353MOL0     H46551  11.165   1.180   5.933  0.1993 -0.2886  0.1262
  353MOL0     H46552  11.309   1.128   5.732 -0.9979 -3.0565 -1.2646
  353MOL0     H46553  11.337   0.973   5.794  0.6018  0.9729 -4.0671
  353MOL0     H46554  11.426   1.111   6.001 -2.7565 -0.4057 -1.2449
  353MOL0     H46555  11.524   1.114   5.850  0.7757  0.0416  0.7128
  353MOL0     H46556  11.349   1.330   5.815  2.4641 -1.3364 -2.4585
  353MOL0     H46557  11.521   1.333   5.890  1.6805 -2.1058  4.9955
  353MOL0     H46558  11.522   1.506   6.114  1.6632  0.6441 -2.3527
  353MOL0     H46559  11.502   1.748   6.112 -1.6279  2.4873 -0.6664
  353MOL0     H46560  11.274   2.167   6.128  0.6235  4.6473  1.7546
  353MOL0     H46561  11.176   2.408   6.094 -1.8424  0.4522  1.0382
  353MOL0     H46562  11.193   2.516   5.852 -0.9641 -0.5526 -1.2314
  353MOL0     H46563  11.113   2.640   5.958  1.8191 -0.7686 -0.2577
  353MOL0     H46564  11.078   2.563   5.669  0.2422  0.1788  0.8446
  353MOL0     H46565  11.143   2.711   5.719  1.1697 -0.6900 -1.4297
  353MOL0     H46566  10.872   2.615   5.685  0.9013  0.1185  0.3621
  353MOL0     H46567  10.929   2.778   5.665 -2.3158  1.2062  0.6782
  353MOL0     H46568  10.854   2.648   5.921 -2.0124  1.4870  1.2872
  353MOL0     H46569  10.933   2.812   5.906 -0.7165  1.7133 -0.7547
  353MOL0     H46570  10.753   2.894   5.779  1.2984 -1.8836 -1.4225
  353MOL0     H46571  10.686   2.852   5.936 -2.2419 -1.5691  0.2339
  353MOL0     H46572  10.581   2.675   5.872  1.2886 -1.0319  0.0705
  353MOL0     H46573  10.664   2.640   5.720  2.6611  1.3080  0.0664
  353MOL0     H46574  10.441   2.847   5.772 -0.2346 -0.1245 -0.3226
  353MOL0     H46575  10.546   2.866   5.642  1.7690  0.2715  0.9469
  353MOL0     H46576  10.472   2.636   5.559  1.1360  2.9356 -0.8110
  353MOL0     H46577  10.341   2.755   5.574  0.2810  0.5324  0.0930
  353MOL0     H46578  10.918   2.268   5.801  1.1953  0.4689 -1.8904
  353MOL0     H46579  10.975   2.030   5.841  1.6856  0.3496 -2.4337
  353MOL0     H46580  11.126   1.711   5.903  0.4764 -1.0759 -0.7448
  353MOL0     H46581  11.147   1.457   5.921 -0.1467  0.4080  0.3681
  353MOL0     H46582  10.757   0.153   4.722 -2.0529  1.0291 -1.5523
  353MOL0     H46583  10.765   0.184   4.495 -0.8281 -0.1117  1.7598
  353MOL0     H46584  10.761   0.180   4.008 -0.1598 -1.7062 -1.6859
  353MOL0     H46585  10.866   0.214   3.781 -2.6631  1.4343  0.7473
  353MOL0     H46586  11.140   0.540   3.683  0.4771 -0.4737 -2.4074
  353MOL0     H46587  10.971   0.507   3.706 -2.5892 -2.9363 -0.8177
  353MOL0     H46588  11.176   0.392   3.517 -0.6689 -1.6578  2.2852
  353MOL0     H46589  11.020   0.334   3.506  0.5739  0.7614 -0.5741
  353MOL0     H46590  11.103   0.620   3.400  0.0574  0.6748  2.7302
  353MOL0     H46591  10.940   0.582   3.432  0.6145  0.9507 -0.2759
  353MOL0     H46592  11.140   0.402   3.280 -0.0283 -1.4672  1.9698
  353MOL0     H46593  10.964   0.403   3.265 -1.2294  1.1288  0.5983
  353MOL0     H46594  11.057   0.716   3.003 -2.0995 -0.5182 -0.2869
  353MOL0     H46595  11.183   0.445   3.950 -1.2365  0.0371 -2.2968
  353MOL0     H46596  11.113   0.397   4.172 -0.3498  0.9948  0.1516
  354MOL0     O46597   3.962   7.698   2.762 -0.0646  0.1398 -0.3541
  354MOL0     C46598   3.891   7.648   2.854  0.1938  0.3531  0.6645
  354MOL0     O46599   3.847   7.516   2.867 -0.5752 -0.3113  0.1329
  354MOL0     C46600   3.879   7.414   2.778  0.0019 -1.0225  0.1143
  354MOL0     C46601   3.991   7.332   2.806 -0.9949 -0.2138 -0.0434
  354MOL0     C46602   4.023   7.232   2.719 -0.6347 -0.0168  0.7973
  354MOL0     C46603   3.953   7.199   2.605 -0.0298  0.1494 -0.1853
  354MOL0     O46604   4.003   7.115   2.512 -0.5232 -0.2263 -0.1578
  354MOL0     C46605   3.967   6.978   2.547  0.0265 -0.7842  0.0037
  354MOL0     C46606   4.033   6.901   2.434 -0.0441  0.2489  0.1469
  354MOL0     C46607   3.989   6.751   2.451  0.6328  0.3279 -0.0757
  354MOL0     C46608   4.054   6.643   2.360  0.2688  0.3548  0.5919
  354MOL0     C46609   3.980   6.504   2.373 -0.4995  0.1832 -0.1292
  354MOL0     C46610   4.004   6.445   2.514 -0.3871  1.3867 -0.8529
  354MOL0     C46611   3.948   6.306   2.517  0.8035  0.3876 -0.4372
  354MOL0     C46612   3.960   6.256   2.664  0.3884 -0.0308 -0.3633
  354MOL0     N46613   3.920   6.124   2.708 -0.3263  0.6904  0.6561
  354MOL0     C46614   3.928   6.015   2.627  0.2790  0.0105  1.8370
  354MOL0     C46615   3.908   5.908   2.712  0.3190 -1.2796 -0.0883
  354MOL0     C46616   3.907   5.762   2.704  0.4078  0.7740  0.1477
  354MOL0     C46617   4.038   5.701   2.637  0.4551 -0.2042  0.4736
  354MOL0     C46618   4.024   5.684   2.478  0.1293  0.4062  0.5555
  354MOL0     C46619   4.137   5.744   2.404 -1.1048 -0.3301 -0.0472
  354MOL0     O46620   4.115   5.708   2.272  0.2792  0.0842  1.0776
  354MOL0     C46621   4.226   5.710   2.185 -0.8137 -0.3686 -0.0006
  354MOL0     C46622   4.321   5.808   2.189  0.0160  0.1309 -0.8015
  354MOL0     C46623   4.417   5.820   2.085  0.4703 -0.4574  1.2706
  354MOL0     C46624   4.401   5.748   1.960  0.3615  0.5786 -0.0403
  354MOL0     C46625   4.478   5.776   1.834  0.3340 -0.3980 -0.4582
  354MOL0     O46626   4.558   5.879   1.845 -0.4600 -0.3321  0.8159
  354MOL0     C46627   4.666   5.885   1.767  1.9350  0.6478  0.3227
  354MOL0     C46628   4.748   5.777   1.722  0.6672 -0.4361  0.8886
  354MOL0     C46629   4.858   5.805   1.645  0.4943 -0.5979 -0.3992
  354MOL0     C46630   4.888   5.939   1.614 -0.7900  0.1051  0.9549
  354MOL0     O46631   5.005   5.966   1.557 -0.5423  0.7728  0.4052
  354MOL0     C46632   5.073   6.094   1.562  0.4199 -0.1085 -0.1789
  354MOL0     C46633   5.223   6.091   1.542  0.4487 -0.7295  0.1462
  354MOL0     C46634   5.259   6.012   1.417 -0.6582 -0.2512 -0.5006
  354MOL0     C46635   5.221   6.085   1.288  0.0333 -0.2527  0.2358
  354MOL0     C46636   5.137   6.007   1.186 -0.9702  0.8103 -0.4415
  354MOL0     C46637   5.083   6.096   1.071  0.5307  0.2535  0.5498
  354MOL0     C46638   5.183   6.159   0.974  0.2825 -0.1919  0.0187
  354MOL0     C46639   5.176   6.311   1.001 -0.1912  0.1315 -0.1756
  354MOL0    Cl46640   5.067   6.402   0.895  0.0031 -0.7272 -0.0011
  354MOL0     C46641   4.804   6.038   1.656  0.4384  1.0885  0.3212
  354MOL0     C46642   4.687   6.008   1.727 -0.0083  0.0684 -0.1929
  354MOL0     O46643   4.437   5.707   1.737  0.2712  0.6120 -0.3296
  354MOL0     C46644   4.313   5.640   1.964  0.3023  1.0258  0.9682
  354MOL0     C46645   4.227   5.629   2.069 -0.2201  0.6028  0.4758
  354MOL0     N46646   3.893   5.958   2.839  0.0110 -0.4938 -0.2495
  354MOL0     N46647   3.891   6.081   2.838  0.5662 -0.4983 -0.5082
  354MOL0     C46648   3.838   7.271   2.582  1.0228  0.2727 -0.5922
  354MOL0     C46649   3.799   7.380   2.674 -0.4421  1.2846  0.7786
  354MOL0     C46650   3.856   7.738   2.965 -0.3305 -0.3239  0.0461
  354MOL0     C46651   3.845   7.879   2.935 -0.0963  0.9012  0.3741
  354MOL0     C46652   3.802   7.965   3.039 -0.0348 -0.0479 -0.0031
  354MOL0     C46653   3.765   7.912   3.164  0.0430  0.2646 -0.2911
  354MOL0     O46654   3.722   7.985   3.272 -0.0766  0.4473  0.2474
  354MOL0     C46655   3.731   8.127   3.283 -0.8411  0.9499  0.2772
  354MOL0     C46656   3.624   8.204   3.207  0.0614  1.6930 -0.3532
  354MOL0     C46657   3.672   8.319   3.121 -0.5936  0.2148  0.9502
  354MOL0     C46658   3.713   8.425   3.218  0.0797  0.9148  0.1762
  354MOL0     C46659   3.808   8.510   3.134 -0.6293 -0.3897 -0.1145
  354MOL0     C46660   3.868   8.596   3.066  0.9208 -1.3413  0.5756
  354MOL0     C46661   3.773   7.775   3.182  0.1332  1.0289  0.2493
  354MOL0     C46662   3.807   7.688   3.087 -0.1340  1.0166 -0.2087
  354MOL0     H46663   4.070   7.351   2.878  0.6255 -0.9925 -1.5236
  354MOL0     H46664   4.117   7.179   2.723 -0.7023 -0.0506  2.9914
  354MOL0     H46665   3.858   6.974   2.543 -0.0906 -0.2655  2.0666
  354MOL0     H46666   4.011   6.957   2.645 -1.2911  1.1711  1.0740
  354MOL0     H46667   4.140   6.921   2.446 -0.1129 -0.3777  2.1750
  354MOL0     H46668   4.006   6.934   2.333 -0.4732 -0.3822  0.0476
  354MOL0     H46669   3.881   6.736   2.445  1.0334 -4.3325  0.2823
  354MOL0     H46670   4.024   6.715   2.548 -1.3808  1.1077  0.9892
  354MOL0     H46671   4.038   6.673   2.257  1.5174  2.2334  0.8973
  354MOL0     H46672   4.163   6.643   2.365  0.5445  3.8118 -1.9969
  354MOL0     H46673   4.023   6.441   2.294  1.3437 -0.1950  1.1003
  354MOL0     H46674   3.873   6.505   2.350 -0.3773  2.4629 -0.8808
  354MOL0     H46675   3.943   6.498   2.587  2.2646  1.3784  1.5528
  354MOL0     H46676   4.107   6.458   2.550  0.3762  0.3319 -2.5129
  354MOL0     H46677   3.842   6.305   2.488  1.3129  0.1476 -2.3736
  354MOL0     H46678   4.007   6.235   2.459  0.2194  0.0289 -0.6012
  354MOL0     H46679   3.898   6.319   2.728 -0.7312 -2.1763  0.7835
  354MOL0     H46680   4.060   6.259   2.707  0.9114  3.8696 -1.5266
  354MOL0     H46681   3.955   6.002   2.523  1.2661  0.2320  2.0566
  354MOL0     H46682   3.817   5.740   2.646  0.8684 -0.5507 -0.1092
  354MOL0     H46683   3.916   5.706   2.798  1.3324  0.6748  0.0096
  354MOL0     H46684   4.080   5.610   2.681  0.3970 -0.6844 -0.4526
  354MOL0     H46685   4.125   5.766   2.651 -0.0885  0.4966  0.6493
  354MOL0     H46686   4.023   5.577   2.454  1.5923  1.1806 -3.6855
  354MOL0     H46687   3.930   5.731   2.449 -0.6990 -1.4583  0.0169
  354MOL0     H46688   4.228   5.702   2.448  0.3117 -0.7551 -3.1463
  354MOL0     H46689   4.118   5.850   2.425 -1.6197  0.0820 -2.3343
  354MOL0     H46690   4.313   5.863   2.282  1.4778 -2.4357  0.9610
  354MOL0     H46691   4.493   5.897   2.096 -2.2615  2.6689 -0.0504
  354MOL0     H46692   4.728   5.673   1.744 -0.5964 -0.0410  1.7246
  354MOL0     H46693   4.930   5.729   1.620 -0.8907 -2.9906  2.3162
  354MOL0     H46694   5.056   6.150   1.654  0.1393 -0.1846 -0.1826
  354MOL0     H46695   5.038   6.153   1.476 -1.5736  0.0730  0.7055
  354MOL0     H46696   5.274   6.044   1.627  4.1398 -0.5439 -1.7855
  354MOL0     H46697   5.269   6.190   1.538 -1.3223  0.1037 -0.8917
  354MOL0     H46698   5.206   5.916   1.414 -2.1743  0.5495 -0.1844
  354MOL0     H46699   5.368   6.000   1.421 -0.6619 -0.3993 -0.8140
  354MOL0     H46700   5.166   6.178   1.307 -0.5699 -0.7759  1.1021
  354MOL0     H46701   5.316   6.113   1.241 -0.5933 -0.7438 -1.3763
  354MOL0     H46702   5.049   5.963   1.235  0.5770  0.5184  2.2765
  354MOL0     H46703   5.206   5.931   1.148  2.7394  2.1469  2.9138
  354MOL0     H46704   5.009   6.170   1.099  0.6420  0.7504 -0.4109
  354MOL0     H46705   5.020   6.030   1.010  1.3379 -1.7117  1.7533
  354MOL0     H46706   5.287   6.132   0.997  0.5477  0.7848  0.0133
  354MOL0     H46707   5.148   6.126   0.876  1.9302  0.5910 -0.8838
  354MOL0     H46708   5.278   6.345   0.979 -0.0412 -0.4930 -0.4508
  354MOL0     H46709   5.164   6.324   1.109 -1.1515  2.2999 -0.4830
  354MOL0     H46710   4.819   6.141   1.627 -0.2450  1.3548  0.8891
  354MOL0     H46711   4.609   6.083   1.745  1.5102  1.5529  0.4663
  354MOL0     H46712   4.310   5.573   1.878  1.7746  0.2346  1.4782
  354MOL0     H46713   4.156   5.550   2.049  1.3020 -0.4864 -0.8810
  354MOL0     H46714   3.777   7.244   2.497  1.9419  0.1808 -1.2456
  354MOL0     H46715   3.723   7.446   2.634  1.1241  3.5908  1.3749
  354MOL0     H46716   3.879   7.908   2.836 -0.8195 -2.3905 -0.9639
  354MOL0     H46717   3.792   8.070   3.015 -3.5465  0.2478  1.9781
  354MOL0     H46718   3.829   8.148   3.240 -0.7574 -3.4133 -2.2633
  354MOL0     H46719   3.730   8.174   3.382 -2.3733 -2.3851  2.0172
  354MOL0     H46720   3.595   8.128   3.134 -0.6369  0.9884  0.6186
  354MOL0     H46721   3.540   8.230   3.272 -0.7868  0.4618 -0.8997
  354MOL0     H46722   3.606   8.368   3.048  0.6574 -1.1307 -1.2134
  354MOL0     H46723   3.758   8.281   3.065 -1.1285  1.9786 -1.2251
  354MOL0     H46724   3.633   8.484   3.264  2.0923  2.0926  2.4155
  354MOL0     H46725   3.779   8.373   3.289 -0.1581  0.4215  0.0360
  354MOL0     H46726   3.916   8.672   3.008 -1.0018  1.2451  2.1693
  354MOL0     H46727   3.734   7.739   3.276  2.4701 -0.0861  0.8854
  354MOL0     H46728   3.801   7.580   3.097  1.4590  0.6751 -2.2218
  355MOL0     O46729   2.077   7.770   2.340  0.0164 -0.1061  0.1401
  355MOL0     C46730   2.127   7.663   2.358  0.5128  0.5663 -0.6275
  355MOL0     O46731   2.242   7.633   2.441 -0.2597 -0.3707  0.7208
  355MOL0     C46732   2.272   7.715   2.558  0.3255  0.1693 -0.1196
  355MOL0     C46733   2.176   7.816   2.614  0.4221  0.4278 -0.0867
  355MOL0     C46734   2.214   7.903   2.730  0.3675 -0.0332  0.0130
  355MOL0     C46735   2.341   7.877   2.787  0.4398 -0.3072  0.6849
  355MOL0     O46736   2.372   7.941   2.908  0.1729 -0.4493  0.5768
  355MOL0     C46737   2.457   7.880   3.007 -0.3073  0.8578 -0.1057
  355MOL0     C46738   2.464   7.975   3.123 -0.2927 -0.6255 -0.0237
  355MOL0     C46739   2.588   8.071   3.131  0.4115  0.0556  0.1572
  355MOL0     C46740   2.573   8.189   3.032 -0.2923  0.2113  0.7770
  355MOL0     C46741   2.721   8.247   3.015 -0.7779 -0.8532  0.3671
  355MOL0     C46742   2.721   8.342   2.896  0.0079  0.1068 -0.5007
  355MOL0     C46743   2.711   8.489   2.941  0.3346 -0.1594  0.2169
  355MOL0     C46744   2.680   8.567   2.812 -0.4075  0.6180 -0.5241
  355MOL0     N46745   2.798   8.561   2.722 -0.4021  0.8649  0.2199
  355MOL0     C46746   2.799   8.465   2.622 -0.4580  0.6714 -0.9217
  355MOL0     C46747   2.919   8.476   2.566  0.1778 -1.0372 -0.3202
  355MOL0     C46748   2.951   8.398   2.437  0.1592 -0.1872  0.1300
  355MOL0     C46749   3.088   8.331   2.441 -0.7549 -0.0252  0.4401
  355MOL0     C46750   3.078   8.213   2.530  0.1131 -0.1743  0.2925
  355MOL0     C46751   3.027   8.082   2.453 -0.4239  0.4696 -0.3104
  355MOL0     O46752   2.885   8.070   2.440  0.4729  0.6945  0.3771
  355MOL0     C46753   2.824   7.951   2.394 -0.1338  0.4408  0.3376
  355MOL0     C46754   2.686   7.937   2.384  1.1178 -0.1082  0.3053
  355MOL0     C46755   2.637   7.810   2.351 -0.1777 -0.1495  0.5870
  355MOL0     C46756   2.715   7.706   2.314 -0.3519  0.0647  1.5045
  355MOL0     C46757   2.655   7.571   2.289 -0.0458 -0.9446 -0.1203
  355MOL0     O46758   2.730   7.472   2.229  0.2544 -0.0597  0.5115
  355MOL0     C46759   2.696   7.344   2.249  0.2504  0.0596  0.1373
  355MOL0     C46760   2.568   7.296   2.205 -0.1036  0.0045 -0.5634
  355MOL0     C46761   2.541   7.155   2.202 -0.9572 -1.0473  0.5243
  355MOL0     C46762   2.644   7.058   2.251  0.0450 -0.4708  0.3273
  355MOL0     O46763   2.628   6.916   2.250 -0.3102 -0.0042 -0.2185
  355MOL0     C46764   2.495   6.870   2.210  0.6597  0.1847  0.3415
  355MOL0     C46765   2.487   6.719   2.244 -0.1169 -0.0615  0.0420
  355MOL0     C46766   2.352   6.667   2.191 -0.2545 -0.9526 -0.4749
  355MOL0     C46767   2.313   6.535   2.255 -0.3746 -0.4988  0.4009
  355MOL0     C46768   2.242   6.429   2.162 -0.2227 -0.3943 -1.3195
  355MOL0     C46769   2.102   6.472   2.116  0.3058  0.9964  0.1801
  355MOL0     C46770   2.111   6.510   1.972 -0.3206 -0.2378  0.3890
  355MOL0     C46771   2.139   6.399   1.875  0.2441  0.1309  0.4056
  355MOL0    Cl46772   2.100   6.439   1.707 -0.1982 -0.4380 -0.2987
  355MOL0     C46773   2.769   7.110   2.282 -0.3043 -0.6665  0.6127
  355MOL0     C46774   2.793   7.252   2.278 -0.5291  1.0314 -1.1026
  355MOL0     O46775   2.552   7.550   2.352 -0.1198 -0.3865  0.5866
  355MOL0     C46776   2.853   7.724   2.313  0.2192  0.4706  0.4639
  355MOL0     C46777   2.909   7.846   2.353  0.1503  0.7094  0.0868
  355MOL0     N46778   2.995   8.559   2.646 -0.0000 -0.3954 -0.1735
  355MOL0     N46779   2.922   8.617   2.739 -0.3359 -0.4171 -0.4364
  355MOL0     C46780   2.426   7.773   2.738  0.8254 -1.4078 -0.0137
  355MOL0     C46781   2.394   7.701   2.625 -0.4486  0.0812  0.7476
  355MOL0     C46782   2.088   7.555   2.257  1.2718  0.6285 -0.4928
  355MOL0     C46783   1.961   7.534   2.215 -0.1093  0.5739 -0.2724
  355MOL0     C46784   1.923   7.438   2.114 -0.4400  0.8172  0.7371
  355MOL0     C46785   2.014   7.345   2.062 -0.5102 -1.4067  1.0927
  355MOL0     O46786   1.977   7.252   1.967 -0.2180  0.0811 -0.0184
  355MOL0     C46787   2.078   7.156   1.926  0.5754 -0.6077  0.8899
  355MOL0     C46788   2.045   7.093   1.785  0.4051 -0.1401  0.0207
  355MOL0     C46789   1.931   6.986   1.789 -0.0209  0.2325 -0.0711
  355MOL0     C46790   1.784   7.035   1.809 -0.7269 -0.3332 -1.1378
  355MOL0     C46791   1.731   7.142   1.714 -0.2242 -0.0566  0.1927
  355MOL0     C46792   1.675   7.210   1.631 -0.9334  0.4094 -0.0462
  355MOL0     C46793   2.144   7.353   2.113  0.0485  0.1740  0.8097
  355MOL0     C46794   2.175   7.456   2.210 -0.0983  0.5802  0.0486
  355MOL0     H46795   2.073   7.819   2.580  0.4813 -1.1628 -0.5216
  355MOL0     H46796   2.148   7.980   2.769  0.0690 -0.0689 -0.4200
  355MOL0     H46797   2.563   7.862   2.986 -0.1095 -4.5055  3.4827
  355MOL0     H46798   2.417   7.788   3.051  1.6199 -0.0293 -0.1142
  355MOL0     H46799   2.447   7.924   3.218 -3.4928  0.6012  0.1763
  355MOL0     H46800   2.379   8.043   3.112  2.7422  3.3201 -1.5106
  355MOL0     H46801   2.676   8.007   3.120 -0.3810 -0.9955 -0.1267
  355MOL0     H46802   2.579   8.112   3.232 -2.4276 -0.4434  0.1872
  355MOL0     H46803   2.533   8.162   2.933 -0.4715  1.3188  0.5268
  355MOL0     H46804   2.504   8.261   3.077 -0.8942 -1.0942  2.0122
  355MOL0     H46805   2.797   8.171   2.999  1.8873  1.8681 -0.8679
  355MOL0     H46806   2.759   8.304   3.101  2.2142 -0.6565 -0.9659
  355MOL0     H46807   2.647   8.303   2.826 -1.4953  2.1831 -0.1829
  355MOL0     H46808   2.808   8.322   2.834 -1.2183  1.0485 -2.6210
  355MOL0     H46809   2.635   8.500   3.018  1.0132  3.1303  0.5704
  355MOL0     H46810   2.803   8.529   2.985 -0.6631  2.6452 -0.0441
  355MOL0     H46811   2.644   8.668   2.831 -2.2728  0.3632 -2.4156
  355MOL0     H46812   2.593   8.525   2.761  0.2530 -0.7234 -0.6127
  355MOL0     H46813   2.722   8.399   2.584  0.3104  0.3756 -2.0357
  355MOL0     H46814   2.962   8.473   2.359 -1.4771  1.1143  1.1034
  355MOL0     H46815   2.874   8.329   2.402 -0.8401  2.6401 -3.9360
  355MOL0     H46816   3.169   8.396   2.477  2.7070 -3.0449 -1.1501
  355MOL0     H46817   3.124   8.300   2.343 -2.8991  0.4465 -0.5409
  355MOL0     H46818   3.177   8.184   2.568 -1.1556 -1.1162  3.1766
  355MOL0     H46819   3.029   8.237   2.625 -0.1337  1.3768 -0.2097
  355MOL0     H46820   3.061   8.003   2.520  0.4944  2.0469  1.1428
  355MOL0     H46821   3.071   8.069   2.353 -0.5209  1.4018 -0.4858
  355MOL0     H46822   2.616   8.018   2.400  0.2483 -1.2888  3.1568
  355MOL0     H46823   2.529   7.804   2.347 -0.1107 -1.4499  0.2905
  355MOL0     H46824   2.497   7.368   2.164 -0.1317  0.9249  1.0487
  355MOL0     H46825   2.450   7.116   2.157 -0.1126  0.4974 -2.8585
  355MOL0     H46826   2.489   6.881   2.101  2.2313 -0.7562  0.1139
  355MOL0     H46827   2.419   6.935   2.253 -1.2078  0.8727 -3.5519
  355MOL0     H46828   2.481   6.719   2.353 -1.3233  1.1469  0.0025
  355MOL0     H46829   2.566   6.653   2.206  0.1634 -0.5133  1.3884
  355MOL0     H46830   2.346   6.649   2.083 -2.7998  1.1091 -0.8008
  355MOL0     H46831   2.263   6.731   2.198  0.1395 -0.2527 -1.5154
  355MOL0     H46832   2.397   6.483   2.301  0.1212 -1.6292 -1.6706
  355MOL0     H46833   2.244   6.566   2.334 -2.2085 -1.8880 -0.5791
  355MOL0     H46834   2.241   6.335   2.216  0.5909 -0.6736 -1.7767
  355MOL0     H46835   2.309   6.407   2.078 -0.4807 -1.3779 -1.2697
  355MOL0     H46836   2.053   6.548   2.178 -0.2639  1.6260 -1.0239
  355MOL0     H46837   2.036   6.385   2.117 -2.6021  3.0110  2.3758
  355MOL0     H46838   2.008   6.534   1.944 -1.6551 -3.3159  2.2723
  355MOL0     H46839   2.186   6.589   1.955 -0.4177 -0.1459  0.3861
  355MOL0     H46840   2.087   6.305   1.900  1.1772 -0.2609  0.9491
  355MOL0     H46841   2.246   6.379   1.881  0.2670 -0.9012 -2.1868
  355MOL0     H46842   2.846   7.045   2.322  0.0776 -0.2533  0.5633
  355MOL0     H46843   2.893   7.293   2.293 -0.0361  0.1646 -1.8954
  355MOL0     H46844   2.919   7.641   2.287  1.0952  1.2362  0.1807
  355MOL0     H46845   3.017   7.859   2.353  0.0237  1.7725  0.1253
  355MOL0     H46846   2.526   7.765   2.779  1.1880  3.2672  0.5765
  355MOL0     H46847   2.465   7.626   2.592  1.2849  1.2707  1.6445
  355MOL0     H46848   1.892   7.605   2.258  4.9202  4.9339  1.7257
  355MOL0     H46849   1.820   7.435   2.079 -0.2384 -0.7457  0.1880
  355MOL0     H46850   2.072   7.071   1.994 -2.4277 -2.4504 -1.4125
  355MOL0     H46851   2.178   7.199   1.916  1.9191 -3.4868  0.9812
  355MOL0     H46852   2.017   7.178   1.721  1.1636  0.3835  0.3666
  355MOL0     H46853   2.131   7.045   1.737  1.5405  1.9359 -0.1548
  355MOL0     H46854   1.968   6.918   1.866  0.6276 -1.0751 -1.4958
  355MOL0     H46855   1.943   6.932   1.694 -1.3200  3.5143 -2.2999
  355MOL0     H46856   1.724   6.946   1.790 -1.0896  0.2060 -2.6630
  355MOL0     H46857   1.783   7.071   1.912  3.4127 -0.7433 -0.7489
  355MOL0     H46858   1.625   7.286   1.575 -0.2215  0.0548 -1.1812
  355MOL0     H46859   2.217   7.274   2.095  0.6382 -0.1668  4.1078
  355MOL0     H46860   2.279   7.465   2.240 -0.2771  0.3583  0.7520
  356MOL0     O46861  11.377  10.061   0.229 -0.1607  0.5344  0.1124
  356MOL0     C46862  11.445  10.027   0.131 -0.2852  0.0732 -0.3968
  356MOL0     O46863  11.460  10.093   0.012  1.0308 -0.8272 -0.5207
  356MOL0     C46864  11.422  10.226   0.011  0.6223 -0.0428 -1.0748
  356MOL0     C46865  11.527  10.310   0.009 -0.7944 -0.8457 -0.5692
  356MOL0     C46866  11.512  10.446   0.014  0.2627  0.0070 -0.4084
  356MOL0     C46867  11.380  10.493   0.029 -0.0333 -0.2001 -0.2465
  356MOL0     O46868  11.379  10.632   0.051 -0.0750 -0.1548 -0.0596
  356MOL0     C46869  11.259  10.687   0.089 -0.4111 -0.9877 -0.4272
  356MOL0     C46870  11.277  10.835   0.124 -1.0460 -0.3862 -0.7340
  356MOL0     C46871  11.316  10.877   0.265  0.1607 -0.1244  0.0619
  356MOL0     C46872  11.336  11.025   0.281  0.8642  0.1410  0.2366
  356MOL0     C46873  11.412  11.057   0.404  0.0183  1.2464  0.0443
  356MOL0     C46874  11.455  11.207   0.406 -0.6746  0.5645 -0.1126
  356MOL0     C46875  11.532  11.271   0.286 -0.2357  0.7988  0.8528
  356MOL0     C46876  11.591  11.405   0.327  0.7787 -0.1687 -0.6324
  356MOL0     N46877  11.616  11.480   0.205  0.2642 -0.3793 -0.2833
  356MOL0     C46878  11.686  11.430   0.097  0.2659 -0.2622  0.7801
  356MOL0     C46879  11.673  11.532   0.001 -0.5281 -0.3558 -0.3009
  356MOL0     C46880  11.734  11.529  -0.140  0.4223 -0.5069  0.0541
  356MOL0     C46881  11.887  11.567  -0.139  0.0664 -0.4202 -0.1314
  356MOL0     C46882  11.985  11.482  -0.214 -0.5278  0.1462  0.2024
  356MOL0     C46883  11.935  11.449  -0.354  0.9281 -0.2197 -0.3574
  356MOL0     O46884  11.859  11.552  -0.422  0.9761  0.4064  0.3421
  356MOL0     C46885  11.766  11.506  -0.507 -0.2725  0.2057  0.1190
  356MOL0     C46886  11.785  11.410  -0.616 -0.7151  0.4202  0.4066
  356MOL0     C46887  11.677  11.360  -0.682 -0.0219  1.4620 -0.2612
  356MOL0     C46888  11.550  11.428  -0.678 -0.5929  0.0719 -0.5402
  356MOL0     C46889  11.439  11.373  -0.758  0.2218 -0.6504  0.0525
  356MOL0     O46890  11.459  11.246  -0.810 -0.0172 -0.3156  0.3217
  356MOL0     C46891  11.358  11.168  -0.869 -0.7208  0.2979  0.1928
  356MOL0     C46892  11.369  11.025  -0.846  0.0237 -0.4610  1.4717
  356MOL0     C46893  11.271  10.943  -0.910  0.1379  0.6947  0.2746
  356MOL0     C46894  11.171  11.004  -0.985  0.1873  0.1155 -0.4601
  356MOL0     O46895  11.076  10.928  -1.048 -0.6612  0.0025  0.0946
  356MOL0     C46896  10.944  10.983  -1.050  0.8787  0.0459  0.4505
  356MOL0     C46897  10.844  10.881  -1.109  0.0604  0.4567  0.3986
  356MOL0     C46898  10.701  10.938  -1.133  0.3983 -0.4198 -0.0685
  356MOL0     C46899  10.631  10.995  -1.005  0.7958 -0.0852 -0.1195
  356MOL0     C46900  10.486  11.030  -1.054  0.4016  0.3971  0.8348
  356MOL0     C46901  10.382  11.080  -0.953 -0.7885 -1.0505  0.0214
  356MOL0     C46902  10.246  11.073  -1.013 -0.2063  0.3427  0.4451
  356MOL0     C46903  10.132  11.114  -0.927 -0.2687 -1.2929 -0.4327
  356MOL0    Cl46904  10.114  11.012  -0.786  0.4372 -0.0206 -0.4580
  356MOL0     C46905  11.187  11.136  -1.031  0.2069  0.1174  0.2096
  356MOL0     C46906  11.283  11.224  -0.966  0.2071 -0.7970 -0.7541
  356MOL0     O46907  11.339  11.440  -0.770 -0.4869 -0.2611  0.0930
  356MOL0     C46908  11.533  11.531  -0.584 -0.3695  0.4847 -0.1478
  356MOL0     C46909  11.636  11.563  -0.499  0.3466  0.0709 -0.7282
  356MOL0     N46910  11.595  11.640   0.053 -0.6565  0.2107  1.2071
  356MOL0     N46911  11.548  11.602   0.170  0.2263  0.5340  0.8849
  356MOL0     C46912  11.270  10.412   0.025 -0.6813 -0.5509  0.9600
  356MOL0     C46913  11.284  10.273   0.022 -0.2702  0.6533 -0.9940
  356MOL0     C46914  11.538   9.908   0.158 -1.2442 -0.4985  0.3214
  356MOL0     C46915  11.546   9.848   0.285 -0.9943 -0.2188 -0.5356
  356MOL0     C46916  11.630   9.739   0.305  0.4702  0.5221 -0.2264
  356MOL0     C46917  11.694   9.673   0.206  0.2794  0.0697 -0.0845
  356MOL0     O46918  11.779   9.571   0.215  0.5597  0.0242 -0.1083
  356MOL0     C46919  11.798   9.493   0.340  0.2442  0.1222 -0.2245
  356MOL0     C46920  11.922   9.403   0.328  0.1747 -0.3481  0.7058
  356MOL0     C46921  11.958   9.331   0.463  0.3892  0.2121 -0.6090
  356MOL0     C46922  12.103   9.271   0.471  0.3887 -1.0613  0.5268
  356MOL0     C46923  12.194   9.390   0.462 -0.1078 -0.1157 -0.9280
  356MOL0     C46924  12.247   9.495   0.436 -0.0152 -0.4787 -0.1462
  356MOL0     C46925  11.686   9.739   0.077 -0.6839 -0.3183  0.3910
  356MOL0     C46926  11.611   9.856   0.054  0.6437 -0.2734 -0.2094
  356MOL0     H46927  11.624  10.265  -0.008 -2.9588 -5.1626 -3.1172
  356MOL0     H46928  11.597  10.512   0.028  1.9860 -2.4904  1.8868
  356MOL0     H46929  11.220  10.624   0.170  1.9823 -0.4217  1.2618
  356MOL0     H46930  11.184  10.679   0.010 -0.6458  1.8053 -0.5903
  356MOL0     H46931  11.180  10.883   0.108 -0.4375  0.9687 -0.5467
  356MOL0     H46932  11.354  10.871   0.055 -1.1546 -1.6887 -1.5595
  356MOL0     H46933  11.413  10.829   0.283  0.5785  0.1926 -1.2472
  356MOL0     H46934  11.247  10.839   0.341  1.1844 -3.7151 -0.6111
  356MOL0     H46935  11.397  11.061   0.198  0.4838 -1.6030 -0.8643
  356MOL0     H46936  11.241  11.074   0.258 -0.4348 -1.1076  2.5504
  356MOL0     H46937  11.503  10.998   0.393 -0.9486  0.1952 -3.7419
  356MOL0     H46938  11.350  11.034   0.492  1.0766 -0.8756  0.3027
  356MOL0     H46939  11.514  11.219   0.497 -2.8924  0.6253  1.3944
  356MOL0     H46940  11.364  11.264   0.431 -0.7605 -0.2997  1.6234
  356MOL0     H46941  11.611  11.196   0.272 -0.5587  0.4460  0.9279
  356MOL0     H46942  11.463  11.284   0.202 -2.7837  0.9005  2.8572
  356MOL0     H46943  11.682  11.400   0.389  0.2586  0.5595  0.2128
  356MOL0     H46944  11.524  11.468   0.386  1.0094 -0.6732  0.1893
  356MOL0     H46945  11.733  11.334   0.078  0.6682  0.4463 -2.3714
  356MOL0     H46946  11.675  11.590  -0.208 -0.1279 -0.4716  0.5554
  356MOL0     H46947  11.727  11.424  -0.167 -2.7182 -0.6376  1.0715
  356MOL0     H46948  11.922  11.596  -0.039 -1.4330  0.9297  0.0312
  356MOL0     H46949  11.890  11.658  -0.199 -1.8565  0.2927  0.7870
  356MOL0     H46950  12.075  11.543  -0.225 -0.2970 -0.6642 -3.4713
  356MOL0     H46951  12.005  11.396  -0.150  3.8827  3.0886  3.4706
  356MOL0     H46952  11.870  11.362  -0.350 -0.2948  0.5389 -2.3078
  356MOL0     H46953  12.016  11.423  -0.423  1.1297  0.8059 -0.5299
  356MOL0     H46954  11.882  11.369  -0.642 -0.5648  0.4627  0.8729
  356MOL0     H46955  11.696  11.282  -0.755  0.2012  2.1496 -0.9584
  356MOL0     H46956  11.445  10.974  -0.787  0.6022 -3.1369 -1.3305
  356MOL0     H46957  11.277  10.836  -0.896  1.3069  0.5573 -1.0537
  356MOL0     H46958  10.941  11.066  -1.122 -4.0922  1.9356  2.3908
  356MOL0     H46959  10.918  11.020  -0.951  1.2882  0.7272  0.3118
  356MOL0     H46960  10.833  10.795  -1.042 -1.7868 -0.2607 -0.7272
  356MOL0     H46961  10.873  10.837  -1.205 -1.0469 -1.1753  0.7715
  356MOL0     H46962  10.635  10.869  -1.186  0.0836 -0.3370  0.2186
  356MOL0     H46963  10.708  11.013  -1.212  1.4111 -2.0410 -1.6097
  356MOL0     H46964  10.640  10.916  -0.929 -0.0547 -1.7250 -1.6398
  356MOL0     H46965  10.680  11.087  -0.971  0.6193  0.8120 -2.1489
  356MOL0     H46966  10.440  10.935  -1.083  0.6643 -0.3003  2.5782
  356MOL0     H46967  10.499  11.098  -1.138 -2.7628 -1.3155 -1.2519
  356MOL0     H46968  10.399  11.185  -0.927 -0.8886 -1.1473  0.4836
  356MOL0     H46969  10.381  11.015  -0.866  3.8913  1.1917  2.0807
  356MOL0     H46970  10.254  11.138  -1.100  0.1162  0.3546  0.4833
  356MOL0     H46971  10.224  10.970  -1.044  0.7463  0.9167 -2.3908
  356MOL0     H46972  10.032  11.110  -0.971 -0.1653 -1.0300 -0.6959
  356MOL0     H46973  10.155  11.215  -0.892  0.0806 -2.0241  1.5728
  356MOL0     H46974  11.134  11.168  -1.120  0.0531 -0.6436  0.0178
  356MOL0     H46975  11.279  11.328  -0.998  0.6696 -1.4234 -2.9966
  356MOL0     H46976  11.447  11.597  -0.584 -0.1831  0.7443  1.3421
  356MOL0     H46977  11.606  11.639  -0.427  2.3050  1.7424 -1.5886
  356MOL0     H46978  11.170  10.451   0.039 -0.9880 -1.2337  0.7228
  356MOL0     H46979  11.203  10.201   0.022 -0.1943  0.5155  0.6441
  356MOL0     H46980  11.489   9.883   0.371  1.2349  0.8240  0.5781
  356MOL0     H46981  11.627   9.699   0.406 -2.2624 -0.1705 -0.4952
  356MOL0     H46982  11.718   9.418   0.344  0.9689 -0.7680 -1.8249
  356MOL0     H46983  11.803   9.549   0.434 -0.1236  0.6494 -0.5106
  356MOL0     H46984  11.918   9.341   0.239  2.1152 -0.7039  0.8141
  356MOL0     H46985  12.006   9.471   0.311 -1.3831  0.9072 -2.9214
  356MOL0     H46986  11.883   9.252   0.480  1.4171 -0.3682  1.6248
  356MOL0     H46987  11.953   9.390   0.555  2.0340 -2.9280  1.7048
  356MOL0     H46988  12.120   9.225   0.569 -0.1395 -2.0031  0.1923
  356MOL0     H46989  12.105   9.189   0.398 -0.0036 -3.0435  2.6137
  356MOL0     H46990  12.294   9.591   0.425  2.3350 -1.7321 -1.9749
  356MOL0     H46991  11.746   9.700  -0.005 -0.2680 -0.9214  0.9757
  356MOL0     H46992  11.622   9.909  -0.040  1.9369  0.2904  0.2389
  357MOL0     O46993  11.022   3.672   7.626  0.0968 -0.0458 -1.2318
  357MOL0     C46994  10.910   3.720   7.630 -0.3384 -0.0244 -0.0731
  357MOL0     O46995  10.837   3.758   7.738 -0.0765  0.0238 -0.1354
  357MOL0     C46996  10.907   3.776   7.854 -0.2410 -0.2849  0.0507
  357MOL0     C46997  11.019   3.860   7.852 -0.2256 -0.4061 -0.4966
  357MOL0     C46998  11.078   3.896   7.974  0.8415 -0.7034 -0.8076
  357MOL0     C46999  11.032   3.828   8.097  0.2877 -0.8265  0.9064
  357MOL0     O47000  11.098   3.853   8.219 -0.1343  0.1419  0.8737
  357MOL0     C47001  11.196   3.963   8.224 -0.0745  0.1753 -0.3641
  357MOL0     C47002  11.271   3.972   8.361 -0.8036 -0.8732  0.9113
  357MOL0     C47003  11.173   4.021   8.470  0.5855 -1.1988  0.1671
  357MOL0     C47004  11.234   4.021   8.601 -0.5519 -0.9104  0.4141
  357MOL0     C47005  11.307   4.145   8.631 -0.8957 -0.3235 -0.6986
  357MOL0     C47006  11.333   4.145   8.783  0.4059 -0.4935  0.6863
  357MOL0     C47007  11.373   4.284   8.837  0.9843 -0.3491  1.2751
  357MOL0     C47008  11.516   4.324   8.782 -0.5706 -0.2686  0.0998
  357MOL0     N47009  11.586   4.410   8.881  0.3397 -0.4053  0.1543
  357MOL0     C47010  11.577   4.548   8.883  0.2513  0.1661  0.0962
  357MOL0     C47011  11.670   4.585   8.966 -0.8969 -0.2380  0.5263
  357MOL0     C47012  11.702   4.739   8.989 -0.0745  0.9770  0.9234
  357MOL0     C47013  11.718   4.768   9.150 -0.3298 -0.6475  0.9265
  357MOL0     C47014  11.866   4.755   9.202 -0.3539 -0.0676 -0.7978
  357MOL0     C47015  11.904   4.621   9.254 -0.1656 -0.4805 -0.1066
  357MOL0     O47016  12.025   4.638   9.334 -0.3965 -0.2196  0.5049
  357MOL0     C47017  12.136   4.684   9.258 -0.6990  0.3559 -1.2492
  357MOL0     C47018  12.206   4.784   9.318  0.3797 -0.6055  0.4413
  357MOL0     C47019  12.315   4.848   9.257  0.8966 -0.2429 -0.0167
  357MOL0     C47020  12.350   4.814   9.129 -0.5973  0.6083  0.0496
  357MOL0     C47021  12.461   4.880   9.055  0.0898  0.0550  0.2074
  357MOL0     O47022  12.572   4.922   9.126  0.6006 -0.6680 -0.7973
  357MOL0     C47023  12.682   4.954   9.051 -0.1187 -0.0223 -0.7414
  357MOL0     C47024  12.697   5.070   8.969 -0.9521 -0.4820 -0.0259
  357MOL0     C47025  12.823   5.094   8.913 -0.5467 -0.3220 -0.0755
  357MOL0     C47026  12.934   5.004   8.931  0.0636 -0.1203 -1.2784
  357MOL0     O47027  13.049   5.029   8.871  0.0418 -0.7372  0.0656
  357MOL0     C47028  13.162   4.953   8.905  0.3336  0.1681  0.1411
  357MOL0     C47029  13.282   5.051   8.878  0.0431 -0.0492  0.0827
  357MOL0     C47030  13.284   5.171   8.971  0.2771  0.6239 -0.2182
  357MOL0     C47031  13.408   5.256   8.967  0.4013 -0.6228 -1.2984
  357MOL0     C47032  13.393   5.388   9.042  0.4831 -0.7420 -0.3959
  357MOL0     C47033  13.539   5.449   9.073 -0.4879  0.4887 -0.4311
  357MOL0     C47034  13.525   5.568   9.166  0.1504 -0.3652  0.2252
  357MOL0     C47035  13.652   5.594   9.250  0.3871 -1.3910 -0.4790
  357MOL0    Cl47036  13.680   5.468   9.351  0.2664  0.3147  0.1003
  357MOL0     C47037  12.910   4.885   9.005  0.0671  0.0161  0.2267
  357MOL0     C47038  12.781   4.859   9.063 -1.2122 -0.1709  0.9196
  357MOL0     O47039  12.453   4.881   8.932  0.3391  0.1567  0.4164
  357MOL0     C47040  12.278   4.716   9.068  0.4926  0.3076 -0.3677
  357MOL0     C47041  12.177   4.645   9.125 -0.2131 -1.6833 -0.1115
  357MOL0     N47042  11.731   4.468   9.019  0.3097 -0.9436  0.6060
  357MOL0     N47043  11.688   4.364   8.963 -0.7033  0.1676  0.7934
  357MOL0     C47044  10.924   3.747   8.088  0.0095 -0.3768  0.3898
  357MOL0     C47045  10.860   3.719   7.972 -0.2200 -0.6850  1.2783
  357MOL0     C47046  10.845   3.725   7.501 -0.8098 -0.1297  0.0431
  357MOL0     C47047  10.783   3.843   7.461 -0.5464  0.0168 -0.5913
  357MOL0     C47048  10.710   3.847   7.340 -0.6452 -0.1944  0.1407
  357MOL0     C47049  10.701   3.737   7.254  0.0602 -0.2485 -0.8330
  357MOL0     O47050  10.633   3.736   7.138  0.3547  0.1928 -0.8903
  357MOL0     C47051  10.533   3.838   7.133  0.6363  0.3680 -0.5815
  357MOL0     C47052  10.435   3.831   7.009 -0.5501  0.7347 -1.5341
  357MOL0     C47053  10.373   3.685   6.986  0.1638 -0.5376 -0.0438
  357MOL0     C47054  10.240   3.662   7.057 -0.4446 -0.0511  0.5679
  357MOL0     C47055  10.130   3.759   7.021 -0.3168 -0.4231 -0.3695
  357MOL0     C47056  10.042   3.835   6.992 -0.4686 -0.1511 -0.3213
  357MOL0     C47057  10.773   3.621   7.293  0.7236 -0.3102  0.5045
  357MOL0     C47058  10.837   3.614   7.415 -0.2473 -0.0525 -0.6798
  357MOL0     H47059  11.066   3.897   7.761  3.1299  0.8151  1.5183
  357MOL0     H47060  11.164   3.961   7.979  1.4997 -1.6346  1.5605
  357MOL0     H47061  11.150   4.061   8.214 -1.8746 -0.7084 -1.2613
  357MOL0     H47062  11.270   3.956   8.144  0.3957 -0.8013  0.1338
  357MOL0     H47063  11.352   4.046   8.356 -1.5978  0.0107  0.7731
  357MOL0     H47064  11.306   3.869   8.373  3.9613  0.4360  0.2738
  357MOL0     H47065  11.094   3.947   8.485 -0.3559 -0.2034  0.2453
  357MOL0     H47066  11.138   4.122   8.447  2.8980  0.5594  3.4185
  357MOL0     H47067  11.158   4.014   8.679  1.1899  2.1449  2.5962
  357MOL0     H47068  11.294   3.929   8.605 -0.3276 -0.7176  2.0582
  357MOL0     H47069  11.249   4.230   8.594  2.2689  1.7210 -1.3480
  357MOL0     H47070  11.404   4.134   8.581 -0.4721 -0.7633  0.2120
  357MOL0     H47071  11.407   4.067   8.802  1.7312  0.0069 -1.9597
  357MOL0     H47072  11.244   4.121   8.843  0.2011 -1.8898 -0.1248
  357MOL0     H47073  11.308   4.371   8.823  1.3023  1.0604  6.4599
  357MOL0     H47074  11.387   4.279   8.946 -2.0416 -0.3475  1.7454
  357MOL0     H47075  11.516   4.378   8.687 -0.1190 -0.0557  0.2195
  357MOL0     H47076  11.579   4.234   8.785  0.2042  0.2609  0.0091
  357MOL0     H47077  11.505   4.611   8.831 -2.1259 -2.7594 -0.4723
  357MOL0     H47078  11.621   4.795   8.943  1.0352  2.2367  0.4384
  357MOL0     H47079  11.790   4.783   8.941 -0.6178  1.2016  0.1182
  357MOL0     H47080  11.650   4.705   9.208 -1.3343  1.1016  1.7671
  357MOL0     H47081  11.699   4.875   9.165  2.0321  0.0149 -0.2770
  357MOL0     H47082  11.945   4.802   9.142  1.1766  0.7462  1.7060
  357MOL0     H47083  11.865   4.818   9.292 -0.0547  0.7868 -1.3781
  357MOL0     H47084  11.916   4.549   9.172  2.2015  2.6181 -2.7640
  357MOL0     H47085  11.828   4.589   9.325 -0.5331  4.7798  2.3724
  357MOL0     H47086  12.198   4.809   9.423  1.7222  1.7534  0.0465
  357MOL0     H47087  12.382   4.913   9.313  1.8191 -1.7172  0.6424
  357MOL0     H47088  12.619   5.141   8.943  0.1650  1.8048  2.4405
  357MOL0     H47089  12.848   5.179   8.851  0.8187  2.2713  3.6520
  357MOL0     H47090  13.169   4.869   8.834  1.9237  0.6023 -0.2539
  357MOL0     H47091  13.167   4.920   9.009  3.7959  0.0259  0.0505
  357MOL0     H47092  13.270   5.085   8.774  0.2309  0.5727  0.2574
  357MOL0     H47093  13.379   5.004   8.895  0.7638  0.8180 -1.4117
  357MOL0     H47094  13.259   5.143   9.074 -2.3290  0.6106 -0.7902
  357MOL0     H47095  13.207   5.241   8.939  0.4312  0.8425 -0.1134
  357MOL0     H47096  13.485   5.195   9.016  0.6579 -1.8704 -3.1289
  357MOL0     H47097  13.425   5.280   8.862 -4.6977 -3.0611 -2.9984
  357MOL0     H47098  13.336   5.386   9.136  1.7472  1.6269  0.5092
  357MOL0     H47099  13.342   5.463   8.980 -0.4774 -0.1104  1.0831
  357MOL0     H47100  13.585   5.490   8.983  1.3486 -3.2253 -1.4058
  357MOL0     H47101  13.605   5.373   9.115  0.9966  0.1357 -3.2009
  357MOL0     H47102  13.507   5.659   9.107  0.2194 -0.6254 -0.1980
  357MOL0     H47103  13.437   5.571   9.231  0.5618  3.4107  0.8753
  357MOL0     H47104  13.634   5.679   9.316 -1.5772 -2.2944  0.2346
  357MOL0     H47105  13.744   5.611   9.194  0.8578  0.5557  0.7947
  357MOL0     H47106  12.988   4.817   9.039  3.4725  3.3617 -0.1418
  357MOL0     H47107  12.769   4.761   9.109  4.4855 -1.3943  0.5716
  357MOL0     H47108  12.301   4.680   8.968 -0.1937  0.8175 -0.7180
  357MOL0     H47109  12.128   4.565   9.070  1.3970 -2.8384  0.0676
  357MOL0     H47110  10.898   3.703   8.183  3.1731 -0.9415  1.0997
  357MOL0     H47111  10.778   3.649   7.967  0.3368 -1.2671 -1.0445
  357MOL0     H47112  10.798   3.939   7.510  0.1124 -0.7554  0.7720
  357MOL0     H47113  10.662   3.943   7.319  2.2972  1.9607  2.4864
  357MOL0     H47114  10.583   3.934   7.118 -0.5696  0.7785 -2.1719
  357MOL0     H47115  10.478   3.822   7.226  3.0358 -1.8368  0.6083
  357MOL0     H47116  10.362   3.912   7.018  0.3720  1.5154 -0.8616
  357MOL0     H47117  10.488   3.856   6.916  1.0566 -0.9228 -1.1347
  357MOL0     H47118  10.443   3.606   7.016 -1.0965 -1.3745  0.7652
  357MOL0     H47119  10.343   3.673   6.882  0.3672  1.7646 -0.4227
  357MOL0     H47120  10.217   3.558   7.031  0.2066  0.0737 -0.5526
  357MOL0     H47121  10.271   3.654   7.162  1.4363 -0.3692  0.0186
  357MOL0     H47122   9.973   3.913   6.968  0.4143  1.0392  0.8749
  357MOL0     H47123  10.775   3.520   7.253 -1.1542 -0.2678  0.1919
  357MOL0     H47124  10.892   3.527   7.452  1.9618  2.7600  3.5517
  358MOL0     O47125   5.926   6.291   0.161  0.9661 -0.1154  0.9540
  358MOL0     C47126   5.888   6.284   0.274  0.0444  0.3228  0.4904
  358MOL0     O47127   5.890   6.383   0.373  0.2410 -0.3066 -1.0493
  358MOL0     C47128   5.927   6.511   0.340  0.6330 -0.8499 -0.2878
  358MOL0     C47129   5.978   6.577   0.442 -0.7413  0.2867 -0.8385
  358MOL0     C47130   6.044   6.701   0.415  0.4644  1.7899 -0.4512
  358MOL0     C47131   6.034   6.767   0.295  1.0745 -0.6106 -1.1049
  358MOL0     O47132   6.097   6.882   0.271  0.0918 -0.1786 -0.6612
  358MOL0     C47133   6.226   6.904   0.329  0.1470  0.0800 -0.8425
  358MOL0     C47134   6.201   7.029   0.413  0.9648  1.0373  0.3783
  358MOL0     C47135   6.304   7.038   0.519 -0.1412 -0.1134  0.6905
  358MOL0     C47136   6.267   7.155   0.619 -0.4154  0.8403  0.2777
  358MOL0     C47137   6.385   7.200   0.711 -0.2122 -0.5107 -0.6722
  358MOL0     C47138   6.508   7.268   0.648  0.5587 -0.5501 -0.6650
  358MOL0     C47139   6.585   7.356   0.752  0.2578  1.1235  0.0131
  358MOL0     C47140   6.730   7.338   0.699  0.2583  0.3481 -0.5024
  358MOL0     N47141   6.819   7.443   0.732 -0.9326  0.6900 -0.7116
  358MOL0     C47142   6.832   7.566   0.676  0.1553  0.1869  0.1618
  358MOL0     C47143   6.929   7.636   0.728  0.1413 -1.0370 -0.5172
  358MOL0     C47144   6.997   7.758   0.667  1.6011 -0.4302  1.0200
  358MOL0     C47145   7.038   7.731   0.523 -0.6162  0.8674  0.0950
  358MOL0     C47146   7.115   7.849   0.454  0.2285 -0.0577 -0.5362
  358MOL0     C47147   7.010   7.942   0.381  0.1841 -0.0215  0.5419
  358MOL0     O47148   6.957   7.871   0.262  0.7742 -0.2401  0.3579
  358MOL0     C47149   6.826   7.878   0.244  0.3997 -0.3980  0.9340
  358MOL0     C47150   6.728   7.968   0.289  0.4978 -0.6560 -0.2514
  358MOL0     C47151   6.587   7.957   0.276 -0.5059  0.1321 -0.4919
  358MOL0     C47152   6.543   7.854   0.194  0.2799  0.0970  0.2270
  358MOL0     C47153   6.403   7.823   0.168 -0.1512  0.3892 -0.5791
  358MOL0     O47154   6.317   7.865   0.263 -0.5116 -0.7235  0.3542
  358MOL0     C47155   6.180   7.849   0.251  0.2215 -0.1369 -0.1993
  358MOL0     C47156   6.122   7.722   0.227  1.3126  0.2109  0.5032
  358MOL0     C47157   5.988   7.710   0.171 -0.5473 -0.4610 -0.7098
  358MOL0     C47158   5.915   7.821   0.167  0.7922 -0.0059  0.3330
  358MOL0     O47159   5.780   7.807   0.119  0.6033 -0.1480  0.8398
  358MOL0     C47160   5.705   7.926   0.072  0.0154  0.2627  0.2874
  358MOL0     C47161   5.620   7.969   0.191 -0.2410 -0.2333 -0.6070
  358MOL0     C47162   5.525   8.087   0.155  1.0298 -0.4463  0.0459
  358MOL0     C47163   5.437   8.133   0.273 -0.4708 -0.2845 -0.9360
  358MOL0     C47164   5.346   8.252   0.239  0.4225 -0.5092  0.0794
  358MOL0     C47165   5.249   8.301   0.354 -0.8341  0.3802 -0.5518
  358MOL0     C47166   5.152   8.407   0.323 -0.0775  0.1463  0.0401
  358MOL0     C47167   5.091   8.460   0.452 -0.4144  1.4195 -0.1351
  358MOL0    Cl47168   4.941   8.551   0.440 -0.1782 -0.4431  0.1587
  358MOL0     C47169   5.963   7.943   0.197 -0.4754  0.8398  0.5030
  358MOL0     C47170   6.098   7.955   0.237  0.4810 -0.3372 -0.3303
  358MOL0     O47171   6.372   7.766   0.063 -0.4391  0.4106  0.1672
  358MOL0     C47172   6.637   7.766   0.134 -1.3811  0.3244 -0.7072
  358MOL0     C47173   6.776   7.770   0.163 -0.0930  0.0407 -0.0896
  358MOL0     N47174   6.992   7.545   0.818 -0.3611 -1.4158 -0.2938
  358MOL0     N47175   6.914   7.439   0.825 -0.9196 -0.3166  0.0776
  358MOL0     C47176   5.958   6.705   0.197  0.4978 -0.8028 -0.5064
  358MOL0     C47177   5.904   6.577   0.219 -0.5483  0.7564  0.9561
  358MOL0     C47178   5.822   6.152   0.320  0.0430 -0.6219  0.2199
  358MOL0     C47179   5.720   6.147   0.417  0.0394  0.3590 -0.5270
  358MOL0     C47180   5.670   6.023   0.455 -0.7336  0.8081 -0.1014
  358MOL0     C47181   5.706   5.900   0.397 -0.7036 -0.1325  0.1401
  358MOL0     O47182   5.642   5.783   0.438 -0.0684 -0.6719  0.5372
  358MOL0     C47183   5.653   5.652   0.388  1.1624 -1.1894 -0.7658
  358MOL0     C47184   5.768   5.588   0.450  0.9445 -0.5991 -0.2955
  358MOL0     C47185   5.755   5.432   0.437 -0.2573 -0.6023 -0.3724
  358MOL0     C47186   5.889   5.379   0.493 -0.0147  0.4569  0.4571
  358MOL0     C47187   5.901   5.232   0.518  0.2513  0.3505  0.0984
  358MOL0     C47188   5.910   5.109   0.532 -0.5427  1.2925  0.1928
  358MOL0     C47189   5.809   5.909   0.297 -0.1763 -0.2712 -0.1331
  358MOL0     C47190   5.870   6.036   0.265 -0.3240  0.0691  0.9923
  358MOL0     H47191   5.999   6.537   0.541  3.5264  0.4914 -1.4683
  358MOL0     H47192   6.106   6.727   0.500  1.5059 -0.8413 -0.3174
  358MOL0     H47193   6.306   6.920   0.257  1.3444 -3.3696 -0.4727
  358MOL0     H47194   6.260   6.818   0.388  0.4039 -2.3230 -4.2080
  358MOL0     H47195   6.106   7.019   0.466 -0.6457  0.1253 -2.4156
  358MOL0     H47196   6.188   7.122   0.357  0.0423  1.9332  2.0042
  358MOL0     H47197   6.398   7.064   0.469 -0.9447 -0.5636 -1.1025
  358MOL0     H47198   6.318   6.949   0.582  1.0576 -0.3496  0.1194
  358MOL0     H47199   6.236   7.237   0.554  2.0935  0.3401 -1.7186
  358MOL0     H47200   6.178   7.118   0.670  0.3854 -0.6065  0.7033
  358MOL0     H47201   6.416   7.114   0.771  0.3887  0.5008  0.5252
  358MOL0     H47202   6.333   7.274   0.772 -3.2837 -0.3820 -3.2113
  358MOL0     H47203   6.464   7.340   0.578 -1.5354  0.0033  1.0994
  358MOL0     H47204   6.556   7.183   0.599  1.3908 -1.5045  1.6671
  358MOL0     H47205   6.555   7.460   0.734 -2.0121  0.3683 -0.8799
  358MOL0     H47206   6.574   7.327   0.857  0.9574 -1.0741 -0.4766
  358MOL0     H47207   6.749   7.330   0.592  2.2222  0.1996 -0.1748
  358MOL0     H47208   6.758   7.238   0.733 -0.0157 -0.4437 -2.4664
  358MOL0     H47209   6.780   7.593   0.584 -1.1102 -0.1894  0.7325
  358MOL0     H47210   7.088   7.768   0.727  1.3909 -2.2126  1.7104
  358MOL0     H47211   6.934   7.848   0.668  0.2344 -1.3405  0.1592
  358MOL0     H47212   6.951   7.708   0.459  1.8512 -2.5124 -2.4275
  358MOL0     H47213   7.107   7.646   0.521  1.4569  2.4840 -0.5027
  358MOL0     H47214   7.163   7.908   0.532 -0.8191 -3.0091  2.5540
  358MOL0     H47215   7.190   7.812   0.383  1.4704 -0.4730  0.9343
  358MOL0     H47216   7.051   8.034   0.337  1.0188  1.1291  3.4432
  358MOL0     H47217   6.935   7.972   0.455 -0.2787  0.7489 -0.2175
  358MOL0     H47218   6.772   8.045   0.351  1.4597  1.6453 -3.5292
  358MOL0     H47219   6.515   8.032   0.306 -3.6723 -3.4524  1.7647
  358MOL0     H47220   6.171   7.626   0.236 -0.0312 -0.3729  2.1576
  358MOL0     H47221   5.949   7.609   0.177 -4.5522  0.9929  2.9810
  358MOL0     H47222   5.635   7.905  -0.009  0.5584  0.4235 -0.2233
  358MOL0     H47223   5.767   8.008   0.036  0.3741  0.0294  0.3711
  358MOL0     H47224   5.683   7.997   0.275  3.9570  0.7267 -3.7129
  358MOL0     H47225   5.550   7.891   0.225 -0.6566 -0.2845 -1.5143
  358MOL0     H47226   5.456   8.046   0.081 -0.2665  0.9784  0.4182
  358MOL0     H47227   5.562   8.178   0.108 -0.7024  0.3420  0.1103
  358MOL0     H47228   5.377   8.056   0.322 -1.0660  1.7239  1.7426
  358MOL0     H47229   5.499   8.172   0.354 -0.0123 -1.5610 -0.6479
  358MOL0     H47230   5.282   8.229   0.154 -3.6241 -1.0931  2.9951
  358MOL0     H47231   5.418   8.334   0.228  0.1763  0.5281  4.3797
  358MOL0     H47232   5.304   8.332   0.443 -0.9929  1.6480 -0.8851
  358MOL0     H47233   5.189   8.217   0.391  1.7784 -1.5627 -0.4245
  358MOL0     H47234   5.202   8.495   0.281 -0.8168  0.2628 -0.6267
  358MOL0     H47235   5.072   8.374   0.255 -0.1425  3.2556 -1.5710
  358MOL0     H47236   5.156   8.528   0.508  1.9397 -1.4970  0.9479
  358MOL0     H47237   5.074   8.378   0.523 -1.1110  0.8395 -0.9397
  358MOL0     H47238   5.906   8.032   0.174  2.5749  2.3958 -1.8898
  358MOL0     H47239   6.159   8.041   0.260  0.7224  0.0586 -2.2630
  358MOL0     H47240   6.616   7.677   0.076  2.2499 -0.0921 -1.5961
  358MOL0     H47241   6.847   7.700   0.119  3.1950  1.2393  2.8531
  358MOL0     H47242   5.958   6.764   0.106  0.5589  0.5363  0.3265
  358MOL0     H47243   5.857   6.532   0.132 -1.6029  1.6363  1.0609
  358MOL0     H47244   5.686   6.239   0.463 -0.7684 -1.2248  2.3059
  358MOL0     H47245   5.590   6.015   0.528  1.0598  3.4990  2.4021
  358MOL0     H47246   5.651   5.646   0.279 -0.1470 -0.5682 -0.7976
  358MOL0     H47247   5.564   5.598   0.422  0.2949  0.3880 -0.4744
  358MOL0     H47248   5.853   5.632   0.396  0.3542  0.7216 -0.1858
  358MOL0     H47249   5.773   5.626   0.552 -0.1951 -2.6482  0.5655
  358MOL0     H47250   5.743   5.413   0.329  0.7334  0.8036 -0.7509
  358MOL0     H47251   5.678   5.398   0.507  1.1096 -1.5239  0.7159
  358MOL0     H47252   5.974   5.419   0.436 -0.8945  0.2063 -1.0769
  358MOL0     H47253   5.900   5.433   0.588  2.3200  1.3651 -0.2504
  358MOL0     H47254   5.909   5.005   0.559  2.2025  1.5080  1.4868
  358MOL0     H47255   5.850   5.818   0.255 -1.3213 -0.8673 -0.0033
  358MOL0     H47256   5.953   6.041   0.195  0.7784  0.5199  2.2935
  359MOL0     O47257  10.096   8.176  10.293 -1.1563  0.3453  0.1729
  359MOL0     C47258  10.210   8.159  10.259 -0.3698 -0.2567 -0.3147
  359MOL0     O47259  10.300   8.257  10.257  0.1716 -0.0381  0.4143
  359MOL0     C47260  10.275   8.395  10.258  0.0204 -0.1911  0.0252
  359MOL0     C47261  10.325   8.478  10.356 -0.9029  0.4475 -0.0073
  359MOL0     C47262  10.312   8.615  10.340 -0.0727  1.0665 -0.2482
  359MOL0     C47263  10.257   8.668  10.221  0.5008  0.5436  1.7945
  359MOL0     O47264  10.249   8.802  10.202 -0.1126 -0.1951  0.3227
  359MOL0     C47265  10.350   8.900  10.245  1.0028  0.3972 -0.1187
  359MOL0     C47266  10.458   8.906  10.142 -0.2246 -0.4806  0.0309
  359MOL0     C47267  10.419   8.936   9.995 -0.0092 -0.0336 -0.8362
  359MOL0     C47268  10.339   9.052   9.959  0.4926 -0.0362 -0.7030
  359MOL0     C47269  10.266   9.051   9.821 -0.5604 -0.2600 -0.0838
  359MOL0     C47270  10.365   9.049   9.712  0.0726 -1.0601  0.0788
  359MOL0     C47271  10.298   9.104   9.578  0.3144 -1.3860 -0.5752
  359MOL0     C47272  10.397   9.131   9.468  0.6564  0.4810 -0.8561
  359MOL0     N47273  10.422   9.268   9.433  0.1349  0.4528 -0.6284
  359MOL0     C47274  10.326   9.346   9.381  0.3962  0.0373  0.0135
  359MOL0     C47275  10.402   9.455   9.339 -0.1519  0.4038  0.7993
  359MOL0     C47276  10.356   9.585   9.287  0.0557  0.1925 -0.3289
  359MOL0     C47277  10.207   9.590   9.291  0.3612 -0.5473  0.7114
  359MOL0     C47278  10.150   9.734   9.247 -0.1002  0.1411 -0.6250
  359MOL0     C47279  10.006   9.723   9.198 -0.2825  0.2055 -0.2131
  359MOL0     O47280   9.952   9.854   9.193 -0.2875  0.7097  0.3059
  359MOL0     C47281   9.817   9.876   9.175 -0.0097 -1.3640 -0.9461
  359MOL0     C47282   9.775  10.000   9.128 -0.2820  0.4618 -0.1049
  359MOL0     C47283   9.640  10.038   9.125 -0.0598  0.3907  0.4347
  359MOL0     C47284   9.543   9.955   9.168 -0.4610 -0.4781  0.2619
  359MOL0     C47285   9.394   9.989   9.155  0.2157 -0.2174  0.3059
  359MOL0     O47286   9.377  10.127   9.140  0.0784  0.1431 -0.0040
  359MOL0     C47287   9.257  10.182   9.101  0.0386  0.2808  0.2621
  359MOL0     C47288   9.239  10.318   9.136 -0.1863 -0.3590 -0.2816
  359MOL0     C47289   9.123  10.383   9.109  0.8214  0.1144  0.1740
  359MOL0     C47290   9.017  10.313   9.068 -0.1300 -0.2068 -0.0656
  359MOL0     O47291   8.903  10.388   9.040 -0.0267 -0.3976 -0.0751
  359MOL0     C47292   8.833  10.368   8.912 -0.4297  0.6203 -0.3377
  359MOL0     C47293   8.732  10.483   8.902 -0.7921 -0.4206  0.1999
  359MOL0     C47294   8.799  10.617   8.938 -0.3265  0.0530  0.3450
  359MOL0     C47295   8.720  10.737   8.881 -0.2424 -0.1060  0.9943
  359MOL0     C47296   8.716  10.865   8.985 -0.1180  0.0407 -0.2330
  359MOL0     C47297   8.674  10.987   8.910 -0.9410 -0.4091  0.1729
  359MOL0     C47298   8.683  11.120   8.996  0.7472 -0.1412 -0.6157
  359MOL0     C47299   8.608  11.231   8.940  0.0728  0.8089 -0.0856
  359MOL0    Cl47300   8.686  11.382   8.996 -0.0819  0.4716  0.3248
  359MOL0     C47301   9.019  10.180   9.036 -0.5321 -0.0506 -0.0109
  359MOL0     C47302   9.141  10.113   9.064  0.8823  0.3935  1.0967
  359MOL0     O47303   9.303   9.905   9.162  0.4505 -0.0378  0.8556
  359MOL0     C47304   9.578   9.834   9.225  0.1705  0.6131 -0.2063
  359MOL0     C47305   9.710   9.787   9.222 -0.0592 -0.6761  1.1060
  359MOL0     N47306  10.537   9.422   9.345 -0.3830 -0.1846 -0.7449
  359MOL0     N47307  10.552   9.310   9.410  0.6297 -0.7863 -0.0559
  359MOL0     C47308  10.195   8.586  10.125 -0.7476  0.7889  0.0757
  359MOL0     C47309  10.214   8.447  10.136  0.2933 -0.0758  0.0302
  359MOL0     C47310  10.259   8.025  10.278  0.2802  0.8546 -0.3255
  359MOL0     C47311  10.396   8.009  10.281  0.2991  0.5310  0.3157
  359MOL0     C47312  10.441   7.870  10.271 -0.6896  0.2351 -0.0196
  359MOL0     C47313  10.357   7.757  10.280 -0.6353  0.4552  0.3501
  359MOL0     O47314  10.399   7.626  10.270  0.1818 -0.6653 -0.0506
  359MOL0     C47315  10.496   7.585  10.367 -0.6142  0.2290 -0.7490
  359MOL0     C47316  10.417   7.554  10.496 -0.0248  0.5755 -1.5324
  359MOL0     C47317  10.381   7.406  10.487  0.4239 -0.6447  0.3804
  359MOL0     C47318  10.248   7.373  10.548  0.5560 -0.6125  0.7745
  359MOL0     C47319  10.131   7.419  10.471 -0.7169 -0.9179 -0.3286
  359MOL0     C47320  10.045   7.465  10.398 -0.4659  0.0059  0.4882
  359MOL0     C47321  10.219   7.781  10.296  0.6593 -0.0422  0.2904
  359MOL0     C47322  10.172   7.912  10.294 -0.2749 -0.0454 -0.7443
  359MOL0     H47323  10.375   8.437  10.443 -1.5831  0.2549  0.3033
  359MOL0     H47324  10.351   8.695  10.402 -0.4025  0.2781  1.0236
  359MOL0     H47325  10.380   8.892  10.350  0.1184  0.8186  0.1757
  359MOL0     H47326  10.299   8.996  10.236  1.3669  0.5017 -1.1702
  359MOL0     H47327  10.509   8.811  10.123  2.1559  0.5524  0.8479
  359MOL0     H47328  10.532   8.978  10.179 -0.5467 -0.2634  0.2572
  359MOL0     H47329  10.369   8.845   9.960 -1.0909 -0.5218  1.7562
  359MOL0     H47330  10.511   8.947   9.936 -0.7091  2.5244 -1.6014
  359MOL0     H47331  10.264   9.063  10.039  2.6986 -0.7650  1.6192
  359MOL0     H47332  10.407   9.138   9.964  1.3067 -0.4362 -3.4037
  359MOL0     H47333  10.211   9.145   9.826  0.9068  0.7895 -2.3642
  359MOL0     H47334  10.189   8.974   9.809  0.6939 -1.1766 -2.9865
  359MOL0     H47335  10.417   8.954   9.694 -0.8546 -1.5764  0.1001
  359MOL0     H47336  10.449   9.114   9.739 -0.4288 -0.0667 -0.6932
  359MOL0     H47337  10.230   9.020   9.559 -0.8487 -0.4732 -0.5612
  359MOL0     H47338  10.226   9.186   9.591  0.6566 -1.2034  0.1987
  359MOL0     H47339  10.354   9.093   9.375 -1.7478  0.4594  0.2119
  359MOL0     H47340  10.486   9.073   9.493 -1.0313 -2.2344 -0.7775
  359MOL0     H47341  10.219   9.327   9.375  1.1084 -4.3472 -2.0773
  359MOL0     H47342  10.397   9.590   9.186 -0.6426  1.3547 -0.5687
  359MOL0     H47343  10.399   9.658   9.356  0.5530  1.3116 -1.7687
  359MOL0     H47344  10.164   9.556   9.386 -1.4893 -1.3682 -0.3499
  359MOL0     H47345  10.171   9.517   9.217  1.4100 -2.0268  1.6198
  359MOL0     H47346  10.150   9.799   9.335 -1.6315  3.1381 -2.6738
  359MOL0     H47347  10.196   9.768   9.154 -2.0540 -1.2733 -2.1911
  359MOL0     H47348   9.952   9.655   9.265 -1.5689  1.1504 -0.2456
  359MOL0     H47349   9.997   9.680   9.098 -2.1100  1.0352 -0.4578
  359MOL0     H47350   9.853  10.068   9.097  0.2267  0.3839  0.9408
  359MOL0     H47351   9.619  10.133   9.077 -0.6702 -1.9766 -4.6533
  359MOL0     H47352   9.326  10.363   9.182  0.5355 -1.6296 -0.3604
  359MOL0     H47353   9.110  10.489   9.129 -1.6090  0.1238 -1.0166
  359MOL0     H47354   8.773  10.277   8.906 -0.1942  0.5112 -1.0925
  359MOL0     H47355   8.902  10.374   8.828 -0.2850 -2.2188 -0.5218
  359MOL0     H47356   8.640  10.473   8.961 -1.3417  1.1203 -0.3530
  359MOL0     H47357   8.698  10.489   8.799  1.0851  0.4032 -0.3960
  359MOL0     H47358   8.894  10.610   8.884 -2.1101  0.9310 -3.2627
  359MOL0     H47359   8.812  10.636   9.044  0.3069 -1.0998  0.4965
  359MOL0     H47360   8.773  10.778   8.794  0.8200  0.7751  2.0111
  359MOL0     H47361   8.617  10.711   8.855 -0.5037  0.3484  1.5476
  359MOL0     H47362   8.809  10.876   9.042  1.0245  4.9222 -2.5138
  359MOL0     H47363   8.639  10.846   9.061  1.3573 -0.8840  1.0992
  359MOL0     H47364   8.570  10.973   8.878 -0.6736 -0.5210 -0.6776
  359MOL0     H47365   8.748  11.011   8.833 -0.6720  3.1827  1.3766
  359MOL0     H47366   8.648  11.088   9.094  1.4657  0.0429 -0.2941
  359MOL0     H47367   8.789  11.146   8.999 -0.0071  3.3822  0.9394
  359MOL0     H47368   8.499  11.232   8.955  0.0760 -1.2475  0.2844
  359MOL0     H47369   8.627  11.218   8.833  0.3123  0.0866  0.0408
  359MOL0     H47370   8.921  10.143   9.006 -0.9820  1.4181 -0.4279
  359MOL0     H47371   9.121  10.007   9.051  2.5711  0.1867 -0.1107
  359MOL0     H47372   9.498   9.774   9.268 -2.8741  3.5043 -1.3935
  359MOL0     H47373   9.746   9.688   9.249  2.4134 -0.5647 -1.2582
  359MOL0     H47374  10.145   8.639  10.045 -3.1761 -0.7188  0.4928
  359MOL0     H47375  10.196   8.388  10.046  0.7947 -0.2892  0.0653
  359MOL0     H47376  10.463   8.094  10.285 -1.7287  2.1581  2.6527
  359MOL0     H47377  10.548   7.857  10.256 -0.7948  0.6588 -1.2755
  359MOL0     H47378  10.562   7.669  10.391 -1.5018  0.5078  0.8262
  359MOL0     H47379  10.550   7.496  10.333  0.5573  0.5802  0.1471
  359MOL0     H47380  10.479   7.573  10.585 -0.7494  0.6252 -1.0348
  359MOL0     H47381  10.331   7.622  10.503  1.3912  2.3901 -0.5741
  359MOL0     H47382  10.458   7.355  10.546  0.5832  0.1295  0.8630
  359MOL0     H47383  10.393   7.370  10.385  0.0382  0.0487  0.0808
  359MOL0     H47384  10.232   7.265  10.538 -1.8033 -0.2287 -0.2527
  359MOL0     H47385  10.255   7.412  10.649  1.3013 -0.1446  0.5506
  359MOL0     H47386   9.990   7.512  10.319 -0.3793  1.1713  1.1126
  359MOL0     H47387  10.140   7.709  10.314  1.3821 -0.1663  3.7964
  359MOL0     H47388  10.064   7.928  10.299 -0.1055  0.8447  0.8825
  360MOL0     O47389   6.803   2.801   5.247  0.8312 -0.5884  0.6958
  360MOL0     C47390   6.812   2.744   5.139  0.7184  0.0027 -0.5642
  360MOL0     O47391   6.916   2.743   5.053  0.8121 -0.2107  0.0670
  360MOL0     C47392   7.004   2.850   5.064  0.1743  0.0462  0.1845
  360MOL0     C47393   6.961   2.985   5.060 -0.0378  0.1183 -0.5732
  360MOL0     C47394   7.054   3.088   5.083 -0.0980  0.0294 -0.6756
  360MOL0     C47395   7.195   3.070   5.087 -0.3301  0.6957  0.3850
  360MOL0     O47396   7.277   3.175   5.113 -1.2864  0.0115 -0.2409
  360MOL0     C47397   7.247   3.295   5.042 -0.5934  0.6773  0.1097
  360MOL0     C47398   7.237   3.282   4.893 -0.9930 -0.3983  1.4217
  360MOL0     C47399   7.358   3.225   4.823  0.7288 -0.1159 -0.2295
  360MOL0     C47400   7.399   3.298   4.693  0.6852 -0.1240 -0.1894
  360MOL0     C47401   7.556   3.294   4.691  0.7691 -0.6041  0.1865
  360MOL0     C47402   7.600   3.357   4.557  0.0430 -0.2319 -1.1709
  360MOL0     C47403   7.750   3.375   4.544 -0.2399  0.0190  0.1465
  360MOL0     C47404   7.792   3.487   4.646  0.2138 -0.9060 -0.3318
  360MOL0     N47405   7.904   3.458   4.740  0.0902  0.1697  0.4690
  360MOL0     C47406   8.036   3.426   4.696 -0.4641  0.2056 -0.6124
  360MOL0     C47407   8.107   3.427   4.812  0.2875  0.1178  0.1634
  360MOL0     C47408   8.251   3.375   4.818 -0.1558  0.2413 -0.2678
  360MOL0     C47409   8.348   3.465   4.744 -0.0423 -0.0891  0.0533
  360MOL0     C47410   8.484   3.402   4.722  0.4397 -1.2088 -0.5947
  360MOL0     C47411   8.580   3.473   4.630  0.5027  0.1677  0.5055
  360MOL0     O47412   8.585   3.613   4.669 -0.0781  0.6163  0.2820
  360MOL0     C47413   8.652   3.708   4.593 -0.8321  0.0655 -0.9569
  360MOL0     C47414   8.728   3.693   4.479 -0.2681  0.2393 -0.1510
  360MOL0     C47415   8.778   3.809   4.416  0.6339  0.1316 -0.4271
  360MOL0     C47416   8.750   3.934   4.459 -0.0412 -0.0829  0.0802
  360MOL0     C47417   8.815   4.051   4.392 -0.3576  1.0054 -0.2127
  360MOL0     O47418   8.834   4.038   4.262 -0.0823 -0.4907  0.3480
  360MOL0     C47419   8.902   4.134   4.192  0.4559 -0.3098 -0.5129
  360MOL0     C47420   8.883   4.124   4.056  1.0892  0.2341  0.0332
  360MOL0     C47421   8.955   4.207   3.968  0.1168 -0.3273  0.5022
  360MOL0     C47422   9.044   4.301   4.011 -0.3131 -0.0563 -0.5014
  360MOL0     O47423   9.128   4.386   3.940 -0.2531 -0.0199  0.5054
  360MOL0     C47424   9.180   4.350   3.815  0.0399  0.7593  0.3307
  360MOL0     C47425   9.278   4.443   3.771  0.0798  0.3481  0.6961
  360MOL0     C47426   9.227   4.584   3.738 -0.2507  0.1850 -1.0618
  360MOL0     C47427   9.336   4.655   3.657 -1.3312  0.6001 -0.1897
  360MOL0     C47428   9.308   4.803   3.624  0.4707  0.0103  0.4636
  360MOL0     C47429   9.388   4.858   3.498  0.7415 -0.4918 -0.9994
  360MOL0     C47430   9.373   5.009   3.490 -0.7902 -0.4124 -0.3612
  360MOL0     C47431   9.458   5.054   3.365  0.7478 -0.2766  0.0844
  360MOL0    Cl47432   9.452   5.236   3.339  0.3313 -0.7096 -0.1790
  360MOL0     C47433   9.051   4.316   4.159  0.3526 -0.6399 -0.1062
  360MOL0     C47434   8.983   4.235   4.244 -0.1239 -0.3782  0.1001
  360MOL0     O47435   8.840   4.149   4.465 -0.8966 -0.0818  0.3669
  360MOL0     C47436   8.663   3.959   4.564 -0.9459 -0.3208 -0.0225
  360MOL0     C47437   8.623   3.846   4.634 -0.2358  1.2955 -0.9293
  360MOL0     N47438   8.031   3.468   4.924  0.6547  0.8560 -0.5894
  360MOL0     N47439   7.918   3.484   4.865  1.5560  0.5084  0.7718
  360MOL0     C47440   7.230   2.936   5.077 -0.2740 -0.2492  0.0295
  360MOL0     C47441   7.143   2.832   5.075 -0.0411 -0.1279  1.1139
  360MOL0     C47442   6.716   2.644   5.114  0.0800  0.7472  0.4753
  360MOL0     C47443   6.728   2.550   5.005  0.3319  0.0924  0.3481
  360MOL0     C47444   6.628   2.455   4.986  0.0361 -0.6730 -0.3719
  360MOL0     C47445   6.525   2.437   5.070 -0.3099 -0.1187 -0.3707
  360MOL0     O47446   6.438   2.330   5.062  0.0264  0.2394 -0.0813
  360MOL0     C47447   6.363   2.285   5.182  0.0635 -0.4899 -0.0789
  360MOL0     C47448   6.294   2.155   5.158 -0.7802  0.2710  0.2166
  360MOL0     C47449   6.381   2.032   5.158 -1.3660 -1.1391 -0.4955
  360MOL0     C47450   6.455   2.020   5.024 -0.5207 -0.1066  0.2300
  360MOL0     C47451   6.496   1.877   5.017  0.3344 -0.5122  0.1419
  360MOL0     C47452   6.537   1.767   5.007 -0.5578  0.3349  0.7705
  360MOL0     C47453   6.514   2.530   5.175  1.0685 -0.2025 -0.3685
  360MOL0     C47454   6.606   2.628   5.205  0.3438 -0.6609 -0.9577
  360MOL0     H47455   6.856   3.008   5.046 -0.0875  1.5279  1.5424
  360MOL0     H47456   7.011   3.187   5.096 -1.7548 -0.2356 -3.3058
  360MOL0     H47457   7.316   3.378   5.060 -4.0087  3.2743  2.4284
  360MOL0     H47458   7.152   3.329   5.085 -1.4759 -0.9744 -0.4286
  360MOL0     H47459   7.218   3.383   4.856 -1.7172 -1.0326 -0.0289
  360MOL0     H47460   7.147   3.234   4.852 -2.5303  2.6821  0.9352
  360MOL0     H47461   7.353   3.117   4.807  0.6955 -0.2700  0.7473
  360MOL0     H47462   7.431   3.229   4.905 -0.7479  1.2088  1.1114
  360MOL0     H47463   7.355   3.268   4.597  2.2787 -0.9593 -0.6948
  360MOL0     H47464   7.365   3.402   4.698 -2.1089 -0.5102 -4.6533
  360MOL0     H47465   7.590   3.190   4.687 -1.0555 -1.2827  1.4762
  360MOL0     H47466   7.587   3.347   4.782 -1.5744  0.7966  0.2469
  360MOL0     H47467   7.560   3.458   4.541  2.6891  1.2146  0.6252
  360MOL0     H47468   7.579   3.288   4.475  1.4074 -0.1229 -1.6339
  360MOL0     H47469   7.804   3.282   4.565 -2.2698 -1.4212 -0.5869
  360MOL0     H47470   7.771   3.403   4.441  3.3864 -0.3084  0.6769
  360MOL0     H47471   7.711   3.511   4.715  0.5141  2.0178 -0.8680
  360MOL0     H47472   7.820   3.570   4.581  1.0109 -0.4234  0.6046
  360MOL0     H47473   8.080   3.406   4.598  0.9378 -0.1632  0.0663
  360MOL0     H47474   8.266   3.269   4.796 -0.1374 -0.3238  2.2028
  360MOL0     H47475   8.270   3.382   4.926  0.0961 -0.1290 -0.2857
  360MOL0     H47476   8.352   3.553   4.808 -3.0781 -0.8205  1.4543
  360MOL0     H47477   8.306   3.506   4.652 -1.0163 -1.4098 -0.1276
  360MOL0     H47478   8.531   3.387   4.820 -1.8181  0.8118  0.9229
  360MOL0     H47479   8.460   3.307   4.674 -1.7390 -1.0723  0.0963
  360MOL0     H47480   8.557   3.450   4.525 -2.5184 -0.0265  1.1255
  360MOL0     H47481   8.680   3.431   4.639  2.7079  5.1381  2.5950
  360MOL0     H47482   8.758   3.593   4.449 -0.6608 -0.5256  1.8275
  360MOL0     H47483   8.851   3.784   4.339  0.2255  1.0689 -1.1493
  360MOL0     H47484   8.808   4.052   4.026  3.6392 -1.8972 -1.7282
  360MOL0     H47485   8.928   4.203   3.863 -2.3112  0.1819  1.0560
  360MOL0     H47486   9.092   4.371   3.753  0.2787  1.1089  0.1081
  360MOL0     H47487   9.217   4.248   3.815 -0.4145  0.5816  1.2527
  360MOL0     H47488   9.316   4.405   3.676 -1.8456 -2.7014  1.0001
  360MOL0     H47489   9.358   4.441   3.844 -1.2680 -0.2291  2.2166
  360MOL0     H47490   9.209   4.641   3.829  0.2443  0.6409 -1.2505
  360MOL0     H47491   9.129   4.589   3.688 -1.2282  1.3520  0.8675
  360MOL0     H47492   9.438   4.659   3.696 -1.6997  1.3575  0.7366
  360MOL0     H47493   9.342   4.604   3.560  1.5466 -1.6251  1.0116
  360MOL0     H47494   9.335   4.870   3.706  4.0633 -0.3855 -0.2443
  360MOL0     H47495   9.200   4.804   3.607  0.7877 -0.7326 -1.9833
  360MOL0     H47496   9.359   4.796   3.413 -0.0054 -2.9463  0.9379
  360MOL0     H47497   9.495   4.847   3.518  0.2252 -1.3706  1.5544
  360MOL0     H47498   9.271   5.045   3.474 -1.6287 -0.9495  2.9663
  360MOL0     H47499   9.410   5.059   3.580  0.2492  0.4449 -1.2313
  360MOL0     H47500   9.423   5.000   3.277 -0.1120 -2.4870  1.6703
  360MOL0     H47501   9.564   5.030   3.384  0.8619 -1.1807 -1.4992
  360MOL0     H47502   9.108   4.397   4.203 -1.0850  1.2045 -1.4497
  360MOL0     H47503   9.017   4.242   4.347 -1.0348  1.3637  0.3201
  360MOL0     H47504   8.631   4.055   4.604  2.4580  1.2155 -0.6724
  360MOL0     H47505   8.562   3.848   4.724  1.9190  0.8110  0.6047
  360MOL0     H47506   7.334   2.908   5.065  0.4822  2.3267 -0.0456
  360MOL0     H47507   7.166   2.726   5.076 -4.6215 -1.3444 -0.0114
  360MOL0     H47508   6.814   2.542   4.939  0.2629 -0.7185  0.3583
  360MOL0     H47509   6.634   2.389   4.900 -0.6847  2.0322 -2.6756
  360MOL0     H47510   6.289   2.353   5.224 -0.0191  0.3041 -1.4515
  360MOL0     H47511   6.424   2.255   5.267 -1.3144  0.8280  1.4305
  360MOL0     H47512   6.226   2.147   5.243 -0.3599 -2.4920  0.3800
  360MOL0     H47513   6.228   2.164   5.072 -0.9909  0.6338  0.4138
  360MOL0     H47514   6.326   1.940   5.177  1.4348 -2.6587  0.9341
  360MOL0     H47515   6.452   2.032   5.241 -3.2511 -0.2328  1.2034
  360MOL0     H47516   6.387   2.037   4.940  1.3969 -0.1186 -1.3931
  360MOL0     H47517   6.545   2.083   5.026 -1.9896  2.3276 -2.4182
  360MOL0     H47518   6.575   1.667   4.999 -2.4906 -0.3830  0.2270
  360MOL0     H47519   6.432   2.524   5.245  1.4897 -1.0796  0.0783
  360MOL0     H47520   6.607   2.687   5.296 -0.0047 -1.0445 -0.7005
  361MOL0     O47521  10.345   0.238   1.972 -0.4114  0.3745  0.0639
  361MOL0     C47522  10.442   0.163   1.979  0.1475  0.9008  0.4052
  361MOL0     O47523  10.517   0.142   2.089  0.2948  0.0757  0.3487
  361MOL0     C47524  10.501   0.219   2.198  0.1586 -0.5336 -1.8098
  361MOL0     C47525  10.495   0.156   2.318 -0.3141 -0.8307 -0.5707
  361MOL0     C47526  10.478   0.225   2.441 -0.0596 -0.9301  0.4704
  361MOL0     C47527  10.466   0.363   2.438  0.0091  0.5624 -0.0694
  361MOL0     O47528  10.451   0.451   2.550  0.4300 -0.2867 -0.6827
  361MOL0     C47529  10.424   0.383   2.682  0.4103 -0.0327  0.8752
  361MOL0     C47530  10.426   0.496   2.798 -0.3800 -1.1896  0.4269
  361MOL0     C47531  10.334   0.454   2.915 -0.1054 -0.4910 -0.1279
  361MOL0     C47532  10.331   0.551   3.025 -0.3282 -0.8979  0.1642
  361MOL0     C47533  10.310   0.492   3.165 -0.4733 -0.5792  1.1947
  361MOL0     C47534  10.445   0.453   3.217  0.3557  0.1527 -0.5207
  361MOL0     C47535  10.507   0.559   3.308  0.0633 -0.3992 -1.1647
  361MOL0     C47536  10.602   0.495   3.416 -0.9873 -0.6983  0.4046
  361MOL0     N47537  10.546   0.416   3.524  0.0988  0.6020 -0.1581
  361MOL0     C47538  10.484   0.468   3.637  0.2010 -0.5734 -0.2707
  361MOL0     C47539  10.425   0.361   3.701 -0.0290  0.0513  0.0193
  361MOL0     C47540  10.353   0.362   3.827 -0.7180  0.2772 -0.9168
  361MOL0     C47541  10.426   0.265   3.926  0.0002  0.7926  0.4653
  361MOL0     C47542  10.354   0.265   4.056 -0.3579 -0.5572 -0.7310
  361MOL0     C47543  10.428   0.208   4.174 -0.8851 -0.4945  0.7274
  361MOL0     O47544  10.359   0.232   4.293 -0.1686 -0.2519  0.7919
  361MOL0     C47545  10.378   0.149   4.395 -0.9570 -0.6906 -0.3527
  361MOL0     C47546  10.489   0.061   4.400 -0.5058 -0.1707 -0.2611
  361MOL0     C47547  10.515  -0.024   4.512  1.0641  0.2395 -0.3795
  361MOL0     C47548  10.421  -0.005   4.618 -0.3471  0.2923 -0.0302
  361MOL0     C47549  10.451  -0.071   4.752 -0.4832 -1.2253 -0.2255
  361MOL0     O47550  10.591  -0.090   4.782  0.1146 -0.4694 -0.2649
  361MOL0     C47551  10.628  -0.097   4.911  0.7703  0.7005 -0.9161
  361MOL0     C47552  10.614   0.007   5.007 -0.2477 -0.0460  0.2064
  361MOL0     C47553  10.660  -0.005   5.140  0.2412  0.4088 -0.1317
  361MOL0     C47554  10.738  -0.119   5.176  0.2589 -0.6467 -0.3423
  361MOL0     O47555  10.810  -0.124   5.289 -0.3726 -0.0605  0.2206
  361MOL0     C47556  10.843  -0.246   5.360  0.6243  0.2552 -0.4363
  361MOL0     C47557  10.807  -0.220   5.496  0.5375  0.9047 -0.8076
  361MOL0     C47558  10.807  -0.352   5.583  1.1482  0.0690  0.3411
  361MOL0     C47559  10.803  -0.346   5.734  0.1628  0.5909 -0.0362
  361MOL0     C47560  10.894  -0.237   5.804 -0.6898 -0.5285 -0.8792
  361MOL0     C47561  10.938  -0.259   5.953 -0.1818 -0.3090 -0.8543
  361MOL0     C47562  10.807  -0.268   6.039 -0.4139  1.2100  0.1585
  361MOL0     C47563  10.819  -0.203   6.178  0.1312 -0.4097  0.0010
  361MOL0    Cl47564  10.652  -0.193   6.261  0.4292  0.1169  0.2727
  361MOL0     C47565  10.750  -0.215   5.080 -0.3886  0.3695  0.5622
  361MOL0     C47566  10.704  -0.207   4.946  0.3404  0.6229 -0.0364
  361MOL0     O47567  10.367  -0.094   4.838 -0.1488  0.1467 -0.4701
  361MOL0     C47568  10.301   0.069   4.608  0.0395 -0.6257 -0.8592
  361MOL0     C47569  10.288   0.158   4.501 -0.0410  0.4282 -0.0491
  361MOL0     N47570  10.461   0.247   3.630  0.4596  0.2673  0.7021
  361MOL0     N47571  10.525   0.278   3.525 -0.2389  0.4391  0.6318
  361MOL0     C47572  10.492   0.433   2.321  0.1500  0.1729  0.0927
  361MOL0     C47573  10.521   0.356   2.202 -0.2728  0.0546  0.0374
  361MOL0     C47574  10.471   0.089   1.851 -0.3221  0.2059 -0.5813
  361MOL0     C47575  10.385   0.094   1.743  0.0827 -0.3116 -0.5405
  361MOL0     C47576  10.412   0.035   1.621  0.2537  0.1183  0.5004
  361MOL0     C47577  10.529  -0.039   1.605  0.1969 -0.2354  0.1040
  361MOL0     O47578  10.550  -0.087   1.481 -0.2466 -0.2191 -0.3142
  361MOL0     C47579  10.579   0.015   1.386 -0.0433 -0.1918 -0.7184
  361MOL0     C47580  10.681  -0.039   1.285 -0.4341  0.8266 -0.1813
  361MOL0     C47581  10.612  -0.151   1.205  0.0649  0.0455 -0.3815
  361MOL0     C47582  10.726  -0.233   1.137  1.2018  0.9465 -0.6928
  361MOL0     C47583  10.794  -0.329   1.227  0.6615  0.1732  0.3425
  361MOL0     C47584  10.820  -0.411   1.318 -0.7808  0.1745  0.0053
  361MOL0     C47585  10.613  -0.062   1.715 -0.3470 -0.3840 -0.0194
  361MOL0     C47586  10.584   0.001   1.837 -0.1451 -0.1330  0.0043
  361MOL0     H47587  10.498   0.047   2.323 -2.9754 -1.0126 -1.3954
  361MOL0     H47588  10.476   0.180   2.540 -0.1074  3.9037  2.9609
  361MOL0     H47589  10.501   0.308   2.707  0.3938 -0.5464 -0.5090
  361MOL0     H47590  10.330   0.330   2.668 -0.2730  1.3473  0.0155
  361MOL0     H47591  10.410   0.593   2.751  1.7105 -0.0855  1.8592
  361MOL0     H47592  10.525   0.494   2.844  0.0022 -0.5788 -0.3519
  361MOL0     H47593  10.363   0.354   2.946 -1.0955 -1.3923 -1.9519
  361MOL0     H47594  10.234   0.433   2.876  1.1790 -4.5035 -1.7219
  361MOL0     H47595  10.428   0.600   3.013 -1.0431 -0.0146 -2.7821
  361MOL0     H47596  10.259   0.629   3.001  2.1274  0.6241 -2.8807
  361MOL0     H47597  10.238   0.410   3.155  1.2998 -2.1054  0.3215
  361MOL0     H47598  10.261   0.573   3.220  3.1554  2.2928  0.5739
  361MOL0     H47599  10.509   0.429   3.132  1.7191  0.2864  0.4308
  361MOL0     H47600  10.426   0.372   3.288  2.0495  1.1192  1.1412
  361MOL0     H47601  10.559   0.643   3.262  1.3482  2.2899  4.3917
  361MOL0     H47602  10.437   0.619   3.367  1.2519  1.0339 -1.1490
  361MOL0     H47603  10.662   0.577   3.456  0.5051 -0.0313 -2.8454
  361MOL0     H47604  10.659   0.420   3.360  0.7827 -0.1982  1.4884
  361MOL0     H47605  10.481   0.572   3.668 -1.0183 -0.5455 -0.4143
  361MOL0     H47606  10.251   0.321   3.821 -1.3601  1.7615 -0.5664
  361MOL0     H47607  10.358   0.464   3.865  0.7630  0.5961 -1.9114
  361MOL0     H47608  10.532   0.284   3.945  0.4620 -2.8314  2.4775
  361MOL0     H47609  10.421   0.164   3.884  1.6862  0.4172  1.0733
  361MOL0     H47610  10.314   0.365   4.076 -2.5894 -1.2988 -1.2059
  361MOL0     H47611  10.272   0.199   4.027 -0.3582  0.5339 -3.5469
  361MOL0     H47612  10.528   0.253   4.181 -0.9648 -0.6075  4.1630
  361MOL0     H47613  10.434   0.101   4.154  0.6997 -0.2532 -0.2445
  361MOL0     H47614  10.554   0.046   4.314  1.4306  0.3335  1.0458
  361MOL0     H47615  10.606  -0.081   4.528  2.2300  1.6275 -1.7516
  361MOL0     H47616  10.566   0.097   4.970 -3.8398 -2.0730 -0.5114
  361MOL0     H47617  10.647   0.079   5.207 -2.1264 -0.2872  0.3551
  361MOL0     H47618  10.951  -0.259   5.357  0.3856 -2.1728 -0.1671
  361MOL0     H47619  10.805  -0.335   5.309  1.4823  1.4163 -3.2658
  361MOL0     H47620  10.705  -0.182   5.484  0.1772  0.1025 -0.4154
  361MOL0     H47621  10.867  -0.142   5.542 -0.2323 -0.2376  2.3519
  361MOL0     H47622  10.896  -0.410   5.557 -0.2099 -2.1419  0.3777
  361MOL0     H47623  10.722  -0.415   5.555  0.6012  1.4352 -1.2459
  361MOL0     H47624  10.701  -0.347   5.775  0.3000  0.5740  0.3029
  361MOL0     H47625  10.842  -0.444   5.762  1.5777  0.4053 -2.3510
  361MOL0     H47626  10.848  -0.138   5.793 -0.5686 -0.1513  1.4094
  361MOL0     H47627  10.992  -0.238   5.755 -0.5307 -0.8374 -0.5567
  361MOL0     H47628  11.010  -0.182   5.982  0.3984 -0.9349 -0.5973
  361MOL0     H47629  10.989  -0.355   5.968  1.7386  0.9338  1.1861
  361MOL0     H47630  10.721  -0.236   5.980 -2.0314 -0.7139  1.3635
  361MOL0     H47631  10.801  -0.376   6.053 -0.8504  1.4677  2.2578
  361MOL0     H47632  10.855  -0.101   6.166 -1.1834  0.5892  3.3784
  361MOL0     H47633  10.893  -0.269   6.226 -2.3307 -1.7683  2.1977
  361MOL0     H47634  10.806  -0.307   5.098 -1.3433 -0.8635 -2.2560
  361MOL0     H47635  10.735  -0.286   4.879  0.9814  1.9219 -1.3293
  361MOL0     H47636  10.238   0.070   4.696 -2.1789  0.4766 -2.3801
  361MOL0     H47637  10.204   0.227   4.495  1.3609  2.1901 -0.0768
  361MOL0     H47638  10.485   0.541   2.317 -1.5784  0.1582  1.7202
  361MOL0     H47639  10.568   0.393   2.111 -0.8213  2.5345  0.6911
  361MOL0     H47640  10.295   0.151   1.763 -0.2183 -1.5410  2.1165
  361MOL0     H47641  10.334   0.038   1.546 -0.4981 -0.7870  1.2189
  361MOL0     H47642  10.633   0.097   1.433  1.5867 -2.1884  1.0611
  361MOL0     H47643  10.485   0.051   1.343 -1.1309 -4.0436 -2.0673
  361MOL0     H47644  10.717   0.038   1.216 -0.2336  1.9353  1.1043
  361MOL0     H47645  10.767  -0.072   1.345 -1.2208 -0.1495  0.4530
  361MOL0     H47646  10.534  -0.119   1.136  1.1621 -1.3945 -2.4032
  361MOL0     H47647  10.558  -0.220   1.270 -0.3709  0.6057 -0.1371
  361MOL0     H47648  10.684  -0.296   1.058 -1.0642 -1.2032  2.0169
  361MOL0     H47649  10.800  -0.162   1.099  1.3564  1.0661 -0.1724
  361MOL0     H47650  10.844  -0.477   1.400  2.3378  1.1106 -0.0214
  361MOL0     H47651  10.703  -0.122   1.702  0.0294  0.0868  0.3934
  361MOL0     H47652  10.646  -0.017   1.924 -0.3938  1.0286  0.4469
  362MOL0     O47653   4.292   4.823   5.406 -0.2019 -0.7471  0.3282
  362MOL0     C47654   4.406   4.863   5.380  0.8952  0.4132 -0.5561
  362MOL0     O47655   4.456   4.911   5.259  0.2130  1.1266 -0.6589
  362MOL0     C47656   4.370   4.913   5.148 -0.7083 -0.1631 -0.9940
  362MOL0     C47657   4.270   5.001   5.144 -0.0603  0.1993  0.3662
  362MOL0     C47658   4.195   4.991   5.025 -0.5996  0.0008 -0.4686
  362MOL0     C47659   4.226   4.909   4.922 -0.5349  0.3558 -0.3800
  362MOL0     O47660   4.152   4.882   4.813  0.6413 -0.7153  0.5815
  362MOL0     C47661   4.026   4.942   4.806  0.0535 -0.1841  0.4957
  362MOL0     C47662   3.960   4.884   4.680 -0.3415 -0.7793  0.0186
  362MOL0     C47663   3.944   4.727   4.698  0.1992  0.1308  0.3113
  362MOL0     C47664   3.869   4.666   4.572 -0.2749 -0.6519  0.2656
  362MOL0     C47665   3.806   4.531   4.596 -0.3089 -0.4154 -0.8244
  362MOL0     C47666   3.892   4.419   4.651  0.1194  0.7390 -0.4818
  362MOL0     C47667   3.809   4.290   4.667 -0.8412 -0.2820 -0.5964
  362MOL0     C47668   3.907   4.168   4.662  0.8238 -0.2480  0.0351
  362MOL0     N47669   4.020   4.178   4.753  0.2265  0.0346 -0.7269
  362MOL0     C47670   4.011   4.184   4.895 -1.0335 -0.5402  0.6619
  362MOL0     C47671   4.145   4.158   4.935  0.6464 -0.2514 -0.4002
  362MOL0     C47672   4.198   4.117   5.072 -0.0351  0.4877 -0.8136
  362MOL0     C47673   4.137   3.979   5.125 -0.0966 -0.4718  0.5138
  362MOL0     C47674   4.176   3.964   5.272 -0.3675  1.0590  0.0818
  362MOL0     C47675   4.088   4.050   5.362 -0.1821 -0.1958  0.4319
  362MOL0     O47676   4.158   4.090   5.475  0.2220 -0.0768 -0.0841
  362MOL0     C47677   4.150   4.022   5.589 -0.0461 -0.3473  0.2144
  362MOL0     C47678   4.176   4.092   5.708  0.2611 -0.0782  0.3305
  362MOL0     C47679   4.172   4.028   5.834 -0.0727  0.0246  0.0787
  362MOL0     C47680   4.136   3.896   5.843 -0.9805 -0.2881 -0.1884
  362MOL0     C47681   4.122   3.827   5.981 -0.2138  0.2075  0.1619
  362MOL0     O47682   4.109   3.914   6.091  0.2247  0.2418 -0.0219
  362MOL0     C47683   4.078   3.871   6.218  1.0340  0.8187  0.7626
  362MOL0     C47684   4.108   3.964   6.310 -0.9129 -0.2051 -0.5436
  362MOL0     C47685   4.089   3.943   6.445 -0.6415 -0.1277  0.5094
  362MOL0     C47686   4.037   3.821   6.498  0.1798  0.5244  0.8138
  362MOL0     O47687   4.037   3.807   6.630 -0.0526  0.0766 -0.0409
  362MOL0     C47688   4.002   3.679   6.685 -0.1136 -0.1394 -1.0424
  362MOL0     C47689   4.047   3.662   6.843 -0.1450  0.9606  0.9907
  362MOL0     C47690   3.980   3.765   6.937 -0.8970  0.0368 -0.1949
  362MOL0     C47691   4.018   3.755   7.083 -0.3499 -0.2669  0.0595
  362MOL0     C47692   3.918   3.840   7.164  0.1470 -0.0522  0.2686
  362MOL0     C47693   3.957   3.849   7.307 -0.3625 -0.5823 -0.4927
  362MOL0     C47694   3.832   3.895   7.393  1.0676 -0.5934 -0.9563
  362MOL0     C47695   3.839   3.863   7.541 -0.7339 -0.1596 -0.5322
  362MOL0    Cl47696   3.724   3.967   7.653 -0.0755  0.2952 -0.3520
  362MOL0     C47697   3.996   3.722   6.396 -0.0680  0.3411 -0.2417
  362MOL0     C47698   4.021   3.745   6.258  0.3236 -1.5960 -0.9958
  362MOL0     O47699   4.141   3.706   5.993  0.0358  0.2459  0.0626
  362MOL0     C47700   4.111   3.825   5.728 -0.5205  0.5927  0.1112
  362MOL0     C47701   4.118   3.889   5.603  0.6563 -0.4198  0.3604
  362MOL0     N47702   4.223   4.166   4.822  0.8472 -0.1301  0.8643
  362MOL0     N47703   4.149   4.159   4.711 -0.3135 -0.4632  0.4220
  362MOL0     C47704   4.336   4.830   4.929  0.1525  1.2717 -0.1654
  362MOL0     C47705   4.412   4.836   5.046  0.2902  0.2234 -0.0665
  362MOL0     C47706   4.509   4.836   5.481 -0.4483  0.3835 -0.4318
  362MOL0     C47707   4.633   4.897   5.452 -0.1244 -0.3898  0.1258
  362MOL0     C47708   4.732   4.889   5.558  0.1307 -0.0088  0.8646
  362MOL0     C47709   4.697   4.833   5.681  0.2748  0.5792  0.1945
  362MOL0     O47710   4.801   4.836   5.775 -0.4719  0.1223  0.5677
  362MOL0     C47711   4.766   4.839   5.913 -0.9034  0.0597  0.3199
  362MOL0     C47712   4.878   4.916   5.990 -0.4620 -0.2386  0.5303
  362MOL0     C47713   4.844   4.930   6.136 -0.8073  0.4497  0.4051
  362MOL0     C47714   4.733   5.041   6.155 -1.3750  0.6563  0.2313
  362MOL0     C47715   4.613   4.980   6.203  0.4748  0.0586 -0.5029
  362MOL0     C47716   4.513   4.923   6.250  0.4757 -0.1302 -0.7200
  362MOL0     C47717   4.578   4.779   5.702 -0.0963  0.1888 -0.4354
  362MOL0     C47718   4.475   4.779   5.607 -0.3624  0.7735  0.5840
  362MOL0     H47719   4.233   5.063   5.225 -1.2992 -1.2982  0.9949
  362MOL0     H47720   4.106   5.053   5.019 -1.5775 -1.2788  0.3092
  362MOL0     H47721   4.037   5.051   4.799  0.2640  0.0423  3.2302
  362MOL0     H47722   3.973   4.921   4.900  0.9593  0.0013  1.0703
  362MOL0     H47723   4.012   4.919   4.590  0.4501 -2.0014 -0.0220
  362MOL0     H47724   3.858   4.922   4.677 -0.1119 -0.1550 -0.1276
  362MOL0     H47725   3.877   4.702   4.781  2.1377 -1.7617  1.3948
  362MOL0     H47726   4.037   4.669   4.701  0.8090  0.8430 -2.2366
  362MOL0     H47727   3.787   4.736   4.554 -0.0472  1.2406  5.1468
  362MOL0     H47728   3.935   4.661   4.484 -0.3233 -3.0202  0.3015
  362MOL0     H47729   3.763   4.498   4.502 -2.0055  0.6259 -0.4494
  362MOL0     H47730   3.735   4.534   4.679  0.3917  0.6786 -0.2315
  362MOL0     H47731   3.917   4.462   4.748 -0.4521 -0.8091  0.3786
  362MOL0     H47732   3.992   4.403   4.610  1.0411  2.4734  0.9679
  362MOL0     H47733   3.753   4.296   4.760  0.4104 -0.0800  0.1701
  362MOL0     H47734   3.747   4.286   4.577  2.2578  0.6422 -2.9723
  362MOL0     H47735   3.951   4.148   4.564  2.6952  0.4692  0.6894
  362MOL0     H47736   3.856   4.077   4.694 -0.5459  1.1349  2.0230
  362MOL0     H47737   3.919   4.191   4.952 -1.5425 -0.0833 -0.1947
  362MOL0     H47738   4.173   4.194   5.146 -2.0397  1.0448 -2.0215
  362MOL0     H47739   4.305   4.094   5.070 -0.2529 -0.7731  0.2374
  362MOL0     H47740   4.169   3.907   5.050 -0.3547  3.0289 -3.3291
  362MOL0     H47741   4.028   3.980   5.113 -0.1341  0.1280  0.8181
  362MOL0     H47742   4.162   3.859   5.299  0.4998  0.4348 -1.7139
  362MOL0     H47743   4.279   3.995   5.294 -0.9761  1.0655  3.3565
  362MOL0     H47744   4.002   3.996   5.403  0.3247  0.7809  3.0435
  362MOL0     H47745   4.064   4.143   5.310  0.0583  0.1903  0.9976
  362MOL0     H47746   4.199   4.196   5.690  1.1425 -0.4033 -0.5216
  362MOL0     H47747   4.173   4.092   5.921 -0.2895  1.2846 -0.8200
  362MOL0     H47748   4.149   4.055   6.268 -1.2222 -0.6943 -1.9532
  362MOL0     H47749   4.134   4.016   6.511  2.5239 -1.0997 -0.3649
  362MOL0     H47750   4.063   3.604   6.633  2.5995  2.3292 -1.6297
  362MOL0     H47751   3.893   3.667   6.674 -0.3913  0.3114  0.9319
  362MOL0     H47752   4.156   3.658   6.844 -0.0231  0.9243 -2.3064
  362MOL0     H47753   4.013   3.561   6.867  3.3192 -0.3521  0.9192
  362MOL0     H47754   3.872   3.751   6.936 -0.7541 -1.3986 -2.2670
  362MOL0     H47755   3.994   3.859   6.884  1.1014 -1.5196 -2.7089
  362MOL0     H47756   4.012   3.651   7.114  0.3474 -0.0826  0.8359
  362MOL0     H47757   4.122   3.783   7.101 -0.1583 -0.8251 -0.1642
  362MOL0     H47758   3.819   3.793   7.164 -1.4002  2.9872  0.2108
  362MOL0     H47759   3.903   3.934   7.109  4.5717  1.3495  1.0193
  362MOL0     H47760   4.046   3.910   7.320  0.2452 -1.2776 -1.3191
  362MOL0     H47761   3.993   3.750   7.335  2.2933  0.8525  1.6244
  362MOL0     H47762   3.830   4.004   7.383  0.9604 -0.6617 -1.7003
  362MOL0     H47763   3.739   3.857   7.349  1.8110 -1.8255 -1.5182
  362MOL0     H47764   3.941   3.893   7.566  0.1903 -1.7554 -2.1602
  362MOL0     H47765   3.829   3.754   7.549  0.1301 -0.3593 -1.7383
  362MOL0     H47766   3.956   3.628   6.432 -2.3872  1.5347  0.4799
  362MOL0     H47767   3.992   3.671   6.185  1.8160 -2.0970 -1.1098
  362MOL0     H47768   4.096   3.718   5.739  0.8012  0.2262 -1.2152
  362MOL0     H47769   4.091   3.824   5.520 -3.0875 -0.8345  1.6951
  362MOL0     H47770   4.376   4.769   4.849 -0.0031  0.6521  0.2264
  362MOL0     H47771   4.489   4.760   5.050 -0.8916 -1.1636 -2.0210
  362MOL0     H47772   4.667   4.937   5.357 -1.1950  2.7029  0.9054
  362MOL0     H47773   4.833   4.925   5.541  0.8669 -3.3603 -3.5805
  362MOL0     H47774   4.755   4.737   5.951 -0.4636  0.5553  1.8568
  362MOL0     H47775   4.669   4.889   5.927  0.1736  1.8238  2.0316
  362MOL0     H47776   4.969   4.857   5.985  0.0295  0.4965  0.6392
  362MOL0     H47777   4.912   5.009   5.944  2.1854 -1.2333  0.3375
  362MOL0     H47778   4.927   4.955   6.202 -0.5890  0.5905  0.0815
  362MOL0     H47779   4.804   4.833   6.166  0.0530 -0.9529 -2.5362
  362MOL0     H47780   4.770   5.109   6.233 -0.4107 -0.2067  0.5405
  362MOL0     H47781   4.719   5.095   6.061 -1.8476  0.2772  0.0854
  362MOL0     H47782   4.419   4.877   6.272  0.0230  0.8898 -0.4436
  362MOL0     H47783   4.562   4.738   5.801  0.9914  3.2714  1.1314
  362MOL0     H47784   4.379   4.730   5.620  1.0032 -2.3175 -0.0536
  363MOL0     O47785   1.942   9.338  11.336  0.0643 -0.5007 -0.4728
  363MOL0     C47786   1.995   9.434  11.280 -0.0865 -0.3388 -1.0813
  363MOL0     O47787   1.926   9.524  11.205  0.8641 -0.3749  0.1673
  363MOL0     C47788   1.797   9.516  11.169 -0.5107 -0.1030  0.4911
  363MOL0     C47789   1.716   9.407  11.169 -0.7447  0.6497 -0.3128
  363MOL0     C47790   1.581   9.424  11.129  0.4247  0.1126  0.1556
  363MOL0     C47791   1.537   9.550  11.084  0.0109  0.5259 -0.3952
  363MOL0     O47792   1.407   9.576  11.059  1.0239  0.7467  0.3000
  363MOL0     C47793   1.323   9.531  11.166 -0.3207  0.1435 -0.3510
  363MOL0     C47794   1.200   9.613  11.178  0.1007  0.0994  0.1295
  363MOL0     C47795   1.099   9.609  11.065 -0.0044 -0.0834  0.0174
  363MOL0     C47796   1.064   9.472  11.006  0.6181  0.0415 -0.1206
  363MOL0     C47797   0.947   9.481  10.902 -0.3336  0.9032 -0.4193
  363MOL0     C47798   0.978   9.577  10.784 -0.4015  0.3861 -0.1702
  363MOL0     C47799   0.891   9.568  10.662  0.3064 -0.7981  0.1466
  363MOL0     C47800   0.957   9.643  10.543 -0.2187  0.0202  0.1840
  363MOL0     N47801   0.868   9.646  10.415  0.3222  0.1320  0.0149
  363MOL0     C47802   0.741   9.704  10.408 -1.4751  0.0682  0.5604
  363MOL0     C47803   0.691   9.676  10.283 -0.1089  0.4654 -0.4707
  363MOL0     C47804   0.563   9.701  10.212  0.3022 -0.1703  0.5396
  363MOL0     C47805   0.450   9.754  10.309  0.5617 -0.2940 -0.1170
  363MOL0     C47806   0.313   9.769  10.243 -0.4719  0.2305 -0.4686
  363MOL0     C47807   0.242   9.891  10.264  0.7286 -0.6314 -0.0505
  363MOL0     O47808   0.214   9.904  10.404 -1.3735  0.2014  0.1636
  363MOL0     C47809   0.159  10.018  10.454 -0.0557  0.0710 -0.3318
  363MOL0     C47810   0.112  10.003  10.586 -0.9044 -0.9970 -0.4649
  363MOL0     C47811   0.025  10.100  10.646  0.5780 -0.0818  0.2443
  363MOL0     C47812  -0.015  10.209  10.570 -0.7474  0.6910 -0.0453
  363MOL0     C47813  -0.123  10.298  10.625 -0.2316 -0.8266 -0.6970
  363MOL0     O47814  -0.191  10.372  10.532  0.0784 -0.2964 -0.2514
  363MOL0     C47815  -0.290  10.456  10.586 -0.0697  0.8659 -0.5279
  363MOL0     C47816  -0.412  10.402  10.624  1.0798 -0.1552  0.7078
  363MOL0     C47817  -0.508  10.479  10.672 -0.2260  0.3960  0.1841
  363MOL0     C47818  -0.489  10.610  10.715 -0.2663  1.3345  0.7973
  363MOL0     O47819  -0.591  10.668  10.787  0.4142  0.8434 -0.4713
  363MOL0     C47820  -0.596  10.813  10.789 -0.3799 -0.1297  0.0637
  363MOL0     C47821  -0.691  10.865  10.895  1.1368 -0.1145 -0.3726
  363MOL0     C47822  -0.743  11.005  10.888  0.2806 -0.1204 -0.6667
  363MOL0     C47823  -0.791  11.049  11.028  0.3496 -0.4524  0.3443
  363MOL0     C47824  -0.851  11.186  11.013 -0.4057  0.4203 -0.4623
  363MOL0     C47825  -0.930  11.199  11.152  0.0726 -0.3153 -0.0667
  363MOL0     C47826  -1.065  11.121  11.148 -0.0180 -0.4783 -0.3124
  363MOL0     C47827  -1.137  11.150  11.281  1.2415 -0.2475 -0.0566
  363MOL0    Cl47828  -1.074  11.024  11.391  0.0342  0.4575  0.4794
  363MOL0     C47829  -0.359  10.664  10.697  0.2423 -0.1664  0.3348
  363MOL0     C47830  -0.267  10.586  10.620  0.3802 -0.5251  0.6605
  363MOL0     O47831  -0.146  10.298  10.747 -0.0387 -0.7621 -0.4842
  363MOL0     C47832   0.040  10.223  10.437 -0.3548 -0.3771  0.2464
  363MOL0     C47833   0.122  10.132  10.376  0.5711 -0.0612  1.0715
  363MOL0     N47834   0.794   9.609  10.217 -0.0042 -0.1611  0.6114
  363MOL0     N47835   0.894   9.585  10.302  0.4823 -0.5040 -0.0218
  363MOL0     C47836   1.616   9.664  11.077  0.2316 -1.0721  0.6528
  363MOL0     C47837   1.745   9.641  11.124 -0.1119 -0.2911  0.2546
  363MOL0     C47838   2.143   9.452  11.300 -0.0426 -0.7278 -0.7548
  363MOL0     C47839   2.209   9.552  11.220 -0.8147  0.2201  0.1907
  363MOL0     C47840   2.351   9.577  11.227 -0.1630  0.2262 -1.4034
  363MOL0     C47841   2.421   9.512  11.335  0.4238 -0.1964 -0.1057
  363MOL0     O47842   2.551   9.542  11.368  1.0256  0.2378  0.4154
  363MOL0     C47843   2.646   9.542  11.264 -0.4200  1.0994 -0.3315
  363MOL0     C47844   2.698   9.679  11.231  0.7196 -0.9024  0.5892
  363MOL0     C47845   2.800   9.682  11.114  0.5287  0.9710 -0.8769
  363MOL0     C47846   2.917   9.773  11.142 -0.4105  0.0119 -0.5879
  363MOL0     C47847   3.026   9.750  11.046 -0.1604 -0.5255 -0.3461
  363MOL0     C47848   3.118   9.739  10.970  0.5392 -0.9108  0.2635
  363MOL0     C47849   2.347   9.433  11.425 -0.3784 -0.2910  0.4919
  363MOL0     C47850   2.211   9.405  11.411 -0.2659  0.1369  0.4237
  363MOL0     H47851   1.748   9.306  11.190  0.3318  1.2321  1.0154
  363MOL0     H47852   1.517   9.337  11.124 -1.3513  1.3760  0.2078
  363MOL0     H47853   1.363   9.535  11.267  0.2659  1.5247 -0.6144
  363MOL0     H47854   1.305   9.426  11.142  0.2288  0.1391 -0.7588
  363MOL0     H47855   1.219   9.718  11.202 -2.1989  0.1709  1.9468
  363MOL0     H47856   1.160   9.562  11.266  0.7633  0.2883  0.5444
  363MOL0     H47857   1.143   9.675  10.989  0.9617 -0.1714  0.4830
  363MOL0     H47858   1.009   9.659  11.103 -2.0778 -2.5839 -1.3094
  363MOL0     H47859   1.156   9.438  10.958  0.5737  0.2792 -0.3759
  363MOL0     H47860   1.034   9.398  11.080 -2.4809 -0.2465 -1.4933
  363MOL0     H47861   0.860   9.516  10.957  0.3245 -1.5424  2.4407
  363MOL0     H47862   0.921   9.380  10.870 -0.6283  1.0297 -0.5850
  363MOL0     H47863   1.081   9.571  10.749 -0.4198 -1.9705 -0.0404
  363MOL0     H47864   0.969   9.677  10.825  2.3309  1.1938 -1.3165
  363MOL0     H47865   0.868   9.465  10.631 -0.3229 -0.6309  0.0347
  363MOL0     H47866   0.798   9.625  10.664 -0.2018 -1.6184  0.5520
  363MOL0     H47867   1.051   9.592  10.520 -0.9990 -2.1568  1.4604
  363MOL0     H47868   0.976   9.748  10.566  1.8319 -0.4639  0.8528
  363MOL0     H47869   0.691   9.748  10.493 -1.1005 -0.7156  1.1972
  363MOL0     H47870   0.540   9.604  10.167  1.0553 -0.1103  0.0234
  363MOL0     H47871   0.592   9.774  10.136  1.3708 -0.1716  0.9305
  363MOL0     H47872   0.489   9.846  10.354  1.0246 -0.3017 -0.4954
  363MOL0     H47873   0.431   9.688  10.394  0.2515  0.9017  0.7603
  363MOL0     H47874   0.329   9.758  10.135  0.2939 -2.0959 -0.1716
  363MOL0     H47875   0.240   9.688  10.254 -1.6881  1.3356 -0.1985
  363MOL0     H47876   0.155   9.902  10.198  0.9101  1.6254 -0.0011
  363MOL0     H47877   0.306   9.977  10.242 -3.6954  2.6347 -1.6219
  363MOL0     H47878   0.127   9.915  10.646  1.2779 -0.8267 -0.6741
  363MOL0     H47879  -0.031  10.082  10.737 -2.9160  1.3083 -1.4522
  363MOL0     H47880  -0.432  10.298  10.599 -1.8057  0.8123 -1.5519
  363MOL0     H47881  -0.611  10.447  10.689 -0.6958  0.3519 -2.3683
  363MOL0     H47882  -0.634  10.849  10.693  1.9701  1.4505 -0.3555
  363MOL0     H47883  -0.493  10.849  10.801 -0.0885 -0.0150 -2.3245
  363MOL0     H47884  -0.634  10.861  10.988  1.0581  0.5470 -0.2927
  363MOL0     H47885  -0.774  10.794  10.902 -0.8488  2.1244 -0.0260
  363MOL0     H47886  -0.823  10.993  10.814  0.3501  1.1392 -0.9675
  363MOL0     H47887  -0.665  11.068  10.844 -0.3748  0.5135 -0.9484
  363MOL0     H47888  -0.858  10.972  11.065  0.8516 -1.8712 -1.5267
  363MOL0     H47889  -0.712  11.072  11.101 -0.6226  1.9406  0.7351
  363MOL0     H47890  -0.921  11.202  10.931 -1.5443 -1.7995  0.0071
  363MOL0     H47891  -0.788  11.275  11.027 -3.7643  2.9295 -0.2106
  363MOL0     H47892  -0.957  11.302  11.178  0.3781 -0.5603  1.2766
  363MOL0     H47893  -0.886  11.158  11.243 -1.2226 -2.0320 -0.1516
  363MOL0     H47894  -1.126  11.171  11.073 -0.5633  0.4955  0.7440
  363MOL0     H47895  -1.053  11.017  11.119  1.3450 -0.2502 -0.6489
  363MOL0     H47896  -1.244  11.132  11.265  0.6760 -1.0677  3.6753
  363MOL0     H47897  -1.119  11.251  11.320 -2.4188  0.8662 -0.8154
  363MOL0     H47898  -0.325  10.758  10.739 -1.8514  0.7075  0.1751
  363MOL0     H47899  -0.180  10.650  10.610 -2.6526  4.1899  1.3253
  363MOL0     H47900   0.000  10.310  10.386  3.5002  0.3385 -1.8487
  363MOL0     H47901   0.151  10.152  10.274  0.0147 -3.9422  0.0038
  363MOL0     H47902   1.581   9.758  11.034 -1.3641 -1.7711  0.3331
  363MOL0     H47903   1.814   9.724  11.140 -0.2511  1.0260 -4.4042
  363MOL0     H47904   2.152   9.614  11.151  1.7932  3.4589  0.6880
  363MOL0     H47905   2.399   9.639  11.152 -3.0929  1.1595 -2.6631
  363MOL0     H47906   2.607   9.493  11.175  0.5933 -0.6956  0.1670
  363MOL0     H47907   2.729   9.480  11.299 -0.5629  2.6728  3.2444
  363MOL0     H47908   2.620   9.755  11.216  1.8589  0.1410 -0.2186
  363MOL0     H47909   2.748   9.719  11.319 -0.4490  0.7222  0.5551
  363MOL0     H47910   2.747   9.724  11.028  0.6460 -3.0703 -3.1758
  363MOL0     H47911   2.828   9.580  11.089  1.0392  0.5489  1.2164
  363MOL0     H47912   2.871   9.872  11.135  0.0542  0.3044  0.3192
  363MOL0     H47913   2.952   9.752  11.243  1.5690  1.3366 -0.9249
  363MOL0     H47914   3.205   9.734  10.908  0.3442 -1.6825  0.0380
  363MOL0     H47915   2.390   9.403  11.520 -0.1588 -3.2032 -0.4298
  363MOL0     H47916   2.162   9.341  11.483 -0.7572  0.3913  0.3208
  364MOL0     O47917  11.405   2.664   8.630  0.7098  0.9531 -0.2799
  364MOL0     C47918  11.426   2.756   8.709 -0.5829  0.8652 -0.8664
  364MOL0     O47919  11.474   2.882   8.688 -0.3961 -0.0582  0.7598
  364MOL0     C47920  11.551   2.903   8.580 -0.7335 -0.1549 -0.7287
  364MOL0     C47921  11.641   2.800   8.531  0.4154  0.3263 -0.4391
  364MOL0     C47922  11.700   2.798   8.406  0.5035  0.9369  0.5977
  364MOL0     C47923  11.691   2.911   8.334 -0.0544  0.2267 -0.3485
  364MOL0     O47924  11.736   2.929   8.205 -0.2515  0.0805 -0.9309
  364MOL0     C47925  11.784   2.818   8.125  0.1782 -0.4046 -1.1288
  364MOL0     C47926  11.677   2.729   8.091  1.0203  0.1526  0.2574
  364MOL0     C47927  11.564   2.806   8.021  0.1410  0.7762  0.3441
  364MOL0     C47928  11.468   2.723   7.940 -0.5272 -0.9374 -0.3292
  364MOL0     C47929  11.403   2.615   8.033  0.4249  0.4382 -0.4191
  364MOL0     C47930  11.274   2.559   7.965  0.7341 -0.6721  0.1623
  364MOL0     C47931  11.172   2.500   8.057 -0.1417 -0.6566 -0.2150
  364MOL0     C47932  11.047   2.443   7.984  0.2474  0.0331  0.1538
  364MOL0     N47933  10.946   2.551   7.934 -0.6120  0.0035  0.5122
  364MOL0     C47934  10.858   2.626   8.010  0.2218 -0.5698  0.3989
  364MOL0     C47935  10.766   2.681   7.920 -0.4629  0.3878  0.3606
  364MOL0     C47936  10.652   2.769   7.949  1.7374 -0.7182 -0.0077
  364MOL0     C47937  10.684   2.896   8.034  0.6088  0.0885  0.0377
  364MOL0     C47938  10.555   2.980   8.071 -0.3915 -0.7222  0.3393
  364MOL0     C47939  10.605   3.103   8.155  0.6076  0.3216  0.5186
  364MOL0     O47940  10.680   3.085   8.279 -0.2798 -0.3882  0.4923
  364MOL0     C47941  10.728   3.200   8.337  0.4846 -0.2868 -0.1738
  364MOL0     C47942  10.786   3.174   8.460 -0.2502  0.3210  0.3807
  364MOL0     C47943  10.844   3.285   8.517 -0.0650  0.0915 -0.1439
  364MOL0     C47944  10.834   3.412   8.466 -0.4966 -0.5162 -0.3647
  364MOL0     C47945  10.872   3.526   8.550  1.0405  0.6200  0.0979
  364MOL0     O47946  10.963   3.502   8.650  0.6235  0.4065 -0.0525
  364MOL0     C47947  11.004   3.595   8.741 -0.2366 -0.9785 -0.2585
  364MOL0     C47948  11.118   3.552   8.815  0.6563 -0.0756  0.2537
  364MOL0     C47949  11.169   3.619   8.927  0.3067  0.4799  0.4877
  364MOL0     C47950  11.110   3.732   8.972  0.8756 -1.0028 -0.3847
  364MOL0     O47951  11.151   3.808   9.079 -0.5597  0.3369  0.2962
  364MOL0     C47952  11.263   3.750   9.145  0.8769 -0.6089  0.3858
  364MOL0     C47953  11.275   3.830   9.273  0.1161  0.5727 -0.4124
  364MOL0     C47954  11.405   3.820   9.342  0.1004 -0.4286 -0.1345
  364MOL0     C47955  11.505   3.928   9.298 -0.4771  0.2660  0.2857
  364MOL0     C47956  11.451   4.074   9.307  0.0106  1.5370 -0.3358
  364MOL0     C47957  11.565   4.182   9.277  0.1810  0.7349  0.5700
  364MOL0     C47958  11.536   4.320   9.347 -0.7852 -0.2119  0.3169
  364MOL0     C47959  11.450   4.413   9.273 -0.3386  0.1715  0.0152
  364MOL0    Cl47960  11.299   4.359   9.215 -0.1320  0.2717 -0.0813
  364MOL0     C47961  10.989   3.777   8.901 -0.3616 -0.4209 -0.5082
  364MOL0     C47962  10.942   3.716   8.790 -0.5225  0.5290  0.6309
  364MOL0     O47963  10.840   3.639   8.512  0.0703  0.8405 -0.1244
  364MOL0     C47964  10.780   3.438   8.343  1.0043  0.5536  0.5368
  364MOL0     C47965  10.734   3.327   8.278  0.3536 -0.3167  0.3943
  364MOL0     N47966  10.807   2.651   7.799 -0.8945 -0.1950  0.8455
  364MOL0     N47967  10.914   2.570   7.798 -0.7429  0.5537  0.5094
  364MOL0     C47968  11.598   3.010   8.370 -0.4209  0.3682 -0.7665
  364MOL0     C47969  11.526   3.009   8.491 -0.5014  0.2068  0.5048
  364MOL0     C47970  11.386   2.734   8.847 -0.8330  0.1707 -0.8887
  364MOL0     C47971  11.346   2.842   8.934  0.0084  0.7948  0.1627
  364MOL0     C47972  11.344   2.832   9.075  0.7577  0.8845  0.0565
  364MOL0     C47973  11.379   2.708   9.131 -0.1602  0.1348  0.1246
  364MOL0     O47974  11.385   2.683   9.266 -0.6265  0.1998  0.6751
  364MOL0     C47975  11.374   2.793   9.358  0.8016  0.2992 -0.4674
  364MOL0     C47976  11.493   2.880   9.364 -0.6148 -0.4303  1.2762
  364MOL0     C47977  11.599   2.829   9.461  0.9206  0.3807 -0.9190
  364MOL0     C47978  11.667   2.708   9.401 -0.1494  0.2856  0.4802
  364MOL0     C47979  11.814   2.706   9.413 -0.5372  0.2184  1.0363
  364MOL0     C47980  11.937   2.722   9.409  0.5036 -0.0443  1.0411
  364MOL0     C47981  11.426   2.605   9.047 -0.0621  0.9624  0.5184
  364MOL0     C47982  11.428   2.617   8.904  0.2661 -0.5155  0.1969
  364MOL0     H47983  11.660   2.723   8.605  2.3605  3.4642  2.6046
  364MOL0     H47984  11.767   2.717   8.378 -0.3297  0.0325  1.1695
  364MOL0     H47985  11.869   2.776   8.180  1.8902  2.9777 -0.9183
  364MOL0     H47986  11.828   2.863   8.035 -0.7085 -1.8649 -2.3308
  364MOL0     H47987  11.640   2.676   8.180  0.5137 -2.0293 -1.1675
  364MOL0     H47988  11.722   2.650   8.030  0.4195 -1.8591  2.2531
  364MOL0     H47989  11.608   2.883   7.957 -1.5952  2.1051  0.6480
  364MOL0     H47990  11.510   2.867   8.093  1.3195  2.0001  0.2248
  364MOL0     H47991  11.394   2.794   7.903 -0.2138  0.2975  1.2789
  364MOL0     H47992  11.520   2.678   7.855 -2.1449 -0.5289 -1.5911
  364MOL0     H47993  11.372   2.653   8.131 -2.1908  1.4960 -1.5479
  364MOL0     H47994  11.473   2.531   8.038 -0.9825 -1.2034 -4.1292
  364MOL0     H47995  11.310   2.491   7.887 -2.1910 -3.4871  1.0311
  364MOL0     H47996  11.218   2.635   7.908  0.2474 -1.1404  0.0085
  364MOL0     H47997  11.214   2.413   8.108  2.2666 -0.3181 -1.4577
  364MOL0     H47998  11.142   2.572   8.133 -1.1581  0.3093 -1.4742
  364MOL0     H47999  11.002   2.371   8.053 -1.7811  0.0093 -1.1096
  364MOL0     H48000  11.071   2.390   7.890 -0.5540  1.7929 -1.0971
  364MOL0     H48001  10.857   2.629   8.119  0.3538  0.1999  0.3851
  364MOL0     H48002  10.573   2.712   7.999  1.3167 -1.0234 -1.0053
  364MOL0     H48003  10.601   2.806   7.860 -3.4023 -0.4610  2.6899
  364MOL0     H48004  10.758   2.956   7.979  0.2446 -0.6969 -1.3714
  364MOL0     H48005  10.730   2.860   8.126  2.5929 -2.4088 -1.7636
  364MOL0     H48006  10.517   3.021   7.976  1.3114  0.3036  0.0512
  364MOL0     H48007  10.477   2.918   8.116  2.3417 -3.5126  1.6117
  364MOL0     H48008  10.517   3.163   8.178 -2.2197 -2.6993 -1.4125
  364MOL0     H48009  10.667   3.161   8.087  0.9378 -1.0854 -0.4270
  364MOL0     H48010  10.784   3.081   8.515 -0.1071  1.2638  2.0381
  364MOL0     H48011  10.888   3.265   8.615  2.7751  2.3419 -0.7986
  364MOL0     H48012  11.183   3.472   8.781  2.1290  0.5711  1.4469
  364MOL0     H48013  11.258   3.578   8.972  0.1672  0.4583  0.7486
  364MOL0     H48014  11.353   3.761   9.083  2.0681  0.0725  2.1728
  364MOL0     H48015  11.255   3.643   9.166 -0.6891 -0.7422 -0.7185
  364MOL0     H48016  11.199   3.783   9.337 -0.5891  1.5280 -0.5208
  364MOL0     H48017  11.247   3.936   9.267  0.2191  1.0909  4.4173
  364MOL0     H48018  11.439   3.716   9.342 -0.3950 -0.6115  1.1257
  364MOL0     H48019  11.387   3.840   9.448  2.5289  0.9499  0.0961
  364MOL0     H48020  11.594   3.915   9.360 -0.2842  1.0818  0.1862
  364MOL0     H48021  11.540   3.906   9.196 -2.8879 -0.5323 -0.4372
  364MOL0     H48022  11.404   4.083   9.405 -2.6881  0.1954 -1.4086
  364MOL0     H48023  11.376   4.084   9.228 -0.2152 -3.2396 -1.0155
  364MOL0     H48024  11.581   4.196   9.169 -0.7802 -0.6782  0.2269
  364MOL0     H48025  11.658   4.140   9.316 -0.4575 -0.8929  0.4212
  364MOL0     H48026  11.488   4.287   9.440 -0.3584  0.5829  0.8234
  364MOL0     H48027  11.623   4.386   9.354  0.3995 -1.5250 -1.2038
  364MOL0     H48028  11.502   4.451   9.184 -1.3042 -2.1892 -1.6662
  364MOL0     H48029  11.436   4.492   9.347 -1.0855  0.7492 -0.7190
  364MOL0     H48030  10.950   3.870   8.942 -1.3672 -1.1678  0.3011
  364MOL0     H48031  10.859   3.764   8.739  0.1185  1.6223  0.5933
  364MOL0     H48032  10.773   3.535   8.295 -1.5613  0.4562  0.5591
  364MOL0     H48033  10.692   3.340   8.179 -1.3911 -0.4184  1.0765
  364MOL0     H48034  11.580   3.091   8.301  1.8574 -0.4816 -2.5139
  364MOL0     H48035  11.443   3.079   8.486 -2.0819 -1.5232 -4.8926
  364MOL0     H48036  11.307   2.934   8.893 -0.3257 -1.4186 -5.3726
  364MOL0     H48037  11.302   2.914   9.133  1.2403 -0.4732  2.4756
  364MOL0     H48038  11.352   2.755   9.459 -1.5098 -0.6406 -1.2544
  364MOL0     H48039  11.286   2.855   9.340 -0.3005 -0.6867  1.1783
  364MOL0     H48040  11.537   2.903   9.266 -0.3211 -0.0998  1.4830
  364MOL0     H48041  11.453   2.973   9.405 -4.0083 -0.6257 -1.1901
  364MOL0     H48042  11.553   2.804   9.557 -0.9883 -0.7222 -2.0553
  364MOL0     H48043  11.677   2.901   9.489 -0.4746  1.6981 -0.3013
  364MOL0     H48044  11.619   2.619   9.444 -3.4876  0.7890 -1.8359
  364MOL0     H48045  11.645   2.707   9.294 -0.1998  3.6526  0.3608
  364MOL0     H48046  12.042   2.743   9.408  0.5922  0.2600 -3.5296
  364MOL0     H48047  11.463   2.515   9.093 -2.6404 -2.5482 -3.5305
  364MOL0     H48048  11.469   2.532   8.850  2.0676 -0.1643  0.9371
  365MOL0     O48049  10.784   5.097   7.421  0.7557  0.9244 -0.0843
  365MOL0     C48050  10.760   5.217   7.424  0.4149 -0.1870 -0.3500
  365MOL0     O48051  10.742   5.293   7.314 -0.2000  0.0973 -0.8697
  365MOL0     C48052  10.731   5.235   7.187  0.0863  0.2669  0.2199
  365MOL0     C48053  10.835   5.262   7.098 -0.4484 -0.9783  0.6299
  365MOL0     C48054  10.833   5.199   6.973 -0.4654 -0.0526 -0.3452
  365MOL0     C48055  10.747   5.096   6.942  0.0273  0.3205  1.9510
  365MOL0     O48056  10.746   5.003   6.836 -0.1546 -0.0487 -0.0680
  365MOL0     C48057  10.808   5.036   6.714 -0.6242  0.3154  0.5607
  365MOL0     C48058  10.708   4.986   6.609  0.2230  0.9898  0.7203
  365MOL0     C48059  10.779   4.955   6.472  0.4724  0.3814  0.0850
  365MOL0     C48060  10.698   4.861   6.384 -1.1288 -0.1477  0.0650
  365MOL0     C48061  10.761   4.814   6.244 -0.1369 -0.8121  0.5533
  365MOL0     C48062  10.690   4.694   6.182 -0.7417  0.3767  0.0300
  365MOL0     C48063  10.554   4.742   6.117 -0.0378 -0.0491 -0.7287
  365MOL0     C48064  10.517   4.662   5.999 -0.3222  0.3399  0.3802
  365MOL0     N48065  10.446   4.739   5.892 -0.0288 -0.2564 -0.2597
  365MOL0     C48066  10.312   4.762   5.882  0.1798 -0.3374  0.2924
  365MOL0     C48067  10.310   4.846   5.781 -0.4648 -0.2288 -0.2055
  365MOL0     C48068  10.178   4.908   5.736 -1.2930 -0.4359 -0.3097
  365MOL0     C48069  10.051   4.829   5.774 -0.4938  0.1687  0.7618
  365MOL0     C48070   9.924   4.891   5.702 -0.0056 -0.1696 -0.2933
  365MOL0     C48071   9.807   4.799   5.702 -0.3962 -0.9683  0.0344
  365MOL0     O48072   9.693   4.866   5.639  0.5500 -0.1562 -0.0645
  365MOL0     C48073   9.586   4.908   5.716 -0.5107  0.5391  0.4663
  365MOL0     C48074   9.593   4.924   5.856  0.2829  0.3355 -0.2751
  365MOL0     C48075   9.474   4.955   5.922  1.6079  0.1021  0.5451
  365MOL0     C48076   9.348   4.968   5.847  0.8865 -0.2251 -1.1128
  365MOL0     C48077   9.221   4.974   5.919 -0.0913 -0.8038 -0.2526
  365MOL0     O48078   9.227   4.990   6.053 -0.2208 -0.4005  0.0281
  365MOL0     C48079   9.125   5.034   6.126 -0.2686 -0.1530 -0.1667
  365MOL0     C48080   9.032   5.134   6.087  0.6371  0.9738 -0.8009
  365MOL0     C48081   8.928   5.176   6.173  0.2366 -1.0002  0.3776
  365MOL0     C48082   8.931   5.134   6.308  0.6878  0.6698 -0.6250
  365MOL0     O48083   8.844   5.183   6.406 -0.0949 -0.5279 -0.0794
  365MOL0     C48084   8.765   5.296   6.380 -0.7203 -0.0287 -0.1319
  365MOL0     C48085   8.639   5.254   6.295  0.2249 -0.6398 -0.1699
  365MOL0     C48086   8.565   5.382   6.226  0.5373  0.5728 -0.7221
  365MOL0     C48087   8.616   5.410   6.088  0.5806 -0.7233  1.0095
  365MOL0     C48088   8.559   5.538   6.015  0.4192  0.0321  1.3377
  365MOL0     C48089   8.637   5.548   5.884 -0.0144 -0.0630 -0.6666
  365MOL0     C48090   8.584   5.665   5.800 -0.3958 -0.6608 -0.0656
  365MOL0     C48091   8.670   5.693   5.678 -0.6604 -0.3367 -1.4053
  365MOL0    Cl48092   8.695   5.571   5.556  0.5392 -0.0533 -0.4652
  365MOL0     C48093   9.019   5.031   6.341  0.3516  0.0339  0.0757
  365MOL0     C48094   9.120   4.988   6.252  0.6330  1.1525 -0.3781
  365MOL0     O48095   9.110   4.967   5.861 -0.7167  0.7662  0.0328
  365MOL0     C48096   9.346   4.953   5.712 -0.9490  0.7854 -0.4999
  365MOL0     C48097   9.465   4.920   5.647 -0.0797  0.2945 -0.0205
  365MOL0     N48098  10.435   4.872   5.724 -0.3946 -0.4014 -0.2757
  365MOL0     N48099  10.513   4.811   5.798 -0.1237 -0.3185  0.3637
  365MOL0     C48100  10.645   5.070   7.030  0.8878  0.6034  0.6910
  365MOL0     C48101  10.625   5.147   7.144  1.1964 -0.0607 -0.4650
  365MOL0     C48102  10.741   5.266   7.556 -0.0927  0.4028  1.2414
  365MOL0     C48103  10.795   5.205   7.669 -0.9687 -0.0369 -0.3520
  365MOL0     C48104  10.786   5.271   7.788 -0.5232 -0.3068 -0.2756
  365MOL0     C48105  10.733   5.398   7.809 -0.4489 -0.2848  0.4476
  365MOL0     O48106  10.709   5.453   7.933  0.0858  0.1352 -0.3194
  365MOL0     C48107  10.720   5.373   8.053 -0.8581  0.0643  0.0328
  365MOL0     C48108  10.696   5.463   8.176  0.0610  1.5330 -0.0952
  365MOL0     C48109  10.553   5.511   8.168 -0.6256  0.5067  0.3578
  365MOL0     C48110  10.449   5.418   8.230  0.4494  0.1569  0.4333
  365MOL0     C48111  10.458   5.418   8.379  0.9186 -0.8538 -0.1793
  365MOL0     C48112  10.477   5.422   8.500 -0.0298 -0.0724 -0.3116
  365MOL0     C48113  10.688   5.457   7.691  0.7460 -0.2890  0.0188
  365MOL0     C48114  10.688   5.395   7.569 -0.6198 -0.2610  0.1484
  365MOL0     H48115  10.912   5.333   7.123 -1.1148 -0.4805  1.3033
  365MOL0     H48116  10.932   5.209   6.929 -0.9588  1.6521 -1.1522
  365MOL0     H48117  10.909   4.996   6.697 -1.0180 -0.6669  0.4835
  365MOL0     H48118  10.822   5.144   6.710 -1.9749  0.4809 -0.1604
  365MOL0     H48119  10.629   5.059   6.590 -3.5743 -2.3278  2.2986
  365MOL0     H48120  10.649   4.903   6.648 -2.4412  3.1550  1.5990
  365MOL0     H48121  10.866   4.894   6.498  0.3445  0.8098  1.5800
  365MOL0     H48122  10.825   5.038   6.418  4.7397  0.6657  3.5878
  365MOL0     H48123  10.671   4.769   6.437 -1.5285  0.6531  1.2863
  365MOL0     H48124  10.600   4.904   6.361 -3.3195 -4.5770  0.0230
  365MOL0     H48125  10.866   4.788   6.263 -0.7225 -1.5757  3.1197
  365MOL0     H48126  10.765   4.888   6.163 -0.3505 -0.0946  1.1898
  365MOL0     H48127  10.684   4.610   6.251  3.4004  1.2091  1.7016
  365MOL0     H48128  10.759   4.649   6.110 -1.0903 -1.5630  0.8702
  365MOL0     H48129  10.477   4.736   6.195  0.2470 -0.4959 -0.4723
  365MOL0     H48130  10.550   4.845   6.082 -2.7475 -0.1434 -0.9044
  365MOL0     H48131  10.475   4.564   6.025 -3.6462  1.2699 -0.9717
  365MOL0     H48132  10.610   4.648   5.944 -1.7758  1.4751 -2.5906
  365MOL0     H48133  10.230   4.741   5.950  1.0807  0.3822  1.6592
  365MOL0     H48134  10.194   4.915   5.628 -1.5633 -3.3580 -0.6102
  365MOL0     H48135  10.185   5.013   5.766  1.5827 -0.8899  1.0146
  365MOL0     H48136  10.028   4.841   5.880 -2.5255 -2.1707  0.6771
  365MOL0     H48137  10.057   4.721   5.758  2.5927  0.4664 -0.8804
  365MOL0     H48138   9.900   4.982   5.757  1.7965  1.7249 -2.4261
  365MOL0     H48139   9.947   4.926   5.601  2.1554  0.5955  0.3940
  365MOL0     H48140   9.792   4.749   5.798 -2.4846 -0.2717  0.1447
  365MOL0     H48141   9.831   4.722   5.628 -0.4519  0.0752 -1.1067
  365MOL0     H48142   9.681   4.910   5.917  1.0312 -1.6512 -1.7070
  365MOL0     H48143   9.494   4.972   6.027 -0.2283  1.4471  0.7167
  365MOL0     H48144   9.026   5.172   5.985 -2.3622  0.5591 -0.8521
  365MOL0     H48145   8.850   5.245   6.139 -1.0493 -2.5101  0.1380
  365MOL0     H48146   8.837   5.360   6.329  1.0441 -1.9857 -0.1826
  365MOL0     H48147   8.728   5.350   6.469  0.4307 -0.5804  0.7009
  365MOL0     H48148   8.570   5.213   6.369 -0.4938 -0.3087 -0.6432
  365MOL0     H48149   8.638   5.182   6.214 -1.9844 -0.1243 -0.6635
  365MOL0     H48150   8.577   5.467   6.295 -0.3894 -0.0071  0.2012
  365MOL0     H48151   8.458   5.366   6.207  0.4907  0.5940 -0.4912
  365MOL0     H48152   8.713   5.444   6.124  0.1513 -1.4262  2.9910
  365MOL0     H48153   8.609   5.320   6.027  1.9723  0.8889 -1.6797
  365MOL0     H48154   8.566   5.633   6.070  2.9965  0.9368 -0.3441
  365MOL0     H48155   8.457   5.517   5.983  1.9516 -1.5873 -3.3908
  365MOL0     H48156   8.626   5.462   5.817 -5.0397  0.0564 -0.3670
  365MOL0     H48157   8.742   5.567   5.911 -0.2342 -1.3789  1.2982
  365MOL0     H48158   8.485   5.641   5.761 -0.4914  0.7104 -0.7334
  365MOL0     H48159   8.578   5.756   5.860 -2.3174  0.5896 -1.9981
  365MOL0     H48160   8.761   5.720   5.732 -2.3477  1.2668  0.8365
  365MOL0     H48161   8.638   5.786   5.631 -3.9387  0.2258  1.5600
  365MOL0     H48162   9.018   4.996   6.444  1.0278  1.1606  0.4758
  365MOL0     H48163   9.191   4.914   6.287  2.4869  3.0616  0.1255
  365MOL0     H48164   9.254   4.950   5.656 -1.7146 -0.0838  0.7449
  365MOL0     H48165   9.460   4.903   5.540 -3.6449  3.4190 -0.5710
  365MOL0     H48166  10.578   4.987   7.011  1.9539 -0.4236  1.2997
  365MOL0     H48167  10.548   5.120   7.216  3.6227 -0.3325  2.2361
  365MOL0     H48168  10.847   5.110   7.659  0.8083  0.3824  3.4785
  365MOL0     H48169  10.834   5.224   7.873  0.9983 -1.4887 -1.7137
  365MOL0     H48170  10.821   5.335   8.068  0.0222  0.3477 -4.0179
  365MOL0     H48171  10.644   5.294   8.052  0.5143 -1.3487  1.3525
  365MOL0     H48172  10.718   5.406   8.267  0.9806  1.1978 -0.5184
  365MOL0     H48173  10.770   5.543   8.178  0.5100  1.1486 -0.8440
  365MOL0     H48174  10.526   5.534   8.064 -2.3812  3.8482  1.3746
  365MOL0     H48175  10.562   5.606   8.222  2.9203 -1.4226  3.6106
  365MOL0     H48176  10.355   5.466   8.201  0.5860  1.4574  1.9796
  365MOL0     H48177  10.460   5.324   8.176  0.7892 -0.2009  1.1066
  365MOL0     H48178  10.504   5.438   8.603 -1.1347 -4.4138  0.8462
  365MOL0     H48179  10.631   5.548   7.706 -1.4503 -1.6435  0.5111
  365MOL0     H48180  10.650   5.453   7.485  0.3530 -3.0658 -2.4065
  366MOL0     O48181  10.110   9.263  11.257  0.2807  0.1258  0.4578
  366MOL0     C48182  10.058   9.253  11.142 -0.8963  0.3237  0.7789
  366MOL0     O48183  10.008   9.141  11.091 -0.2901  0.7914 -0.0376
  366MOL0     C48184  10.033   9.021  11.151  0.3504 -0.1960  0.1198
  366MOL0     C48185   9.932   8.927  11.143  0.2129 -0.1382 -0.0823
  366MOL0     C48186   9.942   8.799  11.198  0.1132 -1.0800  0.7862
  366MOL0     C48187  10.058   8.755  11.259 -0.3613 -0.8248  0.5630
  366MOL0     O48188  10.070   8.634  11.305 -0.1947  0.4326 -0.1898
  366MOL0     C48189   9.969   8.560  11.373  0.1058  0.1388  0.6643
  366MOL0     C48190  10.038   8.462  11.465 -0.1087  0.8664 -0.2196
  366MOL0     C48191   9.931   8.384  11.539  1.3850  0.7619  0.2995
  366MOL0     C48192   9.981   8.284  11.642 -0.7751 -0.0586  0.6837
  366MOL0     C48193   9.999   8.357  11.784  0.2795  0.0657  0.1224
  366MOL0     C48194  10.066   8.273  11.888 -0.6556  0.2302 -0.0358
  366MOL0     C48195  10.113   8.370  12.009  1.4923 -0.5422  0.0887
  366MOL0     C48196  10.174   8.289  12.131 -0.4476  0.0692  0.7496
  366MOL0     N48197  10.219   8.383  12.233 -0.6799  0.0414  0.3979
  366MOL0     C48198  10.156   8.448  12.326  1.0421  0.5849  0.8102
  366MOL0     C48199  10.251   8.531  12.378 -0.5605  0.6317 -0.3762
  366MOL0     C48200  10.234   8.629  12.486 -0.6452 -0.5094 -0.6025
  366MOL0     C48201  10.195   8.554  12.610 -0.6124 -0.6892  1.0838
  366MOL0     C48202  10.227   8.638  12.740  0.0207  0.1047  1.2522
  366MOL0     C48203  10.362   8.686  12.763 -0.2821  0.5959 -0.5526
  366MOL0     O48204  10.362   8.741  12.896  0.5516  0.3403  0.0395
  366MOL0     C48205  10.395   8.882  12.904  0.7175  1.1677  0.3202
  366MOL0     C48206  10.348   8.951  13.006  0.5768 -0.3898  0.3012
  366MOL0     C48207  10.369   9.085  13.020  1.0758 -1.0485 -0.6715
  366MOL0     C48208  10.442   9.152  12.927 -0.6089  0.3480 -0.4896
  366MOL0     C48209  10.451   9.308  12.931  0.8613  0.5749  0.5291
  366MOL0     O48210  10.427   9.363  13.053 -0.3245  0.3022  0.1606
  366MOL0     C48211  10.403   9.501  13.054 -0.0501 -0.2267 -1.1471
  366MOL0     C48212  10.294   9.555  13.123 -0.3340 -0.6523  0.7810
  366MOL0     C48213  10.267   9.685  13.142  0.8012  0.2254 -0.1040
  366MOL0     C48214  10.356   9.787  13.103  0.5586 -0.1176  0.9078
  366MOL0     O48215  10.319   9.920  13.107 -0.0096  0.3352 -0.7783
  366MOL0     C48216  10.406   9.999  13.191  0.1818 -0.6981  0.2413
  366MOL0     C48217  10.432   9.934  13.320  0.1758 -0.3854 -0.7349
  366MOL0     C48218  10.308   9.942  13.404 -0.6977 -0.4821 -0.2075
  366MOL0     C48219  10.339   9.890  13.543  0.2116  0.6766 -0.1041
  366MOL0     C48220  10.244   9.948  13.639 -0.2537  0.7927  0.2546
  366MOL0     C48221  10.266   9.891  13.775 -0.3575  0.5222  1.2197
  366MOL0     C48222  10.166   9.957  13.879 -0.0335  0.5183  0.1765
  366MOL0     C48223  10.207   9.906  14.014  0.1831 -0.2055 -0.8738
  366MOL0    Cl48224  10.341  10.003  14.054  0.4190  0.5784  0.3307
  366MOL0     C48225  10.469   9.743  13.033 -0.3458 -0.0932  0.0437
  366MOL0     C48226  10.487   9.603  13.011 -0.0029  0.1397 -0.3446
  366MOL0     O48227  10.479   9.370  12.830  0.5051 -0.3524 -0.6268
  366MOL0     C48228  10.504   9.083  12.827 -0.7615 -0.0250  0.5126
  366MOL0     C48229  10.486   8.947  12.820  0.0596 -0.0701 -0.8028
  366MOL0     N48230  10.372   8.511  12.311  1.1339  0.4657 -0.2670
  366MOL0     N48231  10.340   8.442  12.208  0.2518  0.6320  0.3426
  366MOL0     C48232  10.157   8.852  11.263  0.0482  0.4964  0.3485
  366MOL0     C48233  10.147   8.985  11.219  0.4984  0.0691  0.2083
  366MOL0     C48234  10.053   9.378  11.071  0.0228 -0.5914 -0.1662
  366MOL0     C48235  10.030   9.383  10.935  0.9880 -0.6798 -0.2978
  366MOL0     C48236  10.026   9.505  10.867  0.7534 -0.0722 -0.0379
  366MOL0     C48237  10.034   9.623  10.942 -0.0593  0.6308  0.5794
  366MOL0     O48238  10.001   9.738  10.887 -0.0955 -0.4347  0.6790
  366MOL0     C48239   9.860   9.774  10.897 -0.2470 -0.8546  0.7831
  366MOL0     C48240   9.852   9.927  10.861 -0.4401  0.7847  0.3158
  366MOL0     C48241   9.952  10.010  10.924 -0.5227 -0.1534 -0.2500
  366MOL0     C48242   9.909  10.152  10.930 -0.3575 -0.7576  0.4921
  366MOL0     C48243   9.775  10.186  10.986  1.0725 -0.0431 -0.0431
  366MOL0     C48244   9.660  10.219  11.015 -0.0531  0.4298 -0.1049
  366MOL0     C48245  10.072   9.615  11.076  0.7337  0.3228 -0.6142
  366MOL0     C48246  10.068   9.496  11.140 -0.1535  0.7235 -0.7695
  366MOL0     H48247   9.843   8.981  11.111  1.1404  2.9989  2.1615
  366MOL0     H48248   9.854   8.736  11.188  0.2410 -0.9650 -1.9837
  366MOL0     H48249   9.900   8.515  11.302  0.5225 -2.3418  1.7183
  366MOL0     H48250   9.903   8.620  11.437 -0.5627 -1.5062  1.5880
  366MOL0     H48251  10.095   8.520  11.538 -2.1690  2.7762  0.0077
  366MOL0     H48252  10.113   8.403  11.412  2.0540  1.7459  1.6897
  366MOL0     H48253   9.874   8.325  11.467  1.1869  2.6832 -1.2129
  366MOL0     H48254   9.866   8.455  11.590 -0.4463 -1.3882  1.1295
  366MOL0     H48255   9.896   8.215  11.651 -0.8409 -0.0218  0.3215
  366MOL0     H48256  10.076   8.245  11.605  0.0266  1.6729  0.8275
  366MOL0     H48257   9.902   8.385  11.825  1.2726  3.9275  0.2357
  366MOL0     H48258  10.060   8.448  11.776 -0.2670  0.3857 -0.4316
  366MOL0     H48259  10.149   8.213  11.850  1.7440  3.9130 -1.2672
  366MOL0     H48260   9.989   8.205  11.924 -0.5596 -2.1922 -3.8309
  366MOL0     H48261  10.176   8.450  11.968 -3.6211  4.2301  0.4521
  366MOL0     H48262  10.025   8.431  12.031 -0.0334 -2.7368  0.4170
  366MOL0     H48263  10.268   8.255  12.087 -0.7510 -0.6390  0.6305
  366MOL0     H48264  10.121   8.201  12.170 -1.9843  0.0399 -1.2950
  366MOL0     H48265  10.056   8.435  12.364  0.3792  0.9429 -0.7290
  366MOL0     H48266  10.149   8.694  12.462 -0.0270  0.1143 -1.1619
  366MOL0     H48267  10.323   8.692  12.492  0.9368 -2.7198  0.4454
  366MOL0     H48268  10.253   8.461  12.619 -0.6756 -0.7197  1.1798
  366MOL0     H48269  10.090   8.523  12.614 -0.3983 -1.3487  1.8963
  366MOL0     H48270  10.165   8.728  12.740 -2.6489 -1.6291  1.8939
  366MOL0     H48271  10.205   8.574  12.826  0.9429 -1.4974  0.3554
  366MOL0     H48272  10.388   8.754  12.682  1.7648  0.5201 -0.0207
  366MOL0     H48273  10.445   8.614  12.757 -0.8692  0.0427 -3.6842
  366MOL0     H48274  10.289   8.893  13.076  2.9749 -0.9767  1.9498
  366MOL0     H48275  10.333   9.133  13.110  0.8708 -0.4394 -1.0704
  366MOL0     H48276  10.230   9.486  13.177  1.3864 -3.5072 -0.5968
  366MOL0     H48277  10.174   9.709  13.192 -0.6390  2.6239 -3.5514
  366MOL0     H48278  10.345  10.087  13.215 -1.7383 -2.8389  4.2859
  366MOL0     H48279  10.495  10.025  13.134 -1.0200  0.5320 -1.1911
  366MOL0     H48280  10.517   9.985  13.367  0.1247  0.5888 -1.6722
  366MOL0     H48281  10.475   9.834  13.307 -2.9193 -1.6227 -2.2439
  366MOL0     H48282  10.220   9.887  13.370 -1.5790 -0.1398  1.4249
  366MOL0     H48283  10.280  10.048  13.405  0.5486 -0.0716 -2.3903
  366MOL0     H48284  10.330   9.781  13.539 -0.7069  0.7698 -1.7466
  366MOL0     H48285  10.440   9.926  13.567 -0.4869  4.0178 -1.6042
  366MOL0     H48286  10.145   9.905  13.620  0.8052 -2.7129  1.8335
  366MOL0     H48287  10.252  10.057  13.654  0.9609  1.2947 -3.2754
  366MOL0     H48288  10.368   9.913  13.808  1.4842 -1.5349 -2.4209
  366MOL0     H48289  10.261   9.782  13.772  0.9069  0.4628  0.5892
  366MOL0     H48290  10.171  10.066  13.867  5.4521  0.3861 -1.0729
  366MOL0     H48291  10.068   9.911  13.860  0.9680 -1.8365  0.4099
  366MOL0     H48292  10.231   9.799  14.025 -0.9134 -0.3977 -0.1012
  366MOL0     H48293  10.127   9.933  14.084 -0.8057 -0.5106 -1.8592
  366MOL0     H48294  10.555   9.800  12.998  0.4508 -0.2256  1.6726
  366MOL0     H48295  10.577   9.563  12.965 -0.6076 -1.2371 -0.3619
  366MOL0     H48296  10.576   9.125  12.758 -0.5660 -1.8052 -0.4415
  366MOL0     H48297  10.546   8.892  12.749 -2.7018 -0.5054 -2.9439
  366MOL0     H48298  10.237   8.802  11.317 -3.6130 -3.1410  3.0850
  366MOL0     H48299  10.237   9.045  11.219  0.1432  0.6477 -1.2636
  366MOL0     H48300  10.023   9.292  10.877 -0.1621  0.2837 -1.7381
  366MOL0     H48301   9.995   9.517  10.764  2.8107  3.7112 -0.3850
  366MOL0     H48302   9.818   9.756  10.996  1.7891 -0.3237  1.7857
  366MOL0     H48303   9.804   9.718  10.820  0.2695  2.4401 -2.2672
  366MOL0     H48304   9.865   9.935  10.752 -0.0374 -4.0514 -0.2092
  366MOL0     H48305   9.749   9.954  10.886  0.1630  2.2380  1.3847
  366MOL0     H48306  10.041  10.017  10.860  2.0138  0.0785  3.0013
  366MOL0     H48307   9.975   9.972  11.024 -5.4578 -2.3975  0.3142
  366MOL0     H48308   9.975  10.196  11.006  0.2620 -0.2628 -0.3086
  366MOL0     H48309   9.937  10.196  10.834 -0.4522  0.5841  1.0618
  366MOL0     H48310   9.561  10.237  11.051 -1.2595 -3.0374 -1.3067
  366MOL0     H48311  10.107   9.700  11.133  2.0262 -2.6370  3.5176
  366MOL0     H48312  10.097   9.495  11.245  0.9853  1.6944 -1.0448
  367MOL0     O48313   1.007   5.714   5.437 -0.0008  0.0488  0.6865
  367MOL0     C48314   1.034   5.623   5.366  0.5235 -0.6247 -0.5021
  367MOL0     O48315   0.954   5.511   5.365  0.3348  0.0093 -0.0179
  367MOL0     C48316   0.848   5.505   5.459 -1.1388  0.9355  0.2448
  367MOL0     C48317   0.721   5.487   5.408  1.0620 -0.6234 -0.4968
  367MOL0     C48318   0.613   5.475   5.492 -0.0728  0.5351 -0.3926
  367MOL0     C48319   0.636   5.465   5.630 -0.4092 -0.1355 -0.8262
  367MOL0     O48320   0.536   5.447   5.726 -0.5209 -0.6197  0.1510
  367MOL0     C48321   0.404   5.479   5.682  0.5770 -0.2602 -0.6652
  367MOL0     C48322   0.337   5.537   5.807 -0.8762 -0.3447  0.2452
  367MOL0     C48323   0.344   5.443   5.933 -0.1396  0.6321 -1.0616
  367MOL0     C48324   0.253   5.470   6.055 -0.5635  0.8388  0.4585
  367MOL0     C48325   0.296   5.386   6.172  0.0911  0.4907  0.1706
  367MOL0     C48326   0.195   5.404   6.289  0.1855 -0.7581 -0.3887
  367MOL0     C48327   0.190   5.294   6.398 -0.7223  1.1133 -0.2516
  367MOL0     C48328   0.311   5.292   6.497  0.5441  0.5681 -0.3060
  367MOL0     N48329   0.305   5.394   6.603 -1.1702  0.0048  0.5542
  367MOL0     C48330   0.354   5.376   6.731  0.1885  0.1126 -0.2133
  367MOL0     C48331   0.389   5.494   6.778 -0.7739  0.1653  0.3121
  367MOL0     C48332   0.420   5.516   6.919 -0.4232 -0.5687  0.1585
  367MOL0     C48333   0.524   5.626   6.917  0.5849  0.2746 -0.4023
  367MOL0     C48334   0.607   5.655   7.047  0.2584 -0.8904  0.2654
  367MOL0     C48335   0.713   5.763   7.037 -0.1056 -0.9764  1.2591
  367MOL0     O48336   0.790   5.783   7.156  0.2789  0.2972  0.0296
  367MOL0     C48337   0.743   5.845   7.273  0.6787 -0.0223  0.4375
  367MOL0     C48338   0.613   5.912   7.281  0.3408 -0.1001 -0.0621
  367MOL0     C48339   0.583   5.996   7.386 -0.1677  0.1230  0.6555
  367MOL0     C48340   0.664   6.006   7.500 -0.5129 -0.0516  0.3204
  367MOL0     C48341   0.616   6.084   7.616  0.0480 -0.7272 -0.4340
  367MOL0     O48342   0.723   6.112   7.707  0.5403 -0.6626 -0.3509
  367MOL0     C48343   0.696   6.183   7.823 -0.1640  0.0991  0.3865
  367MOL0     C48344   0.794   6.272   7.873  0.7226 -0.2115  0.3317
  367MOL0     C48345   0.758   6.367   7.972 -0.4024 -0.3583  0.4907
  367MOL0     C48346   0.627   6.374   8.023 -0.0902  1.3750 -0.5391
  367MOL0     O48347   0.568   6.470   8.106  0.4269  1.0407  1.0763
  367MOL0     C48348   0.636   6.588   8.132 -0.3479 -0.2640  0.3696
  367MOL0     C48349   0.726   6.589   8.255  0.5661  0.0824  0.4742
  367MOL0     C48350   0.782   6.728   8.289 -0.4442 -0.0332 -0.8105
  367MOL0     C48351   0.877   6.720   8.407 -0.6659  0.2857 -0.4328
  367MOL0     C48352   1.014   6.645   8.373  0.2110  0.5029  0.9020
  367MOL0     C48353   1.117   6.620   8.491  0.1490  0.0625  0.7830
  367MOL0     C48354   1.268   6.612   8.443 -0.6178  1.0901 -0.2973
  367MOL0     C48355   1.358   6.602   8.566  0.6567 -0.3427  0.3342
  367MOL0    Cl48356   1.342   6.763   8.651 -0.0507 -0.1818  0.1550
  367MOL0     C48357   0.537   6.276   7.984 -0.4630  0.4645 -0.4589
  367MOL0     C48358   0.569   6.184   7.883  0.4725  0.5364  0.4906
  367MOL0     O48359   0.499   6.122   7.624  0.5489 -0.2088 -0.1341
  367MOL0     C48360   0.777   5.925   7.501 -1.1171  0.0558 -0.6114
  367MOL0     C48361   0.823   5.852   7.391 -0.1661 -0.0891 -0.0546
  367MOL0     N48362   0.376   5.579   6.680  0.1023  0.3125  0.2840
  367MOL0     N48363   0.332   5.520   6.568 -0.4520  0.0882  0.2886
  367MOL0     C48364   0.762   5.481   5.687 -1.3411  0.1531  0.7312
  367MOL0     C48365   0.867   5.509   5.599 -0.7671  0.1657  0.2407
  367MOL0     C48366   1.154   5.639   5.281  0.7426 -0.0942  0.6826
  367MOL0     C48367   1.193   5.525   5.203 -0.2576  0.5014 -0.3741
  367MOL0     C48368   1.309   5.521   5.134 -0.1388 -0.4219 -0.5698
  367MOL0     C48369   1.397   5.630   5.123  0.0569 -0.4626  0.0450
  367MOL0     O48370   1.503   5.643   5.030 -0.1640  0.1001 -0.3428
  367MOL0     C48371   1.519   5.545   4.925  0.6649 -0.8376  0.0360
  367MOL0     C48372   1.632   5.591   4.832 -0.5080 -0.3152  0.2110
  367MOL0     C48373   1.650   5.487   4.710  0.5787  0.0040 -0.7160
  367MOL0     C48374   1.554   5.519   4.591  0.1608 -0.5023 -0.4800
  367MOL0     C48375   1.603   5.443   4.472  0.5581 -0.8612  0.2164
  367MOL0     C48376   1.651   5.396   4.367 -0.0674 -0.2243 -0.4565
  367MOL0     C48377   1.365   5.748   5.208 -1.0071  0.7203 -0.5796
  367MOL0     C48378   1.242   5.751   5.287 -0.2742 -0.1647 -0.7352
  367MOL0     H48379   0.701   5.498   5.302  0.4300 -0.2952 -0.3474
  367MOL0     H48380   0.519   5.444   5.447  0.8953 -4.3942  0.4339
  367MOL0     H48381   0.344   5.399   5.638  2.9888 -1.6869 -1.5288
  367MOL0     H48382   0.405   5.565   5.614  0.9981 -1.7401 -2.6080
  367MOL0     H48383   0.238   5.576   5.782 -1.5807 -2.0458  0.2770
  367MOL0     H48384   0.392   5.623   5.846  0.8645 -1.9777  1.5661
  367MOL0     H48385   0.447   5.449   5.969 -0.7381 -0.6472  0.9857
  367MOL0     H48386   0.331   5.338   5.907 -1.3320  1.4250 -4.1458
  367MOL0     H48387   0.272   5.577   6.071 -0.9408  1.5221 -2.7791
  367MOL0     H48388   0.148   5.449   6.029 -0.1298 -1.9752  0.6881
  367MOL0     H48389   0.399   5.407   6.201  0.3851  0.5113 -0.8349
  367MOL0     H48390   0.284   5.281   6.142  0.0999 -0.5571  3.4662
  367MOL0     H48391   0.100   5.402   6.236 -0.0634 -0.6419  0.0452
  367MOL0     H48392   0.194   5.510   6.315  0.1189 -0.5118 -1.3524
  367MOL0     H48393   0.105   5.303   6.466  0.6973 -2.8157  2.4031
  367MOL0     H48394   0.181   5.195   6.352  3.3947 -1.1437  3.0928
  367MOL0     H48395   0.398   5.296   6.432  2.0114  0.7755  1.5785
  367MOL0     H48396   0.307   5.196   6.549 -1.4406  1.1774  0.7752
  367MOL0     H48397   0.358   5.282   6.786 -2.7519  0.8720  1.5452
  367MOL0     H48398   0.469   5.432   6.968 -0.3914 -1.9365 -2.0919
  367MOL0     H48399   0.333   5.550   6.977 -0.4540  0.4877 -0.4872
  367MOL0     H48400   0.471   5.718   6.890  0.4618 -0.3124 -2.3207
  367MOL0     H48401   0.605   5.607   6.847  2.0179  4.4047 -0.1031
  367MOL0     H48402   0.537   5.696   7.120 -0.1001  1.6971 -1.3721
  367MOL0     H48403   0.660   5.562   7.069  2.3856 -0.0177 -0.8065
  367MOL0     H48404   0.669   5.852   6.992  0.6321 -1.5167 -0.6076
  367MOL0     H48405   0.782   5.746   6.954 -0.4941  2.1719  0.1822
  367MOL0     H48406   0.540   5.887   7.205  0.0352 -2.0448  0.8032
  367MOL0     H48407   0.495   6.059   7.383  0.2662  0.8147  1.6322
  367MOL0     H48408   0.889   6.274   7.819 -0.2675  2.3284 -1.5334
  367MOL0     H48409   0.836   6.438   7.995  2.1234 -2.7351 -0.1508
  367MOL0     H48410   0.562   6.667   8.147  1.1310  1.0885  0.8308
  367MOL0     H48411   0.690   6.636   8.049 -2.6163 -1.3644 -1.8809
  367MOL0     H48412   0.812   6.524   8.235 -0.4570 -1.1451 -0.0785
  367MOL0     H48413   0.671   6.552   8.342  0.0900 -0.1159  0.0904
  367MOL0     H48414   0.709   6.800   8.327  1.1449  1.1684  0.0524
  367MOL0     H48415   0.820   6.770   8.196 -1.5067  0.5918 -0.9781
  367MOL0     H48416   0.887   6.816   8.457  1.6482  1.8027 -3.4829
  367MOL0     H48417   0.840   6.651   8.484 -3.0345  0.5696 -1.2532
  367MOL0     H48418   1.053   6.698   8.286  0.8154 -1.4019 -0.0429
  367MOL0     H48419   0.997   6.543   8.336 -1.2840  0.8214  0.6463
  367MOL0     H48420   1.085   6.535   8.551 -0.9408 -1.1390 -1.3806
  367MOL0     H48421   1.118   6.713   8.550 -0.5539  0.6462 -0.0928
  367MOL0     H48422   1.279   6.519   8.385  2.2851  1.3190 -0.2332
  367MOL0     H48423   1.299   6.695   8.379 -0.8319 -0.1502 -2.1060
  367MOL0     H48424   1.463   6.602   8.534  0.2954  0.7674 -0.9421
  367MOL0     H48425   1.336   6.521   8.636  3.2310 -0.0720  1.5969
  367MOL0     H48426   0.435   6.275   8.022 -0.3560 -0.3138 -0.1577
  367MOL0     H48427   0.490   6.114   7.855  1.2679  0.2256 -1.1088
  367MOL0     H48428   0.832   5.920   7.595 -0.7131  2.7903 -0.6062
  367MOL0     H48429   0.916   5.796   7.394  0.3579  0.6977 -0.8422
  367MOL0     H48430   0.782   5.480   5.793  0.6241 -2.7209  0.4334
  367MOL0     H48431   0.971   5.525   5.623 -1.0622  3.0839 -0.1375
  367MOL0     H48432   1.129   5.439   5.189  1.2539 -0.7443  0.0334
  367MOL0     H48433   1.329   5.445   5.058  0.3972  1.0888 -1.9960
  367MOL0     H48434   1.431   5.545   4.861  1.3736 -1.1791 -0.9633
  367MOL0     H48435   1.551   5.446   4.959 -2.9645 -1.4982  2.0042
  367MOL0     H48436   1.616   5.690   4.790 -1.2023 -1.3452 -2.0735
  367MOL0     H48437   1.723   5.598   4.893  0.3955  4.7417 -1.2750
  367MOL0     H48438   1.636   5.382   4.737  1.1632  0.4868  1.7512
  367MOL0     H48439   1.753   5.503   4.680  0.6257  5.1180  1.0519
  367MOL0     H48440   1.454   5.489   4.623 -0.0421 -1.1999 -1.7039
  367MOL0     H48441   1.543   5.622   4.555 -1.0880 -0.8499 -1.1374
  367MOL0     H48442   1.684   5.356   4.273 -1.8426  0.0464 -1.2182
  367MOL0     H48443   1.427   5.836   5.196 -1.0326  0.6064 -1.6449
  367MOL0     H48444   1.233   5.839   5.350  2.7381  1.4519 -2.3590
  368MOL0     O48445   4.986   7.854  10.083 -0.1140 -0.1568 -0.1116
  368MOL0     C48446   5.020   7.859  10.201  0.0089 -0.0656  0.9251
  368MOL0     O48447   5.031   7.972  10.276 -0.6262 -0.4767 -0.2635
  368MOL0     C48448   5.001   8.101  10.223 -0.0331  0.1852  0.0115
  368MOL0     C48449   5.030   8.133  10.094  0.4301 -0.3260  0.0480
  368MOL0     C48450   4.987   8.266  10.044 -0.4898 -0.3572  0.3187
  368MOL0     C48451   4.891   8.343  10.116  0.3820 -1.0737  0.6537
  368MOL0     O48452   4.840   8.466  10.053  0.3208  0.4569  0.2235
  368MOL0     C48453   4.797   8.568  10.138 -0.3471  0.2978  0.2122
  368MOL0     C48454   4.851   8.695  10.073  0.5775 -0.6720 -0.6313
  368MOL0     C48455   4.998   8.720  10.079 -0.5314  0.0289 -0.1426
  368MOL0     C48456   5.054   8.829   9.993  0.2294 -0.8222 -0.1861
  368MOL0     C48457   5.203   8.819   9.992 -1.4930 -0.1005  0.5208
  368MOL0     C48458   5.272   8.890   9.883 -0.1773 -0.1811 -1.4073
  368MOL0     C48459   5.427   8.913   9.909  0.4635 -0.4199 -0.4914
  368MOL0     C48460   5.492   8.998   9.801  0.5590  0.2174  0.4638
  368MOL0     N48461   5.426   9.130   9.783 -0.0449  0.4979 -0.2162
  368MOL0     C48462   5.402   9.233   9.875 -0.0556  0.2418  0.0939
  368MOL0     C48463   5.357   9.332   9.797  0.1302  0.5527 -0.0928
  368MOL0     C48464   5.335   9.473   9.828 -0.5479 -0.2415 -0.6934
  368MOL0     C48465   5.450   9.517   9.922  1.2928  0.7272 -0.1597
  368MOL0     C48466   5.569   9.523   9.834  0.4888  0.0211 -0.8691
  368MOL0     C48467   5.689   9.578   9.924 -0.8531 -0.0312 -0.4013
  368MOL0     O48468   5.722   9.461  10.003 -0.6388 -1.3064 -0.1307
  368MOL0     C48469   5.840   9.477  10.071 -0.0222 -0.1684  0.5331
  368MOL0     C48470   5.922   9.593  10.088  1.2437 -0.8605 -1.0440
  368MOL0     C48471   6.027   9.582  10.178 -0.5584  0.7234  0.7190
  368MOL0     C48472   6.069   9.457  10.229  1.2360  0.4033 -0.6152
  368MOL0     C48473   6.197   9.444  10.302  1.2568 -0.3258 -0.4549
  368MOL0     O48474   6.191   9.362  10.410 -0.5899  0.4708  0.0115
  368MOL0     C48475   6.307   9.341  10.486 -0.1093  0.1097  0.3817
  368MOL0     C48476   6.392   9.444  10.533  0.3936  0.0275  0.0682
  368MOL0     C48477   6.514   9.412  10.598 -0.3188 -0.2401  0.0126
  368MOL0     C48478   6.550   9.277  10.624 -0.0871  0.2756 -0.5446
  368MOL0     O48479   6.675   9.263  10.679 -0.4778  0.0060  0.0631
  368MOL0     C48480   6.725   9.125  10.673 -0.7293 -0.3712 -0.0815
  368MOL0     C48481   6.870   9.134  10.725 -0.2727  1.4766  0.0539
  368MOL0     C48482   6.933   8.997  10.708  0.9879 -0.2743  0.7786
  368MOL0     C48483   7.075   8.988  10.758 -0.1088  0.5630 -0.5955
  368MOL0     C48484   7.148   8.847  10.735 -1.0044 -1.0848  0.7864
  368MOL0     C48485   7.125   8.788  10.593 -0.2458  0.9450 -0.2096
  368MOL0     C48486   7.231   8.680  10.574  0.5777  0.4254  0.0595
  368MOL0     C48487   7.186   8.589  10.458  0.6172 -0.0140  0.2044
  368MOL0    Cl48488   7.293   8.443  10.433  0.4474  0.2138 -0.0159
  368MOL0     C48489   6.453   9.175  10.593  0.1088  0.2429 -0.2627
  368MOL0     C48490   6.348   9.207  10.519 -0.1753  1.3439 -1.6490
  368MOL0     O48491   6.298   9.503  10.254  0.1765  0.2033  0.5215
  368MOL0     C48492   5.998   9.346  10.200  0.5503  0.3063  0.3909
  368MOL0     C48493   5.885   9.350  10.119 -0.0850 -1.0458  0.9504
  368MOL0     N48494   5.350   9.290   9.670  0.1986 -0.2924 -0.0036
  368MOL0     N48495   5.389   9.168   9.657 -0.4078 -0.9593  0.1112
  368MOL0     C48496   4.858   8.304  10.246 -0.1137 -0.2411 -0.2622
  368MOL0     C48497   4.918   8.184  10.297  0.0496 -0.3595 -0.5232
  368MOL0     C48498   5.037   7.731  10.269 -0.3111  0.8891  0.7923
  368MOL0     C48499   5.020   7.609  10.199  0.0728  0.1234 -0.1236
  368MOL0     C48500   5.037   7.478  10.255 -0.2248 -1.4522 -0.0975
  368MOL0     C48501   5.075   7.479  10.386  0.1269 -0.5369  0.2338
  368MOL0     O48502   5.098   7.369  10.462 -0.1868  0.4748  0.5167
  368MOL0     C48503   5.087   7.232  10.408  0.6430 -0.6717  0.2618
  368MOL0     C48504   4.958   7.158  10.427 -0.4294  0.7225  0.6520
  368MOL0     C48505   4.830   7.220  10.367 -0.2597 -0.2507 -0.5930
  368MOL0     C48506   4.720   7.116  10.359 -0.4145 -0.3370 -0.3511
  368MOL0     C48507   4.739   6.992  10.287  0.3402  0.4039  0.0369
  368MOL0     C48508   4.734   6.875  10.268  1.2245 -0.1034 -0.2591
  368MOL0     C48509   5.083   7.595  10.456 -0.7566 -0.4214 -0.1468
  368MOL0     C48510   5.067   7.716  10.405 -1.0609  0.0294  0.6707
  368MOL0     H48511   5.079   8.061  10.029  2.7790  2.7200 -1.8214
  368MOL0     H48512   5.002   8.306   9.944 -0.4820  1.9717  1.1745
  368MOL0     H48513   4.849   8.566  10.234  0.6297  0.9610 -0.2839
  368MOL0     H48514   4.688   8.580  10.147 -0.0363  2.8786  1.4713
  368MOL0     H48515   4.797   8.778  10.120  0.0767 -1.5276  0.3746
  368MOL0     H48516   4.817   8.695   9.969 -1.6789  0.4364  0.0405
  368MOL0     H48517   5.040   8.625  10.045 -0.5527  0.5629 -1.7413
  368MOL0     H48518   5.032   8.734  10.182 -3.9039 -1.8604  1.3867
  368MOL0     H48519   5.043   8.814   9.885  1.9882 -1.1912 -0.3380
  368MOL0     H48520   5.026   8.933  10.012  1.5132 -0.2073 -1.4880
  368MOL0     H48521   5.226   8.715   9.971 -1.4383  0.1892 -0.9327
  368MOL0     H48522   5.242   8.847  10.091  1.1594 -1.4815 -0.0526
  368MOL0     H48523   5.226   8.989   9.871 -0.5969  0.4364  3.2717
  368MOL0     H48524   5.258   8.834   9.790  1.3340 -2.6079 -0.2756
  368MOL0     H48525   5.452   8.976   9.995 -2.3472  0.2970 -0.1033
  368MOL0     H48526   5.477   8.815   9.907 -2.6872 -2.1558 -0.2886
  368MOL0     H48527   5.499   8.945   9.705  0.0105 -1.5818  1.3628
  368MOL0     H48528   5.598   9.008   9.826  0.5809 -1.4533  1.1726
  368MOL0     H48529   5.422   9.241   9.982  0.4771 -1.7537  0.1918
  368MOL0     H48530   5.244   9.501   9.882 -0.2227  5.1719 -2.3868
  368MOL0     H48531   5.337   9.528   9.734  1.0145 -0.6026 -0.9090
  368MOL0     H48532   5.458   9.446  10.005 -3.3510 -0.5741 -0.5324
  368MOL0     H48533   5.436   9.620   9.956  0.1606  0.6080 -0.2330
  368MOL0     H48534   5.599   9.427   9.792  1.5078  0.5342 -1.3299
  368MOL0     H48535   5.552   9.598   9.756 -1.6558  2.0781  1.3815
  368MOL0     H48536   5.656   9.660   9.987  1.9407 -1.2603  3.0097
  368MOL0     H48537   5.758   9.607   9.845 -2.3140 -2.5400 -2.7954
  368MOL0     H48538   5.874   9.683  10.050 -1.2059 -1.2170  0.9500
  368MOL0     H48539   6.098   9.664  10.188  1.9239 -1.0992 -0.6993
  368MOL0     H48540   6.373   9.550  10.524  0.5757 -0.0557 -1.7532
  368MOL0     H48541   6.593   9.485  10.613  0.0387 -0.3775 -1.0958
  368MOL0     H48542   6.724   9.105  10.566 -0.5450  0.9052 -0.3412
  368MOL0     H48543   6.660   9.052  10.723 -0.3596  1.8538  4.1408
  368MOL0     H48544   6.852   9.159  10.830 -3.0077  0.9804 -0.2194
  368MOL0     H48545   6.925   9.212  10.671  0.6963  1.0123  0.3541
  368MOL0     H48546   6.930   8.975  10.601 -2.3171 -0.8377  0.8612
  368MOL0     H48547   6.871   8.919  10.755  0.6787 -0.5746 -0.1064
  368MOL0     H48548   7.141   9.061  10.711 -1.1174  1.4436 -0.6853
  368MOL0     H48549   7.080   9.010  10.865  2.6664  2.5262 -1.0270
  368MOL0     H48550   7.109   8.774  10.806 -2.0502 -0.7433  0.5790
  368MOL0     H48551   7.257   8.856  10.744 -1.0649 -1.4334  2.0081
  368MOL0     H48552   7.149   8.857  10.511  0.2148 -0.0442 -0.9290
  368MOL0     H48553   7.022   8.752  10.584  0.1688 -0.1017 -0.9853
  368MOL0     H48554   7.333   8.719  10.563  1.5719 -1.2431  2.4908
  368MOL0     H48555   7.229   8.612  10.659 -1.4833  0.7344  0.3056
  368MOL0     H48556   7.180   8.633  10.358  0.1766 -1.2422 -0.3283
  368MOL0     H48557   7.086   8.557  10.489  0.5250 -0.0173 -0.0918
  368MOL0     H48558   6.459   9.068  10.609  3.1845  0.0171 -2.1670
  368MOL0     H48559   6.293   9.118  10.489  3.1970 -0.1716 -4.0709
  368MOL0     H48560   6.026   9.253  10.250 -2.0937 -0.8805 -0.1654
  368MOL0     H48561   5.829   9.259  10.098  0.3799 -1.2256  0.4392
  368MOL0     H48562   4.796   8.367  10.307  0.6119 -0.9520  1.2678
  368MOL0     H48563   4.911   8.153  10.401 -0.1902  2.0035  0.2265
  368MOL0     H48564   4.988   7.626  10.096 -0.5335 -1.5049 -0.2324
  368MOL0     H48565   5.032   7.387  10.196 -0.2050 -2.5540  1.5058
  368MOL0     H48566   5.160   7.170  10.462  0.0151 -0.1874  1.7323
  368MOL0     H48567   5.122   7.227  10.305 -1.0398  1.2300 -0.4631
  368MOL0     H48568   4.970   7.062  10.375  1.0554  1.3081 -0.1512
  368MOL0     H48569   4.945   7.134  10.533 -0.5612 -0.0597  0.4654
  368MOL0     H48570   4.853   7.277  10.276  2.5576  1.6998  1.1738
  368MOL0     H48571   4.793   7.301  10.431 -1.7013 -0.6246 -0.9277
  368MOL0     H48572   4.702   7.084  10.462 -2.8585  1.2376 -0.2177
  368MOL0     H48573   4.630   7.162  10.317 -1.0191 -1.1590  0.0282
  368MOL0     H48574   4.708   6.771  10.266 -3.2327  0.6618  3.0050
  368MOL0     H48575   5.100   7.591  10.563 -1.9419  0.8556  0.1296
  368MOL0     H48576   5.068   7.810  10.458 -3.1909  1.8904 -2.2455
  369MOL0     O48577   7.362   1.153   5.478 -0.3421 -0.1367 -0.3256
  369MOL0     C48578   7.414   1.246   5.535 -0.2608  0.8065 -0.3245
  369MOL0     O48579   7.451   1.262   5.665 -0.0917  0.2592  0.5224
  369MOL0     C48580   7.402   1.180   5.764  0.8664 -0.2799 -0.2132
  369MOL0     C48581   7.477   1.179   5.876  0.4642  0.0832 -0.2279
  369MOL0     C48582   7.445   1.084   5.981  0.2385 -0.7401  0.3637
  369MOL0     C48583   7.338   1.000   5.968  0.0803 -0.4149 -0.1157
  369MOL0     O48584   7.322   0.911   6.062 -0.1060  1.1395 -0.4628
  369MOL0     C48585   7.185   0.860   6.090  0.7749  0.5398  0.9735
  369MOL0     C48586   7.200   0.765   6.213 -1.1805 -0.5872  0.4029
  369MOL0     C48587   7.094   0.653   6.220  0.4512  0.1517  0.2077
  369MOL0     C48588   6.949   0.684   6.170  0.3679  0.6357 -0.4141
  369MOL0     C48589   6.839   0.568   6.205 -1.4288 -0.3045 -0.2133
  369MOL0     C48590   6.871   0.431   6.151  0.0917  0.6777 -0.3275
  369MOL0     C48591   6.814   0.406   6.006 -0.6278 -1.1791 -1.0516
  369MOL0     C48592   6.851   0.264   5.969  0.0306 -0.0205  0.5542
  369MOL0     N48593   6.798   0.245   5.832 -0.6621  0.2273  0.1760
  369MOL0     C48594   6.844   0.155   5.740 -0.1648 -0.3988  0.1162
  369MOL0     C48595   6.762   0.166   5.631  0.3340  0.3760 -0.8443
  369MOL0     C48596   6.767   0.100   5.500 -0.7936 -0.6467 -0.4252
  369MOL0     C48597   6.831   0.207   5.417  0.8378  0.2079  0.6193
  369MOL0     C48598   6.844   0.194   5.268  0.4924  0.4065 -0.1444
  369MOL0     C48599   6.704   0.205   5.199 -0.0141  0.3208 -0.1305
  369MOL0     O48600   6.610   0.308   5.231  0.0632  0.3287 -0.1749
  369MOL0     C48601   6.567   0.390   5.127 -0.4258 -0.4948  0.5581
  369MOL0     C48602   6.471   0.352   5.034 -0.2958  0.9290 -0.9050
  369MOL0     C48603   6.424   0.444   4.937 -0.5298  0.5676 -0.0357
  369MOL0     C48604   6.496   0.569   4.926  1.1544  0.1550  0.3078
  369MOL0     C48605   6.470   0.664   4.807  0.9405  1.0494  0.3766
  369MOL0     O48606   6.364   0.643   4.722  0.5729  0.0599  0.3195
  369MOL0     C48607   6.363   0.718   4.606  0.2341  0.3433  0.4064
  369MOL0     C48608   6.257   0.807   4.578  0.9670 -0.9521  0.8378
  369MOL0     C48609   6.232   0.862   4.456 -0.7159 -0.1499  0.4268
  369MOL0     C48610   6.313   0.837   4.345 -0.5289  0.5705 -0.0333
  369MOL0     O48611   6.288   0.904   4.228  0.1809  1.4859 -1.0971
  369MOL0     C48612   6.334   0.841   4.107 -0.9186  0.0875  0.1286
  369MOL0     C48613   6.314   0.926   3.980  0.8679  0.9497  0.2952
  369MOL0     C48614   6.162   0.948   3.954 -0.2488  0.4309  0.3528
  369MOL0     C48615   6.135   1.063   3.855  0.2144 -0.8650  0.0421
  369MOL0     C48616   5.986   1.078   3.808  0.1595  0.1915  0.0525
  369MOL0     C48617   5.890   1.090   3.930 -0.2487 -0.4476 -0.0739
  369MOL0     C48618   5.744   1.091   3.894  0.2004 -0.7174 -0.1932
  369MOL0     C48619   5.642   1.134   3.999 -0.4247 -0.0167 -0.6997
  369MOL0    Cl48620   5.642   1.009   4.133  0.4958 -0.0927  0.1503
  369MOL0     C48621   6.415   0.742   4.368  0.6524  0.1176 -0.4147
  369MOL0     C48622   6.438   0.690   4.492  0.3048 -0.6745  0.8257
  369MOL0     O48623   6.541   0.766   4.795 -0.2543 -0.4222 -0.4215
  369MOL0     C48624   6.597   0.605   5.023  0.0018 -0.3078 -0.5886
  369MOL0     C48625   6.618   0.518   5.122  0.2946  0.1355 -0.5536
  369MOL0     N48626   6.663   0.260   5.656  0.1399 -0.4687 -0.4619
  369MOL0     N48627   6.680   0.300   5.781 -0.4854  0.9418 -1.2123
  369MOL0     C48628   7.257   1.011   5.856  0.9052 -0.0949 -0.7256
  369MOL0     C48629   7.286   1.101   5.756  0.0706 -0.1237 -0.3579
  369MOL0     C48630   7.443   1.368   5.451  0.1949 -0.0630 -0.6685
  369MOL0     C48631   7.481   1.486   5.511 -0.8801  0.0203 -0.3719
  369MOL0     C48632   7.507   1.604   5.447  0.0429 -0.0113  0.8399
  369MOL0     C48633   7.494   1.610   5.306  0.2654 -1.0010 -0.6305
  369MOL0     O48634   7.520   1.723   5.223 -1.0560  0.5652 -0.3205
  369MOL0     C48635   7.606   1.830   5.268  0.9200  0.1438  0.4093
  369MOL0     C48636   7.754   1.787   5.239 -0.0035  0.2760 -0.2984
  369MOL0     C48637   7.852   1.893   5.288 -0.1814 -0.4750 -0.3894
  369MOL0     C48638   8.001   1.858   5.250  0.0116  0.2273  0.8099
  369MOL0     C48639   8.022   1.729   5.309 -0.0219  0.5285  0.2035
  369MOL0     C48640   8.035   1.626   5.370  0.1936  0.0479  0.0586
  369MOL0     C48641   7.454   1.494   5.237 -0.4956  0.0014  0.3565
  369MOL0     C48642   7.424   1.374   5.309 -0.1002 -0.1741 -0.2616
  369MOL0     H48643   7.554   1.254   5.889 -0.7216  1.2087  0.6610
  369MOL0     H48644   7.508   1.061   6.066  0.5462 -2.0464 -0.1875
  369MOL0     H48645   7.151   0.807   6.000 -0.4961  0.6647  1.3554
  369MOL0     H48646   7.113   0.937   6.119 -0.3383 -0.6833  1.6144
  369MOL0     H48647   7.185   0.831   6.299 -1.4659  1.9705 -1.4731
  369MOL0     H48648   7.298   0.717   6.213  0.6446  2.7811 -0.7012
  369MOL0     H48649   7.089   0.614   6.322 -0.5545 -3.4895 -1.0683
  369MOL0     H48650   7.126   0.570   6.156 -0.6679  0.3171 -0.5866
  369MOL0     H48651   6.921   0.767   6.235 -0.4214  1.2705 -1.5412
  369MOL0     H48652   6.937   0.708   6.064 -1.6240 -0.5661 -0.5165
  369MOL0     H48653   6.738   0.605   6.189 -0.6152  3.8084  2.5203
  369MOL0     H48654   6.846   0.567   6.314 -1.0253 -1.9143 -0.2388
  369MOL0     H48655   6.829   0.358   6.222  4.0449 -0.0744  1.5513
  369MOL0     H48656   6.977   0.406   6.145 -0.2935 -1.3776  0.3853
  369MOL0     H48657   6.707   0.424   6.020  0.2200  3.1198  1.9892
  369MOL0     H48658   6.853   0.473   5.928 -0.9271  1.5912  1.0417
  369MOL0     H48659   6.811   0.178   6.024  1.0427 -1.0334 -0.2400
  369MOL0     H48660   6.960   0.256   5.968  0.3148  1.6381  3.6870
  369MOL0     H48661   6.941   0.106   5.746  1.2130  2.3269  2.9079
  369MOL0     H48662   6.666   0.073   5.467 -0.5128  2.2794 -4.4891
  369MOL0     H48663   6.840   0.019   5.495  1.1664  0.6169  3.5898
  369MOL0     H48664   6.935   0.205   5.452  1.0789 -3.9989  0.1190
  369MOL0     H48665   6.782   0.305   5.430 -1.3635 -0.2538 -2.8738
  369MOL0     H48666   6.898   0.273   5.215 -1.6030  0.8642 -1.7160
  369MOL0     H48667   6.889   0.095   5.254 -1.9849 -0.9246  0.6550
  369MOL0     H48668   6.649   0.115   5.229  0.9388 -0.1414  0.2711
  369MOL0     H48669   6.731   0.197   5.093  0.7727 -0.8154  0.1335
  369MOL0     H48670   6.422   0.256   5.048  2.5712 -0.7330 -1.3424
  369MOL0     H48671   6.363   0.406   4.856 -1.5476 -1.2108  1.5037
  369MOL0     H48672   6.199   0.835   4.666  1.8676 -0.7320  1.3774
  369MOL0     H48673   6.162   0.939   4.428 -2.7641 -1.8829  0.4979
  369MOL0     H48674   6.294   0.741   4.089 -3.2145  0.8000  1.0117
  369MOL0     H48675   6.444   0.836   4.113 -0.9846 -0.3854  1.0659
  369MOL0     H48676   6.344   0.869   3.892 -0.9552 -2.1228  1.5097
  369MOL0     H48677   6.373   1.017   3.993  2.1749  0.2737 -0.7304
  369MOL0     H48678   6.130   0.961   4.058  1.7102  0.3094  1.0080
  369MOL0     H48679   6.112   0.858   3.918  1.2272 -0.9740  1.6219
  369MOL0     H48680   6.168   1.149   3.914  1.5613  1.6559 -3.9941
  369MOL0     H48681   6.194   1.045   3.764  0.0321 -0.6405 -0.1214
  369MOL0     H48682   5.945   0.998   3.746  0.2022  1.9610 -2.3980
  369MOL0     H48683   5.987   1.165   3.741  3.4659  1.6729  1.8095
  369MOL0     H48684   5.911   1.176   3.993  3.8608 -1.8554  0.8078
  369MOL0     H48685   5.901   1.005   3.999 -2.9785 -0.6183  0.2597
  369MOL0     H48686   5.720   1.144   3.802 -3.0251 -4.0186 -1.5349
  369MOL0     H48687   5.717   0.999   3.841 -1.4240 -0.2532 -0.2238
  369MOL0     H48688   5.543   1.146   3.954 -0.5077  1.0879 -0.2465
  369MOL0     H48689   5.679   1.230   4.036 -1.2309 -0.6711  1.9961
  369MOL0     H48690   6.483   0.712   4.289  0.4603 -2.6592  0.3533
  369MOL0     H48691   6.528   0.629   4.502  0.5905 -0.5263 -0.5654
  369MOL0     H48692   6.653   0.696   5.039 -0.8681 -0.2075  2.6341
  369MOL0     H48693   6.685   0.544   5.204  0.6786  1.0467 -1.1396
  369MOL0     H48694   7.170   0.947   5.849 -0.0810  1.2358 -1.2432
  369MOL0     H48695   7.218   1.079   5.674  0.1922 -0.9295 -0.2498
  369MOL0     H48696   7.496   1.475   5.618 -1.7336  0.6598 -0.1815
  369MOL0     H48697   7.540   1.690   5.503  0.4786  2.4539 -2.8975
  369MOL0     H48698   7.595   1.860   5.373 -2.3094 -0.6992  0.4108
  369MOL0     H48699   7.577   1.911   5.200 -1.0499 -1.6668 -1.0432
  369MOL0     H48700   7.774   1.689   5.282  0.7696 -0.1620 -1.6057
  369MOL0     H48701   7.752   1.772   5.131  0.8159  2.1016 -0.6118
  369MOL0     H48702   7.838   1.925   5.392 -0.7891  1.7300 -1.0942
  369MOL0     H48703   7.827   1.988   5.239 -2.4667 -1.2125 -0.7438
  369MOL0     H48704   7.991   1.866   5.141  1.1311  3.3095  0.8276
  369MOL0     H48705   8.085   1.919   5.285  4.0388 -3.0365 -2.1003
  369MOL0     H48706   8.060   1.538   5.425 -1.6804 -1.0262 -0.7363
  369MOL0     H48707   7.431   1.491   5.131 -2.9636 -3.8833  0.7935
  369MOL0     H48708   7.388   1.282   5.265  2.6228 -0.8817 -1.2392
  370MOL0     O48709   6.136   4.980  10.219 -0.3364  0.0543  0.3894
  370MOL0     C48710   6.240   5.037  10.196 -0.1689  0.5062  0.7051
  370MOL0     O48711   6.365   4.984  10.206  0.6969 -0.6639 -0.9354
  370MOL0     C48712   6.387   4.872  10.280  0.9737 -0.4342  0.2787
  370MOL0     C48713   6.410   4.906  10.412  0.3876 -0.1326  0.2495
  370MOL0     C48714   6.435   4.805  10.504  0.0223  0.3338  0.6498
  370MOL0     C48715   6.415   4.667  10.472  0.4217 -0.5902  0.4131
  370MOL0     O48716   6.439   4.583  10.573 -0.2610 -0.5041  0.3264
  370MOL0     C48717   6.501   4.455  10.538 -1.0603  0.0299 -0.7076
  370MOL0     C48718   6.654   4.457  10.534 -1.3325 -0.8495 -0.2529
  370MOL0     C48719   6.715   4.324  10.520 -1.1728 -0.5597 -0.0518
  370MOL0     C48720   6.868   4.327  10.534  0.1764  1.1540 -0.5252
  370MOL0     C48721   6.926   4.182  10.501 -0.5776 -0.0456  0.5944
  370MOL0     C48722   7.082   4.177  10.509 -0.2703  0.3202  0.6268
  370MOL0     C48723   7.143   4.273  10.405 -0.3024  0.7204 -0.6947
  370MOL0     C48724   7.293   4.239  10.371  0.3559 -0.8185  0.0674
  370MOL0     N48725   7.361   4.332  10.281 -0.0673 -0.7986  0.1439
  370MOL0     C48726   7.361   4.322  10.145  0.2190 -0.2610  0.4401
  370MOL0     C48727   7.446   4.424  10.115 -0.5216 -0.6046  0.3245
  370MOL0     C48728   7.484   4.476   9.973  0.4028 -0.4286 -0.1866
  370MOL0     C48729   7.590   4.391   9.909  0.2947  0.4230 -1.0654
  370MOL0     C48730   7.628   4.427   9.771 -0.1260  0.3030 -0.0773
  370MOL0     C48731   7.735   4.347   9.705  0.4689  0.0311  0.9835
  370MOL0     O48732   7.755   4.394   9.574  0.2383 -0.2220  0.0770
  370MOL0     C48733   7.723   4.315   9.466  0.1329  0.0389  0.6508
  370MOL0     C48734   7.777   4.186   9.449 -0.6802 -0.0293  0.2315
  370MOL0     C48735   7.736   4.103   9.340 -0.1922  0.5801  0.6536
  370MOL0     C48736   7.640   4.145   9.239 -1.6211 -0.6759 -0.3238
  370MOL0     C48737   7.616   4.069   9.115  0.3423 -0.2066 -0.7915
  370MOL0     O48738   7.690   3.953   9.097  1.1468  1.3240 -0.5123
  370MOL0     C48739   7.650   3.868   9.001 -0.0095 -0.5751 -0.1079
  370MOL0     C48740   7.527   3.799   9.007 -0.4254  0.1367  0.3321
  370MOL0     C48741   7.491   3.711   8.908 -0.6059 -0.8282 -0.5060
  370MOL0     C48742   7.569   3.690   8.794 -0.2858  0.1176 -0.5835
  370MOL0     O48743   7.532   3.613   8.692  0.7898  0.8281  0.1293
  370MOL0     C48744   7.515   3.467   8.723 -0.4297 -1.1860  0.3693
  370MOL0     C48745   7.454   3.389   8.604  0.4248  0.3190  0.4273
  370MOL0     C48746   7.308   3.429   8.572  1.1393  0.4555 -0.9441
  370MOL0     C48747   7.234   3.332   8.476  0.4856  0.1139  1.1884
  370MOL0     C48748   7.094   3.395   8.471  1.0096 -0.6567  0.5363
  370MOL0     C48749   6.989   3.325   8.391 -0.2061 -1.1465 -0.3881
  370MOL0     C48750   6.862   3.414   8.393 -0.9334 -0.0249  0.3291
  370MOL0     C48751   6.763   3.341   8.297 -0.5222 -0.5863 -0.4321
  370MOL0    Cl48752   6.780   3.416   8.141  0.1757  0.5210 -0.0458
  370MOL0     C48753   7.684   3.762   8.785 -0.2335 -0.4798 -0.3228
  370MOL0     C48754   7.726   3.851   8.890  0.1821 -0.1093 -0.5446
  370MOL0     O48755   7.517   4.104   9.049 -0.2468  0.6028  0.2027
  370MOL0     C48756   7.581   4.263   9.258 -0.0890 -0.3467  0.2830
  370MOL0     C48757   7.615   4.345   9.367  0.1076  0.5970 -0.2103
  370MOL0     N48758   7.491   4.483  10.227 -0.1915  0.2665  0.4251
  370MOL0     N48759   7.443   4.431  10.328  0.4799 -0.1120 -0.5483
  370MOL0     C48760   6.370   4.633  10.338  0.2017 -0.1365 -0.2767
  370MOL0     C48761   6.354   4.737  10.241  0.2702  0.1617 -0.1369
  370MOL0     C48762   6.234   5.176  10.135  0.9618 -0.3970  0.2398
  370MOL0     C48763   6.353   5.249  10.108 -0.2502  0.0816  0.7873
  370MOL0     C48764   6.339   5.381  10.059  0.2993  0.9980  0.4130
  370MOL0     C48765   6.214   5.433  10.027 -0.1884 -0.4313 -0.3548
  370MOL0     O48766   6.204   5.550   9.955 -0.2923  0.2670  0.3935
  370MOL0     C48767   6.070   5.601   9.933  0.4225  0.8308  0.1169
  370MOL0     C48768   6.057   5.745   9.921  1.1853 -0.6155 -0.6331
  370MOL0     C48769   6.078   5.833  10.051 -0.6861  0.1833 -0.3859
  370MOL0     C48770   6.134   5.973  10.012  0.9860 -0.3046 -0.0072
  370MOL0     C48771   6.020   6.062   9.977  0.6282  0.0880  0.1444
  370MOL0     C48772   5.929   6.135   9.946  0.0306  0.3080  0.5216
  370MOL0     C48773   6.100   5.378  10.073 -0.7108  1.0904  0.1844
  370MOL0     C48774   6.110   5.248  10.122 -0.4653 -0.1733 -0.1765
  370MOL0     H48775   6.419   5.013  10.431  2.3254  0.8696 -4.6494
  370MOL0     H48776   6.449   4.809  10.611  1.6143 -0.5157  0.5022
  370MOL0     H48777   6.465   4.432  10.438 -1.2394 -2.1835 -0.1874
  370MOL0     H48778   6.466   4.386  10.616  1.6773  1.5630  2.1318
  370MOL0     H48779   6.693   4.506  10.623 -0.1663 -2.2403  0.0368
  370MOL0     H48780   6.675   4.516  10.444 -3.1635 -4.1244 -3.1117
  370MOL0     H48781   6.685   4.274  10.427  0.4079 -2.3145  0.3080
  370MOL0     H48782   6.687   4.253  10.598 -0.3722  0.2645  1.0111
  370MOL0     H48783   6.906   4.393  10.456  1.9110 -0.7805 -1.4317
  370MOL0     H48784   6.899   4.360  10.634 -0.8819  1.5636 -0.3195
  370MOL0     H48785   6.903   4.140  10.403  1.1891  0.5119 -0.1035
  370MOL0     H48786   6.881   4.108  10.567 -0.3940 -0.8294 -0.1440
  370MOL0     H48787   7.129   4.079  10.514  0.4665  0.6571  0.4780
  370MOL0     H48788   7.111   4.219  10.606 -1.6493 -1.4998  1.9080
  370MOL0     H48789   7.081   4.267  10.315  0.9799 -2.7332 -1.5108
  370MOL0     H48790   7.142   4.375  10.445  0.0328 -0.2249  1.9304
  370MOL0     H48791   7.310   4.141  10.327  3.0724  0.3219 -1.7117
  370MOL0     H48792   7.346   4.240  10.466  0.3084  1.8688  0.1431
  370MOL0     H48793   7.312   4.257  10.073  1.6183 -3.2758  2.0390
  370MOL0     H48794   7.520   4.578   9.984 -1.0082 -0.0721  1.6672
  370MOL0     H48795   7.397   4.484   9.907 -2.6518  1.4594  3.6675
  370MOL0     H48796   7.557   4.287   9.903 -2.4503  0.7950  3.0380
  370MOL0     H48797   7.675   4.391   9.978 -0.6243  1.5175  0.1391
  370MOL0     H48798   7.535   4.429   9.712  0.3944  0.3981 -0.9174
  370MOL0     H48799   7.664   4.529   9.788 -2.9354  1.5486 -0.9797
  370MOL0     H48800   7.698   4.244   9.694  0.1088  0.3984 -1.9456
  370MOL0     H48801   7.821   4.345   9.772 -1.5351  2.3086  3.8914
  370MOL0     H48802   7.856   4.145   9.510  0.2213 -1.4628 -1.7972
  370MOL0     H48803   7.791   4.011   9.324  1.5644  1.1537  2.8732
  370MOL0     H48804   7.461   3.808   9.093  0.5870 -3.3564  1.6185
  370MOL0     H48805   7.408   3.643   8.927  2.0131 -3.8372  1.2795
  370MOL0     H48806   7.458   3.461   8.816 -0.5455  1.6970  0.5646
  370MOL0     H48807   7.610   3.418   8.747 -1.4925 -5.9979 -3.4629
  370MOL0     H48808   7.435   3.282   8.620 -3.0513  0.7970  0.3160
  370MOL0     H48809   7.523   3.401   8.520 -2.1684 -0.1033 -1.9344
  370MOL0     H48810   7.310   3.531   8.532  2.5694  0.6619 -0.4243
  370MOL0     H48811   7.252   3.417   8.666  1.9113 -3.0109 -0.7876
  370MOL0     H48812   7.272   3.332   8.373  1.1291 -1.5523  1.3822
  370MOL0     H48813   7.237   3.232   8.521  0.7943 -0.7937 -0.7129
  370MOL0     H48814   7.094   3.499   8.438  1.4297 -0.7484  0.2436
  370MOL0     H48815   7.058   3.399   8.575 -0.5216  3.8173  0.0336
  370MOL0     H48816   6.977   3.221   8.421 -0.2778 -1.6860 -2.1838
  370MOL0     H48817   7.027   3.325   8.289  2.9749 -2.9442  0.6720
  370MOL0     H48818   6.836   3.424   8.499 -0.9847  2.2404  0.1543
  370MOL0     H48819   6.891   3.513   8.357 -0.0797 -1.2543 -2.7088
  370MOL0     H48820   6.659   3.354   8.330 -0.1477  2.4002 -0.1355
  370MOL0     H48821   6.778   3.233   8.302 -1.2253 -0.7611 -1.5876
  370MOL0     H48822   7.752   3.734   8.705  0.6950 -1.8772  0.9049
  370MOL0     H48823   7.817   3.910   8.883  1.0197 -1.1862  0.6604
  370MOL0     H48824   7.507   4.290   9.184 -0.1274 -2.4912 -0.5171
  370MOL0     H48825   7.551   4.430   9.390  0.2248  0.2058  1.6945
  370MOL0     H48826   6.343   4.533  10.306 -3.0072  1.0280 -1.6845
  370MOL0     H48827   6.322   4.720  10.139  0.3564 -0.7792 -0.0111
  370MOL0     H48828   6.440   5.196  10.148 -0.3695 -0.0145  0.9227
  370MOL0     H48829   6.426   5.436  10.024 -0.3021  0.0610 -2.9394
  370MOL0     H48830   6.021   5.594  10.030  1.0167 -1.6227  0.2942
  370MOL0     H48831   6.033   5.539   9.851 -0.0348  0.9150  0.2565
  370MOL0     H48832   6.125   5.786   9.845  3.1620  0.8914  1.7878
  370MOL0     H48833   5.955   5.764   9.885 -0.1866 -1.1197  2.6003
  370MOL0     H48834   6.138   5.779  10.124  2.1062  1.6282 -1.4415
  370MOL0     H48835   5.982   5.848  10.100 -0.6816 -1.1030  0.0285
  370MOL0     H48836   6.182   6.021  10.098 -1.7118  4.2515 -0.7428
  370MOL0     H48837   6.195   5.952   9.924  0.7334 -0.3787 -0.1635
  370MOL0     H48838   5.859   6.207   9.908 -3.9896 -3.5875 -0.2929
  370MOL0     H48839   5.997   5.411  10.065 -0.4767  1.9794  0.7156
  370MOL0     H48840   6.018   5.194  10.144  0.4297 -1.7776 -0.1946
  371MOL0     O48841   0.928   9.768   1.798  0.2647  0.2490  0.4532
  371MOL0     C48842   1.000   9.804   1.708  0.6034 -0.2213  0.6869
  371MOL0     O48843   1.138   9.828   1.717 -0.3801 -1.2027  0.1840
  371MOL0     C48844   1.193   9.819   1.842 -0.8016  0.2207  0.4194
  371MOL0     C48845   1.205   9.696   1.911 -0.6463  0.7709  0.5195
  371MOL0     C48846   1.281   9.684   2.032 -0.0076  0.0133 -0.7015
  371MOL0     C48847   1.329   9.806   2.090 -0.7475 -1.1461  0.5828
  371MOL0     O48848   1.385   9.806   2.215  0.5634  0.3415  0.2563
  371MOL0     C48849   1.354   9.914   2.306 -1.3453 -0.2460 -0.3207
  371MOL0     C48850   1.446   9.910   2.426 -0.3853 -0.7985 -0.0636
  371MOL0     C48851   1.439   9.779   2.499  0.5234 -0.1176 -0.0887
  371MOL0     C48852   1.534   9.753   2.612  0.0410  0.1201  0.6517
  371MOL0     C48853   1.544   9.615   2.687  0.2565 -0.3038  0.2103
  371MOL0     C48854   1.663   9.604   2.773  0.2612 -0.0649 -0.0508
  371MOL0     C48855   1.799   9.573   2.713 -0.8387 -0.6183 -0.3795
  371MOL0     C48856   1.911   9.552   2.814  0.2223 -1.1803  0.2447
  371MOL0     N48857   1.903   9.418   2.864 -0.0145 -0.1659 -0.4344
  371MOL0     C48858   1.925   9.303   2.800  0.5929 -0.1076  0.6531
  371MOL0     C48859   1.899   9.201   2.886  0.0621 -0.7036  0.3413
  371MOL0     C48860   1.937   9.059   2.865  0.0472 -0.0480  0.0603
  371MOL0     C48861   2.089   9.032   2.843 -0.9106  0.2886 -1.1448
  371MOL0     C48862   2.125   8.888   2.818 -1.0296 -0.6925 -0.8084
  371MOL0     C48863   2.099   8.826   2.680 -0.1019  0.1221 -0.4611
  371MOL0     O48864   2.145   8.686   2.697  0.3395 -0.2759 -0.0634
  371MOL0     C48865   2.123   8.601   2.588 -0.0322 -0.1959 -0.8768
  371MOL0     C48866   1.991   8.578   2.536  0.5343  0.3689 -0.4324
  371MOL0     C48867   1.967   8.502   2.415  0.2276 -0.1897 -0.7257
  371MOL0     C48868   2.078   8.459   2.347 -0.2095 -0.1408 -0.5078
  371MOL0     C48869   2.053   8.412   2.216 -0.1776 -0.5548  0.3690
  371MOL0     O48870   1.923   8.382   2.175  0.4203 -0.7679 -0.3422
  371MOL0     C48871   1.901   8.356   2.043  0.6589 -0.3391 -0.8107
  371MOL0     C48872   1.945   8.240   1.984 -0.2137  0.2015 -0.2675
  371MOL0     C48873   1.932   8.223   1.851 -0.7038  0.0064  0.0878
  371MOL0     C48874   1.862   8.319   1.773 -0.8856 -0.2517  0.2678
  371MOL0     O48875   1.850   8.316   1.635 -0.3669  0.1904  0.1584
  371MOL0     C48876   1.952   8.240   1.562  0.6058  1.3361 -0.2978
  371MOL0     C48877   1.969   8.271   1.416 -0.0349 -0.4183  0.6763
  371MOL0     C48878   1.841   8.234   1.337  0.2364 -0.8298 -0.5944
  371MOL0     C48879   1.850   8.269   1.190 -0.2181 -0.3468  0.1850
  371MOL0     C48880   1.846   8.152   1.090 -0.7925  0.0585  0.5142
  371MOL0     C48881   1.985   8.089   1.055  0.6280  0.2225 -0.8846
  371MOL0     C48882   1.965   7.980   0.957  0.1674  0.1250 -0.3616
  371MOL0     C48883   1.970   7.842   1.015  0.9606 -0.4262  0.5614
  371MOL0    Cl48884   1.933   7.729   0.877  0.6945  0.2350 -0.2856
  371MOL0     C48885   1.815   8.437   1.830  0.4415 -1.0502  0.5149
  371MOL0     C48886   1.842   8.461   1.972 -0.2699  0.1590 -0.2444
  371MOL0     O48887   2.155   8.404   2.141  0.3582 -0.5292 -0.5945
  371MOL0     C48888   2.202   8.476   2.399 -0.1809 -0.3459 -0.0869
  371MOL0     C48889   2.230   8.542   2.519  0.9464  0.4068  0.6985
  371MOL0     N48890   1.850   9.262   3.002  0.4860  1.2557 -0.4005
  371MOL0     N48891   1.863   9.392   2.988  0.2297  0.7197 -0.8259
  371MOL0     C48892   1.324   9.926   2.012 -0.4252 -0.1289  0.8284
  371MOL0     C48893   1.248   9.931   1.897 -1.1964  0.5578  0.4566
  371MOL0     C48894   0.937   9.819   1.572  0.0962 -0.2374 -0.8292
  371MOL0     C48895   0.837   9.723   1.528 -0.8836  0.1034 -0.9928
  371MOL0     C48896   0.779   9.734   1.401  0.8496 -0.1067 -0.7142
  371MOL0     C48897   0.795   9.853   1.329 -0.1107  0.3704  0.0933
  371MOL0     O48898   0.742   9.877   1.209 -0.4110  0.2704 -0.5105
  371MOL0     C48899   0.654   9.788   1.142 -0.4097  0.8988 -1.7494
  371MOL0     C48900   0.678   9.785   0.996  0.0754 -0.7503  0.5100
  371MOL0     C48901   0.622   9.662   0.921 -0.2518 -0.3586 -0.1937
  371MOL0     C48902   0.610   9.672   0.772 -0.6007 -0.4562 -0.1463
  371MOL0     C48903   0.743   9.691   0.717  0.1608 -0.3251 -0.5265
  371MOL0     C48904   0.858   9.696   0.670  1.1111  0.3686  0.5480
  371MOL0     C48905   0.884   9.947   1.378 -1.1140 -0.4102  0.3147
  371MOL0     C48906   0.949   9.937   1.502 -0.0625  0.4560 -0.7359
  371MOL0     H48907   1.151   9.611   1.871  2.9072 -1.1671 -0.5857
  371MOL0     H48908   1.288   9.591   2.087 -2.7185 -0.9056 -1.7066
  371MOL0     H48909   1.251   9.909   2.343 -0.0005 -0.5611  3.9559
  371MOL0     H48910   1.353  10.012   2.259  2.8291 -0.1170 -0.5211
  371MOL0     H48911   1.406   9.993   2.486 -1.3517 -1.5166  0.3268
  371MOL0     H48912   1.549   9.927   2.395  0.0523  0.1011  1.7219
  371MOL0     H48913   1.439   9.694   2.431 -0.1819  0.1905 -0.4828
  371MOL0     H48914   1.338   9.764   2.540 -0.3550  0.6047 -1.8753
  371MOL0     H48915   1.637   9.767   2.579 -0.2774 -0.5462 -0.7143
  371MOL0     H48916   1.513   9.828   2.688 -0.3283 -1.1868  1.8820
  371MOL0     H48917   1.550   9.542   2.607 -1.1669  0.4450 -0.6272
  371MOL0     H48918   1.451   9.598   2.742 -0.7933  3.1782 -0.2181
  371MOL0     H48919   1.656   9.519   2.841 -2.4289 -0.8236 -1.1110
  371MOL0     H48920   1.675   9.684   2.846 -0.9925 -1.8354  2.2291
  371MOL0     H48921   1.797   9.483   2.652 -0.1371 -0.3876 -0.7563
  371MOL0     H48922   1.839   9.648   2.644 -0.3076 -1.2237 -0.7435
  371MOL0     H48923   1.894   9.622   2.897 -0.9902 -0.0995 -0.8751
  371MOL0     H48924   2.006   9.578   2.765 -1.0992  0.5073 -1.5986
  371MOL0     H48925   1.959   9.283   2.699 -0.9476  1.7794 -0.3042
  371MOL0     H48926   1.879   9.022   2.780 -1.7728 -2.8427  2.3058
  371MOL0     H48927   1.901   9.000   2.949 -1.5954 -0.0104 -0.5817
  371MOL0     H48928   2.137   9.068   2.935  0.7107  2.6401 -2.8106
  371MOL0     H48929   2.119   9.082   2.751  2.4350  1.2013  0.2589
  371MOL0     H48930   2.231   8.874   2.843 -0.1575  2.0533 -2.5224
  371MOL0     H48931   2.056   8.829   2.878  0.3719 -1.6891 -0.1101
  371MOL0     H48932   2.153   8.880   2.601  1.1415 -0.4209 -0.0170
  371MOL0     H48933   1.992   8.831   2.659 -0.1621 -0.9102 -0.4099
  371MOL0     H48934   1.903   8.619   2.585 -0.3395  0.2715 -1.8378
  371MOL0     H48935   1.868   8.490   2.373  0.3517 -1.5720 -0.6677
  371MOL0     H48936   1.979   8.158   2.046  1.0692  0.4917 -0.5525
  371MOL0     H48937   1.976   8.134   1.809 -0.4890  0.1856 -0.0630
  371MOL0     H48938   1.940   8.132   1.575  0.7109  1.2595 -0.8118
  371MOL0     H48939   2.043   8.260   1.620 -0.7967 -0.3394  2.6865
  371MOL0     H48940   2.060   8.221   1.379  1.0979  1.6972  0.4734
  371MOL0     H48941   1.982   8.378   1.402  0.9198 -0.7974 -2.1815
  371MOL0     H48942   1.758   8.294   1.376  2.1093  1.1394  0.6001
  371MOL0     H48943   1.826   8.127   1.347  0.2106 -0.7125  0.7762
  371MOL0     H48944   1.754   8.321   1.178  0.8670  2.0279  1.2572
  371MOL0     H48945   1.927   8.341   1.165 -0.8458  1.0180  1.9636
  371MOL0     H48946   1.804   8.181   0.993  1.3131 -1.7195 -1.0244
  371MOL0     H48947   1.774   8.075   1.119  0.3398 -0.7813  1.2128
  371MOL0     H48948   2.044   8.052   1.140 -1.1819 -0.7794 -0.0102
  371MOL0     H48949   2.044   8.177   1.029  2.5846 -0.4869  0.8439
  371MOL0     H48950   1.861   7.979   0.923 -0.6518 -2.1619  1.9066
  371MOL0     H48951   2.033   7.995   0.873 -0.0777  0.9167 -0.4283
  371MOL0     H48952   1.893   7.827   1.091 -0.1624  1.1532 -0.2003
  371MOL0     H48953   2.064   7.826   1.068  0.7026  1.0807  1.5592
  371MOL0     H48954   1.781   8.518   1.766  3.1578 -0.7603 -0.7368
  371MOL0     H48955   1.818   8.555   2.020 -0.4207 -0.3432  0.6897
  371MOL0     H48956   2.288   8.441   2.342 -0.5812  1.0419 -1.6292
  371MOL0     H48957   2.332   8.558   2.553  1.1269  2.2583 -0.5267
  371MOL0     H48958   1.380  10.017   2.032  0.0633 -0.8244  2.8778
  371MOL0     H48959   1.248  10.024   1.841  2.7278 -0.5331 -1.7450
  371MOL0     H48960   0.824   9.636   1.593  3.9667 -2.0713 -2.5123
  371MOL0     H48961   0.712   9.654   1.371  2.1360 -1.7109  0.5072
  371MOL0     H48962   0.553   9.815   1.173 -0.7061 -2.1189  0.3442
  371MOL0     H48963   0.684   9.684   1.162  0.6305  1.7194  1.4847
  371MOL0     H48964   0.638   9.876   0.951  1.9794 -0.0840  0.0678
  371MOL0     H48965   0.784   9.807   0.981  0.0394  0.5574  1.9412
  371MOL0     H48966   0.520   9.642   0.956 -0.6043  0.3294 -0.8079
  371MOL0     H48967   0.691   9.582   0.949 -1.6811 -0.2506  4.4772
  371MOL0     H48968   0.572   9.577   0.732 -1.6754 -1.5942  3.1975
  371MOL0     H48969   0.544   9.754   0.742 -1.8464 -1.8388 -1.3721
  371MOL0     H48970   0.958   9.702   0.633 -0.0713  0.1494 -3.1205
  371MOL0     H48971   0.895  10.031   1.311 -0.8058 -1.1976 -0.6512
  371MOL0     H48972   1.018  10.019   1.521 -0.8835  1.0149 -0.1424
  372MOL0     O48973  10.392   6.606   6.706 -0.0696  0.4434  0.0739
  372MOL0     C48974  10.330   6.584   6.813  0.1977  0.3764 -0.6913
  372MOL0     O48975  10.202   6.537   6.822 -0.4757 -0.1383  0.4231
  372MOL0     C48976  10.134   6.534   6.703  0.2996 -0.8145 -0.0089
  372MOL0     C48977  10.078   6.660   6.671 -0.0722  0.0394 -1.0578
  372MOL0     C48978  10.010   6.679   6.555 -0.5508  0.2387  0.4206
  372MOL0     C48979   9.995   6.567   6.462  0.1657 -1.0753 -1.3975
  372MOL0     O48980   9.929   6.564   6.349  0.4041 -0.0684  0.5739
  372MOL0     C48981   9.977   6.651   6.241  0.5270  0.4464 -0.0437
  372MOL0     C48982   9.889   6.653   6.118 -0.9444  0.6773 -0.9017
  372MOL0     C48983   9.854   6.791   6.079  0.2457  0.1951  0.0092
  372MOL0     C48984   9.781   6.804   5.949  0.7720  0.1473  0.2017
  372MOL0     C48985   9.754   6.949   5.912  0.2392 -0.3335  0.3020
  372MOL0     C48986   9.664   6.954   5.783  0.1665 -0.1878 -0.3530
  372MOL0     C48987   9.633   7.108   5.735 -1.2076  1.1677 -0.9866
  372MOL0     C48988   9.510   7.106   5.652  0.4103 -0.4725  0.0778
  372MOL0     N48989   9.517   7.024   5.533 -0.1198 -0.0369  0.1688
  372MOL0     C48990   9.562   7.067   5.406 -0.0515  0.8198 -0.4466
  372MOL0     C48991   9.548   6.960   5.325  0.4467  0.1428  0.0192
  372MOL0     C48992   9.596   6.982   5.177  0.5503 -0.4941 -0.0063
  372MOL0     C48993   9.525   6.877   5.082 -0.7037 -0.2446 -0.6577
  372MOL0     C48994   9.539   6.926   4.938 -0.6945 -0.2915  0.1203
  372MOL0     C48995   9.688   6.924   4.894 -0.1267  0.1585  0.3208
  372MOL0     O48996   9.727   6.792   4.880  0.7299 -0.9045 -0.3637
  372MOL0     C48997   9.863   6.770   4.873  0.3792  0.1613  0.3005
  372MOL0     C48998   9.893   6.635   4.867  0.4371 -0.2593  0.3888
  372MOL0     C48999  10.025   6.585   4.870  0.3139  0.2391  0.3619
  372MOL0     C49000  10.134   6.670   4.884  0.3662 -0.4380  0.2423
  372MOL0     C49001  10.274   6.615   4.892 -0.7226  0.3797 -0.9337
  372MOL0     O49002  10.382   6.701   4.871  0.0225 -0.5492 -0.1739
  372MOL0     C49003  10.504   6.642   4.878 -0.5477  0.0482 -0.1470
  372MOL0     C49004  10.567   6.588   4.767  0.7588  0.4636 -0.4544
  372MOL0     C49005  10.707   6.554   4.775  1.6525 -0.4099 -0.1815
  372MOL0     C49006  10.771   6.565   4.896 -0.3550  0.8984 -0.8591
  372MOL0     O49007  10.903   6.523   4.910 -0.0820 -0.4434 -0.0052
  372MOL0     C49008  10.920   6.382   4.928 -0.2958 -0.3039 -0.0157
  372MOL0     C49009  11.057   6.368   4.986  0.0963 -0.3791 -0.1661
  372MOL0     C49010  11.092   6.223   5.003  0.0167  0.9137  0.5858
  372MOL0     C49011  11.153   6.167   4.866  0.6994 -0.3300 -0.2933
  372MOL0     C49012  11.111   6.032   4.827  0.6452  0.3485 -1.0906
  372MOL0     C49013  11.227   5.937   4.771  0.7227  0.4457 -0.1202
  372MOL0     C49014  11.170   5.791   4.767 -0.6019 -0.4684  0.6780
  372MOL0     C49015  11.060   5.757   4.666 -0.0391  0.1127 -1.1584
  372MOL0    Cl49016  11.091   5.798   4.487 -0.1929 -0.4279 -0.0401
  372MOL0     C49017  10.701   6.604   5.010  1.0006  0.7411  1.0128
  372MOL0     C49018  10.576   6.653   4.997 -0.0201 -0.3819 -0.0041
  372MOL0     O49019  10.280   6.491   4.909  0.8789  0.0733  0.1535
  372MOL0     C49020  10.107   6.810   4.882  0.0111 -0.1310 -0.3439
  372MOL0     C49021   9.974   6.854   4.879  1.2933 -0.3530 -0.0606
  372MOL0     N49022   9.500   6.859   5.398 -0.4128  0.6819 -0.8887
  372MOL0     N49023   9.478   6.898   5.516  0.6508  0.6647 -0.1295
  372MOL0     C49024  10.047   6.448   6.500 -0.4985  0.0250  0.1516
  372MOL0     C49025  10.114   6.428   6.621 -0.7377 -0.0288  1.2754
  372MOL0     C49026  10.417   6.564   6.927 -0.3403  0.0421  0.6169
  372MOL0     C49027  10.554   6.605   6.911 -0.7805 -0.2311  0.0684
  372MOL0     C49028  10.644   6.591   7.016  0.6499  0.4541 -0.5263
  372MOL0     C49029  10.593   6.552   7.141  0.4507  0.4083  0.4305
  372MOL0     O49030  10.676   6.549   7.247  0.6002  0.0078 -0.9206
  372MOL0     C49031  10.763   6.662   7.268 -0.2528  0.3710 -0.5249
  372MOL0     C49032  10.746   6.726   7.412 -0.6368 -0.1463 -0.4376
  372MOL0     C49033  10.830   6.854   7.429 -0.4560 -0.1776  0.2141
  372MOL0     C49034  10.814   6.968   7.328 -0.2610  0.0741  0.0049
  372MOL0     C49035  10.673   7.002   7.305  0.4124  0.3304 -0.1105
  372MOL0     C49036  10.559   7.011   7.285  1.1906 -0.9690 -0.4350
  372MOL0     C49037  10.459   6.500   7.153  0.2195 -0.7361 -0.7612
  372MOL0     C49038  10.368   6.500   7.043 -0.4268 -0.8784  0.9558
  372MOL0     H49039  10.087   6.741   6.743 -3.2388  0.0596 -0.5550
  372MOL0     H49040   9.977   6.780   6.533  0.7872  1.6905  4.2664
  372MOL0     H49041  10.082   6.625   6.225  0.4507 -0.4561  0.7822
  372MOL0     H49042   9.972   6.750   6.286 -0.2370  0.6703 -0.6062
  372MOL0     H49043   9.800   6.595   6.146  0.6987 -0.8933  1.5260
  372MOL0     H49044   9.935   6.598   6.035 -2.1571 -4.4146  1.3738
  372MOL0     H49045   9.944   6.854   6.079 -0.7148  1.6377  0.7732
  372MOL0     H49046   9.785   6.836   6.152  2.2680  3.4680  0.1436
  372MOL0     H49047   9.850   6.770   5.872 -1.1780  1.8955 -2.4557
  372MOL0     H49048   9.689   6.744   5.952  0.5779  0.4445  0.2525
  372MOL0     H49049   9.848   7.003   5.903 -0.3599  0.3676 -3.1448
  372MOL0     H49050   9.683   6.991   5.984  1.9571  0.9297  1.3216
  372MOL0     H49051   9.575   6.894   5.805 -1.1247  1.6547 -0.3782
  372MOL0     H49052   9.727   6.898   5.712  2.0614  1.1880  0.1593
  372MOL0     H49053   9.623   7.169   5.825 -0.2657  0.7476 -0.5918
  372MOL0     H49054   9.718   7.148   5.679  0.5180 -0.3079  0.4774
  372MOL0     H49055   9.480   7.206   5.619  1.7247 -0.3841 -0.9170
  372MOL0     H49056   9.432   7.078   5.723 -0.9640  2.7366  0.0003
  372MOL0     H49057   9.603   7.162   5.376  2.0459 -0.3168 -1.4195
  372MOL0     H49058   9.705   6.979   5.184  0.6151  1.3716  0.2020
  372MOL0     H49059   9.560   7.083   5.158  0.5737  0.1674  3.0146
  372MOL0     H49060   9.419   6.861   5.105  0.0815 -2.3894  2.0331
  372MOL0     H49061   9.574   6.780   5.097  0.3438  0.1058 -1.6667
  372MOL0     H49062   9.478   6.865   4.870 -3.1448  2.5242 -0.4187
  372MOL0     H49063   9.508   7.029   4.923  0.2804 -0.2356 -1.6609
  372MOL0     H49064   9.738   6.985   4.969  1.6776  1.9648 -2.2185
  372MOL0     H49065   9.696   6.987   4.805 -4.3914 -1.2727 -1.3474
  372MOL0     H49066   9.804   6.573   4.868  0.2055  0.0544  2.0952
  372MOL0     H49067  10.048   6.481   4.851  1.0524  0.5592 -0.5598
  372MOL0     H49068  10.516   6.583   4.671  2.2903 -3.7475 -1.2466
  372MOL0     H49069  10.748   6.520   4.681  1.9456  0.7619 -0.4901
  372MOL0     H49070  10.907   6.335   4.830  2.1079  2.7189 -1.9780
  372MOL0     H49071  10.847   6.331   4.991  0.6511 -2.3070 -0.4553
  372MOL0     H49072  11.055   6.415   5.085  1.5524 -1.6470  0.4980
  372MOL0     H49073  11.138   6.418   4.932  1.1461  0.4875  2.0537
  372MOL0     H49074  11.004   6.165   5.033  1.8067 -1.3523  1.7578
  372MOL0     H49075  11.161   6.210   5.086  1.0573 -0.5922 -0.4579
  372MOL0     H49076  11.121   6.245   4.797 -2.2606  2.4988  3.7753
  372MOL0     H49077  11.262   6.173   4.864  0.7262 -0.8255 -2.6434
  372MOL0     H49078  11.025   6.039   4.760 -0.0363  0.8129 -0.1872
  372MOL0     H49079  11.063   5.985   4.913  0.8568  2.6864  0.3735
  372MOL0     H49080  11.320   5.951   4.827  1.0619 -0.4567 -0.4413
  372MOL0     H49081  11.257   5.960   4.668 -2.6054 -0.3393 -1.3861
  372MOL0     H49082  11.246   5.715   4.748 -1.4634 -1.2201  0.1815
  372MOL0     H49083  11.136   5.776   4.870 -0.0792  3.0255  1.4760
  372MOL0     H49084  10.974   5.823   4.682 -0.2811 -0.1316 -1.4315
  372MOL0     H49085  11.028   5.654   4.685  0.0333  0.4924  1.3894
  372MOL0     H49086  10.747   6.608   5.108 -1.1937 -1.4602  2.2402
  372MOL0     H49087  10.526   6.698   5.082 -0.8533 -1.4617  0.1010
  372MOL0     H49088  10.185   6.882   4.858 -0.6999  0.9291  0.4448
  372MOL0     H49089   9.948   6.956   4.856 -1.6233 -0.4342  2.2450
  372MOL0     H49090  10.036   6.357   6.442  2.7146  0.9690 -2.2783
  372MOL0     H49091  10.160   6.332   6.639 -2.4846 -1.3073 -0.6409
  372MOL0     H49092  10.587   6.658   6.822 -1.0983 -1.6512 -0.9305
  372MOL0     H49093  10.743   6.632   6.999 -0.2127  1.7995 -2.6868
  372MOL0     H49094  10.759   6.748   7.201 -0.8491  1.3586  0.7474
  372MOL0     H49095  10.862   6.615   7.275  0.0957  1.3236  2.8749
  372MOL0     H49096  10.641   6.756   7.421 -0.5289 -0.0900  0.7660
  372MOL0     H49097  10.772   6.653   7.489  2.6910  1.3598  0.0107
  372MOL0     H49098  10.931   6.816   7.410 -0.3527  0.4203 -0.4934
  372MOL0     H49099  10.829   6.893   7.531  2.7800  3.1286 -0.8024
  372MOL0     H49100  10.864   7.064   7.347 -0.1336 -0.6246  4.1981
  372MOL0     H49101  10.840   6.939   7.226 -1.5596  1.8514 -0.8976
  372MOL0     H49102  10.456   7.023   7.258  0.1030 -1.4477  3.0158
  372MOL0     H49103  10.440   6.458   7.251  1.4495 -0.6821 -0.4777
  372MOL0     H49104  10.266   6.466   7.052 -1.0322 -0.3360 -2.4082
  373MOL0     O49105   4.677   8.903   8.026 -0.5771  1.6021 -0.0612
  373MOL0     C49106   4.794   8.872   8.038  1.5513  0.6541 -0.0646
  373MOL0     O49107   4.837   8.747   8.087 -0.3009  0.2156  0.9703
  373MOL0     C49108   4.747   8.638   8.083  0.0767  0.3129  0.1971
  373MOL0     C49109   4.642   8.620   7.990 -0.1589 -0.4670 -0.2978
  373MOL0     C49110   4.548   8.516   8.010 -0.7050 -0.2623  0.3873
  373MOL0     C49111   4.565   8.426   8.114  0.5814 -0.0993 -0.0599
  373MOL0     O49112   4.481   8.319   8.125  0.2968 -0.1938  0.3052
  373MOL0     C49113   4.342   8.360   8.141 -0.8543  0.4406  1.8234
  373MOL0     C49114   4.263   8.268   8.050 -1.2969 -0.7151 -0.1094
  373MOL0     C49115   4.258   8.312   7.907 -0.5075  0.1315  0.0602
  373MOL0     C49116   4.156   8.218   7.846 -1.3357 -0.1381  0.3772
  373MOL0     C49117   4.014   8.271   7.840 -0.1627  0.6901  0.5988
  373MOL0     C49118   3.910   8.161   7.810  0.3908  0.2172  0.0399
  373MOL0     C49119   3.907   8.133   7.659 -0.2213 -0.4574  0.8811
  373MOL0     C49120   3.787   8.031   7.618  1.4058 -0.5448 -0.0976
  373MOL0     N49121   3.779   7.924   7.716  0.3318 -0.3815 -0.3397
  373MOL0     C49122   3.851   7.812   7.694 -0.2437  0.1934 -0.1508
  373MOL0     C49123   3.798   7.720   7.782 -0.8069  0.6221  0.1147
  373MOL0     C49124   3.852   7.575   7.802 -0.0994  0.2053  0.0379
  373MOL0     C49125   3.817   7.482   7.674 -0.1853 -1.0817 -1.2488
  373MOL0     C49126   3.817   7.330   7.697 -0.1339  0.1353 -0.5400
  373MOL0     C49127   3.964   7.280   7.692  0.1674 -0.1711 -0.0862
  373MOL0     O49128   4.021   7.307   7.565 -0.8515  0.0719  0.4165
  373MOL0     C49129   4.149   7.257   7.557 -0.4298 -0.6227 -1.1956
  373MOL0     C49130   4.248   7.237   7.664 -0.1238  0.0265 -0.1851
  373MOL0     C49131   4.372   7.177   7.632  0.8789 -0.9454  0.6350
  373MOL0     C49132   4.411   7.147   7.501  0.9984 -0.5628  0.6478
  373MOL0     C49133   4.551   7.104   7.463  0.2023  0.2105 -0.2478
  373MOL0     O49134   4.614   7.015   7.554  0.0252 -0.6308 -0.1877
  373MOL0     C49135   4.716   6.943   7.516 -0.8574  0.3405 -0.9652
  373MOL0     C49136   4.718   6.863   7.400 -0.3457  0.0040 -0.1121
  373MOL0     C49137   4.831   6.777   7.370 -0.6103 -1.0000  0.4367
  373MOL0     C49138   4.941   6.779   7.452  1.3933  1.3436  0.4384
  373MOL0     O49139   5.061   6.715   7.424 -0.1967 -0.1543 -0.2977
  373MOL0     C49140   5.057   6.578   7.369  0.4308  0.2684 -0.9849
  373MOL0     C49141   5.197   6.537   7.315 -0.4836 -0.3816 -0.0441
  373MOL0     C49142   5.230   6.604   7.183  0.2016  1.3536 -0.2607
  373MOL0     C49143   5.356   6.547   7.113 -0.1705 -0.2614 -0.0676
  373MOL0     C49144   5.455   6.647   7.036  0.6058  0.0109 -0.2312
  373MOL0     C49145   5.577   6.593   6.969 -0.1462 -0.1549 -0.6420
  373MOL0     C49146   5.688   6.705   6.936  0.9998 -0.4284 -0.7259
  373MOL0     C49147   5.679   6.759   6.789  0.7336  0.1212  0.2076
  373MOL0    Cl49148   5.803   6.874   6.757 -0.3292  0.3152 -0.2778
  373MOL0     C49149   4.938   6.847   7.569  0.4676 -0.4201  0.0775
  373MOL0     C49150   4.827   6.926   7.607  1.8411 -0.3260 -0.2899
  373MOL0     O49151   4.590   7.126   7.356  0.2539 -0.2170  0.3545
  373MOL0     C49152   4.310   7.168   7.401 -0.9184  0.8784  0.2764
  373MOL0     C49153   4.187   7.222   7.425 -0.5882  0.3441 -0.0357
  373MOL0     N49154   3.692   7.782   7.847  0.2961  0.4021 -0.2300
  373MOL0     N49155   3.672   7.901   7.801 -0.6825 -0.1293  0.6032
  373MOL0     C49156   4.665   8.439   8.202  0.0995  0.0131 -0.8447
  373MOL0     C49157   4.761   8.545   8.184  0.7879  1.1620 -1.0978
  373MOL0     C49158   4.900   8.969   8.005  0.2938 -0.0267 -0.2568
  373MOL0     C49159   4.894   9.045   7.883 -0.5931  0.4888 -0.6893
  373MOL0     C49160   5.000   9.128   7.840 -0.5093 -0.0387 -0.3936
  373MOL0     C49161   5.125   9.117   7.899 -0.1555 -0.4194  0.5036
  373MOL0     O49162   5.224   9.198   7.848 -0.7023  1.1750  0.3993
  373MOL0     C49163   5.347   9.121   7.809 -0.5535 -0.8588 -0.4953
  373MOL0     C49164   5.476   9.191   7.829 -0.5149  0.6111  0.8572
  373MOL0     C49165   5.467   9.302   7.734 -0.3130  0.0951 -0.6795
  373MOL0     C49166   5.606   9.382   7.742 -0.9559  0.2807 -0.5386
  373MOL0     C49167   5.627   9.475   7.625 -0.8704  0.6957 -0.0795
  373MOL0     C49168   5.643   9.543   7.525 -0.7315 -0.2211 -0.1032
  373MOL0     C49169   5.135   9.056   8.027  0.0054  0.3713  0.5653
  373MOL0     C49170   5.023   8.979   8.073  0.0619  0.1769  0.6797
  373MOL0     H49171   4.621   8.684   7.905 -2.6506 -2.3123 -1.1877
  373MOL0     H49172   4.470   8.491   7.938 -1.0453 -2.0177  1.3105
  373MOL0     H49173   4.312   8.464   8.123  0.1448  1.4116  5.0606
  373MOL0     H49174   4.321   8.357   8.248  2.1149  3.3978  2.6778
  373MOL0     H49175   4.166   8.278   8.098 -1.9781  0.8333 -1.7022
  373MOL0     H49176   4.302   8.166   8.056  2.1022  0.4016 -0.6917
  373MOL0     H49177   4.360   8.291   7.874  0.7251  1.2954  2.8584
  373MOL0     H49178   4.233   8.418   7.900 -0.2351  0.0983 -1.9852
  373MOL0     H49179   4.192   8.208   7.743  0.9760 -0.4394  1.1648
  373MOL0     H49180   4.165   8.120   7.892  3.8257  0.7220  1.7978
  373MOL0     H49181   4.011   8.347   7.762  0.3818  1.9596  1.7805
  373MOL0     H49182   3.989   8.304   7.941 -2.6867 -1.4610  0.7940
  373MOL0     H49183   3.810   8.189   7.845  1.2157  2.8453  0.4924
  373MOL0     H49184   3.924   8.067   7.864  0.2216  0.2915  0.2125
  373MOL0     H49185   3.892   8.225   7.601  1.8650 -2.0434 -2.4567
  373MOL0     H49186   4.005   8.092   7.632  0.2082  1.2281 -0.2522
  373MOL0     H49187   3.798   7.992   7.517  1.3039 -1.6621  0.3076
  373MOL0     H49188   3.696   8.092   7.617  0.7793 -1.2236 -4.5133
  373MOL0     H49189   3.940   7.803   7.633 -0.4269  1.3494 -0.6288
  373MOL0     H49190   3.797   7.533   7.887  0.1544  1.0963  0.6609
  373MOL0     H49191   3.959   7.566   7.823 -0.1126 -2.9271 -0.7469
  373MOL0     H49192   3.883   7.504   7.589  1.4706  0.4186  0.3374
  373MOL0     H49193   3.717   7.516   7.644  1.0353  1.7995 -2.3750
  373MOL0     H49194   3.759   7.306   7.787 -1.2462  1.8134 -0.7576
  373MOL0     H49195   3.759   7.285   7.616 -1.4505  0.8592 -0.0439
  373MOL0     H49196   3.964   7.175   7.721 -1.3783  0.4499  2.3834
  373MOL0     H49197   4.024   7.336   7.764  1.0877 -1.0916 -0.1083
  373MOL0     H49198   4.222   7.271   7.763 -3.5911  1.4117 -1.4184
  373MOL0     H49199   4.449   7.172   7.708  2.9918 -0.8408 -1.3933
  373MOL0     H49200   4.633   6.862   7.333 -2.0972 -3.3046  1.8505
  373MOL0     H49201   4.820   6.717   7.281 -2.1367 -1.5457  0.9638
  373MOL0     H49202   4.989   6.576   7.282  1.3501  3.2452 -1.9042
  373MOL0     H49203   5.023   6.508   7.446  0.4729  0.4784 -0.7742
  373MOL0     H49204   5.197   6.429   7.297  2.1468 -0.6211  0.8662
  373MOL0     H49205   5.277   6.564   7.385 -0.4960 -0.5382  0.0298
  373MOL0     H49206   5.249   6.710   7.204  0.2157  1.5391 -1.1650
  373MOL0     H49207   5.147   6.597   7.112  0.1115 -0.4087 -0.0251
  373MOL0     H49208   5.415   6.516   7.200 -1.5717  0.2048  1.0842
  373MOL0     H49209   5.315   6.466   7.052 -3.1154  0.5496  0.6536
  373MOL0     H49210   5.487   6.721   7.110  1.0384  0.9144 -1.2999
  373MOL0     H49211   5.392   6.703   6.966  0.3142 -0.7118 -0.5585
  373MOL0     H49212   5.546   6.529   6.886  1.1108  0.5611 -1.7082
  373MOL0     H49213   5.633   6.521   7.029  0.7732  1.3194  0.3628
  373MOL0     H49214   5.685   6.787   7.009  1.9276 -1.4766  0.5358
  373MOL0     H49215   5.784   6.659   6.960  0.0215 -2.6229 -0.7673
  373MOL0     H49216   5.573   6.789   6.785  0.7775  1.2937  3.7659
  373MOL0     H49217   5.681   6.688   6.707 -2.4305 -0.0646  0.1511
  373MOL0     H49218   5.032   6.852   7.623  1.5478  1.0693 -1.7934
  373MOL0     H49219   4.817   6.987   7.696 -0.2585 -1.3635  0.2580
  373MOL0     H49220   4.330   7.125   7.303 -0.5635  2.8170 -0.5507
  373MOL0     H49221   4.123   7.241   7.339  2.3632 -0.2971 -2.5204
  373MOL0     H49222   4.686   8.369   8.283  0.5304  1.9335  0.7884
  373MOL0     H49223   4.838   8.551   8.260  0.4349 -0.2685 -0.5967
  373MOL0     H49224   4.798   9.054   7.831  0.8371 -3.6543 -4.7396
  373MOL0     H49225   4.990   9.200   7.760  0.9652  2.6805  1.7045
  373MOL0     H49226   5.348   9.101   7.701  0.6195 -0.3273 -0.5942
  373MOL0     H49227   5.349   9.024   7.861  0.6645 -1.5833 -1.8114
  373MOL0     H49228   5.480   9.224   7.933 -2.8452  1.4929  0.7276
  373MOL0     H49229   5.563   9.132   7.797 -1.6062 -0.0205 -1.0820
  373MOL0     H49230   5.377   9.360   7.755  0.2684  0.3522  1.3399
  373MOL0     H49231   5.459   9.261   7.633 -1.4458 -0.5364 -0.3506
  373MOL0     H49232   5.614   9.431   7.839  3.0901 -1.8000  0.3989
  373MOL0     H49233   5.691   9.314   7.733 -1.9734 -1.0968  0.0405
  373MOL0     H49234   5.693   9.607   7.454  0.8907 -1.2830  0.0232
  373MOL0     H49235   5.220   9.057   8.094  0.1822 -2.0592  0.4666
  373MOL0     H49236   5.035   8.912   8.157 -1.0832 -1.0419 -0.0850
  374MOL0     O49237   4.867   9.656   7.124 -1.0732  0.1952  0.6763
  374MOL0     C49238   4.926   9.600   7.029 -0.6615 -0.2462 -0.0362
  374MOL0     O49239   4.941   9.653   6.907  0.5115  0.2397  0.4123
  374MOL0     C49240   4.897   9.775   6.874  0.7941 -0.4054  1.0530
  374MOL0     C49241   4.977   9.845   6.804  0.3119  0.0461 -0.4389
  374MOL0     C49242   4.938   9.978   6.768 -0.0649  0.0654  0.2996
  374MOL0     C49243   4.815  10.027   6.813  0.4131  0.8885  0.1498
  374MOL0     O49244   4.782  10.155   6.770 -0.3089  0.0033  0.0650
  374MOL0     C49245   4.665  10.216   6.824  0.1396  0.1557  0.4967
  374MOL0     C49246   4.624  10.340   6.749  0.2467 -0.4879  0.1574
  374MOL0     C49247   4.734  10.448   6.733 -0.8254  0.4928  0.7721
  374MOL0     C49248   4.832  10.437   6.621 -0.4504 -0.9364 -0.2368
  374MOL0     C49249   4.904  10.572   6.614 -0.6827  0.8939 -0.0532
  374MOL0     C49250   4.900  10.622   6.471 -0.3185  0.5046 -0.0255
  374MOL0     C49251   4.958  10.758   6.451 -0.1485  0.1936 -0.0615
  374MOL0     C49252   5.106  10.781   6.490 -0.3188  0.1793 -0.8145
  374MOL0     N49253   5.207  10.738   6.389 -0.2813  0.0789  0.3429
  374MOL0     C49254   5.274  10.815   6.293  0.1617  0.2359 -0.1167
  374MOL0     C49255   5.343  10.720   6.227  0.5730 -0.2068  1.4019
  374MOL0     C49256   5.437  10.727   6.109 -0.5854 -0.2507 -0.5698
  374MOL0     C49257   5.563  10.810   6.151 -0.8240  0.2503  0.0215
  374MOL0     C49258   5.670  10.840   6.051 -0.6391 -0.9174  0.1947
  374MOL0     C49259   5.606  10.889   5.928  0.3740  0.8097 -0.8732
  374MOL0     O49260   5.720  10.914   5.850  0.4374 -0.8591 -0.0777
  374MOL0     C49261   5.772  11.040   5.825  1.4887  0.9948  0.6703
  374MOL0     C49262   5.685  11.139   5.777  0.8347  0.2071  0.6929
  374MOL0     C49263   5.735  11.266   5.737  0.4333 -1.2188  0.2774
  374MOL0     C49264   5.865  11.292   5.759  0.6153  0.5296  0.1001
  374MOL0     C49265   5.925  11.422   5.713 -1.0928  0.5490 -0.2415
  374MOL0     O49266   6.056  11.455   5.741  0.4641  0.2203 -0.3996
  374MOL0     C49267   6.104  11.564   5.670  0.0396  0.5196  0.0797
  374MOL0     C49268   6.056  11.697   5.688  0.4308 -0.3737  0.4263
  374MOL0     C49269   6.099  11.814   5.627 -0.6379 -0.0631 -0.1544
  374MOL0     C49270   6.225  11.798   5.566 -0.2243 -0.7995  0.8596
  374MOL0     O49271   6.281  11.917   5.510  0.7702 -0.2889  0.1070
  374MOL0     C49272   6.408  11.918   5.439  0.1706  0.2212  0.0256
  374MOL0     C49273   6.431  12.056   5.383  0.1573 -0.0824  0.2059
  374MOL0     C49274   6.332  12.077   5.260 -0.2952 -0.0933 -0.6397
  374MOL0     C49275   6.343  12.224   5.209  0.1327 -0.3035 -0.7713
  374MOL0     C49276   6.239  12.320   5.269  0.7988  1.9320 -0.6750
  374MOL0     C49277   6.089  12.285   5.237  0.6316 -0.1070 -0.1560
  374MOL0     C49278   6.065  12.236   5.099  0.1935  0.5431  1.6153
  374MOL0     C49279   5.905  12.234   5.076 -0.3908 -0.4814  0.5440
  374MOL0    Cl49280   5.848  12.393   5.019 -0.1988 -0.2482 -0.4873
  374MOL0     C49281   6.284  11.673   5.552  0.6919  0.6324  0.6946
  374MOL0     C49282   6.226  11.558   5.606 -0.1807 -0.5170  0.8924
  374MOL0     O49283   5.850  11.491   5.643  0.2014 -0.0410 -0.1188
  374MOL0     C49284   5.956  11.186   5.800  0.1675 -0.4256 -0.1293
  374MOL0     C49285   5.904  11.057   5.838  0.0179  0.6948  1.0180
  374MOL0     N49286   5.330  10.599   6.290 -0.1831  0.4799  0.0178
  374MOL0     N49287   5.252  10.612   6.384 -0.5573 -0.5640 -0.3394
  374MOL0     C49288   4.727   9.946   6.884  0.0229  0.2616 -0.7426
  374MOL0     C49289   4.770   9.815   6.912 -0.1146 -0.1167  0.0513
  374MOL0     C49290   4.955   9.455   7.050 -0.2533  0.4747 -0.1239
  374MOL0     C49291   4.961   9.365   6.944 -0.3844  0.4382  0.6064
  374MOL0     C49292   4.978   9.228   6.971  0.3580  0.0554  0.1711
  374MOL0     C49293   4.997   9.180   7.099 -0.7028  0.3347 -0.1670
  374MOL0     O49294   4.991   9.048   7.146 -0.1048 -0.3627  0.0705
  374MOL0     C49295   4.936   8.956   7.053  0.6129  0.5671  0.2395
  374MOL0     C49296   4.934   8.812   7.109 -0.3515 -1.2027 -0.2144
  374MOL0     C49297   4.885   8.720   6.998  0.0609 -0.1736 -0.5283
  374MOL0     C49298   4.870   8.582   7.052 -0.2053  0.2768 -0.4456
  374MOL0     C49299   4.996   8.522   7.098  0.2126 -0.0264  0.7507
  374MOL0     C49300   5.085   8.456   7.137 -0.4370 -0.1137 -0.3244
  374MOL0     C49301   5.005   9.272   7.206 -0.2173 -0.3357 -0.6096
  374MOL0     C49302   4.987   9.407   7.177  0.3285 -0.0060 -0.4920
  374MOL0     H49303   5.070   9.805   6.767  0.3692 -1.3931  1.1416
  374MOL0     H49304   5.010  10.037   6.713  2.6080 -2.4610  0.8271
  374MOL0     H49305   4.680  10.256   6.924 -1.6566  1.9045  0.1285
  374MOL0     H49306   4.585  10.142   6.814  1.1423 -0.8272 -0.6424
  374MOL0     H49307   4.540  10.379   6.808 -1.7787 -0.8420 -2.2836
  374MOL0     H49308   4.584  10.310   6.651  0.9861  0.4439 -0.4382
  374MOL0     H49309   4.789  10.450   6.827 -2.3368  2.7166  1.6775
  374MOL0     H49310   4.680  10.542   6.717 -2.8159 -0.8960 -1.3881
  374MOL0     H49311   4.906  10.357   6.634 -1.5109 -1.8188  0.6451
  374MOL0     H49312   4.768  10.413   6.535 -0.9718 -1.4411  0.2794
  374MOL0     H49313   5.010  10.566   6.639 -0.6897  2.1975  0.3307
  374MOL0     H49314   4.853  10.648   6.673 -0.6373  0.4568  0.5560
  374MOL0     H49315   4.801  10.613   6.425  0.4697 -1.0073 -1.5692
  374MOL0     H49316   4.963  10.561   6.406  0.3596  0.8043  0.3351
  374MOL0     H49317   4.960  10.784   6.345  3.3327  0.3352 -0.0703
  374MOL0     H49318   4.908  10.835   6.510  0.9775  0.6907  0.2622
  374MOL0     H49319   5.127  10.735   6.588  0.7639 -1.5939 -1.8322
  374MOL0     H49320   5.106  10.889   6.512 -2.1520 -0.0325  0.5223
  374MOL0     H49321   5.260  10.920   6.266 -3.6247 -1.0869 -4.7357
  374MOL0     H49322   5.391  10.782   6.027  0.7653  1.5617 -0.1769
  374MOL0     H49323   5.475  10.632   6.072 -0.6432 -0.6589  0.3879
  374MOL0     H49324   5.607  10.760   6.237 -1.5951 -0.6196 -0.0780
  374MOL0     H49325   5.539  10.910   6.189 -1.1167  0.1555  0.0940
  374MOL0     H49326   5.741  10.911   6.094 -0.6615 -2.5578  3.1709
  374MOL0     H49327   5.731  10.754   6.022  2.9487  1.4595  0.0749
  374MOL0     H49328   5.538  10.972   5.947  0.9178  0.8498  1.1834
  374MOL0     H49329   5.552  10.809   5.878 -1.8894  2.7047 -1.6054
  374MOL0     H49330   5.583  11.104   5.763  0.4155  2.1084 -1.7416
  374MOL0     H49331   5.667  11.342   5.701 -1.1418 -2.3904  0.6606
  374MOL0     H49332   5.975  11.709   5.760 -0.7753  1.1335 -1.0985
  374MOL0     H49333   6.052  11.911   5.641  0.7659  0.6566 -0.1378
  374MOL0     H49334   6.410  11.844   5.358 -2.2706  0.5322 -0.4107
  374MOL0     H49335   6.490  11.891   5.506  0.8762 -0.2166 -0.9770
  374MOL0     H49336   6.536  12.082   5.376  0.0082  0.3824 -0.3483
  374MOL0     H49337   6.399  12.123   5.464 -0.0449 -0.7199  0.6635
  374MOL0     H49338   6.231  12.038   5.277 -0.1594 -0.2626 -0.2022
  374MOL0     H49339   6.371  12.012   5.181 -1.9053 -1.3842 -0.4185
  374MOL0     H49340   6.433  12.274   5.246 -1.0202  0.7137  0.7822
  374MOL0     H49341   6.336  12.231   5.100  0.7793 -0.1452 -0.8047
  374MOL0     H49342   6.255  12.423   5.234 -4.5920  3.1198 -0.5346
  374MOL0     H49343   6.248  12.329   5.378 -3.1379  2.1922 -0.2354
  374MOL0     H49344   6.026  12.373   5.253  0.2503 -0.2104 -1.0785
  374MOL0     H49345   6.056  12.206   5.305 -0.1667 -0.0554 -0.4698
  374MOL0     H49346   6.124  12.299   5.032 -1.3410 -0.6304 -1.0341
  374MOL0     H49347   6.100  12.134   5.081  0.0439  0.7048  0.3368
  374MOL0     H49348   5.848  12.210   5.166  2.4617  0.6288  2.8438
  374MOL0     H49349   5.867  12.161   5.005 -2.7180  1.1623 -0.0352
  374MOL0     H49350   6.374  11.649   5.495 -0.7909 -1.4248 -0.9084
  374MOL0     H49351   6.264  11.460   5.576 -1.8545 -0.2850 -2.4551
  374MOL0     H49352   6.063  11.206   5.796  0.0158  0.4913  0.1261
  374MOL0     H49353   5.975  10.977   5.858 -0.2864  0.3236  0.6407
  374MOL0     H49354   4.626   9.978   6.911  0.4228 -1.0120  2.7984
  374MOL0     H49355   4.717   9.739   6.969  1.0261 -0.6154  0.4873
  374MOL0     H49356   4.925   9.397   6.846  1.5303  2.0414  0.3671
  374MOL0     H49357   4.948   9.168   6.886  1.6379  0.1753 -0.3863
  374MOL0     H49358   4.991   8.971   6.960  1.0935  2.5894  0.8029
  374MOL0     H49359   4.837   8.991   7.022  0.7672  0.2041 -0.7128
  374MOL0     H49360   5.032   8.781   7.147 -0.4854 -0.5926  0.6404
  374MOL0     H49361   4.860   8.807   7.188  0.8730  0.1684  1.0715
  374MOL0     H49362   4.960   8.719   6.918 -0.2189  1.1941 -0.8292
  374MOL0     H49363   4.796   8.759   6.949  1.1478  0.8593 -1.7309
  374MOL0     H49364   4.808   8.589   7.142  1.0041  0.3520  0.3973
  374MOL0     H49365   4.828   8.528   6.966 -1.1087  4.3955 -2.9005
  374MOL0     H49366   5.168   8.399   7.173 -1.4184 -1.5113 -0.2000
  374MOL0     H49367   5.037   9.246   7.306  1.8003  2.5599 -0.3819
  374MOL0     H49368   4.985   9.484   7.253  2.2615 -0.3183 -0.0536
  375MOL0     O49369   5.473   8.518   6.637 -0.1197  0.3170 -0.0963
  375MOL0     C49370   5.445   8.607   6.714 -0.1538  0.5622 -0.5531
  375MOL0     O49371   5.324   8.632   6.775 -0.5079  0.5424 -0.8711
  375MOL0     C49372   5.230   8.532   6.769 -0.1952 -0.2524 -0.2440
  375MOL0     C49373   5.258   8.402   6.814 -0.0147  0.1106 -0.2656
  375MOL0     C49374   5.159   8.303   6.804 -0.5540 -0.5119  0.4479
  375MOL0     C49375   5.033   8.336   6.751 -0.4766 -0.2265 -0.3790
  375MOL0     O49376   4.920   8.253   6.765  0.1489 -0.0784  0.9747
  375MOL0     C49377   4.937   8.132   6.680 -0.4650 -0.0370  0.0856
  375MOL0     C49378   4.805   8.079   6.628  0.0413 -0.4006 -0.3850
  375MOL0     C49379   4.807   7.927   6.595 -0.0900  0.5728  0.1332
  375MOL0     C49380   4.664   7.876   6.544  0.2499 -0.1143 -0.0212
  375MOL0     C49381   4.687   7.734   6.498  0.8304  0.2762  0.7566
  375MOL0     C49382   4.563   7.652   6.466 -0.0706  0.3716 -0.3905
  375MOL0     C49383   4.445   7.738   6.403  0.4513  0.3837 -0.1513
  375MOL0     C49384   4.468   7.777   6.265  0.6722 -1.3341 -0.1535
  375MOL0     N49385   4.486   7.663   6.172  0.5352  0.0287  0.7859
  375MOL0     C49386   4.608   7.604   6.133 -0.9570 -0.2398  0.6625
  375MOL0     C49387   4.578   7.491   6.070 -0.8549  0.0733 -0.8078
  375MOL0     C49388   4.664   7.387   6.004 -0.1305  0.3661 -0.3993
  375MOL0     C49389   4.653   7.252   6.078 -0.3111  0.2532 -0.3268
  375MOL0     C49390   4.722   7.145   5.991 -0.0823  1.2920 -0.2559
  375MOL0     C49391   4.706   7.006   6.054  0.0841  0.7066  0.2572
  375MOL0     O49392   4.769   6.903   5.978  0.2974 -0.7888  0.1199
  375MOL0     C49393   4.794   6.786   6.025  0.2875 -0.2990 -0.4253
  375MOL0     C49394   4.734   6.736   6.140 -0.4863  0.4713  0.7330
  375MOL0     C49395   4.770   6.607   6.184 -0.3478  0.1610 -0.0445
  375MOL0     C49396   4.869   6.526   6.116 -0.3720  0.8984 -0.0799
  375MOL0     C49397   4.922   6.401   6.175  0.0022  0.8495  0.7531
  375MOL0     O49398   4.996   6.325   6.086  0.4903  0.0712  0.9934
  375MOL0     C49399   5.038   6.219   6.143 -0.2136  0.6536  0.2339
  375MOL0     C49400   5.172   6.204   6.173 -0.1015  0.1053 -1.4145
  375MOL0     C49401   5.222   6.090   6.232 -1.2344  0.2137 -0.3347
  375MOL0     C49402   5.141   5.977   6.263  0.3193 -0.0511  0.2428
  375MOL0     O49403   5.184   5.860   6.328  0.1930  0.0655 -0.6282
  375MOL0     C49404   5.326   5.816   6.321 -0.3012 -1.2018  0.2444
  375MOL0     C49405   5.355   5.683   6.397  0.3239 -0.1622 -0.0317
  375MOL0     C49406   5.259   5.565   6.387 -0.0752 -0.8372  1.4184
  375MOL0     C49407   5.219   5.521   6.241  0.2252 -0.4793  0.6952
  375MOL0     C49408   5.284   5.387   6.193  1.3700  0.2079 -0.6720
  375MOL0     C49409   5.439   5.386   6.187  0.9707  0.5430  0.1329
  375MOL0     C49410   5.489   5.250   6.169 -1.0259 -0.0272 -0.0938
  375MOL0     C49411   5.649   5.243   6.161 -0.2136  0.2603 -0.1485
  375MOL0    Cl49412   5.717   5.378   6.059  0.1885  0.2969 -0.1328
  375MOL0     C49413   5.008   5.986   6.219  0.3183 -0.3825 -0.2608
  375MOL0     C49414   4.956   6.101   6.163 -0.4546  0.7101  0.4175
  375MOL0     O49415   4.879   6.367   6.288  0.1746 -0.5803 -0.0162
  375MOL0     C49416   4.912   6.575   5.996 -0.0489  0.8047  0.5202
  375MOL0     C49417   4.874   6.700   5.951 -0.4766 -0.0977 -0.3910
  375MOL0     N49418   4.446   7.468   6.080  0.3565  0.4819  0.0852
  375MOL0     N49419   4.391   7.566   6.152 -0.0088 -0.3303  1.3928
  375MOL0     C49420   5.007   8.464   6.709  0.6510  0.0026 -0.2645
  375MOL0     C49421   5.103   8.567   6.722  0.0596  0.4282  0.3314
  375MOL0     C49422   5.545   8.718   6.733 -0.1899  0.6997  0.6068
  375MOL0     C49423   5.639   8.740   6.628  0.0798 -0.1808  0.0144
  375MOL0     C49424   5.731   8.843   6.637 -0.6037  0.2982 -0.2419
  375MOL0     C49425   5.719   8.940   6.742 -1.0699  0.9560  0.0692
  375MOL0     O49426   5.794   9.061   6.756  1.0812  0.2748 -0.6679
  375MOL0     C49427   5.907   9.083   6.666  1.5083  0.2800 -0.3240
  375MOL0     C49428   5.987   9.210   6.701 -0.2372  0.2940 -0.8556
  375MOL0     C49429   6.059   9.211   6.829  0.3127  0.8258  0.2025
  375MOL0     C49430   6.085   9.350   6.897  0.8088  0.7360  1.0280
  375MOL0     C49431   6.164   9.435   6.814  0.2094 -0.6347  0.0865
  375MOL0     C49432   6.232   9.517   6.754  0.1959  1.1532  0.4948
  375MOL0     C49433   5.620   8.912   6.841 -0.4647 -0.4015  0.2604
  375MOL0     C49434   5.549   8.797   6.837  1.0548 -0.7911 -1.1374
  375MOL0     H49435   5.347   8.375   6.870 -1.4570 -1.2348  1.5207
  375MOL0     H49436   5.175   8.202   6.839 -0.1181 -0.2956  0.8895
  375MOL0     H49437   4.989   8.058   6.743  4.0990  2.5047 -0.2767
  375MOL0     H49438   5.013   8.158   6.606 -1.1706  2.2577  0.1004
  375MOL0     H49439   4.775   8.139   6.541  0.9848  0.0175 -0.4375
  375MOL0     H49440   4.732   8.102   6.706  2.8201  2.9395  1.5869
  375MOL0     H49441   4.844   7.858   6.671  1.6289  0.3900 -0.8319
  375MOL0     H49442   4.873   7.919   6.508  0.3526  1.8378  0.3284
  375MOL0     H49443   4.584   7.897   6.615 -1.9330  1.7877 -2.8215
  375MOL0     H49444   4.639   7.937   6.456 -0.8504 -1.1783 -0.4724
  375MOL0     H49445   4.757   7.682   6.564  1.0627  0.5922  0.7643
  375MOL0     H49446   4.746   7.742   6.407  2.2627  1.1342  1.7213
  375MOL0     H49447   4.522   7.620   6.562 -0.9727  2.3938 -0.0628
  375MOL0     H49448   4.580   7.564   6.402  0.2866  1.3348 -1.6496
  375MOL0     H49449   4.367   7.661   6.401  1.8029 -1.0397 -1.4479
  375MOL0     H49450   4.416   7.821   6.467 -0.4280 -0.7656  0.9916
  375MOL0     H49451   4.559   7.835   6.249 -0.9751  1.3386 -0.3498
  375MOL0     H49452   4.384   7.842   6.236 -0.2598 -3.1786 -1.9067
  375MOL0     H49453   4.703   7.656   6.142 -1.6105  0.8679  1.4567
  375MOL0     H49454   4.766   7.423   5.989  1.2895 -2.6999  1.1671
  375MOL0     H49455   4.636   7.364   5.901  0.0584 -1.0253 -0.1629
  375MOL0     H49456   4.551   7.217   6.098  0.7336 -1.4099  2.6928
  375MOL0     H49457   4.692   7.269   6.179 -0.4037  0.1399 -0.2720
  375MOL0     H49458   4.685   7.137   5.888  1.9853  1.6071 -1.0782
  375MOL0     H49459   4.829   7.166   5.982 -0.5144  3.8220 -0.2864
  375MOL0     H49460   4.597   7.000   6.051 -0.0410  2.3926 -2.3360
  375MOL0     H49461   4.745   6.999   6.156  0.1240 -1.9179  0.1144
  375MOL0     H49462   4.658   6.788   6.198 -2.3309 -2.1234  0.8257
  375MOL0     H49463   4.725   6.573   6.277 -2.9771 -0.8745 -1.5961
  375MOL0     H49464   5.241   6.285   6.156 -0.9376  1.5782  1.6119
  375MOL0     H49465   5.326   6.090   6.263 -1.3584  1.6596  0.1477
  375MOL0     H49466   5.391   5.894   6.361 -2.2586  1.0085 -0.6462
  375MOL0     H49467   5.349   5.795   6.216 -2.5196 -0.6594 -0.4193
  375MOL0     H49468   5.360   5.708   6.503 -0.3849  0.2673 -0.0938
  375MOL0     H49469   5.449   5.639   6.361 -1.3189 -3.4677 -0.7003
  375MOL0     H49470   5.170   5.602   6.440 -0.5558  4.3105 -2.1956
  375MOL0     H49471   5.300   5.474   6.432  0.4226 -1.9748 -1.1529
  375MOL0     H49472   5.114   5.493   6.238  0.4028 -1.0592 -1.1101
  375MOL0     H49473   5.237   5.605   6.174 -3.0558 -0.6490 -0.5311
  375MOL0     H49474   5.230   5.374   6.099 -2.9793 -1.2190  1.7262
  375MOL0     H49475   5.244   5.309   6.259  0.5659  0.1044 -1.2679
  375MOL0     H49476   5.484   5.427   6.277  0.5323 -2.3387  1.7925
  375MOL0     H49477   5.458   5.452   6.102  0.7483  1.1021  0.5117
  375MOL0     H49478   5.459   5.192   6.257 -1.5331  2.5486  1.5424
  375MOL0     H49479   5.451   5.207   6.076 -4.2621  1.5041  0.4083
  375MOL0     H49480   5.680   5.143   6.130 -0.4672  0.1088  0.0750
  375MOL0     H49481   5.689   5.250   6.263  3.4820 -2.7619 -1.1404
  375MOL0     H49482   4.934   5.910   6.240  1.8894 -1.4329  1.7938
  375MOL0     H49483   4.853   6.110   6.128  0.0365 -0.8499 -1.6182
  375MOL0     H49484   4.970   6.527   5.918 -3.3194 -1.1023 -0.9409
  375MOL0     H49485   4.925   6.718   5.856  0.1091 -2.0022 -0.4760
  375MOL0     H49486   4.910   8.499   6.677  0.8928  2.3495  1.3401
  375MOL0     H49487   5.089   8.673   6.706 -3.1565  0.9745  4.7792
  375MOL0     H49488   5.640   8.686   6.534  0.6105  1.5281 -1.0142
  375MOL0     H49489   5.808   8.870   6.565  2.2899 -0.7106  2.2221
  375MOL0     H49490   5.856   9.094   6.570  1.7249 -3.0150 -0.9384
  375MOL0     H49491   5.968   8.995   6.647 -1.5169 -1.3125 -3.9410
  375MOL0     H49492   6.060   9.225   6.620 -0.8665 -0.2050 -1.5283
  375MOL0     H49493   5.922   9.296   6.683 -1.5596 -0.7232 -1.0333
  375MOL0     H49494   6.146   9.146   6.816  0.2173  0.4749  1.2504
  375MOL0     H49495   5.993   9.154   6.896  1.9065  1.5742  2.5365
  375MOL0     H49496   5.988   9.400   6.898 -2.2807 -4.6092  0.9550
  375MOL0     H49497   6.125   9.331   6.997  0.8674  0.5614  0.9718
  375MOL0     H49498   6.295   9.577   6.692  1.1182 -1.1901 -1.0065
  375MOL0     H49499   5.611   8.992   6.914  3.3813 -0.1047  0.6284
  375MOL0     H49500   5.495   8.782   6.929  4.4949 -2.5542  0.7985
  376MOL0     O49501   2.423   3.934   8.606 -0.7753  0.0316  0.5975
  376MOL0     C49502   2.447   3.812   8.596 -0.2058  0.2860 -0.7512
  376MOL0     O49503   2.557   3.763   8.538 -0.1145 -0.5765  0.5926
  376MOL0     C49504   2.645   3.855   8.487 -0.6963  0.6108  0.0791
  376MOL0     C49505   2.728   3.919   8.586  0.5536 -0.0868  0.7548
  376MOL0     C49506   2.826   4.004   8.542  0.5657  0.4395 -0.1179
  376MOL0     C49507   2.837   4.040   8.407  1.2228  0.1246  0.5097
  376MOL0     O49508   2.938   4.130   8.381 -0.4215 -0.1828  0.1388
  376MOL0     C49509   2.940   4.181   8.243  0.0261 -0.0108 -0.7145
  376MOL0     C49510   3.025   4.305   8.225 -0.3066  0.3886 -0.3449
  376MOL0     C49511   3.058   4.306   8.081  0.5976 -0.4498  0.4883
  376MOL0     C49512   3.132   4.433   8.034  0.3949  0.4359 -0.1054
  376MOL0     C49513   3.169   4.424   7.891  0.0935  0.4606  0.6146
  376MOL0     C49514   3.205   4.562   7.833 -0.4022  0.8321  0.4935
  376MOL0     C49515   3.256   4.555   7.690 -0.0149 -0.0210  0.5546
  376MOL0     C49516   3.148   4.532   7.585 -1.0947  0.6168 -0.3304
  376MOL0     N49517   3.158   4.611   7.459 -0.2202  0.1140  0.1396
  376MOL0     C49518   3.258   4.597   7.363  0.9634  0.0274 -0.1769
  376MOL0     C49519   3.209   4.678   7.264 -0.5268  0.5066 -0.1679
  376MOL0     C49520   3.275   4.696   7.132  0.4328 -0.6878 -0.2720
  376MOL0     C49521   3.170   4.661   7.033 -0.5300  0.3917  0.5736
  376MOL0     C49522   3.239   4.655   6.898  0.7892 -0.4451 -0.4382
  376MOL0     C49523   3.202   4.797   6.838  0.1051  0.4278  0.5604
  376MOL0     O49524   3.261   4.825   6.712 -1.0005  0.3198  0.7770
  376MOL0     C49525   3.379   4.890   6.708  0.1163 -0.6852  0.1446
  376MOL0     C49526   3.449   4.903   6.584  0.4137  0.2966  0.1043
  376MOL0     C49527   3.578   4.956   6.578 -0.8503  0.5212  0.9894
  376MOL0     C49528   3.649   4.995   6.689  0.4856 -0.2432 -0.5371
  376MOL0     C49529   3.780   5.071   6.674 -0.4648  0.8567  0.4492
  376MOL0     O49530   3.817   5.093   6.544  0.3678  0.3092 -0.5058
  376MOL0     C49531   3.943   5.148   6.520 -0.2728 -0.4702 -0.1142
  376MOL0     C49532   4.068   5.080   6.545  0.1620  0.3528  0.1818
  376MOL0     C49533   4.186   5.149   6.514 -0.5415  0.6759  0.3984
  376MOL0     C49534   4.190   5.262   6.440  0.2578  0.0073  0.1851
  376MOL0     O49535   4.310   5.336   6.438 -0.2242  0.3416 -0.0731
  376MOL0     C49536   4.401   5.292   6.337 -0.8408 -0.3438  0.2625
  376MOL0     C49537   4.347   5.310   6.194  0.1467 -0.0021 -0.3620
  376MOL0     C49538   4.458   5.292   6.086  0.0876  0.6085  0.5105
  376MOL0     C49539   4.411   5.274   5.943  1.5090 -0.2651 -0.1488
  376MOL0     C49540   4.510   5.195   5.861  0.3695 -1.0203 -1.5967
  376MOL0     C49541   4.633   5.273   5.830 -0.5359  0.1248  0.6935
  376MOL0     C49542   4.719   5.180   5.739  0.3949 -0.5398  0.1261
  376MOL0     C49543   4.831   5.266   5.686 -0.5756 -0.3195  0.5991
  376MOL0    Cl49544   4.921   5.338   5.819 -0.0564  0.0305 -0.2615
  376MOL0     C49545   4.064   5.328   6.417 -1.0971  0.2210  0.4744
  376MOL0     C49546   3.948   5.274   6.453 -0.7041 -0.5898  0.6131
  376MOL0     O49547   3.848   5.085   6.772  0.6426 -0.2367  0.1431
  376MOL0     C49548   3.583   4.989   6.808 -0.1337 -0.3529 -0.4478
  376MOL0     C49549   3.457   4.931   6.817  0.6347  0.5438 -0.3875
  376MOL0     N49550   3.082   4.724   7.301 -1.4313 -0.7307 -0.1091
  376MOL0     N49551   3.060   4.695   7.418 -0.0161 -0.0147  0.6118
  376MOL0     C49552   2.752   3.975   8.311 -0.3132  1.3067 -0.1084
  376MOL0     C49553   2.661   3.876   8.357 -0.1154 -0.1138  0.2600
  376MOL0     C49554   2.369   3.719   8.690 -0.5180  0.5273 -0.2023
  376MOL0     C49555   2.403   3.584   8.680  0.3338  0.1415 -0.2795
  376MOL0     C49556   2.342   3.495   8.769 -0.0943  0.9171 -0.4921
  376MOL0     C49557   2.242   3.538   8.862 -0.3127  1.0614  0.3117
  376MOL0     O49558   2.174   3.466   8.949 -0.4467 -0.7135 -0.0844
  376MOL0     C49559   2.186   3.330   8.956  0.1842 -0.3033 -0.0530
  376MOL0     C49560   2.137   3.244   8.828  0.0180 -0.0475 -0.4993
  376MOL0     C49561   2.163   3.095   8.858  0.6989  0.2413  0.9612
  376MOL0     C49562   2.055   3.029   8.933 -0.0679 -0.3697 -0.7965
  376MOL0     C49563   1.948   2.993   8.839  0.2390  0.6177 -0.4332
  376MOL0     C49564   1.851   2.969   8.772 -0.2932 -0.2482  0.2938
  376MOL0     C49565   2.198   3.667   8.859 -0.3169  0.0816  0.5724
  376MOL0     C49566   2.261   3.756   8.772  0.6523 -0.0195  0.2251
  376MOL0     H49567   2.704   3.900   8.691  0.0335  2.5281  1.1814
  376MOL0     H49568   2.898   4.043   8.613 -0.2936 -1.2021  1.7192
  376MOL0     H49569   2.837   4.204   8.215  0.3198  0.2154 -1.6205
  376MOL0     H49570   2.968   4.096   8.181 -0.7771 -0.5084 -0.4073
  376MOL0     H49571   3.124   4.302   8.271 -0.3342  0.6716 -0.2655
  376MOL0     H49572   2.970   4.396   8.252 -1.2327 -0.2827  0.0858
  376MOL0     H49573   2.964   4.304   8.024  1.0619  0.1836 -0.3166
  376MOL0     H49574   3.126   4.222   8.061 -1.8833 -2.1646 -1.5509
  376MOL0     H49575   3.058   4.513   8.040 -3.4748 -2.7388 -1.5454
  376MOL0     H49576   3.227   4.438   8.088  1.4227 -1.3114 -1.6369
  376MOL0     H49577   3.086   4.391   7.827  1.2161  0.4511 -0.8895
  376MOL0     H49578   3.254   4.355   7.878 -0.3475  0.2825 -1.9180
  376MOL0     H49579   3.276   4.612   7.899  0.4464 -0.8170  0.8770
  376MOL0     H49580   3.116   4.626   7.829  0.1901  1.6404 -0.3277
  376MOL0     H49581   3.283   4.659   7.672  0.6656 -0.0101  1.5308
  376MOL0     H49582   3.347   4.496   7.678 -0.3815 -1.1364  2.6014
  376MOL0     H49583   3.047   4.544   7.625 -0.4625  0.6100  1.3280
  376MOL0     H49584   3.159   4.427   7.556  4.0237  0.5891  0.7523
  376MOL0     H49585   3.346   4.533   7.358  2.2287  1.7561 -1.9981
  376MOL0     H49586   3.372   4.647   7.115  0.6031 -0.5816  0.3602
  376MOL0     H49587   3.298   4.803   7.125 -2.1818 -0.0515 -0.0421
  376MOL0     H49588   3.093   4.739   7.034 -0.2720  0.6469  0.4286
  376MOL0     H49589   3.128   4.561   7.050  0.7177 -0.5885 -1.7693
  376MOL0     H49590   3.345   4.630   6.911  0.4537 -0.1789  5.6373
  376MOL0     H49591   3.201   4.569   6.843  6.5283 -2.3565 -2.0952
  376MOL0     H49592   3.237   4.867   6.915 -1.9457 -0.0019  1.9570
  376MOL0     H49593   3.095   4.818   6.833 -0.9633 -4.0196  0.6382
  376MOL0     H49594   3.402   4.867   6.493  0.6045 -1.0702  0.5290
  376MOL0     H49595   3.630   4.962   6.482 -1.6671  2.9054  0.6388
  376MOL0     H49596   4.076   4.992   6.608  0.2155 -0.1020 -0.4616
  376MOL0     H49597   4.275   5.096   6.549 -0.4131 -0.2364 -1.2099
  376MOL0     H49598   4.437   5.190   6.354  0.2441  0.2962  2.1329
  376MOL0     H49599   4.487   5.360   6.339 -1.1605  0.0560  0.6232
  376MOL0     H49600   4.319   5.415   6.188  2.3597  0.6096 -0.8785
  376MOL0     H49601   4.259   5.246   6.181 -0.6042  0.8687  0.3466
  376MOL0     H49602   4.523   5.207   6.110 -0.2141 -0.1809 -1.2447
  376MOL0     H49603   4.525   5.378   6.088 -1.1063  1.8197 -3.0684
  376MOL0     H49604   4.324   5.209   5.954  0.9519  0.6086  0.8741
  376MOL0     H49605   4.385   5.374   5.906 -1.5653 -0.1565  1.9434
  376MOL0     H49606   4.464   5.155   5.770  1.7468 -0.2497 -2.6676
  376MOL0     H49607   4.539   5.107   5.920 -1.2954 -0.1759  0.6289
  376MOL0     H49608   4.684   5.291   5.925  0.2280 -0.4675  0.4008
  376MOL0     H49609   4.612   5.363   5.771 -0.9345  0.4815  1.3631
  376MOL0     H49610   4.753   5.089   5.790 -0.5823 -1.4499 -0.8018
  376MOL0     H49611   4.667   5.142   5.651 -0.1458 -4.5635  1.9970
  376MOL0     H49612   4.799   5.350   5.624  1.9941  1.3598  1.4235
  376MOL0     H49613   4.899   5.210   5.622  2.6872  2.6303  1.2106
  376MOL0     H49614   4.070   5.423   6.365 -0.0825  0.9188  1.8011
  376MOL0     H49615   3.853   5.325   6.440 -0.2194  0.3499  0.7207
  376MOL0     H49616   3.636   5.017   6.899 -1.5515  0.5745  0.1230
  376MOL0     H49617   3.423   4.927   6.920  1.3058  0.0466 -0.1751
  376MOL0     H49618   2.767   3.988   8.204  0.5280 -2.0264 -0.5218
  376MOL0     H49619   2.609   3.826   8.277  1.1180  0.8969 -1.2173
  376MOL0     H49620   2.474   3.539   8.611  0.7488  1.1490 -0.5230
  376MOL0     H49621   2.364   3.391   8.748  0.7912  1.0177 -0.0941
  376MOL0     H49622   2.123   3.320   9.045  2.2626  0.1375  1.5486
  376MOL0     H49623   2.282   3.292   8.990  0.3302  0.6171  0.6027
  376MOL0     H49624   2.028   3.257   8.823 -0.4855 -0.2761  4.5839
  376MOL0     H49625   2.189   3.271   8.736  1.6774  3.6444  1.3160
  376MOL0     H49626   2.253   3.075   8.915 -0.2841 -2.4559  1.7072
  376MOL0     H49627   2.180   3.055   8.757  1.5435  1.8201  0.4398
  376MOL0     H49628   2.093   2.933   8.966  0.8282  0.9049  2.1790
  376MOL0     H49629   2.019   3.080   9.023 -1.3630  0.1435 -1.5753
  376MOL0     H49630   1.756   2.943   8.731 -0.1107 -0.3494 -0.0680
  376MOL0     H49631   2.121   3.697   8.929 -2.1216  0.1425 -1.3485
  376MOL0     H49632   2.219   3.856   8.764  0.0805 -0.3607 -1.5557
  377MOL0     O49633   3.776  10.524   3.190  0.1980  0.4718  0.2294
  377MOL0     C49634   3.703  10.450   3.129 -0.4554  0.2480 -0.5634
  377MOL0     O49635   3.743  10.332   3.069  0.4019  0.5364 -0.0496
  377MOL0     C49636   3.880  10.291   3.065  0.5931  0.1089  0.2702
  377MOL0     C49637   3.913  10.163   3.119 -0.6831  0.3032 -0.5625
  377MOL0     C49638   4.045  10.122   3.110 -0.3087 -0.6151  0.6340
  377MOL0     C49639   4.140  10.203   3.045 -0.4227  0.6071  0.0656
  377MOL0     O49640   4.271  10.162   3.053 -0.4764  0.8250  0.5159
  377MOL0     C49641   4.362  10.231   2.964 -0.0919  0.0245 -0.2062
  377MOL0     C49642   4.499  10.152   2.957 -0.5148 -0.2996  0.3579
  377MOL0     C49643   4.556  10.101   3.097  0.5066 -0.8012  0.8076
  377MOL0     C49644   4.695  10.038   3.086 -0.2718 -0.7004 -0.2049
  377MOL0     C49645   4.753  10.006   3.226  0.7245 -0.6491  0.4100
  377MOL0     C49646   4.907   9.979   3.221  0.2503  0.2916  0.4252
  377MOL0     C49647   4.973   9.883   3.326 -0.0540 -0.3538 -0.0956
  377MOL0     C49648   4.992   9.935   3.471  0.0472  0.3143  0.7980
  377MOL0     N49649   5.038   9.823   3.555  0.5030  0.5288  0.3158
  377MOL0     C49650   5.162   9.809   3.605 -0.4198 -1.1088 -0.9906
  377MOL0     C49651   5.155   9.686   3.675 -0.2736 -0.8990 -0.1339
  377MOL0     C49652   5.260   9.634   3.765 -0.0263  0.3983 -0.6464
  377MOL0     C49653   5.400   9.617   3.709  0.8015  0.2205 -0.2436
  377MOL0     C49654   5.408   9.516   3.590  0.1330  0.1228 -0.1533
  377MOL0     C49655   5.552   9.484   3.535 -0.5068  0.8117 -0.1311
  377MOL0     O49656   5.610   9.399   3.638 -0.0176 -0.4635  0.6552
  377MOL0     C49657   5.696   9.465   3.733  0.5319 -0.1084 -0.2194
  377MOL0     C49658   5.785   9.571   3.708  0.0439 -0.2742 -0.7387
  377MOL0     C49659   5.884   9.593   3.802 -1.3787 -0.1468 -0.0489
  377MOL0     C49660   5.906   9.509   3.913 -1.0925  0.0416 -0.2364
  377MOL0     C49661   6.028   9.525   3.989 -0.2413 -0.8072 -0.4014
  377MOL0     O49662   6.111   9.626   3.959 -0.1484 -0.4492  0.4299
  377MOL0     C49663   6.238   9.630   4.011 -0.6032 -0.0441  1.6188
  377MOL0     C49664   6.351   9.596   3.934 -0.2926  0.4433  0.4273
  377MOL0     C49665   6.480   9.613   3.991 -0.9908 -0.5257  0.2748
  377MOL0     C49666   6.489   9.647   4.131 -0.3440 -0.7324  0.1596
  377MOL0     O49667   6.610   9.655   4.200  0.1264  0.7900  0.3384
  377MOL0     C49668   6.704   9.763   4.162 -0.5480  0.4721  0.1722
  377MOL0     C49669   6.691   9.888   4.243  1.1126  0.2006  0.2908
  377MOL0     C49670   6.792   9.994   4.199 -0.3500 -0.9599  0.9465
  377MOL0     C49671   6.756  10.129   4.249 -0.0613  0.3051 -0.1076
  377MOL0     C49672   6.712  10.163   4.394  0.2337 -0.4083  0.2937
  377MOL0     C49673   6.820  10.131   4.497  0.0637 -0.9737 -0.3360
  377MOL0     C49674   6.902  10.254   4.510 -0.8638  0.2405 -0.3865
  377MOL0     C49675   6.936  10.263   4.657 -0.7658 -0.4842 -0.7486
  377MOL0    Cl49676   7.070  10.370   4.684 -0.3583  0.4277 -0.3287
  377MOL0     C49677   6.380   9.699   4.196 -0.0545  0.4914 -0.1259
  377MOL0     C49678   6.257   9.695   4.137 -0.4220 -0.0738  1.1859
  377MOL0     O49679   6.056   9.434   4.066 -0.1979 -0.2834 -0.3976
  377MOL0     C49680   5.805   9.421   3.952 -0.2177 -0.3039 -0.0750
  377MOL0     C49681   5.702   9.400   3.858 -0.2934 -0.1558  0.4323
  377MOL0     N49682   5.037   9.629   3.646  0.2651  1.1353  0.1392
  377MOL0     N49683   4.962   9.708   3.578 -0.4985 -0.2149 -0.2489
  377MOL0     C49684   4.106  10.324   2.989  0.3094 -0.1890 -0.3639
  377MOL0     C49685   3.971  10.370   3.000 -1.2768 -0.6241  0.1710
  377MOL0     C49686   3.564  10.456   3.170  0.1802  0.0603  0.4628
  377MOL0     C49687   3.467  10.383   3.097  1.1514  0.4050  0.1414
  377MOL0     C49688   3.331  10.401   3.120 -0.1919 -0.6196  0.5385
  377MOL0     C49689   3.292  10.474   3.228  0.0784  0.0157 -0.0607
  377MOL0     O49690   3.158  10.493   3.239 -0.3029  0.8508  0.4453
  377MOL0     C49691   3.102  10.602   3.296 -0.6873  0.6586 -0.3141
  377MOL0     C49692   3.069  10.567   3.449 -0.4197  0.4028  0.1679
  377MOL0     C49693   2.975  10.457   3.461 -0.2419  0.5046 -0.4593
  377MOL0     C49694   2.946  10.401   3.607 -0.0621 -0.0739  0.3298
  377MOL0     C49695   2.925  10.509   3.703  0.7008 -0.2600 -0.8073
  377MOL0     C49696   2.924  10.604   3.787  0.3591  0.3427 -0.6913
  377MOL0     C49697   3.384  10.545   3.308  0.6571  0.9819 -0.5161
  377MOL0     C49698   3.521  10.532   3.284  0.0565  0.4765  0.5483
  377MOL0     H49699   3.835  10.120   3.181 -2.0863  2.7915 -0.4491
  377MOL0     H49700   4.085  10.036   3.163  3.8936 -0.4898 -1.8887
  377MOL0     H49701   4.378  10.331   3.006 -1.6904  0.3930 -0.3777
  377MOL0     H49702   4.321  10.255   2.866  2.6079 -2.5890 -2.1299
  377MOL0     H49703   4.565  10.227   2.912 -1.3175 -0.3508 -0.9642
  377MOL0     H49704   4.497  10.064   2.891 -1.9952 -0.5127  0.6374
  377MOL0     H49705   4.486  10.027   3.136  2.0052 -1.8451  1.6402
  377MOL0     H49706   4.559  10.186   3.166  1.6708 -0.0705 -0.1084
  377MOL0     H49707   4.694   9.946   3.026  0.9760  0.1921 -1.6574
  377MOL0     H49708   4.763  10.111   3.041 -0.6957 -0.1379  0.0523
  377MOL0     H49709   4.710   9.915   3.271  1.8945 -0.1480  2.6730
  377MOL0     H49710   4.735  10.082   3.301  0.9361  0.8226 -0.9749
  377MOL0     H49711   4.966  10.070   3.215  1.8796 -0.7342  0.2268
  377MOL0     H49712   4.919   9.925   3.126  0.2739 -2.9187  2.1242
  377MOL0     H49713   4.938   9.782   3.349  0.7673 -0.6247  0.0041
  377MOL0     H49714   5.073   9.873   3.281  0.2666  0.3805  0.4372
  377MOL0     H49715   4.899   9.977   3.511 -2.4945 -2.3596 -1.8438
  377MOL0     H49716   5.070  10.011   3.479 -0.7852  0.9929  3.2919
  377MOL0     H49717   5.238   9.885   3.619 -4.1625  2.5934  1.5765
  377MOL0     H49718   5.231   9.542   3.816  1.0120  0.6102  0.3814
  377MOL0     H49719   5.277   9.710   3.843  2.7499  0.1848 -0.9310
  377MOL0     H49720   5.456   9.561   3.785 -1.2155 -1.0929  0.3562
  377MOL0     H49721   5.449   9.714   3.697  2.5264 -0.4179  1.0813
  377MOL0     H49722   5.368   9.417   3.615  0.2234  0.1039 -0.0755
  377MOL0     H49723   5.347   9.561   3.511  2.4646 -0.5370 -2.4839
  377MOL0     H49724   5.610   9.575   3.520 -2.7112  2.3392  0.2303
  377MOL0     H49725   5.543   9.427   3.442 -2.4110  0.2105  0.3688
  377MOL0     H49726   5.790   9.619   3.611 -1.2882 -1.7748 -1.5998
  377MOL0     H49727   5.964   9.660   3.773 -1.3636  0.5522  1.4618
  377MOL0     H49728   6.353   9.554   3.834  2.6341 -4.2838  2.0910
  377MOL0     H49729   6.571   9.592   3.934 -0.9953  0.1234  0.0257
  377MOL0     H49730   6.698   9.789   4.056  3.0792  1.8798  0.1618
  377MOL0     H49731   6.809   9.734   4.169  0.6983  3.8360 -1.8306
  377MOL0     H49732   6.715   9.866   4.347 -0.2436 -0.1736  0.5324
  377MOL0     H49733   6.587   9.920   4.245  1.0580 -0.0028  0.7668
  377MOL0     H49734   6.783   9.995   4.090 -3.6493 -2.9600  1.0497
  377MOL0     H49735   6.894   9.964   4.223  0.4904 -0.9237 -2.2243
  377MOL0     H49736   6.839  10.196   4.223 -1.0821  1.5271 -0.2842
  377MOL0     H49737   6.666  10.153   4.192 -0.5643 -1.7949 -0.2779
  377MOL0     H49738   6.630  10.095   4.421  3.1487 -3.7795  1.5028
  377MOL0     H49739   6.680  10.267   4.407  1.4798 -0.2726  3.2449
  377MOL0     H49740   6.886  10.051   4.462  3.8415  1.7473 -0.0556
  377MOL0     H49741   6.783  10.112   4.598  3.2572  1.4833  1.5075
  377MOL0     H49742   6.987  10.226   4.447 -1.2958  0.0827 -0.9097
  377MOL0     H49743   6.877  10.348   4.460  0.0872 -0.4417 -2.2696
  377MOL0     H49744   6.960  10.167   4.704 -3.5447  0.3370  2.7706
  377MOL0     H49745   6.852  10.304   4.714 -0.2299  1.4067 -1.2755
  377MOL0     H49746   6.377   9.749   4.292  0.4758 -0.5305  0.4482
  377MOL0     H49747   6.164   9.732   4.179  0.1978  1.4402  1.3055
  377MOL0     H49748   5.815   9.351   4.034  1.3513  1.0545  0.9438
  377MOL0     H49749   5.653   9.306   3.881 -1.1181  0.0587 -0.3807
  377MOL0     H49750   4.159  10.395   2.925 -1.4109  1.1064 -0.4413
  377MOL0     H49751   3.935  10.458   2.948 -0.4954  0.1044  0.8263
  377MOL0     H49752   3.484  10.322   3.009  3.9431  3.8264 -1.9608
  377MOL0     H49753   3.260  10.356   3.051  0.4682  0.9225 -1.2382
  377MOL0     H49754   3.008  10.622   3.243  0.9983  1.9468 -3.0354
  377MOL0     H49755   3.162  10.692   3.284  0.5492  0.3439  2.6656
  377MOL0     H49756   3.162  10.544   3.501  0.9252 -2.7446 -3.1789
  377MOL0     H49757   3.011  10.649   3.494 -1.0325  0.1795 -0.2069
  377MOL0     H49758   3.004  10.367   3.406 -0.8455 -1.3465  2.0681
  377MOL0     H49759   2.879  10.485   3.416 -0.4803 -0.2906 -0.4639
  377MOL0     H49760   2.855  10.341   3.595 -1.7841  2.7285 -1.7472
  377MOL0     H49761   3.031  10.345   3.647 -0.8781 -0.3551  1.7455
  377MOL0     H49762   2.933  10.682   3.861  1.5696  0.2789 -0.7643
  377MOL0     H49763   3.348  10.606   3.390 -3.1933  1.9615 -2.7108
  377MOL0     H49764   3.600  10.573   3.347  0.6326  0.1325  0.0625
  378MOL0     O49765   1.860   1.967   4.626 -0.2609  0.1030  0.6353
  378MOL0     C49766   1.823   1.953   4.742 -0.2839 -0.7641  0.7925
  378MOL0     O49767   1.686   1.955   4.768 -0.2271  0.0248 -0.0756
  378MOL0     C49768   1.592   1.993   4.667  1.2147 -0.3286  0.6241
  378MOL0     C49769   1.471   1.932   4.677  0.4077  0.7699 -0.3083
  378MOL0     C49770   1.359   1.971   4.598 -0.7587  0.1157  0.1684
  378MOL0     C49771   1.374   2.065   4.494 -0.0836 -0.6498  0.1432
  378MOL0     O49772   1.272   2.111   4.408 -0.2500  0.9382 -0.8921
  378MOL0     C49773   1.140   2.113   4.469 -1.1840 -0.3304 -0.0353
  378MOL0     C49774   1.047   2.177   4.368  0.1303 -0.1848 -0.2918
  378MOL0     C49775   0.902   2.126   4.394 -0.0867 -0.3829  0.0753
  378MOL0     C49776   0.794   2.197   4.310  0.7443 -0.9903 -0.5550
  378MOL0     C49777   0.804   2.173   4.162  0.3899  0.4043  0.5805
  378MOL0     C49778   0.726   2.047   4.134 -0.3003  0.0569  1.4308
  378MOL0     C49779   0.740   1.994   3.989 -0.1953 -0.7568 -0.1470
  378MOL0     C49780   0.687   1.847   3.981 -1.0585  0.1519  0.6544
  378MOL0     N49781   0.536   1.863   3.991  0.0269  0.3169 -0.5115
  378MOL0     C49782   0.466   1.817   4.101 -0.3917  0.1378  0.8412
  378MOL0     C49783   0.342   1.868   4.082 -0.1037  0.1807  0.2661
  378MOL0     C49784   0.246   1.881   4.197  0.1534 -0.1771  1.3072
  378MOL0     C49785   0.225   2.021   4.230  0.7409  0.0359  0.7612
  378MOL0     C49786   0.211   2.059   4.374 -0.7889 -0.2930 -0.5492
  378MOL0     C49787   0.077   1.994   4.433 -0.8135 -0.9116  0.5397
  378MOL0     O49788   0.115   1.877   4.514 -0.4905  0.2013  0.0888
  378MOL0     C49789   0.010   1.797   4.531 -0.1581 -1.1283  0.5798
  378MOL0     C49790  -0.099   1.851   4.613 -0.8211  0.7822 -0.6730
  378MOL0     C49791  -0.204   1.769   4.645 -0.1011 -0.9735 -0.5370
  378MOL0     C49792  -0.208   1.639   4.609  0.4156 -0.4027  0.0904
  378MOL0     C49793  -0.314   1.544   4.637 -0.0613  1.3912 -1.2607
  378MOL0     O49794  -0.344   1.444   4.551  0.4800  0.7757 -0.5663
  378MOL0     C49795  -0.469   1.376   4.557  0.0696 -0.1383 -0.8820
  378MOL0     C49796  -0.462   1.242   4.533  0.0519  0.2928 -0.5726
  378MOL0     C49797  -0.572   1.159   4.532 -0.2167  0.7797  1.3806
  378MOL0     C49798  -0.702   1.217   4.547 -0.2856 -0.5270  0.4239
  378MOL0     O49799  -0.797   1.119   4.524  0.4964 -0.1506 -0.5963
  378MOL0     C49800  -0.941   1.142   4.499 -0.6903  0.0480 -0.9598
  378MOL0     C49801  -1.016   1.009   4.480 -0.0931 -1.0098  0.0123
  378MOL0     C49802  -1.157   1.010   4.438  0.6270 -0.3527 -0.2643
  378MOL0     C49803  -1.229   0.872   4.441  0.8864 -0.3419  0.1360
  378MOL0     C49804  -1.367   0.881   4.524 -0.2179  0.3094  1.1935
  378MOL0     C49805  -1.487   0.936   4.447 -0.0406 -0.0458  0.3181
  378MOL0     C49806  -1.618   0.873   4.482  0.4120  0.3500 -0.2586
  378MOL0     C49807  -1.739   0.962   4.451  0.2134 -1.5302 -0.5234
  378MOL0    Cl49808  -1.736   1.099   4.566  0.1370 -0.4812 -0.2255
  378MOL0     C49809  -0.709   1.357   4.559  0.2700 -0.0773  0.0387
  378MOL0     C49810  -0.596   1.439   4.564  0.7549  0.7566  0.2841
  378MOL0     O49811  -0.388   1.572   4.730  0.3468 -0.5055 -0.1968
  378MOL0     C49812  -0.108   1.587   4.536 -0.7544 -0.3227 -0.2294
  378MOL0     C49813   0.005   1.660   4.490  0.4422  0.0491 -0.4224
  378MOL0     N49814   0.322   1.892   3.946 -0.2727  0.6473  0.1399
  378MOL0     N49815   0.441   1.901   3.897  0.6306  0.4806 -0.6127
  378MOL0     C49816   1.499   2.122   4.481 -0.0135 -0.5295  0.4551
  378MOL0     C49817   1.611   2.078   4.555 -0.0443  0.0015 -0.1267
  378MOL0     C49818   1.914   1.915   4.848  0.0931  0.2962 -0.3148
  378MOL0     C49819   1.868   1.845   4.967 -0.1819 -0.5165 -1.0765
  378MOL0     C49820   1.953   1.808   5.067  0.0144 -0.0827 -0.7678
  378MOL0     C49821   2.085   1.833   5.057  0.6651  0.5600 -0.7380
  378MOL0     O49822   2.175   1.811   5.153 -0.0026  0.0392  0.0870
  378MOL0     C49823   2.133   1.757   5.273 -0.0962 -0.7241 -0.6610
  378MOL0     C49824   2.257   1.673   5.304 -0.3990  0.1479 -0.0565
  378MOL0     C49825   2.278   1.569   5.197  0.0785 -0.2803  0.8418
  378MOL0     C49826   2.160   1.481   5.149 -0.1690 -0.7411  0.4029
  378MOL0     C49827   2.098   1.405   5.262 -0.2426 -0.0256 -0.0329
  378MOL0     C49828   2.055   1.358   5.364 -0.5694  0.8063 -0.4548
  378MOL0     C49829   2.136   1.897   4.956  0.8104 -0.5162 -0.6883
  378MOL0     C49830   2.055   1.946   4.849  0.0617  0.8979  0.3906
  378MOL0     H49831   1.448   1.851   4.746  2.1941 -1.0578 -1.7446
  378MOL0     H49832   1.266   1.918   4.616  0.3371 -1.7148  0.7308
  378MOL0     H49833   1.154   2.183   4.552  0.8208  0.5480 -1.0411
  378MOL0     H49834   1.113   2.012   4.501  2.0370 -1.5206 -0.7190
  378MOL0     H49835   1.080   2.161   4.265  1.7023 -2.3329  0.4553
  378MOL0     H49836   1.056   2.285   4.378 -1.2002 -0.2162  1.8169
  378MOL0     H49837   0.873   2.155   4.495  0.3300  0.7524 -0.1186
  378MOL0     H49838   0.893   2.017   4.385 -2.0884 -0.0493 -3.6143
  378MOL0     H49839   0.693   2.183   4.349 -0.1570  2.2464 -1.3974
  378MOL0     H49840   0.811   2.305   4.320 -0.1273 -1.0142  1.6720
  378MOL0     H49841   0.906   2.167   4.122  1.2017 -0.0343  2.5606
  378MOL0     H49842   0.754   2.258   4.114 -0.4668 -1.4153 -1.9183
  378MOL0     H49843   0.617   2.060   4.140 -0.6891 -1.4711 -0.9041
  378MOL0     H49844   0.758   1.974   4.208 -2.4926 -0.5564  1.8404
  378MOL0     H49845   0.695   2.064   3.918 -2.7453  1.1475  3.0656
  378MOL0     H49846   0.846   1.999   3.964 -0.1165 -0.9459  0.1437
  378MOL0     H49847   0.731   1.785   4.059  2.4552 -0.6701 -1.7213
  378MOL0     H49848   0.712   1.810   3.881  2.2502  2.9283  0.2588
  378MOL0     H49849   0.513   1.779   4.192  1.0757  0.5214  0.2603
  378MOL0     H49850   0.289   1.836   4.287  3.4393 -1.4989 -0.7284
  378MOL0     H49851   0.151   1.835   4.172  0.1055  1.6477 -2.6438
  378MOL0     H49852   0.132   2.063   4.191  0.5752  1.0364  2.1613
  378MOL0     H49853   0.299   2.079   4.173 -2.7209  2.0471 -2.0865
  378MOL0     H49854   0.295   2.026   4.436 -1.7320 -2.3790 -0.2891
  378MOL0     H49855   0.205   2.168   4.384 -0.9992 -0.4863  2.2242
  378MOL0     H49856   0.016   1.962   4.348 -0.6590  0.5461 -0.1571
  378MOL0     H49857   0.032   2.067   4.500 -0.7038 -1.7487  1.5428
  378MOL0     H49858  -0.101   1.951   4.654  2.3896  0.9743 -0.7153
  378MOL0     H49859  -0.285   1.814   4.702 -0.3041 -2.3709  0.3135
  378MOL0     H49860  -0.361   1.202   4.527 -0.0474  0.1927 -1.7453
  378MOL0     H49861  -0.551   1.054   4.520 -2.1552  0.6482 -2.7503
  378MOL0     H49862  -0.952   1.207   4.412 -0.0063  1.7260  0.1581
  378MOL0     H49863  -0.979   1.199   4.585  1.1014  1.2447 -0.9093
  378MOL0     H49864  -1.006   0.942   4.565  1.3831 -3.9185 -2.2808
  378MOL0     H49865  -0.960   0.958   4.401  0.9246  2.9713 -2.1030
  378MOL0     H49866  -1.147   1.055   4.339  3.5666  1.4342  0.6993
  378MOL0     H49867  -1.221   1.076   4.498 -2.5456 -2.9523 -0.5331
  378MOL0     H49868  -1.263   0.846   4.340 -2.3008 -1.4677  1.3636
  378MOL0     H49869  -1.154   0.799   4.473 -1.0664 -2.0117  1.1313
  378MOL0     H49870  -1.343   0.941   4.612 -0.4486  3.3976 -0.7026
  378MOL0     H49871  -1.394   0.779   4.554 -0.8525  0.4236  1.0159
  378MOL0     H49872  -1.474   0.915   4.341  1.3418  2.2236 -0.0308
  378MOL0     H49873  -1.507   1.043   4.443  4.9271  1.1023 -1.3541
  378MOL0     H49874  -1.617   0.778   4.427 -2.0289  1.1051 -1.7602
  378MOL0     H49875  -1.619   0.851   4.589 -1.8130  0.8056 -0.1367
  378MOL0     H49876  -1.829   0.899   4.452 -0.0539 -1.1813  1.6207
  378MOL0     H49877  -1.733   0.999   4.348 -0.7550 -1.1778 -0.4624
  378MOL0     H49878  -0.798   1.418   4.553 -0.8026 -1.6809 -1.6076
  378MOL0     H49879  -0.603   1.544   4.588 -2.1907  0.8328 -0.5047
  378MOL0     H49880  -0.109   1.479   4.524 -1.0443 -0.6045  1.9213
  378MOL0     H49881   0.080   1.611   4.429  0.9537  0.4385 -0.1157
  378MOL0     H49882   1.519   2.207   4.417  1.2514 -1.5695 -0.5939
  378MOL0     H49883   1.709   2.121   4.534 -0.4943  1.1804  0.0761
  378MOL0     H49884   1.759   1.844   4.972 -0.3009 -1.8559  5.5054
  378MOL0     H49885   1.900   1.766   5.152  0.7988  0.6539  0.1073
  378MOL0     H49886   2.047   1.690   5.268  0.2957 -1.4437  1.3199
  378MOL0     H49887   2.126   1.841   5.343  1.9251 -0.3244 -0.8641
  378MOL0     H49888   2.347   1.732   5.322 -0.2431 -0.3684  0.9408
  378MOL0     H49889   2.226   1.628   5.399  1.0448  0.7882  0.7492
  378MOL0     H49890   2.354   1.498   5.232 -2.1160 -2.4525  1.4514
  378MOL0     H49891   2.326   1.623   5.114 -0.6487 -1.0230 -0.0920
  378MOL0     H49892   2.091   1.545   5.094  1.8657  1.8314  0.6743
  378MOL0     H49893   2.199   1.405   5.081 -1.0566 -0.7768 -0.0868
  378MOL0     H49894   2.016   1.332   5.460  2.9200  0.8400  1.1150
  378MOL0     H49895   2.244   1.908   4.950  0.5271  4.6488 -0.2759
  378MOL0     H49896   2.107   2.007   4.777  1.6608 -2.2599 -1.3441
  379MOL0     O49897   4.656   3.332   2.910  0.4487 -0.9225  1.0539
  379MOL0     C49898   4.765   3.387   2.917 -0.0517 -0.7380 -1.4228
  379MOL0     O49899   4.890   3.337   2.873  0.6710  0.1503  0.5660
  379MOL0     C49900   4.899   3.216   2.806  1.0596 -0.4487  0.3398
  379MOL0     C49901   5.023   3.185   2.757 -0.2675 -0.9966  0.4804
  379MOL0     C49902   5.046   3.082   2.666 -1.3877 -0.8658  0.8828
  379MOL0     C49903   4.948   2.991   2.638  1.2747  0.9016 -0.0764
  379MOL0     O49904   4.979   2.901   2.531  0.4229 -0.3433 -0.3272
  379MOL0     C49905   4.912   2.767   2.515 -0.2321 -0.2323 -0.2416
  379MOL0     C49906   5.022   2.665   2.541 -0.1831  0.6397 -0.4336
  379MOL0     C49907   5.124   2.628   2.429  0.8817 -0.1403  1.1717
  379MOL0     C49908   5.218   2.524   2.494  0.1675 -0.0157  0.1652
  379MOL0     C49909   5.305   2.473   2.378 -0.6994 -0.2450  0.4496
  379MOL0     C49910   5.387   2.353   2.432 -0.3364  0.6480  0.1910
  379MOL0     C49911   5.499   2.398   2.521 -0.9787  0.6359  0.6917
  379MOL0     C49912   5.577   2.286   2.584 -0.0297  0.3591  0.0861
  379MOL0     N49913   5.687   2.336   2.670  1.0199 -0.2589 -0.5471
  379MOL0     C49914   5.672   2.407   2.783  0.5255 -0.2643 -1.0648
  379MOL0     C49915   5.787   2.390   2.853 -0.5306  1.1442 -0.0657
  379MOL0     C49916   5.834   2.432   2.992 -0.6131  0.0752 -0.8588
  379MOL0     C49917   5.768   2.364   3.100 -0.1267  0.0285 -0.2390
  379MOL0     C49918   5.817   2.413   3.237  0.9356 -0.1163  0.7558
  379MOL0     C49919   5.775   2.562   3.268 -0.4823 -0.2400 -0.0218
  379MOL0     O49920   5.839   2.586   3.394 -0.1336  0.6853  0.2425
  379MOL0     C49921   5.750   2.631   3.490  0.3149  0.0470 -0.1891
  379MOL0     C49922   5.645   2.548   3.530  0.2405 -0.0007 -0.0812
  379MOL0     C49923   5.550   2.600   3.610 -0.7003 -0.3288  0.0343
  379MOL0     C49924   5.567   2.734   3.669 -0.5148  0.0224 -0.2419
  379MOL0     C49925   5.460   2.788   3.750  0.5334 -1.6203 -0.3700
  379MOL0     O49926   5.475   2.910   3.806 -0.4831  0.2634  0.2619
  379MOL0     C49927   5.373   2.970   3.879 -0.5265  0.1407 -0.8433
  379MOL0     C49928   5.397   2.983   4.020 -0.2615  0.0302 -1.0722
  379MOL0     C49929   5.299   3.058   4.100  0.6108 -0.3069 -0.3442
  379MOL0     C49930   5.176   3.091   4.047  0.5832 -0.7618  0.1336
  379MOL0     O49931   5.089   3.168   4.120 -0.5371  1.1999 -0.1418
  379MOL0     C49932   5.001   3.090   4.185 -0.1746 -0.8236 -0.6927
  379MOL0     C49933   5.058   3.052   4.326  0.8591 -1.1018  0.5114
  379MOL0     C49934   4.963   2.958   4.406 -0.4060 -0.4984 -0.4888
  379MOL0     C49935   5.055   2.890   4.516  0.0416  1.0633 -0.6465
  379MOL0     C49936   4.990   2.770   4.603  0.4599 -1.7271 -0.0858
  379MOL0     C49937   4.915   2.820   4.731  0.5190  0.5543  0.4388
  379MOL0     C49938   4.831   2.705   4.774 -0.3513 -0.0203 -0.0023
  379MOL0     C49939   4.751   2.760   4.887 -0.2567 -0.2985  0.0473
  379MOL0    Cl49940   4.860   2.753   5.019 -0.0299  0.0697  0.0812
  379MOL0     C49941   5.148   3.044   3.917 -0.0838 -0.4199 -0.2194
  379MOL0     C49942   5.253   2.997   3.827 -0.9225  0.3948 -0.6787
  379MOL0     O49943   5.350   2.737   3.748 -0.2343  0.2383 -0.2890
  379MOL0     C49944   5.683   2.809   3.641  0.2200  0.4339 -0.4228
  379MOL0     C49945   5.768   2.756   3.559 -0.7706  0.2318  1.1216
  379MOL0     N49946   5.865   2.295   2.782 -0.1298  0.8779  0.5772
  379MOL0     N49947   5.808   2.268   2.675 -0.6006  0.6045  0.6878
  379MOL0     C49948   4.831   3.006   2.708 -0.1032 -0.3869 -0.6974
  379MOL0     C49949   4.803   3.116   2.782  0.1700 -0.2818  0.9674
  379MOL0     C49950   4.763   3.532   2.978 -0.7351  0.4815  0.3971
  379MOL0     C49951   4.847   3.631   2.929 -0.2701  0.1161 -0.7361
  379MOL0     C49952   4.839   3.763   2.993  0.1754  0.2264  0.7025
  379MOL0     C49953   4.762   3.782   3.108 -0.1984 -0.2798  0.5273
  379MOL0     O49954   4.750   3.908   3.166 -0.8775 -0.6204  0.5568
  379MOL0     C49955   4.677   4.002   3.084 -0.6040  0.3518  0.5794
  379MOL0     C49956   4.532   4.005   3.130 -0.7242  0.2825  0.3790
  379MOL0     C49957   4.529   4.069   3.270 -0.1218  0.8677 -0.1219
  379MOL0     C49958   4.395   4.086   3.330 -0.0166 -0.6386  0.1463
  379MOL0     C49959   4.292   3.980   3.338 -0.0889 -0.7558  0.5699
  379MOL0     C49960   4.225   3.882   3.360 -0.0829  0.2135  0.1355
  379MOL0     C49961   4.687   3.674   3.166 -0.0724 -0.1185  1.1287
  379MOL0     C49962   4.695   3.548   3.096  0.9983 -0.8232 -0.4843
  379MOL0     H49963   5.104   3.257   2.762 -2.8227  2.5327 -3.1101
  379MOL0     H49964   5.146   3.077   2.624 -2.1235  1.8563 -1.5474
  379MOL0     H49965   4.866   2.749   2.418 -0.7757 -0.0417 -0.0206
  379MOL0     H49966   4.834   2.741   2.586  1.1388 -2.0987  0.6731
  379MOL0     H49967   4.972   2.572   2.569  1.3268 -0.4863 -1.2992
  379MOL0     H49968   5.081   2.701   2.625  2.1175  0.2297 -1.7754
  379MOL0     H49969   5.174   2.724   2.415  1.9423 -0.6646  1.2577
  379MOL0     H49970   5.075   2.603   2.334  0.1992  2.7771  0.6504
  379MOL0     H49971   5.279   2.566   2.574  0.4331  1.1635 -0.6258
  379MOL0     H49972   5.154   2.445   2.532 -0.2664  0.4620  0.4460
  379MOL0     H49973   5.377   2.544   2.338 -0.9776 -0.5682 -0.6840
  379MOL0     H49974   5.246   2.452   2.288 -1.5101  0.5952  0.7724
  379MOL0     H49975   5.423   2.292   2.349  0.2786  0.2112  0.7654
  379MOL0     H49976   5.327   2.288   2.497  1.0430  0.4087  1.2725
  379MOL0     H49977   5.566   2.471   2.476 -3.0686  3.3136  1.6746
  379MOL0     H49978   5.453   2.457   2.601 -0.5747  0.1287  1.3131
  379MOL0     H49979   5.623   2.215   2.513 -0.3236 -2.6392  2.6616
  379MOL0     H49980   5.510   2.228   2.648  2.4345  0.0463  2.5871
  379MOL0     H49981   5.587   2.455   2.830 -0.6169 -1.3935 -1.8991
  379MOL0     H49982   5.828   2.540   3.007 -2.5907 -0.0435 -0.4707
  379MOL0     H49983   5.939   2.400   2.994 -0.5230 -0.1834 -4.1449
  379MOL0     H49984   5.778   2.256   3.088  0.6313 -0.7507  4.9141
  379MOL0     H49985   5.660   2.377   3.094 -0.0133  0.1944 -2.7311
  379MOL0     H49986   5.772   2.356   3.318 -1.1789 -1.3591 -1.1677
  379MOL0     H49987   5.926   2.415   3.242  0.8841  0.4867  1.8823
  379MOL0     H49988   5.666   2.567   3.278 -0.3268  0.3350  1.8050
  379MOL0     H49989   5.804   2.642   3.199 -1.0799  1.9268  2.0973
  379MOL0     H49990   5.629   2.453   3.482 -0.7321  0.1535 -0.0753
  379MOL0     H49991   5.458   2.545   3.628 -0.4254 -1.4230 -1.6778
  379MOL0     H49992   5.481   2.957   4.084 -0.9552  0.1689 -0.0904
  379MOL0     H49993   5.325   3.099   4.197  0.4415  1.2632 -0.9363
  379MOL0     H49994   4.966   2.998   4.137 -2.5371  1.1420 -3.0362
  379MOL0     H49995   4.910   3.143   4.216  2.0848  2.1776  1.3058
  379MOL0     H49996   5.062   3.147   4.381 -0.4098  0.7275 -2.3387
  379MOL0     H49997   5.156   3.006   4.314  2.0526  2.0080 -4.4722
  379MOL0     H49998   4.897   2.909   4.335 -1.8751  3.5223 -2.2181
  379MOL0     H49999   4.898   3.023   4.465 -3.2472 -2.4720 -1.2318
  379MOL0     H50000   5.147   2.847   4.475  1.3345  0.3143  2.6936
  379MOL0     H50001   5.093   2.966   4.584  2.5336  1.6320 -2.5393
  379MOL0     H50002   5.069   2.702   4.637 -0.6521 -4.1459 -2.0011
  379MOL0     H50003   4.924   2.710   4.540 -1.1306 -1.8331  1.5911
  379MOL0     H50004   4.844   2.895   4.697 -1.3699 -2.0267 -1.7598
  379MOL0     H50005   4.987   2.861   4.802  1.5455  1.3319 -1.0003
  379MOL0     H50006   4.757   2.666   4.703 -0.7519  0.2479  0.2631
  379MOL0     H50007   4.889   2.619   4.807  1.5630 -0.0107 -2.9719
  379MOL0     H50008   4.668   2.698   4.919  1.6364 -2.5885  0.7924
  379MOL0     H50009   4.721   2.864   4.869  1.3930  0.3560  0.8226
  379MOL0     H50010   5.048   3.049   3.875 -0.6312 -2.5365  0.7143
  379MOL0     H50011   5.246   2.969   3.723  3.4271 -0.1155 -1.0151
  379MOL0     H50012   5.718   2.896   3.695  1.1726  0.3743 -0.9221
  379MOL0     H50013   5.847   2.815   3.513 -2.3170  2.9530  1.7508
  379MOL0     H50014   4.745   2.944   2.685 -1.2306  0.6792  0.4431
  379MOL0     H50015   4.699   3.123   2.811 -0.0412  0.6377  0.0602
  379MOL0     H50016   4.922   3.615   2.853  1.7026  1.5933  0.8098
  379MOL0     H50017   4.903   3.843   2.957 -0.8770  0.4565 -0.7821
  379MOL0     H50018   4.679   3.980   2.977 -0.9163  2.2484  0.1498
  379MOL0     H50019   4.721   4.100   3.104  3.8814 -1.2463 -0.1289
  379MOL0     H50020   4.480   4.062   3.051 -1.2429  0.7076  1.0136
  379MOL0     H50021   4.478   3.910   3.132 -2.5980  1.2956  1.8030
  379MOL0     H50022   4.575   4.168   3.259 -0.7061  1.6922  3.6114
  379MOL0     H50023   4.600   4.020   3.336 -1.0902 -2.9214 -1.6205
  379MOL0     H50024   4.406   4.127   3.431  0.4238  2.5962 -1.0916
  379MOL0     H50025   4.351   4.171   3.276  1.9128  0.7912  0.7420
  379MOL0     H50026   4.166   3.794   3.375 -1.7546  1.6674  3.2631
  379MOL0     H50027   4.632   3.683   3.259 -2.8770  1.3683 -0.5346
  379MOL0     H50028   4.639   3.461   3.130  0.9968 -1.0147 -0.9665
  380MOL0     O50029   2.475   7.779  11.389 -0.1261 -0.0466  0.3665
  380MOL0     C50030   2.559   7.693  11.385  0.0719  0.4966  0.2766
  380MOL0     O50031   2.676   7.698  11.450  0.0723 -0.5792  0.0998
  380MOL0     C50032   2.687   7.786  11.550  0.2666  0.4801  0.5531
  380MOL0     C50033   2.632   7.761  11.675 -0.5464  0.6445  0.1027
  380MOL0     C50034   2.644   7.854  11.778 -0.0956  0.5566 -0.2282
  380MOL0     C50035   2.706   7.973  11.765 -0.6846  0.0625  1.0493
  380MOL0     O50036   2.731   8.043  11.881 -0.0640  0.4797  1.2464
  380MOL0     C50037   2.851   8.116  11.871 -0.1210 -0.1704 -0.6772
  380MOL0     C50038   2.978   8.027  11.878 -0.6497 -0.6652 -0.5660
  380MOL0     C50039   3.119   8.094  11.873  1.0484 -0.4408 -0.4591
  380MOL0     C50040   3.233   7.997  11.906 -0.2255 -0.0609 -0.1891
  380MOL0     C50041   3.369   8.079  11.894  0.4245 -0.0241 -0.8439
  380MOL0     C50042   3.386   8.188  12.003  0.1808  0.6907 -0.2526
  380MOL0     C50043   3.410   8.123  12.147 -0.8048 -0.2764  0.1254
  380MOL0     C50044   3.419   8.231  12.258 -0.5499 -1.0056 -1.2437
  380MOL0     N50045   3.537   8.316  12.241  0.6200 -1.2970  0.0635
  380MOL0     C50046   3.667   8.272  12.212 -0.5504  0.4035  0.2404
  380MOL0     C50047   3.733   8.371  12.149 -0.4865  0.7617  0.3230
  380MOL0     C50048   3.870   8.350  12.099 -0.6378 -0.2612 -0.1561
  380MOL0     C50049   3.947   8.480  12.117 -0.5702 -0.1989 -0.7672
  380MOL0     C50050   4.090   8.483  12.080  0.3969 -0.3123  0.0739
  380MOL0     C50051   4.118   8.417  11.944 -0.0208 -0.0503  0.4488
  380MOL0     O50052   4.245   8.450  11.882  0.9046 -0.9226 -0.3519
  380MOL0     C50053   4.365   8.404  11.939  0.3963 -0.5585 -0.0037
  380MOL0     C50054   4.492   8.442  11.878  0.5812 -1.0678 -0.2298
  380MOL0     C50055   4.613   8.382  11.907 -0.2749 -0.2800 -0.1000
  380MOL0     C50056   4.605   8.273  11.999  0.0017  0.0470 -0.2266
  380MOL0     C50057   4.717   8.175  12.033  0.3737 -0.7529  0.2301
  380MOL0     O50058   4.698   8.074  12.127  0.6773  0.9436  0.1872
  380MOL0     C50059   4.816   8.029  12.179 -0.6795  0.1623 -0.4895
  380MOL0     C50060   4.877   8.099  12.282 -0.9629 -0.5833 -0.4216
  380MOL0     C50061   4.982   8.044  12.355  0.0743 -1.0618  0.2687
  380MOL0     C50062   5.035   7.919  12.323 -0.9787 -0.0753  0.1346
  380MOL0     O50063   5.141   7.870  12.396 -0.6097 -0.7502 -0.0070
  380MOL0     C50064   5.270   7.850  12.328 -0.1306  0.2392 -0.7349
  380MOL0     C50065   5.387   7.793  12.411 -0.0591  0.2337 -0.6430
  380MOL0     C50066   5.409   7.874  12.542  0.5666  0.0673  0.2760
  380MOL0     C50067   5.460   8.015  12.526 -0.2892  0.1598  0.2366
  380MOL0     C50068   5.446   8.087  12.653 -1.1444 -0.8689 -0.6395
  380MOL0     C50069   5.507   8.227  12.660 -0.4008 -1.0506  0.9117
  380MOL0     C50070   5.504   8.276  12.803  0.7222  0.4842  0.8920
  380MOL0     C50071   5.511   8.432  12.798  0.4647  0.0484  0.2565
  380MOL0    Cl50072   5.666   8.476  12.706 -0.2598  0.4317  0.2841
  380MOL0     C50073   4.975   7.845  12.227  1.0405 -0.2427  0.1781
  380MOL0     C50074   4.870   7.900  12.149  0.1905  0.3731 -0.0092
  380MOL0     O50075   4.821   8.198  11.966  0.1445  0.1209 -0.5591
  380MOL0     C50076   4.490   8.237  12.062  1.2577  0.5758 -0.7221
  380MOL0     C50077   4.365   8.297  12.026 -0.3576 -0.3747 -0.2248
  380MOL0     N50078   3.642   8.471  12.132  0.1322 -0.9229 -0.3554
  380MOL0     N50079   3.530   8.444  12.182  0.7598  0.6797  0.1809
  380MOL0     C50080   2.751   8.006  11.632 -0.5105  0.0791 -0.9991
  380MOL0     C50081   2.739   7.910  11.529 -0.5407  0.0251 -0.2171
  380MOL0     C50082   2.539   7.579  11.296 -0.0658 -0.3819 -0.8683
  380MOL0     C50083   2.415   7.528  11.258 -0.0226 -0.8710 -0.7213
  380MOL0     C50084   2.406   7.417  11.182  0.5811  0.7079 -0.3096
  380MOL0     C50085   2.515   7.345  11.137  0.4420 -0.2755  0.4089
  380MOL0     O50086   2.488   7.224  11.073  0.1617 -0.3794  0.1015
  380MOL0     C50087   2.581   7.170  10.974  0.3211 -0.2554  1.6072
  380MOL0     C50088   2.613   7.274  10.863  0.0967  0.7573  0.2765
  380MOL0     C50089   2.598   7.213  10.721 -0.0414 -1.0857 -0.2151
  380MOL0     C50090   2.605   7.329  10.622  0.2455  0.1094 -0.3041
  380MOL0     C50091   2.645   7.303  10.485 -1.3036  0.1260 -0.3615
  380MOL0     C50092   2.697   7.295  10.368  1.3796  0.1218 -0.3827
  380MOL0     C50093   2.638   7.396  11.163 -0.5209  0.5639 -0.6178
  380MOL0     C50094   2.658   7.514  11.247  0.4175 -0.3276 -0.8396
  380MOL0     H50095   2.590   7.665  11.704 -0.0183  0.2668 -0.3413
  380MOL0     H50096   2.607   7.838  11.878 -1.3012 -0.3732 -0.8009
  380MOL0     H50097   2.861   8.183  11.957  1.5007  3.8315 -3.6602
  380MOL0     H50098   2.864   8.196  11.798  0.2273  2.6972  2.2452
  380MOL0     H50099   2.969   7.940  11.813 -2.3995 -1.0043  0.0852
  380MOL0     H50100   2.971   7.981  11.976  1.1694  1.2871  0.5763
  380MOL0     H50101   3.110   8.180  11.941  1.0332 -1.7403  1.2473
  380MOL0     H50102   3.124   8.137  11.772  1.9955 -1.4375 -0.8581
  380MOL0     H50103   3.217   7.948  12.002 -0.5547 -0.1446 -0.2861
  380MOL0     H50104   3.239   7.914  11.835 -0.4814  0.5120 -0.8979
  380MOL0     H50105   3.368   8.130  11.797 -1.9078  2.3480  0.2944
  380MOL0     H50106   3.453   8.009  11.898  1.5675  1.1373 -2.8898
  380MOL0     H50107   3.306   8.262  12.008 -0.8675 -0.3433 -1.0345
  380MOL0     H50108   3.481   8.235  11.974 -0.1378 -0.6196 -4.0125
  380MOL0     H50109   3.320   8.064  12.166  0.3375 -3.1224 -2.3271
  380MOL0     H50110   3.494   8.052  12.140 -1.6284 -1.2209 -0.3654
  380MOL0     H50111   3.433   8.184  12.356 -0.1564 -1.1929 -1.3893
  380MOL0     H50112   3.326   8.288  12.260  0.6426  1.1643 -3.2852
  380MOL0     H50113   3.706   8.174  12.237  0.1530  1.0276  1.7627
  380MOL0     H50114   3.874   8.326  11.992 -2.3131  1.7626 -0.7525
  380MOL0     H50115   3.925   8.286  12.168  0.3032  2.7289  2.1073
  380MOL0     H50116   3.932   8.503  12.223 -1.8264 -2.9641 -0.2753
  380MOL0     H50117   3.894   8.552  12.054 -0.9611  1.9993  1.8559
  380MOL0     H50118   4.133   8.581  12.059 -0.6596 -0.5136 -3.5786
  380MOL0     H50119   4.148   8.432  12.158  1.0679  0.8029  0.3276
  380MOL0     H50120   4.053   8.459  11.867 -1.2600  0.4152  1.6963
  380MOL0     H50121   4.112   8.308  11.935 -1.1611  0.1840 -3.1729
  380MOL0     H50122   4.476   8.525  11.810 -5.3100  0.4739  2.4006
  380MOL0     H50123   4.705   8.407  11.855 -0.2807 -1.8839 -0.9411
  380MOL0     H50124   4.837   8.191  12.324 -0.2317 -1.1829  1.7137
  380MOL0     H50125   5.017   8.105  12.438 -0.4407  0.7905 -0.8209
  380MOL0     H50126   5.301   7.945  12.283  2.3541  0.9408  2.1962
  380MOL0     H50127   5.261   7.773  12.250  1.1790  0.5676 -1.2393
  380MOL0     H50128   5.482   7.783  12.356  0.1128 -2.6981  0.0411
  380MOL0     H50129   5.357   7.694  12.446 -0.6892  0.8805  0.7121
  380MOL0     H50130   5.474   7.825  12.615  1.2461 -0.8122 -0.8940
  380MOL0     H50131   5.310   7.878  12.590  0.6692 -0.3124  0.5291
  380MOL0     H50132   5.567   7.999  12.510 -0.4995 -2.1190  0.7831
  380MOL0     H50133   5.405   8.066  12.447  2.9228  3.1537 -0.3457
  380MOL0     H50134   5.495   8.031  12.733  2.7614  3.5805  0.5455
  380MOL0     H50135   5.337   8.087  12.663 -1.5550  2.0552 -3.2866
  380MOL0     H50136   5.449   8.289  12.591 -2.2785 -3.9556 -0.3215
  380MOL0     H50137   5.611   8.232  12.626  0.4821 -1.6553  3.3166
  380MOL0     H50138   5.411   8.252  12.854 -0.6338  1.5206 -0.9714
  380MOL0     H50139   5.596   8.248  12.856  0.8085  0.0235  0.5125
  380MOL0     H50140   5.510   8.455  12.905 -0.5620 -2.0361  0.7359
  380MOL0     H50141   5.421   8.474  12.751 -1.1767 -3.1247  0.2838
  380MOL0     H50142   4.977   7.738  12.211 -2.8706 -0.3957 -0.2442
  380MOL0     H50143   4.826   7.840  12.070  0.5720 -0.6647  0.5445
  380MOL0     H50144   4.491   8.157  12.135  0.6011  0.1315 -1.1855
  380MOL0     H50145   4.275   8.271  12.080 -0.1726  0.9303  0.7367
  380MOL0     H50146   2.799   8.102  11.610  1.3364 -0.3921  0.6793
  380MOL0     H50147   2.774   7.940  11.431 -1.3055  0.5516 -0.3370
  380MOL0     H50148   2.321   7.569  11.293 -0.1480 -0.4404 -1.5599
  380MOL0     H50149   2.309   7.381  11.151  0.3949 -1.5978  2.4976
  380MOL0     H50150   2.549   7.082  10.918  1.2583  0.1367  0.3940
  380MOL0     H50151   2.671   7.129  11.021  3.2414 -1.5344 -4.0814
  380MOL0     H50152   2.549   7.363  10.863  0.3897  0.9912 -0.9151
  380MOL0     H50153   2.713   7.316  10.878  0.6062 -1.3923  4.1414
  380MOL0     H50154   2.499   7.168  10.713 -1.8908  2.7487 -1.1626
  380MOL0     H50155   2.686   7.151  10.700  2.3830  0.9319  3.0690
  380MOL0     H50156   2.507   7.376  10.620 -1.2896 -2.8799 -2.3179
  380MOL0     H50157   2.673   7.404  10.665 -1.4282  0.0469  2.6966
  380MOL0     H50158   2.730   7.290  10.267  3.3276  0.3710  0.1975
  380MOL0     H50159   2.736   7.357  11.135 -0.3049  0.2810  0.4685
  380MOL0     H50160   2.755   7.555  11.274  0.5169 -0.3260 -1.1870
  381MOL0     O50161  10.231  11.037   5.360 -0.6871  0.4144  0.8147
  381MOL0     C50162  10.340  11.018   5.304 -1.1431 -0.2570 -0.8364
  381MOL0     O50163  10.456  10.966   5.361  0.2900  0.7167  0.2541
  381MOL0     C50164  10.462  10.946   5.501 -0.4664  0.3844  0.6029
  381MOL0     C50165  10.547  10.841   5.544  1.1782  0.6418 -0.6913
  381MOL0     C50166  10.566  10.803   5.671 -0.3954 -0.1517 -0.7347
  381MOL0     C50167  10.499  10.881   5.773 -0.0038 -0.4614  1.0075
  381MOL0     O50168  10.497  10.832   5.902  0.6636  0.6122  0.3382
  381MOL0     C50169  10.485  10.923   6.011  1.1082  0.3278 -0.1952
  381MOL0     C50170  10.550  10.865   6.140 -0.0843 -0.2007  0.3991
  381MOL0     C50171  10.516  10.943   6.265  0.7818 -0.1391 -0.0671
  381MOL0     C50172  10.370  10.943   6.303  1.2201 -1.0858 -0.1564
  381MOL0     C50173  10.315  11.085   6.313 -0.0795 -0.1907 -0.5551
  381MOL0     C50174  10.369  11.157   6.441  0.4447  0.1568 -0.2863
  381MOL0     C50175  10.324  11.093   6.580 -0.1547  0.2643 -1.2059
  381MOL0     C50176  10.181  11.134   6.610 -0.0709 -0.4431 -0.5266
  381MOL0     N50177  10.142  11.275   6.591 -0.6850 -0.0314 -0.4278
  381MOL0     C50178  10.046  11.322   6.500 -0.3225 -0.5096 -0.1045
  381MOL0     C50179  10.063  11.461   6.500 -0.5781  0.2045  0.0228
  381MOL0     C50180   9.987  11.561   6.398  0.0156  1.1643  0.1948
  381MOL0     C50181  10.036  11.701   6.412 -0.2153 -0.5018 -0.2364
  381MOL0     C50182   9.988  11.798   6.314  0.0307 -0.0061  0.3548
  381MOL0     C50183  10.008  11.940   6.353  0.4445 -0.1583  0.2633
  381MOL0     O50184  10.147  11.977   6.337 -0.3959  1.4743  0.9697
  381MOL0     C50185  10.181  12.110   6.325  0.0842 -0.6393 -0.2193
  381MOL0     C50186  10.129  12.207   6.408  0.3437 -0.0223  0.6074
  381MOL0     C50187  10.163  12.342   6.398  0.6658  0.4253 -0.5820
  381MOL0     C50188  10.269  12.381   6.312  0.5553 -0.7723 -0.1872
  381MOL0     C50189  10.329  12.514   6.335 -1.0533  0.0631 -0.2419
  381MOL0     O50190  10.453  12.519   6.288 -0.1275  0.4403  0.6376
  381MOL0     C50191  10.519  12.628   6.246 -0.4573  0.5674 -0.4654
  381MOL0     C50192  10.658  12.616   6.249  0.0111  0.3487 -0.2647
  381MOL0     C50193  10.736  12.726   6.224  0.7506 -0.1792 -0.2418
  381MOL0     C50194  10.687  12.846   6.174 -0.3808  0.6666  0.6905
  381MOL0     O50195  10.757  12.960   6.153  0.7468 -0.1854 -0.0263
  381MOL0     C50196  10.900  12.958   6.174 -0.0443  0.6655  0.5507
  381MOL0     C50197  10.934  12.948   6.327 -0.8829 -0.3754  0.3895
  381MOL0     C50198  11.090  12.955   6.345 -0.3112 -0.5291  0.4774
  381MOL0     C50199  11.129  12.984   6.492  0.6073 -0.2204 -0.5336
  381MOL0     C50200  11.276  12.942   6.520  1.1652  0.0967 -0.5902
  381MOL0     C50201  11.279  12.784   6.517  0.7800  0.3356  0.7800
  381MOL0     C50202  11.413  12.726   6.576 -0.1922 -0.7095  0.1358
  381MOL0     C50203  11.401  12.744   6.731 -0.7050 -0.4133 -0.3963
  381MOL0    Cl50204  11.493  12.891   6.777  0.1508 -0.5381 -0.3948
  381MOL0     C50205  10.548  12.853   6.156 -0.3645 -0.1364  0.1938
  381MOL0     C50206  10.465  12.750   6.198  0.1737 -0.1594  0.3174
  381MOL0     O50207  10.264  12.600   6.387 -0.4017  0.0742  0.0823
  381MOL0     C50208  10.333  12.280   6.232 -0.1921  0.0913 -0.7883
  381MOL0     C50209  10.289  12.140   6.238 -0.2670  0.4715  0.2027
  381MOL0     N50210  10.152  11.494   6.601 -0.7864 -0.6328  0.0017
  381MOL0     N50211  10.190  11.384   6.660  0.8014  0.0305  0.3641
  381MOL0     C50212  10.419  10.994   5.737 -0.2460 -0.0242  0.0011
  381MOL0     C50213  10.405  11.025   5.604  0.6337  0.6485  0.9029
  381MOL0     C50214  10.343  11.043   5.158  0.3145  0.1394 -0.6744
  381MOL0     C50215  10.462  11.008   5.081 -0.0263  0.5201 -0.5071
  381MOL0     C50216  10.466  11.032   4.945 -0.1187  0.5324  0.2769
  381MOL0     C50217  10.346  11.066   4.876 -0.1290 -0.3979  0.3156
  381MOL0     O50218  10.338  11.068   4.734  0.0443 -0.1477  0.0304
  381MOL0     C50219  10.450  11.034   4.662 -0.6106 -0.0858 -0.2398
  381MOL0     C50220  10.421  11.064   4.516 -0.4373 -0.2079  0.0814
  381MOL0     C50221  10.315  10.969   4.458 -0.6391  0.1158  0.5334
  381MOL0     C50222  10.385  10.849   4.387  0.7246  0.6040  0.0732
  381MOL0     C50223  10.365  10.849   4.241 -0.5749 -0.2632 -0.5335
  381MOL0     C50224  10.332  10.863   4.120  0.0078 -0.7265  0.1249
  381MOL0     C50225  10.232  11.100   4.956  0.9256  0.0714 -0.1420
  381MOL0     C50226  10.230  11.091   5.095  0.1589  0.5594 -0.2791
  381MOL0     H50227  10.570  10.780   5.457  0.5330 -0.2475 -0.2494
  381MOL0     H50228  10.619  10.714   5.702  0.2135 -0.8674 -3.5034
  381MOL0     H50229  10.377  10.915   6.027  1.3602 -1.9262  0.8394
  381MOL0     H50230  10.512  11.027   5.992 -0.1316  0.7848  0.4087
  381MOL0     H50231  10.659  10.864   6.125 -0.4064  2.0215 -3.4119
  381MOL0     H50232  10.511  10.763   6.151 -1.6750  0.2804 -0.4922
  381MOL0     H50233  10.560  11.042   6.276 -1.5261  0.9654 -0.2629
  381MOL0     H50234  10.565  10.883   6.343 -2.1910 -3.4021 -0.4500
  381MOL0     H50235  10.310  10.902   6.221  0.0242 -0.8116  0.5622
  381MOL0     H50236  10.336  10.875   6.383 -0.8658  1.1654  0.9913
  381MOL0     H50237  10.206  11.077   6.317 -0.0404 -0.5844 -0.2933
  381MOL0     H50238  10.346  11.139   6.224  1.6518 -4.2170 -2.6581
  381MOL0     H50239  10.338  11.262   6.447  0.5514  0.1678  0.0492
  381MOL0     H50240  10.478  11.150   6.434  0.3764 -1.8176 -0.0358
  381MOL0     H50241  10.337  10.986   6.599 -1.2899  0.5408  1.6147
  381MOL0     H50242  10.382  11.143   6.658 -0.2230 -0.2043 -0.8512
  381MOL0     H50243  10.182  11.118   6.718  3.8301 -0.4283 -0.4458
  381MOL0     H50244  10.113  11.072   6.551 -1.2126  1.0107 -0.8136
  381MOL0     H50245   9.986  11.263   6.431  0.6888  2.4685 -3.8241
  381MOL0     H50246   9.880  11.560   6.421 -0.1788 -0.6482 -0.6003
  381MOL0     H50247   9.991  11.521   6.296  2.6703  2.0695 -0.1306
  381MOL0     H50248  10.145  11.689   6.408 -0.0097  1.0741  0.2406
  381MOL0     H50249  10.007  11.731   6.513  0.8311  1.0854 -0.3747
  381MOL0     H50250  10.048  11.778   6.225  1.6451  0.5383  1.2767
  381MOL0     H50251   9.881  11.778   6.302  0.0399  0.3052 -0.3077
  381MOL0     H50252   9.966  11.954   6.453 -0.7901 -1.0025 -0.1103
  381MOL0     H50253   9.958  11.999   6.276 -0.1437  1.9589  2.1582
  381MOL0     H50254  10.058  12.190   6.488 -0.1847  2.8924  0.8680
  381MOL0     H50255  10.130  12.417   6.469 -0.6019 -1.2643  0.6838
  381MOL0     H50256  10.704  12.519   6.265 -0.2063  0.5304  1.7022
  381MOL0     H50257  10.842  12.704   6.223  1.0166  0.7555 -3.6099
  381MOL0     H50258  10.946  13.046   6.128 -0.1527  0.3761 -0.1202
  381MOL0     H50259  10.941  12.873   6.119  1.7370  2.4000 -0.9826
  381MOL0     H50260  10.896  12.863   6.384  0.8024 -2.5637 -1.5407
  381MOL0     H50261  10.885  13.039   6.363 -0.2380  1.2287 -2.4031
  381MOL0     H50262  11.149  13.028   6.288 -1.0110  0.9351  1.5815
  381MOL0     H50263  11.135  12.866   6.299  0.0398 -0.4895  0.7436
  381MOL0     H50264  11.116  13.091   6.510  2.0751 -0.0552 -0.2678
  381MOL0     H50265  11.069  12.921   6.558  1.7116  0.6793  1.4169
  381MOL0     H50266  11.305  12.984   6.617 -0.2912  1.9531 -0.9098
  381MOL0     H50267  11.335  12.988   6.440 -1.9832 -0.5858 -3.5369
  381MOL0     H50268  11.259  12.743   6.418  0.1325  0.1891  0.9658
  381MOL0     H50269  11.203  12.743   6.585  1.0739  2.5088  2.5110
  381MOL0     H50270  11.405  12.621   6.547 -1.5567  0.2758 -3.6592
  381MOL0     H50271  11.506  12.765   6.533 -0.0284 -0.6510  0.5416
  381MOL0     H50272  11.445  12.662   6.788  2.1237  0.4367 -1.1846
  381MOL0     H50273  11.295  12.741   6.757 -0.7145 -1.7269 -0.4859
  381MOL0     H50274  10.510  12.946   6.114 -2.4455 -0.7298  0.6757
  381MOL0     H50275  10.358  12.762   6.183  0.7500  3.0180 -2.7971
  381MOL0     H50276  10.426  12.307   6.183  2.0036 -0.8438  2.5883
  381MOL0     H50277  10.330  12.054   6.188 -1.7959 -0.0268 -0.2592
  381MOL0     H50278  10.352  11.054   5.798  0.7292 -0.2216  1.3220
  381MOL0     H50279  10.341  11.099   5.558  1.9134  0.6487 -0.9911
  381MOL0     H50280  10.539  10.965   5.145 -0.4647 -1.2146 -1.1094
  381MOL0     H50281  10.555  11.001   4.893 -2.3816 -3.9816 -1.4251
  381MOL0     H50282  10.478  10.929   4.678  3.1864  1.0274  1.6236
  381MOL0     H50283  10.531  11.102   4.693 -0.5922 -1.3014  2.7008
  381MOL0     H50284  10.375  11.162   4.505 -0.2197 -0.2614 -1.4639
  381MOL0     H50285  10.515  11.079   4.462  0.9319  2.0151  2.8168
  381MOL0     H50286  10.254  11.019   4.383 -1.1570 -1.4292 -0.1300
  381MOL0     H50287  10.235  10.933   4.523  0.3927 -1.4372  0.9935
  381MOL0     H50288  10.491  10.848   4.411  0.9442  1.1471 -0.8448
  381MOL0     H50289  10.346  10.752   4.419 -1.8284  1.9336  1.3001
  381MOL0     H50290  10.316  10.877   4.015  2.4411 -1.7183 -0.4473
  381MOL0     H50291  10.139  11.129   4.910  0.3274 -0.3525  0.7660
  381MOL0     H50292  10.141  11.116   5.151  1.2283 -0.4703  2.0223
  382MOL0     O50293   0.911   8.305   0.868 -0.7144  0.2597 -0.0429
  382MOL0     C50294   0.957   8.214   0.799 -0.0265  0.1223 -0.4041
  382MOL0     O50295   1.044   8.230   0.695 -0.0755 -0.0776 -0.0041
  382MOL0     C50296   1.093   8.355   0.654 -0.1735 -0.9028  0.1662
  382MOL0     C50297   1.227   8.375   0.632 -0.0685  1.1786  0.6221
  382MOL0     C50298   1.289   8.498   0.606 -0.0892  0.8115  0.2126
  382MOL0     C50299   1.211   8.613   0.616 -0.6179  0.2906 -0.1094
  382MOL0     O50300   1.272   8.735   0.605 -0.2693  0.9447  0.5764
  382MOL0     C50301   1.226   8.855   0.672 -0.3218 -0.1918  0.2833
  382MOL0     C50302   1.322   8.942   0.749  0.0414 -0.3832  0.3626
  382MOL0     C50303   1.275   9.090   0.754  0.5209 -0.2056 -0.2652
  382MOL0     C50304   1.136   9.107   0.814  0.3167 -0.2807 -0.4350
  382MOL0     C50305   1.101   9.255   0.821 -0.6408 -0.2311  0.5092
  382MOL0     C50306   0.966   9.280   0.906 -0.1746  0.0073  0.4840
  382MOL0     C50307   0.917   9.429   0.895  0.2376 -0.2472  1.1305
  382MOL0     C50308   0.969   9.527   1.001  1.1109  0.6337 -1.2043
  382MOL0     N50309   0.947   9.475   1.136 -0.5090 -0.0252 -0.1054
  382MOL0     C50310   1.050   9.462   1.226 -0.7918  0.7897 -0.6104
  382MOL0     C50311   0.992   9.425   1.337  0.0283 -0.0066 -0.8665
  382MOL0     C50312   1.070   9.401   1.466 -1.3329 -0.0222  0.5325
  382MOL0     C50313   1.171   9.512   1.498 -0.0826  0.1203  0.8748
  382MOL0     C50314   1.230   9.505   1.633  0.0364  0.0024  0.4024
  382MOL0     C50315   1.340   9.416   1.636 -0.3400 -0.0423 -0.1271
  382MOL0     O50316   1.363   9.374   1.769  0.3324 -0.0567  1.0715
  382MOL0     C50317   1.282   9.279   1.822 -0.7308  0.4390 -0.2131
  382MOL0     C50318   1.194   9.194   1.760  0.5645  0.6841  0.6240
  382MOL0     C50319   1.130   9.099   1.837  0.7152  0.8787  0.0295
  382MOL0     C50320   1.168   9.077   1.968  0.6650  0.8428 -0.4101
  382MOL0     C50321   1.125   8.965   2.051 -0.0700  0.1164  0.7672
  382MOL0     O50322   1.113   8.998   2.185 -0.3882  0.8258  0.0293
  382MOL0     C50323   1.106   8.896   2.280 -0.8516 -0.3556  0.3774
  382MOL0     C50324   1.028   8.923   2.392 -0.3433 -0.4413 -1.2316
  382MOL0     C50325   1.010   8.826   2.502 -0.5902  0.5771 -0.4035
  382MOL0     C50326   1.078   8.700   2.498  0.2595  0.1965 -0.9589
  382MOL0     O50327   1.073   8.613   2.612 -0.1600 -0.1297  0.7971
  382MOL0     C50328   1.195   8.616   2.696  0.4958  0.2868  1.0767
  382MOL0     C50329   1.278   8.495   2.664 -0.9889 -0.2747  1.0004
  382MOL0     C50330   1.205   8.365   2.632  0.5048 -0.3100  0.6444
  382MOL0     C50331   1.092   8.330   2.730  0.2927 -0.3878  0.3262
  382MOL0     C50332   1.059   8.186   2.733  0.1907  0.7322 -0.1821
  382MOL0     C50333   0.941   8.188   2.829  0.2697 -0.9197  0.9247
  382MOL0     C50334   0.897   8.043   2.861  0.1282  0.1213  0.1528
  382MOL0     C50335   0.781   8.038   2.973 -0.2453  0.6291  1.2938
  382MOL0    Cl50336   0.762   7.869   3.028  0.1428 -0.0688  0.0303
  382MOL0     C50337   1.151   8.676   2.382  0.6411  0.5981  0.5071
  382MOL0     C50338   1.167   8.766   2.272  0.9199 -0.5175 -0.6349
  382MOL0     O50339   1.094   8.863   1.995 -0.4498 -0.3967 -0.1647
  382MOL0     C50340   1.243   9.168   2.033 -0.5344  0.5290  0.0992
  382MOL0     C50341   1.314   9.263   1.960 -0.6269 -1.1639  0.4125
  382MOL0     N50342   0.847   9.411   1.318  0.0606  0.9004 -0.1073
  382MOL0     N50343   0.827   9.448   1.193 -0.5094  0.4251 -0.3024
  382MOL0     C50344   1.073   8.591   0.658  0.3942 -0.1233  0.2790
  382MOL0     C50345   1.014   8.469   0.653 -0.6491 -0.1139  0.2055
  382MOL0     C50346   0.934   8.076   0.840  0.4214  0.1916  0.5971
  382MOL0     C50347   0.980   7.980   0.755 -0.0706 -0.6759  0.3093
  382MOL0     C50348   0.955   7.847   0.773 -0.3448  0.3604  0.3960
  382MOL0     C50349   0.886   7.801   0.887  0.0496 -0.5421  0.0491
  382MOL0     O50350   0.869   7.669   0.911  0.2467 -0.8287 -0.1721
  382MOL0     C50351   0.983   7.596   0.961 -0.9755 -0.0491 -0.1147
  382MOL0     C50352   0.958   7.537   1.092  0.9186  0.4437 -0.1688
  382MOL0     C50353   1.092   7.503   1.160 -0.4662  0.8848 -0.0015
  382MOL0     C50354   1.099   7.471   1.309  0.0377 -0.3300 -0.1983
  382MOL0     C50355   1.000   7.373   1.348  0.3949  1.4688 -0.1098
  382MOL0     C50356   0.916   7.289   1.372  0.6248  0.4336 -0.4125
  382MOL0     C50357   0.840   7.899   0.973  1.0288  0.4189 -0.0910
  382MOL0     C50358   0.847   8.038   0.951 -0.3313  0.0099  0.9224
  382MOL0     H50359   1.291   8.287   0.643 -0.0871  0.9149 -1.1096
  382MOL0     H50360   1.397   8.507   0.612 -0.0159 -0.4757  1.2545
  382MOL0     H50361   1.143   8.840   0.742  0.9576 -0.5468  1.7758
  382MOL0     H50362   1.172   8.916   0.599 -2.6195 -0.0629  1.9948
  382MOL0     H50363   1.426   8.944   0.716  0.3161  2.4832  1.0867
  382MOL0     H50364   1.325   8.900   0.850  1.6907  0.3051  0.6305
  382MOL0     H50365   1.275   9.123   0.650  2.2457 -0.7171 -0.4767
  382MOL0     H50366   1.347   9.158   0.800 -1.3105  2.3592 -0.9979
  382MOL0     H50367   1.061   9.049   0.759  1.4712 -2.8813  0.5679
  382MOL0     H50368   1.130   9.077   0.919  0.0668  4.2034  1.0353
  382MOL0     H50369   1.097   9.291   0.718 -3.2513 -2.0995 -0.1601
  382MOL0     H50370   1.185   9.299   0.875 -1.4966 -2.6942  4.2999
  382MOL0     H50371   0.991   9.249   1.008 -0.9162 -0.6973  0.4589
  382MOL0     H50372   0.884   9.218   0.868 -0.9710 -0.5357  2.9286
  382MOL0     H50373   0.954   9.470   0.801 -0.4562  0.5208  1.1847
  382MOL0     H50374   0.810   9.438   0.873  0.3946  1.9645  1.1281
  382MOL0     H50375   0.904   9.614   0.986  0.1281  0.1918  0.2960
  382MOL0     H50376   1.071   9.564   0.984  2.0902 -1.0480  0.5229
  382MOL0     H50377   1.153   9.490   1.207 -0.4638 -1.5791 -2.7413
  382MOL0     H50378   1.118   9.302   1.457 -1.6201 -0.2467  1.3225
  382MOL0     H50379   1.001   9.394   1.551 -0.0099 -1.9515  1.5356
  382MOL0     H50380   1.116   9.605   1.481 -0.2160 -0.0883  0.0975
  382MOL0     H50381   1.257   9.509   1.430 -0.6123  2.3334  0.0126
  382MOL0     H50382   1.251   9.610   1.654 -3.1061  0.5597  1.3294
  382MOL0     H50383   1.147   9.466   1.693 -0.8748 -0.9933 -1.4072
  382MOL0     H50384   1.424   9.473   1.595 -1.7217  1.7865 -0.5655
  382MOL0     H50385   1.315   9.334   1.569  3.3741 -2.0199  0.5948
  382MOL0     H50386   1.174   9.193   1.654 -2.1254  1.3668  1.0616
  382MOL0     H50387   1.057   9.029   1.798  1.4838  0.6093 -0.9752
  382MOL0     H50388   0.990   9.023   2.402 -0.1029 -0.2887 -1.7902
  382MOL0     H50389   0.947   8.857   2.584 -0.4269  3.4436 -1.2501
  382MOL0     H50390   1.170   8.605   2.801  2.0592 -1.5002  1.3192
  382MOL0     H50391   1.254   8.706   2.679  1.2869 -0.6177 -1.4885
  382MOL0     H50392   1.350   8.471   2.743  0.4206 -1.2530 -0.5201
  382MOL0     H50393   1.323   8.518   2.568 -1.0859 -1.3292  0.6837
  382MOL0     H50394   1.273   8.280   2.626 -0.7876 -1.4502  1.4472
  382MOL0     H50395   1.153   8.378   2.536  0.5551  0.9497  0.7739
  382MOL0     H50396   1.133   8.364   2.825  0.9416  1.5918 -0.5997
  382MOL0     H50397   1.003   8.391   2.712  0.1923 -0.6857 -0.2229
  382MOL0     H50398   1.143   8.132   2.778  0.6007  2.1056  0.7640
  382MOL0     H50399   1.015   8.145   2.642 -0.0134  2.9854 -1.1492
  382MOL0     H50400   0.853   8.237   2.787 -0.2987 -1.8986  0.9438
  382MOL0     H50401   0.967   8.242   2.921  0.9649  0.9711 -0.3377
  382MOL0     H50402   0.855   7.992   2.774 -3.9536  1.0258  1.3828
  382MOL0     H50403   0.983   7.993   2.907 -0.4450  2.7775  4.8163
  382MOL0     H50404   0.692   8.080   2.926  1.3282  2.9550  0.2030
  382MOL0     H50405   0.806   8.107   3.054 -2.6402  2.4164  0.6314
  382MOL0     H50406   1.202   8.588   2.344  0.7956  2.0079 -2.9824
  382MOL0     H50407   1.246   8.750   2.199  1.0287  0.3116 -0.7040
  382MOL0     H50408   1.271   9.170   2.138  2.6241  0.4800 -0.6278
  382MOL0     H50409   1.389   9.322   2.012 -1.1187 -1.2229  1.1964
  382MOL0     H50410   1.010   8.678   0.678  0.7938  0.2549 -0.1019
  382MOL0     H50411   0.909   8.442   0.661 -1.0299  1.5449  1.4303
  382MOL0     H50412   1.037   8.011   0.668 -0.2717  0.4278  0.5602
  382MOL0     H50413   0.985   7.769   0.703 -3.4371 -0.5813 -0.0277
  382MOL0     H50414   1.065   7.668   0.973 -0.6102 -0.6144  0.9463
  382MOL0     H50415   1.008   7.512   0.895 -3.3537 -1.8469  1.1267
  382MOL0     H50416   0.902   7.608   1.154  1.6861  1.2778 -0.4068
  382MOL0     H50417   0.900   7.446   1.078  1.9024 -0.5315  1.7386
  382MOL0     H50418   1.161   7.584   1.134 -0.6812  0.3233 -2.6044
  382MOL0     H50419   1.135   7.418   1.107 -1.0781  0.6044 -0.0548
  382MOL0     H50420   1.198   7.431   1.334 -0.7360 -0.1592  3.8155
  382MOL0     H50421   1.080   7.566   1.360  1.0517 -0.2746  0.1050
  382MOL0     H50422   0.859   7.203   1.401 -0.6646  0.0761 -3.5731
  382MOL0     H50423   0.791   7.865   1.064  0.7768 -2.1556 -1.0888
  382MOL0     H50424   0.798   8.096   1.028 -0.7269 -1.0410  1.4860
  383MOL0     O50425   7.791   1.960   7.638  0.4134  0.2693  0.0276
  383MOL0     C50426   7.885   1.941   7.719  0.4815  0.2472 -0.4877
  383MOL0     O50427   7.886   1.966   7.856  1.0513  0.5556  0.8485
  383MOL0     C50428   7.780   2.030   7.912  0.8825 -0.5331  0.6653
  383MOL0     C50429   7.807   2.155   7.971  0.2962 -0.3058  0.5929
  383MOL0     C50430   7.711   2.237   8.019 -0.6053  0.4897  0.5089
  383MOL0     C50431   7.579   2.183   8.029 -0.6856 -0.4441  0.8422
  383MOL0     O50432   7.473   2.247   8.080  0.4819 -1.2015 -1.0450
  383MOL0     C50433   7.478   2.336   8.189  0.7867  0.0696  0.3068
  383MOL0     C50434   7.337   2.392   8.223  0.4628 -0.0798 -0.3153
  383MOL0     C50435   7.322   2.534   8.174 -0.7711  0.1987  0.4233
  383MOL0     C50436   7.406   2.632   8.257 -0.0562  0.1384  0.0593
  383MOL0     C50437   7.326   2.766   8.305 -0.7311  0.4039 -0.2798
  383MOL0     C50438   7.312   2.859   8.188 -0.6034 -0.1394 -0.2666
  383MOL0     C50439   7.251   2.985   8.213 -0.5222  0.6803 -0.3999
  383MOL0     C50440   7.111   2.979   8.288 -0.1252 -0.1820  0.1817
  383MOL0     N50441   6.999   2.933   8.205  0.5609  0.0547  0.1451
  383MOL0     C50442   6.966   2.803   8.181 -0.6876  0.4632  0.2475
  383MOL0     C50443   6.851   2.801   8.107  0.5610  0.4435  0.0964
  383MOL0     C50444   6.758   2.687   8.078 -0.8908 -0.0059 -0.1789
  383MOL0     C50445   6.610   2.720   8.097  0.2342 -0.2692 -0.2242
  383MOL0     C50446   6.578   2.773   8.247 -0.5582 -0.8284 -0.2119
  383MOL0     C50447   6.436   2.754   8.280 -0.4949  0.0508 -0.6848
  383MOL0     O50448   6.428   2.738   8.424  0.9522  0.3404  0.5374
  383MOL0     C50449   6.306   2.711   8.489  0.7586  0.1830  0.1863
  383MOL0     C50450   6.316   2.693   8.628  0.6978 -0.0237  0.0221
  383MOL0     C50451   6.191   2.664   8.694 -0.3592  0.1566 -0.1023
  383MOL0     C50452   6.065   2.653   8.623 -0.9533  0.8061 -0.2978
  383MOL0     C50453   5.935   2.619   8.692 -0.6500  0.0290 -0.1701
  383MOL0     O50454   5.855   2.537   8.615  0.2555  0.1637 -0.3132
  383MOL0     C50455   5.744   2.476   8.667 -0.8148 -0.7037 -0.0789
  383MOL0     C50456   5.743   2.415   8.792  0.5775 -0.7818  0.3488
  383MOL0     C50457   5.624   2.359   8.842 -0.0855 -0.0131  0.7039
  383MOL0     C50458   5.511   2.362   8.761  0.4474  0.6130 -0.3097
  383MOL0     O50459   5.388   2.313   8.792 -0.0097  0.5678  0.2635
  383MOL0     C50460   5.303   2.379   8.894  0.5905 -0.7113  0.3619
  383MOL0     C50461   5.163   2.341   8.866  0.7766  0.0598 -0.3558
  383MOL0     C50462   5.127   2.332   8.717 -1.2100  0.6562  0.7265
  383MOL0     C50463   4.978   2.335   8.696 -0.1538 -0.3050  0.1207
  383MOL0     C50464   4.934   2.342   8.548 -0.0671  0.3367 -1.2438
  383MOL0     C50465   4.799   2.416   8.539  0.6354 -0.0134 -0.4232
  383MOL0     C50466   4.677   2.335   8.591 -0.4164 -0.0164 -0.1979
  383MOL0     C50467   4.564   2.425   8.619  0.5235 -0.5018  0.0828
  383MOL0    Cl50468   4.588   2.522   8.775  0.2045  0.1202  0.0139
  383MOL0     C50469   5.520   2.414   8.635 -0.4547  0.3416  0.8253
  383MOL0     C50470   5.631   2.471   8.581 -0.2626  0.5480  0.0428
  383MOL0     O50471   5.924   2.662   8.804 -0.0583 -0.4339 -0.4958
  383MOL0     C50472   6.066   2.677   8.488 -1.0132 -0.2290 -0.1046
  383MOL0     C50473   6.178   2.696   8.416  0.4254  0.5667  0.2215
  383MOL0     N50474   6.819   2.937   8.080  0.4644  0.0478 -0.0150
  383MOL0     N50475   6.912   3.012   8.135 -0.4764  0.3062 -0.4664
  383MOL0     C50476   7.548   2.057   7.967  0.4137 -0.0155 -0.2558
  383MOL0     C50477   7.650   1.983   7.913 -0.5362  0.3022 -1.0575
  383MOL0     C50478   8.021   1.881   7.670  0.1061  0.4189 -0.9964
  383MOL0     C50479   8.057   1.887   7.540  0.2216 -0.1715 -0.5340
  383MOL0     C50480   8.181   1.832   7.508  0.6758 -0.4302  0.6563
  383MOL0     C50481   8.266   1.767   7.605 -0.0733  0.0289 -0.6143
  383MOL0     O50482   8.386   1.713   7.589 -0.4020  0.3102 -0.3473
  383MOL0     C50483   8.445   1.721   7.462  0.5920  0.1830 -0.0692
  383MOL0     C50484   8.598   1.699   7.476 -1.3199  0.1884 -0.0777
  383MOL0     C50485   8.668   1.689   7.343 -0.0413  0.4151 -0.3027
  383MOL0     C50486   8.823   1.690   7.356  0.4215  0.1744  0.8106
  383MOL0     C50487   8.888   1.694   7.219 -0.0065 -0.6367 -0.0867
  383MOL0     C50488   8.945   1.679   7.110  0.1704  0.1277 -0.0572
  383MOL0     C50489   8.225   1.749   7.734 -0.8817 -0.2162 -0.1791
  383MOL0     C50490   8.099   1.807   7.771 -0.4732 -0.0113  0.4441
  383MOL0     H50491   7.908   2.195   7.962 -0.8805  2.4895 -1.4543
  383MOL0     H50492   7.725   2.335   8.063  0.3280 -0.6240  2.8591
  383MOL0     H50493   7.543   2.411   8.143  0.3990  0.0441 -0.2920
  383MOL0     H50494   7.529   2.295   8.277 -0.5124  0.7718  1.4195
  383MOL0     H50495   7.311   2.385   8.328  2.0448  1.1880  0.2212
  383MOL0     H50496   7.273   2.319   8.173  1.4214  0.6479 -2.8064
  383MOL0     H50497   7.214   2.546   8.189 -0.5692  0.8106  1.4695
  383MOL0     H50498   7.340   2.551   8.068 -2.0413 -1.4449 -0.0998
  383MOL0     H50499   7.445   2.593   8.351  2.0612  0.4808 -0.6131
  383MOL0     H50500   7.498   2.653   8.201 -0.1937  2.5805  0.6065
  383MOL0     H50501   7.384   2.805   8.389  0.4858 -2.4503  0.3352
  383MOL0     H50502   7.227   2.726   8.329 -0.3577 -0.5642 -0.2959
  383MOL0     H50503   7.249   2.819   8.107  0.7250  3.2065 -3.1894
  383MOL0     H50504   7.415   2.881   8.158 -0.8165  1.4045  0.0889
  383MOL0     H50505   7.323   3.036   8.278 -0.5009  0.8786 -0.5796
  383MOL0     H50506   7.242   3.045   8.122 -2.2328  0.7020 -0.2523
  383MOL0     H50507   7.073   3.074   8.327  2.1338  1.2854 -1.0005
  383MOL0     H50508   7.109   2.919   8.380 -1.3135  0.5327  0.6479
  383MOL0     H50509   7.015   2.719   8.230  1.0437  2.0526  1.3813
  383MOL0     H50510   6.784   2.595   8.131  3.1753  1.0267 -0.0209
  383MOL0     H50511   6.773   2.652   7.976 -0.9509 -1.4552  0.2810
  383MOL0     H50512   6.546   2.632   8.082 -0.3338 -0.4614  2.7050
  383MOL0     H50513   6.591   2.796   8.021  1.1245  0.1872 -0.0006
  383MOL0     H50514   6.639   2.716   8.317 -1.9005 -2.4116 -0.2718
  383MOL0     H50515   6.617   2.875   8.256 -1.4145 -0.4598 -0.4705
  383MOL0     H50516   6.392   2.661   8.241 -1.6981 -0.4479  1.6720
  383MOL0     H50517   6.387   2.848   8.252  2.0106  1.2748 -1.2153
  383MOL0     H50518   6.415   2.701   8.670  1.3129 -0.9132 -1.2070
  383MOL0     H50519   6.188   2.651   8.801  2.0737  0.3352  0.0536
  383MOL0     H50520   5.829   2.426   8.858 -0.5317 -1.1230  1.9052
  383MOL0     H50521   5.607   2.326   8.944  3.3177 -0.6925  1.1547
  383MOL0     H50522   5.333   2.484   8.895  0.7831 -0.7021  3.0215
  383MOL0     H50523   5.333   2.335   8.990  0.9589 -0.0367  0.5665
  383MOL0     H50524   5.092   2.407   8.917 -0.0769 -1.6980  0.8344
  383MOL0     H50525   5.141   2.245   8.914 -2.8033  0.9026 -0.0290
  383MOL0     H50526   5.164   2.240   8.671  2.4097  2.9456 -1.4209
  383MOL0     H50527   5.176   2.408   8.656 -0.2233  0.2326  0.9860
  383MOL0     H50528   4.932   2.263   8.764  1.6350  2.2743  4.5603
  383MOL0     H50529   4.949   2.429   8.746 -0.7902 -0.7467  0.5987
  383MOL0     H50530   4.940   2.240   8.508  2.1709  0.2971 -0.9328
  383MOL0     H50531   5.003   2.397   8.483  0.8478 -1.5159 -1.9187
  383MOL0     H50532   4.782   2.436   8.432 -3.8805  0.5429  0.2183
  383MOL0     H50533   4.803   2.510   8.595 -1.4016 -1.2366  1.9051
  383MOL0     H50534   4.636   2.273   8.511  0.9617 -0.8382 -0.2954
  383MOL0     H50535   4.716   2.272   8.672 -0.8054 -0.3561 -0.2716
  383MOL0     H50536   4.488   2.354   8.653 -0.6939  0.7143 -0.0076
  383MOL0     H50537   4.541   2.484   8.529  1.8027  0.1420  0.1536
  383MOL0     H50538   5.437   2.397   8.567  0.8851 -1.1061 -0.5256
  383MOL0     H50539   5.641   2.511   8.481 -1.7533  0.4202 -0.1769
  383MOL0     H50540   5.975   2.678   8.428 -1.6754  1.2286  0.8842
  383MOL0     H50541   6.170   2.713   8.309  0.6183 -2.4640 -0.3725
  383MOL0     H50542   7.447   2.018   7.969  0.3714  0.1008  0.2377
  383MOL0     H50543   7.613   1.901   7.852 -0.8542  1.5837 -2.6752
  383MOL0     H50544   8.005   1.946   7.464 -1.0196  0.7643  0.9844
  383MOL0     H50545   8.226   1.854   7.412  1.3940  1.4000  1.3708
  383MOL0     H50546   8.425   1.813   7.406  0.3600 -1.1516 -2.3210
  383MOL0     H50547   8.405   1.632   7.412  0.9182 -1.4059  2.3289
  383MOL0     H50548   8.633   1.782   7.538  0.1352  0.0846 -0.7049
  383MOL0     H50549   8.622   1.603   7.524  0.0776  0.3957 -0.3029
  383MOL0     H50550   8.638   1.779   7.288  0.8202  2.8803  2.9664
  383MOL0     H50551   8.629   1.602   7.290 -1.9064 -0.0335  1.6811
  383MOL0     H50552   8.843   1.782   7.412 -2.0063  0.4666  1.3014
  383MOL0     H50553   8.863   1.609   7.417  1.5402 -0.5432 -0.7910
  383MOL0     H50554   8.967   1.666   7.006 -1.8568  2.1231 -0.7978
  383MOL0     H50555   8.271   1.686   7.810 -3.8490 -1.6235  0.6298
  383MOL0     H50556   8.076   1.809   7.877  1.1158  1.7564  0.8058
  384MOL0     O50557   9.437   1.761   7.149  0.6357  0.2007 -0.6513
  384MOL0     C50558   9.401   1.877   7.169 -0.0516  0.4431 -0.6573
  384MOL0     O50559   9.457   1.987   7.117 -0.5799 -0.4860 -0.7349
  384MOL0     C50560   9.585   1.986   7.079 -0.1049  0.4850  0.3405
  384MOL0     C50561   9.683   1.932   7.154  1.0826  0.8464 -0.3744
  384MOL0     C50562   9.810   1.910   7.101 -0.8789  0.1502 -0.7646
  384MOL0     C50563   9.837   1.955   6.976 -0.0087 -0.6460  0.2169
  384MOL0     O50564   9.962   1.932   6.928  0.3493 -1.3062  0.5570
  384MOL0     C50565   9.968   1.916   6.784 -0.1420 -0.1490 -0.9215
  384MOL0     C50566  10.101   1.872   6.743 -0.2546 -0.7202  1.1383
  384MOL0     C50567  10.213   1.911   6.838 -1.2485 -0.9785  0.2993
  384MOL0     C50568  10.239   2.069   6.848 -0.4725 -0.3326 -0.6740
  384MOL0     C50569  10.331   2.108   6.960 -0.7183 -1.1344 -0.0377
  384MOL0     C50570  10.361   2.263   6.967  0.8957  0.1752  0.0286
  384MOL0     C50571  10.473   2.285   7.078  0.1824  0.4168 -0.4300
  384MOL0     C50572  10.512   2.428   7.088  0.2954 -0.4336 -0.0772
  384MOL0     N50573  10.400   2.516   7.102  0.3419 -0.5082  0.4663
  384MOL0     C50574  10.320   2.565   6.997  0.6860  0.0069 -0.0374
  384MOL0     C50575  10.207   2.618   7.060 -0.0967  0.5745 -0.3034
  384MOL0     C50576  10.086   2.680   6.993  0.2320  0.0448 -0.2215
  384MOL0     C50577  10.071   2.657   6.842 -0.2548 -0.4344  0.7419
  384MOL0     C50578   9.920   2.706   6.807  0.5376 -0.7993  0.0313
  384MOL0     C50579   9.889   2.649   6.660  1.3066  0.3667 -0.0735
  384MOL0     O50580   9.755   2.689   6.618  0.0984  0.5941  0.5988
  384MOL0     C50581   9.639   2.670   6.684 -0.0871  0.0596 -0.7135
  384MOL0     C50582   9.525   2.754   6.671 -0.2339  0.1907 -0.1481
  384MOL0     C50583   9.408   2.722   6.742  1.0244  0.7574  0.2031
  384MOL0     C50584   9.397   2.595   6.806  0.2476  0.1645  0.4436
  384MOL0     C50585   9.283   2.560   6.885 -0.5009  0.0624 -0.5059
  384MOL0     O50586   9.272   2.426   6.907 -0.1063  0.3283  0.8924
  384MOL0     C50587   9.167   2.371   6.974 -0.0365  0.8898  0.1869
  384MOL0     C50588   9.032   2.414   6.967  0.2355 -0.2830  0.8690
  384MOL0     C50589   8.934   2.350   7.033 -0.3219  0.5752 -0.1720
  384MOL0     C50590   8.948   2.232   7.107  0.7067 -0.7302 -0.0350
  384MOL0     O50591   8.835   2.171   7.163 -0.0810 -0.9289 -0.2122
  384MOL0     C50592   8.847   2.076   7.265  0.6482  0.4268 -1.2729
  384MOL0     C50593   8.711   2.047   7.331  0.7879  1.0201  1.3538
  384MOL0     C50594   8.670   2.153   7.426  0.3598 -0.2498 -0.2064
  384MOL0     C50595   8.535   2.108   7.498 -0.6980  0.4780  0.4491
  384MOL0     C50596   8.486   2.193   7.607  0.3610  0.5249 -0.7336
  384MOL0     C50597   8.364   2.127   7.677  0.2502 -1.1822 -0.5643
  384MOL0     C50598   8.313   2.215   7.790 -1.5757  0.1388 -0.3272
  384MOL0     C50599   8.190   2.163   7.852  0.2554 -1.2233  0.4212
  384MOL0    Cl50600   8.229   2.035   7.962 -0.1820 -0.0993 -0.3496
  384MOL0     C50601   9.078   2.197   7.122  0.0772  0.1561  0.7444
  384MOL0     C50602   9.181   2.263   7.057  0.0635  0.1803  0.2610
  384MOL0     O50603   9.201   2.648   6.908 -0.3466 -0.3824 -0.1228
  384MOL0     C50604   9.518   2.522   6.829 -0.0806  0.5809  0.7908
  384MOL0     C50605   9.632   2.562   6.771 -0.2210  0.4986 -0.0196
  384MOL0     N50606  10.220   2.604   7.202 -0.3307 -0.0743  0.2075
  384MOL0     N50607  10.341   2.546   7.221 -0.3193 -0.2373  0.0962
  384MOL0     C50608   9.746   2.037   6.911  0.0087  0.7046  0.5646
  384MOL0     C50609   9.616   2.054   6.958  0.5326 -0.1023 -0.2616
  384MOL0     C50610   9.305   1.905   7.283  0.2830 -0.2860  0.3809
  384MOL0     C50611   9.233   1.798   7.344  1.1051 -0.6886 -0.0341
  384MOL0     C50612   9.144   1.832   7.446 -0.0422  0.5355 -0.8912
  384MOL0     C50613   9.138   1.960   7.495 -0.2663 -0.7653 -0.1830
  384MOL0     O50614   9.044   1.992   7.586 -0.0087  0.4409  0.0866
  384MOL0     C50615   9.042   1.904   7.700 -0.8962  0.1009 -0.1140
  384MOL0     C50616   9.007   2.003   7.812  0.0121  0.4073 -0.9000
  384MOL0     C50617   8.858   2.046   7.800 -0.9478  0.8867 -1.0377
  384MOL0     C50618   8.754   1.948   7.861  0.0005 -0.3832 -0.1801
  384MOL0     C50619   8.763   1.939   8.002 -0.2499 -0.1255 -0.7793
  384MOL0     C50620   8.784   1.933   8.120  0.3852 -0.2907 -0.5955
  384MOL0     C50621   9.217   2.056   7.444 -0.1800  0.7227  0.1202
  384MOL0     C50622   9.303   2.036   7.333 -0.3767  0.1508 -0.9245
  384MOL0     H50623   9.652   1.892   7.251 -1.0691 -0.6467 -1.5891
  384MOL0     H50624   9.888   1.853   7.151 -2.3207 -2.2722 -1.0953
  384MOL0     H50625   9.946   2.011   6.735 -2.4866 -0.0851  0.1150
  384MOL0     H50626   9.892   1.845   6.750 -1.3111  1.6027 -2.1567
  384MOL0     H50627  10.120   1.918   6.646 -1.0662 -1.0597  0.8106
  384MOL0     H50628  10.094   1.764   6.730 -0.2869 -1.4002  5.3903
  384MOL0     H50629  10.313   1.871   6.818 -0.6536 -0.2353  1.5649
  384MOL0     H50630  10.189   1.885   6.942  1.3387  0.4262  1.3794
  384MOL0     H50631  10.276   2.115   6.756  2.8849  0.7082  1.0329
  384MOL0     H50632  10.143   2.115   6.872 -1.7228 -0.7186 -4.4088
  384MOL0     H50633  10.425   2.052   6.947 -1.1743 -1.4328 -2.5092
  384MOL0     H50634  10.307   2.069   7.059  0.8387  0.7852  1.1732
  384MOL0     H50635  10.272   2.319   6.998  1.5317  2.2410 -1.6357
  384MOL0     H50636  10.395   2.301   6.870  1.9409 -0.2038  0.2388
  384MOL0     H50637  10.419   2.261   7.170 -1.9012 -0.4534 -1.7980
  384MOL0     H50638  10.552   2.211   7.063 -1.1827 -2.0241  3.0033
  384MOL0     H50639  10.569   2.456   7.000  2.1052  2.1395  1.7531
  384MOL0     H50640  10.578   2.431   7.176  1.2922 -1.7579 -0.7521
  384MOL0     H50641  10.320   2.567   6.889  2.2910  2.0527 -0.0621
  384MOL0     H50642  10.083   2.790   6.996 -2.1951  0.1161 -2.4487
  384MOL0     H50643  10.003   2.641   7.053  2.4364 -3.4557  0.8765
  384MOL0     H50644  10.079   2.551   6.818 -0.4826  0.0560 -1.8429
  384MOL0     H50645  10.147   2.703   6.778  0.1019  0.7711  1.9692
  384MOL0     H50646   9.853   2.677   6.889 -0.0358  1.4712  0.4215
  384MOL0     H50647   9.929   2.815   6.809  1.6008 -0.8852  1.3730
  384MOL0     H50648   9.882   2.539   6.665 -3.3654  0.1760 -3.6999
  384MOL0     H50649   9.965   2.685   6.591  2.9204 -0.1667  1.3364
  384MOL0     H50650   9.538   2.846   6.615  2.5371 -0.8862 -1.4125
  384MOL0     H50651   9.328   2.794   6.752  2.6938  2.4662  2.3366
  384MOL0     H50652   9.012   2.495   6.898 -0.5353 -1.5115 -0.4114
  384MOL0     H50653   8.830   2.380   7.025  0.0109  2.0186  0.6679
  384MOL0     H50654   8.904   2.111   7.352 -0.9202 -2.3714  1.1030
  384MOL0     H50655   8.892   1.985   7.226  2.0138 -0.0100  1.1022
  384MOL0     H50656   8.716   1.953   7.386  1.5245  0.0756 -0.2363
  384MOL0     H50657   8.642   2.031   7.247  0.0661  2.3963  1.6626
  384MOL0     H50658   8.647   2.248   7.377  1.9890 -0.7458 -2.0319
  384MOL0     H50659   8.745   2.177   7.502  0.5985 -0.5331 -0.3512
  384MOL0     H50660   8.451   2.107   7.428 -1.5490 -0.4955  1.4427
  384MOL0     H50661   8.545   2.004   7.529  1.5531  0.2965 -0.6463
  384MOL0     H50662   8.472   2.296   7.574 -0.3887  1.2154  1.5681
  384MOL0     H50663   8.567   2.187   7.680 -0.7923 -0.1392  0.5347
  384MOL0     H50664   8.393   2.033   7.725  3.8667 -0.1959 -0.5752
  384MOL0     H50665   8.294   2.105   7.596 -0.4342 -0.8924 -0.0603
  384MOL0     H50666   8.382   2.212   7.874 -3.0916 -1.2912  0.9325
  384MOL0     H50667   8.302   2.320   7.760  4.8436  1.1825 -0.5100
  384MOL0     H50668   8.124   2.106   7.787  1.3885 -1.4763 -0.5441
  384MOL0     H50669   8.133   2.237   7.909  1.6812 -0.7640  1.3230
  384MOL0     H50670   9.080   2.111   7.187 -1.4292 -1.2388 -0.9386
  384MOL0     H50671   9.285   2.232   7.067 -0.1698 -0.5476  0.4770
  384MOL0     H50672   9.516   2.427   6.881  0.2426 -0.6309 -1.3026
  384MOL0     H50673   9.720   2.512   6.809  0.4136  2.7087  1.6332
  384MOL0     H50674   9.770   2.079   6.814  0.6703 -2.4332 -0.7829
  384MOL0     H50675   9.559   2.127   6.902  2.8847  2.1118  0.0453
  384MOL0     H50676   9.256   1.698   7.310 -1.6142 -0.9431 -1.3975
  384MOL0     H50677   9.077   1.752   7.478 -1.2844  1.5437 -0.8781
  384MOL0     H50678   9.141   1.866   7.726  0.3687  3.3959  0.3485
  384MOL0     H50679   8.965   1.828   7.683 -0.8439  0.2068 -0.8444
  384MOL0     H50680   9.032   1.966   7.911  2.3346  2.6835 -0.5202
  384MOL0     H50681   9.064   2.096   7.809 -0.6937  0.8672 -0.3260
  384MOL0     H50682   8.843   2.053   7.691  0.5029  0.7882 -1.2700
  384MOL0     H50683   8.843   2.142   7.849  1.1289  1.5657 -1.6384
  384MOL0     H50684   8.655   1.991   7.842  2.3747  5.2265 -2.1067
  384MOL0     H50685   8.774   1.853   7.811  2.7245  1.0496 -2.0188
  384MOL0     H50686   8.799   1.936   8.226 -0.7133  2.1676 -0.4277
  384MOL0     H50687   9.206   2.149   7.498  2.1013  1.7617 -1.0799
  384MOL0     H50688   9.382   2.104   7.300 -0.7965  0.8273 -0.5625
  385MOL0     O50689   8.954   6.954   3.012  0.0547  0.4299  0.0253
  385MOL0     C50690   9.022   6.998   3.105  0.5948  0.2012  0.2617
  385MOL0     O50691   9.030   7.136   3.136 -0.6909  0.7052  0.3505
  385MOL0     C50692   9.001   7.224   3.042  0.1645 -0.1125 -0.4994
  385MOL0     C50693   9.029   7.235   2.897  0.6507  0.1002 -0.3011
  385MOL0     C50694   8.984   7.339   2.823  0.6669  0.2178 -0.9298
  385MOL0     C50695   8.895   7.439   2.877 -0.1926 -0.6765 -0.5222
  385MOL0     O50696   8.846   7.539   2.784 -0.4635 -0.4197 -0.4751
  385MOL0     C50697   8.768   7.641   2.842  0.0410 -1.1493 -0.7207
  385MOL0     C50698   8.711   7.735   2.741 -0.2708 -0.4276  1.1832
  385MOL0     C50699   8.625   7.672   2.636  0.0421 -1.3170 -0.0081
  385MOL0     C50700   8.587   7.777   2.529  1.1056  0.1915 -0.5647
  385MOL0     C50701   8.468   7.724   2.449 -0.1460  0.0149 -0.3385
  385MOL0     C50702   8.460   7.782   2.306 -1.4911 -0.1934 -0.5564
  385MOL0     C50703   8.433   7.938   2.308 -0.8026  0.0267 -0.1466
  385MOL0     C50704   8.305   7.979   2.384  0.8077 -0.9908  0.9897
  385MOL0     N50705   8.182   7.984   2.295 -0.3757 -0.1272 -0.2836
  385MOL0     C50706   8.126   8.100   2.251  0.3765 -0.3523  0.1406
  385MOL0     C50707   8.039   8.054   2.148  1.1427 -0.3068 -0.3271
  385MOL0     C50708   7.936   8.127   2.057  0.1110 -0.0986  0.4014
  385MOL0     C50709   7.995   8.249   1.970  0.6124  0.0635  0.4704
  385MOL0     C50710   8.074   8.212   1.850  0.0608  0.5645 -0.0238
  385MOL0     C50711   7.974   8.154   1.735 -0.6219  0.1490  0.3186
  385MOL0     O50712   8.042   8.139   1.604 -0.4514 -0.1170 -0.3794
  385MOL0     C50713   8.142   8.044   1.593 -0.9489  0.4028  0.2911
  385MOL0     C50714   8.113   7.909   1.595 -0.8672 -0.5375 -0.5584
  385MOL0     C50715   8.214   7.819   1.559  0.1452 -0.0468 -0.7459
  385MOL0     C50716   8.341   7.849   1.531  0.5886 -0.1295  0.1238
  385MOL0     C50717   8.448   7.753   1.496 -0.1504 -0.3539  0.1216
  385MOL0     O50718   8.407   7.625   1.476 -0.4778 -0.7453  0.6186
  385MOL0     C50719   8.481   7.533   1.410  0.5361  0.2746 -0.3899
  385MOL0     C50720   8.558   7.559   1.297 -0.0237 -0.4075 -0.5162
  385MOL0     C50721   8.639   7.463   1.232  0.4518  0.1293 -0.1725
  385MOL0     C50722   8.634   7.328   1.279  0.6638 -0.7435 -0.3607
  385MOL0     O50723   8.701   7.222   1.229  0.2090 -0.6724  1.0750
  385MOL0     C50724   8.741   7.229   1.087 -0.4083  0.0992 -0.2582
  385MOL0     C50725   8.763   7.075   1.037  0.5542 -0.2079 -0.1714
  385MOL0     C50726   8.633   6.999   1.040 -0.9169  0.9273 -0.3697
  385MOL0     C50727   8.658   6.846   1.016  0.6130 -0.6878 -1.0458
  385MOL0     C50728   8.531   6.772   1.051  0.3540  0.6210 -1.0580
  385MOL0     C50729   8.397   6.799   0.972 -0.3437  0.7133 -0.3916
  385MOL0     C50730   8.420   6.782   0.822 -0.7535 -0.1989  0.0232
  385MOL0     C50731   8.298   6.829   0.748 -0.3199  1.2153  0.3114
  385MOL0    Cl50732   8.335   6.788   0.587  0.2819 -0.5735 -0.1667
  385MOL0     C50733   8.550   7.297   1.383  0.7436 -0.3691  0.3941
  385MOL0     C50734   8.485   7.397   1.455  0.2369 -0.2514  0.3432
  385MOL0     O50735   8.567   7.792   1.496 -0.1062 -0.7021  0.0280
  385MOL0     C50736   8.369   7.985   1.528 -0.7222  0.1774 -0.9089
  385MOL0     C50737   8.275   8.085   1.565 -0.1444 -0.0317  0.7785
  385MOL0     N50738   8.069   7.919   2.121  0.7131  1.2404  0.6508
  385MOL0     N50739   8.153   7.886   2.212 -0.3210  0.1475  0.2791
  385MOL0     C50740   8.872   7.440   3.014 -0.2065  0.1708  0.0155
  385MOL0     C50741   8.919   7.323   3.094 -0.3024 -1.0826  0.0659
  385MOL0     C50742   9.107   6.908   3.188  0.7180  0.1289 -0.1937
  385MOL0     C50743   9.116   6.775   3.156 -0.3198 -0.0594  0.3180
  385MOL0     C50744   9.203   6.692   3.237  0.0528  0.4904  0.4042
  385MOL0     C50745   9.275   6.747   3.348  0.1464  1.3976  0.1778
  385MOL0     O50746   9.353   6.670   3.420  0.3866  0.6920  0.2969
  385MOL0     C50747   9.351   6.661   3.563  0.9921 -0.4611  0.5746
  385MOL0     C50748   9.342   6.518   3.620  1.1171  0.7612  0.0793
  385MOL0     C50749   9.291   6.507   3.762 -0.7015 -0.8982  0.3426
  385MOL0     C50750   9.242   6.364   3.798 -1.2057 -0.4563  0.5346
  385MOL0     C50751   9.229   6.334   3.944  0.0563 -0.2340 -0.2291
  385MOL0     C50752   9.235   6.304   4.062 -0.3329 -0.4549 -0.5112
  385MOL0     C50753   9.259   6.882   3.382  0.3912  0.0714 -0.1180
  385MOL0     C50754   9.183   6.961   3.297 -1.4361 -0.5374 -0.5938
  385MOL0     H50755   9.097   7.165   2.850  1.3893  0.8695 -0.3774
  385MOL0     H50756   9.012   7.343   2.718  0.6849  1.0281 -0.9030
  385MOL0     H50757   8.827   7.703   2.911  0.0071 -0.5493 -1.2248
  385MOL0     H50758   8.683   7.599   2.897 -1.2460  0.2685 -1.5514
  385MOL0     H50759   8.794   7.787   2.691 -3.2073  0.5454 -3.2530
  385MOL0     H50760   8.648   7.806   2.795  1.2044  2.6222 -0.8141
  385MOL0     H50761   8.537   7.635   2.690  0.3636 -1.3990  0.4678
  385MOL0     H50762   8.679   7.586   2.595 -0.7307 -2.3274  1.0148
  385MOL0     H50763   8.568   7.879   2.565  0.2442  0.4109 -1.5934
  385MOL0     H50764   8.676   7.780   2.466  0.3415  1.1584 -1.6232
  385MOL0     H50765   8.375   7.744   2.502 -0.0429  3.3482 -1.1647
  385MOL0     H50766   8.476   7.617   2.428  0.4611 -0.0152  0.0038
  385MOL0     H50767   8.377   7.745   2.246 -0.0398  0.5435 -3.1947
  385MOL0     H50768   8.557   7.762   2.259 -0.8647  1.4482 -0.0399
  385MOL0     H50769   8.511   7.999   2.355  0.1883 -0.4404 -1.1524
  385MOL0     H50770   8.411   7.983   2.211  0.0362  2.2226  0.6066
  385MOL0     H50771   8.324   8.079   2.425  0.0683 -0.6355  0.4882
  385MOL0     H50772   8.275   7.919   2.470  0.9313 -1.3019  0.8185
  385MOL0     H50773   8.129   8.203   2.285 -1.4657 -0.0595 -0.4905
  385MOL0     H50774   7.861   8.168   2.125 -1.5827  0.5588 -1.7362
  385MOL0     H50775   7.872   8.059   2.000 -0.0228 -0.2646  0.7418
  385MOL0     H50776   8.072   8.302   2.027  1.6386 -0.8305 -0.0428
  385MOL0     H50777   7.914   8.322   1.961  3.1641  3.4746  2.6290
  385MOL0     H50778   8.139   8.292   1.815  0.6580  1.0776  2.1117
  385MOL0     H50779   8.133   8.128   1.888 -0.7293  0.6518  1.4715
  385MOL0     H50780   7.887   8.220   1.729  1.1453  2.8692  2.2580
  385MOL0     H50781   7.916   8.066   1.764 -1.9648  0.5486 -0.9817
  385MOL0     H50782   8.010   7.877   1.612 -1.0397  0.3384  0.1224
  385MOL0     H50783   8.181   7.716   1.548 -0.1248  0.1062 -1.4446
  385MOL0     H50784   8.554   7.657   1.251 -2.0717 -2.4724 -5.4395
  385MOL0     H50785   8.706   7.502   1.157 -1.0003  1.5141 -0.8017
  385MOL0     H50786   8.840   7.275   1.082  0.1564 -0.8932  1.0189
  385MOL0     H50787   8.669   7.289   1.032  0.6693  1.5124 -0.1816
  385MOL0     H50788   8.833   7.015   1.096 -1.5620  0.1035  2.8899
  385MOL0     H50789   8.791   7.079   0.931 -3.3082 -2.0126 -1.4575
  385MOL0     H50790   8.554   7.029   0.971  0.9553  0.9403 -2.6391
  385MOL0     H50791   8.589   7.001   1.140  1.5631  1.3674  0.7846
  385MOL0     H50792   8.691   6.827   0.913 -1.1026  3.6233 -2.6226
  385MOL0     H50793   8.739   6.820   1.085  0.5068  1.7940  0.1443
  385MOL0     H50794   8.516   6.791   1.157 -2.0990  0.4709 -1.3062
  385MOL0     H50795   8.555   6.665   1.049  2.9420  0.9429  2.7056
  385MOL0     H50796   8.349   6.897   0.977 -3.0563 -0.5838  1.9600
  385MOL0     H50797   8.315   6.735   1.005 -1.6019  1.7505 -1.3727
  385MOL0     H50798   8.506   6.838   0.783  0.4815 -1.5855  0.6771
  385MOL0     H50799   8.439   6.676   0.803 -0.3773 -0.4025  1.4444
  385MOL0     H50800   8.290   6.936   0.770  1.8234  1.2919  0.9106
  385MOL0     H50801   8.209   6.779   0.788 -1.4937  2.6198 -0.4558
  385MOL0     H50802   8.540   7.192   1.407 -1.4048  0.3678  3.2681
  385MOL0     H50803   8.408   7.377   1.528 -1.2165 -2.7237 -1.6984
  385MOL0     H50804   8.474   8.011   1.519 -0.9657  2.0168  1.0108
  385MOL0     H50805   8.293   8.192   1.566 -0.5910  0.0434  0.8750
  385MOL0     H50806   8.816   7.512   3.073 -1.3702  2.5736 -3.7300
  385MOL0     H50807   8.888   7.318   3.198  0.4883  0.1647  0.3870
  385MOL0     H50808   9.080   6.725   3.067  0.6715  0.4132 -0.3630
  385MOL0     H50809   9.231   6.589   3.219  2.8262  1.5034 -1.8284
  385MOL0     H50810   9.269   6.716   3.609  0.2372 -0.0468 -1.1912
  385MOL0     H50811   9.445   6.702   3.603  0.6596  1.0601 -0.1490
  385MOL0     H50812   9.284   6.462   3.546  1.2312  1.1359 -0.2991
  385MOL0     H50813   9.441   6.472   3.624  0.2205 -1.1969  1.4208
  385MOL0     H50814   9.203   6.569   3.776 -0.7008 -0.2542 -2.0592
  385MOL0     H50815   9.365   6.556   3.826  1.5732 -1.6589 -1.5619
  385MOL0     H50816   9.146   6.346   3.749 -1.5393  4.2807 -1.0396
  385MOL0     H50817   9.313   6.291   3.758  0.3955  1.2219  0.1648
  385MOL0     H50818   9.251   6.311   4.168  1.4879  1.7384 -0.8475
  385MOL0     H50819   9.291   6.934   3.472 -0.4855  1.4536 -0.5714
  385MOL0     H50820   9.177   7.065   3.328  0.9476 -1.1124  2.2309
  386MOL0     O50821   5.584   2.083   8.194 -0.6304 -0.1989 -0.0546
  386MOL0     C50822   5.588   2.030   8.309  0.0747  0.6625  1.0615
  386MOL0     O50823   5.685   2.052   8.403  0.0098  0.7275 -0.0331
  386MOL0     C50824   5.804   2.101   8.367  0.2541  0.3885  0.3830
  386MOL0     C50825   5.853   2.212   8.434  0.4829  0.3135 -0.0331
  386MOL0     C50826   5.982   2.266   8.401  0.4491 -0.1628 -0.2923
  386MOL0     C50827   6.054   2.217   8.284 -0.3239 -0.0286  0.2930
  386MOL0     O50828   6.169   2.267   8.234  0.9988  0.3228 -0.2314
  386MOL0     C50829   6.259   2.324   8.318  0.2899 -1.1800 -0.7568
  386MOL0     C50830   6.377   2.392   8.258  0.4865  0.2138 -0.0171
  386MOL0     C50831   6.495   2.295   8.223 -0.4779 -1.1584 -0.3975
  386MOL0     C50832   6.611   2.375   8.159 -0.8502 -0.6765  0.2552
  386MOL0     C50833   6.725   2.285   8.125 -0.3086 -1.2090  0.9305
  386MOL0     C50834   6.806   2.226   8.247  0.1609 -0.7175  0.1481
  386MOL0     C50835   6.922   2.302   8.300 -0.7827  0.1935  0.4659
  386MOL0     C50836   6.874   2.373   8.422 -0.0875 -0.2341 -0.1371
  386MOL0     N50837   6.973   2.472   8.470 -0.1707 -0.3956 -0.2423
  386MOL0     C50838   7.053   2.429   8.579  0.5978  0.1824  0.1629
  386MOL0     C50839   7.117   2.540   8.613 -0.1080  0.2599  0.4099
  386MOL0     C50840   7.200   2.553   8.732 -0.9986 -0.9584 -0.1956
  386MOL0     C50841   7.256   2.694   8.747 -0.1694  0.0961  0.1140
  386MOL0     C50842   7.311   2.715   8.884 -0.4967 -0.1147 -0.7025
  386MOL0     C50843   7.328   2.867   8.908 -0.3288  0.4565  0.0998
  386MOL0     O50844   7.348   2.894   9.040  0.5160  0.4375 -0.0736
  386MOL0     C50845   7.335   3.024   9.088 -0.5953 -0.5295  1.1766
  386MOL0     C50846   7.399   3.055   9.208 -0.9434  0.1127 -0.9288
  386MOL0     C50847   7.414   3.189   9.238  0.5017  0.1754  0.6223
  386MOL0     C50848   7.351   3.298   9.164  0.0904  0.3066 -0.1164
  386MOL0     C50849   7.368   3.441   9.214 -0.1081  0.1019  0.4575
  386MOL0     O50850   7.431   3.460   9.331 -0.0297 -0.4715  0.2493
  386MOL0     C50851   7.450   3.586   9.372  1.0623 -0.2498  0.6780
  386MOL0     C50852   7.375   3.636   9.476  0.3364 -0.2678 -0.5475
  386MOL0     C50853   7.400   3.772   9.514  0.5271  0.0579 -0.2632
  386MOL0     C50854   7.501   3.852   9.454  0.9468 -0.8789  0.6186
  386MOL0     O50855   7.525   3.982   9.482 -0.4225  0.2227  0.3641
  386MOL0     C50856   7.408   4.057   9.491  1.3403  0.2243 -0.0071
  386MOL0     C50857   7.408   4.164   9.601 -0.3282 -1.1823 -0.2042
  386MOL0     C50858   7.362   4.119   9.740 -0.9621  0.9542 -0.1834
  386MOL0     C50859   7.462   4.014   9.792  0.4994  0.9303  0.1959
  386MOL0     C50860   7.454   3.988   9.943  1.0971 -0.7637 -1.2587
  386MOL0     C50861   7.316   3.913   9.980 -0.4624 -1.0420  0.3554
  386MOL0     C50862   7.251   3.962  10.114  0.0488 -0.1848  0.2859
  386MOL0     C50863   7.126   3.880  10.156  0.7623 -0.6921 -0.5681
  386MOL0    Cl50864   7.182   3.726  10.238  0.2232 -0.0928 -0.0796
  386MOL0     C50865   7.577   3.794   9.357  0.6378 -0.5289 -0.1372
  386MOL0     C50866   7.543   3.669   9.310  0.1841 -0.2522  1.0045
  386MOL0     O50867   7.319   3.520   9.142  0.0050 -0.4816  0.3719
  386MOL0     C50868   7.275   3.264   9.050  0.9535 -0.8656 -0.6645
  386MOL0     C50869   7.271   3.128   9.014 -0.6598 -1.0126  1.2674
  386MOL0     N50870   7.084   2.633   8.516  0.3634  0.0977 -0.2220
  386MOL0     N50871   6.994   2.594   8.432 -0.9416  0.0559 -0.1343
  386MOL0     C50872   5.999   2.113   8.212 -0.0438  0.6897 -0.6376
  386MOL0     C50873   5.875   2.052   8.254  1.1135 -0.3932 -0.1491
  386MOL0     C50874   5.478   1.934   8.339 -0.3155  0.4921 -0.1142
  386MOL0     C50875   5.361   1.939   8.272  0.5125 -0.3171  0.0329
  386MOL0     C50876   5.271   1.832   8.298  0.1802 -0.0012  0.9104
  386MOL0     C50877   5.297   1.733   8.395 -1.0431  0.7828 -0.0803
  386MOL0     O50878   5.198   1.631   8.415 -0.2874  0.2100  0.1221
  386MOL0     C50879   5.211   1.548   8.527 -0.1639 -0.1688  0.7157
  386MOL0     C50880   5.118   1.426   8.567 -1.0099  0.0145  0.1238
  386MOL0     C50881   4.986   1.429   8.487 -0.2358  1.2379  0.4094
  386MOL0     C50882   4.936   1.276   8.469  0.3073 -0.6492  0.1351
  386MOL0     C50883   4.998   1.226   8.355 -1.3045  0.8938  0.1967
  386MOL0     C50884   5.051   1.163   8.261 -0.1101 -0.6607  0.2778
  386MOL0     C50885   5.416   1.729   8.457 -0.0792 -0.2616 -0.1610
  386MOL0     C50886   5.501   1.836   8.435 -0.6830  0.3512 -0.4289
  386MOL0     H50887   5.793   2.250   8.516 -1.9727 -4.5304  0.8129
  386MOL0     H50888   6.006   2.363   8.443 -2.4864  0.6073 -0.2320
  386MOL0     H50889   6.293   2.257   8.398 -2.1516 -1.1399  0.4324
  386MOL0     H50890   6.209   2.408   8.367 -0.2083 -2.1048  0.3892
  386MOL0     H50891   6.410   2.469   8.328  1.2543 -3.1024  3.6317
  386MOL0     H50892   6.342   2.439   8.166  1.3860 -1.6796 -1.4174
  386MOL0     H50893   6.469   2.212   8.156  1.8698 -0.7989 -1.8884
  386MOL0     H50894   6.538   2.252   8.313  2.3067 -2.3035 -2.1260
  386MOL0     H50895   6.579   2.429   8.069 -1.6428 -1.9233 -0.2371
  386MOL0     H50896   6.648   2.447   8.233 -3.8212 -0.9195  2.1700
  386MOL0     H50897   6.793   2.355   8.074 -1.5263  0.1948  1.1800
  386MOL0     H50898   6.691   2.208   8.056  0.2014  0.8843 -1.8271
  386MOL0     H50899   6.846   2.136   8.200  1.8226  0.8569 -1.6358
  386MOL0     H50900   6.741   2.202   8.332  0.1042  2.4748  1.1297
  386MOL0     H50901   7.011   2.239   8.314 -0.6968 -0.7943 -3.5041
  386MOL0     H50902   6.955   2.374   8.224 -2.7488  0.1248 -0.5236
  386MOL0     H50903   6.849   2.311   8.509 -1.7970  3.7057  2.5050
  386MOL0     H50904   6.789   2.437   8.397  0.4644  0.6468  0.1917
  386MOL0     H50905   7.049   2.329   8.620  2.7193 -0.2491 -0.5963
  386MOL0     H50906   7.287   2.487   8.722  0.7910  1.5936 -3.5250
  386MOL0     H50907   7.139   2.517   8.815 -1.5949 -1.9547 -1.0425
  386MOL0     H50908   7.164   2.754   8.739 -0.2988 -0.3361 -2.3576
  386MOL0     H50909   7.316   2.735   8.666  1.6999  0.8695  1.8245
  386MOL0     H50910   7.245   2.677   8.963 -0.5521  0.7597 -0.3138
  386MOL0     H50911   7.402   2.654   8.887 -0.0110  0.6371  0.6058
  386MOL0     H50912   7.233   2.907   8.871 -0.0781 -0.6418 -1.9265
  386MOL0     H50913   7.408   2.909   8.846  0.5945  2.4350  2.4868
  386MOL0     H50914   7.449   2.981   9.271  0.1976  1.9269  0.3806
  386MOL0     H50915   7.460   3.228   9.328  1.0745  1.4218 -0.1772
  386MOL0     H50916   7.285   3.591   9.519 -1.5658  3.3556 -0.3451
  386MOL0     H50917   7.345   3.826   9.592  1.0204 -1.1144  0.9384
  386MOL0     H50918   7.319   3.996   9.509  1.5263  0.5374  2.1901
  386MOL0     H50919   7.397   4.110   9.396  1.3101  1.4754  0.6817
  386MOL0     H50920   7.322   4.224   9.571 -0.4937 -0.3055  1.8830
  386MOL0     H50921   7.490   4.236   9.607 -2.0451  0.7563  3.7748
  386MOL0     H50922   7.264   4.075   9.724 -0.4297  0.1268 -1.3298
  386MOL0     H50923   7.351   4.196   9.818  1.0826 -1.4531  2.7218
  386MOL0     H50924   7.448   3.911   9.757  0.7534  0.1298  2.3283
  386MOL0     H50925   7.560   4.046   9.757  0.2510  3.4529  1.6195
  386MOL0     H50926   7.462   4.091   9.979 -1.7079 -0.3780 -1.5033
  386MOL0     H50927   7.538   3.929   9.980  2.8120  1.6290 -1.0951
  386MOL0     H50928   7.346   3.809   9.995  3.0050 -0.3921 -1.0401
  386MOL0     H50929   7.244   3.924   9.899 -2.1211  1.2018  2.0313
  386MOL0     H50930   7.331   3.958  10.189  0.0807  0.9399  0.3250
  386MOL0     H50931   7.228   4.069  10.108  3.2001  0.4994 -1.2549
  386MOL0     H50932   7.069   3.868  10.063 -1.6041 -3.0180  1.0114
  386MOL0     H50933   7.070   3.943  10.225  1.3511 -1.7456  0.9242
  386MOL0     H50934   7.669   3.840   9.323  1.1377 -0.9197  0.6588
  386MOL0     H50935   7.608   3.618   9.239 -1.7233  0.4308 -1.3802
  386MOL0     H50936   7.246   3.349   8.988  1.5516  0.3336  0.6402
  386MOL0     H50937   7.216   3.109   8.922  3.4971  1.1373 -2.0394
  386MOL0     H50938   6.047   2.081   8.120  3.9181 -3.3103  2.3642
  386MOL0     H50939   5.830   1.980   8.187 -0.0753  0.0745  0.1292
  386MOL0     H50940   5.342   2.014   8.196  0.7296 -0.1721  0.1234
  386MOL0     H50941   5.168   1.833   8.262  0.3941  0.2425  0.3050
  386MOL0     H50942   5.202   1.615   8.612 -1.8250 -1.3706  1.5373
  386MOL0     H50943   5.310   1.504   8.545  0.2205  0.2195 -0.3414
  386MOL0     H50944   5.171   1.332   8.550  0.3618  0.5915  1.0471
  386MOL0     H50945   5.090   1.431   8.673 -4.3671 -0.4422 -0.6114
  386MOL0     H50946   5.000   1.474   8.389 -2.0237  1.2917  0.1449
  386MOL0     H50947   4.911   1.488   8.539 -3.8999 -0.2133 -2.6985
  386MOL0     H50948   4.946   1.209   8.555  0.5727  0.0655  0.6712
  386MOL0     H50949   4.830   1.291   8.447  0.1166 -1.4450  0.4894
  386MOL0     H50950   5.075   1.090   8.186 -0.9913 -1.1876  0.4877
  386MOL0     H50951   5.456   1.656   8.526  3.5660  1.1722 -0.5369
  386MOL0     H50952   5.585   1.832   8.503 -2.8274 -0.7043  2.3288
  387MOL0     O50953   8.798   0.664  11.257 -0.1070  0.1606  0.8477
  387MOL0     C50954   8.730   0.597  11.172 -0.3443  0.3608 -0.4348
  387MOL0     O50955   8.596   0.579  11.172  0.5973 -0.1783 -0.0515
  387MOL0     C50956   8.510   0.654  11.255  1.2603 -0.7746 -0.0195
  387MOL0     C50957   8.399   0.582  11.305  0.1345 -0.3165  0.2424
  387MOL0     C50958   8.309   0.647  11.382  0.5569  0.7197 -0.4334
  387MOL0     C50959   8.306   0.790  11.386  0.4719  0.3201 -0.1802
  387MOL0     O50960   8.210   0.866  11.451  0.1689  0.6504 -0.0069
  387MOL0     C50961   8.241   0.973  11.538  0.3667 -0.4093  0.0027
  387MOL0     C50962   8.128   0.978  11.640  0.2693  0.5741 -0.5159
  387MOL0     C50963   7.986   1.030  11.591  0.4619 -0.3422  0.0433
  387MOL0     C50964   7.869   0.999  11.683 -0.0620 -0.9150  0.4381
  387MOL0     C50965   7.742   1.063  11.626  0.8714 -0.1373 -1.0349
  387MOL0     C50966   7.613   1.014  11.687 -0.7306 -0.5564 -0.5206
  387MOL0     C50967   7.482   1.070  11.651  0.5571 -0.4668 -0.0389
  387MOL0     C50968   7.409   1.008  11.532  1.0837  0.1543 -0.0141
  387MOL0     N50969   7.471   1.032  11.399 -0.0635  0.4722  0.2352
  387MOL0     C50970   7.462   0.941  11.301  0.2692 -0.3185  0.1587
  387MOL0     C50971   7.498   1.008  11.190 -0.0674 -1.4631 -0.4028
  387MOL0     C50972   7.489   0.958  11.047  0.2039  0.8647 -0.4372
  387MOL0     C50973   7.629   0.950  10.983  0.0392 -1.1502  0.1391
  387MOL0     C50974   7.686   0.808  10.978 -0.2547 -0.0104 -0.5903
  387MOL0     C50975   7.816   0.795  10.894 -0.0529 -0.4300  0.0670
  387MOL0     O50976   7.788   0.816  10.754 -0.0836 -0.2559 -0.5307
  387MOL0     C50977   7.896   0.806  10.661  0.5982  0.1556 -0.3289
  387MOL0     C50978   8.029   0.759  10.682  0.4128  1.0030 -0.7261
  387MOL0     C50979   8.121   0.761  10.587  0.0439  0.2315  0.0976
  387MOL0     C50980   8.096   0.798  10.457  0.4054 -0.6796 -0.6362
  387MOL0     C50981   8.202   0.774  10.352  0.5363  0.6816 -0.9421
  387MOL0     O50982   8.321   0.738  10.408  1.6979  0.5328 -0.8419
  387MOL0     C50983   8.434   0.766  10.350  0.5133  0.0947 -0.0430
  387MOL0     C50984   8.516   0.872  10.409  0.2218  0.7065 -0.1598
  387MOL0     C50985   8.631   0.906  10.344 -0.3635 -0.3200 -0.2029
  387MOL0     C50986   8.686   0.841  10.229  0.2863 -0.2287 -1.1006
  387MOL0     O50987   8.808   0.868  10.180  0.4569  0.0839  0.2413
  387MOL0     C50988   8.923   0.865  10.270  0.1123 -0.9876 -0.8601
  387MOL0     C50989   9.052   0.840  10.211  0.3334  0.6263 -0.4022
  387MOL0     C50990   9.093   0.693  10.218  0.2263 -0.6448  1.4671
  387MOL0     C50991   9.249   0.662  10.216  0.0658  1.0579 -0.1202
  387MOL0     C50992   9.329   0.761  10.132 -0.0218 -0.6078  0.2436
  387MOL0     C50993   9.482   0.729  10.122 -0.8678  0.3437  0.3650
  387MOL0     C50994   9.563   0.815  10.025  0.3966  0.4424  0.5166
  387MOL0     C50995   9.711   0.774  10.007  0.2875 -0.8562 -0.4477
  387MOL0    Cl50996   9.823   0.795  10.139  0.6771  0.0823  0.5975
  387MOL0     C50997   8.613   0.725  10.189  0.1528 -0.8765  0.6037
  387MOL0     C50998   8.485   0.692  10.250  0.2855 -0.2273  1.5137
  387MOL0     O50999   8.171   0.800  10.239 -0.5037  0.4449  0.4408
  387MOL0     C51000   7.970   0.851  10.431  0.3483 -0.7803  0.0418
  387MOL0     C51001   7.865   0.849  10.529  0.4289  0.1556  0.9626
  387MOL0     N51002   7.533   1.141  11.220  0.6416 -1.7158 -0.0637
  387MOL0     N51003   7.511   1.146  11.348 -0.0625  0.1523 -0.4143
  387MOL0     C51004   8.421   0.862  11.343 -0.1268  0.5220  0.6072
  387MOL0     C51005   8.516   0.792  11.263  0.1224  0.3568 -0.0585
  387MOL0     C51006   8.806   0.522  11.064  1.1306  0.4949  0.5956
  387MOL0     C51007   8.927   0.476  11.099  0.0950  0.0400  0.7536
  387MOL0     C51008   9.005   0.401  10.999 -0.3338  0.8187 -0.1704
  387MOL0     C51009   8.958   0.372  10.874  0.3733 -1.1205  0.1993
  387MOL0     O51010   9.037   0.312  10.779  0.0611 -0.4757 -0.5642
  387MOL0     C51011   8.993   0.280  10.647  0.7411 -0.1920 -0.9110
  387MOL0     C51012   8.886   0.166  10.644 -0.3765 -0.6056  0.7918
  387MOL0     C51013   8.954   0.034  10.668  0.2349  0.2704 -0.0222
  387MOL0     C51014   9.015   0.017  10.806 -0.5752  0.8169 -0.4656
  387MOL0     C51015   9.068  -0.116  10.820 -0.5213  0.1906  0.1561
  387MOL0     C51016   9.114  -0.229  10.847 -0.4666 -0.5710 -0.3383
  387MOL0     C51017   8.836   0.431  10.845  0.2013  0.2805 -0.7670
  387MOL0     C51018   8.756   0.499  10.936  0.0890 -0.4642  0.1898
  387MOL0     H51019   8.380   0.477  11.285  1.2638 -0.4944  0.0381
  387MOL0     H51020   8.223   0.595  11.424  2.8170 -0.8844  2.5619
  387MOL0     H51021   8.260   1.068  11.487  0.5469 -0.4023  0.0812
  387MOL0     H51022   8.332   0.952  11.596 -1.0678  1.1685  3.0737
  387MOL0     H51023   8.162   1.031  11.729  1.4650 -1.8706  0.5602
  387MOL0     H51024   8.102   0.878  11.674 -2.3179  1.3958  0.2213
  387MOL0     H51025   7.958   0.994  11.492 -1.5968 -1.1425  0.8638
  387MOL0     H51026   7.983   1.139  11.591 -2.6322 -0.3415 -0.9109
  387MOL0     H51027   7.864   0.891  11.701  0.3945 -1.4866 -2.4955
  387MOL0     H51028   7.890   1.041  11.782  0.2904 -1.1539  0.4670
  387MOL0     H51029   7.736   1.041  11.519 -1.6494 -0.8118 -0.8195
  387MOL0     H51030   7.752   1.172  11.631 -1.5083  0.1064 -0.5173
  387MOL0     H51031   7.618   1.054  11.789 -0.6417  1.0730 -1.1343
  387MOL0     H51032   7.615   0.905  11.690  0.8334 -0.5330  1.2509
  387MOL0     H51033   7.415   1.058  11.737  1.1924  3.0215  1.0941
  387MOL0     H51034   7.495   1.176  11.627  1.6117  0.0011  2.3178
  387MOL0     H51035   7.308   1.050  11.535  1.1115  0.1793  0.9964
  387MOL0     H51036   7.405   0.901  11.551 -2.5428  0.0930 -0.3793
  387MOL0     H51037   7.444   0.834  11.307  1.8502 -0.6083  0.1190
  387MOL0     H51038   7.436   1.033  10.988 -0.0668 -1.1740 -2.9951
  387MOL0     H51039   7.432   0.865  11.046  0.4679  0.6330 -3.8276
  387MOL0     H51040   7.689   1.010  11.053 -0.4567  0.6532 -0.9131
  387MOL0     H51041   7.633   0.994  10.883 -1.8433 -1.2846 -0.0352
  387MOL0     H51042   7.708   0.777  11.081  1.0896 -2.3120 -1.4953
  387MOL0     H51043   7.609   0.744  10.935  2.3818 -1.8068 -2.9396
  387MOL0     H51044   7.852   0.692  10.903 -3.2355 -1.6503 -0.0982
  387MOL0     H51045   7.888   0.871  10.926 -0.8318  1.3780 -2.1463
  387MOL0     H51046   8.064   0.742  10.784  0.5764 -1.3831 -1.1268
  387MOL0     H51047   8.215   0.710  10.607  0.5429  0.4505 -1.5186
  387MOL0     H51048   8.489   0.919  10.504  0.5297  0.8365 -0.1352
  387MOL0     H51049   8.686   0.992  10.383 -0.5497 -0.8370  1.2741
  387MOL0     H51050   8.905   0.801  10.357 -0.5922 -0.6000 -0.7179
  387MOL0     H51051   8.929   0.966  10.312 -1.0816 -1.6106  0.9298
  387MOL0     H51052   9.128   0.892  10.270 -0.1705  1.0948 -0.1552
  387MOL0     H51053   9.062   0.877  10.108 -3.6593  0.1841 -1.1121
  387MOL0     H51054   9.042   0.650  10.131 -0.6491  1.2545  0.9759
  387MOL0     H51055   9.058   0.640  10.308  0.0294  0.2255  1.9185
  387MOL0     H51056   9.293   0.664  10.316 -0.2457 -0.8680  0.1016
  387MOL0     H51057   9.263   0.558  10.184  0.4032  0.5055  1.6820
  387MOL0     H51058   9.337   0.855  10.187 -2.5497 -0.4141  0.3786
  387MOL0     H51059   9.283   0.792  10.038  0.0249 -0.0450  0.4010
  387MOL0     H51060   9.491   0.631  10.074  1.6821  0.3531  0.7044
  387MOL0     H51061   9.520   0.728  10.224  2.7404  0.8488 -0.8245
  387MOL0     H51062   9.517   0.822   9.926  1.8229  0.6445 -0.1436
  387MOL0     H51063   9.558   0.920  10.058 -2.8732  0.6752 -0.3642
  387MOL0     H51064   9.753   0.835   9.927  0.8446 -0.4283  0.1590
  387MOL0     H51065   9.705   0.668   9.983  1.6074 -1.2778  0.9240
  387MOL0     H51066   8.651   0.668  10.105  1.2856 -2.4306  2.0990
  387MOL0     H51067   8.418   0.613  10.218  0.9281 -0.4140  0.5635
  387MOL0     H51068   7.950   0.887  10.331  1.1541 -0.8248 -0.1460
  387MOL0     H51069   7.766   0.886  10.506  0.5414 -0.1028  0.0344
  387MOL0     H51070   8.436   0.969  11.345 -0.4670  0.5951 -0.1770
  387MOL0     H51071   8.601   0.847  11.225  0.7216  0.0661  0.8243
  387MOL0     H51072   8.952   0.491  11.203 -1.8829  3.1407  0.9238
  387MOL0     H51073   9.105   0.364  11.022 -1.4736 -2.1286  0.4378
  387MOL0     H51074   9.080   0.252  10.586  2.6030  1.9167  0.6231
  387MOL0     H51075   8.949   0.367  10.597 -0.6862 -2.1577 -3.3537
  387MOL0     H51076   8.802   0.172  10.713  1.0852 -2.3546  2.8818
  387MOL0     H51077   8.844   0.157  10.543 -1.4047 -3.2275  1.3769
  387MOL0     H51078   9.033   0.011  10.596 -0.4642 -0.4606 -0.5788
  387MOL0     H51079   8.872  -0.035  10.645 -0.9543  2.3601 -2.5903
  387MOL0     H51080   9.090   0.093  10.831  0.4825 -0.2614 -0.2713
  387MOL0     H51081   8.936   0.034  10.880  0.6346  1.3214  0.7563
  387MOL0     H51082   9.152  -0.326  10.872  1.9776  1.0307  2.9477
  387MOL0     H51083   8.799   0.418  10.744  0.6403  1.3848 -1.0812
  387MOL0     H51084   8.660   0.540  10.906 -0.3520 -2.1873 -0.9584
  388MOL0     O51085   7.060   9.038   6.132  0.3783 -0.3514 -0.3176
  388MOL0     C51086   7.075   8.997   6.256 -0.7394  0.0234  0.0529
  388MOL0     O51087   7.016   8.893   6.314 -0.1698 -0.4992 -0.6786
  388MOL0     C51088   6.919   8.834   6.230 -0.6225  0.0687 -0.6809
  388MOL0     C51089   6.802   8.898   6.196  0.4196  0.0483 -0.9296
  388MOL0     C51090   6.696   8.836   6.148  0.2767  0.8235 -0.3744
  388MOL0     C51091   6.700   8.708   6.104 -0.4150  0.2577  0.2584
  388MOL0     O51092   6.589   8.655   6.053  0.7580  0.2146  0.5835
  388MOL0     C51093   6.550   8.521   6.092  0.4252  0.0142 -0.8381
  388MOL0     C51094   6.533   8.519   6.254 -0.1467 -0.9661  0.3347
  388MOL0     C51095   6.464   8.389   6.278 -0.3790  0.5515 -0.2600
  388MOL0     C51096   6.561   8.267   6.275  0.2853 -0.2731  0.4720
  388MOL0     C51097   6.485   8.141   6.284 -0.4036  1.5155 -0.9622
  388MOL0     C51098   6.558   8.033   6.197  0.7728  0.1625 -0.1023
  388MOL0     C51099   6.501   7.894   6.226 -0.0741 -0.0675 -0.1212
  388MOL0     C51100   6.529   7.812   6.107  0.5168 -0.1419  0.2551
  388MOL0     N51101   6.505   7.670   6.134 -0.4273  0.2751  0.5768
  388MOL0     C51102   6.400   7.602   6.200  0.1871 -0.4597  0.7713
  388MOL0     C51103   6.420   7.471   6.182 -0.8962 -0.4285  0.1210
  388MOL0     C51104   6.334   7.358   6.207  0.1259  0.2055  0.9134
  388MOL0     C51105   6.392   7.221   6.150  1.0401 -0.5393 -0.0470
  388MOL0     C51106   6.286   7.110   6.149 -0.6549  0.3499  0.4052
  388MOL0     C51107   6.349   6.969   6.123  0.3897 -0.7391  0.1947
  388MOL0     O51108   6.453   6.940   6.221  0.4014  0.2671  0.7964
  388MOL0     C51109   6.492   6.808   6.223 -0.1136  0.0617 -0.6755
  388MOL0     C51110   6.464   6.704   6.131  0.4576  0.4395  0.4675
  388MOL0     C51111   6.541   6.583   6.152  0.4150 -0.2436 -1.0004
  388MOL0     C51112   6.648   6.562   6.241 -0.3907 -0.2336 -0.8054
  388MOL0     C51113   6.722   6.436   6.245  0.4537  0.3154  0.4515
  388MOL0     O51114   6.676   6.322   6.173 -0.1176  0.5001  0.8656
  388MOL0     C51115   6.752   6.213   6.154 -0.0661  0.5524 -0.2839
  388MOL0     C51116   6.766   6.167   6.019 -0.0243 -1.2121 -0.5024
  388MOL0     C51117   6.840   6.060   5.997  0.1728  0.7193  0.2276
  388MOL0     C51118   6.884   5.973   6.094  0.1709 -0.2222 -0.1711
  388MOL0     O51119   6.944   5.851   6.070 -0.2361  0.5992 -0.2754
  388MOL0     C51120   6.944   5.790   5.941  1.4825  0.9818  0.5730
  388MOL0     C51121   7.026   5.661   5.950  0.6005 -0.8871 -0.5440
  388MOL0     C51122   7.017   5.581   5.816  0.0789  0.8067  0.3671
  388MOL0     C51123   7.067   5.439   5.830  1.0287  0.2890  0.3817
  388MOL0     C51124   7.077   5.355   5.695  0.1891 -0.1805 -0.8777
  388MOL0     C51125   7.191   5.405   5.611 -0.5492  1.4382  0.6491
  388MOL0     C51126   7.328   5.355   5.664 -1.5077  0.3788  0.3677
  388MOL0     C51127   7.387   5.239   5.602 -0.7331 -0.0419  0.1277
  388MOL0    Cl51128   7.419   5.258   5.427  0.0461 -0.3583  0.0694
  388MOL0     C51129   6.869   6.019   6.223  0.2146  0.8243 -0.0666
  388MOL0     C51130   6.805   6.138   6.260 -0.1565  0.9412 -0.5370
  388MOL0     O51131   6.817   6.437   6.318  0.0678 -0.0946  0.3446
  388MOL0     C51132   6.674   6.665   6.327 -0.3701 -0.0636 -0.5541
  388MOL0     C51133   6.601   6.783   6.317 -0.8273 -0.0039  0.9445
  388MOL0     N51134   6.541   7.469   6.120 -0.8049  0.4428  0.3528
  388MOL0     N51135   6.602   7.581   6.097  0.4981  0.7344 -0.5498
  388MOL0     C51136   6.821   8.643   6.131 -0.9729  0.2017  0.1723
  388MOL0     C51137   6.928   8.700   6.200 -0.0293  0.2535  0.2140
  388MOL0     C51138   7.198   9.053   6.318  0.0162 -0.0976  0.6426
  388MOL0     C51139   7.232   9.019   6.456 -0.0588 -0.5543 -0.3564
  388MOL0     C51140   7.338   9.081   6.511 -1.1175  0.1338  0.7858
  388MOL0     C51141   7.423   9.169   6.444 -0.2883  0.8555  0.1926
  388MOL0     O51142   7.527   9.220   6.521 -0.0644  0.4481 -0.1994
  388MOL0     C51143   7.497   9.360   6.557  0.2944 -0.5302  0.0442
  388MOL0     C51144   7.624   9.446   6.564  0.5819 -0.0263 -0.5553
  388MOL0     C51145   7.588   9.594   6.595 -0.5710  0.2714  0.7410
  388MOL0     C51146   7.539   9.677   6.475  0.5975 -0.6556  1.3971
  388MOL0     C51147   7.650   9.716   6.383 -0.1965  0.2715 -0.6712
  388MOL0     C51148   7.754   9.740   6.328 -0.4603  0.2226 -1.1091
  388MOL0     C51149   7.386   9.199   6.307  0.5623  0.6976 -1.4029
  388MOL0     C51150   7.277   9.140   6.248 -0.0870  0.1003 -0.1655
  388MOL0     H51151   6.789   8.998   6.238 -2.4009 -0.6396  0.1062
  388MOL0     H51152   6.603   8.887   6.124 -1.3845 -1.1201  1.5032
  388MOL0     H51153   6.630   8.449   6.078 -0.2452 -2.3390  4.8182
  388MOL0     H51154   6.454   8.513   6.041  0.1526 -0.2372 -0.2878
  388MOL0     H51155   6.460   8.587   6.300  0.5934 -1.6769  2.7290
  388MOL0     H51156   6.631   8.522   6.303 -0.1431 -2.4089  0.4578
  388MOL0     H51157   6.386   8.386   6.202 -1.7158  3.0840  0.8996
  388MOL0     H51158   6.424   8.396   6.379 -0.6772  2.3962 -0.4757
  388MOL0     H51159   6.622   8.272   6.184 -0.8246  0.3671 -0.2559
  388MOL0     H51160   6.641   8.265   6.350 -0.6423 -2.7550  1.4805
  388MOL0     H51161   6.390   8.151   6.231  0.3963  0.9835 -2.5355
  388MOL0     H51162   6.469   8.105   6.387  1.9517  0.7690 -0.8092
  388MOL0     H51163   6.667   8.030   6.211  0.9454  1.1877 -1.0868
  388MOL0     H51164   6.544   8.054   6.091  0.6339 -3.8817 -1.0429
  388MOL0     H51165   6.546   7.851   6.316 -2.3246 -0.2915  0.9685
  388MOL0     H51166   6.392   7.900   6.236 -0.0185 -0.6822  0.9268
  388MOL0     H51167   6.635   7.825   6.081  1.0661 -3.3749  0.4676
  388MOL0     H51168   6.463   7.847   6.027  0.8868  0.4948  0.2229
  388MOL0     H51169   6.313   7.651   6.244 -0.9940  0.6988 -2.5143
  388MOL0     H51170   6.241   7.385   6.156 -0.7960 -2.3003  1.0896
  388MOL0     H51171   6.318   7.352   6.315 -1.7323  0.5962  0.7017
  388MOL0     H51172   6.478   7.195   6.212  1.8416  1.3277 -0.2993
  388MOL0     H51173   6.423   7.235   6.046 -1.2569 -1.9065 -0.9870
  388MOL0     H51174   6.239   7.113   6.247 -0.3599  2.1042  0.5246
  388MOL0     H51175   6.213   7.140   6.074  0.0768 -1.4615 -1.1171
  388MOL0     H51176   6.381   6.957   6.019 -0.1346 -0.3598 -0.0137
  388MOL0     H51177   6.273   6.890   6.134 -0.3675  0.0536  0.7528
  388MOL0     H51178   6.383   6.706   6.059 -2.3837  0.6372  3.4463
  388MOL0     H51179   6.524   6.497   6.088  1.5792 -1.5207  0.3459
  388MOL0     H51180   6.709   6.217   5.941 -1.1219 -3.1004 -0.9629
  388MOL0     H51181   6.847   6.030   5.893  1.6108 -2.1736  1.0409
  388MOL0     H51182   6.987   5.854   5.863  0.3214  3.8382  2.1357
  388MOL0     H51183   6.838   5.765   5.927  2.5146 -3.7594 -0.3923
  388MOL0     H51184   6.988   5.598   6.031 -0.9920 -0.6666 -1.0751
  388MOL0     H51185   7.127   5.689   5.981 -0.5767  1.2279  1.8151
  388MOL0     H51186   7.079   5.631   5.741  0.2692  0.9613  0.6246
  388MOL0     H51187   6.917   5.589   5.773 -0.1131  0.6863  0.7903
  388MOL0     H51188   7.162   5.449   5.885  0.8260 -0.0261  0.7956
  388MOL0     H51189   6.993   5.390   5.894  0.1186 -1.2432 -1.7232
  388MOL0     H51190   6.984   5.359   5.639  0.5486  1.1829 -1.4167
  388MOL0     H51191   7.079   5.248   5.720 -0.5826 -0.0228 -0.1180
  388MOL0     H51192   7.180   5.513   5.601 -2.9534  1.3376  1.5581
  388MOL0     H51193   7.180   5.370   5.508 -3.6353  0.9057  1.0667
  388MOL0     H51194   7.401   5.435   5.651 -2.8247  1.2887 -1.8991
  388MOL0     H51195   7.338   5.350   5.773 -2.9907  1.3728  0.5677
  388MOL0     H51196   7.322   5.153   5.616 -0.3903 -0.1652  1.0293
  388MOL0     H51197   7.480   5.220   5.656  0.4835  2.7862 -0.7678
  388MOL0     H51198   6.907   5.957   6.304 -3.0575 -0.4790  0.6264
  388MOL0     H51199   6.803   6.186   6.357  3.9893 -0.5692  0.4971
  388MOL0     H51200   6.755   6.664   6.399 -3.1881  0.1240  2.8785
  388MOL0     H51201   6.643   6.862   6.379  0.6714  1.5715 -1.8998
  388MOL0     H51202   6.836   8.541   6.098  0.9098  0.9262 -1.4466
  388MOL0     H51203   7.016   8.650   6.238  1.9593  0.8443 -3.1863
  388MOL0     H51204   7.175   8.942   6.505 -0.4936 -0.4396 -0.6763
  388MOL0     H51205   7.373   9.065   6.613 -1.3012 -0.3802  0.7714
  388MOL0     H51206   7.445   9.365   6.653 -1.1342  0.6972 -0.7359
  388MOL0     H51207   7.435   9.413   6.484 -0.4044  1.5355  2.0214
  388MOL0     H51208   7.681   9.405   6.647 -2.3558 -0.0313  1.6358
  388MOL0     H51209   7.682   9.447   6.471  2.4308  2.3568  0.5408
  388MOL0     H51210   7.677   9.646   6.631 -0.4604  0.7260 -0.1587
  388MOL0     H51211   7.513   9.589   6.674 -0.6828 -2.0864  0.5702
  388MOL0     H51212   7.473   9.612   6.416 -0.6486  1.4041  0.3861
  388MOL0     H51213   7.494   9.775   6.491  1.9501  0.0315  1.1812
  388MOL0     H51214   7.850   9.758   6.284  1.1823 -1.2035  1.5808
  388MOL0     H51215   7.460   9.258   6.253 -0.0753  1.6613 -1.2590
  388MOL0     H51216   7.282   9.135   6.140 -0.5282 -1.4851 -0.1295
  389MOL0     O51217   2.872   3.622   7.466  0.1596  0.3872 -0.0481
  389MOL0     C51218   2.840   3.670   7.359 -0.2240 -0.0702  0.2744
  389MOL0     O51219   2.783   3.599   7.258 -1.1182 -0.8695  0.4881
  389MOL0     C51220   2.787   3.463   7.258 -0.5563  0.1968  0.3137
  389MOL0     C51221   2.908   3.392   7.281  0.0298 -0.9781 -0.5456
  389MOL0     C51222   2.925   3.256   7.269 -0.3628  0.3151 -0.0182
  389MOL0     C51223   2.824   3.174   7.246  0.4977 -0.7555 -0.4446
  389MOL0     O51224   2.824   3.033   7.241 -0.2694 -0.3196 -0.2215
  389MOL0     C51225   2.954   2.973   7.200  0.1073  0.1919  0.2839
  389MOL0     C51226   2.933   2.846   7.109 -1.5200  1.3135 -0.4013
  389MOL0     C51227   2.844   2.738   7.169 -0.1251 -0.0984  1.3250
  389MOL0     C51228   2.812   2.629   7.063 -0.5692  0.4486 -0.5586
  389MOL0     C51229   2.695   2.538   7.108 -0.0843  0.2207  0.0095
  389MOL0     C51230   2.696   2.408   7.017 -0.3058  1.2869 -0.6883
  389MOL0     C51231   2.562   2.339   7.020  0.9941 -0.1524  0.5851
  389MOL0     C51232   2.465   2.415   6.935 -1.0155 -0.2857  0.1096
  389MOL0     N51233   2.361   2.480   7.016  0.1556  0.0829 -0.6959
  389MOL0     C51234   2.264   2.418   7.089 -0.1548 -0.6374  0.1615
  389MOL0     C51235   2.197   2.516   7.154  0.0960  0.4494  0.5632
  389MOL0     C51236   2.073   2.506   7.237  0.5350 -0.5423  0.9970
  389MOL0     C51237   1.940   2.555   7.164 -0.0690 -0.1593 -0.3226
  389MOL0     C51238   1.843   2.612   7.268  0.5074 -0.7860 -0.3311
  389MOL0     C51239   1.807   2.519   7.383 -0.1235  0.0932 -0.5575
  389MOL0     O51240   1.698   2.564   7.466 -0.0508 -0.4185  0.0288
  389MOL0     C51241   1.686   2.517   7.596 -0.5564 -1.2799  0.1139
  389MOL0     C51242   1.780   2.466   7.680  0.2217  0.8637  0.1608
  389MOL0     C51243   1.758   2.448   7.818 -0.4284  0.3480  0.2133
  389MOL0     C51244   1.632   2.482   7.874  0.5542  0.3720  0.2919
  389MOL0     C51245   1.618   2.485   8.020  0.8136  0.2934 -1.0306
  389MOL0     O51246   1.706   2.414   8.099 -0.7174  0.5945 -0.1340
  389MOL0     C51247   1.671   2.410   8.236 -0.4313  0.1360  1.0920
  389MOL0     C51248   1.682   2.526   8.309 -0.0447  0.1899  0.0538
  389MOL0     C51249   1.640   2.528   8.439 -0.1751  0.3070  0.0787
  389MOL0     C51250   1.594   2.411   8.505 -0.4296 -0.0950 -0.4602
  389MOL0     O51251   1.553   2.423   8.636  0.4252  0.3465  0.6101
  389MOL0     C51252   1.484   2.311   8.690 -0.2343  0.4537  0.3023
  389MOL0     C51253   1.430   2.354   8.831 -0.1989 -0.4807  0.5160
  389MOL0     C51254   1.519   2.453   8.917 -0.0237 -1.5284  0.1175
  389MOL0     C51255   1.470   2.458   9.063 -0.7997 -0.2542 -0.7948
  389MOL0     C51256   1.323   2.499   9.079  1.0180  0.2053 -0.1838
  389MOL0     C51257   1.271   2.607   8.992  0.2711 -1.0612 -0.5815
  389MOL0     C51258   1.339   2.738   9.025 -0.2058  0.0058 -0.4387
  389MOL0     C51259   1.282   2.863   8.947  0.5516  0.0292 -0.3694
  389MOL0    Cl51260   1.312   2.853   8.778 -0.1309 -0.4801  0.0335
  389MOL0     C51261   1.596   2.292   8.431  0.0930 -0.2998 -0.4400
  389MOL0     C51262   1.630   2.294   8.295 -0.1503  0.0269 -1.3457
  389MOL0     O51263   1.510   2.533   8.059  0.2659 -0.1396 -0.4891
  389MOL0     C51264   1.524   2.527   7.793 -0.5349 -0.6309 -0.3457
  389MOL0     C51265   1.560   2.542   7.654 -0.5773  0.3403  0.2234
  389MOL0     N51266   2.240   2.638   7.105 -0.4509 -0.7123 -0.5245
  389MOL0     N51267   2.336   2.608   7.024  0.0872  0.1783 -0.1899
  389MOL0     C51268   2.701   3.242   7.225  0.6000  0.5747 -0.7439
  389MOL0     C51269   2.680   3.382   7.211  0.2593 -0.9364  0.8660
  389MOL0     C51270   2.839   3.819   7.352 -1.0291 -0.3948  0.6099
  389MOL0     C51271   2.777   3.888   7.247  0.7057  0.0547  0.5387
  389MOL0     C51272   2.743   4.026   7.264  0.1180  0.5758  0.8163
  389MOL0     C51273   2.797   4.096   7.364  0.1398  0.0190 -0.4285
  389MOL0     O51274   2.763   4.224   7.371 -0.0671  0.2033 -0.3430
  389MOL0     C51275   2.797   4.301   7.253 -1.0954  0.3316  0.0222
  389MOL0     C51276   2.869   4.430   7.287  0.1555 -0.2073  0.2591
  389MOL0     C51277   2.844   4.531   7.180  1.1382  0.0784  0.5405
  389MOL0     C51278   2.708   4.602   7.200  0.1931  0.1934  0.0070
  389MOL0     C51279   2.687   4.711   7.097 -0.2470  0.8491 -0.6179
  389MOL0     C51280   2.677   4.804   7.013  1.3470  0.5778  0.5968
  389MOL0     C51281   2.857   4.034   7.472 -0.1202 -0.7680  0.8869
  389MOL0     C51282   2.876   3.897   7.461 -0.3178 -0.0094 -0.2444
  389MOL0     H51283   2.985   3.462   7.312  0.4581 -1.9758  0.6947
  389MOL0     H51284   3.020   3.210   7.292 -3.0104 -3.8915  4.3585
  389MOL0     H51285   3.003   2.942   7.292  0.9586  1.4014  0.2588
  389MOL0     H51286   3.017   3.044   7.145 -2.3643  3.9039  1.8631
  389MOL0     H51287   3.029   2.802   7.078 -1.8462 -2.8601  3.5623
  389MOL0     H51288   2.882   2.883   7.020  3.4135  1.5274 -3.5370
  389MOL0     H51289   2.749   2.792   7.182  0.4947  1.0541  1.1567
  389MOL0     H51290   2.881   2.706   7.267  0.9625 -3.1214  0.0597
  389MOL0     H51291   2.774   2.678   6.973 -3.4849 -0.0788  0.3053
  389MOL0     H51292   2.906   2.574   7.049 -1.3734 -0.6878 -1.7037
  389MOL0     H51293   2.600   2.591   7.116  0.1722  1.1996 -2.5610
  389MOL0     H51294   2.712   2.502   7.210 -1.3312  0.5685  0.3579
  389MOL0     H51295   2.782   2.346   7.043 -2.4952 -2.2077 -1.2052
  389MOL0     H51296   2.723   2.429   6.913  3.9347 -1.3500 -0.3373
  389MOL0     H51297   2.583   2.242   6.973 -3.4730 -1.5582  1.1024
  389MOL0     H51298   2.517   2.313   7.116 -0.4190  0.5925  0.1569
  389MOL0     H51299   2.399   2.348   6.879  0.2688  1.1855 -3.4923
  389MOL0     H51300   2.516   2.485   6.868 -0.4054  1.4206  2.2427
  389MOL0     H51301   2.236   2.315   7.103 -1.1667 -0.3313  0.4775
  389MOL0     H51302   2.088   2.569   7.325 -2.0711 -0.2874  1.3442
  389MOL0     H51303   2.063   2.402   7.270 -1.7407  0.1291  2.6628
  389MOL0     H51304   1.891   2.484   7.097 -0.0646 -0.2569 -0.2236
  389MOL0     H51305   1.953   2.642   7.099  0.7404  1.2416  1.5973
  389MOL0     H51306   1.883   2.705   7.310  3.5335 -2.3650  0.5925
  389MOL0     H51307   1.754   2.636   7.210  0.4630  0.3787  0.1855
  389MOL0     H51308   1.898   2.490   7.437  0.7682 -0.6256 -2.3784
  389MOL0     H51309   1.774   2.430   7.329 -3.4118  0.7860  0.0694
  389MOL0     H51310   1.883   2.451   7.651  0.5062 -2.4904  2.3468
  389MOL0     H51311   1.835   2.405   7.881  0.2440 -0.6129 -1.1919
  389MOL0     H51312   1.713   2.615   8.256 -0.9491 -0.0798 -0.9515
  389MOL0     H51313   1.625   2.618   8.499  0.4536 -0.7713  1.9524
  389MOL0     H51314   1.555   2.229   8.700  0.7993  0.9562 -2.1144
  389MOL0     H51315   1.408   2.271   8.621 -0.9819  0.1602  1.2766
  389MOL0     H51316   1.418   2.265   8.894 -2.2613  0.8185  2.0899
  389MOL0     H51317   1.328   2.384   8.806 -0.2579 -0.2356  1.0340
  389MOL0     H51318   1.510   2.554   8.875 -0.0168 -0.4386  2.5787
  389MOL0     H51319   1.624   2.424   8.917 -0.2774 -2.5399 -1.1039
  389MOL0     H51320   1.482   2.358   9.106  2.0855  0.5193  0.4222
  389MOL0     H51321   1.530   2.531   9.118 -0.9509 -1.3057  0.8293
  389MOL0     H51322   1.303   2.522   9.184  6.4942 -1.0056  1.4868
  389MOL0     H51323   1.258   2.414   9.054 -1.2359  2.1060 -1.1286
  389MOL0     H51324   1.163   2.618   9.003  0.1748 -0.5174 -1.8510
  389MOL0     H51325   1.286   2.591   8.885  1.6243  1.6038 -0.8849
  389MOL0     H51326   1.321   2.758   9.131 -0.9148 -3.3108  0.1645
  389MOL0     H51327   1.447   2.743   9.005 -0.5030  2.3319 -1.9499
  389MOL0     H51328   1.348   2.939   8.989 -0.6863  1.2784 -0.6288
  389MOL0     H51329   1.175   2.873   8.968 -0.0644 -3.3286 -1.3682
  389MOL0     H51330   1.571   2.195   8.472 -1.0330 -0.3103 -1.0821
  389MOL0     H51331   1.627   2.198   8.245 -0.4351 -1.1990  0.8823
  389MOL0     H51332   1.424   2.535   7.834 -0.9163  1.0688 -1.4870
  389MOL0     H51333   1.491   2.581   7.580 -0.2954  2.9072  1.1929
  389MOL0     H51334   2.610   3.182   7.218 -0.1300  1.3695  1.1825
  389MOL0     H51335   2.582   3.428   7.198 -0.5155 -3.1872 -2.3570
  389MOL0     H51336   2.727   3.827   7.172 -1.2425  2.6369 -0.4421
  389MOL0     H51337   2.681   4.068   7.185  2.1282  0.3358 -0.9827
  389MOL0     H51338   2.703   4.336   7.211 -2.4738 -0.1187  2.5329
  389MOL0     H51339   2.856   4.247   7.178  3.6181  2.2465  1.9476
  389MOL0     H51340   2.829   4.466   7.383  0.8915 -0.7710  0.7950
  389MOL0     H51341   2.978   4.423   7.297  0.2280  0.0054 -0.3485
  389MOL0     H51342   2.846   4.473   7.087  1.4988 -0.0185  0.6063
  389MOL0     H51343   2.924   4.606   7.173  1.5053 -0.3556  0.0000
  389MOL0     H51344   2.630   4.526   7.197 -1.9998  2.0529  3.6063
  389MOL0     H51345   2.701   4.648   7.299  2.5776  0.4984  0.1056
  389MOL0     H51346   2.654   4.887   6.949  0.7058  1.9524  2.5242
  389MOL0     H51347   2.890   4.080   7.565  0.3389  2.9690 -0.9269
  389MOL0     H51348   2.926   3.861   7.550 -0.5794  1.1731  0.4052
  390MOL0     O51349   4.921   5.006   0.999 -0.3411  0.0617 -0.2898
  390MOL0     C51350   5.041   5.023   0.978 -0.1985 -0.7397 -1.1390
  390MOL0     O51351   5.123   4.947   0.914  0.4145  0.7491  0.6513
  390MOL0     C51352   5.059   4.838   0.855 -0.6423 -0.4906  0.3795
  390MOL0     C51353   5.080   4.718   0.912 -0.0659 -0.2175  0.2991
  390MOL0     C51354   5.007   4.605   0.871  0.5235  0.2180  0.8193
  390MOL0     C51355   4.908   4.618   0.761  0.2744 -0.8787  0.6296
  390MOL0     O51356   4.835   4.504   0.728 -0.4294  0.0265  0.0998
  390MOL0     C51357   4.797   4.424   0.843  0.2744 -0.1621 -0.6108
  390MOL0     C51358   4.666   4.348   0.831 -0.0957  0.4370  0.6626
  390MOL0     C51359   4.552   4.436   0.782 -0.7392 -0.5295  0.2590
  390MOL0     C51360   4.532   4.563   0.859 -0.5945  0.1338  0.0437
  390MOL0     C51361   4.382   4.606   0.839 -0.5405  0.4025  0.2348
  390MOL0     C51362   4.347   4.732   0.933 -0.0438  0.4606 -0.4441
  390MOL0     C51363   4.284   4.713   1.069  0.4353 -0.9017 -0.1087
  390MOL0     C51364   4.380   4.657   1.176 -1.3944  0.5255  1.0374
  390MOL0     N51365   4.317   4.666   1.310  0.3238  0.0820  0.3241
  390MOL0     C51366   4.355   4.739   1.413 -0.0178  0.0889  0.4743
  390MOL0     C51367   4.251   4.718   1.500  0.0994  0.0925 -0.7378
  390MOL0     C51368   4.244   4.777   1.640 -1.0232  0.2739 -0.2975
  390MOL0     C51369   4.215   4.675   1.751 -0.2587  0.2050  0.0366
  390MOL0     C51370   4.065   4.646   1.762  0.8545 -0.1233 -0.2021
  390MOL0     C51371   4.018   4.600   1.891 -0.0956  0.3091  0.7553
  390MOL0     O51372   3.893   4.531   1.887  0.0997 -0.0078 -0.1026
  390MOL0     C51373   3.869   4.420   1.813 -0.3079 -0.0229  0.2558
  390MOL0     C51374   3.957   4.329   1.754 -0.0171 -0.2331  0.1833
  390MOL0     C51375   3.914   4.237   1.660 -0.4123  0.4944 -0.1837
  390MOL0     C51376   3.769   4.238   1.624  0.0948  0.1615 -0.2430
  390MOL0     C51377   3.723   4.141   1.528  0.5742 -0.2205 -0.6706
  390MOL0     O51378   3.587   4.131   1.510 -1.1987 -0.1669  0.3371
  390MOL0     C51379   3.537   4.039   1.432 -0.4974  0.4997 -0.9800
  390MOL0     C51380   3.551   3.906   1.459 -0.0858 -0.5592 -0.6686
  390MOL0     C51381   3.491   3.810   1.381 -1.1369  0.3648  0.1735
  390MOL0     C51382   3.411   3.841   1.276 -0.3335 -0.4964 -0.1839
  390MOL0     O51383   3.364   3.735   1.207  0.3006 -0.0702  0.0821
  390MOL0     C51384   3.268   3.768   1.107 -0.2406 -0.8285 -0.7875
  390MOL0     C51385   3.229   3.624   1.052 -0.4184 -0.4381 -0.1263
  390MOL0     C51386   3.209   3.653   0.896  0.0830 -0.8042 -0.0007
  390MOL0     C51387   3.092   3.738   0.860  1.1739 -0.4474  0.3774
  390MOL0     C51388   3.068   3.704   0.713 -0.6278  0.5007  0.1816
  390MOL0     C51389   2.975   3.813   0.633 -1.4721 -0.2266 -0.0032
  390MOL0     C51390   3.068   3.941   0.607 -0.5639  0.1355  0.0620
  390MOL0     C51391   2.995   4.047   0.517 -0.2842 -0.3072 -0.3263
  390MOL0    Cl51392   2.982   3.991   0.345  0.2282 -0.1650 -0.2880
  390MOL0     C51393   3.387   3.979   1.250 -0.3909  0.5181 -0.3761
  390MOL0     C51394   3.464   4.074   1.318 -0.0790 -0.0774  0.4841
  390MOL0     O51395   3.807   4.062   1.473  0.4050 -0.6325 -0.1116
  390MOL0     C51396   3.689   4.338   1.683  0.0372 -1.0991 -0.3922
  390MOL0     C51397   3.740   4.420   1.775  1.1982  0.5003 -0.3954
  390MOL0     N51398   4.155   4.646   1.439  0.5143 -0.0582  0.1992
  390MOL0     N51399   4.185   4.622   1.321 -0.4314  0.2181  0.1000
  390MOL0     C51400   4.889   4.747   0.712 -1.1630 -0.8280  0.6892
  390MOL0     C51401   4.964   4.858   0.757  0.2080 -0.3897 -0.4315
  390MOL0     C51402   5.093   5.157   1.029  0.1267 -0.5899 -1.0265
  390MOL0     C51403   5.239   5.174   1.014  0.7066 -0.9254 -0.3035
  390MOL0     C51404   5.296   5.291   1.068 -0.0350  0.6323  0.1949
  390MOL0     C51405   5.226   5.398   1.133 -0.2172 -0.7572 -0.5540
  390MOL0     O51406   5.281   5.520   1.164  1.1149  0.5523 -0.2498
  390MOL0     C51407   5.416   5.548   1.124  0.1441 -0.9386  0.1302
  390MOL0     C51408   5.446   5.699   1.138  0.3192 -0.5039  0.6223
  390MOL0     C51409   5.593   5.738   1.099 -0.2238 -0.2312  0.3672
  390MOL0     C51410   5.602   5.795   0.959  0.3741 -0.4214 -0.5224
  390MOL0     C51411   5.584   5.939   0.976  0.2484  0.7821 -0.7064
  390MOL0     C51412   5.545   6.049   0.999  0.0623  0.5296 -0.1180
  390MOL0     C51413   5.091   5.374   1.146  0.2378  0.5014 -0.3070
  390MOL0     C51414   5.020   5.259   1.091 -0.6998 -0.1136  0.4665
  390MOL0     H51415   5.157   4.724   0.987  0.4556 -2.8504  0.0688
  390MOL0     H51416   5.016   4.524   0.942  3.7079 -0.7275 -0.5185
  390MOL0     H51417   4.778   4.491   0.927  1.1619  2.5185 -2.4443
  390MOL0     H51418   4.862   4.341   0.872  0.2279 -0.2694 -0.8133
  390MOL0     H51419   4.634   4.304   0.926  1.7536  1.0312  1.5999
  390MOL0     H51420   4.687   4.269   0.758  3.1435  3.3595 -1.9137
  390MOL0     H51421   4.465   4.371   0.789  0.5003 -2.1443  1.5635
  390MOL0     H51422   4.561   4.457   0.675  2.3779  0.2133  0.5721
  390MOL0     H51423   4.552   4.538   0.964  1.6395 -2.0711 -0.8151
  390MOL0     H51424   4.595   4.647   0.830 -3.0667  2.4580  0.9529
  390MOL0     H51425   4.316   4.523   0.866  0.9319 -1.5507 -1.8208
  390MOL0     H51426   4.383   4.633   0.733  1.2424  1.6817  0.5302
  390MOL0     H51427   4.274   4.786   0.872  1.3017  1.4712 -1.2352
  390MOL0     H51428   4.432   4.801   0.937  0.5945 -0.3564  0.4739
  390MOL0     H51429   4.252   4.811   1.106  1.2369 -0.7478  0.1956
  390MOL0     H51430   4.197   4.647   1.072 -0.4833  0.3103  1.2060
  390MOL0     H51431   4.471   4.717   1.167 -0.9033 -0.5875 -4.1245
  390MOL0     H51432   4.398   4.555   1.143 -0.9615  0.6503  0.8728
  390MOL0     H51433   4.413   4.830   1.422 -3.5827  2.5367  0.9632
  390MOL0     H51434   4.173   4.860   1.634 -0.6499  0.6929  0.8894
  390MOL0     H51435   4.339   4.826   1.660 -2.0554  1.1023  3.4713
  390MOL0     H51436   4.232   4.720   1.849  0.2689 -1.7420  0.8977
  390MOL0     H51437   4.273   4.582   1.745 -0.2211  0.1488  1.0475
  390MOL0     H51438   4.007   4.738   1.751  0.7200  0.2068  2.6258
  390MOL0     H51439   4.042   4.573   1.684  1.5390  0.6696 -1.1766
  390MOL0     H51440   4.008   4.690   1.952 -0.6794  1.5598 -1.1019
  390MOL0     H51441   4.100   4.534   1.921  1.1910  1.8071  0.6271
  390MOL0     H51442   4.064   4.321   1.772  0.8874  5.0963 -0.9710
  390MOL0     H51443   3.986   4.174   1.609  2.0218  3.6119 -0.9373
  390MOL0     H51444   3.620   3.875   1.537 -0.2581  2.2804  0.7548
  390MOL0     H51445   3.512   3.707   1.409 -1.6690  0.7607  2.1825
  390MOL0     H51446   3.316   3.825   1.027  2.7310 -3.3620 -0.9897
  390MOL0     H51447   3.182   3.830   1.136 -0.6695 -0.6102 -2.4408
  390MOL0     H51448   3.137   3.574   1.086  0.0323 -2.9422 -2.3395
  390MOL0     H51449   3.311   3.553   1.057  1.1634  1.3778  3.1054
  390MOL0     H51450   3.211   3.569   0.826  0.0221  0.4819 -1.6099
  390MOL0     H51451   3.295   3.710   0.862  0.0215  1.4123  3.1743
  390MOL0     H51452   3.000   3.708   0.911 -0.9438  5.5536  0.8490
  390MOL0     H51453   3.108   3.844   0.878  1.2597  0.0965 -2.5157
  390MOL0     H51454   3.011   3.611   0.723 -1.8679  1.4331  2.7881
  390MOL0     H51455   3.160   3.699   0.654 -0.6803 -0.4069  0.1759
  390MOL0     H51456   2.885   3.835   0.691 -1.0687 -0.8309  0.8802
  390MOL0     H51457   2.937   3.766   0.542 -4.1856  2.2700 -0.2991
  390MOL0     H51458   3.103   3.991   0.697  2.5351  0.7133 -1.3288
  390MOL0     H51459   3.165   3.920   0.560 -0.2425  0.7225  0.4522
  390MOL0     H51460   3.058   4.135   0.530  0.0970 -0.4502 -1.1219
  390MOL0     H51461   2.897   4.081   0.549 -0.1400  0.3389 -0.5562
  390MOL0     H51462   3.329   4.016   1.166 -0.2782  1.0664 -0.2200
  390MOL0     H51463   3.444   4.178   1.292  1.1167  0.2330  0.7485
  390MOL0     H51464   3.587   4.356   1.650  0.3649  0.9997 -0.3692
  390MOL0     H51465   3.670   4.499   1.800 -1.0929 -0.1344 -4.0659
  390MOL0     H51466   4.819   4.770   0.633  0.5637  0.1744 -0.6221
  390MOL0     H51467   4.953   4.953   0.705 -3.1095 -0.0353  0.6957
  390MOL0     H51468   5.294   5.099   0.959 -0.0109 -0.1103 -2.2061
  390MOL0     H51469   5.402   5.297   1.046 -0.0223  1.6450  0.4781
  390MOL0     H51470   5.419   5.532   1.016 -2.8534  3.6758 -0.9143
  390MOL0     H51471   5.489   5.489   1.181  0.5508 -2.1191 -1.5178
  390MOL0     H51472   5.368   5.751   1.081 -0.1490  0.6349  2.2197
  390MOL0     H51473   5.418   5.732   1.239 -0.6854  0.6710 -0.0013
  390MOL0     H51474   5.660   5.653   1.111  2.0635  1.5493  0.8451
  390MOL0     H51475   5.624   5.813   1.172 -2.4662  0.5013  0.6751
  390MOL0     H51476   5.697   5.766   0.913 -0.4164 -3.1422 -0.6133
  390MOL0     H51477   5.525   5.764   0.888 -1.2648 -1.2032  1.5120
  390MOL0     H51478   5.510   6.148   1.021 -3.0892  0.8456 -4.9631
  390MOL0     H51479   5.026   5.446   1.194 -0.4829 -0.1248 -0.3217
  390MOL0     H51480   4.917   5.227   1.105  0.1762 -2.4145  2.3022
  391MOL0     O51481   1.151   3.337   2.382 -0.1660  0.5778 -0.1014
  391MOL0     C51482   1.062   3.263   2.414  0.0343  0.9362 -0.1225
  391MOL0     O51483   1.071   3.122   2.440 -0.2329  0.2949  0.3311
  391MOL0     C51484   1.187   3.044   2.456 -0.6483 -0.2796 -0.2801
  391MOL0     C51485   1.318   3.085   2.468 -0.4986 -0.0259  0.0585
  391MOL0     C51486   1.421   2.997   2.473  0.4942  0.3452 -0.5307
  391MOL0     C51487   1.385   2.862   2.498 -0.4535  0.7563 -0.6425
  391MOL0     O51488   1.491   2.775   2.494 -0.0944 -0.2496 -0.5381
  391MOL0     C51489   1.520   2.725   2.360  1.4808  0.1989  0.3611
  391MOL0     C51490   1.634   2.622   2.360  0.3112 -0.2828 -0.2246
  391MOL0     C51491   1.762   2.657   2.447  0.8384  0.6345  0.4326
  391MOL0     C51492   1.887   2.584   2.403 -0.6690  0.0045 -0.3100
  391MOL0     C51493   2.004   2.652   2.476  0.1714 -0.3455  0.6191
  391MOL0     C51494   1.990   2.646   2.621  0.3921 -0.6773 -0.4756
  391MOL0     C51495   2.120   2.679   2.691  0.1465  0.3580 -1.3837
  391MOL0     C51496   2.104   2.691   2.842 -0.2287 -0.0648 -0.5037
  391MOL0     N51497   2.226   2.711   2.923  0.9559  0.6523  1.0370
  391MOL0     C51498   2.351   2.649   2.905  0.0772 -0.2553 -0.4604
  391MOL0     C51499   2.425   2.720   2.990 -1.0642  0.3851 -1.1788
  391MOL0     C51500   2.569   2.689   3.035 -0.3005 -1.0377 -0.0283
  391MOL0     C51501   2.665   2.805   2.988  1.1209  0.7294  1.1410
  391MOL0     C51502   2.801   2.739   3.011 -0.6684 -0.4499  0.2121
  391MOL0     C51503   2.921   2.802   2.941  0.0874  0.4210  0.0082
  391MOL0     O51504   2.941   2.947   2.955 -0.4833 -0.2308 -1.6413
  391MOL0     C51505   3.052   2.980   3.027 -0.1223  0.3076 -0.8529
  391MOL0     C51506   3.165   3.014   2.958  0.1996 -0.2984 -0.5144
  391MOL0     C51507   3.271   3.066   3.034 -0.2944  1.1308  0.7967
  391MOL0     C51508   3.256   3.107   3.168  0.6210  0.5537  1.2611
  391MOL0     C51509   3.366   3.166   3.243  0.0562  0.3174 -0.8658
  391MOL0     O51510   3.345   3.166   3.383 -0.5609 -0.3563  0.6191
  391MOL0     C51511   3.444   3.194   3.471  0.1240  0.2708 -0.7786
  391MOL0     C51512   3.411   3.271   3.587 -0.7421 -0.8633  0.4878
  391MOL0     C51513   3.503   3.282   3.685 -0.9666 -0.1487  0.5606
  391MOL0     C51514   3.628   3.215   3.672 -0.0843  0.2884 -0.3110
  391MOL0     O51515   3.718   3.205   3.773 -0.1581  0.9060  0.3785
  391MOL0     C51516   3.682   3.239   3.898  0.2799 -0.0790 -0.2847
  391MOL0     C51517   3.799   3.211   4.013  1.3189  0.3322  0.1158
  391MOL0     C51518   3.912   3.313   4.005 -0.2932  0.7650  0.7630
  391MOL0     C51519   3.947   3.355   4.151 -0.1189 -0.4113  0.2441
  391MOL0     C51520   4.090   3.406   4.175 -0.8774 -0.7453  0.2950
  391MOL0     C51521   4.190   3.300   4.126 -1.2270 -0.6850 -0.6340
  391MOL0     C51522   4.325   3.313   4.198 -0.3407 -0.5551  0.4249
  391MOL0     C51523   4.417   3.212   4.137 -0.2334  0.1983 -0.6342
  391MOL0    Cl51524   4.357   3.058   4.070  0.0261  0.5363 -0.4877
  391MOL0     C51525   3.664   3.146   3.552  1.2603 -0.7749  0.9272
  391MOL0     C51526   3.564   3.128   3.455 -0.4039  0.7634 -0.7081
  391MOL0     O51527   3.467   3.210   3.184  0.9654  0.2716  0.6740
  391MOL0     C51528   3.143   3.079   3.238 -0.2244  0.4169  0.5800
  391MOL0     C51529   3.043   3.012   3.169  1.1351 -1.0509  0.2770
  391MOL0     N51530   2.351   2.820   3.059  0.2797  0.3044 -0.2454
  391MOL0     N51531   2.231   2.799   3.024  0.4018 -0.1854  0.3139
  391MOL0     C51532   1.259   2.818   2.497 -0.0217 -0.3145  0.8281
  391MOL0     C51533   1.154   2.910   2.469  0.1449 -0.2329  0.4217
  391MOL0     C51534   0.927   3.320   2.412 -0.9982 -0.0118 -0.7003
  391MOL0     C51535   0.815   3.252   2.458 -0.5272  0.0665  0.0795
  391MOL0     C51536   0.694   3.317   2.462  1.0205  1.0027 -0.3433
  391MOL0     C51537   0.674   3.452   2.418 -0.6897  0.9852 -0.5571
  391MOL0     O51538   0.543   3.500   2.424 -0.6963  1.0771  0.1473
  391MOL0     C51539   0.522   3.633   2.393  0.0837 -1.1464 -0.1062
  391MOL0     C51540   0.384   3.668   2.458 -0.0191  0.6394 -1.0226
  391MOL0     C51541   0.275   3.580   2.399 -0.2306 -0.1104 -0.4068
  391MOL0     C51542   0.159   3.597   2.484 -0.2690 -0.4001 -1.5917
  391MOL0     C51543   0.044   3.522   2.437 -0.3659 -0.8032 -0.4960
  391MOL0     C51544  -0.051   3.463   2.381  0.3417  0.0751  0.9265
  391MOL0     C51545   0.789   3.513   2.361  0.0412 -0.4845  0.4807
  391MOL0     C51546   0.913   3.456   2.380  0.1330  0.2032 -0.8274
  391MOL0     H51547   1.338   3.192   2.461  1.0401 -0.3047 -0.2176
  391MOL0     H51548   1.526   3.025   2.470  1.1087 -1.0265  3.0490
  391MOL0     H51549   1.553   2.811   2.302 -0.5922  1.5186  1.0204
  391MOL0     H51550   1.432   2.675   2.318  1.1196  1.1524 -0.0446
  391MOL0     H51551   1.680   2.614   2.261  1.8793 -0.8966  0.5287
  391MOL0     H51552   1.595   2.523   2.383 -3.8061  1.0599 -0.5310
  391MOL0     H51553   1.738   2.619   2.547  0.7464  1.5582  0.7660
  391MOL0     H51554   1.769   2.765   2.460 -0.8813  1.3436 -3.1664
  391MOL0     H51555   1.876   2.477   2.425 -0.9385 -0.0204 -0.5634
  391MOL0     H51556   1.905   2.596   2.296  2.1656 -0.7591 -0.0068
  391MOL0     H51557   2.005   2.758   2.448 -1.7038  1.3968  5.8461
  391MOL0     H51558   2.100   2.610   2.443 -0.3877  0.4790 -2.3811
  391MOL0     H51559   1.957   2.546   2.651 -2.7917 -0.0055 -1.3076
  391MOL0     H51560   1.916   2.716   2.662  0.5838 -0.0069 -1.2391
  391MOL0     H51561   2.190   2.603   2.654 -2.7510 -4.3021  1.5334
  391MOL0     H51562   2.159   2.774   2.654  1.3967  0.5681  0.3363
  391MOL0     H51563   2.046   2.605   2.877 -1.7389  0.7401 -0.9362
  391MOL0     H51564   2.037   2.777   2.851 -0.1000  0.1754 -1.7225
  391MOL0     H51565   2.383   2.569   2.840 -1.2836 -0.7368 -0.5669
  391MOL0     H51566   2.604   2.588   3.013 -1.7484 -1.9840  1.7297
  391MOL0     H51567   2.566   2.699   3.144 -0.7586  3.0210 -0.2376
  391MOL0     H51568   2.663   2.897   3.047 -0.1804 -0.3178  2.7895
  391MOL0     H51569   2.651   2.829   2.882  0.7232  4.2260  1.8673
  391MOL0     H51570   2.810   2.738   3.120 -0.6391  2.1386  0.2814
  391MOL0     H51571   2.808   2.636   2.973  1.6414  0.4947 -2.2556
  391MOL0     H51572   2.895   2.785   2.836 -2.0545 -1.4291  0.7510
  391MOL0     H51573   3.004   2.740   2.977 -0.4057 -1.0420 -1.2910
  391MOL0     H51574   3.179   3.006   2.851  1.4460 -0.1303 -0.3786
  391MOL0     H51575   3.367   3.083   2.986  0.8641  0.7541  2.8272
  391MOL0     H51576   3.318   3.322   3.607  1.0306  1.9141  2.2725
  391MOL0     H51577   3.454   3.326   3.771  0.5762 -0.5977  1.7358
  391MOL0     H51578   3.602   3.172   3.931  0.0223 -0.4443 -1.5855
  391MOL0     H51579   3.648   3.342   3.913 -1.6683 -0.8909  1.4402
  391MOL0     H51580   3.835   3.109   4.001  1.3597  0.4781 -1.1696
  391MOL0     H51581   3.750   3.226   4.110 -1.7689 -1.0800 -1.0634
  391MOL0     H51582   3.874   3.403   3.953  2.9892  0.4850 -2.5385
  391MOL0     H51583   3.997   3.284   3.942  1.0616  2.1545  1.8830
  391MOL0     H51584   3.872   3.428   4.184  2.3126  0.6347  4.1840
  391MOL0     H51585   3.934   3.273   4.222  1.3994 -1.0743 -0.1963
  391MOL0     H51586   4.113   3.429   4.279  2.2611  1.8872 -0.8268
  391MOL0     H51587   4.092   3.503   4.125  0.0891 -1.3822 -0.9407
  391MOL0     H51588   4.210   3.309   4.019  0.4503 -0.6061 -0.3333
  391MOL0     H51589   4.160   3.196   4.143  1.2415 -1.2628  0.6931
  391MOL0     H51590   4.379   3.403   4.170  3.2352 -1.8190  2.5104
  391MOL0     H51591   4.319   3.292   4.306 -1.4647 -1.4386  0.2065
  391MOL0     H51592   4.510   3.211   4.194 -0.5139  4.0457  0.1996
  391MOL0     H51593   4.448   3.261   4.045  0.3976  0.7746 -0.1305
  391MOL0     H51594   3.760   3.096   3.546  1.7722 -0.0025  2.2913
  391MOL0     H51595   3.595   3.067   3.370 -0.4831 -4.2523  2.4665
  391MOL0     H51596   3.121   3.100   3.342 -2.1551  0.9923  0.0922
  391MOL0     H51597   2.948   2.988   3.217  0.1902  0.6147 -0.6784
  391MOL0     H51598   1.232   2.712   2.500 -1.0509 -0.1235 -0.6334
  391MOL0     H51599   1.053   2.878   2.449 -0.3273  2.4354 -2.0868
  391MOL0     H51600   0.832   3.150   2.492  0.3671  0.6443  1.4334
  391MOL0     H51601   0.609   3.263   2.502  2.5124 -1.6158 -0.5401
  391MOL0     H51602   0.509   3.643   2.285 -2.4690  5.4538  0.3549
  391MOL0     H51603   0.608   3.682   2.441 -0.4642  0.4340 -0.6498
  391MOL0     H51604   0.385   3.641   2.564  1.1254  0.9740 -0.9404
  391MOL0     H51605   0.362   3.775   2.444  1.8342  1.1269 -0.4096
  391MOL0     H51606   0.298   3.473   2.395 -5.1872 -1.5192  1.3119
  391MOL0     H51607   0.260   3.610   2.295  0.7390  1.2658 -0.1812
  391MOL0     H51608   0.178   3.571   2.588 -1.3638  3.3320 -0.2627
  391MOL0     H51609   0.134   3.703   2.491  2.7994  0.3286  0.1137
  391MOL0     H51610  -0.123   3.426   2.310 -1.9779  3.8913  1.0394
  391MOL0     H51611   0.789   3.607   2.307  3.4972 -1.0498 -0.7751
  391MOL0     H51612   1.003   3.500   2.338  1.5856 -1.6729  0.1558
  392MOL0     O51613  10.902  10.076   0.324  0.3049 -0.6198  0.0837
  392MOL0     C51614  10.788  10.033   0.284 -0.8526 -0.8019 -0.3325
  392MOL0     O51615  10.684  10.105   0.228  0.0471  0.7125 -0.2656
  392MOL0     C51616  10.681  10.242   0.191 -0.6511  0.5132  0.6206
  392MOL0     C51617  10.559  10.301   0.174 -0.2750  0.2324  0.4010
  392MOL0     C51618  10.560  10.430   0.107  0.7625  0.0447 -0.0257
  392MOL0     C51619  10.681  10.486   0.065 -0.5204 -1.6712  0.9081
  392MOL0     O51620  10.677  10.598  -0.011 -0.3349 -0.3232  0.2819
  392MOL0     C51621  10.763  10.712   0.033 -0.4186 -0.6169 -0.5683
  392MOL0     C51622  10.815  10.796  -0.085  0.2749 -0.6702  0.7201
  392MOL0     C51623  10.931  10.739  -0.158  0.0469 -0.3026  0.3523
  392MOL0     C51624  10.924  10.606  -0.235  0.2844  0.8188  0.6956
  392MOL0     C51625  11.045  10.570  -0.320 -0.4396 -0.4223 -0.2973
  392MOL0     C51626  11.021  10.428  -0.376 -1.0213 -0.1961 -0.3149
  392MOL0     C51627  11.048  10.315  -0.267  0.6491 -0.4623  0.2126
  392MOL0     C51628  11.101  10.202  -0.339  0.5187  1.4347  0.1258
  392MOL0     N51629  11.126  10.090  -0.254  0.5823  1.2143 -1.3443
  392MOL0     C51630  11.054  10.042  -0.144 -0.7779  0.0689  0.1093
  392MOL0     C51631  11.137   9.966  -0.074  0.4045  1.3521  0.5931
  392MOL0     C51632  11.094   9.910   0.058  0.0635  0.0548 -0.1253
  392MOL0     C51633  11.135   9.769   0.075 -0.0340 -1.7434  0.7981
  392MOL0     C51634  11.090   9.717   0.217 -0.6303 -0.3193 -0.6005
  392MOL0     C51635  11.159   9.802   0.331  0.4887  0.8629 -0.8878
  392MOL0     O51636  11.142   9.745   0.457  0.7893  0.3122 -0.0538
  392MOL0     C51637  11.229   9.648   0.492  0.4645  0.1271  0.4763
  392MOL0     C51638  11.345   9.596   0.420  0.0009 -0.0921  0.0131
  392MOL0     C51639  11.421   9.485   0.471  0.0655 -0.6846  0.0083
  392MOL0     C51640  11.380   9.424   0.587  1.6614 -0.0928 -0.1776
  392MOL0     C51641  11.456   9.313   0.651  0.7410 -0.2835 -0.2128
  392MOL0     O51642  11.390   9.230   0.727 -0.2536  0.3961  0.0554
  392MOL0     C51643  11.450   9.121   0.787  0.3479  0.3984  1.1153
  392MOL0     C51644  11.473   9.000   0.717  0.4039 -0.1190 -0.0920
  392MOL0     C51645  11.531   8.885   0.777  0.8249 -0.2690  0.3570
  392MOL0     C51646  11.565   8.893   0.910  0.5565  0.1655 -0.2165
  392MOL0     O51647  11.632   8.795   0.976 -0.7988 -0.0574  0.1274
  392MOL0     C51648  11.769   8.817   1.025  0.3425  0.1539 -1.0865
  392MOL0     C51649  11.778   8.764   1.176 -0.5730  0.7902 -0.8926
  392MOL0     C51650  11.913   8.760   1.240 -0.2893 -0.2500  0.3178
  392MOL0     C51651  11.910   8.754   1.392 -0.1879  0.3029 -0.8282
  392MOL0     C51652  12.050   8.733   1.452  0.5045  0.5948  0.1375
  392MOL0     C51653  12.147   8.844   1.414  0.3314  0.3037 -0.7961
  392MOL0     C51654  12.289   8.834   1.477 -0.5076  0.7742  0.3775
  392MOL0     C51655  12.344   8.696   1.466 -0.1717 -0.7083 -0.5051
  392MOL0    Cl51656  12.494   8.671   1.537 -0.0758 -0.5783 -0.4461
  392MOL0     C51657  11.525   9.007   0.978 -0.8011 -0.2587  0.1560
  392MOL0     C51658  11.466   9.123   0.926  0.2990  0.8880  0.4999
  392MOL0     O51659  11.575   9.298   0.615  0.4655  0.5595 -0.2250
  392MOL0     C51660  11.262   9.469   0.646 -0.1493 -0.7152 -0.2072
  392MOL0     C51661  11.186   9.577   0.605  0.1747 -0.1706 -0.9949
  392MOL0     N51662  11.259   9.956  -0.142  0.3981  0.0945 -0.5741
  392MOL0     N51663  11.247  10.031  -0.241 -0.9652 -0.0029 -0.1067
  392MOL0     C51664  10.797  10.428   0.089  0.3313 -0.2037 -0.2553
  392MOL0     C51665  10.800  10.311   0.153  0.6614  0.6855 -0.1303
  392MOL0     C51666  10.764   9.887   0.301  0.4759 -1.0668  1.0514
  392MOL0     C51667  10.673   9.834   0.215 -0.7011  0.2702  0.6138
  392MOL0     C51668  10.648   9.701   0.228 -0.6047 -0.1191  0.0885
  392MOL0     C51669  10.691   9.619   0.339 -0.5465 -0.1258 -0.5561
  392MOL0     O51670  10.655   9.485   0.336  0.3512 -0.7278  0.5272
  392MOL0     C51671  10.714   9.402   0.431 -0.5713  0.1863  0.0145
  392MOL0     C51672  10.675   9.258   0.408  0.2184 -1.2229 -0.1741
  392MOL0     C51673  10.749   9.153   0.481 -0.0050  0.3841  0.0112
  392MOL0     C51674  10.739   9.140   0.631  0.0112 -0.5803 -0.6690
  392MOL0     C51675  10.805   9.022   0.692 -0.3239 -0.3567  0.2595
  392MOL0     C51676  10.848   8.924   0.750  0.2509 -1.0064  0.3636
  392MOL0     C51677  10.775   9.682   0.433 -0.8054  0.3379  0.4393
  392MOL0     C51678  10.823   9.815   0.406 -0.8361 -0.4818 -0.0295
  392MOL0     H51679  10.470  10.242   0.190  1.2534 -1.9992  1.1356
  392MOL0     H51680  10.461  10.471   0.091  0.6496 -0.9413 -2.0553
  392MOL0     H51681  10.856  10.689   0.084 -2.0057 -0.7967  2.4538
  392MOL0     H51682  10.707  10.776   0.102  2.5992  0.5950  0.9073
  392MOL0     H51683  10.861  10.889  -0.049  0.2959 -0.6083  0.5320
  392MOL0     H51684  10.723  10.817  -0.141  0.6263 -0.6602  0.1405
  392MOL0     H51685  11.006  10.730  -0.078 -1.0600  0.1222  1.4696
  392MOL0     H51686  10.969  10.812  -0.230  0.5466  2.2749  3.0629
  392MOL0     H51687  10.908  10.532  -0.157 -2.2393  3.3555  2.8177
  392MOL0     H51688  10.835  10.593  -0.298  1.1447 -1.1782 -0.1812
  392MOL0     H51689  11.141  10.582  -0.268 -0.0786  0.1349 -1.0867
  392MOL0     H51690  11.053  10.634  -0.407  4.8647  0.7950  0.7432
  392MOL0     H51691  11.096  10.417  -0.454  1.0983  1.0484  1.4308
  392MOL0     H51692  10.922  10.416  -0.421 -0.8937 -3.6002  0.0415
  392MOL0     H51693  11.123  10.353  -0.197  1.4975 -2.1532  0.2809
  392MOL0     H51694  10.960  10.294  -0.204 -0.1979  1.7315 -0.1722
  392MOL0     H51695  11.188  10.214  -0.404  0.5669  0.1749 -0.0662
  392MOL0     H51696  11.024  10.168  -0.408  1.1686 -0.5590  0.2902
  392MOL0     H51697  10.946  10.052  -0.134 -0.6922  0.6064  0.5792
  392MOL0     H51698  10.986   9.895   0.061  0.5163 -4.5505  1.8144
  392MOL0     H51699  11.140   9.976   0.132  1.9473  0.3660 -1.5068
  392MOL0     H51700  11.244   9.775   0.066 -0.0787  3.7041  0.4780
  392MOL0     H51701  11.096   9.709  -0.008 -1.3495 -0.0365  0.1340
  392MOL0     H51702  10.982   9.721   0.230 -0.5934  1.7130 -0.6201
  392MOL0     H51703  11.119   9.612   0.225 -0.9686 -0.3299  0.7062
  392MOL0     H51704  11.117   9.902   0.343 -0.7613  0.2615 -0.0301
  392MOL0     H51705  11.266   9.809   0.313  0.8997  1.5232  1.4424
  392MOL0     H51706  11.378   9.639   0.327 -0.3108 -3.5237 -1.8652
  392MOL0     H51707  11.502   9.443   0.413 -0.1551  2.3311 -2.7697
  392MOL0     H51708  11.458   8.999   0.610 -0.9182 -0.8979  0.0717
  392MOL0     H51709  11.543   8.793   0.719 -1.6270  0.3143 -1.2245
  392MOL0     H51710  11.803   8.921   1.018  1.6860 -0.3490 -3.0580
  392MOL0     H51711  11.835   8.765   0.954  3.2251  1.3156  0.5774
  392MOL0     H51712  11.739   8.662   1.185 -0.2173  0.5032 -2.3559
  392MOL0     H51713  11.713   8.826   1.238  0.5492 -0.6407  1.8919
  392MOL0     H51714  11.970   8.844   1.198 -1.9682  2.3906  2.9321
  392MOL0     H51715  11.958   8.667   1.204 -1.0209 -0.3314 -0.4385
  392MOL0     H51716  11.861   8.838   1.441  1.4404 -0.4453  2.3392
  392MOL0     H51717  11.853   8.664   1.420 -0.1809  0.6675  0.4018
  392MOL0     H51718  12.089   8.635   1.423 -1.3541  0.1277 -0.9645
  392MOL0     H51719  12.031   8.721   1.560 -2.5970 -2.7610 -0.5718
  392MOL0     H51720  12.093   8.937   1.436  0.1737 -0.1047  0.6535
  392MOL0     H51721  12.156   8.844   1.305 -0.0304 -0.0519 -0.8309
  392MOL0     H51722  12.353   8.904   1.420  0.2692 -0.0303  0.2428
  392MOL0     H51723  12.278   8.862   1.582 -1.1521 -0.9957  0.8130
  392MOL0     H51724  12.355   8.663   1.363  1.3850 -0.0636 -0.5695
  392MOL0     H51725  12.274   8.635   1.524 -2.7095  1.8556 -0.5991
  392MOL0     H51726  11.547   9.008   1.084  2.5478  0.4289 -0.4385
  392MOL0     H51727  11.450   9.213   0.985  0.0987  4.9647 -4.9618
  392MOL0     H51728  11.223   9.407   0.726  2.5950 -0.3259  1.5557
  392MOL0     H51729  11.088   9.600   0.644 -0.5322  1.4373 -3.5298
  392MOL0     H51730  10.889  10.467   0.047  0.1849  0.3899 -0.0398
  392MOL0     H51731  10.898  10.265   0.158  0.5289  0.0780 -2.1727
  392MOL0     H51732  10.637   9.893   0.132  2.2957  0.7318 -0.5004
  392MOL0     H51733  10.584   9.660   0.150  0.3883  2.1397 -2.0729
  392MOL0     H51734  10.697   9.436   0.534  0.4753  2.5883 -0.5259
  392MOL0     H51735  10.823   9.411   0.429 -0.6649  1.5827  0.1961
  392MOL0     H51736  10.567   9.249   0.423  0.3367 -1.3837  0.6185
  392MOL0     H51737  10.682   9.229   0.303  0.1831  0.3564 -0.6404
  392MOL0     H51738  10.856   9.175   0.471  1.0892 -2.5241  3.1524
  392MOL0     H51739  10.729   9.053   0.440 -1.6654 -1.3031  4.3063
  392MOL0     H51740  10.754   9.235   0.683 -1.2245 -1.7823  2.0871
  392MOL0     H51741  10.633   9.126   0.654 -0.0354  3.4203  2.6808
  392MOL0     H51742  10.902   8.841   0.793  0.7276 -2.1571 -2.2608
  392MOL0     H51743  10.816   9.632   0.520  1.2024 -1.0278 -1.2121
  392MOL0     H51744  10.895   9.873   0.464 -1.1550  0.8306 -0.8877
  393MOL0     O51745   3.806   3.727   3.028 -0.3760  0.6267  0.8899
  393MOL0     C51746   3.759   3.630   3.085 -0.1131 -0.5962 -0.5649
  393MOL0     O51747   3.757   3.504   3.047 -0.4798  0.1689 -0.1871
  393MOL0     C51748   3.794   3.477   2.916 -0.0286  0.2832  0.6723
  393MOL0     C51749   3.913   3.521   2.850  0.1177  0.1106 -0.6218
  393MOL0     C51750   3.968   3.471   2.736  0.5183  0.7994  0.4278
  393MOL0     C51751   3.906   3.355   2.675  0.6193 -0.4888  0.1048
  393MOL0     O51752   3.951   3.291   2.562  0.3983 -0.1082 -0.2870
  393MOL0     C51753   3.905   3.352   2.439 -0.2772 -0.4263  0.0574
  393MOL0     C51754   3.965   3.277   2.321 -0.4449  1.3452 -0.8199
  393MOL0     C51755   3.944   3.352   2.190  0.2947 -0.4444  0.4101
  393MOL0     C51756   4.027   3.296   2.079  0.2133 -0.1200 -0.0987
  393MOL0     C51757   4.147   3.365   2.026 -0.1389  0.3979 -0.5261
  393MOL0     C51758   4.164   3.319   1.872  0.2239  0.0850  0.2781
  393MOL0     C51759   4.290   3.382   1.814 -0.3980 -1.0639  0.4482
  393MOL0     C51760   4.316   3.344   1.670 -0.9851 -0.0708  0.5343
  393MOL0     N51761   4.367   3.200   1.670  0.3438  0.5095  0.7144
  393MOL0     C51762   4.478   3.149   1.728  1.1600 -0.7528 -0.3128
  393MOL0     C51763   4.479   3.019   1.691  0.6524  0.0485  0.2343
  393MOL0     C51764   4.582   2.912   1.748 -0.3175 -0.1028 -0.4857
  393MOL0     C51765   4.526   2.834   1.863  0.2460  0.2027  0.2038
  393MOL0     C51766   4.398   2.756   1.812  0.4009  0.1837 -0.4747
  393MOL0     C51767   4.367   2.658   1.931 -0.1956 -0.0568 -0.1759
  393MOL0     O51768   4.240   2.593   1.919 -0.0118 -0.1252 -0.2030
  393MOL0     C51769   4.181   2.541   2.035  0.3052  0.1042  0.2364
  393MOL0     C51770   4.060   2.485   2.006  0.1736 -0.9134 -0.4938
  393MOL0     C51771   3.982   2.422   2.099  0.2511 -1.1982  0.5563
  393MOL0     C51772   4.022   2.416   2.232  0.3216  0.1259  1.3162
  393MOL0     C51773   3.941   2.348   2.329  0.2369  0.1017  1.1031
  393MOL0     O51774   3.856   2.261   2.273 -0.8106 -0.1608 -0.1654
  393MOL0     C51775   3.781   2.177   2.357 -0.3143  0.2113  0.3992
  393MOL0     C51776   3.657   2.219   2.379 -0.0555  0.0344  0.0297
  393MOL0     C51777   3.570   2.149   2.467  0.0408  0.2221  0.2943
  393MOL0     C51778   3.618   2.035   2.537  0.2276  0.0147 -0.7612
  393MOL0     O51779   3.526   1.981   2.625  0.5757  0.2321  0.3819
  393MOL0     C51780   3.539   1.842   2.678 -0.6958  1.4880 -0.2972
  393MOL0     C51781   3.401   1.774   2.685  0.0177  0.0708 -0.2145
  393MOL0     C51782   3.400   1.629   2.735  0.1794  0.1662 -0.6805
  393MOL0     C51783   3.497   1.532   2.677 -0.3112  0.6083  0.4359
  393MOL0     C51784   3.504   1.405   2.770  0.4608  0.4788  0.7782
  393MOL0     C51785   3.578   1.422   2.903  0.1918  0.0657 -0.7539
  393MOL0     C51786   3.587   1.310   2.993  0.2602 -0.0652 -0.4647
  393MOL0     C51787   3.667   1.344   3.119  0.9055  0.0014  0.0916
  393MOL0    Cl51788   3.847   1.295   3.093 -0.3099 -0.0435  0.1552
  393MOL0     C51789   3.748   1.988   2.507  0.5710  0.2552 -0.9118
  393MOL0     C51790   3.827   2.066   2.417  0.6304  0.4478  0.0517
  393MOL0     O51791   3.947   2.374   2.445 -1.2146 -0.8586 -0.2721
  393MOL0     C51792   4.139   2.479   2.264  0.1751 -0.0569 -0.3311
  393MOL0     C51793   4.225   2.537   2.170  0.6381  0.0694  0.0045
  393MOL0     N51794   4.368   2.987   1.613  0.2471  0.3719 -0.0266
  393MOL0     N51795   4.303   3.100   1.605  0.3285  0.6172  0.1704
  393MOL0     C51796   3.786   3.314   2.741  0.3978 -0.1430 -0.3695
  393MOL0     C51797   3.728   3.373   2.853 -0.3178  0.1901 -0.6447
  393MOL0     C51798   3.700   3.657   3.218 -1.1181  0.1172 -0.1258
  393MOL0     C51799   3.740   3.771   3.292  1.1767  0.0212  0.9477
  393MOL0     C51800   3.669   3.816   3.405  0.8591  0.1587 -0.2607
  393MOL0     C51801   3.578   3.722   3.459 -0.0795 -0.0517  0.3424
  393MOL0     O51802   3.486   3.748   3.559 -0.5190 -0.8971  0.2363
  393MOL0     C51803   3.472   3.889   3.582 -0.3563  0.2380 -0.5176
  393MOL0     C51804   3.372   3.913   3.700 -0.6964  0.4696 -0.5609
  393MOL0     C51805   3.247   3.926   3.627  0.1065  0.3757  0.1462
  393MOL0     C51806   3.223   4.074   3.582  0.1034  0.9880 -1.1916
  393MOL0     C51807   3.076   4.082   3.555 -0.8211  0.2954 -0.6598
  393MOL0     C51808   2.964   4.099   3.513  0.0090  1.2221  0.3736
  393MOL0     C51809   3.547   3.602   3.392 -0.3316  0.1062 -0.2289
  393MOL0     C51810   3.608   3.567   3.268 -0.0380  1.2881 -0.5573
  393MOL0     H51811   3.966   3.608   2.888  0.9606  0.5341 -2.6139
  393MOL0     H51812   4.062   3.518   2.710  0.1072  0.8442 -1.0712
  393MOL0     H51813   3.924   3.459   2.433  0.4913 -0.6110 -1.1888
  393MOL0     H51814   3.795   3.350   2.444 -0.2178 -0.4227  2.7346
  393MOL0     H51815   3.921   3.177   2.316 -2.3664  2.1851 -1.4697
  393MOL0     H51816   4.070   3.293   2.347 -1.5127  2.0992  3.9627
  393MOL0     H51817   3.986   3.450   2.216 -2.6205  0.0884  3.9199
  393MOL0     H51818   3.841   3.371   2.158 -0.9923 -2.8569  2.7337
  393MOL0     H51819   4.059   3.193   2.099 -1.6998 -0.5225  1.0934
  393MOL0     H51820   3.952   3.300   1.999  0.1725  2.5358 -0.0173
  393MOL0     H51821   4.235   3.327   2.080  2.1673  3.7140 -1.5949
  393MOL0     H51822   4.138   3.473   2.033  2.0484  0.5463  1.1706
  393MOL0     H51823   4.083   3.369   1.819 -1.1527 -2.4584 -0.1553
  393MOL0     H51824   4.145   3.212   1.862  0.8728 -0.3822  3.0696
  393MOL0     H51825   4.267   3.489   1.817  1.0432 -0.7441  2.2534
  393MOL0     H51826   4.385   3.368   1.868  2.2890  0.8591 -3.3134
  393MOL0     H51827   4.399   3.403   1.631  0.1679 -2.5606 -1.0318
  393MOL0     H51828   4.231   3.351   1.601  0.2248  2.1683 -0.8345
  393MOL0     H51829   4.533   3.205   1.804  0.6673 -2.2776  1.2294
  393MOL0     H51830   4.664   2.974   1.782 -1.6073  0.0770  2.6256
  393MOL0     H51831   4.618   2.849   1.666 -0.7782  0.6699 -1.2949
  393MOL0     H51832   4.499   2.899   1.947 -0.4762 -0.2434  0.3316
  393MOL0     H51833   4.584   2.762   1.921 -1.7663 -0.0856  2.0006
  393MOL0     H51834   4.321   2.833   1.807  0.5957  0.8428  3.4559
  393MOL0     H51835   4.402   2.709   1.714  1.3188 -2.5849  0.7686
  393MOL0     H51836   4.374   2.704   2.030 -4.4174 -1.8530  1.1988
  393MOL0     H51837   4.438   2.576   1.925 -1.7913 -1.3846 -2.6671
  393MOL0     H51838   4.027   2.471   1.903 -1.8293 -0.5933  0.0518
  393MOL0     H51839   3.893   2.365   2.074 -1.1687  0.4376  1.7068
  393MOL0     H51840   3.612   2.303   2.328  0.6697  2.1314  2.6082
  393MOL0     H51841   3.470   2.189   2.478 -1.0174 -1.9715 -0.8445
  393MOL0     H51842   3.590   1.840   2.775 -0.0494 -2.1172 -0.5642
  393MOL0     H51843   3.596   1.776   2.612 -0.6726  1.1813  0.0242
  393MOL0     H51844   3.345   1.771   2.591 -0.2220 -1.3992 -0.0599
  393MOL0     H51845   3.340   1.836   2.752 -1.5064 -3.0108  1.5355
  393MOL0     H51846   3.304   1.578   2.727  0.8328 -1.0915 -0.7747
  393MOL0     H51847   3.407   1.641   2.844  0.8171  1.3365 -0.8303
  393MOL0     H51848   3.447   1.502   2.584 -0.9063  1.2557  0.5437
  393MOL0     H51849   3.598   1.563   2.647 -0.0793  0.7796  1.3754
  393MOL0     H51850   3.534   1.315   2.713  0.3213  0.6245  0.4710
  393MOL0     H51851   3.406   1.385   2.813  0.7171  3.2101  2.8191
  393MOL0     H51852   3.522   1.501   2.955 -0.3161  0.2944 -1.6192
  393MOL0     H51853   3.681   1.456   2.895  0.8631 -1.1152  1.9659
  393MOL0     H51854   3.489   1.287   3.035 -0.5435  3.8800  0.1300
  393MOL0     H51855   3.631   1.225   2.939 -0.1250  0.1310 -1.0981
  393MOL0     H51856   3.623   1.284   3.199 -2.0942  1.5078 -0.3247
  393MOL0     H51857   3.661   1.449   3.146  1.8320  0.3456 -0.9692
  393MOL0     H51858   3.787   1.910   2.571  1.7933  1.9423  0.4877
  393MOL0     H51859   3.929   2.035   2.396 -0.6467 -2.3357 -2.8997
  393MOL0     H51860   4.170   2.452   2.365 -1.1196  5.4220  1.9212
  393MOL0     H51861   4.327   2.567   2.193  1.7886 -3.6335  0.2990
  393MOL0     H51862   3.735   3.224   2.710 -0.1122 -0.5813  1.6358
  393MOL0     H51863   3.635   3.333   2.891 -0.9662  1.6024 -0.6689
  393MOL0     H51864   3.810   3.840   3.247  1.2438 -0.8170 -0.3053
  393MOL0     H51865   3.686   3.914   3.448  1.4976 -0.2605  0.4567
  393MOL0     H51866   3.455   3.940   3.487  2.7236  3.6440  0.5140
  393MOL0     H51867   3.566   3.931   3.618 -1.3297  1.3083  0.8881
  393MOL0     H51868   3.384   3.835   3.776 -0.6530  1.2440  0.2406
  393MOL0     H51869   3.410   4.004   3.748 -0.4613 -0.5880  1.3767
  393MOL0     H51870   3.163   3.897   3.692 -0.5026 -1.2958 -1.3127
  393MOL0     H51871   3.237   3.852   3.547  1.5427  0.3923 -0.0739
  393MOL0     H51872   3.249   4.139   3.666  0.6428 -0.2799 -0.3433
  393MOL0     H51873   3.274   4.099   3.489  4.1848  1.0570  0.8656
  393MOL0     H51874   2.869   4.116   3.466 -0.5337 -0.0764  0.9220
  393MOL0     H51875   3.469   3.543   3.439  1.6329 -1.8776  0.7453
  393MOL0     H51876   3.578   3.467   3.237  1.0218 -0.0520  2.3650
  394MOL0     O51877   5.729   8.070   3.800  0.6272 -0.5661 -0.5771
  394MOL0     C51878   5.837   8.120   3.773 -0.1926  0.3420 -0.2589
  394MOL0     O51879   5.950   8.095   3.844 -0.3702 -0.6592 -0.0240
  394MOL0     C51880   5.968   8.016   3.957 -0.1875 -0.0224  0.5883
  394MOL0     C51881   5.875   7.929   4.017  0.3172  0.3733 -0.0529
  394MOL0     C51882   5.916   7.827   4.106 -0.3474  0.5897 -0.2934
  394MOL0     C51883   6.048   7.838   4.160 -0.3409 -0.1190  0.0760
  394MOL0     O51884   6.087   7.754   4.263  0.7404  0.2826 -0.2735
  394MOL0     C51885   6.104   7.608   4.234  0.2700 -1.0252 -0.9592
  394MOL0     C51886   6.043   7.523   4.345  0.2503  0.9679  1.0241
  394MOL0     C51887   5.893   7.509   4.340 -0.3903  0.2469  0.7558
  394MOL0     C51888   5.829   7.373   4.396  0.3772  0.3547  0.1116
  394MOL0     C51889   5.683   7.404   4.410  0.4185 -0.0723 -0.7316
  394MOL0     C51890   5.611   7.281   4.454 -0.6307  0.4345 -0.3988
  394MOL0     C51891   5.464   7.324   4.462  0.4379  0.6568 -0.0824
  394MOL0     C51892   5.381   7.196   4.489  0.7770 -1.1490 -0.1118
  394MOL0     N51893   5.398   7.087   4.399 -0.0854  0.6254  0.1351
  394MOL0     C51894   5.403   7.092   4.262 -0.3033 -0.2119  0.0227
  394MOL0     C51895   5.479   6.981   4.223  0.4591  0.1656 -0.3066
  394MOL0     C51896   5.536   6.941   4.089 -0.6498  0.2417  0.3724
  394MOL0     C51897   5.571   7.063   4.005 -0.3001  0.4683  0.5617
  394MOL0     C51898   5.658   7.025   3.889  0.6243 -0.1806  0.4299
  394MOL0     C51899   5.721   7.149   3.819 -0.5260 -0.5686 -0.3102
  394MOL0     O51900   5.608   7.227   3.769  0.3198  0.2571  1.1390
  394MOL0     C51901   5.611   7.295   3.645 -0.8291  0.5625 -0.6190
  394MOL0     C51902   5.555   7.427   3.629  1.2684  0.2877 -0.0752
  394MOL0     C51903   5.559   7.510   3.525 -0.7187 -0.4058  1.3222
  394MOL0     C51904   5.625   7.458   3.406 -0.1930  0.6765  0.2843
  394MOL0     C51905   5.633   7.539   3.282 -0.2494 -0.3996 -0.8685
  394MOL0     O51906   5.710   7.500   3.177 -0.1760 -0.4934 -0.3024
  394MOL0     C51907   5.709   7.549   3.053  0.4609  0.2441  0.5806
  394MOL0     C51908   5.811   7.517   2.969 -0.4691  0.3217  0.6620
  394MOL0     C51909   5.808   7.556   2.839 -0.2851 -0.0208 -0.8956
  394MOL0     C51910   5.709   7.636   2.785 -0.0314  0.4991  1.2680
  394MOL0     O51911   5.712   7.650   2.644 -0.5527  0.2030 -0.2102
  394MOL0     C51912   5.809   7.736   2.590 -0.0456 -1.0467 -0.1921
  394MOL0     C51913   5.776   7.891   2.577  0.5369  0.0144 -0.4084
  394MOL0     C51914   5.633   7.925   2.532  0.2146  0.3190 -0.4282
  394MOL0     C51915   5.604   8.075   2.529  0.6371 -0.1675  0.2604
  394MOL0     C51916   5.446   8.105   2.513 -0.2072  0.0943 -0.2052
  394MOL0     C51917   5.429   8.249   2.504  0.1550 -0.2578 -0.5419
  394MOL0     C51918   5.439   8.326   2.366 -0.0390 -0.4170 -0.1054
  394MOL0     C51919   5.308   8.318   2.300  0.2037 -0.5450  0.1758
  394MOL0    Cl51920   5.315   8.394   2.141 -0.1272  0.4787 -0.3369
  394MOL0     C51921   5.602   7.664   2.872  0.7288  0.9844 -0.5763
  394MOL0     C51922   5.604   7.628   3.004  0.5491  0.4374  0.2392
  394MOL0     O51923   5.567   7.642   3.281  0.3683 -1.2034 -0.1419
  394MOL0     C51924   5.697   7.335   3.421 -0.3610  0.3044  0.8459
  394MOL0     C51925   5.690   7.252   3.538 -0.4991 -0.5478  0.8723
  394MOL0     N51926   5.521   6.919   4.332 -0.4474 -0.1226  0.2885
  394MOL0     N51927   5.481   6.982   4.434 -0.5380  0.1460  0.7120
  394MOL0     C51928   6.137   7.921   4.094 -0.0835  0.6652  0.6129
  394MOL0     C51929   6.101   8.008   3.998  0.0440  1.2583 -0.2830
  394MOL0     C51930   5.841   8.209   3.650  0.9343  0.0079  0.1804
  394MOL0     C51931   5.725   8.224   3.569  0.1495 -0.2433 -0.0253
  394MOL0     C51932   5.716   8.316   3.474 -0.9028 -0.5291  0.6759
  394MOL0     C51933   5.822   8.408   3.441  0.2557 -0.4226  0.6543
  394MOL0     O51934   5.801   8.505   3.348 -0.6077  0.1789  0.9687
  394MOL0     C51935   5.910   8.588   3.314 -1.0542 -0.0068  0.1239
  394MOL0     C51936   5.836   8.683   3.217  0.6256  0.0369 -0.2877
  394MOL0     C51937   5.790   8.611   3.085  0.4466  0.3332 -0.6216
  394MOL0     C51938   5.714   8.699   2.983 -0.2506  1.2324 -0.2386
  394MOL0     C51939   5.634   8.616   2.898  0.2660 -0.3328  0.0701
  394MOL0     C51940   5.567   8.539   2.828 -0.9533 -0.2053  0.3383
  394MOL0     C51941   5.945   8.387   3.509 -0.4331  0.5052  0.3709
  394MOL0     C51942   5.953   8.296   3.617 -0.3909 -0.1890  0.0592
  394MOL0     H51943   5.769   7.939   3.998  0.2246 -0.5610 -0.0837
  394MOL0     H51944   5.845   7.756   4.147  0.8461  1.0063  2.7792
  394MOL0     H51945   6.212   7.591   4.229  0.3404 -1.2133  0.8433
  394MOL0     H51946   6.057   7.575   4.141 -0.6395  0.3914 -1.0290
  394MOL0     H51947   6.082   7.568   4.437 -1.1256 -0.7608  2.5228
  394MOL0     H51948   6.098   7.428   4.344 -0.3237  0.6345  1.2372
  394MOL0     H51949   5.856   7.518   4.238 -0.1073 -0.0431  0.6236
  394MOL0     H51950   5.859   7.597   4.395 -2.1425 -1.4023  2.4474
  394MOL0     H51951   5.838   7.302   4.314  1.9946 -1.4425  1.7217
  394MOL0     H51952   5.866   7.343   4.495 -0.3066 -1.1901 -0.0808
  394MOL0     H51953   5.639   7.439   4.316 -0.3948 -0.2578 -0.4196
  394MOL0     H51954   5.679   7.475   4.493  4.3116  2.0697 -2.1168
  394MOL0     H51955   5.666   7.246   4.541  2.3095  1.1762 -1.8341
  394MOL0     H51956   5.639   7.204   4.381  0.7140  2.7205 -2.4049
  394MOL0     H51957   5.451   7.392   4.547 -3.1646 -1.4586  1.2974
  394MOL0     H51958   5.436   7.367   4.366  0.3061  0.3716 -0.1722
  394MOL0     H51959   5.272   7.205   4.481  0.4202 -2.9819  1.7441
  394MOL0     H51960   5.418   7.177   4.591 -0.8115  0.2699  0.7863
  394MOL0     H51961   5.357   7.163   4.194  0.3725  0.9881  0.7927
  394MOL0     H51962   5.466   6.872   4.043 -1.0021  0.6022  0.3626
  394MOL0     H51963   5.633   6.895   4.113 -0.4377  0.4784 -0.0172
  394MOL0     H51964   5.626   7.118   4.082 -0.7302 -1.0188  1.9673
  394MOL0     H51965   5.474   7.108   3.980  0.3950  2.3300  1.0144
  394MOL0     H51966   5.749   6.971   3.918  1.1264  0.5333  0.2072
  394MOL0     H51967   5.605   6.962   3.816  0.4543 -1.2820  1.4810
  394MOL0     H51968   5.798   7.132   3.744  1.0667  1.0268  0.8694
  394MOL0     H51969   5.771   7.212   3.893  0.3365  1.5079 -2.5339
  394MOL0     H51970   5.492   7.466   3.708  1.4885  0.3106  0.0876
  394MOL0     H51971   5.527   7.614   3.533 -1.2772 -0.5539  1.0584
  394MOL0     H51972   5.893   7.453   2.999  1.0835 -0.5797 -4.4566
  394MOL0     H51973   5.900   7.533   2.786  0.9971  0.5810  0.9617
  394MOL0     H51974   5.821   7.703   2.487 -0.0539 -2.0083  0.1038
  394MOL0     H51975   5.907   7.722   2.637  1.0781 -0.1552 -2.1651
  394MOL0     H51976   5.853   7.940   2.515 -2.3038  0.5135 -3.8768
  394MOL0     H51977   5.781   7.951   2.668 -1.3742 -0.1658 -0.1488
  394MOL0     H51978   5.563   7.881   2.604 -0.2289  1.1893 -0.3109
  394MOL0     H51979   5.620   7.874   2.436  0.0774  1.4154 -1.0051
  394MOL0     H51980   5.631   8.125   2.622 -0.9523  0.0244  0.6345
  394MOL0     H51981   5.667   8.114   2.447  1.3086 -2.1815 -0.2358
  394MOL0     H51982   5.401   8.066   2.605  1.1364 -1.6523 -0.2326
  394MOL0     H51983   5.406   8.055   2.424 -0.4059 -0.4757  0.1957
  394MOL0     H51984   5.495   8.302   2.573 -0.1516  0.3115 -0.6700
  394MOL0     H51985   5.330   8.257   2.548 -0.8307  1.5662 -2.8279
  394MOL0     H51986   5.461   8.432   2.380 -0.5469 -0.5750  2.4291
  394MOL0     H51987   5.514   8.287   2.297 -1.8872  1.3780 -3.3806
  394MOL0     H51988   5.233   8.346   2.374  2.2669 -0.8249  2.5140
  394MOL0     H51989   5.300   8.211   2.276 -1.0472 -0.7640  1.4231
  394MOL0     H51990   5.527   7.728   2.826  2.5072  3.7505  0.0820
  394MOL0     H51991   5.519   7.665   3.061  0.4420  0.4932  0.0430
  394MOL0     H51992   5.737   7.284   3.334 -1.8820 -0.6266  0.6593
  394MOL0     H51993   5.737   7.154   3.537 -0.2965 -0.4852 -1.6399
  394MOL0     H51994   6.243   7.921   4.121 -0.4145 -1.2086  2.1582
  394MOL0     H51995   6.176   8.074   3.958 -0.2331  0.1452 -2.8229
  394MOL0     H51996   5.638   8.162   3.592 -0.8462  0.8675 -0.7061
  394MOL0     H51997   5.633   8.329   3.405 -0.1226  0.3244 -0.1335
  394MOL0     H51998   5.987   8.530   3.262 -0.3245 -0.1491  1.3193
  394MOL0     H51999   5.949   8.654   3.392 -0.0357  1.1554 -1.3010
  394MOL0     H52000   5.757   8.735   3.271  2.1669  0.1736  1.9792
  394MOL0     H52001   5.910   8.758   3.187  0.8378 -0.8402 -2.0973
  394MOL0     H52002   5.730   8.527   3.122  1.6405 -0.6804 -0.8979
  394MOL0     H52003   5.879   8.563   3.042  2.2672  1.5684  1.5912
  394MOL0     H52004   5.642   8.749   3.049 -0.3333 -1.6075  2.0145
  394MOL0     H52005   5.776   8.774   2.933 -1.7235  1.1488 -2.3350
  394MOL0     H52006   5.526   8.468   2.759  0.6556 -0.5956 -0.2560
  394MOL0     H52007   6.031   8.454   3.516 -0.8614  1.1472 -0.4136
  394MOL0     H52008   6.047   8.301   3.671  0.6827  0.8624 -1.8028
  395MOL0     O52009   4.359   4.749   7.674  0.0736  0.6643 -0.7390
  395MOL0     C52010   4.361   4.644   7.746  0.4169 -0.5512  0.3500
  395MOL0     O52011   4.385   4.523   7.698  0.0246  0.6334  0.4257
  395MOL0     C52012   4.446   4.522   7.570 -0.1990 -0.1012 -0.6370
  395MOL0     C52013   4.380   4.568   7.455 -0.1814  0.4224 -0.8447
  395MOL0     C52014   4.437   4.594   7.330  0.0640 -0.0214 -0.2630
  395MOL0     C52015   4.570   4.549   7.315 -0.6047 -0.5479  0.1978
  395MOL0     O52016   4.637   4.566   7.193  0.7888 -0.5245  0.8354
  395MOL0     C52017   4.610   4.466   7.097  0.6546 -0.7297 -0.5824
  395MOL0     C52018   4.692   4.493   6.967  0.1331  0.5114  0.4472
  395MOL0     C52019   4.651   4.396   6.853 -0.0058 -1.2704 -0.5257
  395MOL0     C52020   4.740   4.403   6.730  0.4168 -0.3806  0.5505
  395MOL0     C52021   4.876   4.337   6.735 -0.5584 -0.9200  0.1524
  395MOL0     C52022   4.926   4.324   6.594 -0.0156 -0.9198  0.4252
  395MOL0     C52023   5.064   4.282   6.587 -0.6939  0.4665  0.3198
  395MOL0     C52024   5.092   4.200   6.460  0.4727  0.7028 -0.3233
  395MOL0     N52025   5.176   4.089   6.499  0.5455 -0.1027 -0.3684
  395MOL0     C52026   5.132   3.977   6.554 -0.0180  0.4962  0.1075
  395MOL0     C52027   5.227   3.879   6.547 -0.4552  0.1289 -0.4517
  395MOL0     C52028   5.212   3.737   6.594 -0.7795 -0.3815  0.2658
  395MOL0     C52029   5.088   3.667   6.539 -0.3347 -0.9045 -0.5816
  395MOL0     C52030   5.099   3.600   6.398 -0.1001  0.2403 -0.7049
  395MOL0     C52031   4.972   3.525   6.347 -0.2885 -0.6486 -0.4258
  395MOL0     O52032   4.873   3.630   6.344 -0.1570  0.1010 -1.1001
  395MOL0     C52033   4.887   3.728   6.244  0.9485 -0.2472  0.0299
  395MOL0     C52034   4.898   3.686   6.111 -1.4988 -1.3656  0.4259
  395MOL0     C52035   4.885   3.780   6.006  0.3036 -0.6413  0.7870
  395MOL0     C52036   4.871   3.915   6.041 -0.2667  0.4950 -0.3110
  395MOL0     C52037   4.877   4.014   5.933 -0.3257 -0.7062  0.9641
  395MOL0     O52038   4.882   3.982   5.796 -0.6543 -0.1526  0.3128
  395MOL0     C52039   4.900   4.079   5.709 -0.1169 -0.2102  0.8009
  395MOL0     C52040   4.812   4.098   5.607 -0.0058  0.3465 -1.1828
  395MOL0     C52041   4.825   4.206   5.517  0.6882  0.2906 -0.1109
  395MOL0     C52042   4.941   4.292   5.518  0.8594  0.5896 -0.0326
  395MOL0     O52043   4.964   4.389   5.419 -0.7104  0.5996  0.8383
  395MOL0     C52044   4.908   4.522   5.449  0.3732 -0.3272 -0.1022
  395MOL0     C52045   4.926   4.622   5.341 -0.2785  0.6429  0.0482
  395MOL0     C52046   4.853   4.596   5.210  0.4703  0.4700 -0.3621
  395MOL0     C52047   4.927   4.680   5.109  0.2994 -0.7319  0.2397
  395MOL0     C52048   4.856   4.682   4.973  0.0917  0.8786  0.2320
  395MOL0     C52049   4.926   4.799   4.893  0.0838 -0.1814  0.2558
  395MOL0     C52050   4.844   4.819   4.768  0.8702  0.4776  0.1743
  395MOL0     C52051   4.911   4.925   4.680  1.2114  0.2097  0.1373
  395MOL0    Cl52052   5.063   4.872   4.609 -0.0359 -0.1521 -0.0237
  395MOL0     C52053   5.035   4.263   5.621  0.0594 -0.1822 -0.2273
  395MOL0     C52054   5.011   4.159   5.715  0.2170  0.3428  0.1682
  395MOL0     O52055   4.859   4.134   5.969  0.6340  0.0800  0.2686
  395MOL0     C52056   4.854   3.952   6.175 -0.6619  0.3351  0.3488
  395MOL0     C52057   4.868   3.860   6.279  0.5529  0.4359 -0.9867
  395MOL0     N52058   5.338   3.944   6.494 -0.3431 -0.4009 -0.4044
  395MOL0     N52059   5.295   4.063   6.453 -0.3619  0.4118  0.0939
  395MOL0     C52060   4.645   4.515   7.428 -0.4281 -0.1740 -0.5531
  395MOL0     C52061   4.583   4.499   7.557 -1.0096 -0.2836  0.6311
  395MOL0     C52062   4.346   4.648   7.897 -1.0606  0.2942  0.6652
  395MOL0     C52063   4.326   4.765   7.973 -0.7218 -0.5910 -0.1572
  395MOL0     C52064   4.293   4.762   8.113  0.4676 -0.8549  0.9256
  395MOL0     C52065   4.299   4.635   8.177 -0.1555  0.1779  0.7005
  395MOL0     O52066   4.266   4.598   8.299 -0.3318  0.6121  0.0208
  395MOL0     C52067   4.198   4.689   8.390 -0.0382  1.1244 -0.6620
  395MOL0     C52068   4.151   4.610   8.514  0.4482 -0.6337  0.2466
  395MOL0     C52069   4.268   4.543   8.589  0.8783  0.4051 -0.0034
  395MOL0     C52070   4.377   4.638   8.631  0.7594 -0.4474 -0.2119
  395MOL0     C52071   4.460   4.574   8.734 -1.1220  0.3993  1.1544
  395MOL0     C52072   4.521   4.523   8.822  0.0465 -0.1685 -0.3786
  395MOL0     C52073   4.330   4.520   8.100  0.1463  1.2491  0.7813
  395MOL0     C52074   4.351   4.527   7.968 -0.5719 -0.2697 -0.1318
  395MOL0     H52075   4.276   4.599   7.447 -0.0761  0.4231 -2.7098
  395MOL0     H52076   4.366   4.624   7.253 -0.5280 -1.0374 -0.1389
  395MOL0     H52077   4.503   4.477   7.078  0.3522 -1.3899  0.6543
  395MOL0     H52078   4.618   4.360   7.122 -2.4083 -1.5619 -2.5347
  395MOL0     H52079   4.797   4.468   6.981  0.6977  1.7316 -1.2017
  395MOL0     H52080   4.682   4.596   6.933  0.4085  0.2584 -0.4354
  395MOL0     H52081   4.549   4.423   6.824 -0.8103 -4.0743 -0.5951
  395MOL0     H52082   4.650   4.294   6.893  2.5083 -0.7866  0.9643
  395MOL0     H52083   4.681   4.339   6.663 -1.6029 -1.4872  3.2122
  395MOL0     H52084   4.751   4.506   6.696 -2.0853 -0.7674 -1.7803
  395MOL0     H52085   4.863   4.236   6.774  0.0239 -1.4745 -1.0425
  395MOL0     H52086   4.940   4.388   6.808 -2.2799 -0.0160  1.0777
  395MOL0     H52087   4.923   4.418   6.539 -1.1980  0.7852  3.2270
  395MOL0     H52088   4.863   4.241   6.559 -0.1612 -1.3131  1.5569
  395MOL0     H52089   5.125   4.373   6.583  0.5403 -0.3774 -2.6601
  395MOL0     H52090   5.102   4.234   6.678 -2.3471 -0.3523  0.6066
  395MOL0     H52091   5.154   4.258   6.391 -0.5046  0.7638 -1.1794
  395MOL0     H52092   5.007   4.155   6.408  0.6634  0.2986 -0.2811
  395MOL0     H52093   5.036   3.976   6.604 -0.2077  2.5232 -0.1193
  395MOL0     H52094   5.214   3.736   6.703 -1.4475  2.1142  0.3651
  395MOL0     H52095   5.300   3.689   6.551  0.4035  1.1725  0.8702
  395MOL0     H52096   5.004   3.737   6.539 -0.2180 -0.6980  1.6078
  395MOL0     H52097   5.057   3.591   6.611 -2.7221  1.0958  0.6764
  395MOL0     H52098   5.128   3.683   6.332  3.0395  0.0495  0.2763
  395MOL0     H52099   5.180   3.528   6.412  2.6726  3.7675  3.8710
  395MOL0     H52100   4.962   3.450   6.426 -1.6672  3.5741  3.8697
  395MOL0     H52101   4.987   3.478   6.249 -0.2658 -0.7131 -0.3913
  395MOL0     H52102   4.899   3.582   6.080 -2.3513 -0.8401 -1.5024
  395MOL0     H52103   4.892   3.740   5.906 -0.3115 -0.6512  0.7456
  395MOL0     H52104   4.721   4.039   5.598  0.4514 -0.5284 -0.3028
  395MOL0     H52105   4.741   4.223   5.451  0.7634  1.3353  0.0526
  395MOL0     H52106   4.941   4.555   5.547 -3.5472 -0.6868  1.5355
  395MOL0     H52107   4.800   4.514   5.465  0.4601  0.3467  0.8825
  395MOL0     H52108   5.032   4.643   5.325  0.4500 -1.3032  1.7723
  395MOL0     H52109   4.876   4.718   5.355 -0.1835  0.7761 -0.5039
  395MOL0     H52110   4.745   4.616   5.217  0.4722  1.1977 -1.9555
  395MOL0     H52111   4.858   4.492   5.176  5.1132 -0.2299  1.7634
  395MOL0     H52112   4.945   4.783   5.141  1.3756 -0.8692  0.0975
  395MOL0     H52113   5.029   4.641   5.099  0.5490  0.0102 -0.1424
  395MOL0     H52114   4.750   4.710   4.972  0.0225  0.7495 -2.2774
  395MOL0     H52115   4.861   4.586   4.921  0.7205  2.0412 -2.0039
  395MOL0     H52116   5.028   4.775   4.865  1.5841  3.5414  1.8844
  395MOL0     H52117   4.935   4.897   4.940  2.1121  0.6405 -1.6711
  395MOL0     H52118   4.828   4.728   4.710  1.7879  0.9315 -0.8351
  395MOL0     H52119   4.748   4.858   4.802 -0.2007 -3.0444  1.6055
  395MOL0     H52120   4.931   5.018   4.735 -0.6274 -0.5274  2.2114
  395MOL0     H52121   4.845   4.944   4.595 -0.9928  1.3795  2.0005
  395MOL0     H52122   5.118   4.332   5.629  0.7478 -1.1404  1.5272
  395MOL0     H52123   5.098   4.130   5.772  0.4065 -1.8255 -1.1033
  395MOL0     H52124   4.841   4.056   6.204  2.8662  2.0560 -3.2967
  395MOL0     H52125   4.858   3.883   6.385 -1.9840 -2.6416 -0.4142
  395MOL0     H52126   4.752   4.502   7.416 -0.5006 -0.0545 -1.3383
  395MOL0     H52127   4.639   4.474   7.646 -2.3252 -1.2777  1.2200
  395MOL0     H52128   4.316   4.865   7.933  2.4664  0.5641  1.6356
  395MOL0     H52129   4.266   4.855   8.163 -0.6010 -0.9886  0.6144
  395MOL0     H52130   4.108   4.736   8.351 -0.5970 -1.6131 -3.0474
  395MOL0     H52131   4.270   4.766   8.416  0.3557  0.6116 -0.1998
  395MOL0     H52132   4.105   4.675   8.589 -0.4738 -0.7281 -0.2334
  395MOL0     H52133   4.075   4.539   8.480  0.5695 -0.0584 -1.3092
  395MOL0     H52134   4.306   4.468   8.520  0.3014 -1.1887  1.3473
  395MOL0     H52135   4.228   4.490   8.676  1.7259 -2.1853 -1.1140
  395MOL0     H52136   4.434   4.687   8.551  4.4269 -0.9976  1.8553
  395MOL0     H52137   4.332   4.729   8.671  0.8992 -0.3505 -0.2691
  395MOL0     H52138   4.557   4.464   8.904  2.4778  0.2832 -1.0385
  395MOL0     H52139   4.333   4.431   8.162 -0.1532  2.4156  2.5570
  395MOL0     H52140   4.372   4.432   7.920  1.0745  0.4083 -0.8164
  396MOL0     O52141   0.075   1.299   5.581 -0.1845  0.1589 -0.6569
  396MOL0     C52142   0.191   1.324   5.611 -1.7141  0.9172 -0.2301
  396MOL0     O52143   0.302   1.240   5.584 -0.2401 -0.2653 -0.9088
  396MOL0     C52144   0.283   1.107   5.541  0.1145  0.1056 -0.1065
  396MOL0     C52145   0.182   1.025   5.575  0.1666 -0.3275 -0.8003
  396MOL0     C52146   0.170   0.899   5.527 -0.9970  1.4045 -0.5180
  396MOL0     C52147   0.261   0.844   5.435 -0.1296 -0.4068  0.6700
  396MOL0     O52148   0.247   0.717   5.393 -0.6579  0.1074  0.5200
  396MOL0     C52149   0.375   0.651   5.341 -0.0820 -0.9235 -0.8648
  396MOL0     C52150   0.369   0.498   5.345  0.2247  0.2622 -0.4943
  396MOL0     C52151   0.498   0.446   5.280 -0.7212  0.7350  0.2040
  396MOL0     C52152   0.485   0.290   5.272  0.5292 -0.6766  0.1774
  396MOL0     C52153   0.616   0.225   5.232  0.4771 -0.5919  0.4282
  396MOL0     C52154   0.688   0.152   5.344 -0.2262  0.2096 -0.8137
  396MOL0     C52155   0.737   0.230   5.472 -0.2912  0.0101 -0.4876
  396MOL0     C52156   0.801   0.151   5.586  0.8380  0.7024  0.0517
  396MOL0     N52157   0.704   0.048   5.636 -0.3866  0.5797  0.2603
  396MOL0     C52158   0.743  -0.070   5.694  0.1466 -0.1878  0.7165
  396MOL0     C52159   0.616  -0.132   5.723 -0.6190  0.1500 -0.4041
  396MOL0     C52160   0.608  -0.261   5.805 -0.3379 -0.1873  0.0974
  396MOL0     C52161   0.483  -0.352   5.770 -0.3412  0.3360  0.7715
  396MOL0     C52162   0.497  -0.418   5.627 -0.1750 -0.3859 -0.2644
  396MOL0     C52163   0.361  -0.415   5.564 -0.0209  0.3080  0.0903
  396MOL0     O52164   0.298  -0.538   5.612 -0.2721 -0.0403 -0.3388
  396MOL0     C52165   0.171  -0.571   5.573  0.5630 -0.1432  0.4260
  396MOL0     C52166   0.130  -0.700   5.601 -0.7943  0.0036  0.5023
  396MOL0     C52167   0.002  -0.746   5.548 -0.4190  0.5103 -1.2220
  396MOL0     C52168  -0.085  -0.657   5.481 -0.2369 -0.0541 -0.3730
  396MOL0     C52169  -0.212  -0.694   5.419 -0.2176 -0.0645 -0.6430
  396MOL0     O52170  -0.292  -0.591   5.391  0.0179 -0.7008 -0.9304
  396MOL0     C52171  -0.396  -0.608   5.298 -0.0656 -1.4823  0.0361
  396MOL0     C52172  -0.371  -0.627   5.157  0.1591 -0.1201 -0.0748
  396MOL0     C52173  -0.481  -0.646   5.068 -0.2358  0.5829  0.3571
  396MOL0     C52174  -0.613  -0.660   5.119  0.9337 -0.4738  0.7567
  396MOL0     O52175  -0.727  -0.682   5.036 -0.7814 -1.0483 -0.5514
  396MOL0     C52176  -0.748  -0.818   5.017  0.8705 -0.1470 -0.3118
  396MOL0     C52177  -0.859  -0.858   4.923  0.1896 -1.1350 -0.0514
  396MOL0     C52178  -0.997  -0.849   4.993 -0.0191 -0.9019  0.1248
  396MOL0     C52179  -1.124  -0.851   4.907  0.2732 -0.6440  0.2007
  396MOL0     C52180  -1.117  -0.955   4.791 -0.6146 -0.0814  0.1537
  396MOL0     C52181  -1.235  -0.931   4.703  0.2688 -0.1210 -0.2343
  396MOL0     C52182  -1.250  -1.024   4.583 -0.1296  0.6203 -0.1132
  396MOL0     C52183  -1.380  -0.977   4.518 -0.1030  0.2328  0.7186
  396MOL0    Cl52184  -1.384  -1.036   4.350 -0.4744  0.0759 -0.1159
  396MOL0     C52185  -0.633  -0.632   5.258  0.5965  1.1517  0.4262
  396MOL0     C52186  -0.530  -0.615   5.344 -0.1884  0.5033  0.7323
  396MOL0     O52187  -0.234  -0.810   5.397  0.1681 -0.1794 -0.4534
  396MOL0     C52188  -0.037  -0.528   5.460  0.6414 -0.7226 -0.3260
  396MOL0     C52189   0.089  -0.478   5.507  0.5086  0.5876 -0.0104
  396MOL0     N52190   0.518  -0.065   5.663  0.7546  0.2541 -0.6317
  396MOL0     N52191   0.573   0.041   5.616  0.1000  0.4505  0.4346
  396MOL0     C52192   0.373   0.920   5.391 -0.8551  0.2286 -0.4505
  396MOL0     C52193   0.385   1.053   5.454 -0.1857  0.1757 -0.6007
  396MOL0     C52194   0.214   1.459   5.660 -0.3417  0.3396  0.4518
  396MOL0     C52195   0.122   1.531   5.732  0.0339  0.3153 -0.1356
  396MOL0     C52196   0.154   1.654   5.777  0.3030  0.3204 -0.7085
  396MOL0     C52197   0.274   1.723   5.746  0.2301 -0.2931  0.0434
  396MOL0     O52198   0.321   1.842   5.803 -1.0926  0.0861  0.7644
  396MOL0     C52199   0.244   1.911   5.897 -0.4214  0.4081 -0.1066
  396MOL0     C52200   0.334   2.021   5.961  0.2799 -0.5565 -0.7965
  396MOL0     C52201   0.253   2.100   6.059  0.3671  0.6431 -0.1569
  396MOL0     C52202   0.149   2.197   5.987 -0.7714  0.4022 -0.4252
  396MOL0     C52203   0.122   2.304   6.083 -0.1118 -0.7799 -0.7471
  396MOL0     C52204   0.100   2.400   6.160 -0.6507  0.7761  0.7663
  396MOL0     C52205   0.368   1.652   5.677  0.0915 -0.5574 -0.3244
  396MOL0     C52206   0.334   1.529   5.629 -0.6640 -0.0359  0.2135
  396MOL0     H52207   0.097   1.060   5.633  0.8065  1.2627 -0.7566
  396MOL0     H52208   0.085   0.832   5.534  0.8487 -1.2567 -1.7505
  396MOL0     H52209   0.456   0.690   5.402 -1.0039  1.5095 -1.0730
  396MOL0     H52210   0.392   0.673   5.235  1.5129 -1.2960 -0.6983
  396MOL0     H52211   0.273   0.464   5.306 -0.4658  1.2177  0.3294
  396MOL0     H52212   0.366   0.458   5.447 -2.6198 -1.9125 -1.3088
  396MOL0     H52213   0.576   0.487   5.345  0.4774  0.0801 -0.7879
  396MOL0     H52214   0.512   0.492   5.182  0.9774 -0.9577 -0.4014
  396MOL0     H52215   0.450   0.254   5.369  0.3406 -0.1925  0.2950
  396MOL0     H52216   0.409   0.270   5.196 -0.7106 -1.8451  1.6502
  396MOL0     H52217   0.687   0.299   5.194 -0.2956  1.4523  2.6527
  396MOL0     H52218   0.604   0.145   5.158 -1.8152  1.2218 -1.3339
  396MOL0     H52219   0.775   0.113   5.292 -0.1875  0.8851 -1.2747
  396MOL0     H52220   0.628   0.066   5.374  5.5751 -4.4597 -0.8184
  396MOL0     H52221   0.812   0.300   5.433  2.7861 -2.7271  0.0650
  396MOL0     H52222   0.653   0.293   5.503 -0.6311 -0.2976 -0.7816
  396MOL0     H52223   0.802   0.209   5.679 -1.0188 -1.2663  1.4112
  396MOL0     H52224   0.891   0.095   5.561 -1.9290 -3.3752 -1.9410
  396MOL0     H52225   0.847  -0.089   5.716  0.4271  1.3462  0.8559
  396MOL0     H52226   0.606  -0.243   5.913  0.5740 -2.6813  0.6077
  396MOL0     H52227   0.691  -0.333   5.797 -1.2709 -1.1337 -1.8271
  396MOL0     H52228   0.397  -0.287   5.787  1.6006  2.7650  2.0311
  396MOL0     H52229   0.478  -0.430   5.848  0.9694 -1.0659 -0.4971
  396MOL0     H52230   0.569  -0.370   5.560  0.0158  2.6364  1.9081
  396MOL0     H52231   0.525  -0.523   5.644 -0.0011 -0.3717 -0.4561
  396MOL0     H52232   0.374  -0.415   5.455 -2.9716 -2.5794 -0.4184
  396MOL0     H52233   0.304  -0.328   5.598 -2.7952 -0.8946 -1.1650
  396MOL0     H52234   0.190  -0.778   5.646  0.3027  0.1344 -0.6736
  396MOL0     H52235  -0.023  -0.851   5.563 -0.7424  0.5683 -1.3407
  396MOL0     H52236  -0.271  -0.623   5.116 -0.3254  2.1932 -1.1904
  396MOL0     H52237  -0.487  -0.656   4.960 -2.7916 -0.3384  0.4945
  396MOL0     H52238  -0.767  -0.871   5.110  1.2567 -0.5501 -0.4593
  396MOL0     H52239  -0.657  -0.855   4.969 -0.6147 -6.8333  0.9928
  396MOL0     H52240  -0.848  -0.958   4.880 -0.8015 -1.5318  0.5625
  396MOL0     H52241  -0.848  -0.781   4.847 -0.4190  0.5451  1.4731
  396MOL0     H52242  -1.005  -0.752   5.042 -0.3783  0.0107 -1.6713
  396MOL0     H52243  -0.998  -0.929   5.068 -1.6912 -1.0447 -0.0114
  396MOL0     H52244  -1.207  -0.868   4.976 -0.0986  2.1001  0.5521
  396MOL0     H52245  -1.144  -0.751   4.866  0.8536 -0.4550  0.3644
  396MOL0     H52246  -1.109  -1.053   4.839  5.1199 -0.9068 -1.6544
  396MOL0     H52247  -1.033  -0.939   4.722 -2.1646 -0.8895 -2.0547
  396MOL0     H52248  -1.220  -0.829   4.668 -0.0721 -0.2078 -0.6388
  396MOL0     H52249  -1.317  -0.943   4.774  0.1740  1.1597 -0.1047
  396MOL0     H52250  -1.165  -1.020   4.515 -0.8307  2.2763 -0.9427
  396MOL0     H52251  -1.250  -1.130   4.611 -0.1521 -0.7056 -4.4684
  396MOL0     H52252  -1.392  -0.869   4.519 -2.9420 -0.0272  1.3779
  396MOL0     H52253  -1.462  -1.010   4.581 -0.4055 -0.4068  0.0050
  396MOL0     H52254  -0.735  -0.615   5.292 -0.3189 -0.0713 -1.5393
  396MOL0     H52255  -0.541  -0.609   5.452  3.3164  0.7272  1.2184
  396MOL0     H52256  -0.106  -0.463   5.408  1.1376  0.8072  0.8174
  396MOL0     H52257   0.109  -0.375   5.481  0.8357  0.1612 -1.4919
  396MOL0     H52258   0.447   0.884   5.320  0.5229  0.9085  0.6180
  396MOL0     H52259   0.472   1.109   5.422  0.6318 -1.2766 -1.0368
  396MOL0     H52260   0.028   1.483   5.759 -0.6044  0.2791 -2.2194
  396MOL0     H52261   0.087   1.716   5.836 -1.9734 -1.4151 -1.3273
  396MOL0     H52262   0.203   1.862   5.986  1.1800  2.6617  1.9917
  396MOL0     H52263   0.168   1.966   5.840 -1.6538 -1.3703 -0.2596
  396MOL0     H52264   0.414   1.972   6.017  0.7094  0.8042 -0.1818
  396MOL0     H52265   0.393   2.088   5.898  0.9500  0.0611  0.4461
  396MOL0     H52266   0.333   2.149   6.114  1.3015 -0.4904 -0.4522
  396MOL0     H52267   0.202   2.041   6.136 -1.6213  4.8534  2.1185
  396MOL0     H52268   0.187   2.252   5.901  2.2608  1.7722  1.6088
  396MOL0     H52269   0.050   2.157   5.962 -1.8937  3.4884 -1.4622
  396MOL0     H52270   0.076   2.475   6.233  0.9138  0.3731  1.7573
  396MOL0     H52271   0.465   1.700   5.666 -0.9567  1.6556 -0.2888
  396MOL0     H52272   0.400   1.472   5.565 -0.4605  0.8679 -0.4026
  397MOL0     O52273   1.287   3.922   4.451 -0.1585  0.0048  0.7335
  397MOL0     C52274   1.234   3.971   4.550  1.1284 -0.4543  0.8541
  397MOL0     O52275   1.111   3.931   4.606  0.0195 -1.0777  0.5145
  397MOL0     C52276   1.028   3.849   4.529 -0.9859 -0.9836  1.1194
  397MOL0     C52277   0.953   3.763   4.601  0.4729  0.6261  0.8993
  397MOL0     C52278   0.871   3.673   4.534  0.5577  0.7504 -0.7862
  397MOL0     C52279   0.866   3.675   4.395 -1.0079 -1.2184  1.1383
  397MOL0     O52280   0.805   3.593   4.305  0.5666  0.0890  0.3459
  397MOL0     C52281   0.753   3.473   4.359 -0.1481 -0.6840 -0.5206
  397MOL0     C52282   0.702   3.370   4.266  0.9842  0.2039  1.2363
  397MOL0     C52283   0.817   3.303   4.192 -0.6018  0.2733 -0.2140
  397MOL0     C52284   0.786   3.194   4.090 -0.6824  0.4739  0.1214
  397MOL0     C52285   0.921   3.136   4.027  0.2635 -0.4952 -0.9996
  397MOL0     C52286   0.892   3.017   3.934  1.2115 -0.5615 -0.4953
  397MOL0     C52287   1.006   2.974   3.842  1.2641  0.1359  0.2671
  397MOL0     C52288   1.051   3.079   3.745 -0.2249 -0.1003 -0.2138
  397MOL0     N52289   0.946   3.120   3.654 -0.0479  0.3363  0.6595
  397MOL0     C52290   0.852   3.225   3.682  0.8210  1.0655  0.0348
  397MOL0     C52291   0.745   3.186   3.619 -0.0111 -0.1309  1.6148
  397MOL0     C52292   0.609   3.249   3.632  1.0420 -0.3089 -0.4442
  397MOL0     C52293   0.555   3.304   3.500 -0.6156  0.6743 -0.4861
  397MOL0     C52294   0.408   3.357   3.510 -0.2175  0.0237 -0.4878
  397MOL0     C52295   0.346   3.358   3.377 -0.2087 -0.3248  0.0763
  397MOL0     O52296   0.212   3.387   3.403  0.6943 -0.2859 -0.0998
  397MOL0     C52297   0.153   3.463   3.307  0.2989 -0.2250  1.0131
  397MOL0     C52298   0.042   3.538   3.360 -0.7655  0.1914  0.1719
  397MOL0     C52299  -0.030   3.607   3.266  1.0979 -0.3926  1.4953
  397MOL0     C52300   0.002   3.611   3.126 -1.1526 -0.3533  0.1680
  397MOL0     C52301  -0.080   3.693   3.037  0.4558  1.5298  0.4635
  397MOL0     O52302  -0.020   3.762   2.940 -0.8874 -0.1136  0.2080
  397MOL0     C52303  -0.108   3.797   2.836 -0.2644  0.8399 -1.1349
  397MOL0     C52304  -0.153   3.701   2.745  0.0001 -0.2070 -0.1916
  397MOL0     C52305  -0.257   3.741   2.650 -0.8929 -0.9515 -0.6179
  397MOL0     C52306  -0.287   3.879   2.634  1.0914  0.0889  1.0077
  397MOL0     O52307  -0.374   3.918   2.536 -0.1324 -0.3106  0.2514
  397MOL0     C52308  -0.321   4.014   2.440 -0.3756  0.1408  0.0891
  397MOL0     C52309  -0.385   4.020   2.305  0.4399  0.6670 -0.5848
  397MOL0     C52310  -0.298   3.968   2.190 -0.2110 -0.3851  0.0931
  397MOL0     C52311  -0.257   3.822   2.207 -1.2504 -0.3787  0.4261
  397MOL0     C52312  -0.148   3.792   2.101 -0.0723  0.1774 -0.6745
  397MOL0     C52313  -0.126   3.645   2.050 -0.3917  0.4762 -0.8209
  397MOL0     C52314  -0.265   3.557   2.027 -0.0997  0.5193  0.4419
  397MOL0     C52315  -0.228   3.424   1.958 -0.0877 -0.5228  0.2635
  397MOL0    Cl52316  -0.157   3.451   1.792  0.6915 -0.5294  0.1481
  397MOL0     C52317  -0.237   3.972   2.724  0.5645  0.7636 -0.5325
  397MOL0     C52318  -0.149   3.928   2.825  0.5623  0.3144  0.3094
  397MOL0     O52319  -0.202   3.688   3.065  0.3267  0.7059  0.2296
  397MOL0     C52320   0.107   3.546   3.080  0.1908  0.9810 -0.1641
  397MOL0     C52321   0.185   3.469   3.178  0.1223 -0.0947 -0.0041
  397MOL0     N52322   0.760   3.075   3.544  0.0695 -0.0434 -0.1307
  397MOL0     N52323   0.887   3.035   3.570  0.0386  0.6883  0.7455
  397MOL0     C52324   0.926   3.777   4.321 -0.2023  0.0958  0.5402
  397MOL0     C52325   1.008   3.866   4.392 -0.1353  0.8075  0.5504
  397MOL0     C52326   1.315   4.064   4.632 -0.7118 -0.2154 -0.5067
  397MOL0     C52327   1.257   4.133   4.741 -0.1593  1.1904 -0.2353
  397MOL0     C52328   1.338   4.214   4.822 -0.4611  0.3322 -0.0678
  397MOL0     C52329   1.469   4.229   4.808 -1.5021 -0.9989 -0.0756
  397MOL0     O52330   1.538   4.323   4.880 -0.8981 -0.0118 -0.4372
  397MOL0     C52331   1.592   4.429   4.793  0.7404  0.1440  0.1585
  397MOL0     C52332   1.661   4.540   4.878 -0.0465 -0.0853  0.6177
  397MOL0     C52333   1.560   4.624   4.963  0.1014 -0.0698  1.1120
  397MOL0     C52334   1.555   4.777   4.947 -0.2612 -0.3053  1.0224
  397MOL0     C52335   1.553   4.805   4.798  0.0499 -1.1800  0.1945
  397MOL0     C52336   1.550   4.829   4.680 -0.5209  0.5302 -0.2907
  397MOL0     C52337   1.536   4.151   4.715  0.2658 -0.2803  1.3887
  397MOL0     C52338   1.459   4.063   4.630  0.6884 -0.1104 -0.6272
  397MOL0     H52339   0.952   3.761   4.710  0.3750  0.0051  0.8900
  397MOL0     H52340   0.808   3.611   4.597  2.2295 -1.0037 -0.7488
  397MOL0     H52341   0.676   3.497   4.434 -0.2381  0.6773 -1.0172
  397MOL0     H52342   0.837   3.429   4.414  1.0335  1.1636 -0.7617
  397MOL0     H52343   0.628   3.418   4.201  1.1886 -0.5367  0.4315
  397MOL0     H52344   0.648   3.286   4.310 -2.6548  1.9977  0.5209
  397MOL0     H52345   0.882   3.254   4.265  0.4073  0.7560 -0.7736
  397MOL0     H52346   0.871   3.377   4.133  1.3036 -0.5370  0.4508
  397MOL0     H52347   0.741   3.111   4.144 -1.9424  0.9803 -0.1151
  397MOL0     H52348   0.712   3.236   4.021 -1.0185 -0.9159 -0.4021
  397MOL0     H52349   0.992   3.102   4.103 -0.7878 -0.4284  0.0420
  397MOL0     H52350   0.970   3.224   3.984  0.2710  0.3541  0.6784
  397MOL0     H52351   0.795   3.035   3.888  1.3526 -0.4026 -0.7346
  397MOL0     H52352   0.869   2.939   4.007 -2.1256  1.1532  0.4909
  397MOL0     H52353   1.089   2.952   3.910  0.3115 -2.1009  0.8263
  397MOL0     H52354   0.981   2.881   3.789  0.4264  0.6256 -0.2186
  397MOL0     H52355   1.143   3.047   3.696  0.6864 -1.5481  2.2329
  397MOL0     H52356   1.074   3.167   3.806  2.1832 -1.1683  0.5088
  397MOL0     H52357   0.872   3.314   3.740  1.1276  1.5668 -0.8157
  397MOL0     H52358   0.625   3.326   3.709  2.8400  1.2927 -2.3192
  397MOL0     H52359   0.527   3.186   3.668  0.1689  0.1529 -1.5876
  397MOL0     H52360   0.564   3.229   3.421 -4.4826 -0.7442  0.1784
  397MOL0     H52361   0.618   3.390   3.476  1.3333 -0.9018 -1.2841
  397MOL0     H52362   0.359   3.286   3.577 -0.7094 -0.1677 -1.0421
  397MOL0     H52363   0.397   3.453   3.561 -1.2383 -0.7855  0.8877
  397MOL0     H52364   0.350   3.259   3.332  0.7419  0.1803 -0.9898
  397MOL0     H52365   0.397   3.435   3.319  0.5790 -1.9023 -1.3934
  397MOL0     H52366   0.019   3.537   3.466  0.4176  0.2750  0.4364
  397MOL0     H52367  -0.121   3.661   3.290  1.1995  0.7945 -0.5669
  397MOL0     H52368  -0.124   3.597   2.758  2.2532  0.6075  2.0678
  397MOL0     H52369  -0.305   3.656   2.601 -1.7873 -1.5888  1.2818
  397MOL0     H52370  -0.213   4.003   2.425 -0.6322 -1.0363 -1.0295
  397MOL0     H52371  -0.331   4.112   2.488 -1.6927  0.5078 -0.8786
  397MOL0     H52372  -0.425   4.119   2.280  0.8588  0.5667 -1.6982
  397MOL0     H52373  -0.467   3.948   2.292  1.7992 -0.5500 -2.8995
  397MOL0     H52374  -0.207   4.028   2.188  1.4029 -2.7134 -0.5562
  397MOL0     H52375  -0.360   3.968   2.100  2.3480 -1.7503 -1.7948
  397MOL0     H52376  -0.214   3.798   2.304  0.3002 -2.5435 -0.6999
  397MOL0     H52377  -0.339   3.751   2.189 -1.1138 -0.3253 -0.4457
  397MOL0     H52378  -0.057   3.849   2.122 -0.8243  1.4225 -0.6813
  397MOL0     H52379  -0.197   3.841   2.016 -0.9115  1.7551  0.6534
  397MOL0     H52380  -0.074   3.596   2.132 -1.1144 -0.4093 -0.8692
  397MOL0     H52381  -0.067   3.653   1.958  1.3468 -4.4660 -0.4034
  397MOL0     H52382  -0.323   3.538   2.117 -2.0223 -2.3959 -1.2423
  397MOL0     H52383  -0.333   3.604   1.955  0.0957 -1.7243 -1.3442
  397MOL0     H52384  -0.321   3.368   1.945 -2.2162  2.7335  0.1130
  397MOL0     H52385  -0.163   3.357   2.014  0.5120  2.6716  3.7585
  397MOL0     H52386  -0.264   4.077   2.724 -4.6582 -0.3433 -0.2939
  397MOL0     H52387  -0.113   3.982   2.911 -0.7657 -0.7199  1.5731
  397MOL0     H52388   0.128   3.550   2.974 -1.5557 -1.7358 -0.7030
  397MOL0     H52389   0.268   3.406   3.149 -1.2278 -2.3888  0.8813
  397MOL0     H52390   0.906   3.783   4.214 -1.5606  0.0192  0.7709
  397MOL0     H52391   1.065   3.946   4.347  1.5355  0.1929  1.4851
  397MOL0     H52392   1.151   4.127   4.761 -0.0029 -2.7740  0.1905
  397MOL0     H52393   1.301   4.282   4.898  0.9656  1.5692 -0.4255
  397MOL0     H52394   1.512   4.465   4.727  0.6848 -1.9950 -1.0149
  397MOL0     H52395   1.672   4.388   4.732  1.7691  0.0751  1.5007
  397MOL0     H52396   1.742   4.501   4.941  0.3167 -1.4340 -0.6201
  397MOL0     H52397   1.702   4.611   4.805 -2.1286 -0.2338 -0.7828
  397MOL0     H52398   1.562   4.606   5.071 -2.7983  1.7558  1.5846
  397MOL0     H52399   1.462   4.594   4.923 -0.2963  2.3984  0.0378
  397MOL0     H52400   1.469   4.806   5.008 -0.8763 -1.9797  1.0202
  397MOL0     H52401   1.643   4.816   4.998 -1.4363  2.4439  1.0831
  397MOL0     H52402   1.543   4.841   4.574 -1.8786 -0.8709 -0.3983
  397MOL0     H52403   1.639   4.165   4.685 -0.2011 -2.5032 -1.7985
  397MOL0     H52404   1.507   3.984   4.573 -0.0844 -0.4714 -0.7978
  398MOL0     O52405   0.218   4.371   1.841  0.5312 -0.2364  0.0057
  398MOL0     C52406   0.175   4.379   1.952 -0.2152  0.6655  0.0512
  398MOL0     O52407   0.057   4.309   1.999  0.0258 -0.2190 -0.0094
  398MOL0     C52408  -0.002   4.218   1.904 -0.0677  0.6709  0.1543
  398MOL0     C52409   0.064   4.113   1.845 -0.1840  0.8629 -0.5263
  398MOL0     C52410   0.006   4.025   1.760 -1.1537  0.7148 -0.6236
  398MOL0     C52411  -0.123   4.046   1.712  0.1944 -0.1466  0.3719
  398MOL0     O52412  -0.192   3.965   1.624  0.9284 -0.8754 -0.6207
  398MOL0     C52413  -0.139   3.939   1.490  0.1336  0.4880  0.1165
  398MOL0     C52414  -0.131   4.058   1.401 -0.1244 -0.5137 -0.1092
  398MOL0     C52415  -0.164   4.037   1.250  0.7449 -0.0932 -0.8301
  398MOL0     C52416  -0.136   4.171   1.177 -0.7645  0.8076  0.0370
  398MOL0     C52417  -0.203   4.296   1.243  0.4712 -0.1297  0.3721
  398MOL0     C52418  -0.214   4.409   1.140  0.1378 -1.4754  0.4334
  398MOL0     C52419  -0.188   4.550   1.203  0.9445  0.7053  0.2239
  398MOL0     C52420  -0.222   4.665   1.113  0.3699 -0.5942 -0.0989
  398MOL0     N52421  -0.094   4.757   1.109  0.2486  0.1753 -0.1916
  398MOL0     C52422  -0.031   4.821   1.208 -0.4552  0.6971 -0.5353
  398MOL0     C52423   0.085   4.857   1.153 -0.7766  0.6435  0.6100
  398MOL0     C52424   0.205   4.905   1.234 -0.0845 -0.4354 -0.7546
  398MOL0     C52425   0.315   4.788   1.238  0.1133 -0.3607 -0.2580
  398MOL0     C52426   0.441   4.826   1.318  0.9737  0.0884 -0.4148
  398MOL0     C52427   0.518   4.949   1.263  0.1153  0.4998  0.1720
  398MOL0     O52428   0.470   5.082   1.305  0.2294  0.1233 -0.1373
  398MOL0     C52429   0.546   5.197   1.303  0.7210 -0.2737  0.3797
  398MOL0     C52430   0.643   5.227   1.211  0.0086  0.7282  0.6674
  398MOL0     C52431   0.715   5.340   1.227 -1.4708  0.0286  0.2811
  398MOL0     C52432   0.669   5.448   1.311 -0.0562 -0.3695 -0.0988
  398MOL0     C52433   0.732   5.578   1.313  0.3249  0.3740 -0.3336
  398MOL0     O52434   0.689   5.669   1.415 -0.3351 -0.0154 -0.2578
  398MOL0     C52435   0.703   5.806   1.417 -0.3104  1.0695 -0.0574
  398MOL0     C52436   0.773   5.887   1.332 -0.6145  0.5049 -0.5592
  398MOL0     C52437   0.783   6.023   1.357 -0.9269  0.0874 -0.5141
  398MOL0     C52438   0.713   6.091   1.463 -0.0794 -0.1204  0.6370
  398MOL0     O52439   0.704   6.227   1.469 -0.5882 -0.3236 -0.4358
  398MOL0     C52440   0.617   6.294   1.566 -0.6177  0.5988 -0.0961
  398MOL0     C52441   0.707   6.319   1.692 -0.0943  0.9853  0.5042
  398MOL0     C52442   0.822   6.411   1.659 -0.7775 -0.1486 -1.0428
  398MOL0     C52443   0.793   6.555   1.599  0.8430  0.6476 -0.6724
  398MOL0     C52444   0.921   6.604   1.540  0.3054  0.5999  0.1460
  398MOL0     C52445   1.047   6.604   1.629  1.1314 -0.1944 -1.1637
  398MOL0     C52446   1.168   6.675   1.568  0.1598 -0.1110 -0.7002
  398MOL0     C52447   1.274   6.588   1.513 -0.4869 -0.4766 -0.8068
  398MOL0    Cl52448   1.218   6.471   1.392 -0.0769  0.1415  0.0144
  398MOL0     C52449   0.647   5.998   1.553  0.4821  0.0917 -0.0159
  398MOL0     C52450   0.643   5.859   1.533  0.8032  1.0780 -0.2795
  398MOL0     O52451   0.796   5.599   1.221 -0.2112 -0.2035  0.0174
  398MOL0     C52452   0.561   5.423   1.399  0.5276  0.1111  1.0918
  398MOL0     C52453   0.509   5.294   1.400 -0.1913 -0.0727  0.3059
  398MOL0     N52454   0.103   4.804   1.023  1.0966  0.6131 -0.2271
  398MOL0     N52455  -0.007   4.739   1.002 -0.0051  0.1807  0.1099
  398MOL0     C52456  -0.192   4.142   1.774  0.1891 -0.3787 -1.0349
  398MOL0     C52457  -0.131   4.226   1.857  0.4662 -1.7239 -0.2351
  398MOL0     C52458   0.258   4.461   2.047 -0.0066  0.0924  1.0955
  398MOL0     C52459   0.374   4.530   2.003 -0.5854  0.0004 -0.3928
  398MOL0     C52460   0.434   4.618   2.086 -1.9790  0.1763 -0.4265
  398MOL0     C52461   0.402   4.630   2.220 -0.2945 -0.2334 -0.3711
  398MOL0     O52462   0.442   4.729   2.304 -0.3143 -0.4966 -0.0540
  398MOL0     C52463   0.571   4.793   2.279 -0.7259 -1.1392  0.2069
  398MOL0     C52464   0.647   4.849   2.407 -0.3015  0.0731  0.6939
  398MOL0     C52465   0.570   4.976   2.458 -0.1436 -0.2927 -0.4625
  398MOL0     C52466   0.654   5.058   2.564  0.1119  0.2806 -1.3976
  398MOL0     C52467   0.581   5.165   2.635 -0.0905  0.4177  0.3324
  398MOL0     C52468   0.527   5.251   2.704  0.6302 -0.0810  0.0459
  398MOL0     C52469   0.303   4.550   2.267  0.0187  1.0386 -0.8942
  398MOL0     C52470   0.234   4.458   2.188 -0.2000 -0.5375  0.6213
  398MOL0     H52471   0.167   4.107   1.878 -0.0427  1.4547 -0.8420
  398MOL0     H52472   0.063   3.937   1.731 -0.5821  1.6278 -2.4083
  398MOL0     H52473  -0.213   3.871   1.448  0.2573  1.4058 -1.6651
  398MOL0     H52474  -0.033   3.912   1.494  0.5054  1.8739  0.1219
  398MOL0     H52475  -0.029   4.096   1.403 -0.1125 -0.5565  2.0147
  398MOL0     H52476  -0.194   4.136   1.445 -3.4976 -1.2840 -3.0478
  398MOL0     H52477  -0.263   3.991   1.244 -0.3727  2.2034 -1.1531
  398MOL0     H52478  -0.094   3.963   1.211 -0.3368 -1.6413  0.0922
  398MOL0     H52479  -0.031   4.189   1.150 -1.0484  0.4057 -1.4404
  398MOL0     H52480  -0.174   4.150   1.077  0.3934 -1.4773 -0.0041
  398MOL0     H52481  -0.141   4.317   1.330  0.6822 -0.0526  0.2016
  398MOL0     H52482  -0.305   4.269   1.273  0.2033  0.5851  0.1164
  398MOL0     H52483  -0.319   4.415   1.112  0.0310 -1.2608  0.8717
  398MOL0     H52484  -0.151   4.395   1.051  4.6781  1.8490  2.6762
  398MOL0     H52485  -0.252   4.548   1.292  1.7506  0.2819  0.8114
  398MOL0     H52486  -0.081   4.547   1.226  1.0965 -0.5282 -0.5557
  398MOL0     H52487  -0.314   4.710   1.150  1.1419 -0.9966  2.5512
  398MOL0     H52488  -0.240   4.635   1.010 -1.9254  6.8331 -2.4719
  398MOL0     H52489  -0.078   4.852   1.302 -0.0084  1.2007 -0.4746
  398MOL0     H52490   0.166   4.934   1.332  1.6219 -0.9760  0.1310
  398MOL0     H52491   0.247   4.994   1.187  0.5597  0.5257  1.5303
  398MOL0     H52492   0.342   4.763   1.134 -0.1116  1.2741 -0.7280
  398MOL0     H52493   0.274   4.703   1.293  0.7455  0.7260  2.0149
  398MOL0     H52494   0.390   4.861   1.408 -1.9825 -2.2132 -1.0280
  398MOL0     H52495   0.515   4.747   1.337  0.5642  0.0054  0.9275
  398MOL0     H52496   0.515   4.955   1.154  1.6948  1.8605  0.1601
  398MOL0     H52497   0.623   4.922   1.280  0.0863 -2.2725 -3.0507
  398MOL0     H52498   0.677   5.168   1.127  0.1380 -0.0617  1.2573
  398MOL0     H52499   0.805   5.357   1.168 -0.9112  1.5442  1.4906
  398MOL0     H52500   0.810   5.854   1.235  3.7359  1.4084  0.5948
  398MOL0     H52501   0.834   6.095   1.294 -1.2174  0.8996  0.1552
  398MOL0     H52502   0.528   6.239   1.599  1.1300 -2.1477  0.4067
  398MOL0     H52503   0.587   6.389   1.521  1.6648  0.1046 -3.0476
  398MOL0     H52504   0.740   6.225   1.737 -1.9186 -1.2418 -2.4020
  398MOL0     H52505   0.640   6.371   1.762 -0.5746  0.4403  0.4626
  398MOL0     H52506   0.893   6.359   1.594  0.2603 -1.1987  0.8433
  398MOL0     H52507   0.887   6.414   1.746 -2.9781 -0.9695  0.7429
  398MOL0     H52508   0.701   6.553   1.541 -0.5679 -0.6005  1.4613
  398MOL0     H52509   0.768   6.615   1.687 -1.5762 -3.2501  1.6135
  398MOL0     H52510   0.906   6.708   1.510  3.1602  0.9793 -0.2176
  398MOL0     H52511   0.942   6.552   1.446 -2.4136  2.2563 -1.5130
  398MOL0     H52512   1.083   6.503   1.653 -1.2902 -0.4364  2.1719
  398MOL0     H52513   1.029   6.659   1.722  3.0037  1.5835 -1.7967
  398MOL0     H52514   1.120   6.749   1.503 -2.5990 -1.6479 -0.5857
  398MOL0     H52515   1.211   6.734   1.649  2.2056 -0.6267 -1.3455
  398MOL0     H52516   1.324   6.525   1.588 -2.3572 -0.8538  0.1792
  398MOL0     H52517   1.343   6.656   1.461 -0.0220  1.0199  1.6069
  398MOL0     H52518   0.597   6.036   1.641 -1.9775  0.3780 -1.4597
  398MOL0     H52519   0.589   5.790   1.597  1.2125 -0.7389 -1.8157
  398MOL0     H52520   0.529   5.509   1.458  1.3164  1.5726 -0.5309
  398MOL0     H52521   0.436   5.279   1.478 -0.5242 -1.5216 -0.2400
  398MOL0     H52522  -0.293   4.155   1.736 -0.6704  2.1512  1.7178
  398MOL0     H52523  -0.190   4.313   1.884  1.3583  1.1046 -5.8066
  398MOL0     H52524   0.421   4.508   1.908 -1.0421 -1.9671 -0.2154
  398MOL0     H52525   0.519   4.679   2.058  0.8277 -2.6465  1.2735
  398MOL0     H52526   0.552   4.878   2.213 -0.2028 -2.2331 -1.3814
  398MOL0     H52527   0.640   4.740   2.214  2.5980  2.6699  0.1971
  398MOL0     H52528   0.665   4.768   2.479 -1.0797 -0.4588  0.3031
  398MOL0     H52529   0.746   4.888   2.381  0.2917 -1.3971  0.6340
  398MOL0     H52530   0.475   4.942   2.498  0.3692 -0.2571  0.8332
  398MOL0     H52531   0.548   5.035   2.368 -2.8682 -1.3433 -0.5767
  398MOL0     H52532   0.698   4.989   2.636 -0.1104 -1.4134 -2.8242
  398MOL0     H52533   0.738   5.103   2.509  1.3905  0.9219  0.9168
  398MOL0     H52534   0.477   5.318   2.771 -1.0114 -1.6296  0.4601
  398MOL0     H52535   0.267   4.567   2.368 -1.8996 -0.0201 -1.3493
  398MOL0     H52536   0.155   4.399   2.234 -1.0623  0.6919  0.7430
  399MOL0     O52537   5.723   3.389   0.173 -0.4931  0.3271 -0.0133
  399MOL0     C52538   5.825   3.443   0.183 -1.5724 -0.2087  0.2597
  399MOL0     O52539   5.859   3.576   0.181  0.0081 -0.6586  0.6989
  399MOL0     C52540   5.761   3.663   0.155 -0.8086 -0.7739  0.6270
  399MOL0     C52541   5.652   3.685   0.241 -0.1169  0.1759  0.0431
  399MOL0     C52542   5.552   3.773   0.206 -0.4568  0.2931 -0.4458
  399MOL0     C52543   5.561   3.850   0.090 -0.5534 -0.1636 -0.1017
  399MOL0     O52544   5.470   3.939   0.043 -0.4653 -0.0536 -0.3416
  399MOL0     C52545   5.378   4.011   0.130  0.1657 -0.6320  0.4463
  399MOL0     C52546   5.245   3.932   0.143  0.1576  0.4485 -0.7708
  399MOL0     C52547   5.160   3.993   0.258 -0.3581 -0.1195  0.6758
  399MOL0     C52548   5.040   3.905   0.290 -0.3585 -0.4867 -0.0217
  399MOL0     C52549   4.910   3.985   0.277  0.7150 -0.0945 -0.5714
  399MOL0     C52550   4.780   3.900   0.307  0.4069 -0.3731 -0.1146
  399MOL0     C52551   4.765   3.873   0.455 -0.9051 -0.3913 -0.7660
  399MOL0     C52552   4.634   3.795   0.477  0.0496 -0.2948  0.0621
  399MOL0     N52553   4.656   3.668   0.539 -0.3961 -0.3781 -0.6114
  399MOL0     C52554   4.729   3.570   0.486 -0.1677  0.3990  0.3153
  399MOL0     C52555   4.681   3.463   0.552 -0.7993 -0.3669 -0.5033
  399MOL0     C52556   4.732   3.330   0.533 -0.3032  0.0538  0.4403
  399MOL0     C52557   4.679   3.254   0.412  0.0759 -0.1104 -0.0541
  399MOL0     C52558   4.740   3.114   0.418  0.0299  0.2151 -0.3021
  399MOL0     C52559   4.879   3.104   0.355  0.0110  0.4439 -0.5867
  399MOL0     O52560   4.930   2.968   0.376 -0.6431 -0.3149 -0.2421
  399MOL0     C52561   5.062   2.945   0.327  0.0984  0.1560  0.0701
  399MOL0     C52562   5.116   2.824   0.362 -0.6689 -0.2396  0.0068
  399MOL0     C52563   5.245   2.781   0.320  0.0311 -0.1320 -0.5754
  399MOL0     C52564   5.329   2.875   0.262  0.9299 -0.2453  0.6164
  399MOL0     C52565   5.473   2.843   0.241 -0.6532  0.7612 -0.0623
  399MOL0     O52566   5.526   2.732   0.309 -0.6458 -0.1732  0.3214
  399MOL0     C52567   5.657   2.707   0.281 -0.8287 -0.4458 -0.5072
  399MOL0     C52568   5.685   2.587   0.222  0.4126 -0.5731  0.5983
  399MOL0     C52569   5.810   2.569   0.164  0.5038 -0.5544  0.5757
  399MOL0     C52570   5.910   2.661   0.179  0.0621  0.0739  0.5119
  399MOL0     O52571   6.044   2.630   0.138  0.0824  0.0129  0.5297
  399MOL0     C52572   6.071   2.501   0.080 -0.6747 -0.2861  0.0665
  399MOL0     C52573   6.217   2.478   0.052 -0.4081  0.4477  0.4088
  399MOL0     C52574   6.306   2.536   0.156  0.1813 -0.4300  0.3657
  399MOL0     C52575   6.452   2.490   0.139  0.2480  0.1574  0.0016
  399MOL0     C52576   6.489   2.354   0.190 -0.3064 -0.3788  0.9088
  399MOL0     C52577   6.625   2.304   0.128  1.4820  0.5520  0.1131
  399MOL0     C52578   6.645   2.151   0.110  0.3691 -0.1777  0.3639
  399MOL0     C52579   6.629   2.105  -0.037 -0.0555 -0.1311  1.7271
  399MOL0    Cl52580   6.493   2.173  -0.129 -0.2681 -0.5873  0.0616
  399MOL0     C52581   5.888   2.776   0.251  0.8113 -0.5845 -0.2448
  399MOL0     C52582   5.755   2.802   0.294 -0.1068 -0.1963 -0.1701
  399MOL0     O52583   5.532   2.915   0.167 -0.0080 -0.2979  0.6116
  399MOL0     C52584   5.278   2.998   0.215 -1.0242  0.9547  0.6804
  399MOL0     C52585   5.143   3.029   0.238 -0.8204  0.0880 -0.8202
  399MOL0     N52586   4.582   3.498   0.639  0.2100  0.2197 -0.2719
  399MOL0     N52587   4.565   3.622   0.631  0.0477 -1.0407 -0.8018
  399MOL0     C52588   5.671   3.838   0.013 -0.0455 -0.9377 -0.3506
  399MOL0     C52589   5.765   3.749   0.045 -0.0921 -0.3320  1.1351
  399MOL0     C52590   5.933   3.341   0.171 -0.6975 -0.9176  0.4973
  399MOL0     C52591   6.065   3.390   0.155  0.5772  0.2571  1.0324
  399MOL0     C52592   6.174   3.306   0.149  0.5086 -0.1375 -0.4540
  399MOL0     C52593   6.154   3.170   0.147  0.1451  1.4748  0.0539
  399MOL0     O52594   6.257   3.075   0.145  0.3129 -0.2233 -0.1278
  399MOL0     C52595   6.381   3.106   0.084 -0.7408  0.2030  1.1639
  399MOL0     C52596   6.352   3.092  -0.064 -1.0747  0.2545 -0.2402
  399MOL0     C52597   6.286   2.954  -0.095  0.6943 -0.0892  0.3482
  399MOL0     C52598   6.382   2.843  -0.082 -0.0888  0.4674  0.1231
  399MOL0     C52599   6.508   2.858  -0.163 -0.5035 -0.6181  0.5377
  399MOL0     C52600   6.607   2.857  -0.227  0.7070  0.5638 -0.6485
  399MOL0     C52601   6.025   3.113   0.162  0.1561 -1.1445  1.0269
  399MOL0     C52602   5.912   3.198   0.165 -0.7133 -0.7586 -1.1652
  399MOL0     H52603   5.632   3.616   0.323 -2.2838  1.7431  0.9065
  399MOL0     H52604   5.462   3.775   0.267  0.5183  0.0460  1.0697
  399MOL0     H52605   5.352   4.100   0.072  2.6953 -1.3403 -1.9744
  399MOL0     H52606   5.424   4.045   0.223  2.4133  0.4524 -0.9851
  399MOL0     H52607   5.258   3.826   0.166 -0.7553  0.4396 -0.1989
  399MOL0     H52608   5.181   3.937   0.055  0.6131  0.2740 -1.1110
  399MOL0     H52609   5.124   4.092   0.229 -1.9740 -1.2449 -1.3874
  399MOL0     H52610   5.215   4.008   0.351  1.7563 -1.4158 -0.2927
  399MOL0     H52611   5.029   3.818   0.224 -0.7576 -0.4902  0.0474
  399MOL0     H52612   5.048   3.877   0.395 -4.1340  1.9034  1.0784
  399MOL0     H52613   4.905   4.024   0.175 -2.1491  3.8160  0.8485
  399MOL0     H52614   4.907   4.080   0.331  1.9602 -0.1093 -0.4604
  399MOL0     H52615   4.778   3.800   0.264 -2.6873 -1.4567  2.1667
  399MOL0     H52616   4.690   3.959   0.291  1.3360  1.0734 -0.2012
  399MOL0     H52617   4.852   3.817   0.489 -0.3313  0.5433 -0.6835
  399MOL0     H52618   4.761   3.972   0.500 -2.2419  0.8675 -3.3965
  399MOL0     H52619   4.586   3.765   0.384 -2.9762  0.4815  1.2501
  399MOL0     H52620   4.564   3.861   0.527 -0.8804 -1.6736  0.6400
  399MOL0     H52621   4.806   3.575   0.409 -1.9301 -0.4757 -1.6011
  399MOL0     H52622   4.692   3.268   0.614  0.2682 -1.6723 -0.5559
  399MOL0     H52623   4.841   3.339   0.542 -0.3575  3.4651 -0.8522
  399MOL0     H52624   4.698   3.314   0.322  1.3278 -2.1372 -1.2170
  399MOL0     H52625   4.570   3.249   0.411 -0.2153  3.5174  0.1270
  399MOL0     H52626   4.739   3.074   0.520  3.4282 -2.6101 -1.1733
  399MOL0     H52627   4.686   3.037   0.362  0.4521 -0.3981  0.1109
  399MOL0     H52628   4.936   3.188   0.395 -2.0369  2.3243 -1.4074
  399MOL0     H52629   4.867   3.125   0.248 -0.0119 -0.6657 -0.8151
  399MOL0     H52630   5.054   2.758   0.421 -0.9569 -0.1191 -0.1600
  399MOL0     H52631   5.278   2.683   0.353  0.3961 -0.3751 -1.6060
  399MOL0     H52632   5.604   2.516   0.204  0.8727 -0.8211 -0.5537
  399MOL0     H52633   5.822   2.481   0.102  0.3258 -0.6617  0.6924
  399MOL0     H52634   6.026   2.481  -0.018 -0.4691 -0.1902 -0.0462
  399MOL0     H52635   6.039   2.435   0.161 -0.1985 -1.5168 -0.7173
  399MOL0     H52636   6.247   2.537  -0.034  0.2575  0.5466  0.7028
  399MOL0     H52637   6.230   2.371   0.030 -1.7056  0.4385 -0.4274
  399MOL0     H52638   6.264   2.490   0.246 -2.0059 -2.5256 -1.5792
  399MOL0     H52639   6.298   2.645   0.162  2.4274 -0.2914  1.9890
  399MOL0     H52640   6.471   2.494   0.031 -2.1637 -1.3129 -0.5685
  399MOL0     H52641   6.521   2.562   0.183 -0.2977 -1.4245  3.8837
  399MOL0     H52642   6.405   2.287   0.172  0.0684 -0.4555 -0.7057
  399MOL0     H52643   6.496   2.357   0.299  1.4500  0.8005  0.8054
  399MOL0     H52644   6.707   2.356   0.179  2.0517  0.0469 -0.2687
  399MOL0     H52645   6.626   2.350   0.029  0.4954  0.9457  0.2695
  399MOL0     H52646   6.749   2.128   0.132  1.4588  2.2512 -1.7424
  399MOL0     H52647   6.580   2.093   0.175  0.9628 -0.1857  0.9609
  399MOL0     H52648   6.620   1.996  -0.039 -0.9208 -0.0586  0.2089
  399MOL0     H52649   6.718   2.126  -0.097 -1.8218 -0.4342 -1.1985
  399MOL0     H52650   5.969   2.843   0.277  1.3683 -2.2131  2.5237
  399MOL0     H52651   5.735   2.893   0.349  0.3086  0.5742 -1.2425
  399MOL0     H52652   5.336   3.066   0.154 -0.9483  0.6043  0.3604
  399MOL0     H52653   5.115   3.132   0.216 -0.7937  0.0051 -1.2436
  399MOL0     H52654   5.692   3.891  -0.079  2.0603 -1.4374 -0.2133
  399MOL0     H52655   5.856   3.740  -0.012 -0.2089  4.5585 -0.2574
  399MOL0     H52656   6.082   3.497   0.145 -2.3336  0.5718 -2.8078
  399MOL0     H52657   6.275   3.344   0.161 -0.1779  1.2107  1.6697
  399MOL0     H52658   6.454   3.041   0.132  0.5949  1.7027  1.2537
  399MOL0     H52659   6.419   3.205   0.113 -1.4236 -0.3817  4.4219
  399MOL0     H52660   6.277   3.171  -0.078 -1.4591  0.1387  1.0442
  399MOL0     H52661   6.442   3.107  -0.126 -1.3415 -0.2391 -0.7555
  399MOL0     H52662   6.257   2.944  -0.200  2.4512 -1.7221 -0.0458
  399MOL0     H52663   6.201   2.932  -0.031  0.1881  0.6509 -0.0491
  399MOL0     H52664   6.412   2.822   0.021  1.6107  4.8849  0.7378
  399MOL0     H52665   6.339   2.753  -0.128 -5.6251  1.9591  1.5847
  399MOL0     H52666   6.702   2.858  -0.277  3.7979 -3.1219  4.2214
  399MOL0     H52667   6.028   3.004   0.158  3.4434 -1.1239 -0.8733
  399MOL0     H52668   5.811   3.159   0.171 -1.2405  0.7662  1.2696
  400MOL0     O52669   1.031   7.670  10.773 -0.0926  0.4882  0.3445
  400MOL0     C52670   1.014   7.720  10.665  0.9215 -0.6703 -0.2433
  400MOL0     O52671   1.096   7.708  10.552  0.3741 -0.7903 -0.5345
  400MOL0     C52672   1.228   7.680  10.571 -0.5880  0.7187 -0.3863
  400MOL0     C52673   1.305   7.737  10.679 -0.3751  0.1317  0.4185
  400MOL0     C52674   1.444   7.723  10.691 -0.7451 -0.0463  1.2278
  400MOL0     C52675   1.511   7.641  10.592  0.5465  0.2159 -0.5029
  400MOL0     O52676   1.643   7.655  10.588  0.1238 -1.4793 -0.4353
  400MOL0     C52677   1.702   7.677  10.455 -0.2989 -0.3992  0.0548
  400MOL0     C52678   1.820   7.771  10.457  0.7123 -0.2625 -0.4165
  400MOL0     C52679   1.948   7.719  10.526 -0.3576  0.3102 -0.6116
  400MOL0     C52680   2.066   7.817  10.523 -0.2792  0.9616  0.0380
  400MOL0     C52681   2.061   7.918  10.640 -0.3885  0.2926  0.8857
  400MOL0     C52682   2.164   8.023  10.603  0.4169 -0.2024 -0.3257
  400MOL0     C52683   2.249   8.078  10.720 -0.9977 -0.4673  0.4227
  400MOL0     C52684   2.385   8.130  10.663  0.5826  0.9480  1.0455
  400MOL0     N52685   2.472   8.170  10.775 -0.3468 -0.2565 -0.3326
  400MOL0     C52686   2.589   8.108  10.812 -0.1139 -0.2345 -0.1581
  400MOL0     C52687   2.625   8.169  10.930 -0.1549 -0.6712  0.8993
  400MOL0     C52688   2.762   8.147  10.992  0.5238  0.0128 -0.2164
  400MOL0     C52689   2.846   8.274  11.011  0.1884  0.5723 -0.0426
  400MOL0     C52690   2.791   8.362  11.125 -0.7310  1.3083 -0.1208
  400MOL0     C52691   2.838   8.505  11.106  0.0465  0.3941 -0.0173
  400MOL0     O52692   2.975   8.493  11.150  0.0603 -0.1668 -0.7270
  400MOL0     C52693   3.060   8.593  11.156 -0.1962  0.5194 -0.3927
  400MOL0     C52694   3.189   8.565  11.193 -0.2191  0.0219 -0.8058
  400MOL0     C52695   3.282   8.662  11.208 -0.8745  0.0373 -0.8630
  400MOL0     C52696   3.246   8.796  11.195  0.5912  0.6954 -0.1136
  400MOL0     C52697   3.326   8.906  11.239  0.0103 -0.9181  0.6312
  400MOL0     O52698   3.326   9.021  11.165 -0.4183 -0.2810  0.9365
  400MOL0     C52699   3.434   9.104  11.177  0.7850 -0.7051 -0.2722
  400MOL0     C52700   3.404   9.236  11.217 -0.1201  0.7724  0.3673
  400MOL0     C52701   3.506   9.326  11.234 -0.7856 -0.3695  0.8338
  400MOL0     C52702   3.647   9.283  11.233  0.7409 -0.4156  0.9260
  400MOL0     O52703   3.739   9.374  11.255  0.0596  0.6288 -0.1348
  400MOL0     C52704   3.825   9.395  11.140 -0.1849 -0.7128 -0.6628
  400MOL0     C52705   3.772   9.520  11.063  0.2024  1.1826 -0.5624
  400MOL0     C52706   3.760   9.650  11.149 -0.8228  0.6539 -0.0278
  400MOL0     C52707   3.744   9.781  11.071 -0.7195 -0.1895  0.7450
  400MOL0     C52708   3.678   9.886  11.146 -0.8418 -0.3441 -0.1291
  400MOL0     C52709   3.671  10.025  11.074  0.8298 -1.1358 -0.3153
  400MOL0     C52710   3.800  10.076  10.996 -0.7763 -0.3554 -0.5145
  400MOL0     C52711   3.792  10.212  10.940 -0.1684 -0.5746 -0.4033
  400MOL0    Cl52712   3.949  10.240  10.860  0.2398 -0.0266  0.0158
  400MOL0     C52713   3.670   9.156  11.182 -0.2145  0.5280 -1.0179
  400MOL0     C52714   3.566   9.065  11.165  0.0469  0.6411  0.3337
  400MOL0     O52715   3.389   8.884  11.338 -0.9804 -0.5774  0.4593
  400MOL0     C52716   3.112   8.823  11.159 -0.2399 -0.0553  0.3556
  400MOL0     C52717   3.021   8.724  11.143  1.1259 -0.1676 -0.3794
  400MOL0     N52718   2.538   8.268  10.961  0.1955 -0.1938  0.1803
  400MOL0     N52719   2.452   8.266  10.869  0.4611  0.1874  0.3385
  400MOL0     C52720   1.431   7.565  10.496 -0.0650 -0.1091  0.8125
  400MOL0     C52721   1.298   7.591  10.487  1.1174 -0.3244 -0.4439
  400MOL0     C52722   0.897   7.810  10.640 -0.0056 -0.2996  0.0366
  400MOL0     C52723   0.856   7.846  10.509  0.6304  0.2835  0.4895
  400MOL0     C52724   0.743   7.931  10.489  0.2510  0.1215  0.4925
  400MOL0     C52725   0.668   7.977  10.593 -0.9821  0.1231 -0.5612
  400MOL0     O52726   0.561   8.062  10.569 -0.6734 -0.5775  0.2895
  400MOL0     C52727   0.432   8.004  10.592 -0.4553 -0.4832  0.2934
  400MOL0     C52728   0.396   7.862  10.534 -0.6539  0.4415 -0.5767
  400MOL0     C52729   0.371   7.868  10.386 -1.1748 -1.1556  0.5659
  400MOL0     C52730   0.321   7.743  10.326  0.2504 -0.0370 -0.7806
  400MOL0     C52731   0.427   7.640  10.314 -0.2744  0.6185  0.8516
  400MOL0     C52732   0.520   7.560  10.299  0.0701 -0.0780 -0.6620
  400MOL0     C52733   0.699   7.929  10.722  0.4272  0.0169 -0.6449
  400MOL0     C52734   0.810   7.846  10.744  0.0944 -0.5024 -0.7651
  400MOL0     H52735   1.255   7.803  10.749 -0.6481  0.2519  0.1126
  400MOL0     H52736   1.511   7.760  10.768  0.4884 -5.3753  3.1890
  400MOL0     H52737   1.634   7.712  10.377 -3.0571 -0.5968  2.1974
  400MOL0     H52738   1.755   7.584  10.430  1.2720 -0.2037  2.3058
  400MOL0     H52739   1.796   7.872  10.493  0.3025 -0.0068 -1.3799
  400MOL0     H52740   1.853   7.789  10.354  0.2885  1.3367 -0.2969
  400MOL0     H52741   1.966   7.629  10.467 -2.0992  0.0883 -0.8560
  400MOL0     H52742   1.934   7.701  10.633  0.8326  1.3432 -0.2505
  400MOL0     H52743   2.159   7.763  10.544  0.9564  2.6449 -0.8464
  400MOL0     H52744   2.065   7.875  10.430 -1.2413  4.3805  2.0088
  400MOL0     H52745   2.086   7.871  10.735 -2.0203  1.0946  1.7521
  400MOL0     H52746   1.961   7.963  10.645  0.0744  1.1779  2.5518
  400MOL0     H52747   2.126   8.104  10.540  0.3520  0.8033  0.9617
  400MOL0     H52748   2.237   7.978  10.535 -0.3446 -0.4087 -1.0171
  400MOL0     H52749   2.206   8.169  10.763  0.0560 -0.8607  2.4582
  400MOL0     H52750   2.268   7.997  10.791 -2.4295 -1.1136  0.1010
  400MOL0     H52751   2.372   8.215  10.596 -0.7942  0.5991  0.8401
  400MOL0     H52752   2.429   8.047  10.608 -0.3100  1.1528 -0.0234
  400MOL0     H52753   2.644   8.031  10.759 -1.2238  0.5637 -2.5749
  400MOL0     H52754   2.810   8.079  10.922 -2.1660 -0.4903 -1.7174
  400MOL0     H52755   2.751   8.084  11.081 -0.4953  1.8917  1.0505
  400MOL0     H52756   2.850   8.327  10.916 -3.0988 -0.8095 -1.0905
  400MOL0     H52757   2.946   8.238  11.037 -0.4543 -0.6578  0.8659
  400MOL0     H52758   2.681   8.362  11.127 -0.7770  3.0815  1.9945
  400MOL0     H52759   2.817   8.320  11.223 -1.6910  0.2552 -0.2964
  400MOL0     H52760   2.784   8.561  11.183 -0.2263  1.8465 -1.2237
  400MOL0     H52761   2.825   8.554  11.009  2.7348 -1.0462 -1.2124
  400MOL0     H52762   3.199   8.459  11.211  1.6364  0.1894 -0.6397
  400MOL0     H52763   3.373   8.632  11.259 -1.1640 -0.6498 -0.7380
  400MOL0     H52764   3.299   9.259  11.228 -0.5667 -0.6891 -0.5357
  400MOL0     H52765   3.492   9.432  11.252  1.0365 -0.0995  0.8267
  400MOL0     H52766   3.842   9.308  11.076 -1.0234 -0.9852 -0.5189
  400MOL0     H52767   3.919   9.422  11.190  1.1516  2.9460 -4.5315
  400MOL0     H52768   3.685   9.492  11.004  1.9873 -1.0639 -2.3017
  400MOL0     H52769   3.857   9.536  10.996 -0.1436  1.6105 -0.9004
  400MOL0     H52770   3.854   9.666  11.203 -1.7381  0.4270  1.7182
  400MOL0     H52771   3.678   9.653  11.222 -3.0983  5.2528 -2.3641
  400MOL0     H52772   3.845   9.811  11.040 -0.1510 -0.9116  1.7983
  400MOL0     H52773   3.687   9.759  10.981  2.2449 -2.1866 -0.8336
  400MOL0     H52774   3.745   9.906  11.231 -2.6847  1.1556  1.0503
  400MOL0     H52775   3.576   9.863  11.178 -1.2707  4.0378  2.4937
  400MOL0     H52776   3.649  10.087  11.161  1.1065 -0.4412 -0.7319
  400MOL0     H52777   3.590  10.019  11.001  1.4695  1.7824 -1.4096
  400MOL0     H52778   3.890  10.067  11.058 -0.5231  0.5710 -0.7307
  400MOL0     H52779   3.821  10.017  10.907  0.9589  2.2289 -1.9643
  400MOL0     H52780   3.782  10.287  11.019 -0.7303 -1.9998  0.9274
  400MOL0     H52781   3.699  10.228  10.885 -0.7542 -1.4558  0.2922
  400MOL0     H52782   3.774   9.127  11.186 -0.2090  0.6121  1.9613
  400MOL0     H52783   3.574   8.966  11.123  2.2210  1.1110 -0.5005
  400MOL0     H52784   3.089   8.928  11.142 -0.6696 -0.6548 -3.8649
  400MOL0     H52785   2.920   8.757  11.122  1.8355  2.6093  0.2391
  400MOL0     H52786   1.498   7.509  10.431 -1.2013  0.2085 -0.6757
  400MOL0     H52787   1.244   7.533  10.413  1.0032  1.5528 -1.9109
  400MOL0     H52788   0.882   7.791  10.418 -1.6709  2.3496 -1.5814
  400MOL0     H52789   0.697   7.950  10.393  0.5855  0.2240  0.3513
  400MOL0     H52790   0.355   8.070  10.550  1.8255  0.9328 -2.0039
  400MOL0     H52791   0.418   7.991  10.700 -0.9005 -0.1207  0.2816
  400MOL0     H52792   0.481   7.794  10.549 -1.1145 -0.2962 -1.2621
  400MOL0     H52793   0.318   7.816  10.595 -0.2254  3.1717  2.2867
  400MOL0     H52794   0.458   7.894  10.324 -1.4288  3.9435  1.9310
  400MOL0     H52795   0.297   7.947  10.371  1.4772  1.2426 -1.0077
  400MOL0     H52796   0.229   7.720  10.380  0.2602 -0.1702 -0.8194
  400MOL0     H52797   0.283   7.752  10.224 -2.1701 -3.7483 -0.4263
  400MOL0     H52798   0.603   7.494  10.282  0.3945  0.1667 -0.0635
  400MOL0     H52799   0.639   7.963  10.805 -0.6560  4.3596 -2.8820
  400MOL0     H52800   0.829   7.808  10.844 -1.1622 -3.0794 -1.4198
  401MOL0     O52801   5.639   7.677   2.174 -0.1768  0.4913 -0.5034
  401MOL0     C52802   5.539   7.722   2.239 -0.1706  1.2472  0.9071
  401MOL0     O52803   5.478   7.843   2.218 -0.1085  0.1862 -0.1311
  401MOL0     C52804   5.527   7.943   2.147 -1.1946  0.8573  0.3547
  401MOL0     C52805   5.450   8.014   2.047 -0.1141  0.7176  0.0239
  401MOL0     C52806   5.505   8.099   1.948 -0.1655  0.1052 -0.0284
  401MOL0     C52807   5.640   8.141   1.970 -0.3741  1.0375  0.1178
  401MOL0     O52808   5.694   8.227   1.872  0.0953  0.2563  0.8083
  401MOL0     C52809   5.683   8.373   1.879 -0.3540  0.1313 -0.8117
  401MOL0     C52810   5.768   8.423   1.757 -1.1075 -0.6382  0.1840
  401MOL0     C52811   5.905   8.429   1.812 -1.5711 -0.3944 -0.9148
  401MOL0     C52812   5.989   8.476   1.690  0.1876 -0.0033  1.1003
  401MOL0     C52813   6.133   8.503   1.737 -0.4314 -0.5553 -0.2560
  401MOL0     C52814   6.196   8.370   1.795  0.2903 -0.2776 -0.6182
  401MOL0     C52815   6.357   8.366   1.764  0.2566  0.4975  0.2282
  401MOL0     C52816   6.367   8.295   1.632  0.0537  0.1922 -0.3994
  401MOL0     N52817   6.497   8.315   1.571  0.8943 -0.0460 -0.5663
  401MOL0     C52818   6.606   8.237   1.593 -0.0051 -1.9780  0.9129
  401MOL0     C52819   6.705   8.296   1.512  0.2677  0.2408 -1.0533
  401MOL0     C52820   6.845   8.239   1.510  0.6250  0.4244 -0.1299
  401MOL0     C52821   6.863   8.151   1.382 -0.6783 -0.0286 -0.6601
  401MOL0     C52822   6.876   8.238   1.254 -0.3253  0.0897 -0.1728
  401MOL0     C52823   7.001   8.331   1.254  0.5597  0.6482 -0.5625
  401MOL0     O52824   7.004   8.381   1.127 -0.5622  0.0401 -0.1788
  401MOL0     C52825   6.941   8.499   1.101  0.4920  0.2907 -0.3240
  401MOL0     C52826   6.957   8.550   0.976 -0.1885  0.2556 -0.0081
  401MOL0     C52827   6.917   8.675   0.930 -0.6206 -0.9994  0.4132
  401MOL0     C52828   6.836   8.748   1.021  0.4572 -0.3014 -0.5523
  401MOL0     C52829   6.782   8.881   0.988  0.1466  0.7890  0.5893
  401MOL0     O52830   6.777   8.909   0.848  0.0201  0.3518  0.5756
  401MOL0     C52831   6.739   9.035   0.818 -0.3969  0.1939  0.2193
  401MOL0     C52832   6.829   9.121   0.753  0.0557  0.1139 -0.1953
  401MOL0     C52833   6.792   9.254   0.719 -0.2155 -0.1045  0.0855
  401MOL0     C52834   6.659   9.305   0.748  0.9045  0.2045 -0.6322
  401MOL0     O52835   6.623   9.439   0.710 -0.5598 -0.1483  0.5579
  401MOL0     C52836   6.487   9.477   0.690  0.3158  0.5688 -0.5599
  401MOL0     C52837   6.478   9.614   0.628  0.2138 -0.4024  0.0433
  401MOL0     C52838   6.570   9.703   0.711 -0.5651 -0.5796 -0.7577
  401MOL0     C52839   6.579   9.842   0.636 -0.2027  0.7820  0.5302
  401MOL0     C52840   6.660   9.839   0.503  0.0201  0.4465  1.0265
  401MOL0     C52841   6.674   9.971   0.426  0.3374 -0.1982 -0.3687
  401MOL0     C52842   6.537  10.052   0.400 -0.2157  0.1261 -0.3538
  401MOL0     C52843   6.541  10.159   0.290  0.5977  0.0057  0.5751
  401MOL0    Cl52844   6.688  10.262   0.316  0.3588 -0.0226  0.1779
  401MOL0     C52845   6.571   9.213   0.823 -0.1795 -0.6724  0.6266
  401MOL0     C52846   6.612   9.080   0.852 -0.1544 -0.5262  0.2459
  401MOL0     O52847   6.732   8.952   1.079  0.1315  0.3845 -0.3664
  401MOL0     C52848   6.812   8.700   1.157  0.6834  0.0429  0.1297
  401MOL0     C52849   6.870   8.580   1.191  0.0348 -0.1869  0.1835
  401MOL0     N52850   6.647   8.407   1.451 -0.0182  0.5391  0.5756
  401MOL0     N52851   6.524   8.416   1.491  0.1530 -0.1584 -0.1598
  401MOL0     C52852   5.718   8.084   2.071 -0.4050 -0.3040 -0.8409
  401MOL0     C52853   5.660   7.980   2.154  0.0728 -0.1052  0.0964
  401MOL0     C52854   5.477   7.623   2.335  0.6107  0.7384 -0.6304
  401MOL0     C52855   5.341   7.622   2.356  1.0816 -0.9556 -0.1162
  401MOL0     C52856   5.279   7.533   2.453 -0.0447  0.0579 -0.3310
  401MOL0     C52857   5.359   7.466   2.546  0.7527 -0.1459  0.6186
  401MOL0     O52858   5.293   7.396   2.635 -0.4499  0.3997  0.4265
  401MOL0     C52859   5.367   7.324   2.730 -1.1133  1.2316 -0.0992
  401MOL0     C52860   5.270   7.234   2.820 -0.1977 -0.6203  0.5416
  401MOL0     C52861   5.148   7.321   2.861  0.3313  1.0914 -0.3799
  401MOL0     C52862   5.179   7.451   2.928  0.5123  0.2243 -0.1922
  401MOL0     C52863   5.246   7.450   3.054  1.2351 -0.6464  0.4084
  401MOL0     C52864   5.301   7.464   3.166  0.4593  0.8186  0.6473
  401MOL0     C52865   5.496   7.475   2.528  0.9602  0.0146 -0.1165
  401MOL0     C52866   5.550   7.552   2.425 -0.6375  0.2989 -0.0229
  401MOL0     H52867   5.350   7.973   2.039  1.1117 -2.7273  0.5696
  401MOL0     H52868   5.439   8.124   1.866  2.9862  1.1961 -2.3970
  401MOL0     H52869   5.725   8.419   1.969 -0.3193  0.1721 -0.8493
  401MOL0     H52870   5.575   8.388   1.871 -1.6728 -4.5648  2.9639
  401MOL0     H52871   5.738   8.521   1.719  0.8744 -0.1798 -0.3142
  401MOL0     H52872   5.757   8.344   1.681  1.2395 -0.9744  0.1127
  401MOL0     H52873   5.933   8.336   1.862 -2.1558  0.2461  0.6916
  401MOL0     H52874   5.900   8.510   1.886 -3.6438  0.8240 -2.2854
  401MOL0     H52875   5.990   8.407   1.605 -0.3616  1.7583 -0.3976
  401MOL0     H52876   5.957   8.572   1.647 -1.6223  0.4955  3.4012
  401MOL0     H52877   6.143   8.579   1.815  0.0287  0.5170 -1.3241
  401MOL0     H52878   6.174   8.544   1.644 -1.9324 -0.2744 -0.8254
  401MOL0     H52879   6.139   8.284   1.758 -4.7078  1.4816  1.9352
  401MOL0     H52880   6.176   8.368   1.902  2.4338  0.4966 -0.1572
  401MOL0     H52881   6.413   8.459   1.777  2.0944 -0.3864 -0.9325
  401MOL0     H52882   6.395   8.301   1.843  1.5359  0.3142 -0.5235
  401MOL0     H52883   6.293   8.320   1.554 -0.2454  1.4977  0.2755
  401MOL0     H52884   6.359   8.186   1.632 -0.8994  0.0700 -4.5007
  401MOL0     H52885   6.622   8.159   1.667 -1.4746 -0.8603  2.4986
  401MOL0     H52886   6.854   8.183   1.604 -1.8604  0.7503  0.3771
  401MOL0     H52887   6.913   8.324   1.503  1.5291 -0.3752 -2.1873
  401MOL0     H52888   6.781   8.079   1.374  1.4729 -2.5197 -2.0235
  401MOL0     H52889   6.958   8.098   1.393 -0.4476 -0.0914 -2.5665
  401MOL0     H52890   6.884   8.164   1.174 -1.2997 -0.5550  0.3043
  401MOL0     H52891   6.785   8.299   1.246 -1.0108 -1.0951 -2.2364
  401MOL0     H52892   7.092   8.270   1.261  0.2665  0.2585 -0.1097
  401MOL0     H52893   6.981   8.400   1.337  0.2677  0.8490 -0.7983
  401MOL0     H52894   7.017   8.486   0.910  1.1920  2.8059 -1.3830
  401MOL0     H52895   6.949   8.708   0.832  1.4249 -0.9627  1.0524
  401MOL0     H52896   6.931   9.085   0.750 -0.0880 -0.2662 -2.1578
  401MOL0     H52897   6.870   9.325   0.694  0.2257  1.3041  4.6058
  401MOL0     H52898   6.432   9.469   0.785 -1.4201  1.7315 -1.4043
  401MOL0     H52899   6.435   9.402   0.629  1.1898 -0.9021  0.4524
  401MOL0     H52900   6.375   9.651   0.632  0.9197  2.1818 -2.0891
  401MOL0     H52901   6.503   9.620   0.521  0.3209 -0.8036  0.0438
  401MOL0     H52902   6.671   9.662   0.716 -0.4400 -0.3466 -1.2957
  401MOL0     H52903   6.521   9.715   0.808 -1.2728 -0.6515 -1.0962
  401MOL0     H52904   6.477   9.878   0.616  0.3583  1.7595 -0.7001
  401MOL0     H52905   6.629   9.914   0.701  0.1737  2.6425 -1.7054
  401MOL0     H52906   6.609   9.769   0.438  0.9406  0.7754 -0.0806
  401MOL0     H52907   6.756   9.786   0.512  1.3202  2.0110 -2.0919
  401MOL0     H52908   6.722   9.939   0.333 -1.1915 -5.7016  0.3992
  401MOL0     H52909   6.745  10.024   0.492 -1.3412 -0.4987  1.7997
  401MOL0     H52910   6.465   9.977   0.367 -1.5669  2.0814 -2.1475
  401MOL0     H52911   6.502  10.091   0.496 -0.1812 -0.3038 -0.1638
  401MOL0     H52912   6.450  10.221   0.298  1.7856  1.6102  2.9488
  401MOL0     H52913   6.535  10.116   0.190 -0.6645 -2.4558  1.6189
  401MOL0     H52914   6.476   9.242   0.866 -0.4994  1.5943 -1.3807
  401MOL0     H52915   6.547   9.016   0.911 -0.9108 -2.8766 -2.8446
  401MOL0     H52916   6.741   8.746   1.225 -4.2477 -0.3984 -4.0913
  401MOL0     H52917   6.842   8.555   1.292  3.0609  1.8184  1.6675
  401MOL0     H52918   5.818   8.125   2.086 -1.8074  2.8032  1.1461
  401MOL0     H52919   5.728   7.932   2.224  1.4686  0.8647 -0.5495
  401MOL0     H52920   5.277   7.682   2.292  2.9132 -1.9057 -3.0486
  401MOL0     H52921   5.173   7.519   2.472  0.0606 -1.1250 -0.5006
  401MOL0     H52922   5.409   7.401   2.794  2.1534 -0.0340 -0.5488
  401MOL0     H52923   5.449   7.263   2.691 -1.6821  0.6482 -0.4330
  401MOL0     H52924   5.238   7.146   2.763 -2.5722 -0.4687  1.5198
  401MOL0     H52925   5.325   7.196   2.907  3.8468 -0.8601 -1.8670
  401MOL0     H52926   5.079   7.259   2.920 -1.6829  0.6116 -3.0243
  401MOL0     H52927   5.087   7.338   2.772  1.5412 -0.9092 -1.6520
  401MOL0     H52928   5.231   7.524   2.864  0.8227 -0.5404 -0.8301
  401MOL0     H52929   5.077   7.486   2.949  0.0960 -1.6339  1.1146
  401MOL0     H52930   5.341   7.493   3.261  1.5354  0.8292  0.2115
  401MOL0     H52931   5.565   7.426   2.596 -0.0513 -0.6450  0.4746
  401MOL0     H52932   5.656   7.563   2.406 -0.7760  0.8988 -0.4813
  402MOL0     O52933   5.747  10.263   0.946  0.2299 -0.3353  0.1127
  402MOL0     C52934   5.687  10.218   0.847 -0.2055 -1.6159  0.3747
  402MOL0     O52935   5.670  10.084   0.819  0.0649  0.2637 -0.2624
  402MOL0     C52936   5.704   9.992   0.911 -0.7660  0.8880  0.1869
  402MOL0     C52937   5.767   9.880   0.861 -0.8245 -0.6046  0.1496
  402MOL0     C52938   5.808   9.770   0.949 -0.1359 -0.0516 -0.4332
  402MOL0     C52939   5.782   9.782   1.086 -0.2501  0.8975 -1.3540
  402MOL0     O52940   5.832   9.693   1.177  0.5117 -0.9527  0.0488
  402MOL0     C52941   5.916   9.588   1.123  0.3208 -0.2153  0.1721
  402MOL0     C52942   5.960   9.494   1.232  0.3086 -0.2495  0.1520
  402MOL0     C52943   6.070   9.557   1.319  0.1736  0.2576  0.0846
  402MOL0     C52944   6.138   9.453   1.417 -0.6249 -0.6146 -0.8210
  402MOL0     C52945   6.222   9.524   1.530 -0.0489  0.3120 -0.3824
  402MOL0     C52946   6.326   9.429   1.591  0.7420 -1.2608  0.5179
  402MOL0     C52947   6.438   9.402   1.481 -0.9356 -1.2174  0.2234
  402MOL0     C52948   6.567   9.362   1.544  0.4089 -0.8384 -0.0344
  402MOL0     N52949   6.676   9.349   1.445 -0.3680  0.1938 -0.2705
  402MOL0     C52950   6.695   9.258   1.350  0.1574  0.9931  0.1037
  402MOL0     C52951   6.817   9.288   1.299 -0.3252 -0.2005  0.4037
  402MOL0     C52952   6.902   9.221   1.190 -0.2329  0.4139 -0.7492
  402MOL0     C52953   6.996   9.116   1.260  0.0161 -0.3286  0.6519
  402MOL0     C52954   7.122   9.096   1.175 -0.5533 -0.0539  0.3959
  402MOL0     C52955   7.231   9.012   1.244 -0.6756  0.7283 -0.7351
  402MOL0     O52956   7.194   8.882   1.236  0.4193  0.1555 -0.5982
  402MOL0     C52957   7.285   8.774   1.267  0.5880  0.4776  0.4329
  402MOL0     C52958   7.407   8.794   1.326  0.1917 -0.1897  0.4909
  402MOL0     C52959   7.494   8.694   1.369 -0.2153 -0.6121  0.2426
  402MOL0     C52960   7.465   8.564   1.339 -0.9170 -1.0672 -0.9448
  402MOL0     C52961   7.554   8.453   1.377  0.0876 -0.8974 -0.5860
  402MOL0     O52962   7.535   8.339   1.308  0.0433  1.3436  0.0320
  402MOL0     C52963   7.618   8.230   1.331  0.3404 -0.5676 -0.3156
  402MOL0     C52964   7.622   8.132   1.229  0.1521  0.1837 -0.3265
  402MOL0     C52965   7.691   8.010   1.251  0.5265  0.3204  0.8467
  402MOL0     C52966   7.737   7.971   1.380 -0.9077 -0.1145  0.4503
  402MOL0     O52967   7.786   7.856   1.429  0.0258  0.4385 -0.2315
  402MOL0     C52968   7.807   7.750   1.337 -0.5552 -0.6660  0.0943
  402MOL0     C52969   7.870   7.644   1.427 -0.4005 -0.5439  0.1706
  402MOL0     C52970   7.894   7.511   1.360 -0.3050  0.1303 -0.1312
  402MOL0     C52971   7.982   7.426   1.447  0.2775  0.8265 -0.3536
  402MOL0     C52972   8.084   7.361   1.345  0.3397  0.0030 -0.0288
  402MOL0     C52973   8.035   7.284   1.219  0.6418 -0.2859  0.3294
  402MOL0     C52974   8.097   7.140   1.213  0.0455 -0.0541  0.2181
  402MOL0     C52975   8.113   7.086   1.066  0.1603 -0.8608 -0.6555
  402MOL0    Cl52976   8.229   7.190   0.987  0.0641 -0.6196  0.4483
  402MOL0     C52977   7.724   8.070   1.488 -0.3653  0.2165  0.1715
  402MOL0     C52978   7.665   8.191   1.463 -0.1117  0.4657  0.3189
  402MOL0     O52979   7.639   8.477   1.456  0.1803 -1.0746  0.4072
  402MOL0     C52980   7.343   8.536   1.279  0.5774 -0.5439 -0.0120
  402MOL0     C52981   7.251   8.639   1.242  0.1361 -0.6298 -0.5071
  402MOL0     N52982   6.870   9.393   1.364 -0.2262  0.2148 -0.8710
  402MOL0     N52983   6.785   9.436   1.445  0.0231 -0.1367 -0.1171
  402MOL0     C52984   5.719   9.899   1.138  0.6568 -0.0326  0.2643
  402MOL0     C52985   5.685  10.000   1.046 -0.1248 -0.1176  0.1947
  402MOL0     C52986   5.640  10.324   0.745  0.5137  0.1693 -0.4258
  402MOL0     C52987   5.659  10.458   0.760 -0.2002 -0.5853  0.0313
  402MOL0     C52988   5.618  10.552   0.660 -0.5430 -0.2704  0.1321
  402MOL0     C52989   5.563  10.508   0.537 -0.0533 -0.3933 -0.2012
  402MOL0     O52990   5.544  10.581   0.420  0.1148 -1.0062  0.0561
  402MOL0     C52991   5.600  10.716   0.404  0.8168 -0.0057  0.5807
  402MOL0     C52992   5.568  10.764   0.258 -0.8905 -0.3246 -0.1493
  402MOL0     C52993   5.421  10.777   0.228  0.0180 -0.0058  0.4779
  402MOL0     C52994   5.357  10.882   0.319  0.1457  0.0029 -0.4088
  402MOL0     C52995   5.217  10.908   0.283  0.7961  0.8775 -0.0200
  402MOL0     C52996   5.099  10.921   0.263 -0.4251 -0.4018 -0.1400
  402MOL0     C52997   5.540  10.374   0.527 -0.2766 -0.1737  0.2830
  402MOL0     C52998   5.584  10.278   0.625 -0.5866 -0.0228  0.0157
  402MOL0     H52999   5.794   9.872   0.756 -0.2440  0.2619  0.2249
  402MOL0     H53000   5.867   9.696   0.897  2.4477 -0.0889  2.2232
  402MOL0     H53001   6.004   9.629   1.073 -0.2069 -0.5907 -1.0985
  402MOL0     H53002   5.872   9.531   1.041  2.1208  0.8444 -1.6272
  402MOL0     H53003   6.005   9.411   1.176  0.8941 -2.1195  3.2038
  402MOL0     H53004   5.869   9.463   1.285  0.9720 -2.0475  0.3177
  402MOL0     H53005   6.025   9.632   1.384  2.8115 -0.7350  3.3501
  402MOL0     H53006   6.151   9.594   1.255  0.4765  0.7492  0.7411
  402MOL0     H53007   6.053   9.393   1.452 -1.0506  0.7909  0.6737
  402MOL0     H53008   6.202   9.388   1.356 -0.0600 -2.9409  2.0479
  402MOL0     H53009   6.150   9.563   1.603  2.2434  1.3273  1.4452
  402MOL0     H53010   6.255   9.619   1.486 -1.2702  0.8353 -0.2116
  402MOL0     H53011   6.280   9.335   1.624  0.3587 -0.4435  2.4249
  402MOL0     H53012   6.377   9.472   1.677 -0.5938 -1.8157  1.6306
  402MOL0     H53013   6.395   9.321   1.420 -1.9231 -0.3678 -0.2474
  402MOL0     H53014   6.449   9.496   1.426  1.7194 -1.3651  0.3697
  402MOL0     H53015   6.559   9.263   1.589 -1.7980 -1.0350 -0.7583
  402MOL0     H53016   6.592   9.438   1.620  1.5189  1.3071 -2.3972
  402MOL0     H53017   6.638   9.177   1.307  3.2341  0.4672 -3.5528
  402MOL0     H53018   6.965   9.300   1.149 -1.7776  3.3499  2.0129
  402MOL0     H53019   6.845   9.184   1.104 -0.0273 -1.6255 -0.0487
  402MOL0     H53020   6.943   9.024   1.286  1.7011 -1.4875  0.1099
  402MOL0     H53021   7.040   9.148   1.355 -1.8204 -0.3971  1.5727
  402MOL0     H53022   7.099   9.041   1.083 -2.5612  0.3605  0.6174
  402MOL0     H53023   7.159   9.188   1.128 -2.1716 -0.6447 -2.1815
  402MOL0     H53024   7.263   9.046   1.343 -0.2149  1.2776 -1.0670
  402MOL0     H53025   7.314   9.004   1.173 -0.3194 -0.1769 -0.2321
  402MOL0     H53026   7.440   8.895   1.349  3.3158 -0.5420 -1.8185
  402MOL0     H53027   7.586   8.726   1.417  0.1468  1.7154 -1.8092
  402MOL0     H53028   7.575   8.155   1.134  1.0549 -0.3765 -0.9176
  402MOL0     H53029   7.688   7.931   1.176 -0.1302  1.8248 -0.7745
  402MOL0     H53030   7.860   7.783   1.248 -4.7880 -0.8249 -2.7809
  402MOL0     H53031   7.709   7.723   1.295 -1.1281  0.2889  0.7633
  402MOL0     H53032   7.813   7.631   1.520 -2.1362  1.5363 -0.5215
  402MOL0     H53033   7.965   7.682   1.464 -1.7866  2.2745  1.1163
  402MOL0     H53034   7.945   7.533   1.266  0.5855 -0.0191  0.3121
  402MOL0     H53035   7.803   7.451   1.347 -2.5129  2.4544  2.8961
  402MOL0     H53036   8.031   7.483   1.526  2.4118  0.2005 -1.1558
  402MOL0     H53037   7.924   7.348   1.499  1.3140 -0.9557 -1.7308
  402MOL0     H53038   8.143   7.296   1.410 -1.2510 -0.9226  0.5410
  402MOL0     H53039   8.151   7.445   1.326  2.3366 -1.1984  1.3697
  402MOL0     H53040   8.038   7.330   1.120  2.2289  2.3061  1.4637
  402MOL0     H53041   7.927   7.292   1.230  0.7005  0.8446  0.2097
  402MOL0     H53042   8.191   7.137   1.269 -0.1064  0.5308  0.5161
  402MOL0     H53043   8.036   7.078   1.278 -0.0086  1.2836  1.4971
  402MOL0     H53044   8.015   7.094   1.019 -1.1688  1.0838  2.2119
  402MOL0     H53045   8.145   6.982   1.060 -0.5334 -1.0508 -5.8300
  402MOL0     H53046   7.763   8.027   1.580 -1.5827  1.5952  1.3789
  402MOL0     H53047   7.643   8.262   1.541  3.8115  2.6252 -0.2826
  402MOL0     H53048   7.317   8.432   1.259  0.6284 -0.7392  0.9118
  402MOL0     H53049   7.155   8.611   1.200 -1.1374  0.5631  1.4185
  402MOL0     H53050   5.690   9.900   1.243 -1.3261 -0.4361 -0.2314
  402MOL0     H53051   5.650  10.092   1.090  2.4745  1.1396 -0.1831
  402MOL0     H53052   5.705  10.494   0.852  0.2572  1.6757 -1.0279
  402MOL0     H53053   5.638  10.658   0.673 -0.0971 -0.3523  0.1516
  402MOL0     H53054   5.710  10.711   0.400  0.8042 -0.3193  0.5711
  402MOL0     H53055   5.552  10.781   0.477 -0.0773 -3.3246  3.2403
  402MOL0     H53056   5.603  10.865   0.239  0.4727 -0.8875 -0.7458
  402MOL0     H53057   5.619  10.698   0.187 -0.2966 -4.6764  3.7813
  402MOL0     H53058   5.359  10.688   0.239 -0.9940  0.9613  3.5761
  402MOL0     H53059   5.416  10.804   0.122  3.1024 -3.1296 -0.6376
  402MOL0     H53060   5.360  10.852   0.424 -5.0229  0.9054  0.2857
  402MOL0     H53061   5.414  10.974   0.306  0.5031 -0.3952 -1.8911
  402MOL0     H53062   4.993  10.927   0.248 -0.4441  1.7037  0.4914
  402MOL0     H53063   5.500  10.341   0.431  1.5101  2.1779 -1.3996
  402MOL0     H53064   5.581  10.170   0.616  0.9440 -0.3103  2.1652
  403MOL0     O53065   1.999   1.266  10.932 -0.5306 -0.5463 -0.3195
  403MOL0     C53066   1.937   1.189  11.006  0.3233  0.3480 -0.1399
  403MOL0     O53067   1.941   1.186  11.143  0.3337  0.6678 -0.0774
  403MOL0     C53068   2.023   1.279  11.212  0.7716  0.5825  0.5818
  403MOL0     C53069   2.133   1.236  11.305  0.1946 -0.5365 -0.7144
  403MOL0     C53070   2.197   1.344  11.376 -0.9507  0.2873 -0.5038
  403MOL0     C53071   2.161   1.478  11.354  0.3582  0.8248  0.1177
  403MOL0     O53072   2.222   1.569  11.432 -0.3683 -0.1527  0.9308
  403MOL0     C53073   2.341   1.608  11.381 -0.2099 -0.2417  0.0619
  403MOL0     C53074   2.380   1.726  11.463  0.2493 -0.5495 -0.3398
  403MOL0     C53075   2.304   1.853  11.415 -0.8302 -0.1739  0.2811
  403MOL0     C53076   2.355   1.987  11.461  1.0974  0.3865  0.9362
  403MOL0     C53077   2.307   2.023  11.610 -0.2031 -0.2325 -1.0993
  403MOL0     C53078   2.163   2.079  11.606 -0.5477 -0.5493  0.1163
  403MOL0     C53079   2.151   2.212  11.530 -0.5676 -0.2786 -0.2665
  403MOL0     C53080   2.016   2.285  11.518  1.0479  0.5675 -1.1800
  403MOL0     N53081   1.908   2.191  11.470 -1.3660 -0.1592  0.1088
  403MOL0     C53082   1.886   2.155  11.339 -0.3875  0.4423 -0.4998
  403MOL0     C53083   1.783   2.067  11.354  1.0126  0.2656  0.4365
  403MOL0     C53084   1.722   2.008  11.229  0.2219  0.0913 -0.2407
  403MOL0     C53085   1.696   1.856  11.250  0.0232 -0.8819  0.0409
  403MOL0     C53086   1.585   1.824  11.353  0.5583  0.8761  0.1261
  403MOL0     C53087   1.632   1.742  11.469 -0.8453  1.1413 -0.0598
  403MOL0     O53088   1.507   1.694  11.540  0.5222  0.6883  0.5273
  403MOL0     C53089   1.501   1.594  11.638 -0.4049  0.1663  0.3697
  403MOL0     C53090   1.374   1.567  11.696  0.4914  0.5262 -0.2428
  403MOL0     C53091   1.355   1.465  11.797  0.6941 -1.0023  0.5846
  403MOL0     C53092   1.464   1.388  11.834  0.0315  0.0891 -0.5270
  403MOL0     C53093   1.447   1.275  11.932 -0.7764 -0.4154  0.3066
  403MOL0     O53094   1.313   1.252  11.956  0.0029  0.3616 -0.3591
  403MOL0     C53095   1.259   1.202  12.082 -0.0491 -0.5348  0.3334
  403MOL0     C53096   1.312   1.228  12.208 -0.2981  0.9334 -0.3366
  403MOL0     C53097   1.245   1.195  12.328  0.4579  0.2957  0.1045
  403MOL0     C53098   1.123   1.121  12.318 -0.1197  0.1757  0.0686
  403MOL0     O53099   1.033   1.092  12.425  0.2565  0.2302  1.0049
  403MOL0     C53100   1.065   1.165  12.548 -0.6683 -0.0870 -0.9653
  403MOL0     C53101   0.967   1.148  12.657  0.3689 -0.0660 -0.7463
  403MOL0     C53102   0.955   0.995  12.679 -0.0497  0.3656 -0.2875
  403MOL0     C53103   0.880   0.961  12.812  0.5529  0.0893 -0.3342
  403MOL0     C53104   0.874   0.813  12.856 -0.9626  0.5021  0.3289
  403MOL0     C53105   0.733   0.763  12.877 -0.1875 -0.4689  0.5597
  403MOL0     C53106   0.732   0.612  12.878  1.1813 -0.2837 -0.1090
  403MOL0     C53107   0.594   0.554  12.881  0.4362  0.8369  0.4288
  403MOL0    Cl53108   0.492   0.607  12.749  0.1478 -0.2834 -0.0173
  403MOL0     C53109   1.085   1.072  12.192 -0.3708  1.2025  0.2102
  403MOL0     C53110   1.143   1.117  12.073 -0.1412 -0.6158  0.0750
  403MOL0     O53111   1.542   1.220  11.992 -0.0661 -0.4195  0.7288
  403MOL0     C53112   1.595   1.413  11.780  0.4500  0.1929  0.0082
  403MOL0     C53113   1.610   1.517  11.685 -0.4833  0.4764  0.1590
  403MOL0     N53114   1.738   2.074  11.494  0.4925 -1.2154 -0.1107
  403MOL0     N53115   1.818   2.152  11.556  0.1188  0.5769 -1.0145
  403MOL0     C53116   2.059   1.516  11.274  0.9001 -0.2504  0.0424
  403MOL0     C53117   1.984   1.420  11.207 -0.9109 -0.3700 -0.7948
  403MOL0     C53118   1.868   1.069  10.945  0.8355 -0.4641 -0.5024
  403MOL0     C53119   1.885   1.029  10.819 -0.7995  0.9482  0.5112
  403MOL0     C53120   1.812   0.918  10.777 -0.1524  1.1095  0.1594
  403MOL0     C53121   1.722   0.849  10.864  0.0824 -0.3863  1.6674
  403MOL0     O53122   1.635   0.754  10.810 -0.1769  0.4663  0.2685
  403MOL0     C53123   1.578   0.660  10.904  0.0454  0.2232 -0.3874
  403MOL0     C53124   1.536   0.522  10.860  0.2706  0.1700  0.5917
  403MOL0     C53125   1.412   0.504  10.762  0.5207 -0.4697 -0.6206
  403MOL0     C53126   1.363   0.366  10.731  0.5044  0.5081 -0.1024
  403MOL0     C53127   1.476   0.268  10.739  0.6145  0.7687  0.1751
  403MOL0     C53128   1.569   0.191  10.767  0.3697 -1.3237  0.1485
  403MOL0     C53129   1.707   0.887  10.998  0.1448 -0.5629 -0.5788
  403MOL0     C53130   1.790   0.997  11.038  0.0748  0.9501 -0.0492
  403MOL0     H53131   2.158   1.133  11.328 -2.6972 -0.6071  3.1869
  403MOL0     H53132   2.277   1.335  11.448  0.7679  2.5272 -1.9940
  403MOL0     H53133   2.346   1.625  11.273  3.7354 -1.6572 -0.1680
  403MOL0     H53134   2.424   1.538  11.399 -0.0457 -0.4577 -1.4458
  403MOL0     H53135   2.484   1.743  11.434  0.0933 -0.2355 -0.7190
  403MOL0     H53136   2.363   1.708  11.570 -2.0898 -0.6409 -0.6600
  403MOL0     H53137   2.206   1.844  11.463 -0.5395  0.0864  0.9434
  403MOL0     H53138   2.293   1.852  11.307 -2.4969  3.2705  0.2785
  403MOL0     H53139   2.464   1.986  11.466  1.1102  2.1851  2.9911
  403MOL0     H53140   2.337   2.069  11.391  4.5936  2.1218  1.8117
  403MOL0     H53141   2.377   2.101  11.643 -0.5683 -0.1837 -0.4137
  403MOL0     H53142   2.311   1.934  11.672 -0.1444 -0.8845 -2.0254
  403MOL0     H53143   2.142   2.088  11.713  1.3988 -3.0326  0.8124
  403MOL0     H53144   2.092   2.009  11.561 -1.0839 -0.3437  0.6362
  403MOL0     H53145   2.223   2.286  11.567 -0.6717 -0.2878 -0.0388
  403MOL0     H53146   2.187   2.196  11.428  2.2893  0.7071  0.4849
  403MOL0     H53147   2.023   2.380  11.464  0.0360  0.1282 -2.1114
  403MOL0     H53148   1.988   2.311  11.621 -0.6758 -1.7283 -0.9827
  403MOL0     H53149   1.940   2.191  11.253  0.0124  0.2018 -0.3538
  403MOL0     H53150   1.791   2.023  11.145  2.9262  3.3598  2.2842
  403MOL0     H53151   1.631   2.067  11.212  0.9539  1.9772  1.8749
  403MOL0     H53152   1.784   1.798  11.278 -0.4137 -1.2282  0.7469
  403MOL0     H53153   1.671   1.811  11.154  0.5436 -1.1094  0.0127
  403MOL0     H53154   1.540   1.922  11.375  0.6415  1.0513 -0.4638
  403MOL0     H53155   1.508   1.768  11.300 -0.8716  1.0978  1.8614
  403MOL0     H53156   1.687   1.810  11.535 -3.2684  0.9666  2.2919
  403MOL0     H53157   1.696   1.657  11.441 -0.9120  0.5889  1.3807
  403MOL0     H53158   1.289   1.625  11.663  0.9714  0.3922 -1.8098
  403MOL0     H53159   1.253   1.455  11.834 -0.5168  0.7598 -1.9927
  403MOL0     H53160   1.409   1.276  12.210  0.7498 -1.0578 -0.4431
  403MOL0     H53161   1.288   1.240  12.417  0.4619  2.4618 -0.9176
  403MOL0     H53162   1.064   1.269  12.515  0.4745 -0.8183 -3.5291
  403MOL0     H53163   1.161   1.129  12.586 -0.2753 -1.5198 -3.1565
  403MOL0     H53164   0.869   1.189  12.629 -1.2878 -0.4846  3.6896
  403MOL0     H53165   1.010   1.199  12.744  5.0175 -3.8945 -0.3819
  403MOL0     H53166   1.054   0.950  12.688 -0.6814 -1.0164  0.0180
  403MOL0     H53167   0.905   0.946  12.595  1.8023  0.3606 -1.4457
  403MOL0     H53168   0.925   1.023  12.889  1.6900  1.3026 -1.9173
  403MOL0     H53169   0.778   0.998  12.798  0.3711 -0.7656 -1.4869
  403MOL0     H53170   0.940   0.805  12.943 -2.2464 -0.7992  1.2172
  403MOL0     H53171   0.929   0.755  12.782  1.5781 -0.3746  2.7488
  403MOL0     H53172   0.680   0.791  12.785  0.8165  1.0237  0.3971
  403MOL0     H53173   0.688   0.802  12.969  1.7829 -2.4579  2.4878
  403MOL0     H53174   0.782   0.571  12.789  0.2328 -3.6074  0.7341
  403MOL0     H53175   0.779   0.587  12.973 -0.2866  0.1056  0.7520
  403MOL0     H53176   0.553   0.580  12.979 -1.3327  0.9450 -0.3059
  403MOL0     H53177   0.604   0.445  12.876  0.2800  0.7801  1.2334
  403MOL0     H53178   0.992   1.015  12.197 -2.3684  4.3215  2.3479
  403MOL0     H53179   1.093   1.089  11.981 -3.6879 -1.5126  2.0664
  403MOL0     H53180   1.683   1.357  11.810  0.7601  0.8492  0.3335
  403MOL0     H53181   1.714   1.541  11.661  0.7703 -0.0477  4.3120
  403MOL0     H53182   2.041   1.623  11.275  2.8874  0.2056 -2.3353
  403MOL0     H53183   1.913   1.442  11.128 -1.6130 -0.6012 -0.2441
  403MOL0     H53184   1.949   1.083  10.749  1.8043  0.6295  2.4964
  403MOL0     H53185   1.836   0.879  10.679  1.9212  1.0092  0.6638
  403MOL0     H53186   1.501   0.711  10.961 -0.2215 -0.3785 -0.1979
  403MOL0     H53187   1.660   0.642  10.975  3.0336  1.2154 -3.2861
  403MOL0     H53188   1.622   0.468  10.819 -0.5187  1.2573 -2.8241
  403MOL0     H53189   1.517   0.465  10.951  1.7086  1.0142  1.4484
  403MOL0     H53190   1.411   0.563  10.669  0.6437 -1.7550 -1.4669
  403MOL0     H53191   1.324   0.553  10.805  2.1300  2.5778 -0.4878
  403MOL0     H53192   1.283   0.329  10.796 -0.0718 -3.3319 -2.6452
  403MOL0     H53193   1.320   0.370  10.631  1.4432  1.3769 -0.4885
  403MOL0     H53194   1.646   0.126  10.804 -2.1465 -3.3347  2.3019
  403MOL0     H53195   1.632   0.850  11.067  0.4143 -0.7298 -0.3754
  403MOL0     H53196   1.766   1.024  11.140 -3.1369 -2.9727  0.4653
  404MOL0     O53197   4.106   1.885   5.708  0.2565  0.4281 -0.4349
  404MOL0     C53198   4.218   1.836   5.744 -0.1156 -0.8252  0.4615
  404MOL0     O53199   4.285   1.886   5.856 -0.0792  0.2741 -0.1744
  404MOL0     C53200   4.216   1.980   5.917 -0.1651 -0.2935  0.5409
  404MOL0     C53201   4.158   1.950   6.047 -0.8284  1.0351  1.3000
  404MOL0     C53202   4.105   2.046   6.123  0.4736 -0.2970 -0.1025
  404MOL0     C53203   4.124   2.181   6.095 -0.6383  0.1306  0.8966
  404MOL0     O53204   4.114   2.291   6.170  0.9965  0.0502  0.0269
  404MOL0     C53205   4.008   2.286   6.275 -0.5149 -0.9486 -0.3417
  404MOL0     C53206   3.970   2.429   6.327  0.5761  0.4177 -0.0130
  404MOL0     C53207   3.883   2.439   6.456 -0.4264  0.4217  0.5642
  404MOL0     C53208   3.751   2.380   6.432 -0.3182 -0.4662 -0.0390
  404MOL0     C53209   3.656   2.398   6.553  0.3260 -0.0844  0.0597
  404MOL0     C53210   3.501   2.366   6.536 -0.1078 -0.5897 -0.2385
  404MOL0     C53211   3.421   2.411   6.657  0.4871  0.4990 -0.9472
  404MOL0     C53212   3.400   2.566   6.656  0.0699 -0.2164  0.0713
  404MOL0     N53213   3.336   2.612   6.536  1.1743 -0.3149  0.2886
  404MOL0     C53214   3.236   2.542   6.471  0.3304  0.3506  0.0946
  404MOL0     C53215   3.214   2.619   6.359 -0.4716  0.1065 -0.0105
  404MOL0     C53216   3.105   2.592   6.255 -0.5605 -0.2282 -0.1471
  404MOL0     C53217   2.959   2.613   6.315  0.0214  0.6359  1.2146
  404MOL0     C53218   2.937   2.750   6.385  0.5305 -0.4208 -0.2181
  404MOL0     C53219   2.947   2.876   6.298 -0.4185 -0.7289 -0.6430
  404MOL0     O53220   2.846   2.890   6.211  0.6286 -0.1863  0.4176
  404MOL0     C53221   2.743   2.967   6.241 -0.1632 -0.1076  0.9197
  404MOL0     C53222   2.689   3.006   6.366  0.4146  0.2215  0.5556
  404MOL0     C53223   2.582   3.096   6.368  0.4464  1.1714  0.8451
  404MOL0     C53224   2.520   3.141   6.254 -0.1321  0.2364  0.2270
  404MOL0     C53225   2.405   3.218   6.274  0.2505  0.1301  0.3379
  404MOL0     O53226   2.350   3.258   6.156  0.2896 -0.1089  0.5534
  404MOL0     C53227   2.226   3.317   6.165 -0.2401 -0.1657  0.8316
  404MOL0     C53228   2.212   3.464   6.141  0.4603  1.1494 -0.2151
  404MOL0     C53229   2.095   3.535   6.150 -0.4954  0.1289  0.4287
  404MOL0     C53230   1.980   3.457   6.193 -1.3598 -0.5418 -1.0080
  404MOL0     O53231   1.878   3.535   6.189 -0.2642 -0.2120 -0.5424
  404MOL0     C53232   1.755   3.468   6.160 -0.0607  0.6390 -0.1889
  404MOL0     C53233   1.627   3.547   6.204  1.1981 -0.7665 -0.7010
  404MOL0     C53234   1.648   3.592   6.355  0.3641  0.1997  0.1579
  404MOL0     C53235   1.515   3.649   6.413  0.7854  0.6652  0.1700
  404MOL0     C53236   1.544   3.671   6.560  0.1114 -0.1110  0.2880
  404MOL0     C53237   1.417   3.731   6.628 -0.2174 -0.4856 -0.5362
  404MOL0     C53238   1.433   3.733   6.782 -0.0559 -0.2279  1.0889
  404MOL0     C53239   1.354   3.838   6.853  0.2944  0.1645 -0.1177
  404MOL0    Cl53240   1.392   4.010   6.792 -0.1634 -0.4103  0.1499
  404MOL0     C53241   1.992   3.319   6.210  0.3788  0.0462 -0.9210
  404MOL0     C53242   2.114   3.247   6.196  0.3285 -0.0112  0.3394
  404MOL0     O53243   2.353   3.226   6.387 -0.3402 -0.0858  0.6735
  404MOL0     C53244   2.568   3.089   6.129 -0.1124  0.1686  0.0460
  404MOL0     C53245   2.671   3.000   6.126 -0.3104  0.6486 -1.3870
  404MOL0     N53246   3.298   2.738   6.370  0.3389 -0.3000 -0.4511
  404MOL0     N53247   3.370   2.729   6.476 -0.2471 -0.5224  0.1985
  404MOL0     C53248   4.179   2.208   5.968  0.0727 -0.3819  0.4208
  404MOL0     C53249   4.217   2.113   5.871  0.4245 -0.4595 -0.7133
  404MOL0     C53250   4.281   1.734   5.657  0.4991 -0.2364 -0.8690
  404MOL0     C53251   4.206   1.665   5.554  0.6195 -0.1469 -0.0745
  404MOL0     C53252   4.270   1.576   5.466  0.2284 -0.5037 -0.2380
  404MOL0     C53253   4.396   1.548   5.477 -1.0379  0.1372  0.8978
  404MOL0     O53254   4.463   1.452   5.405  1.2516 -0.8745  0.0595
  404MOL0     C53255   4.442   1.450   5.263  0.7535  0.2699  0.4474
  404MOL0     C53256   4.584   1.441   5.201  0.5175 -0.1270  0.0597
  404MOL0     C53257   4.575   1.477   5.049 -0.1512  0.3097 -0.4476
  404MOL0     C53258   4.530   1.621   5.010  0.4663  1.5612  1.0345
  404MOL0     C53259   4.626   1.730   5.043  0.2942 -0.1183 -0.2684
  404MOL0     C53260   4.698   1.816   5.084  0.0321 -0.1999  0.7885
  404MOL0     C53261   4.477   1.602   5.581  0.8488 -0.0831  0.5619
  404MOL0     C53262   4.416   1.689   5.673 -0.0221 -0.3562 -0.2173
  404MOL0     H53263   4.152   1.854   6.099 -3.4006  1.5413  2.0873
  404MOL0     H53264   4.072   2.002   6.217  1.6550 -0.0839  0.4371
  404MOL0     H53265   4.049   2.226   6.357  1.2675  2.8112  1.8152
  404MOL0     H53266   3.919   2.246   6.226  0.1319 -1.2300 -1.2989
  404MOL0     H53267   3.918   2.486   6.249  0.3283 -1.8599 -1.5997
  404MOL0     H53268   4.066   2.479   6.345  1.2055 -0.0395 -1.9079
  404MOL0     H53269   3.871   2.541   6.493 -0.5823  0.4572  0.4194
  404MOL0     H53270   3.941   2.387   6.533 -0.5696  0.2806  0.5770
  404MOL0     H53271   3.712   2.435   6.346  1.2517 -0.7127 -0.9392
  404MOL0     H53272   3.768   2.276   6.405 -2.0553 -0.4803 -1.2513
  404MOL0     H53273   3.655   2.506   6.570  0.6592  0.3052 -2.1263
  404MOL0     H53274   3.686   2.346   6.645 -0.7303  0.6760  0.8579
  404MOL0     H53275   3.491   2.259   6.515  2.2316 -1.3892  2.2397
  404MOL0     H53276   3.467   2.423   6.449 -1.4998 -0.1546  0.5525
  404MOL0     H53277   3.331   2.349   6.662 -1.3835  2.8974 -2.3039
  404MOL0     H53278   3.491   2.397   6.740  1.4844  1.8614 -1.5205
  404MOL0     H53279   3.484   2.622   6.697  2.3151 -2.3226 -1.3138
  404MOL0     H53280   3.321   2.569   6.731  0.2215 -0.9611  0.2736
  404MOL0     H53281   3.179   2.453   6.495 -2.9454  1.5380 -2.4969
  404MOL0     H53282   3.115   2.494   6.207  0.3241 -0.2640  0.0769
  404MOL0     H53283   3.131   2.651   6.168  1.0181 -0.8743 -0.1561
  404MOL0     H53284   2.925   2.525   6.372 -2.4164  0.6931 -0.0256
  404MOL0     H53285   2.889   2.606   6.232 -0.1925  4.5932  0.8778
  404MOL0     H53286   2.833   2.754   6.416  0.2681  2.1102 -1.1804
  404MOL0     H53287   2.998   2.764   6.475  1.8527 -3.0574 -0.6257
  404MOL0     H53288   3.041   2.869   6.242  1.3034  1.7208  1.7085
  404MOL0     H53289   2.961   2.964   6.360  0.3725 -2.7496  2.2886
  404MOL0     H53290   2.745   2.984   6.456  0.5518  2.4389  1.0598
  404MOL0     H53291   2.552   3.121   6.470  3.5983  0.3450  2.1098
  404MOL0     H53292   2.305   3.515   6.121  0.6874  0.9811  0.3924
  404MOL0     H53293   2.077   3.642   6.150 -0.7738  0.0861  1.1089
  404MOL0     H53294   1.739   3.370   6.207  2.4038  0.5787  0.6979
  404MOL0     H53295   1.747   3.449   6.053  1.7407 -2.3433  0.0939
  404MOL0     H53296   1.548   3.473   6.188  2.7125 -2.2927 -1.5677
  404MOL0     H53297   1.610   3.635   6.142  0.5146 -0.5440 -0.2137
  404MOL0     H53298   1.734   3.659   6.365  0.5951  0.2202 -1.6729
  404MOL0     H53299   1.658   3.509   6.426 -1.6440  1.6095  2.2182
  404MOL0     H53300   1.487   3.742   6.363 -2.0159  0.0964  0.5054
  404MOL0     H53301   1.438   3.572   6.409 -0.2255  1.6387  0.2478
  404MOL0     H53302   1.627   3.741   6.570  2.4090 -2.6985  0.6357
  404MOL0     H53303   1.567   3.579   6.615  2.6477  0.2899 -0.0037
  404MOL0     H53304   1.328   3.674   6.599 -1.9493  1.7524  0.1211
  404MOL0     H53305   1.398   3.831   6.589  1.1023 -1.0574 -2.8060
  404MOL0     H53306   1.402   3.638   6.826  1.6816 -1.7446 -0.8129
  404MOL0     H53307   1.540   3.738   6.802 -0.3014  2.7854  2.2784
  404MOL0     H53308   1.361   3.829   6.962 -3.5620  0.2734  0.2939
  404MOL0     H53309   1.249   3.830   6.823  0.8151 -0.1666 -1.9959
  404MOL0     H53310   1.904   3.257   6.225  0.3202 -0.2724 -2.4834
  404MOL0     H53311   2.127   3.140   6.206  1.3858  0.1982  1.3540
  404MOL0     H53312   2.510   3.113   6.040 -2.9092  0.6925  1.9149
  404MOL0     H53313   2.711   2.959   6.033  4.5974  2.9702 -0.6509
  404MOL0     H53314   4.207   2.308   5.937  2.2465 -1.6280 -1.9525
  404MOL0     H53315   4.260   2.153   5.780 -3.6180  1.3700 -2.0566
  404MOL0     H53316   4.099   1.681   5.554  0.8707  2.5141  2.8243
  404MOL0     H53317   4.209   1.522   5.394 -1.6231 -0.3352  1.1541
  404MOL0     H53318   4.385   1.536   5.228 -3.1144 -0.8038  3.3787
  404MOL0     H53319   4.389   1.364   5.222 -0.1276 -0.9793  3.8115
  404MOL0     H53320   4.654   1.504   5.255  1.4693 -0.6553 -0.5377
  404MOL0     H53321   4.631   1.344   5.215  1.9445  0.4241 -0.7172
  404MOL0     H53322   4.505   1.414   4.994  0.7619 -0.3205 -0.9201
  404MOL0     H53323   4.671   1.464   4.999 -0.9670  1.8012 -2.5645
  404MOL0     H53324   4.524   1.616   4.901  0.1181 -0.1824  1.1117
  404MOL0     H53325   4.435   1.651   5.054 -0.3955  1.2798 -0.5514
  404MOL0     H53326   4.755   1.900   5.118 -1.9330  1.5792 -0.0690
  404MOL0     H53327   4.581   1.583   5.604  1.3728  3.1771  1.3896
  404MOL0     H53328   4.484   1.732   5.745 -0.3268 -2.0562  1.1573
  405MOL0     O53329   0.886   7.385   4.818 -0.0481  0.4664  1.3535
  405MOL0     C53330   0.784   7.355   4.752  0.6426 -0.0278  0.0806
  405MOL0     O53331   0.675   7.438   4.742 -0.6893 -0.5921  0.5662
  405MOL0     C53332   0.688   7.565   4.799 -0.9221  0.1677 -0.3130
  405MOL0     C53333   0.677   7.682   4.722 -0.4632  0.7304  0.2713
  405MOL0     C53334   0.694   7.803   4.780 -0.2582 -0.0623  0.9233
  405MOL0     C53335   0.717   7.822   4.911 -0.6670 -0.1652 -0.6814
  405MOL0     O53336   0.755   7.951   4.946 -0.1196  0.1543  0.5824
  405MOL0     C53337   0.785   7.977   5.081  0.1389  1.2089  0.0861
  405MOL0     C53338   0.872   8.099   5.097 -0.1069 -0.8006 -0.3340
  405MOL0     C53339   0.850   8.209   4.991 -0.4050  0.1200  0.3130
  405MOL0     C53340   0.922   8.336   5.037 -0.2306 -0.6680 -0.3060
  405MOL0     C53341   0.877   8.453   4.940  0.0955  1.2647  0.4282
  405MOL0     C53342   0.905   8.597   5.003  0.4298 -0.3931  0.5297
  405MOL0     C53343   1.051   8.631   5.042  0.1669  1.3855  0.8118
  405MOL0     C53344   1.061   8.774   5.092 -0.1402  0.9019  0.2330
  405MOL0     N53345   1.189   8.778   5.163  0.0251 -0.0500  0.0778
  405MOL0     C53346   1.211   8.750   5.292 -0.8074  0.4006  0.9459
  405MOL0     C53347   1.346   8.757   5.307  0.6430 -0.6588 -0.3733
  405MOL0     C53348   1.404   8.750   5.452 -0.3148 -0.1618 -0.1544
  405MOL0     C53349   1.371   8.616   5.521  1.0441  0.7228  0.2773
  405MOL0     C53350   1.415   8.483   5.443  0.1208  0.0376  0.4342
  405MOL0     C53351   1.544   8.437   5.495 -0.3570  0.2092  0.4676
  405MOL0     O53352   1.643   8.537   5.463  0.1431 -0.4689 -0.2802
  405MOL0     C53353   1.756   8.563   5.540  0.1562  0.6644 -0.6533
  405MOL0     C53354   1.802   8.688   5.519  0.6312  0.2335  0.4859
  405MOL0     C53355   1.898   8.737   5.607 -0.2063 -0.6367  1.7656
  405MOL0     C53356   1.943   8.673   5.729  0.1627 -0.5525 -0.1259
  405MOL0     C53357   2.039   8.721   5.818  0.0720 -0.3517  0.6857
  405MOL0     O53358   2.097   8.646   5.903  0.8615 -0.1262  0.4178
  405MOL0     C53359   2.196   8.689   5.983  0.1438  0.3791  0.3430
  405MOL0     C53360   2.185   8.813   6.050  0.3917 -0.1186  0.6865
  405MOL0     C53361   2.283   8.867   6.122 -0.3298 -0.3396 -0.6595
  405MOL0     C53362   2.405   8.796   6.129 -0.5304 -0.1431 -0.6963
  405MOL0     O53363   2.501   8.867   6.199 -0.1092  0.2148  0.5247
  405MOL0     C53364   2.633   8.811   6.235  0.3947  0.6851  0.1279
  405MOL0     C53365   2.716   8.925   6.306  0.7432  0.6197  0.6616
  405MOL0     C53366   2.648   8.964   6.440  0.4183  0.3539  1.6093
  405MOL0     C53367   2.618   9.118   6.439  0.3760  0.3311  0.0429
  405MOL0     C53368   2.563   9.193   6.562 -0.5618  0.2660  0.3524
  405MOL0     C53369   2.411   9.198   6.566 -0.0936  0.3535  0.2837
  405MOL0     C53370   2.366   9.242   6.708 -0.0082 -0.0099 -0.4117
  405MOL0     C53371   2.233   9.176   6.750  0.2702  0.1599  0.0883
  405MOL0    Cl53372   2.103   9.205   6.628  0.1782 -0.2610 -0.0195
  405MOL0     C53373   2.428   8.678   6.061 -0.3444 -0.3419 -0.0517
  405MOL0     C53374   2.316   8.619   5.989 -1.3238  0.0933 -0.1477
  405MOL0     O53375   2.051   8.845   5.811  0.0451 -0.4965 -0.1714
  405MOL0     C53376   1.878   8.550   5.745 -0.3515  0.3902 -0.1836
  405MOL0     C53377   1.790   8.492   5.659  0.2274 -0.5635 -0.6425
  405MOL0     N53378   1.399   8.781   5.182  0.3653  1.1226  0.6695
  405MOL0     N53379   1.306   8.785   5.100 -0.6554  0.9631 -0.6327
  405MOL0     C53380   0.715   7.711   4.990  0.2027  0.0970 -0.4666
  405MOL0     C53381   0.702   7.583   4.935  0.4586  0.9478  0.1704
  405MOL0     C53382   0.785   7.240   4.668  0.3076 -0.4841  0.0274
  405MOL0     C53383   0.909   7.177   4.644  0.3254  0.0878 -0.0221
  405MOL0     C53384   0.908   7.075   4.549  0.1215  0.0435 -0.1719
  405MOL0     C53385   0.801   7.038   4.479 -0.2616  0.0994  0.1941
  405MOL0     O53386   0.818   6.934   4.391 -0.0870 -0.3126 -0.1462
  405MOL0     C53387   0.709   6.871   4.316 -0.5079  0.6767 -0.1867
  405MOL0     C53388   0.683   6.949   4.186 -1.0416 -0.4081 -0.4847
  405MOL0     C53389   0.808   6.970   4.093  0.3907 -0.2539 -0.2647
  405MOL0     C53390   0.886   6.850   4.047 -0.2783  0.7625  0.5811
  405MOL0     C53391   0.791   6.745   3.996  0.3483 -0.3724 -0.9052
  405MOL0     C53392   0.719   6.664   3.959  0.0502  0.8844 -0.9043
  405MOL0     C53393   0.676   7.088   4.510 -0.3306  0.9123  1.2496
  405MOL0     C53394   0.664   7.184   4.614  0.1427 -0.2551  0.3369
  405MOL0     H53395   0.663   7.675   4.614  0.8502  0.8779  0.0777
  405MOL0     H53396   0.681   7.894   4.722  1.7837 -1.2938 -1.6849
  405MOL0     H53397   0.827   7.893   5.136  0.2348  0.3610 -1.2468
  405MOL0     H53398   0.689   7.994   5.131  1.3660  1.8657  2.3581
  405MOL0     H53399   0.977   8.071   5.106 -0.4176 -1.3483  2.9735
  405MOL0     H53400   0.842   8.152   5.188  3.3946  1.9081 -0.4927
  405MOL0     H53401   0.743   8.230   4.991 -0.5628 -0.6372 -0.2550
  405MOL0     H53402   0.874   8.174   4.890 -4.6200 -1.1798 -0.4239
  405MOL0     H53403   0.902   8.354   5.143  1.3376 -1.5985  0.1889
  405MOL0     H53404   1.030   8.322   5.026 -0.2157 -0.9808  0.2042
  405MOL0     H53405   0.768   8.453   4.924  0.3246  2.5869 -1.4251
  405MOL0     H53406   0.931   8.429   4.848 -1.3129 -1.6251  0.2402
  405MOL0     H53407   0.850   8.603   5.098 -2.5343 -0.2875 -1.0525
  405MOL0     H53408   0.863   8.673   4.937  1.6374  0.6923  0.9864
  405MOL0     H53409   1.091   8.556   5.111  0.0490  0.2019 -0.3705
  405MOL0     H53410   1.111   8.623   4.950  0.2331  4.2149  0.5078
  405MOL0     H53411   0.983   8.805   5.163  2.0954  3.5598  1.7435
  405MOL0     H53412   1.057   8.848   5.011  3.0370  0.5605 -0.3603
  405MOL0     H53413   1.134   8.740   5.367 -1.1682  1.0125  0.6686
  405MOL0     H53414   1.379   8.838   5.513 -0.8938  0.6315 -1.4831
  405MOL0     H53415   1.513   8.766   5.451 -0.0861 -1.1296  2.0650
  405MOL0     H53416   1.262   8.616   5.536  1.2106  0.5587  1.5702
  405MOL0     H53417   1.387   8.629   5.628 -5.3928 -0.5732  1.8678
  405MOL0     H53418   1.341   8.403   5.452 -2.6944  2.0153 -2.5944
  405MOL0     H53419   1.420   8.504   5.336 -1.5681  2.3382  0.7266
  405MOL0     H53420   1.574   8.347   5.441  0.5266  0.1655  1.0047
  405MOL0     H53421   1.542   8.417   5.603 -1.8322  0.7509  0.5679
  405MOL0     H53422   1.778   8.743   5.428  3.0488 -1.4026 -1.2758
  405MOL0     H53423   1.938   8.834   5.578  1.5118 -1.9567 -0.6099
  405MOL0     H53424   2.098   8.878   6.045 -0.3162 -0.9400  1.8546
  405MOL0     H53425   2.257   8.957   6.176 -0.3416 -0.7980  0.1193
  405MOL0     H53426   2.695   8.783   6.150  0.3786  3.0242 -0.7384
  405MOL0     H53427   2.620   8.723   6.299  5.9172 -0.6158 -0.0876
  405MOL0     H53428   2.732   9.011   6.240  1.0488 -1.5768 -2.3231
  405MOL0     H53429   2.808   8.872   6.327 -0.9644 -1.6010  3.0871
  405MOL0     H53430   2.714   8.932   6.521  1.3017 -3.3298 -0.3721
  405MOL0     H53431   2.561   8.899   6.454  1.1909 -1.2765 -0.6235
  405MOL0     H53432   2.718   9.161   6.430 -0.7575  2.9368 -1.0916
  405MOL0     H53433   2.549   9.148   6.360 -0.2821  3.3938  1.6292
  405MOL0     H53434   2.604   9.294   6.568 -3.7530  1.5679  3.0533
  405MOL0     H53435   2.601   9.131   6.645  0.0214 -0.9503 -0.7924
  405MOL0     H53436   2.379   9.094   6.552 -3.5110  1.0564  1.8550
  405MOL0     H53437   2.371   9.269   6.494 -3.2388 -0.2535  1.2881
  405MOL0     H53438   2.448   9.209   6.772  0.2333 -1.5654 -1.4593
  405MOL0     H53439   2.365   9.351   6.718  1.2475  0.0697 -0.9561
  405MOL0     H53440   2.198   9.206   6.850 -2.0611  1.9149 -1.1593
  405MOL0     H53441   2.247   9.067   6.757 -0.5768  0.0379 -0.0191
  405MOL0     H53442   2.521   8.625   6.079 -0.7178 -0.2803  2.4481
  405MOL0     H53443   2.319   8.523   5.938  0.4036 -0.0875  0.2030
  405MOL0     H53444   1.903   8.489   5.832  2.0971  2.7004  0.8606
  405MOL0     H53445   1.749   8.397   5.693  1.3036 -0.9292 -0.3549
  405MOL0     H53446   0.716   7.715   5.098 -2.3184 -2.4099 -0.2113
  405MOL0     H53447   0.698   7.492   4.994  2.5721  0.9177  0.3156
  405MOL0     H53448   0.991   7.207   4.709 -0.2972  2.7065 -0.3222
  405MOL0     H53449   0.999   7.016   4.536  0.2222 -1.4401  4.8312
  405MOL0     H53450   0.625   6.847   4.382 -0.8355 -1.9275 -1.4158
  405MOL0     H53451   0.739   6.769   4.290 -1.2312  0.7654 -1.4609
  405MOL0     H53452   0.606   6.891   4.134 -2.0903 -1.8912  2.5048
  405MOL0     H53453   0.636   7.045   4.212  1.4327  1.0925 -1.1573
  405MOL0     H53454   0.881   7.034   4.141  1.4137 -0.9149 -0.8954
  405MOL0     H53455   0.779   7.032   4.008 -0.4722 -1.7193 -1.1000
  405MOL0     H53456   0.948   6.868   3.959 -2.8732  0.0053 -1.5252
  405MOL0     H53457   0.954   6.805   4.120 -0.0236 -2.4939 -1.4738
  405MOL0     H53458   0.654   6.588   3.922 -2.2363  0.7831  2.8077
  405MOL0     H53459   0.604   7.059   4.434  1.5840 -2.3655  0.4948
  405MOL0     H53460   0.564   7.221   4.634 -0.5235 -2.2293  0.8622
  406MOL0     O53461   5.558   8.620   4.850  0.7546 -0.0755 -0.0115
  406MOL0     C53462   5.572   8.738   4.852 -0.0041 -1.0032  0.1300
  406MOL0     O53463   5.502   8.827   4.784  0.2452 -0.0460  0.7265
  406MOL0     C53464   5.424   8.759   4.690  0.4046 -0.1634 -0.8754
  406MOL0     C53465   5.281   8.744   4.712  0.6245 -0.3923  0.1516
  406MOL0     C53466   5.206   8.675   4.613  0.3449 -0.4066  0.6230
  406MOL0     C53467   5.261   8.634   4.489 -0.2501 -0.4554  0.0663
  406MOL0     O53468   5.177   8.567   4.405  0.0597  0.2774  0.4028
  406MOL0     C53469   5.219   8.547   4.269 -0.7179 -0.0318  0.6166
  406MOL0     C53470   5.104   8.507   4.177 -0.2715  0.6826  0.9732
  406MOL0     C53471   5.157   8.442   4.043 -0.2746 -1.2398 -0.7794
  406MOL0     C53472   5.046   8.398   3.945 -0.3038  0.2555 -0.1710
  406MOL0     C53473   4.974   8.503   3.867  0.3562  0.2155 -0.5233
  406MOL0     C53474   5.064   8.552   3.744 -0.3473 -0.7591  0.4898
  406MOL0     C53475   5.001   8.662   3.657 -0.0301 -0.6480 -0.5773
  406MOL0     C53476   4.960   8.788   3.738  1.1914  0.2137  0.5352
  406MOL0     N53477   4.926   8.911   3.663  0.5102  0.4203 -0.0736
  406MOL0     C53478   4.808   8.931   3.588 -0.6470  0.4981  0.4242
  406MOL0     C53479   4.830   9.043   3.517 -0.1877 -0.5050 -1.0480
  406MOL0     C53480   4.740   9.092   3.407  0.0848 -0.7926 -0.2154
  406MOL0     C53481   4.791   9.071   3.265 -0.3003 -0.5589  0.4764
  406MOL0     C53482   4.745   8.928   3.207  0.3257 -0.3201 -0.0135
  406MOL0     C53483   4.752   8.925   3.045 -0.0327  0.2911 -0.4781
  406MOL0     O53484   4.874   8.984   3.006  0.1432 -1.0030  0.3095
  406MOL0     C53485   4.913   9.007   2.880  0.0340  0.9738  1.9478
  406MOL0     C53486   5.049   9.053   2.851  0.3130 -0.7986  0.1528
  406MOL0     C53487   5.085   9.069   2.722 -0.5352  0.8511  0.8340
  406MOL0     C53488   4.996   9.062   2.612  0.1495  0.2272  0.7278
  406MOL0     C53489   5.041   9.091   2.476 -1.4364  0.6560  0.4774
  406MOL0     O53490   5.167   9.141   2.464 -0.6869 -0.1527  0.0603
  406MOL0     C53491   5.211   9.167   2.343  1.0535 -0.5896  0.4056
  406MOL0     C53492   5.148   9.267   2.264 -0.1672 -0.0640 -0.3016
  406MOL0     C53493   5.212   9.299   2.141 -0.5450  1.1142  0.1446
  406MOL0     C53494   5.328   9.237   2.099  1.0243  0.0231  1.0664
  406MOL0     O53495   5.377   9.284   1.976  1.1344 -0.0488 -0.1353
  406MOL0     C53496   5.526   9.285   1.967 -0.2430  0.1492 -0.3235
  406MOL0     C53497   5.541   9.392   1.855 -0.7426  0.2335  0.0263
  406MOL0     C53498   5.499   9.537   1.885 -0.2780 -0.7317 -0.4842
  406MOL0     C53499   5.568   9.604   2.004 -0.0180 -0.2572 -0.5967
  406MOL0     C53500   5.536   9.748   2.004 -0.1021 -0.6259 -0.3717
  406MOL0     C53501   5.636   9.816   2.092  0.6274 -0.4924 -0.2537
  406MOL0     C53502   5.629   9.971   2.105  0.8111  0.0666  0.4249
  406MOL0     C53503   5.716  10.028   2.217  0.8718 -0.6831 -1.0508
  406MOL0    Cl53504   5.886   9.996   2.189 -0.2425  0.2280  0.8159
  406MOL0     C53505   5.385   9.139   2.174 -0.1634  1.0862  0.1683
  406MOL0     C53506   5.320   9.097   2.292 -0.5949  0.1386 -0.2891
  406MOL0     O53507   4.957   9.076   2.387  0.1442  0.1752 -0.3710
  406MOL0     C53508   4.861   9.028   2.644  0.1993  0.8783 -0.1896
  406MOL0     C53509   4.825   8.993   2.779  0.4624 -0.5106  0.9551
  406MOL0     N53510   4.950   9.093   3.558  0.0308 -0.5243  0.4582
  406MOL0     N53511   5.012   9.014   3.642 -0.3402  0.5851 -0.2231
  406MOL0     C53512   5.399   8.660   4.474  1.1258  0.8352  0.2156
  406MOL0     C53513   5.478   8.721   4.570 -0.8598 -0.3739 -0.5777
  406MOL0     C53514   5.683   8.782   4.926 -0.1012 -0.0002  0.8517
  406MOL0     C53515   5.696   8.919   4.967 -0.1372 -0.1128  0.8372
  406MOL0     C53516   5.803   8.965   5.042 -0.8771  0.6253  0.2079
  406MOL0     C53517   5.912   8.879   5.079 -0.0394 -1.1163  0.2773
  406MOL0     O53518   6.027   8.914   5.150  0.2530 -0.8489 -0.1069
  406MOL0     C53519   6.014   9.041   5.218  0.3717  0.6392  0.7331
  406MOL0     C53520   6.099   9.059   5.341  0.1627  0.0626 -0.4586
  406MOL0     C53521   6.185   9.192   5.343 -0.4532  0.4985 -0.4064
  406MOL0     C53522   6.316   9.174   5.277  0.1546 -0.8544  1.1677
  406MOL0     C53523   6.424   9.153   5.373 -0.1395 -0.9798 -0.7466
  406MOL0     C53524   6.511   9.122   5.455 -0.3067  1.0257 -0.0310
  406MOL0     C53525   5.895   8.744   5.051  0.4188 -0.4436  0.0506
  406MOL0     C53526   5.791   8.697   4.974  0.7514  0.1029 -1.1761
  406MOL0     H53527   5.240   8.774   4.808  0.8790  1.4561 -0.2774
  406MOL0     H53528   5.103   8.650   4.636 -0.1393  1.9119  1.2591
  406MOL0     H53529   5.297   8.470   4.277 -3.0231 -2.5955  0.0034
  406MOL0     H53530   5.267   8.640   4.237 -2.1504  1.0924  1.5787
  406MOL0     H53531   5.049   8.599   4.154 -3.3051 -1.9074 -3.9333
  406MOL0     H53532   5.043   8.436   4.234 -0.6991 -0.2599 -0.5921
  406MOL0     H53533   5.215   8.357   4.080  2.0672 -0.4255 -2.3531
  406MOL0     H53534   5.234   8.489   3.981 -0.8212  3.1299  1.4983
  406MOL0     H53535   5.084   8.326   3.873  1.3619  0.6618  0.2440
  406MOL0     H53536   4.965   8.343   3.993  1.7456 -1.3877  1.6268
  406MOL0     H53537   4.956   8.588   3.934 -2.0019 -0.0352 -0.7778
  406MOL0     H53538   4.878   8.462   3.837 -0.6504  1.6198  0.5940
  406MOL0     H53539   5.089   8.470   3.676  0.4639 -1.7000  1.8832
  406MOL0     H53540   5.159   8.592   3.780 -0.9765  0.8721  0.4459
  406MOL0     H53541   5.079   8.690   3.586  2.0019 -0.7020  1.5346
  406MOL0     H53542   4.914   8.631   3.597  0.1569 -2.6250  0.0837
  406MOL0     H53543   5.050   8.816   3.793  0.9763  0.2859  0.8537
  406MOL0     H53544   4.875   8.762   3.802 -1.0413  0.7615 -2.0244
  406MOL0     H53545   4.728   8.858   3.576  1.4001 -1.8135  0.0417
  406MOL0     H53546   4.738   9.198   3.434  1.1338  0.0266 -3.0272
  406MOL0     H53547   4.636   9.061   3.425 -0.7105  1.8047  0.0813
  406MOL0     H53548   4.901   9.064   3.263 -0.3357 -1.3165 -1.4191
  406MOL0     H53549   4.774   9.155   3.198 -0.5310 -0.3581  0.7856
  406MOL0     H53550   4.808   8.848   3.247 -2.6721 -2.2548  1.2069
  406MOL0     H53551   4.643   8.906   3.240  0.0918 -3.6537 -2.3750
  406MOL0     H53552   4.664   8.985   3.019 -0.0215  3.7225  5.4305
  406MOL0     H53553   4.730   8.830   2.997 -0.4014  1.2536 -2.3216
  406MOL0     H53554   5.105   9.081   2.939 -3.0837  1.3495  1.8170
  406MOL0     H53555   5.185   9.095   2.689 -0.0829 -0.1937  1.3358
  406MOL0     H53556   5.061   9.323   2.299 -0.4482 -1.7531  1.8818
  406MOL0     H53557   5.168   9.374   2.076  1.4903  0.1737 -2.5081
  406MOL0     H53558   5.550   9.185   1.933  0.5968 -0.2380  1.2960
  406MOL0     H53559   5.585   9.311   2.056  0.2468  0.0684 -0.6230
  406MOL0     H53560   5.489   9.356   1.765  0.6472 -0.6859 -0.4454
  406MOL0     H53561   5.647   9.385   1.827 -0.3240  0.6248  1.4682
  406MOL0     H53562   5.393   9.544   1.910  0.0727  0.4241  0.8139
  406MOL0     H53563   5.537   9.603   1.806  1.0686 -1.2955 -0.3366
  406MOL0     H53564   5.531   9.548   2.091 -1.5766  0.8756 -0.4826
  406MOL0     H53565   5.676   9.590   1.996 -0.0393 -0.1624 -1.1297
  406MOL0     H53566   5.439   9.757   2.055  1.0030  0.3582  1.6675
  406MOL0     H53567   5.529   9.807   1.912 -0.3636 -0.7994 -0.4656
  406MOL0     H53568   5.739   9.808   2.056  1.0689 -2.3371  1.2540
  406MOL0     H53569   5.620   9.774   2.192  1.3630  0.2925  0.2109
  406MOL0     H53570   5.679  10.025   2.024 -2.4550  3.4517  0.4033
  406MOL0     H53571   5.526  10.007   2.103 -0.0756 -2.1835  1.3007
  406MOL0     H53572   5.684   9.988   2.314 -0.6311 -1.8646 -1.9951
  406MOL0     H53573   5.701  10.136   2.220 -0.5939 -0.8239 -2.1148
  406MOL0     H53574   5.476   9.086   2.148 -0.4096 -0.2356  1.8301
  406MOL0     H53575   5.367   9.017   2.348 -1.7845 -1.4241 -1.4093
  406MOL0     H53576   4.784   9.017   2.568 -0.1995 -2.2472  0.5312
  406MOL0     H53577   4.720   8.967   2.794  0.5424 -0.2245  2.1263
  406MOL0     H53578   5.459   8.625   4.390  0.8472 -0.9368  0.7237
  406MOL0     H53579   5.583   8.742   4.557 -0.7130  1.5641  2.6835
  406MOL0     H53580   5.620   8.993   4.943  2.7348  2.7583 -0.1681
  406MOL0     H53581   5.798   9.065   5.084 -1.6980 -0.2608  2.3525
  406MOL0     H53582   5.910   9.042   5.252  0.2265 -4.5563  1.3661
  406MOL0     H53583   6.033   9.117   5.142  0.1770 -2.0976 -2.2832
  406MOL0     H53584   6.033   9.054   5.428 -0.4533 -1.3266 -0.9881
  406MOL0     H53585   6.168   8.975   5.353  1.4478  1.0040 -1.0196
  406MOL0     H53586   6.207   9.220   5.447  2.0143 -1.0876 -0.4018
  406MOL0     H53587   6.123   9.274   5.307 -1.8281 -0.4167 -0.1893
  406MOL0     H53588   6.307   9.082   5.217  0.1120  0.8121 -1.5285
  406MOL0     H53589   6.347   9.254   5.209 -1.3281 -0.8070  0.4858
  406MOL0     H53590   6.585   9.105   5.531  0.5053 -2.5477 -1.4041
  406MOL0     H53591   5.974   8.678   5.086  1.5456 -0.3145 -2.0738
  406MOL0     H53592   5.795   8.590   4.955  1.8866  0.5863 -4.2255
  407MOL0     O53593   4.258  10.991   4.907  0.1114 -0.3282  0.1690
  407MOL0     C53594   4.229  11.112   4.908 -0.0460 -0.0908  0.8435
  407MOL0     O53595   4.194  11.188   4.796 -0.3052 -0.1927  0.7066
  407MOL0     C53596   4.135  11.121   4.692 -0.0756  0.7766  0.1808
  407MOL0     C53597   4.197  11.136   4.567  0.2836 -0.0633 -0.8854
  407MOL0     C53598   4.133  11.085   4.451 -0.1102  0.4764  0.3808
  407MOL0     C53599   4.009  11.022   4.464 -0.4555 -0.0278 -0.0360
  407MOL0     O53600   3.925  10.984   4.365 -0.4449 -0.1292  0.0482
  407MOL0     C53601   3.912  11.058   4.241 -0.3640  0.0717 -0.3454
  407MOL0     C53602   3.976  10.985   4.124  0.3473  0.8232 -0.0393
  407MOL0     C53603   3.880  10.867   4.072 -0.3483 -0.9167 -0.8005
  407MOL0     C53604   3.748  10.914   4.011  0.6112 -0.2706  0.4367
  407MOL0     C53605   3.621  10.855   4.074  0.1067 -0.1495  0.4286
  407MOL0     C53606   3.608  10.702   4.049  0.3419 -0.4030  0.3489
  407MOL0     C53607   3.452  10.664   4.059 -0.0565 -0.6720 -0.2210
  407MOL0     C53608   3.387  10.709   4.196 -0.4639 -0.6755  0.2794
  407MOL0     N53609   3.240  10.715   4.185 -0.0285  0.0868  0.2689
  407MOL0     C53610   3.159  10.780   4.277 -0.4520  0.3174 -0.7902
  407MOL0     C53611   3.033  10.777   4.232  0.0234  0.8205 -0.0637
  407MOL0     C53612   2.903  10.831   4.293  0.6182 -0.4779  0.0519
  407MOL0     C53613   2.826  10.919   4.191 -0.5888 -0.4572  0.8492
  407MOL0     C53614   2.677  10.944   4.233 -0.1548  0.6569  0.5338
  407MOL0     C53615   2.615  11.079   4.190 -0.2326 -0.0044 -0.7816
  407MOL0     O53616   2.486  11.071   4.235 -1.0027  0.2122 -0.1276
  407MOL0     C53617   2.377  11.157   4.203 -1.3681 -1.4268 -0.0138
  407MOL0     C53618   2.397  11.267   4.115 -0.2443  0.0878 -0.6440
  407MOL0     C53619   2.302  11.357   4.093  0.2232 -0.1355  0.1658
  407MOL0     C53620   2.168  11.333   4.144 -0.5540  0.3361 -0.2771
  407MOL0     C53621   2.055  11.422   4.110  0.0887  0.3148  0.3316
  407MOL0     O53622   1.948  11.423   4.190  0.6201 -0.0339 -0.6818
  407MOL0     C53623   1.850  11.512   4.161 -0.1404  0.4513  0.1095
  407MOL0     C53624   1.730  11.453   4.117 -1.2395 -0.2885  0.6707
  407MOL0     C53625   1.629  11.543   4.088 -0.3875  0.0212 -0.4771
  407MOL0     C53626   1.656  11.685   4.097  0.2675  0.4211  0.4969
  407MOL0     O53627   1.568  11.771   4.040  1.3008 -0.3075 -0.7987
  407MOL0     C53628   1.439  11.792   4.098  1.0586 -0.6053  0.7367
  407MOL0     C53629   1.347  11.873   3.998 -0.0046  0.5421 -0.2813
  407MOL0     C53630   1.318  11.808   3.857 -0.1779 -0.3683  0.9413
  407MOL0     C53631   1.262  11.911   3.755 -0.0427  0.1860 -1.0300
  407MOL0     C53632   1.110  11.925   3.777 -0.4101  0.5751 -0.1565
  407MOL0     C53633   1.028  12.010   3.685  0.4775 -0.0983 -0.4798
  407MOL0     C53634   0.877  12.011   3.699 -0.1825  0.0025  0.4933
  407MOL0     C53635   0.805  12.109   3.613 -0.0770 -0.1604  0.8869
  407MOL0    Cl53636   0.862  12.269   3.656  0.0991  0.1260  0.0197
  407MOL0     C53637   1.771  11.742   4.141  0.0208 -0.9142 -0.1822
  407MOL0     C53638   1.868  11.646   4.182 -0.1657  0.3224  0.4760
  407MOL0     O53639   2.071  11.496   4.013  0.0070 -0.1211  0.2168
  407MOL0     C53640   2.142  11.215   4.213 -0.8812  0.2743  0.1437
  407MOL0     C53641   2.248  11.130   4.249  0.4708 -0.5955 -0.1770
  407MOL0     N53642   3.041  10.715   4.114 -0.1913 -0.2418  0.7216
  407MOL0     N53643   3.165  10.683   4.081 -0.8683  0.2381  0.0446
  407MOL0     C53644   3.956  10.992   4.591 -0.4369 -0.4113  0.5419
  407MOL0     C53645   4.017  11.043   4.707  0.7991 -0.8885 -0.0016
  407MOL0     C53646   4.242  11.177   5.038  0.2818 -1.1177  1.4523
  407MOL0     C53647   4.294  11.109   5.147 -0.5655  0.1834 -0.7311
  407MOL0     C53648   4.321  11.188   5.264  0.2285 -0.1137 -0.6513
  407MOL0     C53649   4.288  11.325   5.271  0.0138 -0.3016  0.1937
  407MOL0     O53650   4.295  11.411   5.373  0.5063 -0.4529 -0.0773
  407MOL0     C53651   4.363  11.371   5.486 -0.8730  0.0961  0.0261
  407MOL0     C53652   4.318  11.454   5.600 -0.8974 -0.7210 -0.2078
  407MOL0     C53653   4.203  11.379   5.675 -0.1162  0.6490  0.9307
  407MOL0     C53654   4.153  11.448   5.806 -0.7174  0.9355  0.6324
  407MOL0     C53655   4.078  11.350   5.888 -0.6710 -0.1477 -0.1890
  407MOL0     C53656   4.037  11.255   5.966 -0.0400 -0.4185 -0.1601
  407MOL0     C53657   4.220  11.373   5.167  0.8268  0.3334 -0.5870
  407MOL0     C53658   4.198  11.304   5.047  0.3641  0.1105 -0.0239
  407MOL0     H53659   4.291  11.190   4.561  0.1947  0.2442  0.2838
  407MOL0     H53660   4.182  11.096   4.355  0.1451 -0.9976  0.3198
  407MOL0     H53661   3.945  11.161   4.250  0.4619 -0.2960  1.2097
  407MOL0     H53662   3.805  11.073   4.229 -0.6232  0.5666  2.0632
  407MOL0     H53663   4.069  10.936   4.154 -1.5824 -2.6528  0.8322
  407MOL0     H53664   3.993  11.062   4.048  3.1510  0.8930  0.5740
  407MOL0     H53665   3.861  10.797   4.154 -0.8952 -0.0682 -0.1862
  407MOL0     H53666   3.936  10.814   3.994  1.6446  0.9732 -0.7582
  407MOL0     H53667   3.744  11.023   3.999  1.1717 -0.0191  2.2257
  407MOL0     H53668   3.748  10.878   3.908  1.3667 -1.1930  0.7456
  407MOL0     H53669   3.538  10.912   4.032  0.7775  0.8613  0.4404
  407MOL0     H53670   3.627  10.883   4.180 -0.9126 -2.8190  1.2680
  407MOL0     H53671   3.670  10.650   4.123 -1.0554  2.6097  3.9710
  407MOL0     H53672   3.643  10.687   3.947  1.5656 -0.6293  0.7795
  407MOL0     H53673   3.405  10.723   3.980 -0.6539 -1.9392 -0.8437
  407MOL0     H53674   3.437  10.558   4.042 -2.3421 -0.4572  0.1883
  407MOL0     H53675   3.425  10.802   4.239 -0.9023 -0.4503  0.1895
  407MOL0     H53676   3.406  10.626   4.264  1.2879  0.8248  1.7169
  407MOL0     H53677   3.192  10.824   4.371 -1.3307 -1.5781  0.4527
  407MOL0     H53678   2.929  10.898   4.376 -0.6125 -1.0338  0.9191
  407MOL0     H53679   2.840  10.749   4.328  0.0112 -0.6295 -1.3433
  407MOL0     H53680   2.828  10.869   4.094  2.2025  1.0904 -0.0123
  407MOL0     H53681   2.870  11.019   4.182 -0.5927 -0.4115  1.3093
  407MOL0     H53682   2.623  10.850   4.221 -1.2383  0.9973  2.2418
  407MOL0     H53683   2.679  10.943   4.343 -1.4808  1.6116  0.5854
  407MOL0     H53684   2.629  11.086   4.082 -1.8176  0.0421 -1.0064
  407MOL0     H53685   2.663  11.163   4.242 -1.6834  1.1007 -1.1653
  407MOL0     H53686   2.497  11.281   4.073  0.9167 -1.1135  1.5509
  407MOL0     H53687   2.337  11.445   4.040  4.7935 -2.5405 -1.4083
  407MOL0     H53688   1.726  11.345   4.103  1.1763 -0.1280 -2.1598
  407MOL0     H53689   1.537  11.511   4.040  0.5948  1.0158 -3.2506
  407MOL0     H53690   1.453  11.849   4.190  0.8362 -0.9381  0.9758
  407MOL0     H53691   1.377  11.710   4.135 -2.3660  1.6144  0.2864
  407MOL0     H53692   1.395  11.971   3.985  1.9291 -0.5181 -1.6592
  407MOL0     H53693   1.261  11.890   4.063 -2.5920 -4.4058 -1.8765
  407MOL0     H53694   1.251  11.723   3.872  0.9857 -1.8767 -1.6849
  407MOL0     H53695   1.414  11.773   3.819  0.4272 -0.0858  2.1630
  407MOL0     H53696   1.319  12.003   3.769  1.8686 -0.9076 -1.2575
  407MOL0     H53697   1.291  11.877   3.655 -2.3024 -0.8284 -1.4303
  407MOL0     H53698   1.095  11.956   3.881 -0.7964  3.0294 -0.8699
  407MOL0     H53699   1.064  11.826   3.777  0.7207  0.0411  0.6966
  407MOL0     H53700   1.043  11.973   3.584  0.3353 -0.3032 -0.4266
  407MOL0     H53701   1.062  12.114   3.691  0.0270 -0.0035  0.7768
  407MOL0     H53702   0.845  11.917   3.654 -2.0628  1.6043 -1.7726
  407MOL0     H53703   0.841  12.023   3.801 -1.9380 -2.1063  0.1854
  407MOL0     H53704   0.698  12.097   3.629 -0.3286  1.3998  0.4879
  407MOL0     H53705   0.824  12.095   3.506  1.6025 -0.2164  1.1536
  407MOL0     H53706   1.782  11.848   4.163 -0.4295 -1.3653  2.6485
  407MOL0     H53707   1.955  11.677   4.238 -0.3233  1.4348  0.1282
  407MOL0     H53708   2.041  11.191   4.245 -0.9512 -0.3963 -0.5576
  407MOL0     H53709   2.236  11.036   4.303  1.2718 -1.2856 -1.1451
  407MOL0     H53710   3.859  10.946   4.604  0.6864 -3.3631 -0.7151
  407MOL0     H53711   3.977  11.011   4.802 -0.2190  0.2072 -0.0326
  407MOL0     H53712   4.341  11.011   5.142  1.5722  1.1615 -1.3661
  407MOL0     H53713   4.359  11.138   5.353 -1.2904 -0.9262 -0.4257
  407MOL0     H53714   4.467  11.400   5.471 -1.2939  1.0627 -1.2175
  407MOL0     H53715   4.359  11.264   5.510  1.7783  0.3699  2.1488
  407MOL0     H53716   4.404  11.465   5.667 -0.2011 -2.2021 -0.7981
  407MOL0     H53717   4.301  11.554   5.560  0.5968 -0.8891 -1.3630
  407MOL0     H53718   4.239  11.277   5.690  2.4560  1.6469  2.1047
  407MOL0     H53719   4.121  11.358   5.606 -0.2189  1.4401  0.8057
  407MOL0     H53720   4.241  11.488   5.856 -1.2458  0.4584  1.9891
  407MOL0     H53721   4.094  11.537   5.780 -1.2043  0.0851 -1.3461
  407MOL0     H53722   4.003  11.192   6.045 -0.2191 -1.2649 -0.8880
  407MOL0     H53723   4.190  11.475   5.188  0.6559 -0.0228  1.0329
  407MOL0     H53724   4.158  11.351   4.958  0.2385  1.7441  0.8576
  408MOL0     O53725   1.091   9.562   7.435 -0.5919  0.3355 -0.5107
  408MOL0     C53726   1.076   9.639   7.338 -0.6050 -0.3902  0.5760
  408MOL0     O53727   1.091   9.603   7.207 -0.8481  0.2965  0.2757
  408MOL0     C53728   1.105   9.472   7.182 -1.2793  1.7961 -0.2646
  408MOL0     C53729   1.234   9.428   7.174  0.0021  0.3277  0.1267
  408MOL0     C53730   1.276   9.296   7.145 -0.1727 -0.1545 -0.1793
  408MOL0     C53731   1.180   9.195   7.122  0.5714 -0.5973 -0.7185
  408MOL0     O53732   1.194   9.065   7.081 -0.5150 -0.1213 -0.7394
  408MOL0     C53733   1.327   9.030   7.038 -0.8228 -0.5920  0.2099
  408MOL0     C53734   1.322   8.895   6.956  0.2018 -0.5097 -0.8680
  408MOL0     C53735   1.444   8.805   6.986  0.6974 -0.6950  0.3654
  408MOL0     C53736   1.470   8.749   7.123 -0.4917  0.1516 -0.2355
  408MOL0     C53737   1.354   8.669   7.178  0.4690  0.0788  0.6140
  408MOL0     C53738   1.338   8.536   7.104 -0.1653 -0.6706 -0.2343
  408MOL0     C53739   1.231   8.449   7.171  0.2774  0.2077  0.7437
  408MOL0     C53740   1.095   8.499   7.153 -1.7409 -0.3557 -0.4402
  408MOL0     N53741   1.063   8.533   7.020 -0.3540 -0.8136  0.0608
  408MOL0     C53742   1.054   8.441   6.922 -0.2063 -0.1274  0.1617
  408MOL0     C53743   1.027   8.513   6.812 -0.3422 -0.1731 -0.1978
  408MOL0     C53744   1.024   8.463   6.670  0.2991  0.1561  0.2622
  408MOL0     C53745   0.904   8.371   6.642 -1.2484 -0.0185 -0.0579
  408MOL0     C53746   0.834   8.405   6.518  0.7360  0.2421  0.4965
  408MOL0     C53747   0.757   8.287   6.456  0.9284  0.0958  0.2121
  408MOL0     O53748   0.630   8.294   6.514 -0.2376 -0.7626 -0.8524
  408MOL0     C53749   0.522   8.241   6.443 -0.7162 -0.3273  0.2996
  408MOL0     C53750   0.390   8.295   6.443 -0.9174  0.6882 -0.0270
  408MOL0     C53751   0.282   8.225   6.381  0.1243  0.8358  0.0187
  408MOL0     C53752   0.297   8.094   6.334  0.5628  0.0935 -0.6994
  408MOL0     C53753   0.184   8.004   6.300  0.6853 -0.3140  0.6854
  408MOL0     O53754   0.057   8.058   6.307  0.1055  0.1774 -0.2473
  408MOL0     C53755  -0.049   7.979   6.257  0.2348 -0.1278 -0.7786
  408MOL0     C53756  -0.062   7.844   6.305  0.3825 -1.3565  0.0025
  408MOL0     C53757  -0.174   7.769   6.268  0.5416 -0.0328  0.7570
  408MOL0     C53758  -0.277   7.827   6.188 -0.4342 -0.1497  0.3723
  408MOL0     O53759  -0.399   7.768   6.137  0.1313 -0.7776 -1.1993
  408MOL0     C53760  -0.392   7.631   6.112 -0.9082 -0.0358  0.5925
  408MOL0     C53761  -0.500   7.593   6.015  0.1182  0.2881  0.5455
  408MOL0     C53762  -0.436   7.536   5.889 -0.1374 -0.0089  0.9086
  408MOL0     C53763  -0.366   7.632   5.801  0.2499  0.2218 -0.4211
  408MOL0     C53764  -0.298   7.553   5.689  0.4323  0.7111 -0.3374
  408MOL0     C53765  -0.233   7.640   5.591  0.0871 -0.0326 -0.1530
  408MOL0     C53766  -0.178   7.560   5.469 -0.2035 -0.5438  0.7426
  408MOL0     C53767  -0.115   7.660   5.371  0.7916  0.0793  0.1156
  408MOL0    Cl53768   0.057   7.699   5.419 -0.4247 -0.0179 -0.1520
  408MOL0     C53769  -0.257   7.958   6.139  0.0691 -0.4487 -0.5309
  408MOL0     C53770  -0.139   8.030   6.173 -0.2441 -0.1182 -0.0404
  408MOL0     O53771   0.218   7.888   6.269  0.6348 -0.4855  0.0523
  408MOL0     C53772   0.429   8.039   6.332  0.2518 -1.0130  0.3286
  408MOL0     C53773   0.539   8.117   6.375 -0.3076 -0.6351  0.5644
  408MOL0     N53774   1.016   8.647   6.843  1.2627  0.1443  0.0537
  408MOL0     N53775   1.018   8.653   6.975 -0.2348 -0.6600  0.6685
  408MOL0     C53776   1.046   9.236   7.138  0.3330 -0.1628  1.8260
  408MOL0     C53777   1.011   9.366   7.178  0.4904  0.2485  0.6543
  408MOL0     C53778   1.048   9.783   7.353  0.4589  1.0529  0.4927
  408MOL0     C53779   0.978   9.826   7.463  0.9004 -0.4972 -0.0382
  408MOL0     C53780   0.927   9.957   7.469 -1.2321 -0.3740  0.0893
  408MOL0     C53781   0.936  10.038   7.354 -0.3923 -0.2920 -0.0532
  408MOL0     O53782   0.876  10.162   7.344  0.0222 -1.0759 -0.9167
  408MOL0     C53783   0.811  10.225   7.457 -0.4520  0.0529  0.6020
  408MOL0     C53784   0.768  10.370   7.430 -0.7166 -0.6372 -0.6220
  408MOL0     C53785   0.884  10.477   7.419 -0.5424 -1.5535  0.5495
  408MOL0     C53786   0.994  10.476   7.518  0.2105  1.0051 -0.1587
  408MOL0     C53787   0.969  10.518   7.653 -0.4682 -0.5801  0.1903
  408MOL0     C53788   0.955  10.572   7.760  1.0807  0.1703  0.5876
  408MOL0     C53789   1.003   9.988   7.246  0.2518 -0.5997  0.4155
  408MOL0     C53790   1.064   9.865   7.237 -0.1905  0.1937 -0.8322
  408MOL0     H53791   1.313   9.496   7.205  0.7998 -0.3045 -0.4552
  408MOL0     H53792   1.379   9.260   7.141 -0.3675 -2.0970  4.8383
  408MOL0     H53793   1.392   9.016   7.125 -0.5820 -0.0124  0.1261
  408MOL0     H53794   1.370   9.102   6.968 -0.7782 -0.3713  0.4637
  408MOL0     H53795   1.329   8.916   6.849 -0.2843 -2.1594 -1.2472
  408MOL0     H53796   1.231   8.838   6.978 -0.2639 -0.1392 -1.7755
  408MOL0     H53797   1.535   8.856   6.954 -1.7523  2.4381 -2.3564
  408MOL0     H53798   1.431   8.716   6.923  0.0743  0.2246 -0.8497
  408MOL0     H53799   1.563   8.692   7.122 -0.0918  0.7291 -2.5906
  408MOL0     H53800   1.496   8.835   7.186  2.1126 -0.4050 -0.4299
  408MOL0     H53801   1.264   8.730   7.167  1.6341  1.9371  0.9851
  408MOL0     H53802   1.361   8.651   7.285  0.2667  0.6361  0.7243
  408MOL0     H53803   1.427   8.473   7.102  0.7767  0.6189  0.0521
  408MOL0     H53804   1.312   8.567   7.003 -1.7639 -0.0809  0.3275
  408MOL0     H53805   1.244   8.350   7.125  1.5230  0.3122  0.8272
  408MOL0     H53806   1.270   8.438   7.273  2.2352 -3.1322 -0.2068
  408MOL0     H53807   1.082   8.578   7.228 -2.3745 -2.8463  2.2409
  408MOL0     H53808   1.038   8.416   7.196  2.0609 -2.7555  0.5122
  408MOL0     H53809   1.084   8.337   6.919  0.6417 -0.0864  3.5156
  408MOL0     H53810   1.117   8.418   6.635  0.1509  1.0260 -1.3452
  408MOL0     H53811   1.002   8.550   6.608 -0.0870  1.1513  1.7289
  408MOL0     H53812   0.835   8.361   6.726  0.9940 -3.2034  1.6424
  408MOL0     H53813   0.952   8.273   6.636 -2.5205 -1.2568  4.9813
  408MOL0     H53814   0.765   8.486   6.541 -1.8746 -1.4824 -0.7777
  408MOL0     H53815   0.899   8.444   6.440  1.8536 -1.7156  0.3782
  408MOL0     H53816   0.802   8.188   6.470  0.5612 -0.3408 -1.5244
  408MOL0     H53817   0.749   8.306   6.349  1.1804 -1.1470 -0.0393
  408MOL0     H53818   0.364   8.385   6.497 -0.3521 -0.7171  2.7524
  408MOL0     H53819   0.185   8.271   6.395 -0.4863 -0.5858  0.7641
  408MOL0     H53820   0.016   7.811   6.373 -0.0348  1.8262  2.2451
  408MOL0     H53821  -0.190   7.674   6.320  1.9585 -0.4682  0.4409
  408MOL0     H53822  -0.393   7.563   6.198 -0.5765 -2.7044 -1.4053
  408MOL0     H53823  -0.293   7.616   6.068 -1.0308 -0.7056  0.5401
  408MOL0     H53824  -0.553   7.683   5.981 -2.2968 -0.9615  0.7367
  408MOL0     H53825  -0.576   7.525   6.055  2.0247 -0.8988  2.3370
  408MOL0     H53826  -0.522   7.501   5.831 -0.7256  2.9616 -0.2112
  408MOL0     H53827  -0.361   7.460   5.915  0.3548  0.5703  1.2160
  408MOL0     H53828  -0.428   7.715   5.765 -0.5001  1.0093  2.4413
  408MOL0     H53829  -0.286   7.682   5.857 -0.1267 -0.8553  1.1289
  408MOL0     H53830  -0.377   7.490   5.650 -3.8566  4.1481  1.9339
  408MOL0     H53831  -0.217   7.495   5.735  1.9232  0.6560 -2.8304
  408MOL0     H53832  -0.142   7.674   5.641  0.3233  0.7577 -1.1006
  408MOL0     H53833  -0.297   7.718   5.549 -0.9315 -1.1655 -0.7961
  408MOL0     H53834  -0.116   7.481   5.514 -0.8046  0.8832  4.4684
  408MOL0     H53835  -0.262   7.516   5.415 -0.6383  0.3894  0.6359
  408MOL0     H53836  -0.183   7.743   5.349 -1.4181 -1.0973  1.9821
  408MOL0     H53837  -0.102   7.620   5.270  0.5520 -0.3963  0.2691
  408MOL0     H53838  -0.333   8.012   6.084 -0.7441 -2.6458 -1.6834
  408MOL0     H53839  -0.118   8.128   6.132 -2.6167  0.2814 -0.4318
  408MOL0     H53840   0.446   7.934   6.307 -0.9259 -1.5861  1.7958
  408MOL0     H53841   0.629   8.059   6.393 -1.3691 -1.8663  2.1864
  408MOL0     H53842   0.970   9.161   7.121  0.4809  0.5084 -3.6554
  408MOL0     H53843   0.912   9.410   7.181  1.8538  3.7543  0.0503
  408MOL0     H53844   0.973   9.764   7.552  0.5411 -0.9944 -0.3979
  408MOL0     H53845   0.903   9.998   7.566  1.0684  2.5749 -0.4239
  408MOL0     H53846   0.892  10.220   7.530  3.1172  0.8841 -2.9296
  408MOL0     H53847   0.730  10.160   7.491 -0.5341  0.1251  0.5479
  408MOL0     H53848   0.700  10.368   7.345 -1.9152 -3.2700  0.2743
  408MOL0     H53849   0.712  10.399   7.519 -1.7615 -0.9273 -1.1622
  408MOL0     H53850   0.830  10.572   7.422 -2.5707 -2.5759 -1.2057
  408MOL0     H53851   0.923  10.453   7.320  1.4136  0.5187  0.7345
  408MOL0     H53852   1.032  10.373   7.521 -3.0676 -0.3894 -1.8868
  408MOL0     H53853   1.067  10.546   7.478 -0.8448  2.1577 -0.1137
  408MOL0     H53854   0.942  10.629   7.849 -0.2535  1.2203 -0.2427
  408MOL0     H53855   1.023  10.065   7.173 -0.7470 -1.4034 -0.7289
  408MOL0     H53856   1.100   9.829   7.141 -2.9921 -2.5582 -1.0218
  409MOL0     O53857   4.890   4.187  11.088  0.1028  0.9533  0.6681
  409MOL0     C53858   4.766   4.174  11.090 -0.2704  0.1813  0.0824
  409MOL0     O53859   4.701   4.082  11.005 -0.0211  0.4760  0.6311
  409MOL0     C53860   4.777   3.974  10.961 -0.7540 -1.4365 -0.3525
  409MOL0     C53861   4.772   3.930  10.825 -0.2055  0.4298  0.3147
  409MOL0     C53862   4.850   3.824  10.772  0.6818 -0.1538 -0.2137
  409MOL0     C53863   4.922   3.742  10.857  1.1161  0.2568 -0.1760
  409MOL0     O53864   5.001   3.649  10.789 -0.5915 -0.1687  0.3886
  409MOL0     C53865   5.015   3.521  10.850 -0.4285  0.1081  0.3530
  409MOL0     C53866   4.892   3.460  10.921 -0.2275 -0.4501 -0.3134
  409MOL0     C53867   4.870   3.310  10.904 -0.2860  0.2989  0.4441
  409MOL0     C53868   4.771   3.241  11.002 -1.1635 -0.1462 -0.4488
  409MOL0     C53869   4.842   3.191  11.125 -0.5646  0.3880 -0.7161
  409MOL0     C53870   4.748   3.175  11.242 -0.2555  0.8625 -0.0542
  409MOL0     C53871   4.674   3.049  11.239 -0.3441  0.1516 -0.2951
  409MOL0     C53872   4.582   3.027  11.368  0.1408  0.5073 -0.3824
  409MOL0     N53873   4.499   3.149  11.390  0.7890  0.1847  0.6676
  409MOL0     C53874   4.405   3.209  11.304  0.2673  0.1189 -0.1731
  409MOL0     C53875   4.398   3.337  11.341  0.0462 -0.5468  0.2555
  409MOL0     C53876   4.289   3.429  11.304  1.3174  0.3316 -0.4571
  409MOL0     C53877   4.149   3.407  11.352 -0.2383 -1.0732 -0.2863
  409MOL0     C53878   4.060   3.339  11.251  0.8367  0.0162  0.1110
  409MOL0     C53879   3.920   3.314  11.306 -1.1766  0.0664 -0.4137
  409MOL0     O53880   3.841   3.281  11.193 -0.1597 -0.1239  0.1928
  409MOL0     C53881   3.716   3.334  11.181  0.8544  0.5961 -0.4070
  409MOL0     C53882   3.625   3.342  11.289 -0.2001 -1.1238 -0.6744
  409MOL0     C53883   3.502   3.393  11.269  0.4884 -0.1884  0.5822
  409MOL0     C53884   3.455   3.436  11.143  0.7956  0.4202  0.1110
  409MOL0     C53885   3.321   3.506  11.124 -0.0826 -0.6181  0.5080
  409MOL0     O53886   3.238   3.491  11.228  0.2528 -0.2101  0.2688
  409MOL0     C53887   3.118   3.560  11.232 -0.2701 -0.9553 -0.1405
  409MOL0     C53888   3.102   3.658  11.331 -0.4038  0.6948 -0.6799
  409MOL0     C53889   2.980   3.734  11.347  0.5147  0.1536  0.4807
  409MOL0     C53890   2.880   3.695  11.250  0.3942  0.4435  0.2345
  409MOL0     O53891   2.755   3.738  11.286 -0.0131  0.0967  0.3964
  409MOL0     C53892   2.675   3.641  11.341  0.3807 -0.5898 -0.2331
  409MOL0     C53893   2.567   3.708  11.424 -0.7567 -0.1011 -0.3889
  409MOL0     C53894   2.542   3.637  11.559 -0.6585  0.0099 -0.8854
  409MOL0     C53895   2.456   3.726  11.649 -0.0281  0.0693  0.1122
  409MOL0     C53896   2.530   3.848  11.717 -0.6483 -0.6518 -0.0010
  409MOL0     C53897   2.618   3.798  11.837  0.4328 -0.3235  0.2475
  409MOL0     C53898   2.520   3.753  11.947  0.1913  0.4480 -0.2812
  409MOL0     C53899   2.579   3.745  12.084  0.5845 -0.1555 -0.1533
  409MOL0    Cl53900   2.696   3.608  12.076 -0.2018  0.8055  0.4551
  409MOL0     C53901   2.898   3.594  11.152  0.0455  0.2761 -0.2948
  409MOL0     C53902   3.028   3.532  11.134  1.8676  0.0178  0.5111
  409MOL0     O53903   3.304   3.569  11.016 -0.9820  0.0429 -0.2240
  409MOL0     C53904   3.551   3.442  11.034  0.4184  0.3005  0.9820
  409MOL0     C53905   3.680   3.390  11.059  0.3691 -0.5740  0.3826
  409MOL0     N53906   4.485   3.360  11.448 -0.0984 -0.5192  0.8466
  409MOL0     N53907   4.538   3.242  11.476  0.3562 -0.0569  1.0687
  409MOL0     C53908   4.923   3.785  10.991 -0.2473 -1.2763  1.0098
  409MOL0     C53909   4.866   3.899  11.036  0.0979  0.5982 -0.0389
  409MOL0     C53910   4.685   4.269  11.169  0.7173  0.5895 -0.0348
  409MOL0     C53911   4.548   4.269  11.157  0.9552  0.0861 -0.2428
  409MOL0     C53912   4.463   4.343  11.242 -0.4611  0.9165 -0.1877
  409MOL0     C53913   4.516   4.447  11.327  0.8286  0.4176  0.8950
  409MOL0     O53914   4.434   4.529  11.396  0.0587 -0.3043 -0.1564
  409MOL0     C53915   4.490   4.606  11.508  0.2349 -0.7442  0.6668
  409MOL0     C53916   4.378   4.622  11.607 -0.1834 -0.5908  0.0312
  409MOL0     C53917   4.248   4.689  11.559 -0.3303  0.3670  0.1370
  409MOL0     C53918   4.277   4.828  11.506  0.5321 -0.3952  0.3066
  409MOL0     C53919   4.194   4.948  11.543  0.0616 -0.1981 -0.7456
  409MOL0     C53920   4.131   5.044  11.595 -0.6806  0.4402 -1.1669
  409MOL0     C53921   4.653   4.454  11.328  0.3514  0.3842  0.2047
  409MOL0     C53922   4.738   4.361  11.262  0.3284  0.0777 -0.8052
  409MOL0     H53923   4.702   3.982  10.760  0.1104  0.5248  0.0461
  409MOL0     H53924   4.852   3.798  10.666 -0.6912 -0.4104 -0.1883
  409MOL0     H53925   5.104   3.522  10.914 -1.4743 -1.8492  1.9384
  409MOL0     H53926   5.027   3.439  10.779  1.8157 -0.4660  1.3184
  409MOL0     H53927   4.804   3.508  10.878 -2.3430 -2.6149  1.3224
  409MOL0     H53928   4.884   3.489  11.027 -0.1350 -0.3707 -0.3278
  409MOL0     H53929   4.966   3.260  10.920  0.0428  1.0538  0.8683
  409MOL0     H53930   4.834   3.307  10.801  3.8001  4.1320 -1.4218
  409MOL0     H53931   4.693   3.314  11.027 -1.0661  1.5852 -4.4497
  409MOL0     H53932   4.730   3.152  10.952 -0.1673 -0.2355 -1.1434
  409MOL0     H53933   4.908   3.273  11.155 -3.9390  2.6987  1.0669
  409MOL0     H53934   4.902   3.099  11.130 -1.4861 -0.1677  2.0944
  409MOL0     H53935   4.680   3.260  11.246  0.6433  1.5540  0.8109
  409MOL0     H53936   4.804   3.172  11.336 -0.1591 -1.4942 -0.1283
  409MOL0     H53937   4.611   3.052  11.150  0.9320  3.4396 -1.2238
  409MOL0     H53938   4.750   2.971  11.247 -0.2256  0.3938  1.3279
  409MOL0     H53939   4.648   3.005  11.452  1.5910  1.2749 -1.2696
  409MOL0     H53940   4.514   2.941  11.362  0.3803  0.1387  1.5972
  409MOL0     H53941   4.330   3.162  11.242  0.6799 -0.8351  0.0232
  409MOL0     H53942   4.290   3.464  11.201  2.3974 -0.8464 -0.8760
  409MOL0     H53943   4.325   3.521  11.351 -2.0688  1.9231 -0.6394
  409MOL0     H53944   4.115   3.510  11.365  1.7283 -0.3744 -0.2789
  409MOL0     H53945   4.151   3.346  11.444  0.2060 -2.0849 -0.9392
  409MOL0     H53946   4.059   3.393  11.156  2.0809  0.6549  0.4361
  409MOL0     H53947   4.104   3.244  11.220 -0.5020 -1.1161  1.5171
  409MOL0     H53948   3.880   3.396  11.367 -0.7249 -0.7774  1.0742
  409MOL0     H53949   3.921   3.221  11.364  0.7434 -0.2309 -0.8575
  409MOL0     H53950   3.655   3.316  11.390  2.2213 -0.6923 -1.2207
  409MOL0     H53951   3.455   3.398  11.367  2.6181 -1.4651  1.7294
  409MOL0     H53952   3.182   3.673  11.402  0.2419 -0.2507 -1.1891
  409MOL0     H53953   2.940   3.806  11.417 -5.4707  0.6295 -2.8099
  409MOL0     H53954   2.732   3.574  11.405  1.2217  1.9213  1.8234
  409MOL0     H53955   2.631   3.572  11.268  0.2432 -0.3622 -0.3692
  409MOL0     H53956   2.474   3.703  11.365 -0.7058  0.6008 -0.5377
  409MOL0     H53957   2.604   3.810  11.430  0.5627 -0.3543 -2.8029
  409MOL0     H53958   2.637   3.616  11.608 -0.4112  3.1688  0.1838
  409MOL0     H53959   2.488   3.542  11.552  1.7254 -1.3373 -2.1621
  409MOL0     H53960   2.363   3.749  11.598  1.8385  0.3705 -3.4676
  409MOL0     H53961   2.430   3.654  11.728  3.0529 -0.7158  0.5877
  409MOL0     H53962   2.450   3.915  11.749 -1.0445 -0.3212 -1.5639
  409MOL0     H53963   2.603   3.886  11.645 -0.6268 -1.0617 -0.2006
  409MOL0     H53964   2.668   3.889  11.870  1.0634 -0.1203 -1.1658
  409MOL0     H53965   2.697   3.727  11.811 -0.2153  0.0588 -3.4276
  409MOL0     H53966   2.434   3.821  11.946 -0.8499 -0.8027 -2.0757
  409MOL0     H53967   2.478   3.653  11.939 -0.4270  0.6848 -0.0640
  409MOL0     H53968   2.505   3.697  12.148  2.4250 -1.2622  1.2469
  409MOL0     H53969   2.606   3.838  12.135  3.4155 -0.0564 -1.6298
  409MOL0     H53970   2.814   3.571  11.087 -2.0837  2.9126  1.3003
  409MOL0     H53971   3.038   3.456  11.057 -1.8036  0.7302 -0.8464
  409MOL0     H53972   3.534   3.485  10.935 -1.2664 -0.6776  0.7919
  409MOL0     H53973   3.745   3.380  10.972  0.0182 -0.7179  0.1356
  409MOL0     H53974   4.989   3.726  11.053  2.4562 -0.8974 -1.3153
  409MOL0     H53975   4.863   3.919  11.143  1.9756 -1.0992  0.3912
  409MOL0     H53976   4.494   4.224  11.074  0.0558 -0.7579  0.7651
  409MOL0     H53977   4.356   4.327  11.235 -0.7758  3.3634 -3.6008
  409MOL0     H53978   4.507   4.710  11.480 -4.3501 -0.8931 -4.0401
  409MOL0     H53979   4.571   4.544  11.549 -1.0930 -2.4130  0.8977
  409MOL0     H53980   4.340   4.525  11.639 -0.8186 -1.0113 -1.8868
  409MOL0     H53981   4.405   4.669  11.702 -0.1364  1.0498 -0.7614
  409MOL0     H53982   4.183   4.700  11.647 -0.0246  1.5727  0.2259
  409MOL0     H53983   4.206   4.633  11.475  2.8533  0.9338 -1.9851
  409MOL0     H53984   4.379   4.855  11.534  0.3268 -1.0916  1.8253
  409MOL0     H53985   4.274   4.812  11.398 -0.8190 -4.6320  0.8029
  409MOL0     H53986   4.085   5.121  11.654  2.5591  2.9654 -1.6530
  409MOL0     H53987   4.700   4.524  11.396  1.8295 -1.5151  1.2503
  409MOL0     H53988   4.845   4.370  11.281  0.1492  0.8089 -0.0652
  410MOL0     O53989   4.340  11.322   2.237  0.0258 -0.0039  0.7254
  410MOL0     C53990   4.435  11.363   2.170  0.5531 -0.4385  0.6431
  410MOL0     O53991   4.548  11.296   2.141 -0.2811 -0.7612  0.5843
  410MOL0     C53992   4.597  11.200   2.231  0.0434 -0.2314 -1.4081
  410MOL0     C53993   4.696  11.115   2.192 -0.7591  0.3761  0.1552
  410MOL0     C53994   4.736  11.015   2.279  0.1427 -0.3157 -0.8168
  410MOL0     C53995   4.693  11.012   2.415 -1.2503 -0.3664 -0.4891
  410MOL0     O53996   4.735  10.920   2.514 -0.8726 -0.4647 -0.6434
  410MOL0     C53997   4.807  10.801   2.473 -0.3415  0.1280 -0.4068
  410MOL0     C53998   4.717  10.696   2.409 -0.5893 -0.8709 -0.4663
  410MOL0     C53999   4.783  10.559   2.388  0.3129  0.5463 -0.3408
  410MOL0     C54000   4.686  10.451   2.346  0.0102 -0.5239  0.7417
  410MOL0     C54001   4.586  10.493   2.231 -0.1608  0.4607 -0.0074
  410MOL0     C54002   4.663  10.507   2.101 -0.7015 -0.1111  1.2299
  410MOL0     C54003   4.563  10.555   1.982 -0.5895 -0.0651 -0.5088
  410MOL0     C54004   4.590  10.495   1.858  0.1245 -0.5900  0.6374
  410MOL0     N54005   4.566  10.574   1.736  0.3597 -0.5495  0.3020
  410MOL0     C54006   4.487  10.550   1.623  0.0069  0.2501  0.2429
  410MOL0     C54007   4.541  10.626   1.524 -0.3634 -0.0497  0.2896
  410MOL0     C54008   4.486  10.649   1.383 -0.0839 -0.3890 -0.1306
  410MOL0     C54009   4.599  10.634   1.272  0.9566 -0.5907 -0.4663
  410MOL0     C54010   4.661  10.493   1.264  0.7935  0.3755 -0.7580
  410MOL0     C54011   4.707  10.465   1.123  0.0415  0.0178 -0.2956
  410MOL0     O54012   4.816  10.374   1.119  0.3671  0.4534 -0.1710
  410MOL0     C54013   4.797  10.236   1.122 -0.7837  0.3069 -0.8368
  410MOL0     C54014   4.709  10.165   1.203  0.4658  0.2661 -0.0911
  410MOL0     C54015   4.726  10.024   1.215  0.1368  0.1878  0.8670
  410MOL0     C54016   4.823   9.958   1.138  0.8535  0.3464 -0.7855
  410MOL0     C54017   4.837   9.808   1.126  0.7001  0.6740 -0.3965
  410MOL0     O54018   4.916   9.757   1.026 -0.4220  0.0308 -0.5622
  410MOL0     C54019   4.944   9.623   1.022  0.5731 -0.0929 -0.8408
  410MOL0     C54020   4.936   9.562   0.899 -0.0367  0.0457  0.1738
  410MOL0     C54021   4.978   9.431   0.871  0.4313  0.5980 -0.1748
  410MOL0     C54022   5.029   9.355   0.975 -0.7989  1.0143 -0.8381
  410MOL0     O54023   5.077   9.226   0.957  0.1330 -0.5194 -1.0751
  410MOL0     C54024   5.168   9.162   1.047  0.4445  0.9184  0.0069
  410MOL0     C54025   5.224   9.043   0.970 -0.0130 -0.2604  0.2168
  410MOL0     C54026   5.345   8.955   1.034 -0.7412 -0.5816  0.8844
  410MOL0     C54027   5.369   8.986   1.182 -0.5637  0.1488 -0.6400
  410MOL0     C54028   5.494   8.918   1.241  0.1995 -0.5160 -1.3056
  410MOL0     C54029   5.500   8.922   1.393  0.4740  0.5216  0.4242
  410MOL0     C54030   5.375   8.851   1.468 -0.7051 -0.3166  0.2043
  410MOL0     C54031   5.409   8.854   1.617 -1.2712  0.0299  0.1090
  410MOL0    Cl54032   5.554   8.753   1.642 -0.0303  0.2385  0.1509
  410MOL0     C54033   5.043   9.416   1.109  0.4750  1.2719  0.2839
  410MOL0     C54034   4.983   9.545   1.131 -0.1772  0.2704 -0.1337
  410MOL0     O54035   4.776   9.743   1.211 -0.1758  0.0877 -0.2558
  410MOL0     C54036   4.904  10.032   1.056 -0.0872  0.0065 -0.1222
  410MOL0     C54037   4.895  10.168   1.056  0.2803 -0.2757 -0.5090
  410MOL0     N54038   4.646  10.688   1.585 -0.3241 -0.2283 -0.0558
  410MOL0     N54039   4.654  10.668   1.706  0.4438  0.3369 -0.4610
  410MOL0     C54040   4.608  11.108   2.460  1.4519  0.1407 -0.4904
  410MOL0     C54041   4.562  11.203   2.367  0.3786 -0.1392 -0.7468
  410MOL0     C54042   4.424  11.494   2.098  0.2679 -0.2524  0.1582
  410MOL0     C54043   4.294  11.554   2.085 -0.4442 -0.8386 -0.1763
  410MOL0     C54044   4.278  11.676   2.014 -0.8618 -0.9407 -1.0169
  410MOL0     C54045   4.390  11.735   1.952  0.4295  0.4849  0.5734
  410MOL0     O54046   4.387  11.842   1.872  0.3437  0.9991 -0.0138
  410MOL0     C54047   4.273  11.928   1.882 -0.5868  0.7322 -0.3420
  410MOL0     C54048   4.297  12.010   1.762  1.4986  0.5221 -0.5425
  410MOL0     C54049   4.412  12.106   1.786  0.3749  0.1073  0.1871
  410MOL0     C54050   4.480  12.138   1.650 -0.5170  0.0991 -0.0976
  410MOL0     C54051   4.577  12.255   1.659  0.0271  0.1001 -0.5316
  410MOL0     C54052   4.640  12.360   1.678  0.5453 -0.5785  0.2335
  410MOL0     C54053   4.516  11.679   1.970 -0.7504 -0.5127  0.5713
  410MOL0     C54054   4.535  11.557   2.046 -0.4870  0.0531  0.8977
  410MOL0     H54055   4.733  11.121   2.090  1.2787 -3.0249  0.5617
  410MOL0     H54056   4.809  10.947   2.236  1.1496 -0.5014  1.0904
  410MOL0     H54057   4.856  10.760   2.562 -1.0957 -1.6402 -0.7750
  410MOL0     H54058   4.891  10.819   2.405 -1.1452 -0.3268 -1.5397
  410MOL0     H54059   4.678  10.738   2.316 -1.1798  1.1674  0.6428
  410MOL0     H54060   4.632  10.687   2.477  0.9997  0.9309  1.8885
  410MOL0     H54061   4.823  10.522   2.483 -3.4618  1.3918  1.7874
  410MOL0     H54062   4.872  10.568   2.326  1.8457 -2.6490  1.1665
  410MOL0     H54063   4.739  10.364   2.308  0.8809  0.8475 -1.3711
  410MOL0     H54064   4.628  10.428   2.436 -1.1940  0.3255  0.2190
  410MOL0     H54065   4.519  10.579   2.245 -0.5420  0.0238  0.9047
  410MOL0     H54066   4.523  10.404   2.223  0.1888  0.3508 -2.4167
  410MOL0     H54067   4.699  10.405   2.084 -1.5349 -0.3310  0.7391
  410MOL0     H54068   4.734  10.590   2.109 -2.1588  1.3090  0.0346
  410MOL0     H54069   4.457  10.546   2.007 -1.2300 -0.0179 -2.9244
  410MOL0     H54070   4.590  10.661   1.975  1.2963 -0.3784  1.1160
  410MOL0     H54071   4.543  10.396   1.854  2.4721 -1.7520  0.4420
  410MOL0     H54072   4.697  10.476   1.859 -0.1746 -2.6374 -0.5068
  410MOL0     H54073   4.402  10.488   1.599  0.1696  0.5815 -1.2987
  410MOL0     H54074   4.446  10.751   1.382 -0.8095 -0.6678 -0.9200
  410MOL0     H54075   4.399  10.584   1.368 -1.7528  1.4709  0.9546
  410MOL0     H54076   4.666  10.719   1.286 -0.4231  1.6745 -5.4761
  410MOL0     H54077   4.554  10.648   1.173 -0.4151  1.4035  0.3757
  410MOL0     H54078   4.727  10.488   1.352 -0.3058 -1.0006  0.0404
  410MOL0     H54079   4.588  10.416   1.289  1.0704  0.3547  0.0122
  410MOL0     H54080   4.733  10.564   1.085 -1.3795  0.9378  1.0272
  410MOL0     H54081   4.625  10.435   1.058 -0.3752  1.8722 -0.6803
  410MOL0     H54082   4.626  10.213   1.253  1.7278  1.5895  0.8194
  410MOL0     H54083   4.665   9.950   1.265 -1.3868  3.2688  3.9599
  410MOL0     H54084   4.901   9.625   0.818  1.0079  0.7656  0.2686
  410MOL0     H54085   4.978   9.389   0.771 -2.4896 -2.0844  0.8042
  410MOL0     H54086   5.103   9.124   1.127  0.2167  2.9624  0.8474
  410MOL0     H54087   5.256   9.222   1.067  0.9908  1.5534 -3.5522
  410MOL0     H54088   5.262   9.083   0.876  0.6074  2.7755  1.6368
  410MOL0     H54089   5.139   8.975   0.957  1.3146 -2.1117  0.7498
  410MOL0     H54090   5.429   8.982   0.969 -1.7253 -0.5805 -0.4344
  410MOL0     H54091   5.338   8.849   1.009  2.3778 -0.5912 -0.4898
  410MOL0     H54092   5.394   9.089   1.211  2.9493 -0.5169 -0.7833
  410MOL0     H54093   5.285   8.946   1.239 -0.6406  0.6216 -0.4097
  410MOL0     H54094   5.590   8.955   1.205  0.7656 -1.5750 -0.9111
  410MOL0     H54095   5.492   8.809   1.234  3.2788 -0.6634 -0.8869
  410MOL0     H54096   5.500   9.029   1.415 -0.1716  0.4626  0.7348
  410MOL0     H54097   5.591   8.880   1.436  1.0139  0.2166 -0.9631
  410MOL0     H54098   5.277   8.895   1.447 -0.2050 -0.5725 -3.0740
  410MOL0     H54099   5.373   8.743   1.451  2.8474 -0.3205 -0.9251
  410MOL0     H54100   5.333   8.826   1.691 -1.0675  1.2353  0.7943
  410MOL0     H54101   5.437   8.954   1.649  3.9047 -1.5737  1.5345
  410MOL0     H54102   5.071   9.362   1.199  0.4235  0.3654 -0.2396
  410MOL0     H54103   4.996   9.578   1.234 -0.7659 -0.5892  0.2338
  410MOL0     H54104   4.985   9.984   1.002  0.8484  1.1903  0.1917
  410MOL0     H54105   4.975  10.230   1.016 -0.9056  0.3272 -2.0455
  410MOL0     H54106   4.567  11.119   2.560 -1.7057 -1.7269 -1.4112
  410MOL0     H54107   4.513  11.294   2.400 -2.4091 -1.2741 -1.4785
  410MOL0     H54108   4.205  11.504   2.123  0.4731 -1.6292  1.0054
  410MOL0     H54109   4.182  11.726   2.016 -0.4170 -0.0939  0.4972
  410MOL0     H54110   4.269  11.995   1.969  0.0456 -0.7182  0.8352
  410MOL0     H54111   4.182  11.869   1.866 -0.6077 -0.3825  3.1510
  410MOL0     H54112   4.317  11.937   1.682  0.6227 -0.1371 -0.1817
  410MOL0     H54113   4.208  12.069   1.740  0.5704  0.0135  1.5823
  410MOL0     H54114   4.485  12.047   1.842  0.6550 -0.5774 -0.8573
  410MOL0     H54115   4.379  12.197   1.837 -2.8016  0.9247 -2.8799
  410MOL0     H54116   4.536  12.048   1.622 -2.4281 -1.4687  0.8878
  410MOL0     H54117   4.399  12.169   1.584 -2.1030  0.1106  1.7788
  410MOL0     H54118   4.690  12.454   1.691 -2.7814  1.6385 -1.7233
  410MOL0     H54119   4.605  11.721   1.924 -1.0952  1.0514  1.2576
  410MOL0     H54120   4.636  11.517   2.046 -0.6732 -0.4240  1.6132
  411MOL0     O54121   9.494   0.375  11.012 -0.4495  0.8471 -0.0560
  411MOL0     C54122   9.397   0.433  10.974 -0.0403  0.1710  0.6891
  411MOL0     O54123   9.338   0.413  10.853  0.5935 -0.1443  0.4241
  411MOL0     C54124   9.377   0.304  10.780  0.8163 -0.0168 -1.6637
  411MOL0     C54125   9.358   0.172  10.834  0.5080  1.0226 -0.2265
  411MOL0     C54126   9.393   0.062  10.759 -1.3468  0.4709  0.9156
  411MOL0     C54127   9.445   0.080  10.629 -0.4921 -0.0002  0.2416
  411MOL0     O54128   9.455  -0.028  10.548 -0.4240  0.3232 -0.6008
  411MOL0     C54129   9.369  -0.135  10.555 -0.1590  0.7741  0.0397
  411MOL0     C54130   9.364  -0.210  10.412 -0.2625 -0.5279 -0.0859
  411MOL0     C54131   9.508  -0.265  10.368  0.7036  0.9810  0.1398
  411MOL0     C54132   9.502  -0.320  10.227  0.1505 -0.3286 -0.9491
  411MOL0     C54133   9.634  -0.364  10.172  0.5025  0.4094 -0.0500
  411MOL0     C54134   9.668  -0.505  10.240  0.2570  0.5495  0.0441
  411MOL0     C54135   9.757  -0.574  10.133  0.3575  1.1846 -0.0116
  411MOL0     C54136   9.888  -0.500  10.111  0.7296  0.6111 -0.0742
  411MOL0     N54137   9.990  -0.580  10.043 -0.1886 -0.0013  0.7904
  411MOL0     C54138   9.997  -0.604   9.903 -0.8498 -0.6330  0.1886
  411MOL0     C54139  10.118  -0.664   9.890  0.8126 -0.3161 -0.5622
  411MOL0     C54140  10.172  -0.695   9.749  0.6910  0.9549  0.2272
  411MOL0     C54141  10.300  -0.612   9.735  1.3409 -0.3770  0.4076
  411MOL0     C54142  10.386  -0.648   9.607 -0.4379 -0.0266 -0.6226
  411MOL0     C54143  10.426  -0.799   9.593 -0.4554  0.5557 -0.1455
  411MOL0     O54144  10.543  -0.807   9.506  0.5866 -0.1061 -0.0253
  411MOL0     C54145  10.518  -0.840   9.372  0.3215 -0.5172  0.7874
  411MOL0     C54146  10.442  -0.759   9.288 -0.1008 -0.0607  0.9665
  411MOL0     C54147  10.446  -0.796   9.143  0.6818  0.0788 -0.7938
  411MOL0     C54148  10.520  -0.909   9.095  0.9777  0.8905  0.5294
  411MOL0     C54149  10.521  -0.940   8.951 -0.5374 -0.5694 -1.1102
  411MOL0     O54150  10.459  -0.849   8.862 -0.3491  0.0284 -0.0182
  411MOL0     C54151  10.470  -0.869   8.727 -0.7304 -0.2455  0.0628
  411MOL0     C54152  10.534  -0.784   8.635  0.7679 -0.3653  0.8754
  411MOL0     C54153  10.547  -0.819   8.504  0.5399  0.2087 -0.5490
  411MOL0     C54154  10.505  -0.950   8.462 -0.4760 -0.0733 -0.3280
  411MOL0     O54155  10.529  -0.984   8.335  0.3446 -0.3523  0.8275
  411MOL0     C54156  10.666  -0.985   8.280 -0.7298  0.4945  0.1074
  411MOL0     C54157  10.672  -0.960   8.121  1.0240  0.1835 -0.1695
  411MOL0     C54158  10.657  -0.807   8.105 -0.0362  1.5113 -0.3183
  411MOL0     C54159  10.650  -0.773   7.953  1.1262 -0.0571 -0.4038
  411MOL0     C54160  10.641  -0.614   7.951  0.0341  0.5898  1.1120
  411MOL0     C54161  10.636  -0.558   7.801 -0.0603  0.5666 -0.8890
  411MOL0     C54162  10.781  -0.540   7.742  0.1056  0.7246  0.1861
  411MOL0     C54163  10.796  -0.521   7.589  0.2293  0.0541  0.4097
  411MOL0    Cl54164  10.713  -0.654   7.495 -0.0523 -0.2244 -0.0515
  411MOL0     C54165  10.429  -1.027   8.551 -0.5747 -0.7408 -0.2231
  411MOL0     C54166  10.420  -0.995   8.683 -0.0172  0.3231 -0.0047
  411MOL0     O54167  10.596  -1.033   8.915 -0.3427 -0.0409  0.1098
  411MOL0     C54168  10.575  -0.986   9.195 -0.3995 -0.8480  0.8148
  411MOL0     C54169  10.582  -0.956   9.330 -0.2371 -0.9122 -0.3131
  411MOL0     N54170  10.181  -0.674  10.013  0.5091  0.7850 -0.0434
  411MOL0     N54171  10.101  -0.623  10.105  1.1389  0.1369 -1.7344
  411MOL0     C54172   9.467   0.211  10.583  0.3316  0.1428  0.8431
  411MOL0     C54173   9.426   0.326  10.648 -0.2682 -0.1579 -0.1087
  411MOL0     C54174   9.362   0.540  11.062 -0.2801 -0.1116 -0.3752
  411MOL0     C54175   9.410   0.547  11.190  0.8501 -0.0207 -0.2669
  411MOL0     C54176   9.353   0.634  11.282  0.9749 -0.7266 -0.2885
  411MOL0     C54177   9.246   0.714  11.252  0.2641 -0.2425  0.2032
  411MOL0     O54178   9.200   0.783  11.359 -0.1763 -0.2441 -0.2141
  411MOL0     C54179   9.107   0.890  11.329  0.1740 -0.1807  0.1784
  411MOL0     C54180   9.067   0.958  11.449  0.0164 -0.3247 -0.3575
  411MOL0     C54181   9.188   1.011  11.534  0.3303  0.3831 -0.0222
  411MOL0     C54182   9.150   1.092  11.666 -0.6296  0.1287 -0.1157
  411MOL0     C54183   9.119   1.000  11.777 -0.7028 -0.7388 -0.2547
  411MOL0     C54184   9.087   0.925  11.865  0.6067 -0.5899  0.2253
  411MOL0     C54185   9.199   0.717  11.116 -0.0695  1.0159  0.6970
  411MOL0     C54186   9.261   0.625  11.021 -0.7156 -0.2704 -0.1012
  411MOL0     H54187   9.328   0.148  10.935 -0.7297 -2.8856 -1.3431
  411MOL0     H54188   9.396  -0.039  10.799  3.1799  0.1354  0.1994
  411MOL0     H54189   9.273  -0.087  10.577  0.5406  2.1079  0.2899
  411MOL0     H54190   9.412  -0.200  10.632  1.5715 -0.4302 -1.8464
  411MOL0     H54191   9.326  -0.141  10.336 -1.4508 -0.9120  0.1449
  411MOL0     H54192   9.300  -0.296  10.429  1.1850 -1.5450  0.4592
  411MOL0     H54193   9.542  -0.352  10.425  3.3528  2.2413  0.6356
  411MOL0     H54194   9.584  -0.187  10.370 -1.2408  3.2574 -3.2026
  411MOL0     H54195   9.432  -0.404  10.228  0.8489 -0.9251 -0.5272
  411MOL0     H54196   9.476  -0.243  10.155  1.3981  0.5791 -0.4703
  411MOL0     H54197   9.709  -0.286  10.188 -1.5187  1.8701  3.4688
  411MOL0     H54198   9.606  -0.369  10.066  1.1860  3.9679 -0.5187
  411MOL0     H54199   9.576  -0.558  10.263  0.5580  0.1775  0.4040
  411MOL0     H54200   9.726  -0.499  10.333 -0.6676  2.7414  0.5429
  411MOL0     H54201   9.776  -0.676  10.170  1.3042  0.9206 -1.1515
  411MOL0     H54202   9.704  -0.585  10.039  0.8927  3.1861 -0.6007
  411MOL0     H54203   9.931  -0.460  10.203  2.7917 -2.3022  0.3503
  411MOL0     H54204   9.866  -0.416  10.044  1.8086  1.6209  0.8089
  411MOL0     H54205   9.920  -0.571   9.833  2.0686  0.6491 -2.6626
  411MOL0     H54206  10.101  -0.657   9.675 -0.2300 -1.1497 -0.0272
  411MOL0     H54207  10.186  -0.802   9.735 -0.2473  0.4833  2.5439
  411MOL0     H54208  10.360  -0.645   9.820  1.0805  0.2403  0.8421
  411MOL0     H54209  10.287  -0.504   9.740  1.0449 -0.3927 -0.0684
  411MOL0     H54210  10.326  -0.622   9.519 -1.7141  1.5534  0.6463
  411MOL0     H54211  10.469  -0.577   9.610 -2.0115  1.9283 -0.5162
  411MOL0     H54212  10.331  -0.842   9.559 -0.9303  2.4009 -1.3149
  411MOL0     H54213  10.455  -0.847   9.687  4.0891 -0.2162 -1.7178
  411MOL0     H54214  10.393  -0.668   9.320  1.3443 -0.1618  3.7976
  411MOL0     H54215  10.371  -0.745   9.084  1.1587  0.5204 -1.0280
  411MOL0     H54216  10.576  -0.692   8.674 -0.9655  1.4893 -1.3265
  411MOL0     H54217  10.605  -0.750   8.443 -1.0104  0.5319 -1.7445
  411MOL0     H54218  10.699  -1.087   8.304 -1.2892 -0.2082 -1.8849
  411MOL0     H54219  10.723  -0.906   8.329  0.0311  0.2524 -0.3735
  411MOL0     H54220  10.589  -1.015   8.075  1.4610 -0.9992  0.3979
  411MOL0     H54221  10.766  -0.997   8.078  1.4381  0.5341  0.4183
  411MOL0     H54222  10.741  -0.755   8.152 -1.2528  1.5294  1.9765
  411MOL0     H54223  10.562  -0.777   8.150  0.1304 -0.5386  1.5660
  411MOL0     H54224  10.741  -0.807   7.902  2.4544  0.9283  1.2041
  411MOL0     H54225  10.558  -0.812   7.908 -0.3432  4.1197 -1.4700
  411MOL0     H54226  10.726  -0.576   8.007  1.0336  2.9143 -1.7204
  411MOL0     H54227  10.542  -0.591   7.991 -1.5615  0.6158 -2.3983
  411MOL0     H54228  10.588  -0.459   7.802 -1.3829 -0.0485 -1.1281
  411MOL0     H54229  10.580  -0.621   7.732 -1.6664  0.4001  0.4952
  411MOL0     H54230  10.812  -0.455   7.804 -1.1117  2.3162 -1.2850
  411MOL0     H54231  10.827  -0.637   7.760 -0.9106  0.2851  0.4868
  411MOL0     H54232  10.899  -0.526   7.553 -0.4967 -0.8691 -1.7052
  411MOL0     H54233  10.759  -0.422   7.559  1.1214  0.2533 -0.0963
  411MOL0     H54234  10.389  -1.127   8.534 -4.0305  0.8617 -2.5957
  411MOL0     H54235  10.373  -1.056   8.760  0.2622 -0.3208 -0.3293
  411MOL0     H54236  10.631  -1.075   9.168  0.9308 -0.2402  1.5131
  411MOL0     H54237  10.621  -1.033   9.395 -1.9056 -3.2334 -1.8786
  411MOL0     H54238   9.517   0.223  10.488 -1.5186 -2.3625 -0.5708
  411MOL0     H54239   9.438   0.425  10.604 -0.9520  0.3490  0.7967
  411MOL0     H54240   9.492   0.482  11.219  2.4441  0.7557 -2.6629
  411MOL0     H54241   9.384   0.639  11.386  3.0616 -2.3893 -0.7642
  411MOL0     H54242   9.019   0.842  11.286  0.8302 -0.7639 -0.5414
  411MOL0     H54243   9.145   0.963  11.257  1.5173  0.0842  1.1072
  411MOL0     H54244   8.996   1.037  11.426 -0.3900 -0.6709 -0.3063
  411MOL0     H54245   9.004   0.888  11.505 -0.7756 -0.3100 -1.2068
  411MOL0     H54246   9.231   1.087  11.468 -2.7052  1.6141 -0.7880
  411MOL0     H54247   9.251   0.926  11.561  0.2804 -0.3238 -1.9473
  411MOL0     H54248   9.231   1.159  11.697 -0.7861  0.4657 -0.4284
  411MOL0     H54249   9.061   1.150  11.640 -1.8599 -2.6439 -2.5610
  411MOL0     H54250   9.037   0.857  11.931  1.0763  0.3123  1.5537
  411MOL0     H54251   9.116   0.776  11.078 -0.7413 -0.2546  0.1352
  411MOL0     H54252   9.225   0.610  10.920  0.0446 -2.0533 -0.1391
  412MOL0     O54253   8.435   5.038   7.275  0.3590 -1.3448 -0.1029
  412MOL0     C54254   8.425   5.062   7.395 -0.1218  0.6747  0.1340
  412MOL0     O54255   8.354   4.989   7.485  0.1435  0.6451  0.5339
  412MOL0     C54256   8.261   4.901   7.427 -0.1468  0.1692  0.0452
  412MOL0     C54257   8.121   4.932   7.441 -0.4084 -0.3230  0.6403
  412MOL0     C54258   8.023   4.835   7.412 -0.0260 -0.1255 -1.0064
  412MOL0     C54259   8.068   4.721   7.342 -0.1700  0.2372  0.0748
  412MOL0     O54260   7.988   4.622   7.287 -0.1902 -0.3735  0.3105
  412MOL0     C54261   7.850   4.619   7.337 -0.4833  0.6580 -0.0971
  412MOL0     C54262   7.768   4.499   7.286  0.0992 -0.4699  0.2518
  412MOL0     C54263   7.837   4.375   7.337 -0.2846 -0.6805  0.4272
  412MOL0     C54264   7.761   4.249   7.308 -0.2493 -0.1643  0.3975
  412MOL0     C54265   7.806   4.138   7.401 -0.0172  0.5906 -0.3798
  412MOL0     C54266   7.961   4.100   7.404  0.2732 -0.8267  0.0931
  412MOL0     C54267   8.011   4.042   7.270  0.4004 -0.3189  0.5137
  412MOL0     C54268   7.959   3.911   7.216 -0.6659  0.1965  0.4794
  412MOL0     N54269   7.968   3.815   7.323  0.7193  0.0135  0.6659
  412MOL0     C54270   8.079   3.747   7.373  0.2978  0.0883 -0.9071
  412MOL0     C54271   8.033   3.659   7.473 -0.3678 -0.3975  0.1760
  412MOL0     C54272   8.122   3.565   7.552 -0.2126 -0.1936 -0.5798
  412MOL0     C54273   8.144   3.431   7.482  0.1745  0.8489 -0.9472
  412MOL0     C54274   8.140   3.440   7.330 -0.5769  0.3873  0.0168
  412MOL0     C54275   8.155   3.309   7.261 -1.0298 -0.2478 -0.5570
  412MOL0     O54276   8.152   3.310   7.112  0.4166 -0.6290  0.0325
  412MOL0     C54277   8.126   3.189   7.048 -1.0559  0.0924 -0.6564
  412MOL0     C54278   8.126   3.059   7.107  0.6883 -0.2297 -0.9349
  412MOL0     C54279   8.071   2.952   7.040 -0.5244  0.6454 -0.6117
  412MOL0     C54280   8.037   2.966   6.903  0.9949  0.5333  0.7869
  412MOL0     C54281   7.999   2.850   6.824  0.1315 -0.5596  0.1089
  412MOL0     O54282   8.038   2.847   6.691 -0.2515  0.4962  0.1171
  412MOL0     C54283   7.953   2.767   6.614 -0.5788 -0.2848  0.2979
  412MOL0     C54284   8.027   2.673   6.534  0.5629 -0.5059  0.0093
  412MOL0     C54285   7.962   2.590   6.442  0.3996 -0.2446 -0.6637
  412MOL0     C54286   7.822   2.585   6.439 -0.4845 -0.2898 -0.0973
  412MOL0     O54287   7.766   2.507   6.346  0.0982  0.6259  0.2215
  412MOL0     C54288   7.759   2.372   6.386 -0.1227 -0.7474 -0.1317
  412MOL0     C54289   7.736   2.293   6.257 -0.3957 -0.1999 -0.6925
  412MOL0     C54290   7.763   2.136   6.264 -0.6832  0.3239 -0.5718
  412MOL0     C54291   7.739   2.078   6.405  0.0018  0.9365 -0.5024
  412MOL0     C54292   7.715   1.927   6.395  0.2960  1.5132 -0.0010
  412MOL0     C54293   7.809   1.841   6.301  0.8501  0.3013 -0.6228
  412MOL0     C54294   7.958   1.832   6.354 -0.8721 -0.2513  0.2793
  412MOL0     C54295   8.052   1.956   6.331 -1.0505 -0.3668 -0.2425
  412MOL0    Cl54296   8.052   1.991   6.159 -0.0696  0.4532 -0.0522
  412MOL0     C54297   7.753   2.676   6.522 -0.5727  0.3212 -0.4899
  412MOL0     C54298   7.813   2.767   6.606 -0.8595 -0.2143 -0.3255
  412MOL0     O54299   7.927   2.766   6.881 -0.8886 -0.7932  0.6367
  412MOL0     C54300   8.064   3.086   6.838 -0.4268  0.2266 -0.2281
  412MOL0     C54301   8.108   3.199   6.911  0.4442  0.2725 -0.5663
  412MOL0     N54302   7.890   3.680   7.482 -0.2054 -0.0478  0.2216
  412MOL0     N54303   7.863   3.772   7.392 -0.3040  0.4152  0.9746
  412MOL0     C54304   8.202   4.696   7.326 -0.5801 -0.2037  0.2566
  412MOL0     C54305   8.306   4.784   7.366 -0.2837 -0.2479  0.4820
  412MOL0     C54306   8.536   5.145   7.442  0.1896 -0.3300 -0.2508
  412MOL0     C54307   8.546   5.160   7.581  1.1870 -0.1102 -0.3383
  412MOL0     C54308   8.642   5.242   7.642 -0.7317  0.1174 -0.5793
  412MOL0     C54309   8.740   5.303   7.559  0.3224  0.1669  0.7750
  412MOL0     O54310   8.841   5.372   7.619 -0.0388 -0.3344  0.3221
  412MOL0     C54311   8.952   5.296   7.653  0.8360 -0.1947  0.1502
  412MOL0     C54312   9.054   5.410   7.688 -0.2732 -0.2778  0.4580
  412MOL0     C54313   9.170   5.345   7.757  0.4650 -0.1839 -0.6316
  412MOL0     C54314   9.247   5.248   7.670  0.8314 -0.2408  0.9337
  412MOL0     C54315   9.380   5.220   7.726 -0.4422 -0.2296  0.1333
  412MOL0     C54316   9.478   5.197   7.797  0.4962 -0.0171  0.6040
  412MOL0     C54317   8.738   5.277   7.420  0.2573 -0.3220  0.1192
  412MOL0     C54318   8.632   5.210   7.362  0.3525  1.1550  0.0047
  412MOL0     H54319   8.083   5.030   7.470 -0.8496  0.0318 -1.0104
  412MOL0     H54320   7.924   4.865   7.443  0.4806  0.7751 -0.2060
  412MOL0     H54321   7.792   4.710   7.318 -0.5089 -0.0322 -4.1353
  412MOL0     H54322   7.866   4.610   7.445 -0.8434  3.1959  0.2295
  412MOL0     H54323   7.752   4.500   7.177 -0.6780  1.0291  0.3507
  412MOL0     H54324   7.671   4.511   7.335  1.1314  0.0751  2.2523
  412MOL0     H54325   7.844   4.374   7.446  2.0144  1.0181  0.3661
  412MOL0     H54326   7.938   4.360   7.298 -0.8513  1.8197 -2.3585
  412MOL0     H54327   7.657   4.262   7.338 -0.7678 -1.2030 -0.9002
  412MOL0     H54328   7.780   4.227   7.203  1.0868 -0.3886  0.6655
  412MOL0     H54329   7.742   4.055   7.371  1.5751 -0.9177  0.1936
  412MOL0     H54330   7.784   4.168   7.504  3.4487 -0.7619  0.9251
  412MOL0     H54331   7.965   4.032   7.489 -1.0665 -2.0760 -0.8105
  412MOL0     H54332   8.024   4.188   7.423  1.3175 -1.7304  0.9311
  412MOL0     H54333   7.987   4.111   7.189 -0.5168 -2.4741 -1.1583
  412MOL0     H54334   8.120   4.031   7.267  0.7302 -0.1542 -6.5173
  412MOL0     H54335   8.010   3.883   7.123 -1.5449  1.2499 -0.3538
  412MOL0     H54336   7.855   3.936   7.195 -0.2415  2.2071  0.5585
  412MOL0     H54337   8.183   3.751   7.344 -0.1363 -2.1762 -3.1586
  412MOL0     H54338   8.082   3.539   7.650  1.1566  2.4186  0.7670
  412MOL0     H54339   8.218   3.615   7.562  0.1588 -0.1716 -3.3519
  412MOL0     H54340   8.063   3.361   7.504  1.8666 -2.3861 -3.9831
  412MOL0     H54341   8.223   3.378   7.536 -2.0243  0.0942  1.7551
  412MOL0     H54342   8.054   3.494   7.288 -1.5167  2.2680  3.9398
  412MOL0     H54343   8.232   3.485   7.293 -1.0028  0.2844 -1.2242
  412MOL0     H54344   8.082   3.239   7.303 -0.4579 -0.0393  0.8325
  412MOL0     H54345   8.251   3.275   7.301 -2.5461 -2.0321  1.8182
  412MOL0     H54346   8.157   3.033   7.208  2.3562 -5.8394 -2.4939
  412MOL0     H54347   8.043   2.863   7.097  1.2391 -1.4281 -2.7744
  412MOL0     H54348   8.135   2.672   6.540  0.4767 -0.6875  2.0166
  412MOL0     H54349   8.011   2.531   6.367  2.2335 -1.2694  1.2460
  412MOL0     H54350   7.680   2.353   6.458 -1.3133 -1.7889 -1.6353
  412MOL0     H54351   7.857   2.335   6.417 -0.2440 -0.1259  1.0441
  412MOL0     H54352   7.807   2.335   6.186 -0.4037  0.3504 -0.3791
  412MOL0     H54353   7.635   2.308   6.217 -0.0516  0.1694 -1.4320
  412MOL0     H54354   7.866   2.128   6.228 -1.1017  2.4511 -2.4477
  412MOL0     H54355   7.699   2.095   6.186  0.0253 -4.2735  0.9701
  412MOL0     H54356   7.827   2.099   6.468  0.6238  0.6776 -1.2666
  412MOL0     H54357   7.657   2.122   6.462 -0.3753 -3.0978  2.5039
  412MOL0     H54358   7.610   1.920   6.368  0.1355  1.6447  0.5640
  412MOL0     H54359   7.719   1.898   6.501  2.4787  2.6438  0.2816
  412MOL0     H54360   7.807   1.861   6.193 -2.7077 -2.0395 -1.1818
  412MOL0     H54361   7.780   1.735   6.306  0.2261  0.5079  0.4888
  412MOL0     H54362   7.953   1.829   6.464  3.4196  0.3393  0.6922
  412MOL0     H54363   8.000   1.746   6.302  2.6752  2.7005 -2.3131
  412MOL0     H54364   8.156   1.932   6.355 -0.7828  0.9544 -0.0255
  412MOL0     H54365   8.028   2.050   6.380 -1.3450 -1.7495  2.4585
  412MOL0     H54366   7.648   2.676   6.494 -1.1435 -1.8791  1.3261
  412MOL0     H54367   7.744   2.827   6.664 -0.2911 -1.6394  1.9673
  412MOL0     H54368   8.077   3.105   6.733  4.9387  0.9345  0.3229
  412MOL0     H54369   8.127   3.293   6.859  0.4166  0.6620  0.1182
  412MOL0     H54370   8.224   4.605   7.273 -2.5457 -0.3625 -0.3861
  412MOL0     H54371   8.409   4.759   7.345 -0.2152 -0.1353  0.6820
  412MOL0     H54372   8.467   5.119   7.644  0.4936 -0.9800 -1.7046
  412MOL0     H54373   8.641   5.267   7.747 -2.3128  0.0204 -0.5409
  412MOL0     H54374   8.997   5.239   7.571 -1.1473 -1.9456  0.2142
  412MOL0     H54375   8.940   5.225   7.736 -0.6169  0.6442  0.6957
  412MOL0     H54376   9.090   5.456   7.595 -2.2386  1.4832  0.4742
  412MOL0     H54377   9.013   5.490   7.751  2.6206  0.9952  0.8521
  412MOL0     H54378   9.143   5.299   7.853 -2.3727 -0.0702 -1.2982
  412MOL0     H54379   9.241   5.423   7.786 -0.5196  0.1328  1.1098
  412MOL0     H54380   9.209   5.149   7.644  1.7240 -1.3182  3.3642
  412MOL0     H54381   9.269   5.303   7.578 -1.8462  2.2693  1.6330
  412MOL0     H54382   9.558   5.148   7.849 -0.7531 -1.3881  1.2926
  412MOL0     H54383   8.815   5.317   7.355  0.3805 -0.8771 -0.0781
  412MOL0     H54384   8.639   5.197   7.255  3.4588  4.6325 -0.4185
  413MOL0     O54385   2.566  11.184   2.756 -0.2627 -0.6241 -0.1543
  413MOL0     C54386   2.681  11.142   2.747  0.5015  0.7508  0.1432
  413MOL0     O54387   2.776  11.191   2.664 -0.0355  0.7128  0.2930
  413MOL0     C54388   2.748  11.272   2.550 -0.3508 -0.8646 -0.6071
  413MOL0     C54389   2.803  11.402   2.532 -0.6932 -0.1912 -0.7714
  413MOL0     C54390   2.777  11.475   2.413 -0.3910  0.2176 -0.0922
  413MOL0     C54391   2.706  11.417   2.306  0.7231  0.0473  0.0297
  413MOL0     O54392   2.693  11.488   2.185 -0.5342  0.3905 -0.7985
  413MOL0     C54393   2.621  11.426   2.083  0.1313 -0.6450  0.4119
  413MOL0     C54394   2.588  11.526   1.972 -0.6933  0.4630 -0.4990
  413MOL0     C54395   2.521  11.656   2.017 -0.6557 -0.2518 -1.0918
  413MOL0     C54396   2.457  11.730   1.909 -1.1926  0.1302  0.2389
  413MOL0     C54397   2.407  11.862   1.945 -0.2136 -0.3145 -0.0938
  413MOL0     C54398   2.294  11.909   1.847  0.1408  0.8638 -0.0688
  413MOL0     C54399   2.321  11.887   1.693 -0.3048  1.0618  0.2349
  413MOL0     C54400   2.452  11.933   1.629  0.7211  0.2287  0.1346
  413MOL0     N54401   2.454  12.076   1.600  1.0013 -0.4732  0.4675
  413MOL0     C54402   2.405  12.179   1.674  0.1929 -0.4811 -0.5950
  413MOL0     C54403   2.403  12.291   1.590  0.4644  0.6961 -0.7049
  413MOL0     C54404   2.370  12.424   1.629 -0.8059 -0.3151  0.8031
  413MOL0     C54405   2.304  12.511   1.515  0.3129 -0.3372 -0.1022
  413MOL0     C54406   2.281  12.656   1.562  0.7047 -0.1771 -0.0158
  413MOL0     C54407   2.406  12.724   1.595 -0.5569  0.3618  0.3080
  413MOL0     O54408   2.494  12.726   1.478 -1.2329 -0.0652  0.4896
  413MOL0     C54409   2.593  12.822   1.472 -0.2353 -0.9980  0.0668
  413MOL0     C54410   2.682  12.797   1.365  0.2527 -0.2888 -0.4299
  413MOL0     C54411   2.796  12.871   1.346 -0.2037 -0.4874  0.2693
  413MOL0     C54412   2.823  12.984   1.427 -0.1555  1.1667  0.1045
  413MOL0     C54413   2.934  13.069   1.392 -0.0191 -0.2453 -0.9508
  413MOL0     O54414   2.933  13.199   1.456  0.7230 -0.1565 -0.0014
  413MOL0     C54415   3.041  13.281   1.447  0.3325 -1.0634  0.1765
  413MOL0     C54416   3.137  13.277   1.542  0.9828  0.5907 -0.5552
  413MOL0     C54417   3.249  13.357   1.541 -0.0224 -0.1453 -0.5226
  413MOL0     C54418   3.268  13.456   1.436  0.6112  0.1370 -0.2973
  413MOL0     O54419   3.385  13.529   1.414  0.4927  0.1160 -0.3127
  413MOL0     C54420   3.431  13.604   1.526  0.1130  0.4066 -0.6079
  413MOL0     C54421   3.568  13.554   1.561  0.4455 -0.7926  0.1978
  413MOL0     C54422   3.671  13.667   1.511 -0.3292  1.2773  0.1484
  413MOL0     C54423   3.808  13.632   1.563  0.6788  0.2285 -0.0464
  413MOL0     C54424   3.873  13.502   1.508 -0.1799 -0.2661  0.8429
  413MOL0     C54425   3.901  13.487   1.349  0.1593  0.1048  0.0875
  413MOL0     C54426   3.914  13.335   1.304  0.0459  0.9632  0.5010
  413MOL0     C54427   4.038  13.258   1.333  0.2070 -0.3054  1.0388
  413MOL0    Cl54428   4.174  13.318   1.242 -0.0163  0.0394 -0.9325
  413MOL0     C54429   3.167  13.465   1.343  0.4223  0.8066  0.4527
  413MOL0     C54430   3.057  13.374   1.346  0.7210  0.4804 -0.7884
  413MOL0     O54431   3.006  13.043   1.304 -0.5760 -0.5535 -0.0363
  413MOL0     C54432   2.734  13.007   1.536 -0.6136 -1.1209  0.0629
  413MOL0     C54433   2.626  12.928   1.564 -0.8827  0.3494 -0.1380
  413MOL0     N54434   2.445  12.250   1.468 -0.5993  0.0737 -0.1085
  413MOL0     N54435   2.465  12.122   1.469  1.2049 -0.5927 -0.2429
  413MOL0     C54436   2.652  11.289   2.323  0.0505  0.5035  0.3922
  413MOL0     C54437   2.682  11.213   2.440  0.0993  1.0531  0.4976
  413MOL0     C54438   2.711  11.014   2.815  0.5243  0.3209  0.3600
  413MOL0     C54439   2.614  10.943   2.886  0.0816  0.0953 -0.6647
  413MOL0     C54440   2.646  10.815   2.938  0.2444  0.0656 -0.1115
  413MOL0     C54441   2.771  10.768   2.921  0.2546  0.9139  0.6863
  413MOL0     O54442   2.832  10.668   2.985 -0.2292  0.1002  0.3767
  413MOL0     C54443   2.750  10.558   3.017  0.5113  0.4197  0.2254
  413MOL0     C54444   2.798  10.423   2.958 -0.4320  0.0547  0.3509
  413MOL0     C54445   2.947  10.414   2.964 -0.4167 -0.1652  0.8583
  413MOL0     C54446   2.992  10.287   2.893  0.3187  1.0574 -0.8168
  413MOL0     C54447   2.969  10.294   2.750  1.0941  1.1359  0.2077
  413MOL0     C54448   2.946  10.303   2.635  0.0674 -0.2978 -0.4602
  413MOL0     C54449   2.871  10.844   2.857 -0.1290 -0.1451 -0.0505
  413MOL0     C54450   2.839  10.959   2.794  0.1824 -0.4844 -0.4716
  413MOL0     H54451   2.861  11.446   2.612 -2.7379  3.6360 -1.1520
  413MOL0     H54452   2.825  11.572   2.403 -0.4402  0.5787  2.4528
  413MOL0     H54453   2.526  11.377   2.107 -1.0763  0.7792 -1.2605
  413MOL0     H54454   2.682  11.354   2.029 -1.5470 -2.1762  0.4519
  413MOL0     H54455   2.527  11.481   1.893  0.3355  1.7482 -2.1032
  413MOL0     H54456   2.684  11.557   1.929 -0.6428  0.7685 -0.1619
  413MOL0     H54457   2.591  11.716   2.077 -2.0205 -1.3892  1.8569
  413MOL0     H54458   2.448  11.623   2.091  0.1946 -0.5007 -0.3301
  413MOL0     H54459   2.529  11.741   1.827 -1.4441 -0.3377 -0.0467
  413MOL0     H54460   2.379  11.669   1.863  0.5676 -0.7561 -1.7280
  413MOL0     H54461   2.490  11.933   1.949 -0.1451 -0.2686 -1.8027
  413MOL0     H54462   2.368  11.855   2.047  0.8579  2.9874  0.6424
  413MOL0     H54463   2.271  12.015   1.861  3.1051  2.1500 -3.3687
  413MOL0     H54464   2.209  11.846   1.873  1.0843 -1.1021 -1.4847
  413MOL0     H54465   2.320  11.778   1.680 -1.1745  1.3428 -2.9549
  413MOL0     H54466   2.238  11.919   1.630  0.7817 -1.2292 -2.6536
  413MOL0     H54467   2.450  11.893   1.527 -2.5711  2.4943 -0.8366
  413MOL0     H54468   2.544  11.910   1.683 -0.7901 -1.0793  2.2715
  413MOL0     H54469   2.367  12.179   1.776 -1.2684  1.6726 -1.0587
  413MOL0     H54470   2.461  12.480   1.652 -0.3730 -0.4412 -0.5322
  413MOL0     H54471   2.308  12.420   1.720  3.1126 -1.5679  3.7218
  413MOL0     H54472   2.208  12.469   1.482 -0.3897  1.7818 -0.8645
  413MOL0     H54473   2.377  12.512   1.435  1.5456  2.0168  0.9617
  413MOL0     H54474   2.244  12.709   1.474 -0.3687  0.1703  0.6364
  413MOL0     H54475   2.215  12.653   1.649  0.8916  1.7628  0.2302
  413MOL0     H54476   2.461  12.688   1.682  2.7666  2.7212 -0.5821
  413MOL0     H54477   2.389  12.829   1.623  1.9504  0.6349  1.0262
  413MOL0     H54478   2.675  12.710   1.302  2.1282 -2.5772  2.2350
  413MOL0     H54479   2.856  12.864   1.256  0.3881  1.4325  0.4793
  413MOL0     H54480   3.141  13.195   1.612 -0.6314  0.7838 -0.2036
  413MOL0     H54481   3.323  13.349   1.620 -0.2109  1.6237 -0.1168
  413MOL0     H54482   3.370  13.597   1.617 -0.6473  4.2076 -0.6293
  413MOL0     H54483   3.420  13.713   1.523  3.3828  0.8296 -0.9791
  413MOL0     H54484   3.588  13.455   1.520 -0.0718 -1.2117  0.9355
  413MOL0     H54485   3.570  13.552   1.670 -0.6346  1.4504  0.3310
  413MOL0     H54486   3.637  13.768   1.538 -4.7778  0.7918 -2.5192
  413MOL0     H54487   3.672  13.678   1.402  1.7947  2.9831  0.2871
  413MOL0     H54488   3.876  13.710   1.528 -0.5553  0.1941 -2.7997
  413MOL0     H54489   3.811  13.631   1.672 -2.2343 -0.1919  0.1021
  413MOL0     H54490   3.823  13.418   1.559 -0.5730 -0.3079  0.3929
  413MOL0     H54491   3.975  13.498   1.547  0.8463  0.6832 -1.5930
  413MOL0     H54492   3.992  13.541   1.323  0.3760  0.2533  1.1250
  413MOL0     H54493   3.819  13.537   1.297  1.0576 -1.1944 -2.7818
  413MOL0     H54494   3.825  13.281   1.337 -0.5380  1.7351  0.2384
  413MOL0     H54495   3.906  13.322   1.195 -3.1913 -1.9059  0.9130
  413MOL0     H54496   4.034  13.157   1.292  2.2550  0.4596 -1.2906
  413MOL0     H54497   4.072  13.264   1.437  2.0955  1.3315  0.3988
  413MOL0     H54498   3.176  13.534   1.260  0.5444  1.3869  0.9375
  413MOL0     H54499   2.987  13.373   1.263  0.8166  0.6366 -0.8715
  413MOL0     H54500   2.755  13.087   1.607  1.5327 -1.7575  0.2142
  413MOL0     H54501   2.578  12.931   1.661  1.5013 -1.9794  1.2428
  413MOL0     H54502   2.595  11.228   2.253  0.2607 -1.4030  1.7866
  413MOL0     H54503   2.645  11.113   2.461 -2.7278  2.7291  4.5728
  413MOL0     H54504   2.519  10.990   2.910 -0.2380 -0.5766 -0.5846
  413MOL0     H54505   2.577  10.764   3.005  1.6447 -2.2615 -0.3070
  413MOL0     H54506   2.644  10.562   2.991  0.2824 -0.6482  0.9260
  413MOL0     H54507   2.754  10.532   3.123 -2.1939 -1.6772 -0.0952
  413MOL0     H54508   2.744  10.336   2.996  0.0092 -0.6023 -0.4662
  413MOL0     H54509   2.777  10.414   2.851  0.0370 -0.3739  0.2904
  413MOL0     H54510   2.979  10.422   3.069  1.1575 -2.4812  0.6216
  413MOL0     H54511   2.996  10.495   2.909  1.1825 -1.4257  0.3561
  413MOL0     H54512   3.097  10.273   2.920 -0.8682 -1.3878  3.6630
  413MOL0     H54513   2.937  10.197   2.921 -0.8027  1.8238 -0.4654
  413MOL0     H54514   2.908  10.318   2.536 -1.0062 -2.1874 -0.3855
  413MOL0     H54515   2.971  10.802   2.853 -0.7888 -1.7621 -0.8119
  413MOL0     H54516   2.909  11.010   2.728 -0.6526  5.4147  2.5432
  414MOL0     O54517   4.976   8.125  11.179  0.3734 -0.4884  0.0361
  414MOL0     C54518   4.993   8.163  11.292  1.0589  1.1601  0.4285
  414MOL0     O54519   5.080   8.112  11.376 -0.5560 -0.1213  0.2664
  414MOL0     C54520   5.172   8.018  11.334 -0.4971 -0.0268 -0.5992
  414MOL0     C54521   5.218   7.985  11.203 -0.2330 -0.3730 -0.0472
  414MOL0     C54522   5.312   7.879  11.185  1.8477 -0.5791  0.0780
  414MOL0     C54523   5.359   7.802  11.292  0.1714 -0.0313 -0.2426
  414MOL0     O54524   5.430   7.684  11.279  0.9495 -0.2530  0.7063
  414MOL0     C54525   5.546   7.676  11.189 -0.5883 -0.2411 -0.4867
  414MOL0     C54526   5.677   7.712  11.266  0.3268  0.3256  0.3957
  414MOL0     C54527   5.810   7.651  11.199  0.9785  0.2214 -0.0973
  414MOL0     C54528   5.931   7.677  11.296  0.0267 -0.0231  0.7417
  414MOL0     C54529   6.047   7.570  11.314 -0.9640 -0.5912  1.1826
  414MOL0     C54530   6.106   7.522  11.180  0.7422  0.7580  0.5263
  414MOL0     C54531   6.181   7.391  11.183 -0.3168  1.0092 -0.6409
  414MOL0     C54532   6.091   7.273  11.218  0.5602  0.7758  0.4386
  414MOL0     N54533   5.981   7.250  11.116 -0.7074  0.5607  0.5565
  414MOL0     C54534   5.858   7.211  11.139  0.5645 -0.1469 -0.5885
  414MOL0     C54535   5.788   7.219  11.027  0.2152 -0.0221 -0.1161
  414MOL0     C54536   5.651   7.183  11.008 -0.7919 -0.8922 -0.1156
  414MOL0     C54537   5.553   7.265  11.087  0.1285 -0.3894 -0.7211
  414MOL0     C54538   5.409   7.272  11.044  0.4194 -0.6076  0.3134
  414MOL0     C54539   5.338   7.358  11.138  0.1232  0.3254 -0.1228
  414MOL0     O54540   5.193   7.336  11.120  0.9772 -0.1529 -0.3062
  414MOL0     C54541   5.104   7.436  11.170  0.0053  0.4980 -0.1176
  414MOL0     C54542   4.981   7.448  11.105 -0.6616  0.1775 -0.5102
  414MOL0     C54543   4.891   7.548  11.140  0.1054  0.6781 -0.0807
  414MOL0     C54544   4.929   7.652  11.239 -0.1313 -0.0234  1.0836
  414MOL0     C54545   4.845   7.770  11.252 -0.2415  0.4020  0.3925
  414MOL0     O54546   4.721   7.766  11.191 -0.6828 -0.8355 -0.2520
  414MOL0     C54547   4.637   7.874  11.214 -0.7289 -0.8489 -0.0534
  414MOL0     C54548   4.519   7.827  11.262  0.5612  0.1674 -0.0026
  414MOL0     C54549   4.408   7.906  11.266 -0.2741 -0.4231 -0.5784
  414MOL0     C54550   4.417   8.046  11.241  0.4022  0.9472 -0.3261
  414MOL0     O54551   4.309   8.130  11.276 -0.3999  0.2623  0.4157
  414MOL0     C54552   4.189   8.119  11.200  0.3860  1.0061 -0.2617
  414MOL0     C54553   4.107   8.249  11.181  0.2085  0.5172  0.2229
  414MOL0     C54554   4.087   8.331  11.312  0.2304  0.0176 -0.4872
  414MOL0     C54555   3.958   8.404  11.296  0.0549  0.1743 -0.2265
  414MOL0     C54556   3.932   8.472  11.428  0.0221 -0.7328 -0.4413
  414MOL0     C54557   3.803   8.569  11.444  0.5487 -0.1325  0.3167
  414MOL0     C54558   3.788   8.698  11.354  0.5223  0.2553 -0.1557
  414MOL0     C54559   3.876   8.809  11.406  0.0416 -0.7644 -0.7660
  414MOL0    Cl54560   3.906   8.946  11.272 -0.1553 -0.4532  0.1377
  414MOL0     C54561   4.542   8.098  11.205 -0.1981  0.5519  0.4160
  414MOL0     C54562   4.652   8.013  11.190  0.9011  0.3597 -0.4875
  414MOL0     O54563   4.886   7.860  11.319  0.5624 -1.0117 -0.1246
  414MOL0     C54564   5.051   7.636  11.305 -0.6221  0.3323  0.5194
  414MOL0     C54565   5.126   7.524  11.280 -0.5909  0.2413  0.8055
  414MOL0     N54566   5.894   7.238  10.927  0.6829  0.5139 -0.6917
  414MOL0     N54567   6.000   7.266  10.988  0.6883  0.3326  0.5507
  414MOL0     C54568   5.331   7.853  11.421 -0.6097 -0.2338  0.6305
  414MOL0     C54569   5.236   7.955  11.432 -0.0798  0.8062 -0.0122
  414MOL0     C54570   4.904   8.267  11.349  0.6809  0.0258 -0.5964
  414MOL0     C54571   4.865   8.375  11.272  0.3261  0.0559  0.6822
  414MOL0     C54572   4.801   8.489  11.328 -0.7023  0.1584  0.1670
  414MOL0     C54573   4.784   8.502  11.472 -0.2566  0.2810  0.7655
  414MOL0     O54574   4.756   8.627  11.537 -0.0308 -0.3545 -0.0499
  414MOL0     C54575   4.690   8.732  11.457 -0.3851  0.0975 -0.1162
  414MOL0     C54576   4.534   8.711  11.438  0.6742  1.3702 -0.3091
  414MOL0     C54577   4.481   8.680  11.582  0.0039  1.2782 -0.2079
  414MOL0     C54578   4.325   8.673  11.576 -0.3741  0.0216  0.1663
  414MOL0     C54579   4.270   8.803  11.533 -0.0932 -0.3539  0.7437
  414MOL0     C54580   4.230   8.903  11.492 -1.0239 -0.0786 -0.1090
  414MOL0     C54581   4.833   8.386  11.544  1.1883 -0.2871 -0.7857
  414MOL0     C54582   4.883   8.274  11.486 -0.0012 -0.1178 -0.1297
  414MOL0     H54583   5.170   8.036  11.120 -0.6243  1.3828  1.2078
  414MOL0     H54584   5.336   7.845  11.085 -1.8170 -2.1840 -0.4240
  414MOL0     H54585   5.540   7.742  11.103  1.9262  1.3164  0.4198
  414MOL0     H54586   5.561   7.571  11.163 -0.4646 -0.3340 -0.0595
  414MOL0     H54587   5.672   7.673  11.368 -0.1734 -0.3289  0.1317
  414MOL0     H54588   5.684   7.821  11.262 -3.3263  0.7338  1.0656
  414MOL0     H54589   5.829   7.712  11.110 -2.4384 -0.2558 -1.3131
  414MOL0     H54590   5.799   7.545  11.175 -1.4977  0.5078 -0.4896
  414MOL0     H54591   5.984   7.766  11.262 -0.8294 -0.3600 -1.6517
  414MOL0     H54592   5.900   7.710  11.396 -0.3599 -1.7581  1.2302
  414MOL0     H54593   6.010   7.484  11.370  3.8810 -4.4330 -0.7571
  414MOL0     H54594   6.128   7.615  11.372 -1.8297  1.8312  0.6317
  414MOL0     H54595   6.168   7.607  11.149  1.9961 -0.2202  0.2386
  414MOL0     H54596   6.022   7.512  11.111 -0.2239  0.5575  1.7036
  414MOL0     H54597   6.232   7.373  11.088  2.5411 -2.3976  1.3084
  414MOL0     H54598   6.254   7.403  11.264 -0.0660 -2.6090 -0.1770
  414MOL0     H54599   6.049   7.287  11.318  1.3409 -2.2673  1.2966
  414MOL0     H54600   6.145   7.178  11.225 -2.9891 -1.3620  1.6979
  414MOL0     H54601   5.815   7.182  11.235 -0.6688 -0.6311 -1.2674
  414MOL0     H54602   5.634   7.076  11.017  1.0617 -1.3909 -1.8784
  414MOL0     H54603   5.621   7.210  10.907  1.1609  2.5760  0.0540
  414MOL0     H54604   5.599   7.363  11.103  3.4286 -2.2835  3.1720
  414MOL0     H54605   5.541   7.212  11.182 -4.1062  0.0264 -0.8066
  414MOL0     H54606   5.406   7.311  10.942  3.6559  1.1782  0.7558
  414MOL0     H54607   5.367   7.171  11.054 -2.2336  0.2156 -1.5049
  414MOL0     H54608   5.368   7.459  11.109  2.0849 -0.7682 -2.2977
  414MOL0     H54609   5.364   7.329  11.240  1.0016 -2.8973 -1.1534
  414MOL0     H54610   4.939   7.381  11.030 -0.8907  0.4850 -0.6633
  414MOL0     H54611   4.799   7.557  11.083 -0.4505 -0.6353  0.5751
  414MOL0     H54612   4.503   7.728  11.303 -1.5996  0.4586 -0.0192
  414MOL0     H54613   4.319   7.850  11.291  0.0525 -0.5356  0.3745
  414MOL0     H54614   4.116   8.061  11.258 -0.3906  2.7610  0.6219
  414MOL0     H54615   4.205   8.064  11.108  0.9495  4.0398 -2.1146
  414MOL0     H54616   4.008   8.215  11.147  0.0315  1.2158  0.0190
  414MOL0     H54617   4.146   8.304  11.094  0.7497 -0.3425 -0.0828
  414MOL0     H54618   4.173   8.398  11.321  1.1438 -1.0025 -1.3499
  414MOL0     H54619   4.089   8.255  11.390  2.8523 -0.9144 -1.3461
  414MOL0     H54620   3.948   8.477  11.216 -0.1297 -0.5171 -0.8480
  414MOL0     H54621   3.881   8.327  11.295  1.9112 -1.8113 -1.7078
  414MOL0     H54622   4.021   8.526  11.461  0.2466 -0.7804 -0.9524
  414MOL0     H54623   3.922   8.402  11.511 -1.6258 -1.5622 -1.2958
  414MOL0     H54624   3.786   8.593  11.549  0.6351  0.1299  0.2730
  414MOL0     H54625   3.717   8.505  11.421  2.1434 -1.9930 -0.8059
  414MOL0     H54626   3.819   8.666  11.254  2.7414  1.2109  0.1700
  414MOL0     H54627   3.688   8.741  11.341  0.3978 -0.3816 -1.4726
  414MOL0     H54628   3.978   8.784  11.438  0.4265  1.3781 -0.1138
  414MOL0     H54629   3.821   8.849  11.492 -1.6793  0.2328 -2.2723
  414MOL0     H54630   4.536   8.200  11.170  1.5487  0.3841 -0.4837
  414MOL0     H54631   4.752   8.046  11.161  0.0442  1.0529 -2.9098
  414MOL0     H54632   5.067   7.706  11.386  2.9252 -0.6639  0.8505
  414MOL0     H54633   5.210   7.511  11.347 -1.1745 -1.7796  1.2246
  414MOL0     H54634   5.351   7.795  11.510 -2.9053 -0.3362  1.1339
  414MOL0     H54635   5.199   7.977  11.532  0.3779  0.4950  0.2285
  414MOL0     H54636   4.878   8.370  11.165 -3.0099 -0.7964  0.2221
  414MOL0     H54637   4.780   8.570  11.259  2.7596  1.4433  0.4170
  414MOL0     H54638   4.736   8.737  11.358  1.6459 -2.8979  0.5039
  414MOL0     H54639   4.711   8.822  11.515 -1.7634  0.6021 -0.3763
  414MOL0     H54640   4.499   8.810  11.408 -3.6699 -0.0294 -0.5242
  414MOL0     H54641   4.526   8.640  11.355  1.2190  1.5946 -0.5629
  414MOL0     H54642   4.520   8.756  11.651  1.6832  1.0908 -0.9018
  414MOL0     H54643   4.522   8.582  11.611  0.9090  1.1065 -1.9410
  414MOL0     H54644   4.286   8.596  11.509  1.6560  0.0301 -1.0806
  414MOL0     H54645   4.284   8.653  11.676 -0.7813 -0.1169 -0.0276
  414MOL0     H54646   4.182   8.992  11.454  1.6780  0.5070 -2.5164
  414MOL0     H54647   4.823   8.387  11.652  0.7771 -0.8890 -0.8167
  414MOL0     H54648   4.914   8.192  11.549  1.6846 -0.5419 -1.4606
  415MOL0     O54649   5.889   8.001   7.924 -0.0005  0.0191 -0.1687
  415MOL0     C54650   5.928   7.902   7.982  0.2405  0.1333  2.0569
  415MOL0     O54651   6.036   7.895   8.058 -0.5915 -0.0823 -0.1175
  415MOL0     C54652   6.071   7.782   8.110 -0.2422 -0.0091  0.1909
  415MOL0     C54653   6.110   7.778   8.248  0.4347 -0.1924 -0.0311
  415MOL0     C54654   6.136   7.649   8.303  0.3585  0.3089  0.5434
  415MOL0     C54655   6.134   7.531   8.224  1.3343  0.6742 -0.1754
  415MOL0     O54656   6.140   7.409   8.286 -1.2737  0.1646 -0.0837
  415MOL0     C54657   6.265   7.381   8.355 -0.1246  0.6180  0.0517
  415MOL0     C54658   6.356   7.301   8.270 -0.9490 -0.3911  0.0055
  415MOL0     C54659   6.337   7.152   8.278  0.1851 -0.5598  0.2241
  415MOL0     C54660   6.417   7.065   8.180 -0.2835 -0.7377  0.2070
  415MOL0     C54661   6.390   6.921   8.204  0.1125  0.2629 -0.3106
  415MOL0     C54662   6.439   6.871   8.340  0.0284 -0.1489  0.2096
  415MOL0     C54663   6.486   6.716   8.333  0.4762  0.1070  0.4621
  415MOL0     C54664   6.569   6.685   8.462  0.3886 -0.6362  0.9886
  415MOL0     N54665   6.487   6.633   8.573  1.2131 -0.3526  0.6581
  415MOL0     C54666   6.411   6.713   8.661  1.0594  0.6561  0.0965
  415MOL0     C54667   6.363   6.620   8.752 -0.5143  0.4220 -0.0839
  415MOL0     C54668   6.301   6.646   8.887  0.0982 -0.3130  0.2511
  415MOL0     C54669   6.383   6.621   9.013  1.0223  0.0052 -1.0955
  415MOL0     C54670   6.404   6.740   9.125 -0.1474  0.7893 -0.5148
  415MOL0     C54671   6.543   6.806   9.098 -0.1468  0.0903  0.6660
  415MOL0     O54672   6.542   6.927   9.182 -0.3972  0.1973 -0.4791
  415MOL0     C54673   6.572   6.906   9.315 -0.4041  0.3868 -0.1772
  415MOL0     C54674   6.612   6.780   9.373 -0.1486 -0.0620 -0.5903
  415MOL0     C54675   6.654   6.773   9.508  0.2273 -1.3674  0.5529
  415MOL0     C54676   6.625   6.894   9.596  0.0212  0.3708  0.6324
  415MOL0     C54677   6.669   6.897   9.736 -0.3650  0.2294  0.4283
  415MOL0     O54678   6.729   6.781   9.784  0.3390  0.4341  0.8716
  415MOL0     C54679   6.783   6.771   9.910  0.4638 -0.0885 -0.0096
  415MOL0     C54680   6.710   6.811  10.023  0.0138  0.4060 -0.0273
  415MOL0     C54681   6.759   6.765  10.148  0.0627  0.0254  0.3744
  415MOL0     C54682   6.880   6.711  10.163  0.1334 -0.1564 -0.3180
  415MOL0     O54683   6.909   6.675  10.293 -0.1591 -0.4256 -0.2127
  415MOL0     C54684   7.042   6.666  10.326  0.1005  1.1236  1.4348
  415MOL0     C54685   7.108   6.799  10.326 -0.7802  1.2996  0.0800
  415MOL0     C54686   7.262   6.781  10.334 -0.0191  0.3668  0.1193
  415MOL0     C54687   7.332   6.921  10.351  0.4081 -0.1098  0.5332
  415MOL0     C54688   7.478   6.906  10.352 -0.2426 -0.5612  1.1758
  415MOL0     C54689   7.533   6.851  10.485 -1.0531  0.8088 -0.0469
  415MOL0     C54690   7.678   6.874  10.516  0.4908 -0.1078 -0.2693
  415MOL0     C54691   7.728   6.782  10.634 -0.9492  0.3825  0.5067
  415MOL0    Cl54692   7.609   6.763  10.763  0.3829 -0.4252  0.8269
  415MOL0     C54693   6.970   6.685  10.047  0.0653  0.2041 -0.1454
  415MOL0     C54694   6.908   6.715   9.921  0.7188 -0.5504  0.2180
  415MOL0     O54695   6.675   7.010   9.783  0.1641 -0.9112 -0.0580
  415MOL0     C54696   6.575   7.013   9.531  0.1576  0.6274 -1.3315
  415MOL0     C54697   6.553   7.010   9.398 -0.0321  0.4701 -0.8695
  415MOL0     N54698   6.380   6.492   8.700  0.5828 -0.2819  0.3711
  415MOL0     N54699   6.462   6.500   8.603  0.0029 -0.2267 -0.3887
  415MOL0     C54700   6.096   7.532   8.097 -0.0364 -0.6871  1.3235
  415MOL0     C54701   6.063   7.657   8.040 -0.4141 -1.6120  0.3906
  415MOL0     C54702   5.812   7.810   7.998  0.1407 -0.7959 -0.7434
  415MOL0     C54703   5.738   7.764   7.890  0.3194 -0.0112 -1.2298
  415MOL0     C54704   5.626   7.684   7.915  1.2496  0.1874  0.1381
  415MOL0     C54705   5.575   7.662   8.042  0.2565 -0.3581 -0.5506
  415MOL0     O54706   5.480   7.569   8.069 -0.7939  0.1439  0.5864
  415MOL0     C54707   5.373   7.615   8.142  0.2782 -0.3979  0.4004
  415MOL0     C54708   5.260   7.523   8.109 -0.2561  0.4276 -0.0714
  415MOL0     C54709   5.145   7.569   8.203  1.3803  0.7181 -0.2415
  415MOL0     C54710   5.013   7.532   8.137  0.5439  0.5329 -0.6223
  415MOL0     C54711   4.987   7.387   8.140  0.2047 -0.7349  0.4998
  415MOL0     C54712   4.985   7.268   8.156  0.0742 -0.1769 -0.6351
  415MOL0     C54713   5.642   7.714   8.149  0.6228 -0.5739 -0.7724
  415MOL0     C54714   5.759   7.789   8.132 -0.0759  0.3435  0.2767
  415MOL0     H54715   6.116   7.873   8.300 -0.4412  1.1623 -2.2443
  415MOL0     H54716   6.147   7.650   8.411  0.9290 -1.7847  0.5518
  415MOL0     H54717   6.243   7.323   8.445 -2.6622 -0.4563 -1.1627
  415MOL0     H54718   6.303   7.478   8.390  0.1299  1.5996 -2.6894
  415MOL0     H54719   6.457   7.330   8.301 -1.7973  1.0477  1.5885
  415MOL0     H54720   6.337   7.333   8.167 -1.8912 -0.6987  0.0747
  415MOL0     H54721   6.235   7.145   8.240  0.1567  2.3547 -0.4662
  415MOL0     H54722   6.346   7.129   8.384 -0.9128 -0.8404  0.2696
  415MOL0     H54723   6.386   7.093   8.079  0.8065 -2.0373 -0.5059
  415MOL0     H54724   6.523   7.090   8.192  0.2594 -1.8591 -1.8537
  415MOL0     H54725   6.444   6.864   8.127  0.0427 -1.3063  0.7572
  415MOL0     H54726   6.290   6.880   8.190  1.5509 -2.7132 -3.6451
  415MOL0     H54727   6.354   6.871   8.410  1.5488 -2.1473  2.2412
  415MOL0     H54728   6.512   6.937   8.389 -0.2011 -0.7554  1.4257
  415MOL0     H54729   6.400   6.651   8.318  1.1097 -0.1973 -2.3863
  415MOL0     H54730   6.552   6.715   8.246  2.6312 -1.2852  2.0013
  415MOL0     H54731   6.615   6.777   8.499  2.2301 -1.1499  0.1123
  415MOL0     H54732   6.656   6.625   8.433  0.9937  1.1798 -1.2693
  415MOL0     H54733   6.411   6.819   8.684 -1.4558  0.5284  0.9893
  415MOL0     H54734   6.221   6.573   8.900 -0.9869  0.9501  0.7621
  415MOL0     H54735   6.250   6.742   8.877 -1.9406 -1.5739 -3.5556
  415MOL0     H54736   6.484   6.583   8.996 -0.1211 -4.2501  0.3578
  415MOL0     H54737   6.333   6.536   9.060  0.4315 -0.2035 -2.0841
  415MOL0     H54738   6.327   6.818   9.128 -0.0771  0.8472  1.8450
  415MOL0     H54739   6.404   6.703   9.228 -1.5113  0.9266 -0.4511
  415MOL0     H54740   6.560   6.831   8.993  0.7228 -0.9616  0.5429
  415MOL0     H54741   6.623   6.738   9.129 -0.4174  0.9443  3.5964
  415MOL0     H54742   6.630   6.687   9.321 -0.8011 -2.6682  3.4351
  415MOL0     H54743   6.713   6.685   9.534  0.9742 -0.8249  0.7138
  415MOL0     H54744   6.607   6.845  10.024  0.0910  0.6911 -0.9438
  415MOL0     H54745   6.691   6.765  10.233 -1.7638 -2.1789 -0.9939
  415MOL0     H54746   7.091   6.595  10.259  2.6239  3.2464  0.8615
  415MOL0     H54747   7.045   6.624  10.426  0.4211  3.0371  2.2740
  415MOL0     H54748   7.069   6.855  10.412  0.1990  3.5873 -0.8792
  415MOL0     H54749   7.091   6.856  10.234  0.2582  1.2035 -0.1860
  415MOL0     H54750   7.293   6.729  10.243  3.6098  1.2663  0.6758
  415MOL0     H54751   7.296   6.705  10.405  0.5945  0.5162 -0.0060
  415MOL0     H54752   7.312   6.978  10.260  0.9854  1.4059  1.3328
  415MOL0     H54753   7.304   6.979  10.439  1.4124 -0.5770  1.1844
  415MOL0     H54754   7.516   7.007  10.337 -1.3028 -0.5438 -2.3484
  415MOL0     H54755   7.507   6.851  10.262  3.6782  1.8032  0.7658
  415MOL0     H54756   7.528   6.742  10.482  3.1173  0.4482 -0.5462
  415MOL0     H54757   7.477   6.883  10.573 -1.1164  0.5044  0.0259
  415MOL0     H54758   7.728   6.850  10.421  3.2112  0.3439  0.9553
  415MOL0     H54759   7.694   6.977  10.547 -2.8105 -0.3199  2.7495
  415MOL0     H54760   7.809   6.840  10.678 -2.0881 -0.1966  3.6491
  415MOL0     H54761   7.754   6.684  10.592  0.9618  0.3531  1.6565
  415MOL0     H54762   7.068   6.640  10.053  0.6955  1.4439 -0.7833
  415MOL0     H54763   6.956   6.706   9.825  2.5793  2.3573  0.7646
  415MOL0     H54764   6.551   7.098   9.594  0.0121 -0.1062 -0.3690
  415MOL0     H54765   6.510   7.100   9.355 -0.1779 -1.1469 -4.3659
  415MOL0     H54766   6.100   7.445   8.033  3.7188 -0.2978  0.8130
  415MOL0     H54767   6.030   7.660   7.937 -0.7248 -0.8843  0.5091
  415MOL0     H54768   5.755   7.798   7.788  2.3949 -2.8908 -1.9522
  415MOL0     H54769   5.568   7.643   7.833  2.0591 -1.3817  0.3078
  415MOL0     H54770   5.351   7.710   8.091  2.4843 -0.7772 -1.4466
  415MOL0     H54771   5.391   7.620   8.249  0.1844 -0.7821  0.4346
  415MOL0     H54772   5.244   7.534   8.002  0.2450 -0.4155 -0.2413
  415MOL0     H54773   5.285   7.418   8.127  0.5215  0.8235  1.3216
  415MOL0     H54774   5.137   7.678   8.217 -0.7335  0.5642  0.0513
  415MOL0     H54775   5.170   7.522   8.298  0.8234  0.4167 -0.2410
  415MOL0     H54776   4.936   7.584   8.195 -1.9282 -1.8971 -1.4793
  415MOL0     H54777   5.013   7.568   8.034  0.8139 -0.5054 -0.9900
  415MOL0     H54778   4.987   7.166   8.188 -0.2361  1.1723  4.5352
  415MOL0     H54779   5.602   7.708   8.250 -0.5863  1.0749 -1.1040
  415MOL0     H54780   5.801   7.824   8.226 -1.1982  2.9254 -0.1093
  416MOL0     O54781   8.004  10.462   3.796 -0.1033 -0.0836 -0.4762
  416MOL0     C54782   7.975  10.463   3.674  0.0569  0.5869 -0.1748
  416MOL0     O54783   7.933  10.357   3.606  0.0214 -0.0368 -0.7792
  416MOL0     C54784   7.921  10.225   3.651  0.3340  0.1981  0.3798
  416MOL0     C54785   7.828  10.156   3.573 -0.2092 -0.2671 -0.7671
  416MOL0     C54786   7.799  10.023   3.593 -0.4845  0.7788  0.7766
  416MOL0     C54787   7.871   9.952   3.692  0.8370  0.1034 -1.1787
  416MOL0     O54788   7.828   9.820   3.706 -0.4652 -0.1299 -0.0461
  416MOL0     C54789   7.899   9.743   3.811  0.8414  0.3851  0.9822
  416MOL0     C54790   7.837   9.596   3.808 -0.2016  0.3972 -0.2030
  416MOL0     C54791   7.690   9.581   3.848  1.1340 -0.9863 -0.1517
  416MOL0     C54792   7.642   9.443   3.838  1.3898 -0.6844  0.3879
  416MOL0     C54793   7.681   9.354   3.957  0.1879 -0.3283 -0.1101
  416MOL0     C54794   7.574   9.238   3.997 -0.4078  0.2715  0.4083
  416MOL0     C54795   7.640   9.141   4.101 -0.1092  0.6696 -0.7271
  416MOL0     C54796   7.544   9.050   4.186  0.0917 -0.3872 -0.8737
  416MOL0     N54797   7.587   8.913   4.195 -0.4909  0.3213 -0.2635
  416MOL0     C54798   7.628   8.841   4.304  0.4906  0.5891  0.0221
  416MOL0     C54799   7.667   8.727   4.248 -0.2662 -0.7220 -0.1084
  416MOL0     C54800   7.730   8.624   4.334 -0.0478 -0.3907 -0.6507
  416MOL0     C54801   7.777   8.500   4.258  0.5138 -1.2307  0.3235
  416MOL0     C54802   7.660   8.401   4.276 -0.2232 -0.5650 -1.0486
  416MOL0     C54803   7.688   8.264   4.211  0.0188 -0.5423  0.3228
  416MOL0     O54804   7.821   8.217   4.256  1.2948  0.6774 -0.4572
  416MOL0     C54805   7.842   8.167   4.378 -0.7446  0.9549  0.3914
  416MOL0     C54806   7.740   8.123   4.460 -1.1139 -0.1833 -0.1908
  416MOL0     C54807   7.773   8.049   4.573  0.1045 -0.3580 -0.3274
  416MOL0     C54808   7.910   8.045   4.618  0.2495  0.1374 -0.4347
  416MOL0     C54809   7.956   7.992   4.748  0.7052  0.0134  0.0742
  416MOL0     O54810   8.083   8.011   4.782 -0.6310 -0.2379  0.8168
  416MOL0     C54811   8.132   7.966   4.897 -0.3758  0.4482 -1.3605
  416MOL0     C54812   8.173   8.059   4.989 -0.0461 -0.5770  0.7048
  416MOL0     C54813   8.239   8.023   5.100  0.0330 -0.6818  0.0566
  416MOL0     C54814   8.255   7.893   5.143  0.0649 -0.3544 -0.3968
  416MOL0     O54815   8.313   7.877   5.262 -0.3619  0.5348  0.3685
  416MOL0     C54816   8.338   7.743   5.313  0.9085  0.3315  0.2075
  416MOL0     C54817   8.291   7.737   5.459 -0.4426  0.3739  0.6429
  416MOL0     C54818   8.321   7.601   5.516  0.0797  0.1276  0.6616
  416MOL0     C54819   8.262   7.580   5.660  1.1010 -0.2517  0.5754
  416MOL0     C54820   8.263   7.433   5.701  0.5435  0.5940  0.1616
  416MOL0     C54821   8.238   7.406   5.854 -0.2567 -0.8525  0.6430
  416MOL0     C54822   8.255   7.254   5.897 -0.8688 -0.0319  1.0145
  416MOL0     C54823   8.117   7.171   5.883 -0.9461  0.1210 -0.2197
  416MOL0    Cl54824   8.133   7.073   5.736  0.7859 -0.0659  0.3432
  416MOL0     C54825   8.220   7.800   5.046  0.9332 -0.2449 -0.5171
  416MOL0     C54826   8.167   7.838   4.922  0.1929  0.7389 -0.2903
  416MOL0     O54827   7.873   7.929   4.817 -0.5127  0.4059 -0.4815
  416MOL0     C54828   8.013   8.089   4.529  0.1492  0.5958 -0.1112
  416MOL0     C54829   7.976   8.143   4.409  0.6385 -1.2750 -0.4008
  416MOL0     N54830   7.664   8.723   4.102 -0.7210 -0.2313  0.1207
  416MOL0     N54831   7.614   8.836   4.079  0.6206 -0.7299  0.5602
  416MOL0     C54832   7.974  10.022   3.771  0.2723 -0.1151  0.0627
  416MOL0     C54833   7.986  10.162   3.750  0.0826 -0.3262  0.0147
  416MOL0     C54834   7.979  10.590   3.595 -0.2898  1.2904  0.7627
  416MOL0     C54835   8.026  10.708   3.647  0.0264 -0.1646  0.3824
  416MOL0     C54836   8.033  10.825   3.556  0.3106  0.1427  0.8628
  416MOL0     C54837   8.000  10.816   3.425  0.3997 -1.1951  0.6622
  416MOL0     O54838   8.015  10.941   3.350  0.2337 -0.4668 -0.1831
  416MOL0     C54839   7.974  10.952   3.215 -0.1569  0.0363  0.2077
  416MOL0     C54840   7.823  10.939   3.187 -0.0236  0.0816  0.3928
  416MOL0     C54841   7.747  11.022   3.295  0.2763 -0.9326 -1.6725
  416MOL0     C54842   7.592  11.020   3.272 -0.5424 -0.4294  0.9693
  416MOL0     C54843   7.545  11.071   3.138  0.7257  0.0153  0.3371
  416MOL0     C54844   7.504  11.106   3.030  0.2711  0.2794 -0.3895
  416MOL0     C54845   7.955  10.695   3.377  0.5025  0.0080 -0.3941
  416MOL0     C54846   7.945  10.585   3.463  0.3407  0.1198  0.5605
  416MOL0     H54847   7.770  10.208   3.498 -0.3851 -1.7010 -1.6581
  416MOL0     H54848   7.725   9.984   3.525 -0.3645  1.1223  0.4406
  416MOL0     H54849   7.877   9.779   3.912 -2.6844 -1.9017  1.2378
  416MOL0     H54850   8.007   9.743   3.797  0.7332 -3.5039 -1.5680
  416MOL0     H54851   7.900   9.527   3.864 -2.1052  0.2480  1.9107
  416MOL0     H54852   7.844   9.576   3.700  2.0979  0.5626 -0.1227
  416MOL0     H54853   7.630   9.633   3.773 -0.2000 -2.1150  0.0853
  416MOL0     H54854   7.669   9.622   3.948  2.3709 -1.1096  0.1692
  416MOL0     H54855   7.532   9.443   3.841  1.2889 -1.3921 -1.7519
  416MOL0     H54856   7.674   9.391   3.747 -0.9955 -0.9801 -0.3559
  416MOL0     H54857   7.686   9.413   4.050 -1.0041  1.6475 -1.2138
  416MOL0     H54858   7.780   9.321   3.927  0.8444  2.5799 -1.5384
  416MOL0     H54859   7.552   9.174   3.912 -0.1391  0.1520  0.4289
  416MOL0     H54860   7.480   9.284   4.031 -0.4596  0.6083 -0.1834
  416MOL0     H54861   7.718   9.082   4.052 -2.3231 -0.7247 -2.8007
  416MOL0     H54862   7.695   9.198   4.176  1.2796 -0.0871 -1.1210
  416MOL0     H54863   7.443   9.051   4.144 -0.8418  0.3972  1.2293
  416MOL0     H54864   7.540   9.094   4.286 -0.6187 -1.1048 -0.5715
  416MOL0     H54865   7.637   8.862   4.411 -0.0736  0.3224  0.1267
  416MOL0     H54866   7.661   8.597   4.415 -0.7527 -1.2803 -1.5282
  416MOL0     H54867   7.820   8.666   4.381 -0.1251 -1.5729  0.6122
  416MOL0     H54868   7.872   8.459   4.295  0.8581  0.9107  1.9968
  416MOL0     H54869   7.781   8.515   4.149 -0.5971 -1.6382  0.2203
  416MOL0     H54870   7.623   8.381   4.377 -3.0494 -0.8760 -2.0695
  416MOL0     H54871   7.567   8.446   4.242  0.5351  2.8904  0.9340
  416MOL0     H54872   7.695   8.281   4.104 -3.8935  0.6899  0.1188
  416MOL0     H54873   7.607   8.193   4.223 -0.1268 -0.3424  0.5480
  416MOL0     H54874   7.634   8.131   4.439 -1.2401  0.9936  0.8046
  416MOL0     H54875   7.699   8.019   4.646 -0.2086  0.2983 -0.3677
  416MOL0     H54876   8.165   8.159   4.946  0.2085 -3.1022 -6.6744
  416MOL0     H54877   8.298   8.091   5.160  0.7509 -1.3657  0.1356
  416MOL0     H54878   8.444   7.719   5.303  0.3592 -3.0859  1.3293
  416MOL0     H54879   8.283   7.664   5.260  0.8936  0.6374 -0.2409
  416MOL0     H54880   8.182   7.749   5.459 -1.1873 -4.5320  0.5325
  416MOL0     H54881   8.361   7.812   5.498 -1.6230  0.9218  1.7802
  416MOL0     H54882   8.429   7.588   5.525 -0.0546 -0.7085  1.2110
  416MOL0     H54883   8.274   7.530   5.447  0.8963  0.2329 -0.0113
  416MOL0     H54884   8.302   7.655   5.729 -0.3694 -0.4266  1.6653
  416MOL0     H54885   8.155   7.599   5.649  1.5432  1.4239 -1.4424
  416MOL0     H54886   8.351   7.385   5.658  1.2194  1.1660  0.8703
  416MOL0     H54887   8.181   7.384   5.649 -0.1895  3.7413 -1.8749
  416MOL0     H54888   8.137   7.442   5.874  0.2632  0.7705  0.5395
  416MOL0     H54889   8.304   7.468   5.917 -2.3844  1.4489  0.7653
  416MOL0     H54890   8.339   7.211   5.842  0.5402  4.0993 -0.4136
  416MOL0     H54891   8.288   7.259   6.001 -1.8232  0.9951  1.2917
  416MOL0     H54892   8.042   7.250   5.889  2.8065  3.9842  1.3343
  416MOL0     H54893   8.103   7.108   5.971 -0.0509 -1.6531 -1.2819
  416MOL0     H54894   8.238   7.694   5.056 -3.1606 -1.4700 -3.4238
  416MOL0     H54895   8.164   7.762   4.844  0.3985 -0.3761  0.7490
  416MOL0     H54896   8.118   8.082   4.553  0.4120  3.3539 -0.0334
  416MOL0     H54897   8.046   8.177   4.333 -1.1259 -0.5584 -1.7830
  416MOL0     H54898   8.030   9.969   3.847  0.7889  1.8593  1.1288
  416MOL0     H54899   8.057  10.216   3.811 -0.3081 -1.5681  1.6491
  416MOL0     H54900   8.061  10.722   3.749 -3.7652  1.7421  1.6589
  416MOL0     H54901   8.067  10.920   3.597  1.0195 -0.0921  0.8134
  416MOL0     H54902   8.029  10.870   3.167 -0.1520  0.5568 -0.6997
  416MOL0     H54903   7.999  11.045   3.163  2.4640  0.2685  1.6688
  416MOL0     H54904   7.799  10.987   3.092 -1.2585  0.3150  0.7932
  416MOL0     H54905   7.790  10.835   3.181 -0.7830  0.2515 -6.6816
  416MOL0     H54906   7.777  11.126   3.282 -5.4479  1.0525 -1.6912
  416MOL0     H54907   7.770  10.985   3.396 -0.9708  2.0196 -0.1881
  416MOL0     H54908   7.554  10.923   3.304 -0.5546 -0.2988  1.3577
  416MOL0     H54909   7.554  11.091   3.346  1.4991 -0.2348  1.8980
  416MOL0     H54910   7.471  11.118   2.928 -0.2568  2.5007 -0.0022
  416MOL0     H54911   7.924  10.689   3.273  1.7039 -0.7317 -0.7305
  416MOL0     H54912   7.909  10.494   3.415  0.5573  0.9923 -1.3858
  417MOL0     O54913   6.055   7.084   9.435  0.0928 -0.4535 -0.4481
  417MOL0     C54914   5.990   7.181   9.447  0.4283 -0.9935  0.6448
  417MOL0     O54915   6.019   7.293   9.528  0.2258 -0.3393  0.1788
  417MOL0     C54916   6.142   7.311   9.568  0.1373 -0.2847 -0.9798
  417MOL0     C54917   6.247   7.317   9.475  0.2193 -1.4066 -0.1077
  417MOL0     C54918   6.380   7.340   9.521 -0.5271  1.0858  0.9974
  417MOL0     C54919   6.398   7.343   9.656  0.3702  0.7833  0.0100
  417MOL0     O54920   6.521   7.372   9.704 -0.1954 -0.6857 -0.5263
  417MOL0     C54921   6.567   7.345   9.838  0.9248  0.2530  0.2227
  417MOL0     C54922   6.553   7.466   9.926 -0.8052 -0.3109 -0.0501
  417MOL0     C54923   6.622   7.598   9.881 -0.1769  0.4377  0.1423
  417MOL0     C54924   6.771   7.604   9.887  0.4302 -0.2444 -0.2687
  417MOL0     C54925   6.810   7.697   9.784 -0.0668  0.4972 -0.2334
  417MOL0     C54926   6.962   7.697   9.776  0.6968 -0.2814 -0.1725
  417MOL0     C54927   7.003   7.800   9.663 -0.0307  0.4796 -1.2990
  417MOL0     C54928   6.963   7.784   9.514 -0.3728 -0.1330 -0.3210
  417MOL0     N54929   7.025   7.656   9.459 -0.1141 -0.4834 -0.1285
  417MOL0     C54930   7.121   7.574   9.515  0.1562 -0.1382 -0.3564
  417MOL0     C54931   7.143   7.478   9.427 -0.5101 -1.0391  0.5157
  417MOL0     C54932   7.225   7.359   9.445  0.1901  1.0015  0.0021
  417MOL0     C54933   7.306   7.314   9.318  0.4311 -0.0543  0.4874
  417MOL0     C54934   7.345   7.167   9.315 -1.3478 -0.2388  0.0534
  417MOL0     C54935   7.444   7.134   9.428 -0.3176  0.1018  1.3797
  417MOL0     O54936   7.473   6.994   9.406  0.0184  0.4650  0.4561
  417MOL0     C54937   7.568   6.927   9.472 -0.4981 -0.0276 -0.7397
  417MOL0     C54938   7.598   6.796   9.440 -0.2451 -0.0980  0.8873
  417MOL0     C54939   7.701   6.721   9.499 -0.8017  0.1942 -0.6774
  417MOL0     C54940   7.787   6.783   9.598 -0.0374  0.5180  0.0679
  417MOL0     C54941   7.910   6.719   9.661  0.2685  0.4801  0.7383
  417MOL0     O54942   7.938   6.597   9.599 -0.3460  0.9786  0.3767
  417MOL0     C54943   7.956   6.471   9.664  0.3496 -0.5866 -1.3025
  417MOL0     C54944   8.005   6.363   9.593  0.1968  0.5965 -0.9568
  417MOL0     C54945   8.040   6.243   9.658 -0.2754 -0.1678 -0.1122
  417MOL0     C54946   8.033   6.221   9.792  1.1183  0.1728 -0.9697
  417MOL0     O54947   8.040   6.098   9.863 -0.6285 -0.5928  0.4981
  417MOL0     C54948   8.139   6.006   9.818  0.1419 -0.0159 -0.5317
  417MOL0     C54949   8.248   5.997   9.920 -0.5211 -0.4608  0.1302
  417MOL0     C54950   8.345   5.887   9.873 -1.1566 -0.3079  0.5705
  417MOL0     C54951   8.488   5.908   9.903  0.0956 -0.1221 -0.1570
  417MOL0     C54952   8.570   5.783   9.867  0.0285 -0.0704 -0.2622
  417MOL0     C54953   8.570   5.666   9.971 -0.2488  0.3993  0.1444
  417MOL0     C54954   8.659   5.548   9.922 -0.1806  0.0539 -0.1599
  417MOL0     C54955   8.672   5.442  10.022 -0.1412 -0.4425 -0.4487
  417MOL0    Cl54956   8.770   5.490  10.161  0.2121 -0.1110 -0.0588
  417MOL0     C54957   7.991   6.333   9.872  0.8220  0.0153  0.3684
  417MOL0     C54958   7.957   6.454   9.810  0.4842 -0.8118  0.3563
  417MOL0     O54959   7.962   6.762   9.766 -0.5471  0.2948  0.6487
  417MOL0     C54960   7.745   6.909   9.637 -0.4584  0.2316 -1.5505
  417MOL0     C54961   7.629   6.975   9.584 -0.1892  0.0227  0.3414
  417MOL0     N54962   7.067   7.502   9.316  0.0109  1.0528 -0.4838
  417MOL0     N54963   7.001   7.613   9.327 -0.0696  0.1745  0.8133
  417MOL0     C54964   6.288   7.336   9.747  0.1576  0.5135 -0.2119
  417MOL0     C54965   6.159   7.318   9.706 -0.4650 -0.2924  0.6129
  417MOL0     C54966   5.860   7.176   9.372 -0.2096  0.2710  0.2772
  417MOL0     C54967   5.806   7.055   9.333  0.7214  0.8773  0.1424
  417MOL0     C54968   5.674   7.058   9.264  0.0132 -0.2605  0.0234
  417MOL0     C54969   5.600   7.180   9.241 -0.3037  0.0212  0.1363
  417MOL0     O54970   5.470   7.177   9.192  0.1723 -0.0166  0.2301
  417MOL0     C54971   5.411   7.057   9.133  0.7610  0.0479 -0.5017
  417MOL0     C54972   5.266   7.078   9.139 -0.0858 -0.1089 -0.1346
  417MOL0     C54973   5.220   7.142   9.007 -0.3897 -0.7226 -1.2158
  417MOL0     C54974   5.215   7.285   9.021 -0.9954  0.1050 -0.0563
  417MOL0     C54975   5.081   7.337   8.980  0.9496  1.0480 -0.3595
  417MOL0     C54976   4.977   7.379   8.947  0.5776  0.3111  0.1824
  417MOL0     C54977   5.655   7.299   9.276 -0.5079  0.2899  0.3653
  417MOL0     C54978   5.789   7.296   9.340  0.8401  0.3313  0.3909
  417MOL0     H54979   6.222   7.301   9.370  3.6826 -0.7911 -1.1647
  417MOL0     H54980   6.461   7.362   9.453  0.9257 -3.2839  0.9808
  417MOL0     H54981   6.672   7.316   9.835  0.4107 -1.6601 -2.4613
  417MOL0     H54982   6.505   7.263   9.877  1.3375 -0.4615 -0.5951
  417MOL0     H54983   6.582   7.437  10.028  2.8585 -0.2904 -0.9410
  417MOL0     H54984   6.449   7.499   9.921 -0.1688  1.7816 -0.8215
  417MOL0     H54985   6.570   7.681   9.930 -0.8475  0.2306 -0.2203
  417MOL0     H54986   6.599   7.617   9.776  3.2329  0.4948 -0.7270
  417MOL0     H54987   6.818   7.636   9.980  0.8591 -0.9678 -0.2294
  417MOL0     H54988   6.805   7.502   9.868 -2.8822 -1.4296 -0.6252
  417MOL0     H54989   6.762   7.794   9.800  1.0793  1.1216 -0.4850
  417MOL0     H54990   6.776   7.657   9.687  1.7341 -0.4262 -0.5261
  417MOL0     H54991   6.991   7.602   9.729  0.1548 -0.9628  0.8096
  417MOL0     H54992   6.998   7.717   9.878  1.0532  1.1124 -0.5553
  417MOL0     H54993   6.966   7.894   9.706 -0.0347 -1.7284  4.4171
  417MOL0     H54994   7.112   7.807   9.671  0.0741 -1.3205 -0.5519
  417MOL0     H54995   7.006   7.863   9.451  0.6145  0.4504  1.0379
  417MOL0     H54996   6.855   7.778   9.497 -0.0758  0.0506 -2.5524
  417MOL0     H54997   7.162   7.576   9.616  1.8095  2.1254 -0.9898
  417MOL0     H54998   7.174   7.272   9.487 -1.9876  1.2134 -1.9997
  417MOL0     H54999   7.298   7.390   9.520  2.3055  1.3458 -2.0619
  417MOL0     H55000   7.397   7.372   9.301 -0.3460  0.1508 -4.4518
  417MOL0     H55001   7.241   7.323   9.231  0.3311  2.2034  0.7418
  417MOL0     H55002   7.253   7.108   9.318 -3.1679  2.4303  0.3780
  417MOL0     H55003   7.388   7.133   9.221 -2.8161 -5.9369  1.1062
  417MOL0     H55004   7.388   7.138   9.521  1.0198 -3.6219  2.4979
  417MOL0     H55005   7.533   7.198   9.431 -0.5674  0.4199  3.6904
  417MOL0     H55006   7.555   6.741   9.356 -0.7268  0.9369  0.4318
  417MOL0     H55007   7.713   6.623   9.454 -0.1263  1.3851 -3.3100
  417MOL0     H55008   8.009   6.361   9.485  1.8474 -2.9701 -0.9456
  417MOL0     H55009   8.083   6.167   9.593  0.1203 -0.3425  0.3537
  417MOL0     H55010   8.179   6.023   9.718  0.0150  2.4326 -0.2229
  417MOL0     H55011   8.101   5.904   9.824  0.0679  0.0330  4.7390
  417MOL0     H55012   8.210   5.974  10.020  1.2396  2.0707  1.4775
  417MOL0     H55013   8.284   6.100   9.910 -1.6636 -0.2207 -2.5299
  417MOL0     H55014   8.330   5.863   9.768  3.4917  0.8409 -0.6180
  417MOL0     H55015   8.306   5.800   9.927  1.5095 -1.6225  0.5612
  417MOL0     H55016   8.529   5.999   9.858  0.3735  0.2351  0.8054
  417MOL0     H55017   8.510   5.908  10.010 -0.4894 -2.1732  0.0075
  417MOL0     H55018   8.674   5.818   9.866 -0.0759  0.4403 -3.1166
  417MOL0     H55019   8.560   5.746   9.765 -3.9805  0.1304 -0.1009
  417MOL0     H55020   8.466   5.632   9.985 -0.7720  1.1585 -1.6395
  417MOL0     H55021   8.600   5.705  10.069 -0.3891  1.0247 -0.0570
  417MOL0     H55022   8.611   5.514   9.830 -1.6544  2.2586 -0.2928
  417MOL0     H55023   8.758   5.582   9.889  0.1200 -0.2130  0.4625
  417MOL0     H55024   8.723   5.352   9.986  0.6316 -0.4440  0.5940
  417MOL0     H55025   8.580   5.400  10.062  0.3733 -1.0021  0.1820
  417MOL0     H55026   7.982   6.320   9.980 -1.8047 -1.3013  0.0743
  417MOL0     H55027   7.919   6.541   9.863 -0.7648 -0.8488 -0.4216
  417MOL0     H55028   7.794   6.957   9.721 -3.6173 -0.2104  0.7257
  417MOL0     H55029   7.597   7.069   9.629  1.6597  0.5054  0.7445
  417MOL0     H55030   6.318   7.328   9.852  1.9437  1.6831 -0.5808
  417MOL0     H55031   6.076   7.304   9.773 -1.4486 -3.1367 -1.0195
  417MOL0     H55032   5.842   6.959   9.368 -0.0147  0.0422 -1.3092
  417MOL0     H55033   5.631   6.959   9.250  0.7453 -0.9456  2.1738
  417MOL0     H55034   5.429   6.978   9.206 -0.1044 -1.1004 -1.5080
  417MOL0     H55035   5.439   7.027   9.032  0.8659 -1.4965 -0.0315
  417MOL0     H55036   5.236   6.973   9.137  2.2791 -0.8693  0.3331
  417MOL0     H55037   5.234   7.118   9.236 -2.6972 -2.4298  0.0571
  417MOL0     H55038   5.127   7.097   8.971 -1.7766  2.0269 -1.3500
  417MOL0     H55039   5.293   7.124   8.927 -0.2233 -1.7854 -0.8400
  417MOL0     H55040   5.227   7.334   9.119 -0.8580 -2.3211  1.2184
  417MOL0     H55041   5.285   7.337   8.954 -0.4219  0.7286  0.9894
  417MOL0     H55042   4.886   7.419   8.906  1.4237 -0.0517 -2.1904
  417MOL0     H55043   5.593   7.386   9.259 -1.4841  0.0258  2.3747
  417MOL0     H55044   5.815   7.390   9.387 -1.9226  1.7254 -0.6439
  418MOL0     O55045   8.281   6.839   3.168 -0.1932  0.1140  0.6538
  418MOL0     C55046   8.261   6.792   3.052 -1.0870  0.2184  0.2822
  418MOL0     O55047   8.331   6.686   3.000  0.6192 -0.0802  0.4677
  418MOL0     C55048   8.434   6.634   3.081 -0.0157  0.0263 -0.3982
  418MOL0     C55049   8.456   6.492   3.074 -0.3839  0.0828  0.1745
  418MOL0     C55050   8.573   6.442   3.136 -0.6514  0.1115 -1.4961
  418MOL0     C55051   8.675   6.524   3.196  0.7482  0.2871  0.0286
  418MOL0     O55052   8.779   6.450   3.248 -0.0475 -0.0891  0.2820
  418MOL0     C55053   8.891   6.511   3.299  0.1750 -0.7306  0.0403
  418MOL0     C55054   8.896   6.543   3.455 -0.7602 -0.6459 -0.5463
  418MOL0     C55055   8.911   6.425   3.546  0.1459  0.5882 -0.2255
  418MOL0     C55056   8.848   6.445   3.687 -0.5291 -0.1073 -0.3454
  418MOL0     C55057   8.849   6.306   3.759  0.2465 -0.5249  0.5870
  418MOL0     C55058   8.837   6.335   3.915 -1.0020 -0.5246  0.0671
  418MOL0     C55059   8.794   6.212   3.990  0.7626 -0.5993  0.2838
  418MOL0     C55060   8.892   6.103   4.009  0.0474  0.2105 -1.0341
  418MOL0     N55061   8.833   5.985   4.072  1.0368 -0.0574  0.5080
  418MOL0     C55062   8.863   5.944   4.202 -0.2243  0.2836 -0.4038
  418MOL0     C55063   8.820   5.815   4.205 -0.1756  0.1170 -0.3137
  418MOL0     C55064   8.852   5.707   4.318 -0.1183  0.5863  0.8138
  418MOL0     C55065   8.722   5.642   4.370 -0.2469  0.2701 -0.1551
  418MOL0     C55066   8.752   5.532   4.481  0.7471  0.5264  0.6278
  418MOL0     C55067   8.809   5.402   4.417 -0.4890  0.5800  0.0929
  418MOL0     O55068   8.847   5.315   4.522 -0.0799  0.3534  0.4533
  418MOL0     C55069   8.919   5.209   4.469 -0.1335 -1.0436  0.1687
  418MOL0     C55070   8.947   5.183   4.336 -0.3712  0.2163  0.5361
  418MOL0     C55071   9.021   5.071   4.293 -0.2416  0.1391  0.7241
  418MOL0     C55072   9.067   4.978   4.384  0.6245  0.1241  0.0060
  418MOL0     C55073   9.159   4.868   4.347  0.1766 -0.1755 -0.0221
  418MOL0     O55074   9.231   4.896   4.236 -0.6730  0.2914 -0.5210
  418MOL0     C55075   9.304   4.787   4.184  0.4657  0.0535  0.3524
  418MOL0     C55076   9.272   4.649   4.179  0.2210  0.8297  1.0050
  418MOL0     C55077   9.361   4.551   4.136 -0.1698  0.4087  0.3154
  418MOL0     C55078   9.492   4.588   4.109 -0.2275  0.5462 -0.3263
  418MOL0     O55079   9.599   4.508   4.079  0.3817 -0.2760 -0.1654
  418MOL0     C55080   9.576   4.393   3.993 -0.9662 -0.9178  0.3808
  418MOL0     C55081   9.634   4.420   3.856  0.1574 -0.3516  0.7356
  418MOL0     C55082   9.781   4.460   3.860  0.1192 -0.1908  0.0723
  418MOL0     C55083   9.848   4.501   3.728  0.4488 -0.3912 -0.8003
  418MOL0     C55084   9.835   4.400   3.620  0.2561  0.8176  0.3484
  418MOL0     C55085   9.940   4.424   3.514 -0.8746  0.6832  0.4486
  418MOL0     C55086  10.076   4.395   3.567 -0.4158  0.4743 -0.3056
  418MOL0     C55087  10.173   4.422   3.453 -0.0194 -0.1472 -0.4472
  418MOL0    Cl55088  10.334   4.336   3.491 -0.1042  0.2697  0.5258
  418MOL0     C55089   9.525   4.726   4.089 -0.1041  0.1100 -0.8058
  418MOL0     C55090   9.428   4.825   4.128 -0.1845  0.2535 -0.3668
  418MOL0     O55091   9.171   4.770   4.415 -0.0865  0.5356 -0.0605
  418MOL0     C55092   9.031   5.001   4.518  0.6783  0.1545 -0.0667
  418MOL0     C55093   8.963   5.120   4.561 -0.1113 -0.3315  0.2322
  418MOL0     N55094   8.768   5.779   4.081  0.1344  0.1082 -0.3323
  418MOL0     N55095   8.784   5.879   3.996 -0.2448  0.8987  0.2340
  418MOL0     C55096   8.658   6.660   3.183  0.4915  0.5084  0.0139
  418MOL0     C55097   8.539   6.715   3.130  0.4504 -0.5021  0.1191
  418MOL0     C55098   8.159   6.855   2.969 -0.2655  1.0243 -0.1718
  418MOL0     C55099   8.131   6.995   2.988 -0.3359  0.0763 -0.8406
  418MOL0     C55100   8.063   7.063   2.887 -0.4429  0.0662 -0.7255
  418MOL0     C55101   8.028   7.003   2.768  0.3325  0.5024  0.2844
  418MOL0     O55102   7.948   7.068   2.674  0.0357 -0.0701  0.6108
  418MOL0     C55103   7.921   7.016   2.545  0.7470  0.2506 -0.0442
  418MOL0     C55104   7.816   7.107   2.463 -0.1880 -0.1553  0.1037
  418MOL0     C55105   7.871   7.229   2.388  0.1098 -0.7522  0.2929
  418MOL0     C55106   7.895   7.225   2.234 -0.7829 -0.6193  0.7147
  418MOL0     C55107   8.025   7.149   2.208  0.5449 -0.4423  0.1504
  418MOL0     C55108   8.124   7.089   2.183 -0.6829  1.0296  0.2358
  418MOL0     C55109   8.057   6.864   2.757 -0.4790  0.9846  0.3025
  418MOL0     C55110   8.117   6.792   2.853 -0.8603  0.5890  0.1719
  418MOL0     H55111   8.385   6.429   3.022  1.6079 -4.7743  2.7237
  418MOL0     H55112   8.583   6.335   3.121 -2.5201  0.0723 -2.7795
  418MOL0     H55113   8.896   6.607   3.247  1.3948 -0.9372 -0.2558
  418MOL0     H55114   8.984   6.456   3.280  0.5523 -0.5890  1.3688
  418MOL0     H55115   8.811   6.606   3.485  2.2958  3.1361  0.9700
  418MOL0     H55116   8.980   6.608   3.480  0.0047  0.1377 -4.5653
  418MOL0     H55117   9.015   6.391   3.544  0.6132  1.9369 -0.4561
  418MOL0     H55118   8.861   6.345   3.491  2.6801  0.8066 -3.1417
  418MOL0     H55119   8.913   6.510   3.747  3.6793  1.0728 -5.3830
  418MOL0     H55120   8.748   6.488   3.680 -1.0712 -1.3959 -0.7437
  418MOL0     H55121   8.926   6.244   3.714  0.9935  1.6982 -1.4252
  418MOL0     H55122   8.755   6.262   3.725 -0.5500  0.2996  1.6479
  418MOL0     H55123   8.760   6.412   3.926 -1.4480 -0.8734 -0.5228
  418MOL0     H55124   8.927   6.387   3.950 -1.2190  0.0966 -0.2633
  418MOL0     H55125   8.746   6.237   4.085  2.6620 -2.1735  1.7490
  418MOL0     H55126   8.717   6.175   3.922 -0.7856  0.1368  1.5835
  418MOL0     H55127   8.978   6.134   4.069 -0.6430 -0.5215  0.3887
  418MOL0     H55128   8.929   6.057   3.917  2.5906  0.0986 -0.0317
  418MOL0     H55129   8.920   5.996   4.278  1.9545 -2.8501  0.3325
  418MOL0     H55130   8.890   5.762   4.405  0.1229  0.2922  0.8979
  418MOL0     H55131   8.920   5.634   4.273  0.3107  0.3276  1.8389
  418MOL0     H55132   8.665   5.592   4.291 -0.1359  1.6217 -1.1281
  418MOL0     H55133   8.658   5.722   4.410 -0.0164 -0.3187  1.4614
  418MOL0     H55134   8.812   5.573   4.563 -1.7458 -1.2707  3.5617
  418MOL0     H55135   8.660   5.501   4.532  1.5290 -2.1319  0.5970
  418MOL0     H55136   8.895   5.434   4.358 -1.2978  0.3362 -1.2800
  418MOL0     H55137   8.739   5.352   4.349  0.5965 -0.7552 -0.0916
  418MOL0     H55138   8.923   5.255   4.259  1.0589  1.0343  0.8326
  418MOL0     H55139   9.038   5.048   4.189  3.1521  2.4749  0.6262
  418MOL0     H55140   9.180   4.628   4.232 -0.5343  1.1290 -0.1562
  418MOL0     H55141   9.334   4.446   4.143  0.0813  0.3082 -0.1957
  418MOL0     H55142   9.469   4.374   3.994 -1.5763  1.8849  2.7764
  418MOL0     H55143   9.624   4.302   4.029  0.0693 -0.1893  0.9185
  418MOL0     H55144   9.569   4.490   3.802 -1.4971 -2.0682  0.3621
  418MOL0     H55145   9.635   4.324   3.803  1.8396 -0.7245  1.3917
  418MOL0     H55146   9.836   4.375   3.903 -2.0440 -1.0093  1.3872
  418MOL0     H55147   9.807   4.541   3.930  1.8712 -1.8991  1.5182
  418MOL0     H55148   9.803   4.592   3.689  0.0221  0.1633  0.8769
  418MOL0     H55149   9.948   4.519   3.769 -0.0519  1.6523 -0.3548
  418MOL0     H55150   9.734   4.409   3.581 -0.4874 -0.5319  1.8480
  418MOL0     H55151   9.857   4.302   3.664  0.5988 -0.6150 -2.7413
  418MOL0     H55152   9.931   4.531   3.494 -0.8735  0.9211  1.6861
  418MOL0     H55153   9.917   4.375   3.418 -0.4787  0.9631  0.2064
  418MOL0     H55154  10.108   4.455   3.652 -0.3508 -0.4787  0.3653
  418MOL0     H55155  10.067   4.286   3.580  0.6274  0.0971 -2.2049
  418MOL0     H55156  10.199   4.528   3.442  2.3969 -0.4587  1.4570
  418MOL0     H55157  10.141   4.384   3.356  2.5676  0.2660 -1.5620
  418MOL0     H55158   9.623   4.763   4.062 -0.1777  0.9163 -0.0141
  418MOL0     H55159   9.455   4.930   4.123 -1.0002  0.5229  0.4498
  418MOL0     H55160   9.061   4.923   4.588  2.8590 -0.7573 -1.9099
  418MOL0     H55161   8.931   5.138   4.663  0.6105  3.0244 -0.0300
  418MOL0     H55162   8.733   6.729   3.219  0.2541  0.5231  0.4824
  418MOL0     H55163   8.546   6.822   3.111  1.1016 -0.7041 -0.8244
  418MOL0     H55164   8.175   7.044   3.075 -1.1127  2.4690 -1.7139
  418MOL0     H55165   8.031   7.166   2.894 -4.7821 -1.1593  1.0138
  418MOL0     H55166   7.875   6.917   2.547 -0.1553  0.6483  2.2400
  418MOL0     H55167   8.015   7.011   2.489 -0.4036  0.7770 -2.1217
  418MOL0     H55168   7.773   7.050   2.380  0.5725 -1.4056  0.5446
  418MOL0     H55169   7.735   7.133   2.532 -0.6584 -0.0634 -0.4778
  418MOL0     H55170   7.960   7.267   2.438  0.2923 -0.4961 -0.2127
  418MOL0     H55171   7.795   7.307   2.401 -1.7259 -2.4270  0.0223
  418MOL0     H55172   7.808   7.181   2.186 -1.2344  1.1019 -0.1284
  418MOL0     H55173   7.887   7.326   2.194 -2.7240 -1.4519 -1.1925
  418MOL0     H55174   8.219   7.041   2.176 -1.8287 -1.4051  0.5490
  418MOL0     H55175   8.007   6.813   2.675 -1.7491  0.7653  1.1902
  418MOL0     H55176   8.142   6.686   2.844 -0.4317  0.6909  0.1328
  419MOL0     O55177   0.156   0.645   7.845 -0.1953  0.3619  0.0898
  419MOL0     C55178   0.062   0.605   7.778  0.6465 -0.4638 -0.6810
  419MOL0     O55179  -0.070   0.617   7.810  0.6919 -0.1600  0.4632
  419MOL0     C55180  -0.125   0.679   7.922  0.1382 -0.3451  0.5647
  419MOL0     C55181  -0.262   0.645   7.948 -0.9721  0.5422  0.0856
  419MOL0     C55182  -0.331   0.698   8.059 -0.0647  0.1948  0.3836
  419MOL0     C55183  -0.257   0.783   8.137 -0.3707  0.5232  0.0913
  419MOL0     O55184  -0.342   0.840   8.233 -0.9337  0.0523 -0.2891
  419MOL0     C55185  -0.299   0.932   8.332 -1.5978  0.2558 -0.2874
  419MOL0     C55186  -0.230   0.871   8.469  0.8455  0.1866 -0.0582
  419MOL0     C55187  -0.337   0.776   8.545 -1.3952 -1.2953 -0.1828
  419MOL0     C55188  -0.288   0.701   8.676 -0.4499  0.8882 -0.0559
  419MOL0     C55189  -0.355   0.559   8.702 -0.7101 -0.1347 -0.5936
  419MOL0     C55190  -0.284   0.478   8.810 -0.2515  0.6616 -0.0374
  419MOL0     C55191  -0.363   0.352   8.833 -0.3931  0.2284  0.5918
  419MOL0     C55192  -0.342   0.254   8.717 -0.0441  0.1274  0.8544
  419MOL0     N55193  -0.394   0.110   8.738 -0.1494 -0.8414  0.1242
  419MOL0     C55194  -0.339   0.005   8.670  0.9274  0.3460  0.3898
  419MOL0     C55195  -0.403  -0.108   8.717  0.1158  1.4574  0.3216
  419MOL0     C55196  -0.401  -0.248   8.673 -0.6438 -0.2604  0.4077
  419MOL0     C55197  -0.279  -0.322   8.724 -1.0112  0.3042 -0.7195
  419MOL0     C55198  -0.286  -0.464   8.685 -0.0144  0.6460 -0.5805
  419MOL0     C55199  -0.213  -0.558   8.785  0.0416 -0.5524 -0.4221
  419MOL0     O55200  -0.186  -0.688   8.728  0.1391  0.0238  0.1590
  419MOL0     C55201  -0.060  -0.729   8.691 -0.4206 -0.8135 -0.1254
  419MOL0     C55202   0.036  -0.637   8.637  0.3197 -0.2624 -0.0735
  419MOL0     C55203   0.171  -0.678   8.622 -0.0524  0.3192  0.4898
  419MOL0     C55204   0.209  -0.813   8.643 -0.2586 -0.8611 -1.5101
  419MOL0     C55205   0.349  -0.846   8.619  0.1670  0.2190  0.0254
  419MOL0     O55206   0.413  -0.781   8.523  0.2032  0.9197  0.4058
  419MOL0     C55207   0.529  -0.838   8.470  0.2009  0.4508 -0.1681
  419MOL0     C55208   0.540  -0.874   8.344  0.1374  0.3430  0.3876
  419MOL0     C55209   0.664  -0.906   8.302 -0.1164  0.0459  0.4882
  419MOL0     C55210   0.783  -0.919   8.380  0.5079 -0.8069 -0.0885
  419MOL0     O55211   0.899  -0.963   8.317  0.9647  0.8407  0.1017
  419MOL0     C55212   1.029  -0.947   8.371 -0.1790 -0.0018  0.0873
  419MOL0     C55213   1.095  -0.811   8.335  1.1366 -0.9499 -0.8747
  419MOL0     C55214   1.028  -0.682   8.409  0.0303  0.0365 -0.0767
  419MOL0     C55215   1.099  -0.548   8.389 -0.3581  0.4257 -0.4669
  419MOL0     C55216   1.018  -0.439   8.458  0.2964 -0.1932  0.4300
  419MOL0     C55217   1.066  -0.298   8.442  0.8872  0.8855 -0.3029
  419MOL0     C55218   1.049  -0.259   8.299 -0.1845  0.3942 -1.5829
  419MOL0     C55219   0.909  -0.205   8.274 -0.5705 -0.2944 -0.4309
  419MOL0    Cl55220   0.917  -0.159   8.106 -0.1291 -0.2256 -0.0905
  419MOL0     C55221   0.765  -0.874   8.512 -0.8329  0.4856 -0.0317
  419MOL0     C55222   0.641  -0.842   8.558  0.2202  0.0626 -0.2257
  419MOL0     O55223   0.383  -0.953   8.668  0.0743  0.1089  0.0774
  419MOL0     C55224   0.113  -0.896   8.699 -0.9006 -0.2839  0.2164
  419MOL0     C55225  -0.018  -0.857   8.717  0.4543 -0.3022  0.7529
  419MOL0     N55226  -0.488  -0.062   8.817  1.0335  0.2925  0.8360
  419MOL0     N55227  -0.487   0.064   8.821  0.3751 -0.7256 -0.1607
  419MOL0     C55228  -0.116   0.806   8.127 -0.0210 -0.0170 -0.3710
  419MOL0     C55229  -0.061   0.761   8.015 -1.3265 -0.5666  0.3472
  419MOL0     C55230   0.088   0.557   7.643 -0.4194  1.5333  1.1979
  419MOL0     C55231   0.216   0.586   7.582  0.4485  0.2713 -0.3783
  419MOL0     C55232   0.245   0.538   7.456  0.3054 -0.2890  0.7758
  419MOL0     C55233   0.153   0.449   7.389  0.5138 -0.0135 -0.3456
  419MOL0     O55234   0.192   0.407   7.269  0.2590 -0.3730  0.4343
  419MOL0     C55235   0.116   0.310   7.194 -0.4862  0.7969  0.0324
  419MOL0     C55236   0.182   0.170   7.228  0.2408  0.5541  0.7612
  419MOL0     C55237   0.161   0.140   7.375  0.3706  0.5363 -0.1548
  419MOL0     C55238   0.188  -0.009   7.410  0.0492  0.1149 -1.1524
  419MOL0     C55239   0.308  -0.080   7.375 -0.0200 -0.2845  0.3588
  419MOL0     C55240   0.404  -0.150   7.332 -0.0885 -1.2328 -0.2141
  419MOL0     C55241   0.027   0.431   7.451 -0.5936 -0.8961  0.7146
  419MOL0     C55242  -0.006   0.483   7.576  0.8054 -0.1284  0.2417
  419MOL0     H55243  -0.300   0.573   7.876  0.7631  0.5112 -0.8565
  419MOL0     H55244  -0.435   0.672   8.077 -0.4766  1.5498  0.0810
  419MOL0     H55245  -0.384   0.996   8.356 -1.8584 -0.6836  1.4453
  419MOL0     H55246  -0.230   1.011   8.299  0.7070 -1.4159  0.3302
  419MOL0     H55247  -0.211   0.955   8.535  0.3292 -0.2181  0.6177
  419MOL0     H55248  -0.142   0.810   8.444 -1.0711 -3.4802  1.4224
  419MOL0     H55249  -0.356   0.702   8.467  0.9572 -2.8935  0.6523
  419MOL0     H55250  -0.426   0.836   8.565  1.0250  1.8146  2.5719
  419MOL0     H55251  -0.179   0.691   8.674 -0.1605  3.4318 -1.3745
  419MOL0     H55252  -0.298   0.762   8.766  2.6358  0.2483  0.8291
  419MOL0     H55253  -0.354   0.505   8.607  1.0625  2.1856 -2.0214
  419MOL0     H55254  -0.460   0.576   8.729 -1.2643 -2.4835 -1.0442
  419MOL0     H55255  -0.280   0.529   8.907 -0.5239  0.5768  0.0198
  419MOL0     H55256  -0.181   0.450   8.783 -0.2876 -2.4209  2.4337
  419MOL0     H55257  -0.324   0.315   8.928  1.6389  0.1520 -0.2218
  419MOL0     H55258  -0.472   0.361   8.846 -0.3506  0.7220  0.6096
  419MOL0     H55259  -0.238   0.251   8.684 -0.3906  1.5160 -0.4897
  419MOL0     H55260  -0.400   0.298   8.635 -0.2458  2.1526  2.0233
  419MOL0     H55261  -0.271   0.015   8.586  1.6999  3.2595  1.2463
  419MOL0     H55262  -0.391  -0.252   8.564 -3.2407  0.1407  0.0877
  419MOL0     H55263  -0.489  -0.304   8.705 -1.5537 -0.7243 -2.5824
  419MOL0     H55264  -0.274  -0.317   8.833 -1.4196 -0.3909 -0.6623
  419MOL0     H55265  -0.182  -0.286   8.689 -0.9336 -1.7676 -2.9604
  419MOL0     H55266  -0.389  -0.500   8.675  0.6361 -1.5354  0.0582
  419MOL0     H55267  -0.245  -0.467   8.584  0.7125  1.5996 -0.3312
  419MOL0     H55268  -0.284  -0.586   8.863 -0.3013 -0.1055 -0.5711
  419MOL0     H55269  -0.128  -0.513   8.838  0.0253  0.4074 -1.1663
  419MOL0     H55270   0.000  -0.537   8.615 -1.3747 -0.4957  1.3379
  419MOL0     H55271   0.245  -0.607   8.588  0.2611 -1.7843 -3.8679
  419MOL0     H55272   0.462  -0.873   8.268  1.6521 -2.5163 -1.4117
  419MOL0     H55273   0.670  -0.937   8.198  0.6350 -2.7310  1.2883
  419MOL0     H55274   1.094  -1.026   8.333 -4.0757 -3.5379  0.0230
  419MOL0     H55275   1.031  -0.968   8.479  1.0739 -2.3671 -0.3257
  419MOL0     H55276   1.088  -0.802   8.226  2.0290  3.5516 -0.7797
  419MOL0     H55277   1.200  -0.815   8.364  0.9373 -0.2598 -0.0092
  419MOL0     H55278   1.010  -0.706   8.514 -2.0739  0.4431 -0.2997
  419MOL0     H55279   0.930  -0.670   8.361 -0.6894 -0.6632  1.1928
  419MOL0     H55280   1.191  -0.559   8.447 -0.7018 -0.6145 -0.0989
  419MOL0     H55281   1.117  -0.535   8.282 -3.5626 -0.5154 -1.2278
  419MOL0     H55282   1.021  -0.466   8.564 -1.0625 -1.9834  0.0521
  419MOL0     H55283   0.910  -0.442   8.437  0.1590  1.5969  0.6751
  419MOL0     H55284   1.169  -0.293   8.477  1.5750 -0.5977 -1.9507
  419MOL0     H55285   1.008  -0.234   8.508  0.4605  0.7575 -0.5463
  419MOL0     H55286   1.112  -0.170   8.285  0.5732  0.0315 -0.5549
  419MOL0     H55287   1.080  -0.331   8.223  0.6413  0.7935 -1.6408
  419MOL0     H55288   0.895  -0.122   8.343  0.8760 -2.6310  2.9337
  419MOL0     H55289   0.819  -0.258   8.307 -1.1944  1.1739  0.2917
  419MOL0     H55290   0.849  -0.868   8.580 -0.6427  0.3611 -0.2520
  419MOL0     H55291   0.644  -0.827   8.666 -3.3522 -2.8781  0.4802
  419MOL0     H55292   0.134  -1.001   8.718 -3.3837 -0.7316  0.8609
  419MOL0     H55293  -0.087  -0.923   8.769  0.0692 -1.9838 -1.7103
  419MOL0     H55294  -0.065   0.872   8.197 -2.8777  0.4572  1.4159
  419MOL0     H55295   0.041   0.785   7.989 -1.2707  2.1204  2.5379
  419MOL0     H55296   0.293   0.643   7.633 -1.1226 -0.8769  3.6889
  419MOL0     H55297   0.339   0.565   7.409 -1.3599 -1.8922 -4.0635
  419MOL0     H55298   0.127   0.335   7.088 -0.8777 -0.1341 -0.2451
  419MOL0     H55299   0.010   0.328   7.215 -1.2230  2.5450 -4.2112
  419MOL0     H55300   0.143   0.084   7.172 -0.8389  0.9224  0.9176
  419MOL0     H55301   0.289   0.173   7.206  0.3446  1.3610  1.3709
  419MOL0     H55302   0.058   0.160   7.405 -1.0229 -1.7231 -2.9121
  419MOL0     H55303   0.233   0.197   7.433  1.5516  0.0101 -1.0477
  419MOL0     H55304   0.157  -0.021   7.514 -0.8672 -3.5015 -1.6739
  419MOL0     H55305   0.115  -0.071   7.357 -1.3897  0.7032  0.1005
  419MOL0     H55306   0.480  -0.212   7.291  1.4964 -0.0545  0.8154
  419MOL0     H55307  -0.054   0.372   7.411 -2.3307  0.7106  1.6572
  419MOL0     H55308  -0.107   0.462   7.609  1.7725 -2.0410  2.2014
  420MOL0     O55309   9.841   3.502   2.335 -0.1058  0.2129  0.1095
  420MOL0     C55310   9.823   3.602   2.406 -0.0722 -0.6803  1.1003
  420MOL0     O55311   9.910   3.706   2.414 -0.0656  0.8466 -0.0927
  420MOL0     C55312  10.000   3.716   2.305 -0.5165 -0.3767 -0.4246
  420MOL0     C55313  10.132   3.743   2.329  0.2202  0.8409  0.7144
  420MOL0     C55314  10.225   3.753   2.223  0.2282  0.1792 -0.0206
  420MOL0     C55315  10.185   3.741   2.088  0.0370  0.2602  0.4457
  420MOL0     O55316  10.297   3.732   2.003 -0.1626  0.1173  0.2609
  420MOL0     C55317  10.270   3.766   1.864  0.5422  0.6279 -0.2867
  420MOL0     C55318  10.275   3.648   1.760 -0.4551  0.1679  0.7502
  420MOL0     C55319  10.257   3.683   1.616 -0.8566  0.7489  0.8377
  420MOL0     C55320  10.386   3.746   1.560  0.5316  1.0173  0.0588
  420MOL0     C55321  10.384   3.748   1.402  0.2782 -0.0768  0.0171
  420MOL0     C55322  10.524   3.814   1.361 -0.4727  0.8799  0.0863
  420MOL0     C55323  10.561   3.771   1.216 -0.6615  0.4605 -0.6794
  420MOL0     C55324  10.682   3.840   1.159  0.7223 -0.8504  0.0698
  420MOL0     N55325  10.727   3.780   1.028 -0.5060  0.3242 -0.7286
  420MOL0     C55326  10.778   3.660   1.011  0.0590 -0.1157  0.1337
  420MOL0     C55327  10.826   3.650   0.890 -0.7867  0.1563  0.4022
  420MOL0     C55328  10.898   3.526   0.847 -0.7301 -0.9604  0.6218
  420MOL0     C55329  10.870   3.498   0.691 -0.4086 -0.4046  0.3531
  420MOL0     C55330  10.908   3.361   0.645  0.2380 -0.2190 -0.0961
  420MOL0     C55331  10.988   3.347   0.521 -0.8432  0.2115 -0.5436
  420MOL0     O55332  11.128   3.388   0.541 -0.0352  0.2940  0.4942
  420MOL0     C55333  11.175   3.476   0.448  0.3213 -0.3259  0.8082
  420MOL0     C55334  11.272   3.560   0.488 -0.6517 -0.3958 -0.9527
  420MOL0     C55335  11.333   3.643   0.393 -0.4694 -0.1147  0.5443
  420MOL0     C55336  11.294   3.642   0.254  0.5894  0.4178  0.1384
  420MOL0     C55337  11.371   3.705   0.145  0.8639  0.3201  0.5151
  420MOL0     O55338  11.453   3.802   0.177 -0.6082 -0.2264 -0.0388
  420MOL0     C55339  11.503   3.896   0.083  0.0698  0.7959 -0.3523
  420MOL0     C55340  11.612   3.977   0.116 -0.0914 -1.0368  0.1751
  420MOL0     C55341  11.675   4.063   0.025  0.9536 -0.5296  0.2408
  420MOL0     C55342  11.625   4.074  -0.105 -0.2789 -0.2165  0.1820
  420MOL0     O55343  11.681   4.148  -0.211  0.0716 -0.0646 -0.4010
  420MOL0     C55344  11.796   4.235  -0.177 -0.2708 -0.1823 -0.7084
  420MOL0     C55345  11.825   4.323  -0.302 -0.8044 -0.3796  0.6911
  420MOL0     C55346  11.734   4.429  -0.311  0.4052 -1.3634  0.6722
  420MOL0     C55347  11.787   4.532  -0.416 -0.1368  0.0175 -0.4546
  420MOL0     C55348  11.699   4.651  -0.415  0.8419  0.5006  0.6094
  420MOL0     C55349  11.748   4.753  -0.528  1.0248 -0.0676  0.0110
  420MOL0     C55350  11.619   4.844  -0.541 -0.1222 -0.4241 -0.7198
  420MOL0     C55351  11.633   4.973  -0.618  1.6033 -1.5880  0.6362
  420MOL0    Cl55352  11.479   5.060  -0.585  0.2195 -0.0588  0.2665
  420MOL0     C55353  11.509   4.006  -0.126 -0.6350 -0.6846  0.3552
  420MOL0     C55354  11.448   3.920  -0.044  0.5048 -0.7189 -0.6613
  420MOL0     O55355  11.349   3.670   0.029 -1.0039 -0.7792 -0.4187
  420MOL0     C55356  11.180   3.570   0.218 -1.1517 -0.7181 -0.2538
  420MOL0     C55357  11.128   3.486   0.312  1.1801 -0.1532  0.2854
  420MOL0     N55358  10.804   3.770   0.827 -0.1694 -0.3708  0.1674
  420MOL0     N55359  10.743   3.845   0.912 -1.3465  0.5188  0.0966
  420MOL0     C55360  10.051   3.717   2.056 -0.5123 -0.5712 -0.1342
  420MOL0     C55361   9.961   3.710   2.166  1.4467  0.8567 -0.0394
  420MOL0     C55362   9.699   3.599   2.488  0.7614  0.0385 -0.8267
  420MOL0     C55363   9.708   3.665   2.609 -0.2909  0.9558  0.1274
  420MOL0     C55364   9.592   3.669   2.699 -0.1812  0.0057  0.5740
  420MOL0     C55365   9.475   3.605   2.665 -0.1010  0.5376  0.2437
  420MOL0     O55366   9.383   3.613   2.770  0.7515  0.1248 -0.0336
  420MOL0     C55367   9.253   3.559   2.743  0.9607 -0.0213 -0.6891
  420MOL0     C55368   9.239   3.431   2.814 -0.3112  0.0913 -0.3640
  420MOL0     C55369   9.088   3.409   2.830 -0.0829 -0.0586  0.2608
  420MOL0     C55370   9.063   3.261   2.861  0.4873  0.7243 -0.1614
  420MOL0     C55371   8.925   3.233   2.818  0.5533 -0.8566  0.0196
  420MOL0     C55372   8.806   3.202   2.791  0.6840 -0.2002  0.8354
  420MOL0     C55373   9.468   3.530   2.542 -0.1372 -1.3538  0.2544
  420MOL0     C55374   9.578   3.528   2.455 -1.1615  0.5826 -0.6768
  420MOL0     H55375  10.167   3.741   2.432 -0.1976 -0.9029  0.8561
  420MOL0     H55376  10.332   3.774   2.232 -0.0527  1.2355  1.0966
  420MOL0     H55377  10.358   3.822   1.835 -0.1840  1.6375 -0.5979
  420MOL0     H55378  10.179   3.826   1.849 -1.5468 -1.6604  2.0790
  420MOL0     H55379  10.192   3.579   1.779 -0.8158  0.4167  0.1282
  420MOL0     H55380  10.364   3.586   1.775  0.5984  0.3167 -3.6506
  420MOL0     H55381  10.173   3.752   1.600 -0.3418  2.1474  3.5069
  420MOL0     H55382  10.234   3.591   1.562 -3.5956 -0.4631  3.7617
  420MOL0     H55383  10.371   3.845   1.604 -0.2875 -0.2195  2.7544
  420MOL0     H55384  10.479   3.705   1.603  0.5195 -0.3850 -1.1698
  420MOL0     H55385  10.296   3.805   1.369  2.1450  2.8974 -0.1933
  420MOL0     H55386  10.378   3.645   1.365  1.3085 -0.2707  0.3534
  420MOL0     H55387  10.596   3.780   1.436 -3.7687 -0.5910  2.9164
  420MOL0     H55388  10.496   3.920   1.360  0.2184  1.0930  1.1552
  420MOL0     H55389  10.567   3.662   1.212 -2.3899  0.3389 -0.8339
  420MOL0     H55390  10.475   3.797   1.153  0.2372  3.6339 -0.7439
  420MOL0     H55391  10.767   3.857   1.226 -0.1500  0.9984  0.7619
  420MOL0     H55392  10.649   3.942   1.139 -2.4342 -2.1149 -1.7863
  420MOL0     H55393  10.808   3.591   1.088 -0.6336 -0.1617  0.3642
  420MOL0     H55394  10.857   3.449   0.913 -0.8908 -0.3925  1.1964
  420MOL0     H55395  11.006   3.525   0.861 -0.8944 -0.3134  2.1876
  420MOL0     H55396  10.923   3.567   0.625 -1.3185  0.7295  0.7929
  420MOL0     H55397  10.768   3.531   0.673 -0.5783 -1.2738 -0.3666
  420MOL0     H55398  10.947   3.308   0.733 -0.8577  0.5479  0.8816
  420MOL0     H55399  10.810   3.314   0.633  1.0210 -2.2017  0.8237
  420MOL0     H55400  10.930   3.397   0.442 -1.2508 -2.8591 -2.3423
  420MOL0     H55401  10.979   3.240   0.505  0.8667 -0.5171  2.5051
  420MOL0     H55402  11.310   3.555   0.590 -0.8568  2.1911 -0.6777
  420MOL0     H55403  11.423   3.701   0.410 -0.8987  1.9831 -3.0420
  420MOL0     H55404  11.658   3.981   0.214 -0.3692 -1.8344  0.3488
  420MOL0     H55405  11.775   4.096   0.049  1.5199  2.1588 -4.5000
  420MOL0     H55406  11.880   4.172  -0.147 -0.5536  0.2904  1.2089
  420MOL0     H55407  11.766   4.303  -0.096  2.1838 -0.1580  0.2411
  420MOL0     H55408  11.825   4.270  -0.397  1.9835  3.8605 -2.0340
  420MOL0     H55409  11.925   4.366  -0.287 -1.2660  0.5578  1.2081
  420MOL0     H55410  11.699   4.488  -0.226 -2.0915 -1.7272 -0.0239
  420MOL0     H55411  11.638   4.390  -0.347 -0.2849 -0.1219  1.0873
  420MOL0     H55412  11.886   4.576  -0.399 -1.2352  2.9172 -0.8479
  420MOL0     H55413  11.787   4.477  -0.510  3.3582 -1.7231  0.3820
  420MOL0     H55414  11.717   4.703  -0.320  0.5746  0.2122  0.8164
  420MOL0     H55415  11.594   4.627  -0.431  0.7425  0.6380  1.0391
  420MOL0     H55416  11.769   4.703  -0.624 -0.2750 -0.3892 -0.1221
  420MOL0     H55417  11.837   4.805  -0.492  1.7546 -1.0013 -0.3735
  420MOL0     H55418  11.530   4.792  -0.578 -0.9927 -0.3219  1.1584
  420MOL0     H55419  11.596   4.869  -0.437  1.3564 -0.2942 -0.4077
  420MOL0     H55420  11.635   4.957  -0.726 -0.0577 -0.3413  0.3807
  420MOL0     H55421  11.723   5.021  -0.579  1.0637 -1.9891  2.4810
  420MOL0     H55422  11.465   4.020  -0.224 -0.0353 -3.0937 -0.3264
  420MOL0     H55423  11.355   3.878  -0.081  0.0677 -0.6520  0.3392
  420MOL0     H55424  11.137   3.588   0.120 -3.6209 -2.1210  0.4921
  420MOL0     H55425  11.048   3.419   0.282  0.9533  0.8133 -1.3632
  420MOL0     H55426  10.030   3.709   1.950 -0.1382  2.0417 -0.4953
  420MOL0     H55427   9.854   3.694   2.152  2.0285 -0.8701 -3.9434
  420MOL0     H55428   9.796   3.718   2.642 -1.1277  4.4213 -2.6335
  420MOL0     H55429   9.595   3.714   2.797  1.1786 -0.3567  0.7143
  420MOL0     H55430   9.217   3.569   2.640 -4.1870  4.4571  1.0587
  420MOL0     H55431   9.182   3.624   2.794 -0.9307 -0.9806 -1.9667
  420MOL0     H55432   9.279   3.356   2.746 -1.6717  0.2508 -1.3902
  420MOL0     H55433   9.288   3.446   2.911 -1.3638  6.8085 -0.3482
  420MOL0     H55434   9.037   3.423   2.734  1.8171 -1.7298 -1.0839
  420MOL0     H55435   9.055   3.469   2.915  0.4412 -0.1129  0.5042
  420MOL0     H55436   9.121   3.205   2.787  1.3036  3.2504 -1.5692
  420MOL0     H55437   9.088   3.223   2.961 -0.2676  1.0573  0.1655
  420MOL0     H55438   8.712   3.159   2.761  1.0115 -1.2979  1.3505
  420MOL0     H55439   9.376   3.474   2.529 -0.5335 -0.3511 -1.5690
  420MOL0     H55440   9.595   3.465   2.368  3.3773  0.9515 -0.3026
  421MOL0     O55441   7.668   1.279   3.436 -0.0055  0.8517 -0.0595
  421MOL0     C55442   7.589   1.219   3.368 -0.7208  0.7220  0.1875
  421MOL0     O55443   7.457   1.246   3.354 -0.0380  0.5296 -0.1983
  421MOL0     C55444   7.398   1.342   3.433 -0.4773  0.4909 -0.3711
  421MOL0     C55445   7.392   1.330   3.570 -0.8384 -0.3803  0.3013
  421MOL0     C55446   7.330   1.429   3.639  0.7630  0.2961  0.0250
  421MOL0     C55447   7.290   1.555   3.580 -0.2755 -0.2962 -0.3700
  421MOL0     O55448   7.214   1.659   3.640 -1.0182 -0.0849 -1.0938
  421MOL0     C55449   7.243   1.693   3.770 -0.0668  0.7352  0.2791
  421MOL0     C55450   7.195   1.824   3.804 -0.4210 -0.2935  0.3443
  421MOL0     C55451   7.044   1.822   3.808 -0.1712  0.5404  0.7721
  421MOL0     C55452   6.965   1.848   3.679  0.4057  0.0630 -0.5451
  421MOL0     C55453   6.990   1.999   3.631 -0.3498  0.2063 -0.3911
  421MOL0     C55454   6.863   2.074   3.579  0.7308  0.7126 -0.2898
  421MOL0     C55455   6.808   1.993   3.460 -0.6437  1.1555  0.4690
  421MOL0     C55456   6.689   2.044   3.383  0.5813  0.4048 -0.0160
  421MOL0     N55457   6.722   2.177   3.332  0.0501  0.6380 -0.3345
  421MOL0     C55458   6.814   2.223   3.237 -0.5459 -0.0480  0.6367
  421MOL0     C55459   6.785   2.352   3.227 -1.4002 -0.8261 -0.5288
  421MOL0     C55460   6.868   2.449   3.135  0.1860  0.0754 -0.2007
  421MOL0     C55461   6.772   2.564   3.119  0.5322  0.0736  0.3831
  421MOL0     C55462   6.806   2.642   2.993 -0.3034  0.7817  0.7840
  421MOL0     C55463   6.922   2.738   2.999  0.1410 -0.0146  0.2441
  421MOL0     O55464   6.931   2.813   2.876  0.7748  0.4236 -0.0972
  421MOL0     C55465   7.041   2.888   2.851  1.1243 -0.1054 -0.8585
  421MOL0     C55466   7.042   2.971   2.741 -0.0192  0.2657 -0.5442
  421MOL0     C55467   7.150   3.051   2.695  0.3155  1.0759  0.7339
  421MOL0     C55468   7.263   3.063   2.767 -0.1019 -0.0373  0.4412
  421MOL0     C55469   7.377   3.139   2.718  0.0906 -1.4130 -0.6217
  421MOL0     O55470   7.497   3.108   2.763 -0.2112 -0.3052  0.0819
  421MOL0     C55471   7.602   3.193   2.733  0.7815  0.6820 -0.5746
  421MOL0     C55472   7.593   3.329   2.762  0.0332 -0.5974  0.2730
  421MOL0     C55473   7.686   3.417   2.706  0.3460 -0.8975 -0.4129
  421MOL0     C55474   7.797   3.375   2.633 -0.0157 -0.6348 -0.1283
  421MOL0     O55475   7.896   3.460   2.589 -0.3928 -0.6462  0.6121
  421MOL0     C55476   8.003   3.500   2.677  1.1908  0.5149 -0.0379
  421MOL0     C55477   8.060   3.623   2.619 -0.6036 -0.6112  0.3915
  421MOL0     C55478   8.153   3.588   2.501  0.7633 -0.0732 -0.7220
  421MOL0     C55479   8.238   3.708   2.470 -0.6643  0.3719 -0.2885
  421MOL0     C55480   8.334   3.660   2.364 -0.2248  0.0337  0.5936
  421MOL0     C55481   8.268   3.684   2.227  0.6299 -0.3226 -0.3616
  421MOL0     C55482   8.363   3.682   2.113  0.1528  0.3015  0.8479
  421MOL0     C55483   8.449   3.554   2.097  0.6705 -0.1665 -1.1740
  421MOL0    Cl55484   8.465   3.512   1.926  0.4210 -0.0368  0.1389
  421MOL0     C55485   7.809   3.244   2.607 -0.3077  0.0647  0.0847
  421MOL0     C55486   7.712   3.150   2.652 -0.9104  0.1950  0.0523
  421MOL0     O55487   7.357   3.221   2.625  0.0046 -0.0042  0.0060
  421MOL0     C55488   7.268   2.987   2.892 -0.5704 -0.3961 -0.3312
  421MOL0     C55489   7.162   2.894   2.932  0.6436 -0.0955 -0.6123
  421MOL0     N55490   6.680   2.385   3.314 -0.3003  0.0688 -0.4233
  421MOL0     N55491   6.652   2.280   3.380  0.0615 -0.4616 -0.1308
  421MOL0     C55492   7.309   1.577   3.442  0.8529 -1.2060 -0.5093
  421MOL0     C55493   7.365   1.467   3.373  0.5824  0.1140  0.0971
  421MOL0     C55494   7.636   1.094   3.308  0.6994 -0.2653  0.5982
  421MOL0     C55495   7.541   1.010   3.245  0.1593 -0.2670  0.2338
  421MOL0     C55496   7.581   0.888   3.186  0.2744 -0.4483 -0.2238
  421MOL0     C55497   7.702   0.841   3.209 -1.0141  0.4442  0.3251
  421MOL0     O55498   7.738   0.718   3.162 -0.6329  0.0940  0.6696
  421MOL0     C55499   7.651   0.608   3.206  0.5099  0.2289  0.0586
  421MOL0     C55500   7.702   0.470   3.169 -1.2848 -0.2878  0.0792
  421MOL0     C55501   7.852   0.442   3.212  0.4968  1.0790  0.1263
  421MOL0     C55502   7.908   0.353   3.099 -0.4557 -0.0262 -0.0685
  421MOL0     C55503   7.841   0.225   3.071  0.1330  0.3148  0.1196
  421MOL0     C55504   7.804   0.111   3.047  0.6836 -0.3339 -0.2725
  421MOL0     C55505   7.792   0.916   3.285 -0.5607  0.2168 -0.4964
  421MOL0     C55506   7.761   1.043   3.334  0.0146 -0.0923 -0.8706
  421MOL0     H55507   7.422   1.233   3.608 -2.1878 -0.1093  2.2243
  421MOL0     H55508   7.317   1.415   3.746 -0.2585 -1.4547 -0.2823
  421MOL0     H55509   7.352   1.696   3.776 -0.0717  1.9703  0.0527
  421MOL0     H55510   7.199   1.611   3.828  0.0323  1.5399  1.5293
  421MOL0     H55511   7.231   1.916   3.757 -2.4560  1.5541  2.1488
  421MOL0     H55512   7.242   1.846   3.900  0.3337 -3.8775  0.9336
  421MOL0     H55513   7.013   1.908   3.869 -2.1803  1.6816 -1.6637
  421MOL0     H55514   7.009   1.731   3.858  1.8781 -0.2142  0.9237
  421MOL0     H55515   6.985   1.773   3.602 -1.3533 -2.5040  1.3550
  421MOL0     H55516   6.856   1.847   3.690  0.4371  0.0124 -0.2413
  421MOL0     H55517   7.063   1.985   3.550 -1.4068 -1.5081 -1.1081
  421MOL0     H55518   7.040   2.057   3.710  1.9458 -2.3434  0.2147
  421MOL0     H55519   6.902   2.174   3.562  3.7391 -0.1250  1.0474
  421MOL0     H55520   6.788   2.067   3.658  1.8016 -1.5663  0.6094
  421MOL0     H55521   6.891   1.967   3.394 -2.0724  1.4211 -1.5341
  421MOL0     H55522   6.767   1.900   3.500  2.7306 -0.2199  1.0119
  421MOL0     H55523   6.606   2.060   3.451  1.9770  1.2496  1.5752
  421MOL0     H55524   6.669   1.981   3.296 -1.4437  1.4278 -0.3569
  421MOL0     H55525   6.874   2.162   3.170  2.1037  1.8569  1.1101
  421MOL0     H55526   6.892   2.397   3.042  2.3120  0.4580  0.0775
  421MOL0     H55527   6.949   2.499   3.189  4.7345 -0.5793 -5.4945
  421MOL0     H55528   6.763   2.626   3.208 -2.9544  0.3115  0.0123
  421MOL0     H55529   6.672   2.524   3.100 -0.1993  1.6447  0.7483
  421MOL0     H55530   6.816   2.580   2.904  1.3732  2.4808 -0.3013
  421MOL0     H55531   6.716   2.700   2.967 -1.0520 -1.0577 -0.9495
  421MOL0     H55532   7.017   2.684   3.015 -0.0696 -0.2842  0.6095
  421MOL0     H55533   6.910   2.807   3.083 -1.3736 -1.1919  1.0466
  421MOL0     H55534   6.949   2.981   2.687  0.4701 -0.7419 -1.6184
  421MOL0     H55535   7.147   3.105   2.601 -1.2271 -1.7665 -0.9732
  421MOL0     H55536   7.511   3.361   2.826 -0.5353 -0.4017 -0.5414
  421MOL0     H55537   7.676   3.525   2.710 -1.4148 -0.8872 -2.8503
  421MOL0     H55538   8.065   3.410   2.690  0.8944  0.5381  1.8590
  421MOL0     H55539   7.963   3.519   2.777  0.0232  1.3316 -0.6387
  421MOL0     H55540   8.132   3.659   2.694  2.2512  1.0964 -2.8496
  421MOL0     H55541   7.987   3.698   2.590 -0.0141 -0.0041  0.4652
  421MOL0     H55542   8.092   3.554   2.417 -0.1231 -1.1124  0.3123
  421MOL0     H55543   8.210   3.497   2.520 -0.0064 -0.4576 -0.2093
  421MOL0     H55544   8.173   3.792   2.446  0.2952  1.4445  0.6968
  421MOL0     H55545   8.303   3.746   2.550 -0.1963 -0.4726 -0.2539
  421MOL0     H55546   8.358   3.554   2.358 -2.0245 -0.3993  0.7241
  421MOL0     H55547   8.420   3.727   2.377 -0.6021  0.4649  0.8812
  421MOL0     H55548   8.210   3.777   2.220 -0.1572 -0.8909 -1.9588
  421MOL0     H55549   8.197   3.605   2.205  0.9139 -0.8258  0.4956
  421MOL0     H55550   8.305   3.707   2.024 -0.6315 -0.1256  1.2282
  421MOL0     H55551   8.438   3.761   2.124 -0.8449  1.7159 -1.7852
  421MOL0     H55552   8.403   3.465   2.139 -3.2657  2.1028 -0.2277
  421MOL0     H55553   8.553   3.555   2.133  0.8824 -2.2788 -1.6461
  421MOL0     H55554   7.889   3.214   2.539 -0.3509 -2.4449  1.0538
  421MOL0     H55555   7.718   3.045   2.624  2.7645  0.7500 -1.8989
  421MOL0     H55556   7.363   2.993   2.946  0.2455  2.6607 -1.8440
  421MOL0     H55557   7.188   2.830   3.016 -0.2345 -3.0804 -2.4700
  421MOL0     H55558   7.274   1.666   3.389  0.1730 -0.9626  0.3371
  421MOL0     H55559   7.383   1.480   3.267 -1.2522 -0.2482 -0.2800
  421MOL0     H55560   7.439   1.046   3.234  0.3696  0.0715 -0.7135
  421MOL0     H55561   7.516   0.820   3.131  0.2254 -1.4117  0.9825
  421MOL0     H55562   7.554   0.611   3.155  0.2127  1.5900  0.6555
  421MOL0     H55563   7.630   0.611   3.313 -1.0310  4.6273 -0.1540
  421MOL0     H55564   7.640   0.387   3.202 -2.3042 -0.9618 -3.2111
  421MOL0     H55565   7.699   0.458   3.060 -0.3071 -3.4226  0.3165
  421MOL0     H55566   7.856   0.386   3.306 -2.7542  0.6106  0.1048
  421MOL0     H55567   7.910   0.534   3.227 -0.1240  1.2262  1.8571
  421MOL0     H55568   7.921   0.404   3.003 -1.0020  0.5125  0.1394
  421MOL0     H55569   8.009   0.343   3.138 -0.6881  0.0476  0.5629
  421MOL0     H55570   7.767   0.016   3.014  0.1538 -0.5160  0.7966
  421MOL0     H55571   7.897   0.891   3.287 -1.2357 -3.1059  1.7148
  421MOL0     H55572   7.833   1.093   3.398  1.7690 -1.7632 -1.4273
  422MOL0     O55573   2.244   2.260   1.592  0.1162 -0.1276  0.5153
  422MOL0     C55574   2.288   2.357   1.531  0.2068  0.3371 -0.5399
  422MOL0     O55575   2.233   2.487   1.543 -0.7189 -0.2715 -0.2337
  422MOL0     C55576   2.149   2.524   1.642  0.0692 -0.2585 -0.4400
  422MOL0     C55577   2.156   2.481   1.776  0.5563  0.6202  1.4146
  422MOL0     C55578   2.074   2.531   1.874  0.1512  0.0292  0.0292
  422MOL0     C55579   1.989   2.635   1.852  0.8317  0.2371 -0.2085
  422MOL0     O55580   1.923   2.678   1.961 -0.0733 -1.0428 -0.3598
  422MOL0     C55581   1.929   2.818   1.991 -0.3861 -0.5700  0.4549
  422MOL0     C55582   1.796   2.884   1.983 -0.4609  0.0103 -1.1195
  422MOL0     C55583   1.818   3.032   2.028  0.4267 -0.5734  0.9248
  422MOL0     C55584   1.692   3.112   2.011  0.2796 -0.5871  0.6452
  422MOL0     C55585   1.717   3.263   2.022 -0.1259  0.8200  0.1087
  422MOL0     C55586   1.759   3.320   2.164 -0.5495 -0.4593  0.5898
  422MOL0     C55587   1.659   3.285   2.280 -0.3828  0.8406  0.5459
  422MOL0     C55588   1.720   3.328   2.419  0.4972 -0.0378 -0.8675
  422MOL0     N55589   1.814   3.237   2.483  0.4819  0.7152 -0.1011
  422MOL0     C55590   1.814   3.220   2.619 -0.0197 -0.3349  0.1271
  422MOL0     C55591   1.910   3.124   2.642 -0.3058 -1.0094 -0.2421
  422MOL0     C55592   1.936   3.058   2.779  0.9622 -0.6086  0.5295
  422MOL0     C55593   2.067   3.125   2.836 -0.1867 -0.4175  0.1294
  422MOL0     C55594   2.048   3.139   2.993 -0.8091  0.5141 -0.0317
  422MOL0     C55595   2.125   3.257   3.051 -0.5907 -0.7920 -1.0032
  422MOL0     O55596   2.074   3.382   3.013 -0.0722 -0.5700  0.4687
  422MOL0     C55597   1.984   3.450   3.089  0.7788  0.3493  0.4218
  422MOL0     C55598   1.891   3.385   3.175  0.3740  0.4766  0.0766
  422MOL0     C55599   1.811   3.455   3.265 -0.3136  0.6324  0.4839
  422MOL0     C55600   1.821   3.596   3.263  0.1101  0.8191  1.1522
  422MOL0     C55601   1.739   3.668   3.365  0.0522 -0.4431 -0.6111
  422MOL0     O55602   1.733   3.591   3.482  0.4191  0.7933 -0.3623
  422MOL0     C55603   1.682   3.646   3.600 -0.3907 -0.3277  1.0138
  422MOL0     C55604   1.745   3.607   3.722 -0.1363  0.0268  0.6249
  422MOL0     C55605   1.695   3.657   3.840 -0.6172  0.3684  0.0223
  422MOL0     C55606   1.590   3.757   3.845 -0.5555 -0.4266  0.1041
  422MOL0     O55607   1.552   3.837   3.949  1.0444 -0.4960 -0.2913
  422MOL0     C55608   1.619   3.825   4.075 -0.9027  0.7355 -1.0082
  422MOL0     C55609   1.551   3.897   4.187 -0.4555  0.5488  0.3566
  422MOL0     C55610   1.581   4.043   4.190  0.0624 -1.0423 -0.4730
  422MOL0     C55611   1.491   4.116   4.084  0.7673 -0.1745  0.4187
  422MOL0     C55612   1.486   4.260   4.118  0.4299  0.4454 -0.5709
  422MOL0     C55613   1.395   4.354   4.041 -0.4491 -0.3067  0.1702
  422MOL0     C55614   1.397   4.503   4.088  0.0468 -0.6082 -0.7660
  422MOL0     C55615   1.398   4.529   4.241  0.7768  0.0874  1.1307
  422MOL0    Cl55616   1.564   4.537   4.310  0.5870 -0.0087  0.0424
  422MOL0     C55617   1.540   3.797   3.718 -0.0495 -0.6125 -0.4909
  422MOL0     C55618   1.572   3.737   3.601  0.1559 -1.1747  0.5330
  422MOL0     O55619   1.700   3.781   3.348  0.4352  0.3884  0.2888
  422MOL0     C55620   1.894   3.661   3.164 -0.4066  0.2473 -0.1924
  422MOL0     C55621   1.973   3.589   3.080 -0.2151  0.0550 -0.6421
  422MOL0     N55622   1.939   3.063   2.523 -0.5489 -0.0744  0.3713
  422MOL0     N55623   1.877   3.130   2.431 -0.5000  0.1587 -0.3109
  422MOL0     C55624   1.989   2.690   1.719 -0.0029  0.6786 -0.0659
  422MOL0     C55625   2.070   2.638   1.614 -0.6594 -0.5734  0.6724
  422MOL0     C55626   2.414   2.330   1.456 -0.3021  0.4978  0.9264
  422MOL0     C55627   2.468   2.415   1.354  0.9032 -0.0098  0.7348
  422MOL0     C55628   2.589   2.382   1.282 -0.5719  0.2138  0.2764
  422MOL0     C55629   2.653   2.259   1.299 -0.1232 -1.1474  0.4561
  422MOL0     O55630   2.758   2.219   1.221 -0.2277  0.8856  0.2849
  422MOL0     C55631   2.831   2.309   1.135  0.0326 -0.2066  0.4283
  422MOL0     C55632   2.946   2.251   1.064 -0.4803  0.1591 -0.6359
  422MOL0     C55633   2.930   2.099   1.025  0.3051 -0.3204  1.2218
  422MOL0     C55634   3.067   2.062   0.965  0.9573  0.2150 -0.9882
  422MOL0     C55635   3.102   1.920   0.972  0.4597 -0.0734 -0.2377
  422MOL0     C55636   3.103   1.800   0.955 -0.1328 -0.5096  0.5385
  422MOL0     C55637   2.595   2.174   1.396  1.3201 -0.4074 -0.1460
  422MOL0     C55638   2.488   2.214   1.471 -0.7192  0.5526 -0.0775
  422MOL0     H55639   2.223   2.399   1.798 -0.7871 -1.9397 -2.9523
  422MOL0     H55640   2.080   2.482   1.971  0.4664 -1.4535 -0.7076
  422MOL0     H55641   2.001   2.871   1.927  0.2124 -0.6467  1.0435
  422MOL0     H55642   1.958   2.828   2.097 -0.3588  2.6379  0.2482
  422MOL0     H55643   1.742   2.823   2.056  2.4871 -3.6727 -1.7102
  422MOL0     H55644   1.760   2.877   1.880  0.9323 -1.0587 -1.5586
  422MOL0     H55645   1.902   3.081   1.977  0.0687 -0.4518  0.4449
  422MOL0     H55646   1.845   3.040   2.133  0.0394 -3.6820  1.3590
  422MOL0     H55647   1.650   3.097   1.911  5.5087 -0.6501 -1.8649
  422MOL0     H55648   1.609   3.086   2.078  0.4361 -0.1800  1.0029
  422MOL0     H55649   1.622   3.313   1.998  0.3309  0.3099 -3.2666
  422MOL0     H55650   1.779   3.309   1.945  1.4931  3.9375  2.9887
  422MOL0     H55651   1.771   3.428   2.152 -6.3953  0.4029 -0.4446
  422MOL0     H55652   1.858   3.280   2.190 -0.3431  0.0182  0.5384
  422MOL0     H55653   1.556   3.323   2.278 -0.4217  0.7038 -1.5149
  422MOL0     H55654   1.648   3.176   2.284  2.6967  0.4839  1.5291
  422MOL0     H55655   1.635   3.344   2.486  1.9598 -1.9758  1.6639
  422MOL0     H55656   1.764   3.425   2.396  0.4055 -0.4813 -3.1472
  422MOL0     H55657   1.761   3.275   2.696 -1.3745  0.5957 -1.4021
  422MOL0     H55658   1.934   2.949   2.785 -1.8204 -0.6330  6.9948
  422MOL0     H55659   1.849   3.090   2.837 -1.4560  0.8356 -3.4541
  422MOL0     H55660   2.082   3.226   2.797 -3.2038 -0.2346 -0.7735
  422MOL0     H55661   2.148   3.054   2.816 -1.4675 -1.9776  0.2817
  422MOL0     H55662   1.940   3.143   3.013 -1.3059  3.8607 -2.3649
  422MOL0     H55663   2.098   3.058   3.046 -2.1243 -0.0064  0.4627
  422MOL0     H55664   2.229   3.234   3.026 -0.7410 -0.7674 -1.6618
  422MOL0     H55665   2.115   3.247   3.160  0.4653  2.3803 -0.5023
  422MOL0     H55666   1.877   3.282   3.205 -2.0113  0.5432 -0.6022
  422MOL0     H55667   1.756   3.403   3.344  3.3048 -0.7446  2.3163
  422MOL0     H55668   1.833   3.546   3.710  0.7506  1.4434 -0.3600
  422MOL0     H55669   1.748   3.619   3.927  0.9096  0.7300 -0.7232
  422MOL0     H55670   1.722   3.861   4.070 -1.3893  2.1210 -1.7162
  422MOL0     H55671   1.621   3.720   4.106 -1.6337  0.4475 -1.8674
  422MOL0     H55672   1.590   3.859   4.282  0.0579 -0.1277 -0.1192
  422MOL0     H55673   1.444   3.877   4.185  0.1447 -3.8314 -3.1437
  422MOL0     H55674   1.688   4.062   4.193  0.0576 -0.7879 -1.6377
  422MOL0     H55675   1.544   4.075   4.288  0.0163 -1.2097 -0.4348
  422MOL0     H55676   1.535   4.094   3.986  0.7299 -1.3699  0.6530
  422MOL0     H55677   1.388   4.079   4.095 -0.0928  1.8777 -0.0995
  422MOL0     H55678   1.587   4.299   4.101  1.2922 -0.9965  0.9468
  422MOL0     H55679   1.450   4.253   4.221 -2.4808 -0.3395 -1.5519
  422MOL0     H55680   1.295   4.311   4.034 -0.4723 -0.3288  0.6041
  422MOL0     H55681   1.424   4.367   3.936 -0.0168  0.3480  0.3595
  422MOL0     H55682   1.480   4.555   4.040 -1.8897  2.9488 -0.5676
  422MOL0     H55683   1.320   4.566   4.042  2.3469  1.5147 -1.9302
  422MOL0     H55684   1.327   4.463   4.291 -2.9136  2.6670 -0.2865
  422MOL0     H55685   1.348   4.623   4.266  0.3125  0.3050 -0.4957
  422MOL0     H55686   1.464   3.873   3.705 -1.5320 -2.4478 -3.6627
  422MOL0     H55687   1.518   3.774   3.515  0.1676 -1.0287  0.5888
  422MOL0     H55688   1.898   3.770   3.163  0.4499  0.2286 -0.1387
  422MOL0     H55689   2.018   3.639   2.996  0.9296  3.1041  1.6176
  422MOL0     H55690   1.916   2.770   1.709  2.1534  3.3139  3.2052
  422MOL0     H55691   2.056   2.706   1.530 -2.8816  0.4192  1.7697
  422MOL0     H55692   2.410   2.505   1.338  1.4553  0.7775  2.7245
  422MOL0     H55693   2.614   2.442   1.195 -2.1426 -1.2636 -1.2880
  422MOL0     H55694   2.859   2.397   1.194  1.5883  0.9142 -1.8271
  422MOL0     H55695   2.764   2.341   1.054  1.6592 -2.6656 -2.0340
  422MOL0     H55696   2.969   2.313   0.977  0.5260  2.7052  1.3023
  422MOL0     H55697   3.018   2.254   1.146 -1.1126 -0.4221 -0.0443
  422MOL0     H55698   2.853   2.082   0.950  1.5460  3.5915 -1.2899
  422MOL0     H55699   2.897   2.029   1.102 -1.1621 -0.8530  0.1467
  422MOL0     H55700   3.068   2.092   0.860  0.1825 -0.9098 -1.3357
  422MOL0     H55701   3.139   2.125   1.018 -0.5788  1.4782 -0.3133
  422MOL0     H55702   3.096   1.693   0.948 -0.7314 -0.4783  0.5882
  422MOL0     H55703   2.631   2.072   1.394  0.3035 -0.8218  1.1820
  422MOL0     H55704   2.471   2.140   1.549  3.3217 -0.5974 -0.0610
  423MOL0     O55705   5.966   3.168   8.406 -0.3088 -0.3482 -0.5940
  423MOL0     C55706   6.087   3.177   8.377  1.1907  0.0501 -0.1055
  423MOL0     O55707   6.133   3.229   8.258 -0.2177 -0.1271  0.4544
  423MOL0     C55708   6.038   3.297   8.186 -0.9766  0.5730 -1.4061
  423MOL0     C55709   6.020   3.439   8.204 -0.4435  0.5369 -0.8954
  423MOL0     C55710   5.935   3.513   8.117 -0.2765  0.2609 -0.6087
  423MOL0     C55711   5.874   3.446   8.003 -0.5788 -0.2063  0.1219
  423MOL0     O55712   5.796   3.501   7.903 -0.0755 -0.1776 -0.4285
  423MOL0     C55713   5.864   3.611   7.834  0.1276  0.1814  0.3030
  423MOL0     C55714   5.771   3.652   7.729  0.3895 -1.1802 -0.5336
  423MOL0     C55715   5.653   3.738   7.777 -0.4037  0.7690  0.1027
  423MOL0     C55716   5.695   3.867   7.844  0.5429 -0.2088  0.0435
  423MOL0     C55717   5.586   3.972   7.839 -0.1286 -0.6856 -0.2551
  423MOL0     C55718   5.559   4.043   7.970 -0.3530  0.3076 -0.5646
  423MOL0     C55719   5.679   4.119   8.032 -0.0907  0.4827 -0.5202
  423MOL0     C55720   5.652   4.217   8.141  0.2612 -0.4170  0.3836
  423MOL0     N55721   5.606   4.338   8.073 -0.4255 -0.6078  0.3183
  423MOL0     C55722   5.475   4.374   8.048 -0.7529 -0.0293  0.5345
  423MOL0     C55723   5.482   4.474   7.946  0.1528  0.2551  0.0188
  423MOL0     C55724   5.371   4.537   7.863 -0.7761  0.7906 -0.3976
  423MOL0     C55725   5.316   4.445   7.757 -0.3804 -0.2682 -0.0358
  423MOL0     C55726   5.183   4.510   7.696 -1.0353  0.0868  0.0566
  423MOL0     C55727   5.100   4.397   7.629 -0.3288 -0.6178  0.2501
  423MOL0     O55728   5.021   4.323   7.728 -1.0477 -0.3151 -0.0682
  423MOL0     C55729   4.922   4.250   7.675 -1.0174 -0.1640 -0.0967
  423MOL0     C55730   4.824   4.213   7.762 -1.1923 -0.3464  0.2794
  423MOL0     C55731   4.720   4.131   7.713 -0.7558  0.9256  0.5096
  423MOL0     C55732   4.711   4.083   7.583 -0.0639  0.6087  0.4869
  423MOL0     C55733   4.598   3.993   7.536  0.4907  0.9623 -0.5992
  423MOL0     O55734   4.589   3.960   7.404 -0.2497  0.5417  1.0312
  423MOL0     C55735   4.508   3.855   7.357  0.1939 -0.4709 -0.1041
  423MOL0     C55736   4.558   3.777   7.258  0.3780 -0.4482  0.5450
  423MOL0     C55737   4.487   3.670   7.195  0.0513  1.6617 -0.0146
  423MOL0     C55738   4.360   3.635   7.243 -0.8881 -0.3541  0.2853
  423MOL0     O55739   4.288   3.521   7.200 -0.9943  0.0196 -0.0173
  423MOL0     C55740   4.331   3.468   7.073 -0.1819  0.3376 -0.5788
  423MOL0     C55741   4.219   3.379   7.013 -0.2611 -0.1714  0.0642
  423MOL0     C55742   4.245   3.328   6.865 -0.2291 -0.8023 -0.7362
  423MOL0     C55743   4.314   3.205   6.842  0.6078 -0.0633  0.0005
  423MOL0     C55744   4.344   3.173   6.695  0.7263  0.6421  0.7276
  423MOL0     C55745   4.453   3.264   6.639  0.1060 -0.8163 -0.3619
  423MOL0     C55746   4.463   3.238   6.485  0.2808  0.3375 -0.0884
  423MOL0     C55747   4.342   3.289   6.393 -1.2249  0.2476 -0.4104
  423MOL0    Cl55748   4.275   3.442   6.449 -0.0817  0.0014  0.2278
  423MOL0     C55749   4.298   3.718   7.339 -0.6035  0.0032 -0.8566
  423MOL0     C55750   4.378   3.821   7.403 -0.6359  0.4367  0.3157
  423MOL0     O55751   4.516   3.957   7.618  0.4119 -0.1536 -0.9365
  423MOL0     C55752   4.814   4.116   7.495  0.0099  0.0283 -0.2035
  423MOL0     C55753   4.919   4.198   7.545  0.8538 -0.6435  0.8023
  423MOL0     N55754   5.610   4.507   7.924 -0.5429  0.7403 -0.2751
  423MOL0     N55755   5.682   4.424   7.996 -1.0466 -0.2293 -0.5504
  423MOL0     C55756   5.888   3.307   8.000 -0.3452 -0.0814 -0.1594
  423MOL0     C55757   5.967   3.234   8.094  0.8974  0.3086  0.6021
  423MOL0     C55758   6.179   3.144   8.486  0.0487 -0.8919 -1.0921
  423MOL0     C55759   6.318   3.146   8.458 -0.3273 -0.1357 -0.3582
  423MOL0     C55760   6.414   3.109   8.552  0.0689 -0.6600 -0.7394
  423MOL0     C55761   6.374   3.085   8.685 -0.3178 -0.0704 -0.6818
  423MOL0     O55762   6.477   3.042   8.767 -0.3036  1.2389 -0.3674
  423MOL0     C55763   6.453   3.014   8.909  0.0426 -0.7295  0.2426
  423MOL0     C55764   6.580   3.003   8.994 -0.4318 -0.3154 -0.0189
  423MOL0     C55765   6.541   2.959   9.139  0.3929  0.1289  1.1212
  423MOL0     C55766   6.661   2.946   9.234 -1.6923  0.2574 -0.1039
  423MOL0     C55767   6.605   2.977   9.369  0.1313 -0.0424 -1.0116
  423MOL0     C55768   6.540   2.994   9.475 -0.0351  0.6341 -0.3540
  423MOL0     C55769   6.239   3.089   8.726  0.3555 -0.4341 -0.9353
  423MOL0     C55770   6.141   3.120   8.623  0.4135 -0.5188  0.5866
  423MOL0     H55771   6.074   3.479   8.290 -1.3816 -0.5580  0.2518
  423MOL0     H55772   5.946   3.621   8.122 -0.3336  0.1941  1.8235
  423MOL0     H55773   5.963   3.585   7.794  0.8485  3.3612 -0.2128
  423MOL0     H55774   5.875   3.691   7.907  1.9634 -0.3115  0.6287
  423MOL0     H55775   5.732   3.562   7.679  1.1538 -2.9663  1.8716
  423MOL0     H55776   5.837   3.704   7.660  1.0391 -1.4982 -0.1566
  423MOL0     H55777   5.590   3.674   7.839 -2.4415  1.0793 -1.5134
  423MOL0     H55778   5.593   3.758   7.688 -1.1648  0.2461  0.4932
  423MOL0     H55779   5.729   3.838   7.943  0.9000 -0.8834 -0.2738
  423MOL0     H55780   5.776   3.906   7.781 -0.4347  3.0375  0.5845
  423MOL0     H55781   5.494   3.927   7.800  0.4514 -1.7120 -0.5019
  423MOL0     H55782   5.613   4.050   7.768 -1.9452  3.0212  2.7759
  423MOL0     H55783   5.536   3.959   8.036  1.4895 -0.2614 -0.5918
  423MOL0     H55784   5.469   4.105   7.965  0.4874  1.8424  1.7905
  423MOL0     H55785   5.757   4.047   8.059 -2.5934 -2.0868  0.3575
  423MOL0     H55786   5.726   4.176   7.951  1.0491  0.3417  0.0129
  423MOL0     H55787   5.742   4.249   8.195 -0.6983  0.0129  1.7720
  423MOL0     H55788   5.583   4.175   8.215 -2.9554 -2.2265 -3.2969
  423MOL0     H55789   5.390   4.317   8.085 -0.2580 -0.9549  0.2507
  423MOL0     H55790   5.411   4.621   7.806  0.5775  0.3378 -0.1693
  423MOL0     H55791   5.301   4.570   7.941 -1.4172 -1.3916  0.0174
  423MOL0     H55792   5.296   4.344   7.793 -1.1484 -0.2213 -0.2987
  423MOL0     H55793   5.384   4.439   7.671 -2.1044  1.7022 -1.6480
  423MOL0     H55794   5.136   4.566   7.777 -1.2543 -1.7302  1.2517
  423MOL0     H55795   5.207   4.573   7.610 -3.0360  2.0816  0.8804
  423MOL0     H55796   5.167   4.332   7.571  0.5299  1.0646 -0.7075
  423MOL0     H55797   5.027   4.449   7.567 -0.1911 -0.1409  0.4806
  423MOL0     H55798   4.842   4.235   7.867 -0.5086 -0.6143  0.2238
  423MOL0     H55799   4.648   4.102   7.790 -0.8848 -2.4471 -0.7194
  423MOL0     H55800   4.655   3.803   7.216  0.4697 -1.2820  0.2284
  423MOL0     H55801   4.524   3.611   7.112 -3.4841 -0.3166 -0.3868
  423MOL0     H55802   4.415   3.398   7.075  2.0067  2.7659 -1.1156
  423MOL0     H55803   4.344   3.549   7.001 -2.0447  1.5007  0.3293
  423MOL0     H55804   4.122   3.430   7.019  0.6740  1.4893  3.3494
  423MOL0     H55805   4.208   3.293   7.080  0.8889 -0.0240  0.4622
  423MOL0     H55806   4.300   3.412   6.822  1.1386 -0.1823  2.0181
  423MOL0     H55807   4.153   3.318   6.805 -0.7464 -0.8877  0.0553
  423MOL0     H55808   4.403   3.211   6.905  0.7748 -2.1683  0.0479
  423MOL0     H55809   4.252   3.117   6.866  1.4686 -1.8153 -3.5464
  423MOL0     H55810   4.248   3.161   6.646  0.5885 -0.7285  1.2791
  423MOL0     H55811   4.384   3.071   6.693 -1.0091 -0.0612  0.7500
  423MOL0     H55812   4.541   3.221   6.687 -0.5832 -2.2249 -0.2996
  423MOL0     H55813   4.445   3.372   6.656  2.9844 -0.1413 -2.4867
  423MOL0     H55814   4.548   3.295   6.447 -1.2913  2.7033 -0.2539
  423MOL0     H55815   4.488   3.132   6.474  0.3570  0.2608  0.7523
  423MOL0     H55816   4.257   3.221   6.392 -0.0904 -1.3399  1.8206
  423MOL0     H55817   4.373   3.312   6.291 -1.4158  3.8883  0.2146
  423MOL0     H55818   4.201   3.683   7.372  0.2500 -4.1097 -2.0629
  423MOL0     H55819   4.352   3.888   7.485  1.1122 -0.1619  1.4179
  423MOL0     H55820   4.829   4.065   7.400  1.6361  3.4208 -1.9214
  423MOL0     H55821   4.995   4.221   7.471  2.1575  0.7989  2.4889
  423MOL0     H55822   5.831   3.264   7.918 -1.4316  2.3888 -0.7767
  423MOL0     H55823   5.957   3.129   8.068 -1.3724  0.3628  1.0366
  423MOL0     H55824   6.356   3.146   8.356  2.2262 -0.8726  0.5130
  423MOL0     H55825   6.516   3.097   8.516  0.1745 -5.0581  0.4127
  423MOL0     H55826   6.401   2.918   8.910 -0.7219 -0.4124  3.6821
  423MOL0     H55827   6.383   3.084   8.955  0.7021 -1.0634  1.8270
  423MOL0     H55828   6.651   2.932   8.953  0.5902 -1.4185  3.2976
  423MOL0     H55829   6.628   3.102   8.997  1.5113 -1.0792 -2.6388
  423MOL0     H55830   6.489   2.863   9.131 -0.8726  0.9413 -3.4892
  423MOL0     H55831   6.465   3.026   9.180 -2.6381 -2.6643  0.5051
  423MOL0     H55832   6.694   2.842   9.239 -0.8930  0.5432  0.8685
  423MOL0     H55833   6.748   3.009   9.213  1.6949 -4.4170 -1.9161
  423MOL0     H55834   6.506   3.008   9.575  0.5474  0.3368 -0.1072
  423MOL0     H55835   6.206   3.068   8.827  1.2792  1.6961 -0.1251
  423MOL0     H55836   6.037   3.116   8.651  0.1491 -0.6255 -0.3676
  424MOL0     O55837   6.433   2.707   3.295  0.4987 -0.2777  0.1973
  424MOL0     C55838   6.325   2.686   3.344  0.6065 -1.0015 -0.3994
  424MOL0     O55839   6.208   2.706   3.286 -0.7928 -0.2674 -0.3286
  424MOL0     C55840   6.199   2.695   3.152 -1.2944  0.3512 -0.2893
  424MOL0     C55841   6.085   2.758   3.098 -0.3752 -0.7600  0.9857
  424MOL0     C55842   6.047   2.742   2.966 -0.0324 -0.7147 -0.8983
  424MOL0     C55843   6.123   2.672   2.876  0.1397  0.0442  0.5404
  424MOL0     O55844   6.106   2.675   2.743  0.8307 -0.0865  0.1444
  424MOL0     C55845   5.974   2.659   2.697 -0.1146  0.2371 -0.0635
  424MOL0     C55846   5.978   2.640   2.537  0.1323 -0.4801 -0.2540
  424MOL0     C55847   6.058   2.517   2.502 -0.4016 -0.0638  1.1968
  424MOL0     C55848   6.089   2.502   2.347 -0.0377  0.0622  0.6771
  424MOL0     C55849   6.155   2.370   2.306 -0.1531  0.5453 -0.6498
  424MOL0     C55850   6.228   2.374   2.173  1.7369 -0.1299 -0.1518
  424MOL0     C55851   6.326   2.255   2.160 -0.2764 -0.0000  0.0741
  424MOL0     C55852   6.349   2.228   2.009 -0.6559 -0.1231 -0.4038
  424MOL0     N55853   6.377   2.351   1.934  0.8072 -0.0760 -0.3337
  424MOL0     C55854   6.453   2.461   1.982  0.0850 -0.1207 -0.1182
  424MOL0     C55855   6.387   2.570   1.917  0.5540  0.6848  0.5259
  424MOL0     C55856   6.419   2.719   1.945  0.0295 -0.4622 -0.0030
  424MOL0     C55857   6.303   2.759   2.041 -0.0865 -0.4238  1.0703
  424MOL0     C55858   6.289   2.916   2.065  0.1066  0.0015  0.0810
  424MOL0     C55859   6.257   3.016   1.942 -0.5248  1.4044 -0.0240
  424MOL0     O55860   6.378   3.084   1.909  0.2027 -0.5773  1.1753
  424MOL0     C55861   6.404   3.208   1.961  0.1844  0.0179  0.0176
  424MOL0     C55862   6.507   3.291   1.913 -0.3528 -0.1053 -0.0218
  424MOL0     C55863   6.523   3.425   1.953 -1.3417 -0.0337  0.2328
  424MOL0     C55864   6.432   3.479   2.049 -0.6753  1.0032 -0.3425
  424MOL0     C55865   6.449   3.617   2.092 -0.5819 -0.3548  0.2061
  424MOL0     O55866   6.371   3.657   2.200  0.3349  0.2480 -0.6251
  424MOL0     C55867   6.377   3.775   2.271 -0.4117 -0.4311  0.4106
  424MOL0     C55868   6.494   3.843   2.311  0.6418  0.6572  1.3588
  424MOL0     C55869   6.497   3.949   2.392  0.0459 -0.6861 -0.3420
  424MOL0     C55870   6.374   4.003   2.438 -0.2065 -0.5978  0.3075
  424MOL0     O55871   6.375   4.099   2.536 -0.2129 -0.8947 -0.4211
  424MOL0     C55872   6.251   4.175   2.544  0.8846  0.6196 -0.0674
  424MOL0     C55873   6.274   4.308   2.628  0.7023 -0.0340  0.7534
  424MOL0     C55874   6.376   4.395   2.557  1.0124  1.0929  0.4653
  424MOL0     C55875   6.421   4.519   2.634  0.0832  1.3488 -0.0814
  424MOL0     C55876   6.511   4.617   2.551 -0.5727 -0.2467 -1.1095
  424MOL0     C55877   6.448   4.668   2.429 -0.5133 -0.0438  0.4112
  424MOL0     C55878   6.538   4.746   2.336  0.1981 -0.5938 -0.1270
  424MOL0     C55879   6.605   4.862   2.411  0.4591  1.2226 -0.0659
  424MOL0    Cl55880   6.479   4.967   2.487 -0.3590  0.2502  0.2123
  424MOL0     C55881   6.252   3.935   2.407 -0.0807  0.3050 -0.2838
  424MOL0     C55882   6.253   3.830   2.315 -0.5171 -0.1428 -0.1594
  424MOL0     O55883   6.532   3.690   2.042  0.0824 -0.4629 -0.8571
  424MOL0     C55884   6.328   3.398   2.091  0.1185  0.2503  0.9239
  424MOL0     C55885   6.318   3.265   2.056 -0.0395  0.4784 -0.5025
  424MOL0     N55886   6.299   2.523   1.828 -0.4305  0.8016  0.3320
  424MOL0     N55887   6.302   2.386   1.827  0.2643 -0.0259  0.0078
  424MOL0     C55888   6.237   2.598   2.933  0.2388  0.1352 -0.2018
  424MOL0     C55889   6.271   2.607   3.066 -1.0024  0.4042 -0.6826
  424MOL0     C55890   6.317   2.614   3.472  0.4247  1.1228  0.1629
  424MOL0     C55891   6.427   2.531   3.515  1.2120  0.1091 -0.0474
  424MOL0     C55892   6.402   2.434   3.614 -0.1443  0.0836  0.2375
  424MOL0     C55893   6.282   2.427   3.677  0.3598 -0.3602 -0.8337
  424MOL0     O55894   6.251   2.331   3.777 -0.0441 -0.5039 -0.1323
  424MOL0     C55895   6.338   2.215   3.785  0.9791  0.3349 -0.3749
  424MOL0     C55896   6.241   2.086   3.812 -0.1247  0.2606 -1.3666
  424MOL0     C55897   6.317   1.953   3.792  0.3441  0.4843 -0.2673
  424MOL0     C55898   6.224   1.831   3.773  0.2217  0.8302  1.0908
  424MOL0     C55899   6.209   1.809   3.627 -0.2660 -0.0130  0.4354
  424MOL0     C55900   6.184   1.809   3.506 -0.2803 -0.4306 -0.1566
  424MOL0     C55901   6.176   2.510   3.641  0.5438 -1.2827 -0.2736
  424MOL0     C55902   6.188   2.602   3.527 -0.0274  1.0441 -1.1632
  424MOL0     H55903   6.012   2.799   3.167  0.0365 -3.6376  3.3580
  424MOL0     H55904   5.953   2.791   2.943 -0.2384  0.5683  2.1783
  424MOL0     H55905   5.923   2.752   2.723 -0.7883 -0.1136 -0.1049
  424MOL0     H55906   5.923   2.571   2.736  0.1099  0.2517  0.2644
  424MOL0     H55907   6.025   2.731   2.499 -0.1539 -0.2137  0.0249
  424MOL0     H55908   5.875   2.623   2.505  0.3433 -1.5548 -0.3891
  424MOL0     H55909   6.005   2.423   2.523 -2.7307  0.6156 -1.1115
  424MOL0     H55910   6.157   2.518   2.549  1.2504 -4.7776 -1.4167
  424MOL0     H55911   5.997   2.509   2.287  1.0970 -5.3825 -2.3091
  424MOL0     H55912   6.160   2.585   2.334 -0.0651  1.5458  6.9807
  424MOL0     H55913   6.086   2.286   2.318 -2.5646  2.6219  1.1256
  424MOL0     H55914   6.238   2.354   2.375  0.6946  3.2767 -0.8952
  424MOL0     H55915   6.267   2.476   2.166 -4.2299  2.7422  1.8680
  424MOL0     H55916   6.145   2.360   2.103 -0.1369  1.6654  1.5615
  424MOL0     H55917   6.424   2.276   2.205  0.1419 -4.5805  1.7549
  424MOL0     H55918   6.284   2.167   2.209 -3.3329  2.7704  2.9096
  424MOL0     H55919   6.267   2.177   1.956 -1.5946  0.1789  0.7143
  424MOL0     H55920   6.434   2.160   2.001 -0.2673 -0.2870  3.3484
  424MOL0     H55921   6.531   2.464   2.057  0.6911 -1.4415 -0.6578
  424MOL0     H55922   6.426   2.775   1.852  1.2973 -1.6470 -0.6667
  424MOL0     H55923   6.521   2.724   1.985  1.2806 -1.0890 -2.8462
  424MOL0     H55924   6.281   2.702   2.132 -0.1229 -0.5285  0.9957
  424MOL0     H55925   6.215   2.741   1.979 -0.4888  0.9762  1.2027
  424MOL0     H55926   6.205   2.914   2.136  0.3967 -1.6011  0.4212
  424MOL0     H55927   6.379   2.950   2.118  1.4730 -1.0871 -1.4211
  424MOL0     H55928   6.166   3.070   1.971 -1.1481  0.5450 -0.3317
  424MOL0     H55929   6.235   2.947   1.861 -0.1591  2.8884 -1.4282
  424MOL0     H55930   6.580   3.275   1.835  0.3865  0.7599  0.4585
  424MOL0     H55931   6.596   3.492   1.909  1.9982 -2.0888  2.2039
  424MOL0     H55932   6.594   3.810   2.288  2.1108  2.9389  3.8916
  424MOL0     H55933   6.581   4.014   2.410  0.0743 -0.3919 -1.4321
  424MOL0     H55934   6.173   4.116   2.593 -1.3172  1.8098 -1.9359
  424MOL0     H55935   6.219   4.212   2.446  1.2205  2.1703  0.3926
  424MOL0     H55936   6.303   4.266   2.725  0.8251 -1.6523  0.0467
  424MOL0     H55937   6.185   4.368   2.650 -2.5225 -3.6113 -1.3781
  424MOL0     H55938   6.322   4.432   2.470  1.5350 -0.4939 -0.5991
  424MOL0     H55939   6.456   4.341   2.506  0.5959  2.1106 -1.3456
  424MOL0     H55940   6.331   4.567   2.673 -1.5451 -1.5387 -0.0223
  424MOL0     H55941   6.479   4.469   2.712  0.2932  1.0669 -0.4097
  424MOL0     H55942   6.607   4.578   2.516  1.4478  2.1655  1.3078
  424MOL0     H55943   6.517   4.697   2.625 -1.3928 -2.5378  1.6111
  424MOL0     H55944   6.348   4.708   2.448 -0.9372 -0.9047  0.0478
  424MOL0     H55945   6.435   4.580   2.365 -0.8455 -0.3520  0.8937
  424MOL0     H55946   6.610   4.683   2.283  2.9192  1.1794  1.2803
  424MOL0     H55947   6.474   4.783   2.255 -1.1248  0.2907  1.2838
  424MOL0     H55948   6.672   4.913   2.342  0.8891  0.6427 -0.0876
  424MOL0     H55949   6.678   4.827   2.485  1.5219  2.6101 -0.4271
  424MOL0     H55950   6.160   3.965   2.456  0.8451  1.0876  1.0326
  424MOL0     H55951   6.163   3.780   2.282  0.2343 -1.8997  0.3364
  424MOL0     H55952   6.252   3.440   2.157  1.2850  3.5696  0.3601
  424MOL0     H55953   6.251   3.196   2.107 -0.1235  0.8884 -0.0470
  424MOL0     H55954   6.292   2.526   2.873 -2.5994 -1.0713 -1.5114
  424MOL0     H55955   6.363   2.557   3.095  0.0010  1.4026 -1.9955
  424MOL0     H55956   6.521   2.523   3.461  1.1394  1.4405 -0.3872
  424MOL0     H55957   6.488   2.370   3.630  0.4194  1.1606  1.7734
  424MOL0     H55958   6.426   2.210   3.850  0.6376  0.0324  0.0702
  424MOL0     H55959   6.373   2.200   3.683 -0.1887 -2.2218 -0.4784
  424MOL0     H55960   6.205   2.087   3.915  0.5573  2.5264 -1.1061
  424MOL0     H55961   6.149   2.092   3.753 -0.6789 -1.3992 -0.7383
  424MOL0     H55962   6.388   1.933   3.873 -0.1676  2.0476  0.6179
  424MOL0     H55963   6.373   1.948   3.699  1.4431 -1.0951  0.4378
  424MOL0     H55964   6.270   1.741   3.815 -1.2798  0.3612  1.7947
  424MOL0     H55965   6.126   1.834   3.821 -1.8959 -0.1814 -2.7462
  424MOL0     H55966   6.171   1.816   3.400  1.6962 -0.0621 -0.4221
  424MOL0     H55967   6.078   2.501   3.687  0.1144  0.3923 -0.7982
  424MOL0     H55968   6.100   2.652   3.489 -0.2406  1.0669 -0.6455
  425MOL0     O55969   8.951   1.263   9.285  0.6941 -0.1448 -0.5737
  425MOL0     C55970   9.042   1.186   9.246  0.6018 -0.1876 -0.0017
  425MOL0     O55971   9.035   1.049   9.233  0.2350  0.1395  0.0943
  425MOL0     C55972   8.923   0.975   9.271 -0.2180 -0.1896 -0.0839
  425MOL0     C55973   8.790   1.013   9.263 -1.2511  0.3815  0.3004
  425MOL0     C55974   8.687   0.931   9.315  0.9506  0.3822  0.3868
  425MOL0     C55975   8.722   0.809   9.379  0.7376 -1.0990  0.6258
  425MOL0     O55976   8.630   0.720   9.413 -0.2400  0.0447  0.0801
  425MOL0     C55977   8.596   0.729   9.555 -0.0968 -0.4125 -0.4868
  425MOL0     C55978   8.497   0.613   9.590 -1.0321  0.1465  0.2282
  425MOL0     C55979   8.456   0.629   9.725  0.0637  0.0659  0.7276
  425MOL0     C55980   8.376   0.512   9.764  0.4599 -0.0131 -0.3077
  425MOL0     C55981   8.221   0.503   9.734  0.0649  0.0789  0.2291
  425MOL0     C55982   8.154   0.377   9.790  0.4698  0.0302  0.2298
  425MOL0     C55983   8.166   0.356   9.939  0.5051  0.6213 -0.0805
  425MOL0     C55984   8.140   0.477  10.034  0.3459  0.4299  0.3871
  425MOL0     N55985   8.128   0.423  10.170 -0.3300  0.3048 -0.3054
  425MOL0     C55986   8.021   0.450  10.262 -1.0348  0.6337 -0.4931
  425MOL0     C55987   8.056   0.402  10.386 -0.8365 -0.0307 -0.0461
  425MOL0     C55988   7.980   0.408  10.519  0.0185 -0.5711  0.2941
  425MOL0     C55989   8.036   0.307  10.614  0.3954 -0.4336  0.2739
  425MOL0     C55990   7.940   0.257  10.717  0.7648  0.6147  0.4573
  425MOL0     C55991   7.825   0.184  10.650 -0.2025 -0.2360  0.5085
  425MOL0     O55992   7.751   0.090  10.736 -0.2617 -0.0674 -0.4970
  425MOL0     C55993   7.679   0.153  10.841  0.5155 -0.7650 -0.1936
  425MOL0     C55994   7.647   0.056  10.943 -0.2386  0.0081  0.2243
  425MOL0     C55995   7.577   0.102  11.063  0.3982  0.4599 -1.2858
  425MOL0     C55996   7.565   0.241  11.086 -0.1934  0.2514 -0.5491
  425MOL0     C55997   7.480   0.287  11.200 -0.2046  0.3791 -0.4190
  425MOL0     O55998   7.439   0.188  11.296 -1.1194  0.2140  0.4331
  425MOL0     C55999   7.325   0.224  11.358  0.2985 -1.0097 -0.6381
  425MOL0     C56000   7.207   0.238  11.286 -0.2198 -0.1563  0.7673
  425MOL0     C56001   7.090   0.270  11.342 -0.5834  0.1880 -0.0878
  425MOL0     C56002   7.088   0.293  11.480 -0.4484  0.1742 -0.3667
  425MOL0     O56003   6.961   0.306  11.529  0.1985  0.5871 -0.6364
  425MOL0     C56004   6.948   0.392  11.647 -0.3892 -0.1291  0.1982
  425MOL0     C56005   6.816   0.468  11.625  0.4610  0.2245 -0.0373
  425MOL0     C56006   6.698   0.367  11.627  0.4335 -0.1311  0.5314
  425MOL0     C56007   6.569   0.458  11.636  0.0392  0.3830  1.0520
  425MOL0     C56008   6.458   0.379  11.578 -0.4400 -0.6060  1.1333
  425MOL0     C56009   6.324   0.452  11.593  1.3387 -0.1248 -0.4001
  425MOL0     C56010   6.207   0.360  11.559  0.6819 -0.1652  0.0530
  425MOL0     C56011   6.056   0.427  11.563 -0.5141 -0.8087  0.2946
  425MOL0    Cl56012   5.955   0.287  11.524 -0.8154  0.4215 -0.0936
  425MOL0     C56013   7.201   0.280  11.564 -0.2179  0.3132 -0.6384
  425MOL0     C56014   7.326   0.254  11.501 -0.0982 -0.3113  0.0190
  425MOL0     O56015   7.470   0.407  11.212 -0.4358 -0.1846  0.3623
  425MOL0     C56016   7.597   0.329  10.984  0.5491 -0.4972 -0.5679
  425MOL0     C56017   7.656   0.292  10.861  0.4854  0.9530  1.2562
  425MOL0     N56018   8.183   0.349  10.371 -0.0261  0.1391  0.6535
  425MOL0     N56019   8.218   0.353  10.246  0.2083  0.4985  0.2641
  425MOL0     C56020   8.859   0.775   9.384  0.1793 -0.1392 -0.1864
  425MOL0     C56021   8.956   0.850   9.330  0.3956 -0.8829 -0.2514
  425MOL0     C56022   9.177   1.240   9.229  0.2486 -0.0785  0.6799
  425MOL0     C56023   9.225   1.365   9.274 -0.4574 -1.2588  1.0704
  425MOL0     C56024   9.353   1.410   9.232 -0.5849 -0.4795 -0.3483
  425MOL0     C56025   9.442   1.333   9.164  0.9485 -0.0604 -0.2196
  425MOL0     O56026   9.571   1.369   9.127  0.3527  0.2151 -0.7370
  425MOL0     C56027   9.609   1.503   9.153 -0.2089 -0.4107  0.0302
  425MOL0     C56028   9.547   1.609   9.063  0.6729 -0.1783 -0.2544
  425MOL0     C56029   9.641   1.725   9.049 -0.6041 -0.9886  0.3321
  425MOL0     C56030   9.591   1.817   8.933 -1.1169  0.7799  0.1154
  425MOL0     C56031   9.471   1.888   8.972  0.2120 -0.1327  0.5269
  425MOL0     C56032   9.364   1.956   8.986 -0.8706 -0.4113 -0.0161
  425MOL0     C56033   9.400   1.206   9.142  0.2662  1.3027  0.5288
  425MOL0     C56034   9.271   1.164   9.167 -0.1056 -0.8145  0.9989
  425MOL0     H56035   8.778   1.107   9.210 -0.7046  0.5415  0.4484
  425MOL0     H56036   8.585   0.967   9.307  1.0393  0.5243 -0.1125
  425MOL0     H56037   8.556   0.829   9.578  2.9295  0.9771 -0.8337
  425MOL0     H56038   8.683   0.720   9.620 -0.8674 -1.9847  0.3663
  425MOL0     H56039   8.557   0.524   9.567  1.9060  1.7605  1.1148
  425MOL0     H56040   8.401   0.614   9.538 -1.0606 -1.4744  0.1969
  425MOL0     H56041   8.393   0.717   9.737 -0.4189  0.4609 -3.1696
  425MOL0     H56042   8.544   0.637   9.789  1.9381 -1.3739 -1.4731
  425MOL0     H56043   8.422   0.416   9.740 -2.6334 -1.6814 -0.1329
  425MOL0     H56044   8.386   0.498   9.872 -1.5385 -2.5933 -0.3307
  425MOL0     H56045   8.211   0.498   9.625  2.4799  2.8498 -0.2384
  425MOL0     H56046   8.159   0.591   9.757  0.5539  0.5555 -0.2485
  425MOL0     H56047   8.191   0.288   9.738  0.8135 -1.7496  3.2981
  425MOL0     H56048   8.049   0.395   9.764  1.0433  3.1018 -0.3237
  425MOL0     H56049   8.089   0.285   9.970 -1.6515  2.4683 -0.9460
  425MOL0     H56050   8.261   0.310   9.966  1.8278  4.0996  1.9512
  425MOL0     H56051   8.044   0.522  10.006  1.0323  0.4031 -2.2652
  425MOL0     H56052   8.218   0.553  10.034  2.5999 -1.7288  0.2676
  425MOL0     H56053   7.935   0.513  10.239 -0.7907  1.5643  1.0000
  425MOL0     H56054   7.873   0.392  10.500 -0.2755  0.8379  0.5822
  425MOL0     H56055   7.995   0.509  10.560 -2.0208 -0.3258  0.5403
  425MOL0     H56056   8.110   0.368  10.667 -1.1544  1.8110 -0.0338
  425MOL0     H56057   8.086   0.218  10.576  1.0129 -0.6982  1.6342
  425MOL0     H56058   7.996   0.195  10.788  0.5026 -0.0304  0.1017
  425MOL0     H56059   7.886   0.341  10.764 -1.2899 -0.5680  0.3372
  425MOL0     H56060   7.865   0.126  10.566 -3.5547  0.0974 -1.5068
  425MOL0     H56061   7.756   0.255  10.605 -0.7804  0.1485  1.9356
  425MOL0     H56062   7.674  -0.049  10.943 -3.6668 -1.0177 -0.8918
  425MOL0     H56063   7.530   0.039  11.137  2.3373 -0.1418 -0.4888
  425MOL0     H56064   7.200   0.211  11.181 -3.0984 -1.1673  1.1178
  425MOL0     H56065   7.004   0.282  11.277  1.4300  1.6844 -2.6667
  425MOL0     H56066   7.034   0.456  11.665 -1.2767  0.0514  5.1970
  425MOL0     H56067   6.947   0.325  11.734 -4.0644 -1.0121 -0.3257
  425MOL0     H56068   6.817   0.518  11.528 -7.1997  0.1179 -0.8318
  425MOL0     H56069   6.808   0.544  11.703  0.0038  1.0671 -0.8803
  425MOL0     H56070   6.685   0.295  11.709  2.6967  0.0405  1.1114
  425MOL0     H56071   6.716   0.309  11.535 -3.6526  2.4931 -2.2602
  425MOL0     H56072   6.544   0.481  11.740 -1.5676 -1.0600  1.0387
  425MOL0     H56073   6.570   0.542  11.566  1.1764 -0.4942 -0.0423
  425MOL0     H56074   6.451   0.278  11.619 -0.9271 -1.7199 -1.4935
  425MOL0     H56075   6.472   0.351  11.473 -4.3854 -0.7763  0.4986
  425MOL0     H56076   6.316   0.542  11.531 -0.0185  0.4957  0.6289
  425MOL0     H56077   6.318   0.479  11.699 -0.4614 -1.4604 -0.1221
  425MOL0     H56078   6.232   0.324  11.459  0.8530 -1.1369  0.4328
  425MOL0     H56079   6.204   0.274  11.626  1.0521 -0.7945 -0.7205
  425MOL0     H56080   6.045   0.514  11.498 -2.4713 -1.6876 -0.6360
  425MOL0     H56081   6.038   0.466  11.663  0.7640  1.4649 -0.2774
  425MOL0     H56082   7.190   0.270  11.671  0.1116  0.3876 -0.5950
  425MOL0     H56083   7.417   0.250  11.559  0.1983 -0.7394 -0.4685
  425MOL0     H56084   7.553   0.426  11.001  1.0961 -0.3260 -0.0946
  425MOL0     H56085   7.664   0.356  10.774  2.8150 -3.7193 -2.4250
  425MOL0     H56086   8.890   0.687   9.438 -1.3261 -0.4040  0.2949
  425MOL0     H56087   9.059   0.819   9.326  0.1250 -1.6977 -2.6631
  425MOL0     H56088   9.170   1.432   9.340  1.4602  2.1733 -0.5541
  425MOL0     H56089   9.385   1.510   9.259  1.0329 -1.6270  2.3258
  425MOL0     H56090   9.713   1.492   9.121  0.1881  0.7369  0.8705
  425MOL0     H56091   9.611   1.540   9.256  1.3107 -2.0973  0.6639
  425MOL0     H56092   9.521   1.572   8.964  1.2457 -0.6809 -0.2261
  425MOL0     H56093   9.452   1.631   9.111 -0.4030 -0.4843 -2.1420
  425MOL0     H56094   9.735   1.679   9.015 -0.1519  0.0563  0.1272
  425MOL0     H56095   9.666   1.781   9.140 -1.0209  0.1732 -0.2453
  425MOL0     H56096   9.670   1.884   8.897  0.3140 -1.4048 -1.1122
  425MOL0     H56097   9.562   1.754   8.848 -2.3632  1.2773  0.1537
  425MOL0     H56098   9.282   2.013   9.022 -1.5279  0.0232 -2.0755
  425MOL0     H56099   9.479   1.148   9.095  1.0993  1.3371  1.8564
  425MOL0     H56100   9.254   1.062   9.134 -1.1546 -0.0576 -0.9956
  426MOL0     O56101   1.683   9.877   0.789  0.7569  0.3271 -0.0136
  426MOL0     C56102   1.669   9.794   0.697 -0.3270  0.2576 -0.1144
  426MOL0     O56103   1.666   9.825   0.561 -0.2636 -0.2831  0.0441
  426MOL0     C56104   1.633   9.938   0.497 -0.1992  0.2983 -0.0184
  426MOL0     C56105   1.593   9.920   0.359  0.4751 -0.0077  0.1069
  426MOL0     C56106   1.549  10.031   0.286 -0.3413  0.9811 -0.2322
  426MOL0     C56107   1.528  10.154   0.340  1.2867 -0.1198  0.0903
  426MOL0     O56108   1.461  10.264   0.289  0.3967 -0.0330  0.3480
  426MOL0     C56109   1.414  10.266   0.153 -0.9591 -0.1525  0.4180
  426MOL0     C56110   1.399  10.413   0.105  0.8622 -0.6207 -0.1028
  426MOL0     C56111   1.328  10.414  -0.035  0.2320 -0.3492 -0.0845
  426MOL0     C56112   1.182  10.463  -0.031  0.0836  0.1763 -0.2545
  426MOL0     C56113   1.132  10.509  -0.166 -0.1106  0.3699 -1.6205
  426MOL0     C56114   1.027  10.630  -0.145  0.1757  0.7207  0.3796
  426MOL0     C56115   1.071  10.768  -0.099  1.1301 -0.1134  0.8285
  426MOL0     C56116   1.163  10.852  -0.191 -0.4676 -0.9720  0.0607
  426MOL0     N56117   1.297  10.798  -0.196 -0.2829 -0.3755 -0.0046
  426MOL0     C56118   1.385  10.759  -0.090 -0.6365 -0.0796 -0.5805
  426MOL0     C56119   1.499  10.721  -0.158 -0.4067 -0.3391 -0.0374
  426MOL0     C56120   1.622  10.647  -0.111  0.0569 -0.8582  0.2475
  426MOL0     C56121   1.749  10.722  -0.160  0.6609  0.6057 -0.4539
  426MOL0     C56122   1.872  10.718  -0.070  0.0609 -0.3553  0.6434
  426MOL0     C56123   1.930  10.569  -0.074 -0.2295  0.3692 -0.0023
  426MOL0     O56124   1.853  10.473   0.008 -0.4868 -0.9102  0.1777
  426MOL0     C56125   1.884  10.340   0.014  0.3864  0.8635  0.2974
  426MOL0     C56126   1.993  10.278  -0.058  0.3932 -0.5588  0.6820
  426MOL0     C56127   2.016  10.148  -0.051 -0.2574  0.0517 -0.0020
  426MOL0     C56128   1.961  10.072   0.061 -0.4293 -0.5293 -0.3561
  426MOL0     C56129   2.009   9.943   0.095  1.0764 -0.3526 -0.2571
  426MOL0     O56130   1.967   9.887   0.214 -0.0293 -0.0757 -0.1073
  426MOL0     C56131   1.964   9.746   0.240  0.0378  0.2827  0.1192
  426MOL0     C56132   1.916   9.710   0.372 -0.2336  0.6472 -0.1805
  426MOL0     C56133   1.892   9.582   0.412  0.1673 -0.7031 -0.3294
  426MOL0     C56134   1.926   9.480   0.329  0.2797  0.4758  0.0886
  426MOL0     O56135   1.903   9.350   0.380  0.4344 -0.2246  0.1331
  426MOL0     C56136   1.947   9.239   0.302  0.7300  0.2021 -0.2508
  426MOL0     C56137   1.953   9.106   0.377 -0.3276  0.6207 -0.2331
  426MOL0     C56138   2.092   9.076   0.434 -0.1668 -0.3555 -0.2240
  426MOL0     C56139   2.100   8.952   0.524  0.0395  0.3940 -0.5915
  426MOL0     C56140   2.243   8.929   0.578  0.1324  0.2567 -0.2990
  426MOL0     C56141   2.238   8.835   0.705  0.9802 -0.2829  0.3519
  426MOL0     C56142   2.190   8.691   0.677 -0.0402 -0.7210  0.5737
  426MOL0     C56143   2.186   8.589   0.793  0.4232 -0.1485  0.2778
  426MOL0    Cl56144   2.129   8.667   0.937  0.0121  0.3476  0.0247
  426MOL0     C56145   1.978   9.506   0.202 -0.7700  0.4868  1.0813
  426MOL0     C56146   1.993   9.638   0.155 -0.1005 -0.5782 -0.3073
  426MOL0     O56147   2.067   9.884   0.007  0.7277 -0.7339 -0.5932
  426MOL0     C56148   1.855  10.136   0.136  0.2501  0.7019 -0.3542
  426MOL0     C56149   1.809  10.269   0.103  0.0062 -0.0890 -1.8413
  426MOL0     N56150   1.489  10.747  -0.290  0.6312  0.3466  0.1330
  426MOL0     N56151   1.370  10.795  -0.316  0.8534 -1.1364 -0.9137
  426MOL0     C56152   1.562  10.168   0.477 -0.1193 -0.1742  0.0015
  426MOL0     C56153   1.609  10.056   0.553  0.1253 -0.0559  0.1730
  426MOL0     C56154   1.652   9.651   0.733 -0.6125 -0.3307 -1.0938
  426MOL0     C56155   1.699   9.598   0.857 -0.2698 -0.2755  0.7007
  426MOL0     C56156   1.697   9.463   0.884  0.7280  0.2918  0.1754
  426MOL0     C56157   1.622   9.377   0.793  0.7304 -0.7685 -0.1430
  426MOL0     O56158   1.611   9.248   0.815 -0.0001  0.4559 -0.6110
  426MOL0     C56159   1.735   9.171   0.801  0.0422 -0.9313  0.2964
  426MOL0     C56160   1.723   9.025   0.828 -0.1461  0.2258  0.5352
  426MOL0     C56161   1.676   8.996   0.976  0.7617 -0.6707 -0.4731
  426MOL0     C56162   1.623   8.858   1.019  0.2092 -0.6073  0.0235
  426MOL0     C56163   1.722   8.749   0.980 -0.0303  0.4642 -0.1889
  426MOL0     C56164   1.790   8.650   0.953 -0.5833  0.5936 -0.5992
  426MOL0     C56165   1.575   9.425   0.672  0.1504  0.9467 -0.3723
  426MOL0     C56166   1.598   9.561   0.636 -0.0766 -0.7115  0.0513
  426MOL0     H56167   1.615   9.821   0.321  0.5860  0.2959 -0.6447
  426MOL0     H56168   1.532  10.009   0.181  2.0302 -1.2283 -0.2586
  426MOL0     H56169   1.315  10.219   0.154 -1.0338 -0.1327 -1.6957
  426MOL0     H56170   1.477  10.216   0.078 -3.6307 -2.6047 -0.3951
  426MOL0     H56171   1.501  10.453   0.103 -0.1534  2.1996 -1.2286
  426MOL0     H56172   1.338  10.463   0.181 -1.5054 -2.3367 -0.7579
  426MOL0     H56173   1.324  10.312  -0.075 -1.2213  0.5624 -2.4954
  426MOL0     H56174   1.386  10.475  -0.105  0.0608 -1.3055 -1.0759
  426MOL0     H56175   1.125  10.378   0.007  2.3142 -2.1409 -1.7614
  426MOL0     H56176   1.175  10.542   0.045  1.7171  0.5384 -0.4358
  426MOL0     H56177   1.076  10.428  -0.213  0.3064 -1.1094  0.3561
  426MOL0     H56178   1.213  10.529  -0.238 -0.9792  2.2840 -2.1410
  426MOL0     H56179   0.957  10.584  -0.075 -0.7429  0.3093 -0.7851
  426MOL0     H56180   0.969  10.637  -0.237  1.6915 -2.6602 -1.0028
  426MOL0     H56181   0.979  10.825  -0.083 -0.2755 -2.3647  1.2200
  426MOL0     H56182   1.122  10.757  -0.004 -1.6879 -0.9101  2.3789
  426MOL0     H56183   1.171  10.949  -0.141  2.3956  0.0785 -2.1453
  426MOL0     H56184   1.125  10.883  -0.288  2.3624  3.2664  0.0416
  426MOL0     H56185   1.366  10.773   0.016 -2.6270 -1.0006 -0.7720
  426MOL0     H56186   1.625  10.543  -0.145 -0.1242 -0.6026 -0.5552
  426MOL0     H56187   1.620  10.641  -0.001  0.2309 -1.7464  0.2154
  426MOL0     H56188   1.733  10.829  -0.170  3.0750  0.9630 -0.9982
  426MOL0     H56189   1.775  10.667  -0.251  1.8272  1.1278 -0.4491
  426MOL0     H56190   1.952  10.788  -0.096 -2.8380  3.3791  0.8796
  426MOL0     H56191   1.833  10.731   0.031 -2.7931 -0.8327 -0.3182
  426MOL0     H56192   2.033  10.568  -0.037 -0.0369 -3.0017 -0.3231
  426MOL0     H56193   1.943  10.530  -0.175  1.2937  0.5876  0.0825
  426MOL0     H56194   2.021  10.336  -0.145 -0.7908 -0.5327  0.2944
  426MOL0     H56195   2.086  10.093  -0.114  3.2598  1.1216  2.6636
  426MOL0     H56196   1.884   9.796   0.430 -3.8859 -0.5661 -0.1017
  426MOL0     H56197   1.860   9.570   0.514 -0.3500  0.5586 -0.3232
  426MOL0     H56198   2.042   9.251   0.249  0.3803 -2.3658 -1.6259
  426MOL0     H56199   1.874   9.225   0.222  0.9870 -2.4839 -0.1233
  426MOL0     H56200   1.930   9.028   0.303 -1.7747 -1.7497  2.5101
  426MOL0     H56201   1.880   9.097   0.457 -1.3088 -0.2306 -1.1965
  426MOL0     H56202   2.128   9.155   0.499 -0.1337 -1.2596  0.8879
  426MOL0     H56203   2.155   9.067   0.345  0.7182 -3.6370  0.6040
  426MOL0     H56204   2.029   8.978   0.604  0.3083 -0.2129 -0.1528
  426MOL0     H56205   2.056   8.865   0.475 -1.4542 -0.0483  1.3732
  426MOL0     H56206   2.291   9.021   0.611 -0.6070  0.4438  0.2799
  426MOL0     H56207   2.307   8.886   0.500 -1.0196 -1.6061 -0.2789
  426MOL0     H56208   2.176   8.892   0.774  2.0305  1.0032  0.2844
  426MOL0     H56209   2.339   8.840   0.746  1.0158  0.0656  0.2229
  426MOL0     H56210   2.085   8.687   0.645  0.7474 -4.0491 -2.1366
  426MOL0     H56211   2.257   8.655   0.599 -0.2192  0.0862  0.0419
  426MOL0     H56212   2.289   8.558   0.815  0.9333  3.8114  5.4965
  426MOL0     H56213   2.123   8.503   0.771  1.8917 -1.0785 -0.4501
  426MOL0     H56214   1.991   9.421   0.136 -2.8597  0.7377  0.2321
  426MOL0     H56215   2.023   9.665   0.055 -3.9453  0.7210 -1.2858
  426MOL0     H56216   1.814  10.083   0.221  4.5648 -2.2785  0.1554
  426MOL0     H56217   1.716  10.301   0.150  0.4980  0.4508 -1.2166
  426MOL0     H56218   1.553  10.267   0.519  0.7988  0.5025 -1.3379
  426MOL0     H56219   1.623  10.095   0.653 -0.8490  0.8980 -0.0472
  426MOL0     H56220   1.743   9.655   0.938 -2.0683  1.8216  0.2960
  426MOL0     H56221   1.735   9.417   0.975  0.1797  0.0998  0.3105
  426MOL0     H56222   1.798   9.215   0.879 -1.5997  2.2588 -0.0313
  426MOL0     H56223   1.786   9.191   0.706  2.0256  2.4142  1.8953
  426MOL0     H56224   1.642   8.997   0.760 -0.3136 -2.3984  1.6835
  426MOL0     H56225   1.811   8.965   0.801 -1.3812 -0.9113 -1.1566
  426MOL0     H56226   1.591   9.060   0.998 -0.0259 -2.4741  2.2511
  426MOL0     H56227   1.752   9.036   1.043 -1.9619  1.7249  1.4423
  426MOL0     H56228   1.615   8.860   1.128 -1.5419  0.4553 -0.1022
  426MOL0     H56229   1.524   8.837   0.978 -0.9526 -0.4225  2.5410
  426MOL0     H56230   1.862   8.574   0.926  2.0121  2.2684  1.1519
  426MOL0     H56231   1.521   9.349   0.616  1.0144 -0.4838  0.6450
  426MOL0     H56232   1.557   9.609   0.548 -4.1929 -5.5755 -1.1906
  427MOL0     O56233   7.537   8.130   7.885 -0.4011  0.3054 -0.0780
  427MOL0     C56234   7.442   8.200   7.890 -0.0305 -0.6285 -0.1592
  427MOL0     O56235   7.312   8.158   7.883  0.0269 -0.0182 -0.3167
  427MOL0     C56236   7.283   8.036   7.827  1.0275  0.4061 -0.8318
  427MOL0     C56237   7.165   7.976   7.875 -0.2548  0.4843 -0.5215
  427MOL0     C56238   7.127   7.854   7.821 -0.4507  0.6393  1.0249
  427MOL0     C56239   7.196   7.800   7.710 -1.3044  0.1153  0.0912
  427MOL0     O56240   7.160   7.687   7.660 -0.6006 -0.1544 -0.0083
  427MOL0     C56241   7.247   7.573   7.714 -0.1830 -0.7665  0.3750
  427MOL0     C56242   7.166   7.458   7.765  0.6581  0.3623  0.1398
  427MOL0     C56243   7.256   7.355   7.836 -0.0680 -0.5041 -0.1341
  427MOL0     C56244   7.178   7.242   7.909 -0.3205 -0.7006 -0.1754
  427MOL0     C56245   7.280   7.146   7.984  0.6807  0.5801 -0.8976
  427MOL0     C56246   7.216   7.064   8.100  0.8048  0.9141  0.1272
  427MOL0     C56247   7.298   6.950   8.148 -0.5845 -0.1866  0.4043
  427MOL0     C56248   7.218   6.871   8.250 -0.3020  0.4312 -0.5041
  427MOL0     N56249   7.294   6.763   8.312 -0.6785  0.2483 -0.0026
  427MOL0     C56250   7.298   6.627   8.277 -0.2115 -0.0345 -0.8781
  427MOL0     C56251   7.378   6.566   8.367 -0.3850  0.4655  0.0298
  427MOL0     C56252   7.416   6.422   8.357 -0.1196  0.5609 -0.6576
  427MOL0     C56253   7.300   6.319   8.377  0.0204  0.0154  0.7577
  427MOL0     C56254   7.270   6.310   8.521  0.4580 -0.0330 -0.8002
  427MOL0     C56255   7.365   6.221   8.601  0.2744  0.0932 -0.0551
  427MOL0     O56256   7.305   6.165   8.718  0.5558  0.5744 -0.2235
  427MOL0     C56257   7.271   6.038   8.735 -0.0890  0.4984  0.0173
  427MOL0     C56258   7.239   5.952   8.632  0.6172 -0.2985 -1.1518
  427MOL0     C56259   7.186   5.827   8.666 -0.3082  0.5032 -0.1658
  427MOL0     C56260   7.156   5.784   8.803 -0.8458 -0.3267  0.0071
  427MOL0     C56261   7.124   5.648   8.841 -0.3806  1.3319  1.0786
  427MOL0     O56262   7.086   5.553   8.750 -0.3446 -0.6842  0.5851
  427MOL0     C56263   7.022   5.437   8.785  0.3106 -0.0003 -0.1578
  427MOL0     C56264   6.941   5.422   8.902  0.0164  0.4803  0.1913
  427MOL0     C56265   6.855   5.305   8.906 -0.1149 -0.2595 -0.2976
  427MOL0     C56266   6.858   5.206   8.809 -0.6193 -0.6827 -1.0837
  427MOL0     O56267   6.782   5.105   8.847 -0.5345 -0.3045  0.7797
  427MOL0     C56268   6.745   5.009   8.749 -0.1792  1.4314 -0.0216
  427MOL0     C56269   6.626   5.036   8.664  0.5433  0.7225  0.7666
  427MOL0     C56270   6.594   4.903   8.589 -0.3777 -0.4486  0.4506
  427MOL0     C56271   6.474   4.913   8.504 -0.5679  0.7867  0.0728
  427MOL0     C56272   6.475   4.805   8.397  0.4318 -0.0395  0.8878
  427MOL0     C56273   6.438   4.661   8.458 -0.4116 -1.1057  0.0568
  427MOL0     C56274   6.427   4.556   8.353  1.4313 -0.1109  0.1208
  427MOL0     C56275   6.311   4.578   8.265  0.0389  0.2703  0.5197
  427MOL0    Cl56276   6.177   4.468   8.280 -0.1651  0.0363 -0.2056
  427MOL0     C56277   6.937   5.217   8.697 -0.2945  0.0403  0.4141
  427MOL0     C56278   7.022   5.331   8.694 -0.8399 -1.0907  0.3969
  427MOL0     O56279   7.142   5.629   8.956 -0.2738  1.0174  0.2380
  427MOL0     C56280   7.173   5.888   8.906 -0.3139  0.6493  0.9680
  427MOL0     C56281   7.232   6.007   8.863  0.1288 -0.1521 -1.2258
  427MOL0     N56282   7.431   6.659   8.453  0.3049 -0.1148  0.2163
  427MOL0     N56283   7.382   6.773   8.414  0.2244  0.1476  0.4401
  427MOL0     C56284   7.309   7.863   7.659  0.2034 -0.5305 -0.4791
  427MOL0     C56285   7.345   7.983   7.710 -0.9223 -0.0250  0.3492
  427MOL0     C56286   7.462   8.346   7.920 -0.4604  0.5175 -0.0409
  427MOL0     C56287   7.357   8.416   7.985 -0.1167  0.5340 -0.9012
  427MOL0     C56288   7.373   8.553   8.009  0.1675  0.1172 -0.6296
  427MOL0     C56289   7.483   8.626   7.964  0.0590  0.1425  0.4826
  427MOL0     O56290   7.473   8.757   7.993  0.1682 -0.0388  0.3183
  427MOL0     C56291   7.580   8.850   7.981  0.0886 -0.3027  0.0680
  427MOL0     C56292   7.571   8.901   7.839 -0.0889  1.0155  0.5467
  427MOL0     C56293   7.450   8.998   7.804  0.4519 -1.2490 -0.1993
  427MOL0     C56294   7.478   9.131   7.870 -0.0502  0.2260  0.2972
  427MOL0     C56295   7.364   9.221   7.857 -0.1000  0.1799  0.5343
  427MOL0     C56296   7.264   9.282   7.851 -0.4651 -0.6941 -0.0893
  427MOL0     C56297   7.591   8.556   7.903 -0.2778 -0.3394  0.6360
  427MOL0     C56298   7.583   8.416   7.884 -0.0276 -0.6419 -0.2425
  427MOL0     H56299   7.106   8.026   7.951 -1.6024 -0.0001 -1.2288
  427MOL0     H56300   7.043   7.794   7.853 -1.5238  1.7850  0.4424
  427MOL0     H56301   7.307   7.614   7.796 -0.1592  1.2878 -0.5919
  427MOL0     H56302   7.315   7.549   7.632  0.4261  4.1750 -0.9097
  427MOL0     H56303   7.114   7.417   7.678  0.7733 -1.3280  0.8254
  427MOL0     H56304   7.098   7.502   7.839 -1.4533  0.8248 -1.9610
  427MOL0     H56305   7.322   7.404   7.909 -2.2620 -1.3356  2.5435
  427MOL0     H56306   7.315   7.302   7.760 -0.1652  0.4329 -0.8916
  427MOL0     H56307   7.119   7.299   7.981 -4.3283 -1.7725 -2.2924
  427MOL0     H56308   7.111   7.189   7.840  0.6194 -0.3673 -1.3846
  427MOL0     H56309   7.369   7.201   8.017  0.6013  0.7232 -0.9149
  427MOL0     H56310   7.324   7.066   7.924  2.7328 -1.8937  3.4433
  427MOL0     H56311   7.129   7.026   8.046  1.1658 -0.6043  0.5452
  427MOL0     H56312   7.191   7.125   8.187  1.9232  0.9472  0.4484
  427MOL0     H56313   7.342   6.884   8.073 -0.3741 -1.4541  1.5987
  427MOL0     H56314   7.381   6.999   8.201  1.0357 -1.4009 -0.9042
  427MOL0     H56315   7.135   6.825   8.195 -1.4722  2.5987 -0.6309
  427MOL0     H56316   7.194   6.928   8.339 -0.9763 -0.4550 -0.1003
  427MOL0     H56317   7.247   6.587   8.190 -0.3532  0.4433 -1.0172
  427MOL0     H56318   7.497   6.398   8.426  1.0079  1.1024 -1.7500
  427MOL0     H56319   7.462   6.421   8.258 -0.0640  1.3459 -0.6441
  427MOL0     H56320   7.322   6.223   8.329  1.2635 -0.5984  2.4468
  427MOL0     H56321   7.213   6.353   8.319  0.5125  0.6700  0.3954
  427MOL0     H56322   7.268   6.414   8.556  0.6704  0.2979 -1.7379
  427MOL0     H56323   7.170   6.266   8.522  0.0099  0.8849 -2.1000
  427MOL0     H56324   7.446   6.290   8.627 -1.1394  2.8152 -2.3655
  427MOL0     H56325   7.407   6.141   8.539  2.9376 -1.4391  3.3931
  427MOL0     H56326   7.254   5.962   8.525 -0.5240 -0.6719 -1.3554
  427MOL0     H56327   7.172   5.758   8.584 -2.2319 -0.5520  0.9737
  427MOL0     H56328   6.949   5.498   8.980  1.5285  0.1261  0.4184
  427MOL0     H56329   6.793   5.297   8.995  0.7942 -1.9190  0.2391
  427MOL0     H56330   6.719   4.928   8.817  2.8154  0.4643  0.1179
  427MOL0     H56331   6.829   4.966   8.694 -1.6976 -1.6268 -0.1595
  427MOL0     H56332   6.650   5.123   8.603 -4.2366  1.6570 -0.1966
  427MOL0     H56333   6.538   5.060   8.724  1.1785  3.1216  0.8286
  427MOL0     H56334   6.596   4.816   8.654 -0.7844 -0.1713  0.8445
  427MOL0     H56335   6.676   4.896   8.517 -0.3898  0.5376  0.3262
  427MOL0     H56336   6.388   4.912   8.571 -1.1516  3.0994 -0.5314
  427MOL0     H56337   6.494   5.007   8.451  1.9090 -0.5888 -1.6136
  427MOL0     H56338   6.577   4.795   8.358  0.6817  2.5275  0.7124
  427MOL0     H56339   6.408   4.827   8.314 -0.3742  1.5458  1.9235
  427MOL0     H56340   6.346   4.658   8.518 -1.4545 -0.4529 -1.4484
  427MOL0     H56341   6.514   4.625   8.528 -0.7765 -1.7339  0.1364
  427MOL0     H56342   6.517   4.546   8.292 -1.2743 -4.2805 -3.9048
  427MOL0     H56343   6.414   4.462   8.407  0.9701 -0.2145 -0.1610
  427MOL0     H56344   6.341   4.560   8.162 -2.3122 -3.4273  0.3241
  427MOL0     H56345   6.274   4.679   8.288  0.1016 -0.1149  2.5223
  427MOL0     H56346   6.943   5.140   8.621  1.9551 -1.5173  2.0233
  427MOL0     H56347   7.083   5.338   8.604  1.9798 -5.6195  1.5652
  427MOL0     H56348   7.141   5.880   9.010 -1.8641  0.0588  0.4767
  427MOL0     H56349   7.259   6.075   8.943  1.3200 -1.2935 -0.6248
  427MOL0     H56350   7.366   7.827   7.575  1.1061  0.1138 -0.1498
  427MOL0     H56351   7.419   8.051   7.669 -0.6992 -0.5139 -0.0649
  427MOL0     H56352   7.272   8.356   8.017 -0.1064  0.6956 -0.5603
  427MOL0     H56353   7.290   8.595   8.065 -1.3557 -4.0731  0.5828
  427MOL0     H56354   7.675   8.798   8.001  1.9069  2.9538  0.6849
  427MOL0     H56355   7.575   8.935   8.050 -2.4466  0.4549 -0.9383
  427MOL0     H56356   7.667   8.950   7.819  1.8261 -1.0705  3.7593
  427MOL0     H56357   7.557   8.811   7.780 -0.2172 -0.2791  2.4604
  427MOL0     H56358   7.349   8.969   7.832 -1.6765  3.3426 -2.1468
  427MOL0     H56359   7.461   9.006   7.696  0.4384 -2.3140 -0.2965
  427MOL0     H56360   7.504   9.127   7.976  5.0941 -1.6926 -0.7761
  427MOL0     H56361   7.560   9.171   7.809 -0.4006  0.0061 -0.3281
  427MOL0     H56362   7.168   9.328   7.859  0.7075  1.9818 -0.1380
  427MOL0     H56363   7.678   8.616   7.881  0.2742 -1.0815  0.7660
  427MOL0     H56364   7.672   8.358   7.863  0.2073 -0.1351 -0.6543
  428MOL0     O56365   0.929   7.527   2.675  0.4632  0.7390 -0.1682
  428MOL0     C56366   0.942   7.586   2.780  1.3368  0.5703 -0.2089
  428MOL0     O56367   1.002   7.712   2.795 -0.2854 -0.0575  0.1515
  428MOL0     C56368   1.040   7.782   2.690  0.1749  0.4919  0.4728
  428MOL0     C56369   1.167   7.841   2.685  0.6222  0.8963 -0.3157
  428MOL0     C56370   1.213   7.905   2.574  0.2694 -0.0640  0.2732
  428MOL0     C56371   1.132   7.918   2.457  0.0688  0.2507  0.4676
  428MOL0     O56372   1.172   7.988   2.344 -0.5091  0.6329  0.4886
  428MOL0     C56373   1.293   8.059   2.341 -0.1532  0.6406 -0.5478
  428MOL0     C56374   1.304   8.145   2.214 -1.2740 -1.0434  0.2998
  428MOL0     C56375   1.195   8.256   2.196  0.6363  0.7802  1.0808
  428MOL0     C56376   1.048   8.199   2.179 -0.4725 -0.0045  0.1058
  428MOL0     C56377   0.942   8.303   2.127  0.6313 -0.0171 -0.9694
  428MOL0     C56378   0.903   8.386   2.254  0.4777  0.3845 -1.3597
  428MOL0     C56379   0.806   8.497   2.212 -0.0585 -0.5135 -0.4847
  428MOL0     C56380   0.762   8.590   2.330 -0.5890 -0.4739  0.2485
  428MOL0     N56381   0.710   8.718   2.278  0.1823 -0.3992  0.1733
  428MOL0     C56382   0.773   8.802   2.192 -0.0536 -0.6987  0.6449
  428MOL0     C56383   0.698   8.904   2.167  0.5681  0.2117 -0.0401
  428MOL0     C56384   0.714   9.026   2.077 -0.9641  0.0535 -1.6524
  428MOL0     C56385   0.761   9.150   2.173 -0.6848 -0.0891 -0.0907
  428MOL0     C56386   0.766   9.287   2.105  0.2576  0.3008 -0.4238
  428MOL0     C56387   0.877   9.314   2.010 -0.1679 -0.8910  0.2444
  428MOL0     O56388   0.869   9.240   1.892  0.2369 -0.0398 -0.1618
  428MOL0     C56389   0.774   9.293   1.799 -0.3628 -0.0458  0.0483
  428MOL0     C56390   0.784   9.233   1.668  0.4132  0.7978  0.0592
  428MOL0     C56391   0.703   9.277   1.559  0.1786  0.8347 -1.0813
  428MOL0     C56392   0.604   9.381   1.578 -0.3880  0.4669  0.4794
  428MOL0     C56393   0.514   9.430   1.467  0.1834 -1.2182 -0.5516
  428MOL0     O56394   0.462   9.561   1.491 -0.0086 -0.3061  0.7433
  428MOL0     C56395   0.376   9.621   1.399 -0.1711 -1.4186 -0.5861
  428MOL0     C56396   0.386   9.620   1.257  0.3684 -0.0499 -0.5062
  428MOL0     C56397   0.290   9.685   1.183  1.3418  0.9462  0.1195
  428MOL0     C56398   0.173   9.751   1.239 -0.2793 -0.5957 -0.3888
  428MOL0     O56399   0.080   9.821   1.160  0.5613 -0.0198  0.0192
  428MOL0     C56400  -0.020   9.897   1.225  0.2070  0.2213  0.5561
  428MOL0     C56401  -0.104   9.991   1.133 -0.8790  0.3672 -0.3047
  428MOL0     C56402  -0.009  10.109   1.089  0.3068 -0.0052  0.8774
  428MOL0     C56403  -0.075  10.211   1.007  0.1255 -0.1742  0.4433
  428MOL0     C56404   0.006  10.349   0.982  0.3652 -0.4964  0.1346
  428MOL0     C56405   0.060  10.429   1.110  0.3534  0.9519  0.0206
  428MOL0     C56406   0.138  10.547   1.057  0.2092 -0.4178 -0.0057
  428MOL0     C56407   0.192  10.634   1.167  1.2301  1.0945  0.7176
  428MOL0    Cl56408   0.312  10.530   1.248  0.0902  0.3643  0.0359
  428MOL0     C56409   0.157   9.745   1.379 -0.3389  0.1057 -0.9393
  428MOL0     C56410   0.258   9.682   1.451  0.6060  0.2274  0.1919
  428MOL0     O56411   0.500   9.360   1.367  0.0163  0.9416 -0.3465
  428MOL0     C56412   0.597   9.429   1.714  0.2277  0.0211  0.8546
  428MOL0     C56413   0.685   9.396   1.812 -0.5300 -0.2033  0.3707
  428MOL0     N56414   0.577   8.883   2.237  0.3440 -0.4033 -0.2330
  428MOL0     N56415   0.580   8.773   2.301 -0.7098  0.0945  0.1457
  428MOL0     C56416   0.998   7.854   2.455 -0.6203  1.2344 -0.8733
  428MOL0     C56417   0.957   7.793   2.577  0.0311 -0.1131  0.3692
  428MOL0     C56418   0.898   7.515   2.911 -0.5370  0.3327  1.1863
  428MOL0     C56419   0.950   7.571   3.025 -0.2583 -0.5183 -0.6175
  428MOL0     C56420   0.907   7.517   3.152  0.1221  0.5457 -0.1510
  428MOL0     C56421   0.807   7.420   3.157 -0.2889  1.0676 -0.1451
  428MOL0     O56422   0.769   7.365   3.274 -0.1075 -0.4203  1.0738
  428MOL0     C56423   0.871   7.269   3.314  0.5755 -0.5034  0.0467
  428MOL0     C56424   0.821   7.156   3.389  0.0177  0.0158  0.1785
  428MOL0     C56425   0.742   7.052   3.296  0.4072  0.2037  0.9501
  428MOL0     C56426   0.672   6.946   3.382  0.4090  0.5916 -0.2933
  428MOL0     C56427   0.552   6.891   3.314  0.1761  0.4577  0.2556
  428MOL0     C56428   0.458   6.827   3.260  0.1432 -0.0248 -0.2179
  428MOL0     C56429   0.752   7.380   3.032 -0.3935 -0.6317 -0.8730
  428MOL0     C56430   0.796   7.420   2.910  0.1229 -0.5471 -0.0440
  428MOL0     H56431   1.228   7.837   2.775  4.5772 -1.3433 -2.8104
  428MOL0     H56432   1.303   7.964   2.582 -0.6194  1.2189  1.3486
  428MOL0     H56433   1.379   7.993   2.324  0.3894  0.4153  2.4974
  428MOL0     H56434   1.309   8.127   2.425 -2.2974  1.4583 -0.7405
  428MOL0     H56435   1.306   8.079   2.126 -0.6858  1.1822 -1.4430
  428MOL0     H56436   1.398   8.196   2.237  0.1820 -2.6305 -1.7063
  428MOL0     H56437   1.232   8.320   2.115 -0.1333 -0.7383 -0.5499
  428MOL0     H56438   1.205   8.306   2.293 -0.9374 -1.1813  2.3247
  428MOL0     H56439   1.064   8.129   2.097  0.9357  0.2850  0.0963
  428MOL0     H56440   1.005   8.159   2.271  0.4978 -2.4444 -0.4235
  428MOL0     H56441   0.852   8.254   2.088  0.2992  1.8703 -2.7162
  428MOL0     H56442   0.971   8.352   2.034 -1.5038  3.9666  0.2478
  428MOL0     H56443   1.000   8.422   2.290 -0.0639 -0.0707  0.6792
  428MOL0     H56444   0.862   8.326   2.335  3.4867  0.9980  0.7912
  428MOL0     H56445   0.867   8.558   2.144 -0.2809 -0.6620 -0.8224
  428MOL0     H56446   0.717   8.476   2.152 -0.0669 -2.3002  0.0944
  428MOL0     H56447   0.837   8.624   2.401 -1.9858  5.3482 -0.5709
  428MOL0     H56448   0.685   8.537   2.386 -1.1667 -0.2899 -0.3512
  428MOL0     H56449   0.869   8.788   2.142 -0.0468 -0.5950  0.6288
  428MOL0     H56450   0.616   9.056   2.040 -0.4746 -0.3382 -3.3850
  428MOL0     H56451   0.791   9.009   2.001 -0.5447 -0.0289 -1.2152
  428MOL0     H56452   0.858   9.119   2.212 -2.1786 -2.6531  1.9364
  428MOL0     H56453   0.695   9.169   2.259  1.4530  0.5625  1.4937
  428MOL0     H56454   0.666   9.278   2.061 -0.5775  0.3032  1.4005
  428MOL0     H56455   0.759   9.372   2.174  2.0667  2.1004 -2.2852
  428MOL0     H56456   0.976   9.293   2.051 -0.2088 -0.8127  0.3818
  428MOL0     H56457   0.882   9.422   1.987 -1.2414 -0.5353  1.6192
  428MOL0     H56458   0.855   9.154   1.644  1.1597  1.2941  0.6027
  428MOL0     H56459   0.722   9.220   1.468  0.1329  1.8757 -1.7561
  428MOL0     H56460   0.477   9.573   1.221  0.5511 -0.8047  0.8690
  428MOL0     H56461   0.305   9.680   1.076  0.2616  1.0053 -0.0516
  428MOL0     H56462   0.017   9.963   1.304 -1.6733 -0.2945  1.9408
  428MOL0     H56463  -0.093   9.833   1.275 -1.1937 -0.6937 -2.4184
  428MOL0     H56464  -0.191  10.039   1.180 -1.8782 -0.3739 -1.3464
  428MOL0     H56465  -0.149   9.926   1.058  0.7017 -1.0469 -0.0979
  428MOL0     H56466   0.074  10.067   1.032  0.7484  3.5450 -1.4654
  428MOL0     H56467   0.036  10.168   1.169  1.8455  2.0456 -1.3526
  428MOL0     H56468  -0.097  10.175   0.906  1.5261 -0.9553  0.3943
  428MOL0     H56469  -0.174  10.241   1.044 -0.7610  1.0161 -2.5743
  428MOL0     H56470  -0.053  10.422   0.926  1.0050  0.0035  0.1077
  428MOL0     H56471   0.086  10.324   0.912  1.9132 -1.2129  2.0603
  428MOL0     H56472   0.136  10.367   1.157  1.1090 -0.3930 -2.7173
  428MOL0     H56473  -0.016  10.466   1.179  0.1727 -0.8762  0.8468
  428MOL0     H56474   0.221  10.515   0.993 -0.3381 -0.6823 -0.6060
  428MOL0     H56475   0.090  10.611   0.982  0.6092 -1.7860 -1.4944
  428MOL0     H56476   0.113  10.650   1.240 -0.8429 -3.4231 -0.2081
  428MOL0     H56477   0.244  10.725   1.133  2.5453  0.2963  0.5131
  428MOL0     H56478   0.071   9.784   1.433 -2.0959 -0.7113 -2.9844
  428MOL0     H56479   0.246   9.681   1.559 -0.2009 -0.7636  0.1109
  428MOL0     H56480   0.521   9.504   1.736 -1.5811 -1.6939  0.6533
  428MOL0     H56481   0.684   9.440   1.911  0.5584  0.3898  0.1412
  428MOL0     H56482   0.933   7.862   2.369 -0.4145  0.6429 -1.0962
  428MOL0     H56483   0.861   7.743   2.575  1.0559 -2.1637  0.5962
  428MOL0     H56484   1.029   7.644   3.037  1.0355 -2.1636  1.6722
  428MOL0     H56485   0.956   7.550   3.243 -1.5830  3.2522 -0.1208
  428MOL0     H56486   0.945   7.318   3.379  1.4357 -1.9158  0.1642
  428MOL0     H56487   0.926   7.231   3.227  0.9385 -2.5075  1.0980
  428MOL0     H56488   0.906   7.113   3.443  0.5053 -0.0952 -0.6576
  428MOL0     H56489   0.747   7.202   3.455  0.6776 -0.9399  1.6316
  428MOL0     H56490   0.812   6.986   3.246 -0.5154 -2.5080  3.0034
  428MOL0     H56491   0.674   7.099   3.224 -0.7240 -3.9520 -0.9682
  428MOL0     H56492   0.747   6.866   3.392  0.7401  0.9702  0.3022
  428MOL0     H56493   0.662   6.975   3.487 -0.2787  0.1262 -0.2196
  428MOL0     H56494   0.398   6.750   3.216  2.5039 -1.5572 -0.9366
  428MOL0     H56495   0.669   7.310   3.035  0.3007 -1.4538 -0.1238
  428MOL0     H56496   0.737   7.384   2.826 -2.6624  0.4489  1.3611
  429MOL0     O56497   0.766   4.648   6.393  0.2823 -0.3748  0.5662
  429MOL0     C56498   0.715   4.617   6.277 -0.8160 -0.3856 -0.1706
  429MOL0     O56499   0.648   4.701   6.196 -0.4953 -0.2922 -0.7770
  429MOL0     C56500   0.655   4.842   6.221 -0.5698 -0.3491 -0.3861
  429MOL0     C56501   0.537   4.911   6.233 -0.2689  0.4373  0.0485
  429MOL0     C56502   0.524   5.046   6.268  0.0954 -0.1736 -0.0839
  429MOL0     C56503   0.643   5.121   6.280 -0.4251 -0.0572 -0.4615
  429MOL0     O56504   0.633   5.249   6.324  0.2240 -0.4600  0.2265
  429MOL0     C56505   0.743   5.294   6.409 -0.2154 -1.1404  0.3266
  429MOL0     C56506   0.710   5.430   6.479  0.0735  0.8358 -0.5374
  429MOL0     C56507   0.688   5.540   6.376  0.1524  0.2767  0.1679
  429MOL0     C56508   0.735   5.680   6.427  1.1394 -0.6180 -0.3006
  429MOL0     C56509   0.670   5.802   6.361 -0.2041  1.1579  0.3005
  429MOL0     C56510   0.728   5.936   6.398 -0.8668  1.0019  0.8415
  429MOL0     C56511   0.882   5.948   6.355 -0.1221  0.0141 -0.7343
  429MOL0     C56512   0.916   6.096   6.341  0.2197 -0.9898  0.1784
  429MOL0     N56513   0.920   6.178   6.456 -0.0674  0.5038  0.2042
  429MOL0     C56514   0.828   6.270   6.482  0.4577  0.2423  0.3457
  429MOL0     C56515   0.869   6.319   6.608 -0.7090  1.3660  0.4661
  429MOL0     C56516   0.794   6.412   6.690 -0.0112 -1.0760 -0.2086
  429MOL0     C56517   0.823   6.565   6.658  0.0635 -0.3379 -0.2171
  429MOL0     C56518   0.809   6.606   6.515  0.2085  0.5271  0.6600
  429MOL0     C56519   0.837   6.757   6.488  0.1819 -0.0975  0.1659
  429MOL0     O56520   0.964   6.798   6.532  0.7752  0.3201 -0.4263
  429MOL0     C56521   1.000   6.926   6.513  0.5540 -0.9043 -0.4074
  429MOL0     C56522   0.948   7.028   6.427 -0.2241  0.3272  0.9953
  429MOL0     C56523   0.998   7.157   6.425 -0.2464 -0.0765  0.6161
  429MOL0     C56524   1.098   7.203   6.509  0.3525 -0.1314  1.1987
  429MOL0     C56525   1.145   7.337   6.506 -0.5891 -0.7736  0.4850
  429MOL0     O56526   1.057   7.435   6.451 -0.4960  0.0407 -0.7481
  429MOL0     C56527   1.103   7.561   6.442 -0.1578  0.0094 -0.2513
  429MOL0     C56528   1.225   7.593   6.397 -0.0571 -0.7542 -0.1628
  429MOL0     C56529   1.249   7.734   6.364  0.3412  0.4335  0.5773
  429MOL0     C56530   1.155   7.834   6.365  0.1855 -1.1314  0.0767
  429MOL0     O56531   1.195   7.960   6.332 -0.5391  0.5076 -0.7717
  429MOL0     C56532   1.159   8.057   6.446  0.7944  1.4258  0.1774
  429MOL0     C56533   1.166   8.202   6.386 -1.7161  0.3234  0.4039
  429MOL0     C56534   1.319   8.240   6.375 -0.3201  0.7974 -0.2474
  429MOL0     C56535   1.336   8.359   6.277 -0.1171 -0.4069  0.0249
  429MOL0     C56536   1.309   8.336   6.119 -0.1251  1.0158 -0.7705
  429MOL0     C56537   1.389   8.436   6.032  0.0086  0.5354 -0.7603
  429MOL0     C56538   1.338   8.488   5.902  0.4840 -0.4550 -0.5745
  429MOL0     C56539   1.301   8.373   5.810  0.7524  0.0706 -0.2844
  429MOL0    Cl56540   1.419   8.236   5.780  0.1272  0.3121  0.2515
  429MOL0     C56541   1.025   7.806   6.418 -1.1985 -0.0032  0.8765
  429MOL0     C56542   1.005   7.670   6.453  0.0541  0.2127  0.9653
  429MOL0     O56543   1.251   7.361   6.566  0.0550  0.1326 -0.7397
  429MOL0     C56544   1.147   7.113   6.601 -1.1218 -0.4065  0.4668
  429MOL0     C56545   1.104   6.979   6.601  1.1455  0.8159  0.0759
  429MOL0     N56546   0.988   6.250   6.635 -0.0275 -0.2641 -0.1548
  429MOL0     N56547   1.026   6.172   6.547  0.3891 -0.1655 -1.0943
  429MOL0     C56548   0.768   5.059   6.247 -0.7255  0.3971 -0.2819
  429MOL0     C56549   0.776   4.922   6.223 -0.5078 -0.3381 -0.8121
  429MOL0     C56550   0.722   4.474   6.224 -0.6723 -0.9886  0.0992
  429MOL0     C56551   0.814   4.389   6.280  0.3010 -1.0339 -0.6085
  429MOL0     C56552   0.833   4.264   6.225 -0.5487  0.0465 -0.0719
  429MOL0     C56553   0.765   4.220   6.109  0.3321 -0.7003 -0.5334
  429MOL0     O56554   0.807   4.088   6.075  0.1482  0.3919 -0.3860
  429MOL0     C56555   0.755   4.027   5.956  0.5195  0.5706 -0.9222
  429MOL0     C56556   0.749   3.871   5.969  0.6666 -0.0841 -0.2764
  429MOL0     C56557   0.872   3.799   6.018  0.4799  0.8218 -0.2075
  429MOL0     C56558   0.989   3.794   5.916 -0.3065 -0.1427  0.3246
  429MOL0     C56559   1.123   3.788   5.987  1.0864 -0.1480  0.7596
  429MOL0     C56560   1.229   3.801   6.033  0.5635 -0.2022  0.3271
  429MOL0     C56561   0.663   4.303   6.051  0.4232 -0.0211  0.5323
  429MOL0     C56562   0.647   4.431   6.110 -0.4196 -0.6079  0.2900
  429MOL0     H56563   0.451   4.845   6.226  0.6776 -1.5273  3.9153
  429MOL0     H56564   0.426   5.092   6.259  0.0558 -0.4764 -1.4157
  429MOL0     H56565   0.832   5.305   6.347 -1.9633 -1.9117 -2.4665
  429MOL0     H56566   0.770   5.225   6.490 -0.1893 -0.5968  0.7880
  429MOL0     H56567   0.804   5.449   6.531 -1.1316  0.1876  2.0260
  429MOL0     H56568   0.618   5.421   6.537  0.6680  2.3097  0.7086
  429MOL0     H56569   0.585   5.532   6.342 -0.0602  0.0172  0.8603
  429MOL0     H56570   0.755   5.521   6.291  0.0027  1.2396 -0.1767
  429MOL0     H56571   0.691   5.692   6.526  1.6487  1.5926 -0.2905
  429MOL0     H56572   0.844   5.684   6.442  1.5213 -0.3404 -2.7807
  429MOL0     H56573   0.562   5.813   6.375  0.0641  2.3133  1.5985
  429MOL0     H56574   0.689   5.788   6.254  0.6507 -0.2298  0.6014
  429MOL0     H56575   0.721   5.947   6.507 -6.0822 -3.2944  1.3664
  429MOL0     H56576   0.658   6.013   6.365 -3.1834 -0.0878  2.8620
  429MOL0     H56577   0.950   5.904   6.429 -0.7462 -1.2174 -0.8597
  429MOL0     H56578   0.902   5.891   6.263 -2.7055 -3.6708  0.7393
  429MOL0     H56579   0.843   6.139   6.272  0.3162  0.0360  0.6900
  429MOL0     H56580   1.009   6.113   6.287 -0.0008  0.1164  0.1338
  429MOL0     H56581   0.746   6.293   6.415  0.2415  1.7030  1.0696
  429MOL0     H56582   0.809   6.391   6.797 -0.5719 -3.3613 -0.5347
  429MOL0     H56583   0.688   6.392   6.673 -0.1915 -1.4053  1.1860
  429MOL0     H56584   0.925   6.571   6.696 -0.3163 -2.9101  1.4585
  429MOL0     H56585   0.759   6.627   6.720 -0.4126  0.6865 -1.6700
  429MOL0     H56586   0.880   6.552   6.451 -0.2660 -1.5369  1.8139
  429MOL0     H56587   0.706   6.590   6.480  1.1560 -0.1285 -2.0484
  429MOL0     H56588   0.768   6.820   6.545  1.7261  0.6734  1.2879
  429MOL0     H56589   0.820   6.780   6.382  3.0131  0.1718 -0.3320
  429MOL0     H56590   0.887   6.990   6.346  1.3083  1.5005 -0.8003
  429MOL0     H56591   0.968   7.229   6.350  2.7664  2.1717  1.3647
  429MOL0     H56592   1.309   7.524   6.391  3.2676  2.8955 -0.1940
  429MOL0     H56593   1.345   7.761   6.323  1.2472 -0.4652  2.0189
  429MOL0     H56594   1.221   8.050   6.536 -2.2082  3.2762  2.5798
  429MOL0     H56595   1.056   8.036   6.477  0.7191 -1.5308 -1.7513
  429MOL0     H56596   1.123   8.286   6.441 -1.0267  2.6971 -2.4369
  429MOL0     H56597   1.129   8.198   6.283  0.7247 -4.3839 -0.5830
  429MOL0     H56598   1.380   8.159   6.333 -0.7522 -0.4964  1.5160
  429MOL0     H56599   1.362   8.259   6.474 -0.3616 -3.4211  0.7640
  429MOL0     H56600   1.271   8.443   6.303 -1.2866 -1.1231 -0.5212
  429MOL0     H56601   1.434   8.406   6.290  0.6234 -2.4031  2.4423
  429MOL0     H56602   1.201   8.341   6.109 -0.2028 -0.2341 -0.8201
  429MOL0     H56603   1.330   8.235   6.080  1.5758  0.9568  0.1758
  429MOL0     H56604   1.480   8.382   6.004  1.2690  0.9883  2.0502
  429MOL0     H56605   1.413   8.520   6.098 -1.3974  1.1139 -0.9538
  429MOL0     H56606   1.248   8.550   5.913 -1.6112 -3.1313 -1.4319
  429MOL0     H56607   1.412   8.547   5.848 -0.5685 -0.5551 -2.1878
  429MOL0     H56608   1.277   8.417   5.712  1.9580 -1.7301 -1.4524
  429MOL0     H56609   1.200   8.339   5.836 -0.2047  1.9685 -1.2788
  429MOL0     H56610   0.946   7.880   6.423  0.7739  2.2090  1.5196
  429MOL0     H56611   0.899   7.652   6.469 -0.2326  0.2758 -0.7124
  429MOL0     H56612   1.237   7.145   6.652 -0.5819  2.3576 -1.9327
  429MOL0     H56613   1.159   6.904   6.657 -0.7787 -1.6548 -1.1395
  429MOL0     H56614   0.854   5.124   6.235 -1.1004  1.5931  2.7714
  429MOL0     H56615   0.870   4.870   6.206 -2.0528 -3.6445 -0.1667
  429MOL0     H56616   0.886   4.415   6.357 -1.3685 -2.1659  1.4322
  429MOL0     H56617   0.903   4.195   6.272 -1.2184 -0.4346  0.2436
  429MOL0     H56618   0.819   4.042   5.867  0.1018  0.7034 -1.2020
  429MOL0     H56619   0.659   4.074   5.935 -0.2157  1.2963  3.3227
  429MOL0     H56620   0.670   3.842   6.039  1.3867  0.8909  0.9692
  429MOL0     H56621   0.720   3.824   5.874 -5.0353 -3.6270  2.6508
  429MOL0     H56622   0.849   3.698   6.051 -0.2143  1.0134 -0.0817
  429MOL0     H56623   0.898   3.845   6.114  0.5098 -2.2412  1.3538
  429MOL0     H56624   0.987   3.704   5.854 -0.3853 -0.3209  0.5826
  429MOL0     H56625   0.988   3.883   5.853  0.7950 -1.6370 -1.9115
  429MOL0     H56626   1.333   3.819   6.051  0.4515  0.0946  0.6845
  429MOL0     H56627   0.603   4.280   5.964  0.0859  1.5552  0.3135
  429MOL0     H56628   0.569   4.498   6.076 -1.3923  0.1761  3.7072
  430MOL0     O56629   0.764   9.342   9.650 -0.1303  0.4233 -0.2418
  430MOL0     C56630   0.735   9.227   9.690  0.4773  0.2636  0.3194
  430MOL0     O56631   0.825   9.132   9.744  0.2571 -0.0022 -0.1287
  430MOL0     C56632   0.955   9.174   9.752 -0.4920 -0.3838  0.5150
  430MOL0     C56633   1.030   9.182   9.634  0.0238  0.3519  0.0135
  430MOL0     C56634   1.167   9.209   9.635 -0.8768  0.1798  0.1602
  430MOL0     C56635   1.249   9.217   9.741 -0.7066 -0.0924 -0.1309
  430MOL0     O56636   1.389   9.233   9.753 -0.4076 -0.5973 -0.1892
  430MOL0     C56637   1.451   9.321   9.660 -0.0546  0.2952  0.0995
  430MOL0     C56638   1.507   9.243   9.541  0.0051 -0.3457 -0.1138
  430MOL0     C56639   1.610   9.135   9.595 -0.1009  0.0631  0.5771
  430MOL0     C56640   1.723   9.100   9.498  0.1425 -0.1613 -0.0023
  430MOL0     C56641   1.689   9.041   9.367  0.0908  0.0471  0.1063
  430MOL0     C56642   1.617   8.912   9.380  0.0085  0.1793 -0.1105
  430MOL0     C56643   1.621   8.824   9.251  0.5800 -0.0737  0.1047
  430MOL0     C56644   1.539   8.707   9.275  0.6729 -0.4036  1.0528
  430MOL0     N56645   1.495   8.625   9.155  0.6075 -0.1816  0.6752
  430MOL0     C56646   1.572   8.583   9.044  1.0490 -0.3605 -0.3699
  430MOL0     C56647   1.515   8.468   8.998  0.6388 -0.8033  0.6771
  430MOL0     C56648   1.551   8.382   8.878  0.2814  0.2307 -0.7825
  430MOL0     C56649   1.581   8.241   8.918  0.2066 -0.5024 -0.2662
  430MOL0     C56650   1.635   8.142   8.811 -0.0219  0.4169  0.4020
  430MOL0     C56651   1.769   8.202   8.756 -0.5248 -0.7560 -0.1325
  430MOL0     O56652   1.873   8.207   8.866 -0.2324 -0.8864  0.1191
  430MOL0     C56653   1.987   8.278   8.841 -0.3876  0.0386 -0.5372
  430MOL0     C56654   2.029   8.319   8.711  0.2158 -0.7747  0.1517
  430MOL0     C56655   2.143   8.394   8.704 -0.0253  0.1056 -0.2410
  430MOL0     C56656   2.231   8.418   8.808  0.8676  0.3793  0.0871
  430MOL0     C56657   2.356   8.494   8.784  0.9099 -0.8210 -0.2032
  430MOL0     O56658   2.392   8.525   8.655 -0.1747  0.4858  0.8588
  430MOL0     C56659   2.523   8.523   8.620 -0.7040 -0.0202  0.8215
  430MOL0     C56660   2.543   8.506   8.480  0.1835  0.9315  0.5893
  430MOL0     C56661   2.670   8.491   8.427 -0.9828 -0.9291 -0.0389
  430MOL0     C56662   2.784   8.496   8.508  0.0980 -0.7338  0.7051
  430MOL0     O56663   2.900   8.495   8.443 -0.5195 -0.0136 -0.4084
  430MOL0     C56664   3.041   8.525   8.488  0.0428 -0.8332 -0.7589
  430MOL0     C56665   3.066   8.679   8.511  0.0602  0.2095 -0.2150
  430MOL0     C56666   3.207   8.704   8.571  0.5386  0.3973 -0.2067
  430MOL0     C56667   3.250   8.623   8.697  0.1308 -0.1348  0.5186
  430MOL0     C56668   3.396   8.638   8.735 -0.6124 -0.6574 -0.7346
  430MOL0     C56669   3.439   8.787   8.753  0.6802  0.0189  0.0239
  430MOL0     C56670   3.570   8.802   8.834 -0.0797 -0.4282 -0.1962
  430MOL0     C56671   3.620   8.934   8.871 -0.1500 -0.9751  0.7212
  430MOL0    Cl56672   3.787   8.904   8.944 -0.0499  0.1973  0.1307
  430MOL0     C56673   2.766   8.529   8.644 -0.7444 -0.5399 -0.7167
  430MOL0     C56674   2.640   8.533   8.701  0.2177  0.3115 -0.2536
  430MOL0     O56675   2.406   8.538   8.887 -0.2255  0.4984 -0.2091
  430MOL0     C56676   2.196   8.361   8.934  0.6615 -0.5158 -0.2200
  430MOL0     C56677   2.071   8.298   8.951  0.1502 -0.5675 -0.0163
  430MOL0     N56678   1.400   8.445   9.069 -0.4793  0.7447 -0.2835
  430MOL0     N56679   1.381   8.536   9.158  0.2221  0.0024 -0.5739
  430MOL0     C56680   1.169   9.208   9.863 -0.6404  0.2115  0.4561
  430MOL0     C56681   1.031   9.198   9.867 -0.0371 -0.1513  0.9056
  430MOL0     C56682   0.596   9.193   9.674  0.1776 -0.8028 -1.5133
  430MOL0     C56683   0.518   9.259   9.578  0.9255 -1.2384  0.1558
  430MOL0     C56684   0.385   9.240   9.559  0.0138  0.3105  0.4047
  430MOL0     C56685   0.320   9.168   9.664 -1.8643 -0.4699 -0.2444
  430MOL0     O56686   0.190   9.129   9.674 -0.3928  0.5327 -0.3464
  430MOL0     C56687   0.094   9.206   9.602 -0.4802  0.6188  0.3047
  430MOL0     C56688  -0.048   9.149   9.617  0.4005  0.3605  0.1158
  430MOL0     C56689  -0.043   9.003   9.577  0.5068 -0.2541 -0.3222
  430MOL0     C56690  -0.159   8.983   9.486 -0.1950  0.7655  0.5259
  430MOL0     C56691  -0.172   8.849   9.424  0.2771 -1.0692  0.4470
  430MOL0     C56692  -0.182   8.747   9.367 -0.8109 -0.4610 -0.5434
  430MOL0     C56693   0.391   9.100   9.761 -0.3091  0.5051  0.1755
  430MOL0     C56694   0.535   9.101   9.757  0.4745 -0.8767 -0.3062
  430MOL0     H56695   0.978   9.174   9.539  0.2573  1.7699 -0.2518
  430MOL0     H56696   1.203   9.215   9.533 -2.9345  1.4375 -0.5539
  430MOL0     H56697   1.529   9.371   9.717 -2.2124  2.5161  1.2977
  430MOL0     H56698   1.376   9.394   9.629 -0.2929  0.4462  1.0077
  430MOL0     H56699   1.558   9.321   9.484 -1.3026 -0.1281 -1.0330
  430MOL0     H56700   1.428   9.191   9.485 -1.2774  1.1441  0.2589
  430MOL0     H56701   1.558   9.043   9.623  0.7718 -0.7986 -0.5600
  430MOL0     H56702   1.660   9.177   9.683  1.2380  0.8579 -0.5165
  430MOL0     H56703   1.782   9.188   9.472  0.9881 -0.0491  2.1022
  430MOL0     H56704   1.791   9.026   9.544  0.0272  0.2776  0.9017
  430MOL0     H56705   1.780   9.034   9.306  0.9922 -1.5941  1.5395
  430MOL0     H56706   1.626   9.109   9.308  0.0658 -1.9706 -2.3803
  430MOL0     H56707   1.517   8.917   9.423 -0.8033 -0.7566 -1.8153
  430MOL0     H56708   1.686   8.855   9.444 -0.0152 -3.7602 -3.1876
  430MOL0     H56709   1.575   8.884   9.172  1.4829 -0.4122 -0.6921
  430MOL0     H56710   1.721   8.806   9.212  0.1920 -0.3274 -0.7796
  430MOL0     H56711   1.445   8.744   9.318  1.0952  0.8265  0.9574
  430MOL0     H56712   1.581   8.653   9.361  1.2718  0.0445  1.0503
  430MOL0     H56713   1.666   8.627   9.011  0.3486 -0.3414 -2.4902
  430MOL0     H56714   1.651   8.417   8.850 -0.3983  1.1414 -2.1949
  430MOL0     H56715   1.486   8.381   8.791  2.7018 -0.8588 -2.7011
  430MOL0     H56716   1.487   8.207   8.961 -0.5882  1.7563 -0.0517
  430MOL0     H56717   1.647   8.250   9.005 -0.0238  1.4843 -0.2480
  430MOL0     H56718   1.660   8.038   8.837  0.6804  0.0921 -1.4629
  430MOL0     H56719   1.561   8.134   8.732  0.3838 -1.0415  0.1386
  430MOL0     H56720   1.752   8.302   8.715  1.3729  0.2134  1.2902
  430MOL0     H56721   1.797   8.130   8.679 -1.1490 -4.6101  2.9489
  430MOL0     H56722   1.976   8.287   8.622 -0.6761  0.4837  0.2108
  430MOL0     H56723   2.176   8.425   8.605 -3.2369  1.3398 -1.0440
  430MOL0     H56724   2.462   8.475   8.415  0.6886  1.9630 -0.5661
  430MOL0     H56725   2.679   8.474   8.320 -0.3444 -1.2033  0.0566
  430MOL0     H56726   3.112   8.479   8.419  0.1214 -2.1092  0.1311
  430MOL0     H56727   3.054   8.478   8.586  0.9363  3.1250  1.2618
  430MOL0     H56728   2.996   8.727   8.581 -0.0529  0.7886 -0.7091
  430MOL0     H56729   3.071   8.737   8.418  2.4638  1.3519  0.5448
  430MOL0     H56730   3.215   8.812   8.587  3.8547  0.6563 -2.5936
  430MOL0     H56731   3.269   8.695   8.481 -2.0679  2.1774 -2.3200
  430MOL0     H56732   3.190   8.664   8.779  0.5927 -0.3151  0.9585
  430MOL0     H56733   3.229   8.517   8.679 -3.3632  0.9937 -3.8314
  430MOL0     H56734   3.462   8.577   8.672 -0.2413 -0.9442 -0.0744
  430MOL0     H56735   3.417   8.604   8.837  1.4814  1.1734 -0.4484
  430MOL0     H56736   3.357   8.834   8.809  0.2316 -2.1674  1.3171
  430MOL0     H56737   3.444   8.833   8.654 -0.0665 -2.2249 -1.1287
  430MOL0     H56738   3.564   8.740   8.924  0.0442  0.0265  0.1272
  430MOL0     H56739   3.644   8.763   8.764  1.1221  2.4196 -0.6625
  430MOL0     H56740   3.563   8.991   8.946  1.8255  1.1928  0.7127
  430MOL0     H56741   3.641   8.993   8.781 -0.5224 -1.9482 -0.0151
  430MOL0     H56742   2.846   8.545   8.716 -1.2019  0.2706 -0.3784
  430MOL0     H56743   2.637   8.531   8.809  0.7301 -1.6437 -0.2398
  430MOL0     H56744   2.264   8.378   9.016  1.1637 -2.3024 -0.2104
  430MOL0     H56745   2.042   8.258   9.048 -0.6565 -1.6250 -0.6673
  430MOL0     H56746   1.214   9.221   9.961  1.0775 -3.0261  0.2216
  430MOL0     H56747   0.975   9.198   9.960 -0.9428 -0.0120  0.3667
  430MOL0     H56748   0.558   9.344   9.524  1.2137  1.6558  4.4065
  430MOL0     H56749   0.340   9.286   9.472 -0.9024  1.0506  1.2527
  430MOL0     H56750   0.117   9.206   9.495  1.9119  3.0886  0.6989
  430MOL0     H56751   0.098   9.308   9.641 -2.9105  0.7638  0.3292
  430MOL0     H56752  -0.091   9.157   9.718  0.1739 -2.9148  0.3795
  430MOL0     H56753  -0.103   9.223   9.559  0.8398  2.1793  1.8817
  430MOL0     H56754  -0.067   8.950   9.670  0.2029 -0.1044 -0.3126
  430MOL0     H56755   0.051   8.971   9.531  0.4723  0.4824 -0.9122
  430MOL0     H56756  -0.253   9.004   9.538 -0.7136  1.6906 -0.7256
  430MOL0     H56757  -0.161   9.046   9.396  2.0955  0.1371 -0.0187
  430MOL0     H56758  -0.208   8.649   9.334 -2.5351 -0.4386  0.5991
  430MOL0     H56759   0.345   9.031   9.831  0.8650 -2.0420 -1.4489
  430MOL0     H56760   0.588   9.049   9.836  0.2379 -1.4398 -0.5123
  431MOL0     O56761  11.331   6.210   0.055 -0.3772 -0.0330 -0.1894
  431MOL0     C56762  11.349   6.220   0.177  0.4292  0.0443  0.3186
  431MOL0     O56763  11.437   6.308   0.228  0.0633 -0.1092 -0.0146
  431MOL0     C56764  11.565   6.322   0.185 -0.0403 -0.2022 -0.9308
  431MOL0     C56765  11.636   6.420   0.239 -0.3881  0.2899 -0.7243
  431MOL0     C56766  11.772   6.436   0.206 -0.1590 -0.0647 -0.1587
  431MOL0     C56767  11.841   6.348   0.120  0.3522 -0.0420 -0.0095
  431MOL0     O56768  11.960   6.404   0.078  0.0421 -0.1894 -0.2585
  431MOL0     C56769  12.041   6.315  -0.006 -1.0117 -0.1605 -0.5250
  431MOL0     C56770  12.115   6.212   0.083  0.4193  0.1153 -0.9373
  431MOL0     C56771  12.195   6.273   0.204 -0.0440 -0.1157 -0.5512
  431MOL0     C56772  12.265   6.162   0.290 -0.6528  0.3995 -0.5819
  431MOL0     C56773  12.401   6.210   0.346  0.2258 -1.3480 -0.0965
  431MOL0     C56774  12.512   6.271   0.243  0.0651 -1.0589 -0.6418
  431MOL0     C56775  12.657   6.240   0.300 -0.3085  0.2804  0.6275
  431MOL0     C56776  12.697   6.093   0.316  0.3012 -0.2087 -0.0463
  431MOL0     N56777  12.838   6.076   0.331 -0.6119 -0.6616 -1.0010
  431MOL0     C56778  12.927   6.149   0.400  1.1498 -0.2419 -0.0502
  431MOL0     C56779  13.044   6.080   0.393 -0.6658 -0.5208 -0.4949
  431MOL0     C56780  13.177   6.136   0.436  0.2434 -0.3083  0.3518
  431MOL0     C56781  13.180   6.142   0.593  0.3107  0.5033 -0.4278
  431MOL0     C56782  13.137   6.009   0.648 -0.5823  0.0320 -0.3310
  431MOL0     C56783  13.236   5.900   0.610  0.1011 -0.4241 -0.1296
  431MOL0     O56784  13.189   5.778   0.682 -0.2925  0.5298  1.0134
  431MOL0     C56785  13.276   5.689   0.735  1.7870  0.5459 -0.9813
  431MOL0     C56786  13.213   5.570   0.784  1.2256  0.3237  1.0962
  431MOL0     C56787  13.290   5.472   0.837 -0.1201 -0.1816 -0.1832
  431MOL0     C56788  13.429   5.479   0.837  0.3972  0.0059 -0.2379
  431MOL0     C56789  13.515   5.371   0.897  0.2920 -0.9443 -0.7187
  431MOL0     O56790  13.442   5.263   0.933 -0.3145  0.5370  0.0611
  431MOL0     C56791  13.503   5.149   0.970  0.3982 -0.4111 -0.5564
  431MOL0     C56792  13.467   5.021   0.917  1.0154 -0.4044  1.0295
  431MOL0     C56793  13.543   4.916   0.938 -0.1474  0.2190 -0.5001
  431MOL0     C56794  13.647   4.915   1.037  0.2665 -0.0461  1.3981
  431MOL0     O56795  13.731   4.801   1.048  0.3783 -0.3898 -0.1812
  431MOL0     C56796  13.790   4.752   0.926 -0.8235  0.3845  0.8116
  431MOL0     C56797  13.938   4.723   0.953  1.1408 -0.1027  0.1549
  431MOL0     C56798  13.947   4.614   1.052  0.1690 -0.1258 -0.7209
  431MOL0     C56799  14.091   4.583   1.066 -0.0234 -0.0693 -0.3284
  431MOL0     C56800  14.121   4.490   1.188 -0.3012 -0.6388  0.4107
  431MOL0     C56801  14.058   4.355   1.184 -0.1487  0.3232  0.0643
  431MOL0     C56802  14.078   4.277   1.313 -0.2476 -0.5323 -0.0989
  431MOL0     C56803  14.001   4.333   1.441 -1.0575 -0.6409  0.5484
  431MOL0    Cl56804  13.843   4.369   1.406  0.2264 -0.1295  0.2029
  431MOL0     C56805  13.681   5.036   1.100  0.0963  0.6769 -0.2084
  431MOL0     C56806  13.604   5.152   1.068  0.6661  0.1036 -0.3672
  431MOL0     O56807  13.640   5.378   0.901 -0.1103 -0.2034 -0.2275
  431MOL0     C56808  13.489   5.599   0.788  0.4713  0.8357 -0.0234
  431MOL0     C56809  13.418   5.703   0.728  0.3540  1.0599  0.0314
  431MOL0     N56810  13.023   5.981   0.299  0.4875  1.2769  0.3012
  431MOL0     N56811  12.901   5.968   0.276  0.2620  0.7824  0.3182
  431MOL0     C56812  11.766   6.245   0.070  0.2353  1.3794  0.5177
  431MOL0     C56813  11.632   6.228   0.102 -0.0570 -0.2583  0.1104
  431MOL0     C56814  11.285   6.124   0.276 -0.3242  0.7907 -0.0689
  431MOL0     C56815  11.306   6.137   0.411  0.2537 -0.4094 -0.0082
  431MOL0     C56816  11.254   6.036   0.499 -0.2332  0.2388 -0.1724
  431MOL0     C56817  11.180   5.932   0.452  0.5212 -0.1932 -1.0936
  431MOL0     O56818  11.144   5.847   0.552  0.2667 -0.1518 -0.1953
  431MOL0     C56819  11.018   5.783   0.542 -0.3537  0.1356  0.2570
  431MOL0     C56820  10.923   5.803   0.659  0.8768  0.3946  0.3833
  431MOL0     C56821  10.947   5.714   0.785  0.4300 -0.8401 -0.2517
  431MOL0     C56822  11.050   5.591   0.763 -0.3211 -0.6379  0.4011
  431MOL0     C56823  11.080   5.535   0.889 -0.0224 -0.1675 -0.3060
  431MOL0     C56824  11.090   5.491   1.004  0.0915 -0.2930  0.0139
  431MOL0     C56825  11.144   5.928   0.325  1.0445 -0.2756  0.6405
  431MOL0     C56826  11.197   6.021   0.235 -0.4717 -0.0445  0.5744
  431MOL0     H56827  11.582   6.484   0.309 -2.6400 -3.1029  0.9028
  431MOL0     H56828  11.836   6.508   0.257 -0.2222 -0.2915  0.2432
  431MOL0     H56829  12.118   6.382  -0.044 -1.4575  2.5467  2.8917
  431MOL0     H56830  11.980   6.258  -0.077 -0.5224 -0.6979 -0.5235
  431MOL0     H56831  12.163   6.140   0.016 -2.2398 -0.2546 -2.6076
  431MOL0     H56832  12.027   6.157   0.118  1.0873 -0.0744  0.5011
  431MOL0     H56833  12.133   6.337   0.267  0.1726  0.1818 -0.6382
  431MOL0     H56834  12.258   6.343   0.150  0.1138  0.1557 -0.0216
  431MOL0     H56835  12.201   6.140   0.375 -2.7004  0.2487 -2.0933
  431MOL0     H56836  12.279   6.071   0.230 -1.4098  1.0627 -1.8198
  431MOL0     H56837  12.457   6.128   0.392 -0.8890 -3.3002 -2.0408
  431MOL0     H56838  12.387   6.281   0.428 -0.9744 -2.2422  0.5279
  431MOL0     H56839  12.499   6.379   0.255  1.2345 -0.6893 -2.3958
  431MOL0     H56840  12.487   6.254   0.138 -2.1712  5.1783 -1.5659
  431MOL0     H56841  12.729   6.291   0.236 -1.1780  1.4824  0.5598
  431MOL0     H56842  12.667   6.278   0.402  1.4409 -0.7256  0.8667
  431MOL0     H56843  12.662   6.035   0.231  0.3935 -0.3259 -0.0035
  431MOL0     H56844  12.648   6.038   0.396 -1.0114 -2.1268 -2.0556
  431MOL0     H56845  12.894   6.230   0.464  1.3619  1.1863 -1.6832
  431MOL0     H56846  13.199   6.237   0.399 -0.4074  0.0616  0.9566
  431MOL0     H56847  13.252   6.066   0.397  1.8301  0.7083  1.4258
  431MOL0     H56848  13.114   6.222   0.627 -0.4849 -0.3185  0.0164
  431MOL0     H56849  13.271   6.176   0.644 -1.8512 -1.6145  5.7903
  431MOL0     H56850  13.136   6.022   0.757  0.9009  1.2896 -0.4398
  431MOL0     H56851  13.037   5.979   0.616 -1.0596  0.6776  0.5306
  431MOL0     H56852  13.334   5.936   0.642 -0.4007  1.9386 -0.9708
  431MOL0     H56853  13.238   5.881   0.503  1.1075  1.5094 -0.4933
  431MOL0     H56854  13.105   5.559   0.782  1.0524  1.9607  0.3158
  431MOL0     H56855  13.241   5.383   0.876  0.3064 -0.4174 -0.1748
  431MOL0     H56856  13.381   5.017   0.852  0.4866 -0.5390  1.7256
  431MOL0     H56857  13.522   4.819   0.894 -2.4453  0.8495 -0.9013
  431MOL0     H56858  13.790   4.810   0.833 -1.6644  2.5149  2.0772
  431MOL0     H56859  13.730   4.663   0.904 -0.8876 -0.0900  2.7164
  431MOL0     H56860  13.989   4.815   0.982  1.3694  0.2642 -1.3254
  431MOL0     H56861  13.986   4.686   0.862  1.9889 -4.1416  2.0106
  431MOL0     H56862  13.894   4.522   1.025 -2.2966  0.1165  2.6539
  431MOL0     H56863  13.916   4.657   1.148  0.0048 -0.0049 -0.8284
  431MOL0     H56864  14.128   4.536   0.975  3.9160  0.8023  0.6313
  431MOL0     H56865  14.146   4.674   1.092  1.7450 -0.6254 -1.9468
  431MOL0     H56866  14.082   4.542   1.276  0.6705  2.6773 -0.9570
  431MOL0     H56867  14.230   4.489   1.197  0.2724 -0.8454 -4.1768
  431MOL0     H56868  14.115   4.305   1.105 -1.7125  0.2278 -1.0446
  431MOL0     H56869  13.952   4.354   1.158 -0.1915  0.3372  0.2348
  431MOL0     H56870  14.041   4.175   1.295 -0.2805 -0.5822  0.2461
  431MOL0     H56871  14.187   4.272   1.314 -0.1772  0.8093  0.5960
  431MOL0     H56872  14.049   4.421   1.486  1.6173 -1.1780 -1.0273
  431MOL0     H56873  13.991   4.258   1.520 -2.1576 -1.6104 -0.4619
  431MOL0     H56874  13.747   5.047   1.186  3.8262 -1.1242 -2.5846
  431MOL0     H56875  13.620   5.240   1.129 -0.2521 -2.0570  3.2552
  431MOL0     H56876  13.596   5.616   0.799  0.4004  0.3058  1.9077
  431MOL0     H56877  13.469   5.787   0.682 -2.8061  3.1330  0.0254
  431MOL0     H56878  11.799   6.169   0.000 -3.3098 -1.2139  1.3641
  431MOL0     H56879  11.588   6.139   0.061  0.3559  0.7478 -2.7177
  431MOL0     H56880  11.383   6.202   0.451  0.0912  0.5998 -1.2737
  431MOL0     H56881  11.276   6.035   0.605 -2.2745 -1.8712  0.3102
  431MOL0     H56882  11.032   5.677   0.519  1.1290  0.6363 -1.4794
  431MOL0     H56883  10.970   5.823   0.452 -2.1942 -0.8807  0.7316
  431MOL0     H56884  10.911   5.906   0.692 -1.0591  0.9295 -1.7468
  431MOL0     H56885  10.824   5.776   0.622  1.2488 -0.5975  0.0690
  431MOL0     H56886  10.855   5.682   0.835 -1.2541  2.6058 -0.8769
  431MOL0     H56887  10.993   5.772   0.866 -0.8770 -1.5808  1.0663
  431MOL0     H56888  10.999   5.514   0.704  1.4171 -0.8015 -0.9614
  431MOL0     H56889  11.138   5.619   0.704 -1.8954 -1.1018 -2.3382
  431MOL0     H56890  11.105   5.460   1.105  4.7403  0.7507 -0.1125
  431MOL0     H56891  11.087   5.850   0.275  2.3381 -0.8694  0.0596
  431MOL0     H56892  11.164   6.020   0.132  2.9373 -0.2505 -0.6191
  432MOL0     O56893   4.392  11.164  11.252 -1.0160 -0.0947 -0.7553
  432MOL0     C56894   4.294  11.102  11.218  0.2004  0.7824 -0.3896
  432MOL0     O56895   4.259  10.973  11.260 -0.4818 -0.5419  0.2217
  432MOL0     C56896   4.338  10.921  11.359 -0.3306  0.1604  0.4500
  432MOL0     C56897   4.305  10.928  11.499  0.1405 -0.4393  0.2728
  432MOL0     C56898   4.378  10.862  11.590 -0.6595 -0.3696  0.0062
  432MOL0     C56899   4.505  10.794  11.556 -0.0306 -0.1058  0.4014
  432MOL0     O56900   4.584  10.730  11.648 -0.6599  0.1930  0.5809
  432MOL0     C56901   4.565  10.745  11.791  0.5675 -0.2241  0.7337
  432MOL0     C56902   4.706  10.744  11.844 -0.2149  0.4598 -1.3516
  432MOL0     C56903   4.762  10.607  11.875 -0.2417  0.8218 -0.3126
  432MOL0     C56904   4.909  10.625  11.929  0.0233  0.4066 -0.5737
  432MOL0     C56905   4.957  10.478  11.940  0.4330  0.8188  0.1584
  432MOL0     C56906   5.099  10.470  11.996 -0.5025  0.3017  0.1516
  432MOL0     C56907   5.162  10.325  11.984 -0.4840  0.8164 -0.4668
  432MOL0     C56908   5.115  10.232  12.093  0.1639  0.4172 -0.7018
  432MOL0     N56909   5.175  10.093  12.088  0.3969  0.0136 -0.1130
  432MOL0     C56910   5.099   9.983  12.107 -0.5922 -0.7502 -0.2177
  432MOL0     C56911   5.192   9.880  12.104  0.0463 -0.5711  0.6571
  432MOL0     C56912   5.172   9.730  12.121  0.8717 -0.3942  0.3353
  432MOL0     C56913   5.299   9.659  12.170 -0.7511 -0.5982 -0.8192
  432MOL0     C56914   5.365   9.575  12.063 -1.3005  0.7821  1.2982
  432MOL0     C56915   5.494   9.490  12.108 -0.1460 -0.3235 -0.4693
  432MOL0     O56916   5.473   9.399  12.216 -0.3352 -0.6312 -0.5927
  432MOL0     C56917   5.588   9.337  12.266  0.0348 -0.0051 -0.4692
  432MOL0     C56918   5.721   9.361  12.234  0.4364 -1.3158  0.6355
  432MOL0     C56919   5.826   9.319  12.311  0.3622  0.4569 -1.0684
  432MOL0     C56920   5.796   9.215  12.407  0.9801 -0.4667  0.0051
  432MOL0     C56921   5.896   9.157  12.494 -0.5673 -0.0125 -1.4797
  432MOL0     O56922   5.861   9.065  12.590  0.4529  0.0076 -0.1755
  432MOL0     C56923   5.961   9.029  12.683  0.3852 -0.2109 -0.1968
  432MOL0     C56924   6.028   9.115  12.772 -0.6238 -0.3971  0.5284
  432MOL0     C56925   6.132   9.069  12.863 -0.0170 -0.3572 -0.7921
  432MOL0     C56926   6.155   8.924  12.862 -0.1089 -0.4862  0.6285
  432MOL0     O56927   6.253   8.875  12.936  0.2159  0.6198 -0.9589
  432MOL0     C56928   6.218   8.846  13.083 -0.6921  0.4061  0.1919
  432MOL0     C56929   6.275   8.950  13.166 -0.9595 -0.0771 -0.6871
  432MOL0     C56930   6.425   8.965  13.151  0.0797  0.7056 -0.9355
  432MOL0     C56931   6.498   8.829  13.188  0.0118 -0.0880  0.2681
  432MOL0     C56932   6.648   8.858  13.196 -0.4668 -0.0453 -0.5660
  432MOL0     C56933   6.729   8.748  13.127  0.3503  0.3238 -0.1786
  432MOL0     C56934   6.873   8.804  13.081  1.2613 -0.1362 -0.5327
  432MOL0     C56935   6.965   8.715  13.000  0.2449 -0.2199  0.2922
  432MOL0    Cl56936   6.995   8.565  13.082 -0.2034 -0.3254  0.3323
  432MOL0     C56937   6.081   8.837  12.783  0.7184  0.4620  0.5255
  432MOL0     C56938   5.982   8.893  12.697  0.1821 -0.4060  0.3934
  432MOL0     O56939   6.007   9.187  12.461 -0.5731 -0.2155 -0.6285
  432MOL0     C56940   5.663   9.187  12.432  1.3583 -0.3590 -0.5997
  432MOL0     C56941   5.561   9.245  12.368 -0.2688 -1.0170  1.0694
  432MOL0     N56942   5.315   9.936  12.075  0.5945  0.1480 -0.2489
  432MOL0     N56943   5.300  10.060  12.064 -0.1949  0.4041  0.5796
  432MOL0     C56944   4.541  10.790  11.419  0.1801  0.2168 -0.8295
  432MOL0     C56945   4.453  10.846  11.326 -0.5623 -0.3887 -0.0205
  432MOL0     C56946   4.204  11.167  11.122 -0.0599 -0.0174  0.1431
  432MOL0     C56947   4.085  11.111  11.080 -0.9670 -0.4154  0.0186
  432MOL0     C56948   4.013  11.178  10.977  0.0126 -0.0702 -0.2968
  432MOL0     C56949   4.059  11.294  10.922 -0.4035  0.1673  0.3687
  432MOL0     O56950   3.978  11.363  10.828  0.1468 -0.3547 -0.6618
  432MOL0     C56951   3.854  11.400  10.876 -0.6765 -0.6645 -0.1064
  432MOL0     C56952   3.813  11.521  10.778 -0.4084 -0.2150 -0.4024
  432MOL0     C56953   3.673  11.574  10.801  0.1204 -0.5901 -0.2120
  432MOL0     C56954   3.641  11.681  10.710  0.9254  0.5576  0.3328
  432MOL0     C56955   3.728  11.798  10.712 -0.7363 -0.0490 -0.7277
  432MOL0     C56956   3.804  11.892  10.701  0.6824 -0.4756  1.0262
  432MOL0     C56957   4.169  11.356  10.975  0.9992 -0.1604 -0.3492
  432MOL0     C56958   4.237  11.290  11.070 -0.5762 -0.0483 -0.6635
  432MOL0     H56959   4.211  10.971  11.532  1.0255  1.2069  0.7850
  432MOL0     H56960   4.349  10.859  11.695 -0.0745 -1.4808  0.1536
  432MOL0     H56961   4.509  10.663  11.836  0.6680  0.2535  1.7638
  432MOL0     H56962   4.516  10.839  11.820  2.4004  2.3777 -3.6057
  432MOL0     H56963   4.693  10.801  11.936  2.2536 -1.4394  0.2907
  432MOL0     H56964   4.770  10.794  11.770 -2.8686  0.3144 -3.9357
  432MOL0     H56965   4.764  10.547  11.783  1.7816 -1.3783  1.0410
  432MOL0     H56966   4.702  10.549  11.946 -0.6953  1.8088  0.1254
  432MOL0     H56967   4.966  10.680  11.854 -0.1720  3.2021  1.1878
  432MOL0     H56968   4.899  10.671  12.028 -3.5263 -2.8077  0.7904
  432MOL0     H56969   4.930  10.419  11.852 -0.0276  2.2071 -0.6576
  432MOL0     H56970   4.903  10.427  12.020  1.1876 -2.3345 -1.1728
  432MOL0     H56971   5.099  10.512  12.098 -0.7405 -0.7621  0.6053
  432MOL0     H56972   5.167  10.532  11.936 -1.4798  0.8660 -0.3981
  432MOL0     H56973   5.120  10.286  11.891  0.4437  0.2369 -0.6625
  432MOL0     H56974   5.272  10.329  11.985 -0.2794 -1.7729  1.9674
  432MOL0     H56975   5.007  10.215  12.094  0.4056 -1.4315 -1.1981
  432MOL0     H56976   5.152  10.274  12.187  1.0132 -1.6618 -0.0413
  432MOL0     H56977   4.993   9.980  12.128 -0.5373 -1.2480  0.0057
  432MOL0     H56978   5.144   9.683  12.026  0.4229  0.8821 -0.1982
  432MOL0     H56979   5.096   9.728  12.200 -0.9680  0.6480 -1.3022
  432MOL0     H56980   5.261   9.597  12.252 -0.8663  0.8348  0.2672
  432MOL0     H56981   5.378   9.725  12.208 -0.2310 -2.2971  1.2357
  432MOL0     H56982   5.288   9.506  12.026  1.5688 -2.0575  0.1395
  432MOL0     H56983   5.405   9.628  11.975  2.7669 -1.6207  1.4664
  432MOL0     H56984   5.583   9.552  12.124  0.6106 -0.8817 -2.2480
  432MOL0     H56985   5.518   9.416  12.031  0.5529 -1.6980  1.0032
  432MOL0     H56986   5.759   9.426  12.156  2.1387 -0.9677  1.6851
  432MOL0     H56987   5.929   9.339  12.285 -0.1650  2.5487 -1.7640
  432MOL0     H56988   5.993   9.218  12.773  0.0376 -0.0033 -3.2832
  432MOL0     H56989   6.200   9.133  12.919 -0.0249 -1.9424  1.1471
  432MOL0     H56990   6.260   8.749  13.111  2.0234  1.7246  1.0505
  432MOL0     H56991   6.109   8.840  13.095 -0.5237 -2.6529  0.9904
  432MOL0     H56992   6.246   8.933  13.270  1.2164 -0.0676 -0.0387
  432MOL0     H56993   6.232   9.047  13.139 -3.1770 -0.8084 -0.0184
  432MOL0     H56994   6.456   9.044  13.221  1.9214  0.0987 -1.0202
  432MOL0     H56995   6.451   8.983  13.047 -0.3473 -2.0293 -1.5926
  432MOL0     H56996   6.461   8.805  13.288  1.2479  0.1457  0.8026
  432MOL0     H56997   6.474   8.749  13.118 -1.7202  0.1129  0.5892
  432MOL0     H56998   6.685   8.873  13.298 -1.0311 -1.4630 -0.1280
  432MOL0     H56999   6.674   8.955  13.151  1.6994 -0.4320 -0.2475
  432MOL0     H57000   6.676   8.722  13.035 -0.4983 -1.9501  0.8749
  432MOL0     H57001   6.741   8.663  13.194  0.2861 -1.9211 -2.8421
  432MOL0     H57002   6.851   8.891  13.018  3.5237 -0.3055 -1.6648
  432MOL0     H57003   6.925   8.852  13.164 -1.4144  2.7677 -0.3302
  432MOL0     H57004   7.060   8.765  12.978  0.4925  0.8878  3.3054
  432MOL0     H57005   6.916   8.704  12.903  0.5634  1.0498 -0.0380
  432MOL0     H57006   6.097   8.730  12.792  0.1228  0.5487  3.9799
  432MOL0     H57007   5.932   8.827  12.626  2.4053 -1.6365 -0.1014
  432MOL0     H57008   5.649   9.110  12.508  0.9830 -0.1909 -0.4967
  432MOL0     H57009   5.457   9.226  12.392 -1.1150 -2.8886 -3.1745
  432MOL0     H57010   4.627  10.731  11.389 -1.0787 -1.7930 -0.7547
  432MOL0     H57011   4.491  10.846  11.224 -0.2987  3.3849 -0.0471
  432MOL0     H57012   4.032  11.034  11.136 -0.5568 -0.3727  0.4742
  432MOL0     H57013   3.922  11.133  10.940 -0.4179  0.2453  0.3607
  432MOL0     H57014   3.851  11.445  10.975  1.5526 -2.9735  1.1354
  432MOL0     H57015   3.779  11.321  10.876 -2.1178  0.6259  1.3635
  432MOL0     H57016   3.890  11.596  10.797  0.3848 -1.4461  1.5350
  432MOL0     H57017   3.824  11.489  10.674  1.9478 -1.5589  0.2167
  432MOL0     H57018   3.655  11.593  10.908 -0.4176 -1.6620 -0.0966
  432MOL0     H57019   3.604  11.493  10.777 -1.8431 -0.1787  3.3199
  432MOL0     H57020   3.655  11.649  10.606  1.6619 -0.7033  0.8004
  432MOL0     H57021   3.539  11.715  10.729  1.1391  1.1124  0.5133
  432MOL0     H57022   3.883  11.965  10.699  0.3691  0.0686  4.0396
  432MOL0     H57023   4.191  11.452  10.929 -2.6078  1.1608  0.3909
  432MOL0     H57024   4.327  11.333  11.112 -1.9031  2.5095 -0.2686
  433MOL0     O57025   3.633   6.883   4.646  0.5444 -1.0592 -0.3565
  433MOL0     C57026   3.702   6.798   4.702 -0.2902  0.5069 -0.0658
  433MOL0     O57027   3.698   6.774   4.841  0.4275  0.0941 -0.4048
  433MOL0     C57028   3.602   6.827   4.926 -0.0577 -0.2304  0.6299
  433MOL0     C57029   3.468   6.857   4.895  0.2851 -0.3527 -0.1556
  433MOL0     C57030   3.385   6.915   4.994  0.1376 -0.4136 -0.7306
  433MOL0     C57031   3.435   6.927   5.124 -0.4368 -0.0415 -0.0272
  433MOL0     O57032   3.372   6.999   5.220  0.1496  0.4720 -0.4052
  433MOL0     C57033   3.227   6.973   5.223 -0.1527  0.3307  0.2643
  433MOL0     C57034   3.151   7.034   5.341 -0.7184  0.2870 -0.0384
  433MOL0     C57035   3.185   6.943   5.470 -0.3663  0.1515 -0.4321
  433MOL0     C57036   3.082   6.985   5.577  0.3747  0.1136 -0.2126
  433MOL0     C57037   3.075   6.886   5.686  0.2421  0.6142 -0.3786
  433MOL0     C57038   3.189   6.881   5.793  0.1229  0.0511  0.1328
  433MOL0     C57039   3.153   6.763   5.890 -1.2268  0.3514 -0.8821
  433MOL0     C57040   3.216   6.629   5.849 -0.0922  0.2934  0.3428
  433MOL0     N57041   3.355   6.604   5.868 -0.3034 -0.3386 -0.8376
  433MOL0     C57042   3.449   6.609   5.773  0.2787 -0.2840 -0.5283
  433MOL0     C57043   3.562   6.557   5.842 -0.8674 -0.0139 -0.4739
  433MOL0     C57044   3.701   6.523   5.793  1.2367 -0.0044  0.4332
  433MOL0     C57045   3.797   6.630   5.755 -0.2038  0.2526 -0.4627
  433MOL0     C57046   3.798   6.723   5.876  0.0186 -0.6282 -0.0635
  433MOL0     C57047   3.921   6.814   5.878  0.0589 -0.5222 -0.6281
  433MOL0     O57048   4.035   6.726   5.906  0.5903  0.0985 -0.4373
  433MOL0     C57049   4.107   6.770   6.012 -0.1708 -0.2860 -0.6808
  433MOL0     C57050   4.089   6.720   6.139 -0.9447 -1.1963 -0.2883
  433MOL0     C57051   4.176   6.772   6.245  0.1564 -0.2918  0.3064
  433MOL0     C57052   4.261   6.880   6.215 -0.1351 -0.1526 -0.5920
  433MOL0     C57053   4.330   6.937   6.328 -0.6496  0.5260 -0.0929
  433MOL0     O57054   4.427   7.030   6.294 -0.1065 -0.0146 -0.4543
  433MOL0     C57055   4.510   7.063   6.392  0.2460 -0.2777 -0.9407
  433MOL0     C57056   4.605   6.961   6.431 -0.1329  0.1967 -0.3280
  433MOL0     C57057   4.702   6.998   6.521 -0.4413  1.3320  0.4535
  433MOL0     C57058   4.698   7.125   6.574 -0.8884 -0.2261 -0.2883
  433MOL0     O57059   4.799   7.157   6.660  0.1162 -0.6579  0.2966
  433MOL0     C57060   4.830   7.301   6.689  0.3599 -0.5402 -0.1739
  433MOL0     C57061   4.969   7.310   6.743  0.5360 -0.0196  0.3124
  433MOL0     C57062   5.000   7.449   6.782  0.2705  0.1998 -0.7739
  433MOL0     C57063   4.930   7.496   6.915 -0.6224 -0.2088 -0.8969
  433MOL0     C57064   4.849   7.621   6.891 -0.7540 -0.2610 -1.1384
  433MOL0     C57065   4.762   7.658   7.017  0.0869 -0.8375 -0.2196
  433MOL0     C57066   4.831   7.664   7.157 -0.6950 -0.9255  0.2490
  433MOL0     C57067   4.765   7.736   7.275  0.1931 -0.4959  0.5269
  433MOL0    Cl57068   4.883   7.711   7.407  0.6440  0.5490 -0.1544
  433MOL0     C57069   4.600   7.221   6.544  0.5562  0.5122 -0.2661
  433MOL0     C57070   4.501   7.189   6.446 -1.0119 -0.1909  0.0294
  433MOL0     O57071   4.306   6.894   6.442 -0.4084  0.1389  0.4971
  433MOL0     C57072   4.276   6.926   6.084  0.2337 -0.6982 -0.4255
  433MOL0     C57073   4.196   6.873   5.984  0.6150  0.0102  0.8738
  433MOL0     N57074   3.520   6.519   5.972 -0.2075  0.1888 -0.4970
  433MOL0     N57075   3.398   6.559   5.986  0.0808 -0.2605  0.1567
  433MOL0     C57076   3.569   6.894   5.153 -0.0981  0.2386 -0.3774
  433MOL0     C57077   3.658   6.853   5.055  0.3431 -0.0087 -0.3597
  433MOL0     C57078   3.797   6.727   4.616  0.0856 -1.3862 -0.4195
  433MOL0     C57079   3.833   6.761   4.488 -0.5471 -0.3010  0.3923
  433MOL0     C57080   3.946   6.704   4.423 -0.3707 -0.2810 -0.0146
  433MOL0     C57081   4.026   6.610   4.488  0.5242 -0.4801 -0.7810
  433MOL0     O57082   4.142   6.575   4.428 -0.4986  0.3794 -0.4427
  433MOL0     C57083   4.236   6.485   4.489 -0.2435 -0.3449 -0.1901
  433MOL0     C57084   4.382   6.537   4.490 -0.1426  0.1028 -0.3340
  433MOL0     C57085   4.440   6.579   4.349 -0.1453  0.4148 -0.7628
  433MOL0     C57086   4.461   6.453   4.257  0.4036  0.4506  0.4404
  433MOL0     C57087   4.539   6.495   4.136 -0.3518  0.0665  0.8144
  433MOL0     C57088   4.615   6.532   4.040 -0.0243 -0.3760  0.1059
  433MOL0     C57089   3.982   6.559   4.614  0.1697 -0.6500 -0.2412
  433MOL0     C57090   3.876   6.624   4.676  0.4906  0.0394 -0.1627
  433MOL0     H57091   3.434   6.837   4.794  4.7405 -0.1085 -1.9474
  433MOL0     H57092   3.286   6.946   4.962 -0.6648  0.5216  2.3562
  433MOL0     H57093   3.201   6.867   5.218 -0.5141  0.4226  0.1352
  433MOL0     H57094   3.188   7.023   5.134  0.9728  1.4736  0.3798
  433MOL0     H57095   3.045   7.043   5.315 -1.7920  0.0656  3.7728
  433MOL0     H57096   3.173   7.137   5.372  0.3201 -0.2667  1.1598
  433MOL0     H57097   3.291   6.963   5.493  0.3914  1.3754 -4.2254
  433MOL0     H57098   3.181   6.839   5.437  3.1862  0.1772 -1.4030
  433MOL0     H57099   3.104   7.087   5.610  1.1656 -1.1867  3.9252
  433MOL0     H57100   2.982   6.987   5.532 -0.8820  0.6488  2.4105
  433MOL0     H57101   3.074   6.786   5.643  0.3762 -0.1309  1.2932
  433MOL0     H57102   2.977   6.897   5.734  0.3467 -2.1014  0.6530
  433MOL0     H57103   3.175   6.978   5.842  0.2750  0.6015 -0.8823
  433MOL0     H57104   3.288   6.876   5.747 -0.4735  1.4528 -1.3894
  433MOL0     H57105   3.206   6.809   5.973  0.4418 -0.4242 -1.4727
  433MOL0     H57106   3.046   6.752   5.911 -0.9729  0.1975  0.4307
  433MOL0     H57107   3.186   6.606   5.746 -0.4118  0.7139  0.3401
  433MOL0     H57108   3.165   6.557   5.914  1.1532  0.1324  1.1880
  433MOL0     H57109   3.426   6.638   5.671 -2.5698 -1.3842 -0.2935
  433MOL0     H57110   3.699   6.453   5.709 -3.6179  3.0998 -2.5829
  433MOL0     H57111   3.756   6.481   5.877  0.5849 -0.4652  0.6396
  433MOL0     H57112   3.766   6.683   5.665 -3.4663 -0.0187  0.3635
  433MOL0     H57113   3.896   6.585   5.741  1.2104  2.1809  2.3406
  433MOL0     H57114   3.706   6.781   5.883 -0.1204 -0.2580 -3.4800
  433MOL0     H57115   3.802   6.677   5.975 -1.5337  1.6283  1.1390
  433MOL0     H57116   3.891   6.896   5.945  0.0746 -1.6818  0.8490
  433MOL0     H57117   3.935   6.850   5.776 -0.9783 -2.1395 -1.3800
  433MOL0     H57118   4.012   6.648   6.165  0.2934 -3.2108 -1.9172
  433MOL0     H57119   4.169   6.741   6.349 -0.1393 -0.8731  0.1174
  433MOL0     H57120   4.616   6.859   6.398  2.3053  0.9599 -2.1284
  433MOL0     H57121   4.781   6.929   6.548 -1.7154 -1.1001 -1.7146
  433MOL0     H57122   4.776   7.320   6.781 -0.3338  1.2047 -0.9102
  433MOL0     H57123   4.804   7.372   6.611 -1.4406 -1.4610 -0.4622
  433MOL0     H57124   5.041   7.264   6.674 -0.5976 -0.9559 -0.2783
  433MOL0     H57125   4.973   7.255   6.837 -0.2343  2.6398  1.9908
  433MOL0     H57126   4.987   7.514   6.695  1.6846 -2.5009 -3.1666
  433MOL0     H57127   5.109   7.445   6.797  0.2143  0.1228 -0.3841
  433MOL0     H57128   4.863   7.421   6.958 -0.1504  0.9144  2.0098
  433MOL0     H57129   5.003   7.521   6.992 -1.2784  0.3872 -0.4620
  433MOL0     H57130   4.778   7.619   6.808 -0.9484  2.4280 -1.1557
  433MOL0     H57131   4.903   7.715   6.879  0.5263 -0.5411  1.7112
  433MOL0     H57132   4.675   7.592   7.025 -1.3928  1.0241 -0.4220
  433MOL0     H57133   4.721   7.755   6.989  5.2753  0.8123 -3.4444
  433MOL0     H57134   4.855   7.562   7.188  0.1624 -1.1312 -1.0393
  433MOL0     H57135   4.926   7.717   7.151  0.0098 -2.2824 -1.4240
  433MOL0     H57136   4.668   7.688   7.290 -0.0885 -0.1572 -0.1503
  433MOL0     H57137   4.746   7.843   7.265 -1.2716 -0.8056 -0.2729
  433MOL0     H57138   4.579   7.314   6.596 -2.7244  0.2527 -0.8688
  433MOL0     H57139   4.431   7.258   6.398 -0.2861 -0.3417 -1.2764
  433MOL0     H57140   4.352   7.001   6.061 -1.6827  3.2021  4.1285
  433MOL0     H57141   4.212   6.920   5.887 -0.7516 -0.8938  0.1803
  433MOL0     H57142   3.598   6.912   5.256 -1.9041 -2.2933  0.6711
  433MOL0     H57143   3.763   6.827   5.068  0.7810  0.9030 -1.9061
  433MOL0     H57144   3.767   6.826   4.432 -0.5212  1.0898  1.8854
  433MOL0     H57145   3.988   6.745   4.332  1.5086  1.4250  1.5383
  433MOL0     H57146   4.231   6.400   4.420  1.8021 -2.0313  1.5750
  433MOL0     H57147   4.220   6.456   4.593  1.3175 -1.7556 -0.3146
  433MOL0     H57148   4.387   6.623   4.558  0.4976  0.5043 -0.8687
  433MOL0     H57149   4.438   6.457   4.539  0.2082 -0.5717 -1.7683
  433MOL0     H57150   4.528   6.643   4.360 -1.4213  2.6170 -2.3949
  433MOL0     H57151   4.373   6.655   4.307  1.1990  1.5693 -0.8857
  433MOL0     H57152   4.525   6.379   4.307  1.0043  1.1157  0.6700
  433MOL0     H57153   4.366   6.410   4.224  0.0676 -0.4686  2.4461
  433MOL0     H57154   4.673   6.573   3.960 -0.7557  0.2448 -0.1155
  433MOL0     H57155   4.032   6.475   4.661  1.8131  0.6170  0.3843
  433MOL0     H57156   3.844   6.579   4.769 -1.3518 -4.2141 -2.5767
  434MOL0     O57157   9.037   1.117   2.523 -0.7426 -0.3876  0.4597
  434MOL0     C57158   8.994   1.230   2.553  0.4740  0.3054  0.1284
  434MOL0     O57159   8.866   1.257   2.555  0.6048  0.3252  0.7693
  434MOL0     C57160   8.783   1.185   2.475 -0.8105  1.5976 -0.4176
  434MOL0     C57161   8.800   1.172   2.337  0.3698  0.5601 -0.1792
  434MOL0     C57162   8.717   1.080   2.270  0.1738  0.3884  1.1657
  434MOL0     C57163   8.607   1.007   2.326  0.5781 -0.0508 -0.6667
  434MOL0     O57164   8.520   0.911   2.280  0.2791  0.1147 -0.4721
  434MOL0     C57165   8.550   0.868   2.150  0.1556 -0.9700  0.1349
  434MOL0     C57166   8.472   0.737   2.135 -0.6607 -0.4759  0.0381
  434MOL0     C57167   8.540   0.622   2.206 -1.5260 -1.1519 -0.8384
  434MOL0     C57168   8.458   0.502   2.209  0.4752  0.1727 -0.1852
  434MOL0     C57169   8.544   0.380   2.264 -0.4416 -1.2124 -0.1078
  434MOL0     C57170   8.469   0.244   2.286 -0.5226  0.5381 -1.4073
  434MOL0     C57171   8.339   0.254   2.361  1.4150  0.0370 -0.3929
  434MOL0     C57172   8.242   0.152   2.308  0.0098  0.0502 -0.0892
  434MOL0     N57173   8.119   0.189   2.371 -0.0325  0.4346  0.3545
  434MOL0     C57174   8.069   0.141   2.491  0.0416  0.0559 -0.2153
  434MOL0     C57175   7.941   0.193   2.498 -0.7072  0.3449  0.5492
  434MOL0     C57176   7.841   0.175   2.617 -0.6356  0.3846  1.5662
  434MOL0     C57177   7.733   0.291   2.635 -0.5495 -1.1144 -0.2595
  434MOL0     C57178   7.789   0.433   2.685 -0.2939 -1.2499 -0.3639
  434MOL0     C57179   7.710   0.549   2.620 -0.9793  0.6241  0.0756
  434MOL0     O57180   7.585   0.579   2.690  0.6304  0.2225 -0.7718
  434MOL0     C57181   7.521   0.697   2.681  1.7893 -0.6076  0.9252
  434MOL0     C57182   7.474   0.764   2.787 -0.6203  0.0334 -1.6186
  434MOL0     C57183   7.415   0.895   2.788  0.5527  0.7943 -0.3211
  434MOL0     C57184   7.384   0.951   2.660 -0.7213  0.8078  0.5928
  434MOL0     C57185   7.306   1.076   2.636  0.3061  0.1075  0.2221
  434MOL0     O57186   7.299   1.135   2.511  0.6505 -0.0479  0.3942
  434MOL0     C57187   7.198   1.222   2.492  0.0145 -0.6643  0.0084
  434MOL0     C57188   7.178   1.337   2.577 -0.8820  0.0329  0.7368
  434MOL0     C57189   7.073   1.423   2.548  0.0571 -0.5985  1.4162
  434MOL0     C57190   6.992   1.400   2.438 -0.5489 -0.8691  0.2300
  434MOL0     O57191   6.894   1.489   2.405  1.1579 -0.6607  0.1963
  434MOL0     C57192   6.827   1.483   2.275  0.0040  0.5012 -0.5749
  434MOL0     C57193   6.726   1.600   2.282 -0.1447  0.4073  0.3452
  434MOL0     C57194   6.784   1.736   2.248  0.4500 -0.5055  0.4428
  434MOL0     C57195   6.675   1.842   2.297 -0.6341  0.0170  0.0382
  434MOL0     C57196   6.736   1.983   2.327  0.0423  0.0647 -0.4324
  434MOL0     C57197   6.819   2.055   2.219 -0.3975 -0.6909 -0.3510
  434MOL0     C57198   6.730   2.095   2.096 -0.3372 -0.0394  0.3784
  434MOL0     C57199   6.778   2.200   1.994 -0.0883 -0.0196  0.0057
  434MOL0    Cl57200   6.658   2.222   1.857  0.4865 -0.2746 -0.4441
  434MOL0     C57201   7.007   1.282   2.364 -0.1391  0.8153  1.6665
  434MOL0     C57202   7.111   1.194   2.382 -0.5112 -0.3117 -0.0907
  434MOL0     O57203   7.232   1.113   2.732  0.2021  0.6952 -0.5290
  434MOL0     C57204   7.412   0.864   2.546  0.4007  0.8062 -0.6103
  434MOL0     C57205   7.486   0.748   2.555 -0.1636  0.4984 -0.0810
  434MOL0     N57206   7.921   0.274   2.391  1.0555  0.1920 -0.8147
  434MOL0     N57207   8.024   0.275   2.321 -0.1949  0.5575 -0.0976
  434MOL0     C57208   8.589   1.038   2.459  0.0713  0.2980 -0.2669
  434MOL0     C57209   8.674   1.120   2.535 -0.0107 -0.4634  0.5858
  434MOL0     C57210   9.091   1.335   2.596  0.1369  0.5943 -0.0367
  434MOL0     C57211   9.056   1.462   2.631  0.6174 -0.2753  0.4576
  434MOL0     C57212   9.153   1.558   2.674  0.1034 -0.2676 -0.4206
  434MOL0     C57213   9.288   1.532   2.678 -0.9385 -0.7387 -0.2104
  434MOL0     O57214   9.373   1.626   2.736  0.0858 -0.1477 -0.3409
  434MOL0     C57215   9.519   1.600   2.753 -0.0585  0.1820 -0.2676
  434MOL0     C57216   9.579   1.729   2.801  0.0236  1.2684 -1.1116
  434MOL0     C57217   9.735   1.729   2.802 -0.2026 -0.8166  0.6852
  434MOL0     C57218   9.795   1.854   2.844 -0.0076  0.3398  0.4659
  434MOL0     C57219   9.795   1.849   2.995 -0.2081 -1.2283 -0.2205
  434MOL0     C57220   9.793   1.841   3.116  0.4534  0.5563 -0.8446
  434MOL0     C57221   9.323   1.397   2.656 -0.3286 -0.4545  0.2923
  434MOL0     C57222   9.227   1.300   2.609  0.4973  0.1382  0.2639
  434MOL0     H57223   8.885   1.218   2.287  0.9708 -1.5782 -1.2559
  434MOL0     H57224   8.732   1.064   2.164 -3.5095  3.0473  0.0455
  434MOL0     H57225   8.655   0.849   2.124  0.2921  1.3479 -1.2757
  434MOL0     H57226   8.508   0.945   2.085 -1.0190  0.2959  2.3019
  434MOL0     H57227   8.459   0.707   2.031  1.1602  1.8233 -0.9413
  434MOL0     H57228   8.373   0.753   2.179  0.4150  2.0910  1.7678
  434MOL0     H57229   8.582   0.650   2.303 -0.4063  1.7311 -2.0372
  434MOL0     H57230   8.642   0.611   2.166  0.8951 -0.0043  4.2009
  434MOL0     H57231   8.379   0.532   2.279 -0.0121 -0.8818 -0.2658
  434MOL0     H57232   8.417   0.484   2.109 -1.8332 -0.3831  0.7959
  434MOL0     H57233   8.578   0.419   2.361  1.3559  1.4374 -1.6488
  434MOL0     H57234   8.638   0.374   2.208  1.4096  4.2014  1.7712
  434MOL0     H57235   8.538   0.180   2.341  0.0487  2.3917  0.1157
  434MOL0     H57236   8.453   0.191   2.191  0.4352 -3.6299  0.5144
  434MOL0     H57237   8.358   0.248   2.469  1.5215  1.2627 -0.3345
  434MOL0     H57238   8.299   0.355   2.361  1.3559  0.2152  4.2261
  434MOL0     H57239   8.271   0.048   2.326 -1.5641 -0.2195  1.1314
  434MOL0     H57240   8.246   0.167   2.200  1.4991 -1.3107 -0.2559
  434MOL0     H57241   8.108   0.059   2.551  0.3630  2.0822  2.5596
  434MOL0     H57242   7.899   0.159   2.709 -0.2561 -1.2685  1.0726
  434MOL0     H57243   7.786   0.083   2.595  1.1170 -0.2402 -0.5438
  434MOL0     H57244   7.669   0.261   2.719 -1.1543 -1.7361 -0.9243
  434MOL0     H57245   7.660   0.287   2.554 -2.0449 -1.4743  1.0455
  434MOL0     H57246   7.771   0.439   2.793  2.7963  0.9836  0.1554
  434MOL0     H57247   7.896   0.432   2.661 -0.8359  0.2205 -3.2157
  434MOL0     H57248   7.693   0.529   2.513  1.2685  2.6689 -0.7418
  434MOL0     H57249   7.776   0.636   2.628  0.4129 -0.5673  3.1070
  434MOL0     H57250   7.505   0.728   2.884 -2.1420 -0.1996 -1.1962
  434MOL0     H57251   7.384   0.952   2.876  2.8579  0.4841  0.7786
  434MOL0     H57252   7.253   1.368   2.649  2.0654  2.5561 -3.0123
  434MOL0     H57253   7.057   1.516   2.601  0.3283  0.3204 -0.0393
  434MOL0     H57254   6.770   1.390   2.279 -0.9344  1.0804 -0.1849
  434MOL0     H57255   6.877   1.491   2.178 -3.0460  1.6309 -2.1824
  434MOL0     H57256   6.679   1.599   2.381  0.3300  1.3957  0.5892
  434MOL0     H57257   6.643   1.598   2.211 -1.2181  2.8675  1.4285
  434MOL0     H57258   6.793   1.752   2.140 -3.4760  3.6184  0.4291
  434MOL0     H57259   6.876   1.762   2.301  0.2276  2.9491 -0.5886
  434MOL0     H57260   6.597   1.845   2.220 -0.3534  1.0508 -0.2129
  434MOL0     H57261   6.639   1.812   2.396  2.8918 -0.3129  1.3583
  434MOL0     H57262   6.799   1.974   2.416 -1.0575  0.2126  0.3853
  434MOL0     H57263   6.653   2.046   2.358  2.7947  3.6461  0.3488
  434MOL0     H57264   6.898   1.990   2.182 -1.8972 -1.7919 -1.8083
  434MOL0     H57265   6.858   2.144   2.270 -0.4930  0.2228 -1.8060
  434MOL0     H57266   6.722   2.008   2.030  3.5901  0.7319 -1.4336
  434MOL0     H57267   6.630   2.124   2.130 -0.7109 -2.8308  1.9420
  434MOL0     H57268   6.878   2.167   1.964 -1.2095 -2.9570 -0.8923
  434MOL0     H57269   6.799   2.291   2.051 -0.6969 -1.1324  2.1025
  434MOL0     H57270   6.937   1.252   2.287  0.8451 -2.2247  1.8541
  434MOL0     H57271   7.122   1.107   2.319 -0.0061 -0.7977  0.6436
  434MOL0     H57272   7.386   0.892   2.445  1.1978 -1.8554 -1.6345
  434MOL0     H57273   7.510   0.706   2.458 -1.9435 -0.1246 -0.2826
  434MOL0     H57274   8.514   0.987   2.519  1.8880  1.1837  2.9635
  434MOL0     H57275   8.644   1.146   2.636 -1.1362  0.2072  0.1007
  434MOL0     H57276   8.952   1.493   2.624  0.6866 -0.1661 -0.2308
  434MOL0     H57277   9.105   1.654   2.693 -0.7337 -0.8533  0.5041
  434MOL0     H57278   9.560   1.562   2.659  0.5920  1.2194 -0.4242
  434MOL0     H57279   9.539   1.520   2.825 -2.0445  0.3358  0.5168
  434MOL0     H57280   9.539   1.811   2.739 -0.5663  1.6013 -0.3124
  434MOL0     H57281   9.555   1.752   2.905  1.1970 -0.7774 -0.3437
  434MOL0     H57282   9.773   1.700   2.704  0.6016  0.9086  0.4413
  434MOL0     H57283   9.770   1.646   2.862  0.3415 -2.8433 -2.2150
  434MOL0     H57284   9.899   1.874   2.814 -0.8885  2.3733 -1.5064
  434MOL0     H57285   9.733   1.934   2.804 -1.7730 -0.9166  0.6055
  434MOL0     H57286   9.779   1.839   3.222  1.8600  0.8463 -0.6382
  434MOL0     H57287   9.428   1.370   2.649 -0.2932  0.1546 -2.9960
  434MOL0     H57288   9.262   1.198   2.623  2.3893  0.7134 -0.0490
  435MOL0     O57289   9.111  11.405   0.717  0.1686  0.4883 -0.2320
  435MOL0     C57290   9.042  11.455   0.810 -0.4775  0.5974  0.3912
  435MOL0     O57291   8.946  11.385   0.879  0.2269 -0.7038 -0.0760
  435MOL0     C57292   8.926  11.249   0.861 -0.5180  0.4144  0.1478
  435MOL0     C57293   9.001  11.154   0.785  0.4396 -0.4412  0.8517
  435MOL0     C57294   8.956  11.023   0.778  0.3040 -0.1181 -0.6275
  435MOL0     C57295   8.836  10.971   0.840  1.1316  0.0977  0.5981
  435MOL0     O57296   8.796  10.847   0.813 -0.0314  0.0986  0.3339
  435MOL0     C57297   8.670  10.781   0.851  0.0600 -0.0117  0.1379
  435MOL0     C57298   8.689  10.645   0.780  0.1011  0.1776 -0.1997
  435MOL0     C57299   8.579  10.552   0.823 -0.4571 -0.5940 -0.0118
  435MOL0     C57300   8.578  10.444   0.721  0.2694  0.2520 -0.1861
  435MOL0     C57301   8.463  10.338   0.733 -0.8056  0.3085  0.6824
  435MOL0     C57302   8.489  10.234   0.845  0.0916 -0.2508 -0.4922
  435MOL0     C57303   8.398  10.106   0.837 -0.4115 -0.2851 -0.4699
  435MOL0     C57304   8.391  10.029   0.978  0.3922  0.3664  0.6848
  435MOL0     N57305   8.287  10.064   1.075  0.0789  1.0620  0.6175
  435MOL0     C57306   8.205   9.966   1.135  0.3836  0.2559 -0.1479
  435MOL0     C57307   8.121  10.042   1.216 -0.8210  1.1946 -0.4881
  435MOL0     C57308   8.045   9.994   1.331  0.7211  0.6948  0.6811
  435MOL0     C57309   7.898  10.016   1.320  0.3478 -0.1166 -0.1072
  435MOL0     C57310   7.831   9.928   1.217  0.8673 -0.1435 -0.3391
  435MOL0     C57311   7.678   9.904   1.270  0.0290 -0.3343 -0.2642
  435MOL0     O57312   7.607  10.028   1.290 -0.1087  0.4175  0.4945
  435MOL0     C57313   7.571  10.105   1.184  0.0740 -1.1231  0.5171
  435MOL0     C57314   7.591  10.242   1.191 -0.2676  0.0188  0.6821
  435MOL0     C57315   7.555  10.328   1.085  0.5725  0.0065 -0.2498
  435MOL0     C57316   7.492  10.279   0.970 -0.3830 -0.2295 -0.3861
  435MOL0     C57317   7.432  10.362   0.864  0.2321 -0.9063 -0.4791
  435MOL0     O57318   7.425  10.500   0.899  0.0879 -0.0490  0.1445
  435MOL0     C57319   7.359  10.585   0.814 -1.1320 -1.0271  0.0804
  435MOL0     C57320   7.431  10.668   0.727 -0.3583  0.5116  0.9645
  435MOL0     C57321   7.370  10.778   0.669 -0.2542 -0.7290 -0.2835
  435MOL0     C57322   7.232  10.798   0.675 -0.3570  0.2148  0.1603
  435MOL0     O57323   7.185  10.903   0.602  0.3627 -0.3232  0.1202
  435MOL0     C57324   7.130  11.005   0.684  0.1173  0.2355 -0.2951
  435MOL0     C57325   6.985  10.983   0.719 -0.0487  0.2317 -0.0833
  435MOL0     C57326   6.930  11.104   0.782 -0.2381  0.0635 -0.1349
  435MOL0     C57327   6.885  11.212   0.681 -0.6020 -0.3112  0.1158
  435MOL0     C57328   6.800  11.324   0.748  0.4202  0.0431 -0.1040
  435MOL0     C57329   6.662  11.281   0.792 -0.4957 -1.1244 -1.2137
  435MOL0     C57330   6.592  11.417   0.825 -0.2878  0.7402 -0.0747
  435MOL0     C57331   6.436  11.392   0.846 -0.4319 -0.0928  0.2966
  435MOL0    Cl57332   6.354  11.380   0.692  0.4301  0.3041  0.2095
  435MOL0     C57333   7.158  10.700   0.743  1.0299 -0.8471 -0.1618
  435MOL0     C57334   7.221  10.598   0.810 -0.4392  0.4530  0.1134
  435MOL0     O57335   7.374  10.309   0.770  0.7686  1.2629  0.2182
  435MOL0     C57336   7.471  10.137   0.962 -1.0107  0.4211  0.5228
  435MOL0     C57337   7.498  10.055   1.074 -0.3556  0.7483 -0.2200
  435MOL0     N57338   8.157  10.177   1.192  0.3527  0.0950 -0.9847
  435MOL0     N57339   8.255  10.190   1.104  0.4002 -0.0764  0.3166
  435MOL0     C57340   8.766  11.060   0.917 -0.6039 -0.5070 -1.2899
  435MOL0     C57341   8.818  11.192   0.933  0.0987  0.7842  0.7820
  435MOL0     C57342   9.057  11.601   0.835  0.4332  0.5352  0.7724
  435MOL0     C57343   9.152  11.678   0.769 -0.0393 -0.1451  0.2773
  435MOL0     C57344   9.167  11.812   0.805  0.5137 -0.4526 -0.1968
  435MOL0     C57345   9.099  11.880   0.908 -0.4645  0.7942  0.3938
  435MOL0     O57346   9.133  12.015   0.921  1.4718  0.4366 -0.6175
  435MOL0     C57347   9.055  12.102   1.001  0.5002 -0.5266 -0.5743
  435MOL0     C57348   9.063  12.245   0.934 -0.6654  0.2643 -0.4533
  435MOL0     C57349   9.200  12.315   0.935  0.7493 -0.4464  0.1061
  435MOL0     C57350   9.210  12.407   1.059 -0.0817 -0.6669 -0.4769
  435MOL0     C57351   9.115  12.516   1.051  1.1560  0.2093 -0.2558
  435MOL0     C57352   9.025  12.595   1.019 -0.6536  0.1360 -0.1060
  435MOL0     C57353   8.996  11.812   0.970 -0.9679  1.0073 -0.4992
  435MOL0     C57354   8.983  11.674   0.929 -0.6346 -0.3789 -0.0808
  435MOL0     H57355   9.075  11.191   0.714 -0.5583  1.5850  0.8115
  435MOL0     H57356   9.009  10.951   0.716  1.0315 -0.3869  0.2763
  435MOL0     H57357   8.582  10.842   0.832  0.5272  1.0294  1.1966
  435MOL0     H57358   8.674  10.764   0.959 -1.0248  0.3944  0.2496
  435MOL0     H57359   8.780  10.590   0.806  1.1400  1.4003 -1.1138
  435MOL0     H57360   8.696  10.658   0.672 -1.8531 -2.1144 -0.6890
  435MOL0     H57361   8.488  10.614   0.820 -0.2700 -0.3293 -0.2230
  435MOL0     H57362   8.585  10.508   0.923  3.1012 -0.4344 -0.0376
  435MOL0     H57363   8.563  10.490   0.623  1.5318 -2.1866 -1.6126
  435MOL0     H57364   8.677  10.396   0.720  0.3380  0.3827 -1.7432
  435MOL0     H57365   8.460  10.279   0.641  0.4688  2.6091 -0.9416
  435MOL0     H57366   8.362  10.380   0.732 -1.1237 -0.4139 -0.5382
  435MOL0     H57367   8.472  10.289   0.938 -0.1587 -0.1328 -0.6082
  435MOL0     H57368   8.592  10.197   0.840  0.4431 -0.5696  4.2296
  435MOL0     H57369   8.295  10.139   0.820  0.8542  3.7248 -1.2869
  435MOL0     H57370   8.421  10.034   0.758 -4.0963  0.5888 -2.5845
  435MOL0     H57371   8.488  10.050   1.023  0.2480 -1.5726  2.0559
  435MOL0     H57372   8.375   9.922   0.958 -2.0018  0.8578 -0.4490
  435MOL0     H57373   8.212   9.858   1.143 -1.6506  0.0671 -0.4731
  435MOL0     H57374   8.075  10.050   1.420 -3.5932  2.6652  1.1463
  435MOL0     H57375   8.053   9.886   1.346  1.5748  0.4769 -1.0334
  435MOL0     H57376   7.881  10.119   1.287  3.1054 -0.2881 -2.4883
  435MOL0     H57377   7.851   9.996   1.417  1.6115 -0.8036  0.3923
  435MOL0     H57378   7.833   9.965   1.115  0.3521 -0.1171 -0.3439
  435MOL0     H57379   7.885   9.832   1.221 -0.2129 -1.1045 -4.2496
  435MOL0     H57380   7.688   9.855   1.367  1.3975 -0.4004 -0.4132
  435MOL0     H57381   7.624   9.838   1.201  0.5683 -0.1351 -0.8932
  435MOL0     H57382   7.643  10.286   1.276  1.4337  0.1706 -0.3883
  435MOL0     H57383   7.584  10.432   1.096  1.2116 -0.2609  0.7805
  435MOL0     H57384   7.539  10.662   0.735 -0.2180  0.1262 -0.8004
  435MOL0     H57385   7.429  10.852   0.615 -1.7369  1.0490  0.3919
  435MOL0     H57386   7.132  11.095   0.622 -0.4367  1.0501  0.8272
  435MOL0     H57387   7.193  11.021   0.772 -1.8748  0.7958  1.1020
  435MOL0     H57388   6.963  10.903   0.790  0.4578 -0.3395 -0.5524
  435MOL0     H57389   6.934  10.961   0.625 -3.2296  0.6663  1.4287
  435MOL0     H57390   7.002  11.147   0.852 -0.3566 -1.6364  1.1014
  435MOL0     H57391   6.839  11.077   0.837 -1.2867  0.4022 -1.6427
  435MOL0     H57392   6.965  11.251   0.617 -0.3723  1.0865  1.2130
  435MOL0     H57393   6.822  11.162   0.606 -1.2054  0.5890  0.0056
  435MOL0     H57394   6.779  11.403   0.675 -1.1998 -0.0551  0.2050
  435MOL0     H57395   6.853  11.368   0.833  1.4844 -1.5634  0.1129
  435MOL0     H57396   6.665  11.215   0.879 -0.4154 -0.3088 -0.5893
  435MOL0     H57397   6.612  11.230   0.709 -2.4109 -0.2380 -0.6538
  435MOL0     H57398   6.644  11.454   0.914 -0.4445  1.9620 -0.4753
  435MOL0     H57399   6.613  11.493   0.749 -1.9565 -0.4213 -1.7698
  435MOL0     H57400   6.396  11.474   0.905 -1.4561 -0.6628  0.4151
  435MOL0     H57401   6.418  11.297   0.898 -2.5032  0.5719  0.8919
  435MOL0     H57402   7.049  10.692   0.746  1.0407 -0.6436  0.9081
  435MOL0     H57403   7.169  10.537   0.883  2.3308 -0.1247  1.7339
  435MOL0     H57404   7.431  10.106   0.866  3.7105 -2.6517 -0.7941
  435MOL0     H57405   7.471   9.950   1.080  2.8355 -0.1737 -0.2014
  435MOL0     H57406   8.688  11.019   0.981  0.6613 -0.2565  0.4714
  435MOL0     H57407   8.764  11.261   0.998  2.3596  1.0919  2.4470
  435MOL0     H57408   9.211  11.636   0.688 -0.9413  1.1660 -1.1047
  435MOL0     H57409   9.227  11.866   0.733  1.2700  0.0969  0.8058
  435MOL0     H57410   9.093  12.103   1.103 -2.8067  1.6941  0.8242
  435MOL0     H57411   8.953  12.061   1.011  1.0465 -1.8417 -0.1802
  435MOL0     H57412   9.032  12.236   0.830 -1.1706  3.8697 -0.7630
  435MOL0     H57413   8.990  12.321   0.963  0.8676  2.3162 -1.6903
  435MOL0     H57414   9.218  12.374   0.845  3.7494  3.9119  3.1561
  435MOL0     H57415   9.281  12.242   0.947 -1.4604 -2.8750  1.1002
  435MOL0     H57416   9.211  12.357   1.156  0.8920 -1.8611 -1.0837
  435MOL0     H57417   9.310  12.451   1.049 -0.3292 -0.3745 -1.8385
  435MOL0     H57418   8.937  12.654   1.002 -0.5068  1.4714  2.9119
  435MOL0     H57419   8.935  11.860   1.045 -1.1788 -1.4767  1.0352
  435MOL0     H57420   8.915  11.615   0.989  2.1350 -3.1830  0.5027
  436MOL0     O57421   7.914   1.486   3.072  0.1670 -0.1646  0.2736
  436MOL0     C57422   7.887   1.568   3.156  0.9485 -0.6083  0.6760
  436MOL0     O57423   7.951   1.587   3.267  0.1106 -0.4842  0.2063
  436MOL0     C57424   8.035   1.485   3.296  0.4441 -0.0100 -0.0943
  436MOL0     C57425   7.994   1.404   3.402 -0.4402 -0.3769 -0.4592
  436MOL0     C57426   8.079   1.304   3.442 -0.9115 -0.1115  0.9303
  436MOL0     C57427   8.208   1.278   3.386  0.4668 -0.8473  0.3466
  436MOL0     O57428   8.292   1.173   3.430 -0.3581 -0.8794  0.3207
  436MOL0     C57429   8.283   1.127   3.565 -0.0862 -0.1917 -0.5390
  436MOL0     C57430   8.202   1.006   3.592 -0.0362  0.2018 -0.8929
  436MOL0     C57431   8.242   0.907   3.481 -0.1670  0.1817  0.1292
  436MOL0     C57432   8.148   0.781   3.485 -0.7605 -0.2622  0.3213
  436MOL0     C57433   8.204   0.664   3.409 -0.5845  0.0095  0.3570
  436MOL0     C57434   8.143   0.529   3.464 -0.2560 -0.1049  1.1214
  436MOL0     C57435   8.198   0.410   3.381 -0.1941 -1.6561  0.9822
  436MOL0     C57436   8.332   0.374   3.425  0.1175  0.3087  0.3125
  436MOL0     N57437   8.346   0.239   3.369  0.3574 -0.1767  0.3591
  436MOL0     C57438   8.277   0.126   3.412 -0.4843  0.7497  0.7458
  436MOL0     C57439   8.333   0.025   3.343 -0.4098  0.1799  1.2986
  436MOL0     C57440   8.296  -0.117   3.328 -0.2533  0.3399 -0.1269
  436MOL0     C57441   8.157  -0.161   3.383 -0.1012 -0.1847 -0.5541
  436MOL0     C57442   8.041  -0.105   3.296 -0.0509  0.9029  0.3038
  436MOL0     C57443   7.910  -0.093   3.362 -0.7528  0.5389  0.4414
  436MOL0     O57444   7.909   0.025   3.447 -0.5383  0.4477  0.3802
  436MOL0     C57445   7.801   0.108   3.456 -0.6467  0.0802 -0.1623
  436MOL0     C57446   7.679   0.108   3.388 -0.7715  0.4569  0.1161
  436MOL0     C57447   7.577   0.193   3.424  0.4275  0.6139 -0.1630
  436MOL0     C57448   7.596   0.293   3.525  0.2363  0.0854 -0.6352
  436MOL0     C57449   7.493   0.397   3.556  1.2629  1.3645  1.1143
  436MOL0     O57450   7.532   0.490   3.649 -0.1879 -0.4580 -0.3154
  436MOL0     C57451   7.449   0.605   3.667 -1.5721  0.1092 -0.3528
  436MOL0     C57452   7.446   0.710   3.573  0.8277  0.1762  0.8302
  436MOL0     C57453   7.366   0.826   3.594 -0.1989 -0.2742  0.0934
  436MOL0     C57454   7.302   0.840   3.713  0.7625  0.0097 -0.1115
  436MOL0     O57455   7.216   0.950   3.724  0.0492  0.6065 -0.3828
  436MOL0     C57456   7.143   0.967   3.850 -0.1132 -0.5874  1.1295
  436MOL0     C57457   7.058   1.099   3.855  0.8785 -0.0947  0.0119
  436MOL0     C57458   7.135   1.224   3.816 -0.0547  0.4799  0.9070
  436MOL0     C57459   7.037   1.342   3.810 -0.1390 -0.2698  0.0405
  436MOL0     C57460   6.968   1.342   3.672  0.3519  0.1755 -1.0784
  436MOL0     C57461   6.903   1.476   3.639  0.9466  0.1987  0.6592
  436MOL0     C57462   6.798   1.463   3.516 -0.1698  0.0247  0.4320
  436MOL0     C57463   6.758   1.600   3.458 -0.0406  0.4070 -0.9971
  436MOL0    Cl57464   6.647   1.673   3.567  0.1567 -0.4959  0.1450
  436MOL0     C57465   7.305   0.745   3.811 -0.7164 -1.0189 -0.6650
  436MOL0     C57466   7.384   0.630   3.791 -0.4650 -0.0092  0.1217
  436MOL0     O57467   7.400   0.409   3.477 -0.8277 -0.2067  0.3452
  436MOL0     C57468   7.723   0.297   3.588 -0.8700 -0.7231  0.1991
  436MOL0     C57469   7.822   0.210   3.550 -0.5468  0.7195  1.3160
  436MOL0     N57470   8.414   0.086   3.240  0.1390 -0.4737 -0.5679
  436MOL0     N57471   8.419   0.209   3.267 -0.1882 -0.6302 -0.2929
  436MOL0     C57472   8.247   1.364   3.288  0.7644  0.2321  0.3274
  436MOL0     C57473   8.166   1.473   3.244 -0.5709 -0.9449 -0.8194
  436MOL0     C57474   7.762   1.646   3.134 -0.3112 -0.0041  0.3196
  436MOL0     C57475   7.710   1.669   3.002  0.0373 -0.1638  0.0077
  436MOL0     C57476   7.610   1.754   2.978 -0.1470  0.2002 -0.2637
  436MOL0     C57477   7.549   1.830   3.081  0.6217 -0.0559  0.3514
  436MOL0     O57478   7.442   1.916   3.061 -0.2252  0.2307  0.2450
  436MOL0     C57479   7.388   1.951   2.930  0.4413  0.3104  0.2188
  436MOL0     C57480   7.296   1.849   2.869  0.1430  0.0824 -0.4422
  436MOL0     C57481   7.275   1.881   2.720 -0.4127 -0.6373 -0.3073
  436MOL0     C57482   7.141   1.851   2.666  0.1725 -1.0195 -0.1589
  436MOL0     C57483   7.136   1.861   2.519 -0.0373  1.1560  0.6805
  436MOL0     C57484   7.123   1.864   2.402 -0.1120 -0.2709 -0.5124
  436MOL0     C57485   7.592   1.805   3.206 -0.4436 -0.8231  0.0953
  436MOL0     C57486   7.695   1.709   3.237 -0.4632  1.1046 -0.7948
  436MOL0     H57487   7.911   1.422   3.469  0.4932  0.3637  0.5380
  436MOL0     H57488   8.047   1.248   3.529  0.5571  1.5591  2.6300
  436MOL0     H57489   8.254   1.200   3.641  1.0517 -0.7249  0.4418
  436MOL0     H57490   8.385   1.093   3.587 -1.0029 -1.1098  2.8411
  436MOL0     H57491   8.096   1.028   3.582  0.3536  2.8221 -0.0465
  436MOL0     H57492   8.216   0.973   3.696 -0.1400  2.0620 -0.2632
  436MOL0     H57493   8.344   0.873   3.500 -0.5811 -0.3813  1.4128
  436MOL0     H57494   8.231   0.938   3.376 -4.2619 -2.7772 -0.5349
  436MOL0     H57495   8.155   0.761   3.592  0.2638 -0.7996  0.1733
  436MOL0     H57496   8.044   0.795   3.457 -1.4094  0.1795  2.7339
  436MOL0     H57497   8.312   0.644   3.411 -0.8608 -2.5851 -2.7054
  436MOL0     H57498   8.171   0.670   3.305 -1.7682 -0.8077  0.6621
  436MOL0     H57499   8.036   0.546   3.450  0.4634  4.0777 -0.6218
  436MOL0     H57500   8.155   0.509   3.571  0.4137  1.2592  1.3215
  436MOL0     H57501   8.132   0.323   3.376 -0.1861 -1.6451  0.6439
  436MOL0     H57502   8.196   0.439   3.275  0.7080 -1.1841  1.0881
  436MOL0     H57503   8.342   0.375   3.534 -0.8258 -2.6615  0.5200
  436MOL0     H57504   8.411   0.431   3.375 -0.2292 -1.4890 -2.4865
  436MOL0     H57505   8.199   0.109   3.485 -0.0345 -2.4319  0.6139
  436MOL0     H57506   8.373  -0.168   3.386 -1.9125 -2.3002 -0.0537
  436MOL0     H57507   8.313  -0.145   3.223  0.7139  1.6643 -0.3409
  436MOL0     H57508   8.147  -0.138   3.489 -0.7675 -1.8822 -0.2042
  436MOL0     H57509   8.166  -0.269   3.364  2.1014 -0.4782  1.7711
  436MOL0     H57510   8.075  -0.006   3.264 -0.3350  0.6196 -0.9435
  436MOL0     H57511   8.019  -0.160   3.203  0.7352  0.8952  0.1159
  436MOL0     H57512   7.900  -0.171   3.438  0.3301 -1.3959 -1.3119
  436MOL0     H57513   7.824  -0.098   3.294 -0.5677  1.1750  0.1519
  436MOL0     H57514   7.656   0.030   3.316  1.8308 -1.0694  0.7819
  436MOL0     H57515   7.482   0.175   3.375 -0.1349 -0.2571  1.1940
  436MOL0     H57516   7.504   0.698   3.482 -0.2694 -4.2136  0.5188
  436MOL0     H57517   7.351   0.908   3.524 -0.6902  1.3416  2.0076
  436MOL0     H57518   7.206   0.959   3.939  0.3050 -0.1910  0.8722
  436MOL0     H57519   7.075   0.882   3.845 -0.3702 -0.6942  4.2930
  436MOL0     H57520   7.013   1.099   3.954 -0.9625  1.2829 -0.7505
  436MOL0     H57521   6.979   1.091   3.779 -1.8506  2.2863  2.3110
  436MOL0     H57522   7.175   1.218   3.715  0.4774 -0.0256  1.1419
  436MOL0     H57523   7.211   1.248   3.892 -1.2932  2.3075  1.6389
  436MOL0     H57524   6.958   1.325   3.883  0.5658 -1.8749  0.4820
  436MOL0     H57525   7.091   1.434   3.837 -2.6908  0.3070  3.9973
  436MOL0     H57526   6.885   1.271   3.669  0.6191 -0.1283 -1.2264
  436MOL0     H57527   7.038   1.314   3.593  2.1323 -1.4006  0.9685
  436MOL0     H57528   6.986   1.540   3.609  1.1514 -0.0463  0.6983
  436MOL0     H57529   6.828   1.507   3.712 -0.8607 -0.3906 -0.8499
  436MOL0     H57530   6.862   1.419   3.440 -1.1848  2.6299 -2.1463
  436MOL0     H57531   6.712   1.400   3.541  0.7236 -0.4349  2.6130
  436MOL0     H57532   6.702   1.579   3.365 -2.0654 -3.2309  0.8147
  436MOL0     H57533   6.851   1.653   3.436  0.9442 -1.3326 -1.2128
  436MOL0     H57534   7.236   0.759   3.894 -0.5811  0.7760 -0.8228
  436MOL0     H57535   7.374   0.547   3.860 -2.6864 -1.7407 -2.1119
  436MOL0     H57536   7.739   0.385   3.649 -1.9018  2.8225 -4.1202
  436MOL0     H57537   7.921   0.227   3.592  1.2363 -1.1696 -1.6900
  436MOL0     H57538   8.342   1.343   3.239  0.3258 -1.5489  0.1700
  436MOL0     H57539   8.191   1.537   3.160 -0.1198  1.1135  0.7871
  436MOL0     H57540   7.774   1.630   2.924  1.1523  4.2603 -1.6264
  436MOL0     H57541   7.587   1.756   2.871  3.9121 -0.6259 -1.3180
  436MOL0     H57542   7.463   1.992   2.863  1.0605 -0.6347  0.3057
  436MOL0     H57543   7.328   2.041   2.940 -0.9442  0.0929 -4.3240
  436MOL0     H57544   7.340   1.750   2.883  2.9914  0.9809 -2.1785
  436MOL0     H57545   7.197   1.845   2.916 -0.0324 -1.2882 -0.8820
  436MOL0     H57546   7.360   1.835   2.669  0.1471 -0.0742  0.0912
  436MOL0     H57547   7.282   1.990   2.728 -0.0421 -0.8004  2.3285
  436MOL0     H57548   7.102   1.757   2.708  1.7040 -0.8217  1.8444
  436MOL0     H57549   7.059   1.920   2.689 -0.2402 -0.1614 -3.6275
  436MOL0     H57550   7.124   1.888   2.298 -0.9523  1.6392 -0.1190
  436MOL0     H57551   7.542   1.857   3.287 -0.3168 -2.9248  1.5865
  436MOL0     H57552   7.732   1.668   3.331 -2.0997 -1.0327 -1.0144
  437MOL0     O57553  11.403   7.269   2.479  0.3766 -0.2670  1.0214
  437MOL0     C57554  11.423   7.386   2.435  0.8226  0.0250 -0.2113
  437MOL0     O57555  11.414   7.505   2.510  0.3887  0.3279 -0.7573
  437MOL0     C57556  11.408   7.495   2.652 -0.5520 -0.1686 -0.0299
  437MOL0     C57557  11.320   7.578   2.719  0.1070 -0.3674  0.9654
  437MOL0     C57558  11.295   7.568   2.854  0.5336  0.2270 -0.1975
  437MOL0     C57559  11.356   7.474   2.935 -0.7315 -0.2515 -0.1356
  437MOL0     O57560  11.320   7.459   3.068 -0.1109 -0.7949  0.0897
  437MOL0     C57561  11.424   7.410   3.158 -0.8324 -0.5170 -0.0206
  437MOL0     C57562  11.394   7.266   3.190  0.7842  0.4930 -0.6056
  437MOL0     C57563  11.496   7.225   3.296  0.4014  0.1963  0.2557
  437MOL0     C57564  11.448   7.105   3.382  0.2304 -0.4320  0.0832
  437MOL0     C57565  11.523   7.073   3.509  0.5768 -0.5292 -0.1761
  437MOL0     C57566  11.477   6.948   3.585  0.0066  0.2727 -0.0514
  437MOL0     C57567  11.499   6.817   3.514 -0.2165 -0.3743  0.7781
  437MOL0     C57568  11.468   6.710   3.616  0.5865  0.5016  0.3421
  437MOL0     N57569  11.507   6.587   3.543 -0.5696  0.3244  0.2907
  437MOL0     C57570  11.604   6.500   3.559 -0.9982  0.4367 -0.4386
  437MOL0     C57571  11.600   6.406   3.470 -0.4983  0.7774 -0.3170
  437MOL0     C57572  11.695   6.287   3.446 -0.7389 -0.4049 -0.3386
  437MOL0     C57573  11.667   6.156   3.524  0.0943  0.0683  0.1732
  437MOL0     C57574  11.523   6.112   3.506  0.0706  0.9408 -0.1399
  437MOL0     C57575  11.514   5.990   3.411 -0.6547 -0.1973  0.3523
  437MOL0     O57576  11.390   5.923   3.427  0.8720 -0.2430  0.8051
  437MOL0     C57577  11.375   5.795   3.377 -0.4242 -0.1472 -0.3859
  437MOL0     C57578  11.477   5.702   3.357 -1.0248 -0.2385 -1.2962
  437MOL0     C57579  11.450   5.568   3.317 -0.4781  0.1860 -0.4791
  437MOL0     C57580  11.319   5.523   3.309 -1.1101  0.3356 -0.6371
  437MOL0     C57581  11.275   5.395   3.261  0.7276  0.1475 -0.6089
  437MOL0     O57582  11.146   5.373   3.220 -0.1658  0.3325  0.1138
  437MOL0     C57583  11.132   5.250   3.156 -0.7612 -0.3296  0.8787
  437MOL0     C57584  11.117   5.134   3.232  1.2321 -0.3166 -0.0284
  437MOL0     C57585  11.078   5.008   3.166  0.3904 -0.2379 -0.5150
  437MOL0     C57586  11.068   5.004   3.026  0.1552 -0.0877  0.3432
  437MOL0     O57587  11.060   4.883   2.961 -0.6255  0.2347 -0.2020
  437MOL0     C57588  11.185   4.809   2.957  1.2183 -1.9943 -0.4958
  437MOL0     C57589  11.162   4.664   2.921  0.1826 -0.7942  0.4889
  437MOL0     C57590  11.096   4.585   3.025 -0.1763  0.4533  0.1205
  437MOL0     C57591  11.179   4.578   3.160  0.1406  0.3313 -0.5118
  437MOL0     C57592  11.151   4.437   3.240  1.3249 -0.1116  0.1310
  437MOL0     C57593  11.004   4.432   3.274  0.0902 -0.6062 -0.1498
  437MOL0     C57594  10.954   4.539   3.377  0.4264  0.7466  0.2189
  437MOL0     C57595  10.820   4.518   3.453  0.2488  0.8366  0.1098
  437MOL0    Cl57596  10.686   4.462   3.350 -0.4179 -0.5262 -0.4573
  437MOL0     C57597  11.081   5.124   2.955 -1.4027 -0.5616 -0.9633
  437MOL0     C57598  11.111   5.245   3.019  0.3492  0.9029  1.1725
  437MOL0     O57599  11.365   5.311   3.257 -0.2036  0.7174 -0.7370
  437MOL0     C57600  11.223   5.620   3.329  0.0006 -0.3033  0.1417
  437MOL0     C57601  11.250   5.753   3.341 -0.8308 -0.6298 -0.2792
  437MOL0     N57602  11.494   6.445   3.387 -0.1017 -0.0226  0.5489
  437MOL0     N57603  11.437   6.555   3.432 -0.6508 -0.9493 -0.0663
  437MOL0     C57604  11.460   7.395   2.876 -0.2817 -0.0692  0.0241
  437MOL0     C57605  11.487   7.410   2.739  0.3111  0.3374  1.1366
  437MOL0     C57606  11.434   7.412   2.295 -0.6005  0.1875 -0.4530
  437MOL0     C57607  11.442   7.308   2.204  0.2205  0.7168  0.0707
  437MOL0     C57608  11.450   7.332   2.055  0.0109 -0.1667 -0.2961
  437MOL0     C57609  11.428   7.454   2.006 -0.1840 -0.1939 -0.5674
  437MOL0     O57610  11.429   7.475   1.869 -0.3342  0.3757 -0.6252
  437MOL0     C57611  11.391   7.375   1.794  0.1305 -0.3250 -0.3206
  437MOL0     C57612  11.397   7.441   1.649  0.0045 -0.3891 -0.2420
  437MOL0     C57613  11.538   7.457   1.603 -0.0901 -0.8057 -0.6754
  437MOL0     C57614  11.561   7.535   1.478 -0.0449 -0.3855  0.6718
  437MOL0     C57615  11.533   7.680   1.495 -0.2351  1.4749  0.2473
  437MOL0     C57616  11.504   7.794   1.490 -0.7707 -1.4911 -0.1904
  437MOL0     C57617  11.415   7.552   2.093  0.0355 -0.7011  0.1164
  437MOL0     C57618  11.431   7.535   2.237 -0.5446  0.4284  0.3655
  437MOL0     H57619  11.278   7.650   2.649  2.3959 -0.2708 -0.4003
  437MOL0     H57620  11.233   7.644   2.900  0.4832  0.1100 -0.0705
  437MOL0     H57621  11.430   7.467   3.251  2.0260 -2.3070  1.0207
  437MOL0     H57622  11.526   7.417   3.119  0.0008 -1.2171  1.9073
  437MOL0     H57623  11.386   7.195   3.107 -1.1414 -0.4674  0.3401
  437MOL0     H57624  11.293   7.264   3.232  0.6333 -2.5527 -0.9064
  437MOL0     H57625  11.501   7.311   3.363 -2.8000  0.9944 -0.3497
  437MOL0     H57626  11.593   7.200   3.252  0.1257 -0.7159  0.1565
  437MOL0     H57627  11.344   7.116   3.412  0.2583  1.0579 -0.2773
  437MOL0     H57628  11.452   7.012   3.326  0.1999  1.4099 -3.2338
  437MOL0     H57629  11.532   7.157   3.579 -0.5719 -0.5312  0.0036
  437MOL0     H57630  11.625   7.042   3.485 -0.5710 -2.0942 -3.7465
  437MOL0     H57631  11.370   6.965   3.599 -0.1968 -1.3520  0.6465
  437MOL0     H57632  11.533   6.949   3.679  2.1428 -0.1497 -1.2403
  437MOL0     H57633  11.433   6.816   3.427  0.4605  0.5330  0.2364
  437MOL0     H57634  11.600   6.814   3.471 -1.0594 -0.8146 -1.3073
  437MOL0     H57635  11.363   6.698   3.641  0.5833 -1.6615 -0.4514
  437MOL0     H57636  11.539   6.721   3.698  1.3536 -0.9435 -0.0735
  437MOL0     H57637  11.674   6.501   3.642 -2.6636  0.6183  1.0175
  437MOL0     H57638  11.790   6.325   3.485 -1.1975 -0.1382  0.5518
  437MOL0     H57639  11.695   6.252   3.342  0.0848 -0.7981 -0.2129
  437MOL0     H57640  11.687   6.165   3.631 -0.7810 -0.0718  0.3623
  437MOL0     H57641  11.734   6.076   3.491 -0.1334 -0.3829  0.7853
  437MOL0     H57642  11.472   6.084   3.598  0.7507 -1.4049 -0.4153
  437MOL0     H57643  11.457   6.185   3.459 -0.1859  0.3911 -0.6450
  437MOL0     H57644  11.597   5.929   3.447 -1.4300 -1.2480  0.4113
  437MOL0     H57645  11.526   6.020   3.307  1.5811 -0.7474  0.4065
  437MOL0     H57646  11.581   5.712   3.387 -0.3142  0.8745 -3.7938
  437MOL0     H57647  11.538   5.514   3.282  0.8983  0.6477  2.0062
  437MOL0     H57648  11.121   5.141   3.340 -0.9552  1.1222  0.0294
  437MOL0     H57649  11.067   4.919   3.227  1.2863  0.4801  0.7562
  437MOL0     H57650  11.240   4.818   3.051  2.4450 -3.2119 -1.0516
  437MOL0     H57651  11.250   4.849   2.878  0.4574 -1.0048 -0.6478
  437MOL0     H57652  11.258   4.626   2.884 -0.0582  0.6034 -1.7677
  437MOL0     H57653  11.091   4.665   2.837  1.3615  0.3950 -0.5384
  437MOL0     H57654  11.078   4.481   2.996  0.3369  0.2592  0.5096
  437MOL0     H57655  10.994   4.619   3.048 -0.3278  0.4835 -0.5530
  437MOL0     H57656  11.285   4.593   3.135 -0.5611  4.8328 -1.7391
  437MOL0     H57657  11.153   4.661   3.228 -4.3480  1.0960 -2.7889
  437MOL0     H57658  11.209   4.418   3.331  3.3945 -1.2591 -1.3542
  437MOL0     H57659  11.182   4.352   3.179 -0.8591  1.2976 -3.2194
  437MOL0     H57660  10.980   4.331   3.306  1.0120 -1.8470 -3.0510
  437MOL0     H57661  10.951   4.433   3.179  0.5089  1.5395 -0.4140
  437MOL0     H57662  11.026   4.565   3.455 -1.7511  0.9265  2.3037
  437MOL0     H57663  10.938   4.628   3.315  0.1245  0.7229  0.2590
  437MOL0     H57664  10.794   4.608   3.509 -0.0585 -1.4243  3.9193
  437MOL0     H57665  10.831   4.449   3.537 -0.0024  1.2316  0.4725
  437MOL0     H57666  11.068   5.124   2.848  0.1046 -0.6424 -1.1661
  437MOL0     H57667  11.108   5.331   2.953  1.5459  1.1970  1.4741
  437MOL0     H57668  11.125   5.588   3.298  0.5307 -0.3796 -1.5419
  437MOL0     H57669  11.179   5.835   3.334 -1.2438 -1.0376 -1.1865
  437MOL0     H57670  11.514   7.323   2.937 -1.7093 -0.7821  0.5027
  437MOL0     H57671  11.563   7.348   2.692 -0.2634  0.8269 -0.5039
  437MOL0     H57672  11.426   7.205   2.233  0.5713  0.5703 -0.2409
  437MOL0     H57673  11.470   7.243   1.996 -0.2790 -1.7275  1.8278
  437MOL0     H57674  11.288   7.346   1.818 -0.3869  1.3734 -0.3425
  437MOL0     H57675  11.443   7.279   1.804 -2.6719 -1.7794  1.6342
  437MOL0     H57676  11.346   7.378   1.575  3.0408 -0.6797 -2.2777
  437MOL0     H57677  11.348   7.538   1.661 -4.5557 -2.6006  1.5480
  437MOL0     H57678  11.567   7.357   1.569 -1.7349 -0.2684 -4.2390
  437MOL0     H57679  11.608   7.507   1.669 -0.3793 -1.1170 -0.1282
  437MOL0     H57680  11.666   7.516   1.455 -0.0752  0.8884 -0.6637
  437MOL0     H57681  11.501   7.495   1.396 -1.1158  1.8304  0.2806
  437MOL0     H57682  11.482   7.899   1.494  2.4128 -0.7070 -0.2772
  437MOL0     H57683  11.404   7.653   2.054  1.2170 -0.5780  0.0369
  437MOL0     H57684  11.412   7.628   2.290 -0.5181 -0.4109  1.9228
  438MOL0     O57685   1.792   0.815   3.622  0.1488 -0.0360 -0.5989
  438MOL0     C57686   1.805   0.921   3.571  0.4300 -0.4323 -0.2222
  438MOL0     O57687   1.709   0.990   3.501 -0.1795 -0.7281 -0.1875
  438MOL0     C57688   1.577   0.954   3.491  0.4612 -1.4423 -1.2653
  438MOL0     C57689   1.508   0.843   3.548  0.0045  0.3481 -0.1094
  438MOL0     C57690   1.385   0.788   3.506 -0.6224 -0.0668  1.0836
  438MOL0     C57691   1.322   0.860   3.401  0.3679  0.2036  0.2263
  438MOL0     O57692   1.205   0.820   3.361  0.2970  0.7724  0.5864
  438MOL0     C57693   1.221   0.699   3.288  0.5817 -1.1001 -0.4151
  438MOL0     C57694   1.073   0.661   3.250 -0.6540 -0.7981 -0.1045
  438MOL0     C57695   1.065   0.565   3.125  0.1788  0.8637 -0.8119
  438MOL0     C57696   1.153   0.599   3.006  0.7983 -0.6103 -0.7983
  438MOL0     C57697   1.106   0.527   2.875  0.1542 -0.3476 -0.2324
  438MOL0     C57698   1.090   0.376   2.897  0.3880 -0.0083  0.0922
  438MOL0     C57699   1.067   0.315   2.757  1.1318  0.1915 -0.1171
  438MOL0     C57700   1.080   0.160   2.760  0.5347 -0.2279  0.4418
  438MOL0     N57701   0.966   0.089   2.833  0.2035  1.3697  0.4263
  438MOL0     C57702   0.898  -0.022   2.782  0.5507 -0.7966 -0.7995
  438MOL0     C57703   0.839  -0.070   2.891  1.3352  0.5818  0.3432
  438MOL0     C57704   0.774  -0.208   2.897  0.6619  0.1840  0.1041
  438MOL0     C57705   0.771  -0.254   3.042  0.0243  0.0945 -0.5006
  438MOL0     C57706   0.744  -0.409   3.046 -0.9301  0.8361 -0.3192
  438MOL0     C57707   0.645  -0.485   2.960  0.2313  0.0434 -0.7963
  438MOL0     O57708   0.623  -0.625   3.009  0.5933 -0.7912  0.4138
  438MOL0     C57709   0.512  -0.680   2.949 -0.1425  0.2099  0.5184
  438MOL0     C57710   0.467  -0.804   2.998 -1.4495 -1.3182 -1.2770
  438MOL0     C57711   0.357  -0.861   2.947 -0.4351  0.2252 -0.6261
  438MOL0     C57712   0.293  -0.811   2.834  0.7212 -0.7816  0.2839
  438MOL0     C57713   0.171  -0.863   2.778 -0.0709  0.3089  0.0687
  438MOL0     O57714   0.157  -0.841   2.644  0.0206 -0.3899 -0.1756
  438MOL0     C57715   0.045  -0.872   2.580  0.3781  0.5755  0.5274
  438MOL0     C57716   0.002  -0.784   2.486 -0.5684 -0.7464 -0.6391
  438MOL0     C57717  -0.105  -0.803   2.407 -0.9037 -0.1588  0.2740
  438MOL0     C57718  -0.183  -0.920   2.408 -0.4556 -0.1586  0.2674
  438MOL0     O57719  -0.289  -0.922   2.331  0.2504 -1.3112  0.3074
  438MOL0     C57720  -0.399  -1.010   2.364 -0.6604 -0.0345  0.0262
  438MOL0     C57721  -0.514  -1.015   2.263 -0.5321  0.2619 -0.5964
  438MOL0     C57722  -0.635  -1.080   2.319  0.7047 -0.0653 -0.6356
  438MOL0     C57723  -0.750  -1.060   2.214  0.0707 -0.5376 -0.3563
  438MOL0     C57724  -0.879  -1.141   2.242  0.2923 -0.7504  0.0750
  438MOL0     C57725  -1.005  -1.100   2.165 -0.6879  0.3159 -0.5074
  438MOL0     C57726  -0.974  -1.129   2.019  0.6189 -0.4009 -0.2220
  438MOL0     C57727  -1.077  -1.040   1.934  0.0597  0.2632  0.0468
  438MOL0    Cl57728  -1.128  -1.110   1.772  0.0316 -0.6080  0.2224
  438MOL0     C57729  -0.141  -1.013   2.502 -0.8599  0.3141 -0.0654
  438MOL0     C57730  -0.026  -0.991   2.584  0.9379 -0.4024  0.6356
  438MOL0     O57731   0.107  -0.927   2.856  0.3454  0.1415  0.3409
  438MOL0     C57732   0.360  -0.706   2.760 -0.2120 -0.3619 -0.1529
  438MOL0     C57733   0.461  -0.632   2.825 -0.0359 -0.2428  0.0817
  438MOL0     N57734   0.861   0.007   3.001  0.1691  0.2032  0.3971
  438MOL0     N57735   0.944   0.102   2.965  0.1710  1.6437  0.3575
  438MOL0     C57736   1.374   0.981   3.355 -0.5227 -0.5033 -0.0712
  438MOL0     C57737   1.503   1.022   3.403 -0.4257 -0.2021  0.5438
  438MOL0     C57738   1.928   1.006   3.585 -0.2886 -0.2127  0.6423
  438MOL0     C57739   1.923   1.140   3.563 -0.9164  0.0403 -0.5849
  438MOL0     C57740   2.042   1.211   3.581  0.3935 -0.0819  0.4538
  438MOL0     C57741   2.158   1.157   3.625 -0.0809 -0.2723 -0.3921
  438MOL0     O57742   2.275   1.231   3.640 -0.0913 -0.3689  0.4149
  438MOL0     C57743   2.267   1.380   3.635 -0.1114  0.7803  0.2138
  438MOL0     C57744   2.397   1.450   3.688 -0.3953 -0.0444  0.1619
  438MOL0     C57745   2.380   1.596   3.673  0.0350  1.1328  0.7141
  438MOL0     C57746   2.479   1.676   3.751  0.6229 -0.3526 -1.0627
  438MOL0     C57747   2.458   1.821   3.739 -0.3484 -0.2515 -0.0083
  438MOL0     C57748   2.446   1.945   3.727  0.3138 -0.2896 -0.4439
  438MOL0     C57749   2.163   1.026   3.659 -0.5330 -0.0317 -0.0250
  438MOL0     C57750   2.042   0.948   3.643  0.5388 -0.6142 -0.1860
  438MOL0     H57751   1.557   0.811   3.640  2.3315  4.3366  0.2716
  438MOL0     H57752   1.349   0.693   3.544  0.6532 -2.3244 -2.7375
  438MOL0     H57753   1.267   0.621   3.349  1.4284 -2.1434 -2.3290
  438MOL0     H57754   1.286   0.719   3.203 -1.4652 -1.1733 -2.0823
  438MOL0     H57755   1.020   0.747   3.207 -1.6617 -2.1747 -1.7283
  438MOL0     H57756   1.027   0.626   3.343 -0.5995 -1.4912 -0.3392
  438MOL0     H57757   0.963   0.548   3.090  1.0760 -2.8056 -1.9910
  438MOL0     H57758   1.098   0.468   3.161  1.4503  1.3624 -0.5803
  438MOL0     H57759   1.151   0.704   2.975  2.2100 -0.7375 -1.3714
  438MOL0     H57760   1.255   0.562   3.014  1.6415  1.3196 -1.7639
  438MOL0     H57761   1.195   0.540   2.813  0.5835 -0.1743  0.4047
  438MOL0     H57762   1.014   0.564   2.830 -0.3864 -3.2169 -1.7450
  438MOL0     H57763   1.007   0.350   2.963  2.8097 -2.0345  2.6223
  438MOL0     H57764   1.178   0.324   2.938  0.5019  0.0088 -0.1271
  438MOL0     H57765   0.965   0.339   2.726  0.3605 -0.2343  1.9384
  438MOL0     H57766   1.142   0.355   2.688 -1.0773  4.5530 -0.3380
  438MOL0     H57767   1.181   0.141   2.797  0.6562 -0.9350 -0.2241
  438MOL0     H57768   1.072   0.121   2.658 -0.0693 -1.4160  0.9163
  438MOL0     H57769   0.887  -0.062   2.682  0.0998 -0.7409 -0.7734
  438MOL0     H57770   0.814  -0.289   2.837 -1.6027 -0.3074 -0.8722
  438MOL0     H57771   0.677  -0.193   2.848  0.4635 -1.0206  0.0854
  438MOL0     H57772   0.689  -0.202   3.093 -0.2764 -1.0542  0.2464
  438MOL0     H57773   0.864  -0.229   3.093 -0.6060 -0.1293  0.8090
  438MOL0     H57774   0.838  -0.454   3.012 -2.0993 -0.8997 -1.3900
  438MOL0     H57775   0.744  -0.433   3.152 -1.1277  2.0154 -0.0395
  438MOL0     H57776   0.688  -0.479   2.860 -2.6161 -0.3050 -2.1508
  438MOL0     H57777   0.546  -0.441   2.977  0.1197 -1.0221  1.9142
  438MOL0     H57778   0.518  -0.820   3.093  1.5124  5.8396 -0.9412
  438MOL0     H57779   0.314  -0.951   2.991 -0.5202  0.3526 -0.4486
  438MOL0     H57780   0.049  -0.686   2.487 -2.0720  0.0105  0.4010
  438MOL0     H57781  -0.134  -0.735   2.327  2.3236  0.5964 -0.3701
  438MOL0     H57782  -0.424  -0.970   2.463 -0.9036  1.9946 -0.8106
  438MOL0     H57783  -0.373  -1.115   2.383 -0.3056  0.0111 -0.2033
  438MOL0     H57784  -0.487  -1.067   2.171 -3.2892  0.4004 -1.5860
  438MOL0     H57785  -0.540  -0.910   2.245 -1.1775 -0.1196 -2.0135
  438MOL0     H57786  -0.674  -1.029   2.408 -0.9342  1.9311 -2.3878
  438MOL0     H57787  -0.618  -1.181   2.356  0.5274  0.1838  0.1446
  438MOL0     H57788  -0.791  -0.959   2.223  0.0797 -0.4358 -1.3625
  438MOL0     H57789  -0.700  -1.080   2.119 -0.3003 -1.7708 -0.3221
  438MOL0     H57790  -0.894  -1.129   2.350 -1.9637  0.3059 -0.3179
  438MOL0     H57791  -0.846  -1.241   2.214  0.6630  0.1609 -3.1827
  438MOL0     H57792  -1.032  -0.996   2.183 -0.0713  0.0664  2.4509
  438MOL0     H57793  -1.102  -1.148   2.184 -1.6470  2.0575 -0.8291
  438MOL0     H57794  -0.869  -1.105   2.000  1.1220 -2.2442 -0.0129
  438MOL0     H57795  -0.994  -1.235   2.002 -0.3806 -0.3199  0.3946
  438MOL0     H57796  -1.039  -0.939   1.917 -1.2880  0.6709 -0.6474
  438MOL0     H57797  -1.171  -1.016   1.983 -1.1277  1.3256 -2.5359
  438MOL0     H57798  -0.193  -1.105   2.522 -1.4422  1.0933  2.3553
  438MOL0     H57799   0.002  -1.063   2.660  0.6132 -1.4839 -0.2442
  438MOL0     H57800   0.333  -0.685   2.657 -3.1825 -3.8016 -0.2881
  438MOL0     H57801   0.505  -0.544   2.780 -1.1547  1.6888  2.5169
  438MOL0     H57802   1.310   1.045   3.295 -0.1805  3.1276  3.0623
  438MOL0     H57803   1.551   1.107   3.355  0.0263 -2.1911 -2.7968
  438MOL0     H57804   1.839   1.195   3.522  0.6308  3.5958  0.6921
  438MOL0     H57805   2.045   1.317   3.556  0.8101  0.0797  1.1568
  438MOL0     H57806   2.174   1.417   3.677 -1.2811 -2.0045  0.3348
  438MOL0     H57807   2.267   1.414   3.531  2.4594 -2.0056 -0.8559
  438MOL0     H57808   2.403   1.426   3.795  1.9348 -0.1713  0.0624
  438MOL0     H57809   2.491   1.413   3.646 -0.3490 -1.4326  1.4035
  438MOL0     H57810   2.278   1.615   3.706 -0.2336 -1.1017  1.3423
  438MOL0     H57811   2.388   1.623   3.567  1.9186 -0.2296  0.4577
  438MOL0     H57812   2.480   1.641   3.855 -0.8675 -0.0957 -0.9275
  438MOL0     H57813   2.578   1.649   3.715  1.7204  1.7161  0.1936
  438MOL0     H57814   2.442   2.050   3.709  1.6664 -0.1749 -0.1793
  438MOL0     H57815   2.250   0.994   3.715 -1.2606 -0.4150  0.9262
  438MOL0     H57816   2.030   0.841   3.655  0.4213 -1.3103 -4.6379
  439MOL0     O57817   6.378   4.723   7.986  0.1340 -1.1833  0.3832
  439MOL0     C57818   6.321   4.834   8.015 -0.0539 -0.5638 -0.0276
  439MOL0     O57819   6.381   4.954   7.991  0.5551  0.6634  0.7936
  439MOL0     C57820   6.513   4.947   7.967 -0.2498 -0.0761  0.0795
  439MOL0     C57821   6.600   4.879   8.054 -0.9636 -0.6892 -0.5896
  439MOL0     C57822   6.738   4.887   8.027  0.0943 -0.1460  0.2266
  439MOL0     C57823   6.779   4.957   7.910  0.1873  0.4549 -0.6836
  439MOL0     O57824   6.898   4.925   7.856  0.5014 -0.1875 -0.5275
  439MOL0     C57825   6.940   4.992   7.742  0.1938  0.9149  0.4543
  439MOL0     C57826   7.091   4.953   7.730  0.1326  0.5007 -0.5991
  439MOL0     C57827   7.160   5.017   7.611 -0.2040 -0.0491 -0.2369
  439MOL0     C57828   7.306   4.981   7.593 -1.2802  0.1027 -0.1642
  439MOL0     C57829   7.366   5.047   7.475  0.2432 -0.4139 -0.0074
  439MOL0     C57830   7.498   4.961   7.437  0.1409 -0.0498 -0.2420
  439MOL0     C57831   7.577   4.896   7.539 -1.0534  0.2138  1.3106
  439MOL0     C57832   7.651   4.995   7.631 -1.3902 -0.5636  0.1173
  439MOL0     N57833   7.728   4.937   7.745  0.2496  0.4132  0.1862
  439MOL0     C57834   7.681   4.929   7.875  1.5899 -1.2225 -0.4410
  439MOL0     C57835   7.774   4.863   7.946  0.5109 -1.2617 -0.1320
  439MOL0     C57836   7.776   4.841   8.099 -0.2611  0.5871  0.0479
  439MOL0     C57837   7.820   4.713   8.144 -0.5003  1.1837 -0.2242
  439MOL0     C57838   7.810   4.697   8.289  0.3383 -0.5706  0.9492
  439MOL0     C57839   7.856   4.570   8.340 -0.6805 -1.3173  0.0052
  439MOL0     O57840   7.823   4.451   8.260 -0.3581  0.3630  0.7785
  439MOL0     C57841   7.694   4.419   8.264  0.6748 -0.2874  0.4487
  439MOL0     C57842   7.613   4.383   8.379 -0.3835  0.5101 -0.1885
  439MOL0     C57843   7.485   4.327   8.369  0.7659 -0.2080 -1.0544
  439MOL0     C57844   7.424   4.318   8.247  0.5652 -0.0111  0.4363
  439MOL0     C57845   7.281   4.261   8.233  1.1563  0.3078 -0.1682
  439MOL0     O57846   7.211   4.228   8.342 -0.4518  0.2910 -0.2992
  439MOL0     C57847   7.074   4.229   8.348  0.2938  0.8386  0.4524
  439MOL0     C57848   6.981   4.283   8.255 -0.2410  1.2353  0.1705
  439MOL0     C57849   6.845   4.259   8.275 -0.0972  0.2578  0.8815
  439MOL0     C57850   6.803   4.187   8.385  0.1754  0.6285 -0.5120
  439MOL0     O57851   6.672   4.157   8.402 -0.3095 -0.2832 -0.2512
  439MOL0     C57852   6.603   4.235   8.505  0.6741  0.8166 -0.1603
  439MOL0     C57853   6.478   4.162   8.548 -0.6893 -0.1341 -0.8879
  439MOL0     C57854   6.398   4.255   8.650 -0.2318 -0.3323 -0.1280
  439MOL0     C57855   6.266   4.163   8.674  0.5804  0.8988  0.3158
  439MOL0     C57856   6.152   4.247   8.736  0.2868 -0.1910  0.2817
  439MOL0     C57857   6.116   4.381   8.662 -0.2502  0.0533  0.2184
  439MOL0     C57858   5.969   4.409   8.672  0.1482 -0.1334  0.1007
  439MOL0     C57859   5.883   4.312   8.584  0.2942 -0.5309  0.3236
  439MOL0    Cl57860   5.885   4.358   8.403 -0.4638 -0.6534  0.1647
  439MOL0     C57861   6.890   4.135   8.469  0.0907  0.2536 -0.4483
  439MOL0     C57862   7.028   4.154   8.451 -0.5825  0.5070 -1.1396
  439MOL0     O57863   7.241   4.230   8.120  0.6594 -0.0306  0.9429
  439MOL0     C57864   7.499   4.354   8.137 -0.0391  0.7476  0.2974
  439MOL0     C57865   7.632   4.398   8.137  1.0817 -0.3413  0.6497
  439MOL0     N57866   7.864   4.815   7.862  0.2495  0.5793  0.3032
  439MOL0     N57867   7.834   4.845   7.735  0.0409  0.3921  0.1025
  439MOL0     C57868   6.691   5.028   7.834  0.5503 -0.3448 -1.1215
  439MOL0     C57869   6.552   5.033   7.868 -0.7760  0.0166 -0.6647
  439MOL0     C57870   6.179   4.827   8.071 -0.9816 -0.5899  0.3783
  439MOL0     C57871   6.099   4.711   8.061 -0.1454  0.4613 -0.0750
  439MOL0     C57872   5.971   4.705   8.128  0.1102  0.4744 -0.0547
  439MOL0     C57873   5.930   4.811   8.208 -0.5074 -0.3145  0.6683
  439MOL0     O57874   5.811   4.827   8.273 -0.3004 -0.1137  0.1777
  439MOL0     C57875   5.702   4.740   8.243  0.2064 -0.2091  0.9128
  439MOL0     C57876   5.580   4.780   8.322  0.2480 -0.6615  0.5424
  439MOL0     C57877   5.587   4.700   8.457 -0.2566  0.3576 -0.1072
  439MOL0     C57878   5.725   4.700   8.528 -0.2185  0.9992  0.0797
  439MOL0     C57879   5.724   4.640   8.664 -0.5067  0.6949  0.7847
  439MOL0     C57880   5.709   4.589   8.769  0.3455  0.3690 -1.4112
  439MOL0     C57881   6.015   4.920   8.221 -0.5007  0.4370 -1.1283
  439MOL0     C57882   6.134   4.937   8.149  0.4089 -0.4267  0.1216
  439MOL0     H57883   6.558   4.824   8.138  0.3274 -4.0665 -1.9769
  439MOL0     H57884   6.820   4.822   8.058 -0.1158  0.1221  1.3784
  439MOL0     H57885   6.940   5.101   7.750  1.8289  1.0715 -1.0230
  439MOL0     H57886   6.890   4.970   7.647  1.0452 -0.0112  0.2053
  439MOL0     H57887   7.091   4.848   7.699  0.4183  0.5760 -0.8606
  439MOL0     H57888   7.147   4.979   7.820 -0.8126 -1.5678  0.6549
  439MOL0     H57889   7.167   5.125   7.627  2.8514 -0.3697  1.3390
  439MOL0     H57890   7.094   4.993   7.526 -2.1853 -1.6177  1.6444
  439MOL0     H57891   7.361   5.009   7.683  0.5247 -1.1587 -0.8137
  439MOL0     H57892   7.311   4.872   7.585 -3.4172 -0.2873  2.3994
  439MOL0     H57893   7.382   5.152   7.501  0.7942 -0.0210 -1.7865
  439MOL0     H57894   7.292   5.052   7.394 -0.0146 -1.0490  0.1850
  439MOL0     H57895   7.557   5.027   7.373 -0.2653  0.0850 -0.4842
  439MOL0     H57896   7.469   4.871   7.381 -0.9257  0.4411 -0.4940
  439MOL0     H57897   7.510   4.832   7.598  0.7690 -1.3735  1.7435
  439MOL0     H57898   7.650   4.831   7.491 -0.0376  0.7475  2.0994
  439MOL0     H57899   7.588   5.074   7.673 -0.9264  0.4934 -1.0958
  439MOL0     H57900   7.730   5.043   7.573 -0.9592 -1.4397 -0.0389
  439MOL0     H57901   7.589   4.980   7.904  1.6721 -0.7126 -1.0496
  439MOL0     H57902   7.674   4.858   8.134  1.1122  3.0712  3.4016
  439MOL0     H57903   7.825   4.924   8.149  1.5563 -0.1225 -0.4705
  439MOL0     H57904   7.925   4.719   8.113 -0.1348  0.3019  0.7470
  439MOL0     H57905   7.782   4.624   8.094 -3.8295  1.4496  1.5607
  439MOL0     H57906   7.869   4.774   8.340 -0.5231  0.2922  0.6726
  439MOL0     H57907   7.706   4.704   8.324 -0.1799 -0.4883 -0.5502
  439MOL0     H57908   7.821   4.558   8.443 -1.5471  0.3778 -0.0625
  439MOL0     H57909   7.965   4.575   8.347 -0.3238  0.9729 -4.1071
  439MOL0     H57910   7.658   4.376   8.477 -0.9909 -3.2122 -0.0117
  439MOL0     H57911   7.434   4.327   8.464  1.7191 -0.1033 -0.5338
  439MOL0     H57912   7.004   4.337   8.164  0.2077 -0.9675 -1.0915
  439MOL0     H57913   6.766   4.293   8.208  1.4510  2.2325 -0.0400
  439MOL0     H57914   6.582   4.340   8.478 -0.5474  1.1532  1.9127
  439MOL0     H57915   6.646   4.236   8.605 -1.7879 -0.0844  0.9825
  439MOL0     H57916   6.513   4.071   8.596 -1.1084  1.3734  2.6071
  439MOL0     H57917   6.414   4.141   8.461 -2.9992  1.6713  0.2481
  439MOL0     H57918   6.355   4.346   8.607  0.2415 -1.8048 -4.1410
  439MOL0     H57919   6.458   4.282   8.737  3.4091  1.9296 -3.0539
  439MOL0     H57920   6.237   4.116   8.580 -1.5137  0.9124  0.9078
  439MOL0     H57921   6.280   4.079   8.743  1.4377  0.3980 -0.4426
  439MOL0     H57922   6.183   4.273   8.837 -0.9947  1.3656  0.3140
  439MOL0     H57923   6.056   4.195   8.745  0.0782  0.3520  1.4148
  439MOL0     H57924   6.140   4.375   8.556 -1.9037  0.7408 -0.2236
  439MOL0     H57925   6.170   4.467   8.704 -0.2436  0.3934 -0.4768
  439MOL0     H57926   5.935   4.413   8.776  0.4181  0.9577  0.1605
  439MOL0     H57927   5.966   4.510   8.628 -0.0630  0.6660  1.8715
  439MOL0     H57928   5.780   4.317   8.620 -1.1320 -2.8757 -2.8947
  439MOL0     H57929   5.911   4.207   8.577 -1.8322 -1.0472 -4.7320
  439MOL0     H57930   6.850   4.066   8.543  0.5505  0.3359 -0.1115
  439MOL0     H57931   7.100   4.104   8.515 -1.7008 -3.7810 -2.9240
  439MOL0     H57932   7.459   4.328   8.040 -1.5398 -0.5539  1.2108
  439MOL0     H57933   7.680   4.422   8.043  0.6101  1.1296  0.7632
  439MOL0     H57934   6.719   5.078   7.742  2.1282  1.6241  0.3375
  439MOL0     H57935   6.472   5.097   7.831 -4.8679 -4.1276  0.0214
  439MOL0     H57936   6.130   4.623   8.005 -0.9282  0.7490 -1.0028
  439MOL0     H57937   5.908   4.618   8.117  1.0139 -0.1414 -0.5296
  439MOL0     H57938   5.726   4.636   8.268  1.2435 -0.4944 -1.0815
  439MOL0     H57939   5.677   4.748   8.137  1.3287  2.7600  0.7665
  439MOL0     H57940   5.582   4.889   8.338  1.3452 -0.6361  0.3469
  439MOL0     H57941   5.494   4.750   8.262  0.2748  1.7128 -0.8283
  439MOL0     H57942   5.551   4.598   8.439  0.1413 -0.2284  2.1321
  439MOL0     H57943   5.516   4.750   8.525 -0.0275  4.3977 -2.5023
  439MOL0     H57944   5.794   4.644   8.464 -0.7378  1.9488 -1.3671
  439MOL0     H57945   5.754   4.805   8.527  0.3038  0.8976 -2.7000
  439MOL0     H57946   5.672   4.527   8.847  0.6589  0.5820 -1.0916
  439MOL0     H57947   5.991   5.004   8.284  0.3720  0.5071 -0.8721
  439MOL0     H57948   6.197   5.026   8.152  0.9149 -0.8000  0.9487
  440MOL0     O57949   8.620  10.497   1.594  0.3157 -0.7197  0.6486
  440MOL0     C57950   8.707  10.411   1.601  0.1106  0.1014 -0.0825
  440MOL0     O57951   8.828  10.420   1.545  0.3227 -0.5729  0.1707
  440MOL0     C57952   8.871  10.544   1.491  0.6134  0.9514 -0.2501
  440MOL0     C57953   8.892  10.658   1.570 -1.0546 -0.5258  1.1919
  440MOL0     C57954   8.931  10.774   1.505 -0.6379 -0.5016  0.3041
  440MOL0     C57955   8.944  10.785   1.366 -0.4026  0.8667  0.1561
  440MOL0     O57956   8.981  10.913   1.323 -0.0121  0.3901 -0.3691
  440MOL0     C57957   9.046  10.934   1.193 -1.1029 -0.9917 -0.9164
  440MOL0     C57958   9.203  10.957   1.214 -0.3378  0.1842  0.1398
  440MOL0     C57959   9.275  10.823   1.252 -0.5464  0.0856  0.5121
  440MOL0     C57960   9.413  10.857   1.319 -0.0456  0.4139  0.3238
  440MOL0     C57961   9.460  10.759   1.424 -0.8380 -0.7629  0.9968
  440MOL0     C57962   9.614  10.764   1.459 -0.2109  0.0277 -0.0135
  440MOL0     C57963   9.657  10.861   1.571 -0.6738  0.3641  0.3709
  440MOL0     C57964   9.796  10.815   1.627 -0.8876  0.8467  0.4087
  440MOL0     N57965   9.898  10.841   1.530  0.4540 -0.2064  0.2547
  440MOL0     C57966   9.937  10.964   1.495  0.5819 -1.3706  1.4092
  440MOL0     C57967  10.049  10.938   1.418  0.3025 -0.6590 -0.0523
  440MOL0     C57968  10.156  11.034   1.373  0.0600 -0.1951 -0.0010
  440MOL0     C57969  10.300  10.986   1.406  0.6756  1.0876  0.5435
  440MOL0     C57970  10.371  11.080   1.480 -0.5944  0.1272 -0.0814
  440MOL0     C57971  10.510  11.030   1.531  0.1791  0.7833 -0.5167
  440MOL0     O57972  10.492  10.935   1.635 -0.5997 -0.6389 -1.0306
  440MOL0     C57973  10.598  10.876   1.696 -0.2042  0.8742  0.2497
  440MOL0     C57974  10.736  10.916   1.687  1.2026  0.4309  0.7752
  440MOL0     C57975  10.837  10.830   1.730 -0.8707  0.7586  0.0661
  440MOL0     C57976  10.806  10.710   1.800 -0.7605 -0.6221 -0.3756
  440MOL0     C57977  10.920  10.627   1.851 -0.7222 -0.1908 -1.1318
  440MOL0     O57978  11.041  10.637   1.797  0.0187 -0.0213 -0.6103
  440MOL0     C57979  11.142  10.565   1.845 -0.0741  0.7406  0.6920
  440MOL0     C57980  11.196  10.591   1.973  0.2470 -0.6928  0.2529
  440MOL0     C57981  11.309  10.524   2.015  0.2080  0.6199 -0.5527
  440MOL0     C57982  11.367  10.419   1.950  0.5265 -0.1195 -0.4228
  440MOL0     O57983  11.460  10.333   2.008  0.9702  0.0426 -0.3548
  440MOL0     C57984  11.481  10.332   2.160  0.0759 -1.3771  0.6469
  440MOL0     C57985  11.555  10.210   2.210 -0.4023 -0.6759 -0.2573
  440MOL0     C57986  11.708  10.219   2.168  0.2628 -0.8350 -0.1738
  440MOL0     C57987  11.805  10.160   2.271 -0.5783 -0.0374  0.8661
  440MOL0     C57988  11.802  10.236   2.402  0.3711 -0.1144 -0.5250
  440MOL0     C57989  11.902  10.171   2.500  0.3854  0.6210  0.3240
  440MOL0     C57990  11.913  10.238   2.642  0.8567 -0.4957 -0.1227
  440MOL0     C57991  11.815  10.165   2.737 -0.8385  0.0024  0.6043
  440MOL0    Cl57992  11.839  10.227   2.908 -0.4535 -0.0193  0.1475
  440MOL0     C57993  11.301  10.383   1.833  0.2778 -0.0091 -0.9737
  440MOL0     C57994  11.198  10.455   1.777  0.1095 -0.9405  0.8368
  440MOL0     O57995  10.891  10.554   1.942  0.1242  0.9214  0.7723
  440MOL0     C57996  10.673  10.681   1.821  0.1345 -0.1948  0.7309
  440MOL0     C57997  10.572  10.763   1.770 -0.1829  0.9889 -0.8909
  440MOL0     N57998  10.047  10.805   1.386 -0.3561  0.0729  0.6643
  440MOL0     N57999   9.953  10.747   1.447 -0.7071  0.5683 -0.1748
  440MOL0     C58000   8.926  10.671   1.291  0.2502  0.0660  0.3570
  440MOL0     C58001   8.887  10.554   1.349  0.8618  0.2289  0.2900
  440MOL0     C58002   8.672  10.293   1.667 -0.1173 -0.0203 -0.7339
  440MOL0     C58003   8.537  10.254   1.706 -0.2687  0.4804 -0.0889
  440MOL0     C58004   8.514  10.140   1.783  0.7553  0.9038 -0.6857
  440MOL0     C58005   8.614  10.052   1.831  0.8595  0.0493  0.4600
  440MOL0     O58006   8.574   9.936   1.900 -0.5374  0.2196  0.1675
  440MOL0     C58007   8.658   9.888   2.002 -0.1018  0.4963 -0.0177
  440MOL0     C58008   8.714   9.745   1.970  0.5227  0.7421 -0.2410
  440MOL0     C58009   8.609   9.638   1.941  0.2561 -0.2897 -0.6480
  440MOL0     C58010   8.536   9.654   1.804  0.2163  0.6394  0.2828
  440MOL0     C58011   8.504   9.517   1.763 -0.1070 -0.3927 -0.2896
  440MOL0     C58012   8.467   9.412   1.713 -0.2258  0.3240  0.6330
  440MOL0     C58013   8.739  10.091   1.805 -0.0390 -0.5732  0.1155
  440MOL0     C58014   8.771  10.208   1.728  0.0735 -0.9087 -0.3470
  440MOL0     H58015   8.884  10.652   1.678  2.1894 -1.7475  1.4968
  440MOL0     H58016   8.960  10.861   1.563 -0.9620 -0.1337 -0.0784
  440MOL0     H58017   9.005  11.030   1.162  3.4666  1.4766 -0.2034
  440MOL0     H58018   9.017  10.858   1.119  0.7697 -1.4701 -1.2074
  440MOL0     H58019   9.216  11.029   1.295  0.4387 -1.6281  1.6986
  440MOL0     H58020   9.254  11.003   1.129 -1.5311 -3.5566 -2.8828
  440MOL0     H58021   9.294  10.763   1.163  1.5414  0.9384  0.3174
  440MOL0     H58022   9.210  10.766   1.320 -2.9474 -0.6175 -2.1888
  440MOL0     H58023   9.497  10.866   1.250  1.8908  1.0097  2.6154
  440MOL0     H58024   9.415  10.952   1.372  2.3390 -0.7696  2.5712
  440MOL0     H58025   9.459  10.656   1.388  1.5678 -0.5582  0.1892
  440MOL0     H58026   9.394  10.763   1.512 -3.1791  0.7535 -0.7143
  440MOL0     H58027   9.667  10.774   1.364 -0.5663 -0.0248 -0.2217
  440MOL0     H58028   9.640  10.663   1.493  0.6132  0.0794 -0.4698
  440MOL0     H58029   9.668  10.961   1.529 -0.5301 -0.0505 -0.5877
  440MOL0     H58030   9.584  10.853   1.653 -1.2535 -0.3598 -0.2119
  440MOL0     H58031   9.800  10.707   1.647 -1.9700  0.3133 -1.9930
  440MOL0     H58032   9.828  10.857   1.723  0.8855  2.7379 -0.9219
  440MOL0     H58033   9.900  11.061   1.527 -2.1986 -2.9461  3.4268
  440MOL0     H58034  10.134  11.128   1.422  1.4331 -0.6819  1.6403
  440MOL0     H58035  10.150  11.055   1.265  1.6018  2.9128  0.4108
  440MOL0     H58036  10.359  10.951   1.321 -0.8547 -3.6714  1.1346
  440MOL0     H58037  10.288  10.901   1.475 -0.1384  0.4460 -0.3666
  440MOL0     H58038  10.390  11.158   1.405  0.4193 -1.0553 -1.0810
  440MOL0     H58039  10.315  11.121   1.565  0.6523  0.5617  0.5511
  440MOL0     H58040  10.559  11.120   1.571  0.9367  1.1143 -2.1086
  440MOL0     H58041  10.563  10.979   1.450  1.3745  1.3464 -0.1083
  440MOL0     H58042  10.766  11.008   1.637  2.3203 -1.8905 -3.1897
  440MOL0     H58043  10.936  10.872   1.717 -1.1318  1.4496  0.2851
  440MOL0     H58044  11.153  10.663   2.041 -0.9077 -0.4919 -0.6681
  440MOL0     H58045  11.354  10.533   2.113  2.1279 -2.7962 -0.9845
  440MOL0     H58046  11.388  10.341   2.216  0.3464 -1.0181  1.0449
  440MOL0     H58047  11.540  10.417   2.197 -2.0472 -0.0617  1.1558
  440MOL0     H58048  11.518  10.117   2.164  0.5299 -0.6050 -1.1956
  440MOL0     H58049  11.546  10.210   2.319  3.9499 -1.7740  0.2923
  440MOL0     H58050  11.737  10.322   2.146  2.9580 -1.7413 -1.2431
  440MOL0     H58051  11.716  10.185   2.065  2.0464  0.3190 -0.4595
  440MOL0     H58052  11.786  10.054   2.289 -2.5154 -0.1541 -1.4059
  440MOL0     H58053  11.902  10.165   2.219  0.5177  1.1322  2.8775
  440MOL0     H58054  11.707  10.234   2.456  1.6987 -1.8791  1.9620
  440MOL0     H58055  11.814  10.345   2.395  1.2129 -0.1382  0.2862
  440MOL0     H58056  11.993  10.161   2.439 -1.5666 -3.0146 -2.3572
  440MOL0     H58057  11.854  10.075   2.522 -0.2107  0.5198 -1.2787
  440MOL0     H58058  12.016  10.232   2.680  0.9470  1.1874 -0.0370
  440MOL0     H58059  11.889  10.343   2.625  0.3967 -0.8408 -1.7948
  440MOL0     H58060  11.837  10.057   2.736  2.1910  0.5211 -1.4096
  440MOL0     H58061  11.714  10.186   2.702 -0.0810  0.4200 -1.4653
  440MOL0     H58062  11.336  10.288   1.793 -0.2802 -0.5113 -0.2834
  440MOL0     H58063  11.159  10.423   1.681  0.3442  2.5758 -0.5605
  440MOL0     H58064  10.643  10.598   1.884 -0.0890  0.0397  0.9308
  440MOL0     H58065  10.469  10.751   1.802 -0.2869  3.5085 -0.0358
  440MOL0     H58066   8.925  10.675   1.182  1.1862  1.0356  0.3622
  440MOL0     H58067   8.861  10.475   1.280 -0.6465 -2.8606  4.0097
  440MOL0     H58068   8.452  10.317   1.682 -1.9673 -2.0439 -1.1377
  440MOL0     H58069   8.415  10.109   1.818 -0.3747  1.2518 -3.3442
  440MOL0     H58070   8.598   9.886   2.093  0.9631  1.7392  0.7482
  440MOL0     H58071   8.739   9.961   2.012 -1.6674  2.4975 -1.1126
  440MOL0     H58072   8.791   9.751   1.893  2.8618 -1.8820  1.6451
  440MOL0     H58073   8.760   9.711   2.064  0.5328  1.5712  0.0607
  440MOL0     H58074   8.529   9.643   2.016 -0.1806  4.0610 -1.1020
  440MOL0     H58075   8.654   9.539   1.949 -0.7263 -0.6230  2.1090
  440MOL0     H58076   8.446   9.713   1.820 -1.1769 -1.5102  0.7752
  440MOL0     H58077   8.603   9.690   1.726  1.1474  2.0395  1.6751
  440MOL0     H58078   8.447   9.322   1.660  0.3648 -0.5183  1.7946
  440MOL0     H58079   8.823  10.031   1.840 -0.3809  0.1471  2.2958
  440MOL0     H58080   8.877  10.228   1.721  0.0538  3.3460  4.8395
  441MOL0     O58081   2.986   2.003   3.238 -0.4494  0.0509 -0.2112
  441MOL0     C58082   2.898   2.007   3.147  0.2979  0.0527  0.2559
  441MOL0     O58083   2.895   2.095   3.051 -0.1039 -0.9906 -0.4298
  441MOL0     C58084   2.961   2.213   3.063  0.4297  0.1896 -0.0215
  441MOL0     C58085   3.072   2.237   2.969  1.1788 -0.4655 -0.3298
  441MOL0     C58086   3.140   2.357   2.988  0.4261 -0.4795 -0.7031
  441MOL0     C58087   3.114   2.447   3.094  0.4060  0.3236 -0.7172
  441MOL0     O58088   3.178   2.564   3.126  0.1956 -0.2121 -0.7320
  441MOL0     C58089   3.295   2.597   3.052 -0.5938  0.4447 -0.0300
  441MOL0     C58090   3.359   2.721   3.100 -0.0951  0.7537  0.6991
  441MOL0     C58091   3.508   2.723   3.075  1.1791  0.4982  0.0874
  441MOL0     C58092   3.574   2.827   3.162  0.2528  0.7533  0.3862
  441MOL0     C58093   3.714   2.844   3.114 -0.1084  0.6308  0.3908
  441MOL0     C58094   3.787   2.914   3.223 -0.1848  0.1003  1.3613
  441MOL0     C58095   3.930   2.940   3.184  0.0988  0.4354  0.5382
  441MOL0     C58096   4.034   2.874   3.274  0.4363  1.0071  0.3972
  441MOL0     N58097   4.166   2.873   3.215  0.0622 -0.0556 -0.0039
  441MOL0     C58098   4.251   2.981   3.198  0.1973 -1.1520  0.2928
  441MOL0     C58099   4.362   2.935   3.134 -0.2439  0.5075  0.3582
  441MOL0     C58100   4.488   3.012   3.110 -0.4843  0.2097  0.6152
  441MOL0     C58101   4.586   2.998   3.225 -0.6032  0.5620  0.7363
  441MOL0     C58102   4.720   3.064   3.185 -0.1120 -0.0116  0.0074
  441MOL0     C58103   4.798   2.986   3.085  1.1630  0.1253  0.1115
  441MOL0     O58104   4.795   2.856   3.145  0.6552 -0.2555  0.2197
  441MOL0     C58105   4.847   2.749   3.084 -0.5831 -0.3421 -0.5023
  441MOL0     C58106   4.896   2.755   2.953 -0.1655  0.1532 -0.2862
  441MOL0     C58107   4.943   2.631   2.911 -1.1619  0.7294  0.5319
  441MOL0     C58108   4.949   2.514   2.987 -0.1354  0.0959  0.3486
  441MOL0     C58109   4.982   2.382   2.926 -0.0993  0.2345  0.3065
  441MOL0     O58110   5.049   2.386   2.801  1.5996 -0.5453  0.5605
  441MOL0     C58111   5.075   2.264   2.740 -0.7534 -0.8354  0.3910
  441MOL0     C58112   5.208   2.208   2.744 -0.4233 -0.4909  0.7431
  441MOL0     C58113   5.227   2.088   2.675 -1.2866  0.4730  0.0460
  441MOL0     C58114   5.124   2.038   2.593 -0.6333 -0.4370 -0.1430
  441MOL0     O58115   5.131   1.932   2.515  0.5283 -0.4260  0.0421
  441MOL0     C58116   5.047   1.824   2.569  0.1789 -0.3689 -0.3145
  441MOL0     C58117   5.115   1.760   2.687 -0.7182 -0.8389 -0.4519
  441MOL0     C58118   5.035   1.642   2.745 -0.0351  0.0893  0.2880
  441MOL0     C58119   5.016   1.525   2.643  0.0032  0.2501 -1.0710
  441MOL0     C58120   5.054   1.394   2.718  0.2301  0.4599  0.2388
  441MOL0     C58121   5.208   1.374   2.726  0.2541 -0.8890 -0.0456
  441MOL0     C58122   5.256   1.257   2.826 -0.1090 -0.3065 -0.3954
  441MOL0     C58123   5.199   1.114   2.800  0.0915 -0.8832  1.1298
  441MOL0    Cl58124   5.034   1.090   2.878 -0.0981  0.6555  0.1349
  441MOL0     C58125   5.002   2.105   2.585  0.6027 -0.4343  0.0617
  441MOL0     C58126   4.968   2.213   2.663 -0.8838 -0.0911  0.2888
  441MOL0     O58127   4.952   2.278   2.982 -0.8278  0.1764 -0.1054
  441MOL0     C58128   4.917   2.518   3.120  0.0626 -0.5224  0.1263
  441MOL0     C58129   4.866   2.637   3.168  0.4333  0.0589 -0.5080
  441MOL0     N58130   4.354   2.796   3.134  0.2284 -0.4417  0.8193
  441MOL0     N58131   4.239   2.761   3.183 -0.8814 -0.1183  0.0826
  441MOL0     C58132   3.012   2.417   3.181  0.0917  0.6361 -0.6501
  441MOL0     C58133   2.930   2.305   3.163  0.2891 -0.1855  0.4735
  441MOL0     C58134   2.791   1.910   3.149 -0.7534  0.4901 -0.2815
  441MOL0     C58135   2.678   1.927   3.068  0.2331  0.0502 -1.3485
  441MOL0     C58136   2.580   1.828   3.064 -0.6708  0.0453  0.0287
  441MOL0     C58137   2.578   1.733   3.154  0.2299  0.2148 -0.3937
  441MOL0     O58138   2.466   1.648   3.163 -0.0062  0.1884 -0.0203
  441MOL0     C58139   2.345   1.708   3.222 -0.9121 -0.4240 -0.5332
  441MOL0     C58140   2.258   1.766   3.117 -0.8527  0.3176  0.4650
  441MOL0     C58141   2.130   1.817   3.178  0.7178  0.6503 -0.1835
  441MOL0     C58142   2.039   1.889   3.075  0.0647 -0.0878 -0.0449
  441MOL0     C58143   1.904   1.896   3.141  0.8997  0.8547 -0.3180
  441MOL0     C58144   1.794   1.877   3.191  0.4099  0.0816 -0.1845
  441MOL0     C58145   2.679   1.721   3.247 -0.2405  0.3135 -0.3538
  441MOL0     C58146   2.796   1.796   3.238 -0.9762  0.1947  0.3790
  441MOL0     H58147   3.083   2.175   2.881 -0.1480  1.0820 -1.6632
  441MOL0     H58148   3.215   2.383   2.914  0.0927 -0.9732 -1.2234
  441MOL0     H58149   3.276   2.605   2.944  0.5392 -0.4678 -0.3109
  441MOL0     H58150   3.361   2.511   3.063 -0.7237 -0.0265 -2.3999
  441MOL0     H58151   3.328   2.748   3.201 -1.9935 -1.3242  0.7381
  441MOL0     H58152   3.329   2.808   3.040 -0.4705 -0.6388 -1.2254
  441MOL0     H58153   3.537   2.728   2.970  2.7450 -2.8673  0.2266
  441MOL0     H58154   3.555   2.627   3.099  0.4313 -1.2978 -4.5761
  441MOL0     H58155   3.521   2.918   3.135 -1.0467  0.1956  0.9450
  441MOL0     H58156   3.558   2.803   3.267 -0.2863 -2.4822 -0.3063
  441MOL0     H58157   3.718   2.900   3.020 -2.6099 -0.8716 -0.7354
  441MOL0     H58158   3.759   2.745   3.097  1.0799  0.5505  3.4528
  441MOL0     H58159   3.781   2.857   3.316 -2.7492 -0.2396  1.0626
  441MOL0     H58160   3.727   3.002   3.248 -1.6923 -1.2611  2.8684
  441MOL0     H58161   3.941   2.903   3.082  0.2319 -0.3669  0.8364
  441MOL0     H58162   3.956   3.046   3.194  0.4688  0.1959  2.6397
  441MOL0     H58163   4.006   2.769   3.285 -2.3242  1.1851 -3.0017
  441MOL0     H58164   4.036   2.913   3.376  0.8760  0.3040  0.6624
  441MOL0     H58165   4.230   3.086   3.216  0.5418 -0.8454 -0.9699
  441MOL0     H58166   4.471   3.117   3.082 -0.5830  0.1125  0.3062
  441MOL0     H58167   4.539   2.967   3.025  0.5440  0.3171  1.1615
  441MOL0     H58168   4.582   2.892   3.255 -1.4409  0.2643 -0.3416
  441MOL0     H58169   4.540   3.040   3.315 -0.4113 -2.8864  2.6331
  441MOL0     H58170   4.694   3.165   3.153 -1.7761 -1.0882 -2.3002
  441MOL0     H58171   4.776   3.073   3.279  1.2679 -0.9539 -0.6801
  441MOL0     H58172   4.893   3.038   3.071  1.7940 -1.5606 -2.4730
  441MOL0     H58173   4.748   2.991   2.988 -1.5926 -0.1548  1.4227
  441MOL0     H58174   4.889   2.842   2.889  0.0977  2.6554  2.8505
  441MOL0     H58175   4.964   2.639   2.805  1.9091 -0.8617  0.9171
  441MOL0     H58176   5.286   2.265   2.794  0.9400  0.8602 -2.6273
  441MOL0     H58177   5.328   2.053   2.658 -1.0366  0.8045  0.7769
  441MOL0     H58178   5.041   1.755   2.485  1.3466  2.1608 -2.6617
  441MOL0     H58179   4.948   1.860   2.599  0.5359 -0.2010  0.6756
  441MOL0     H58180   5.119   1.827   2.773 -3.4367 -2.0042  0.7273
  441MOL0     H58181   5.217   1.730   2.663  0.3363 -3.0338  5.1899
  441MOL0     H58182   4.932   1.667   2.771 -0.9799 -3.2457  0.2547
  441MOL0     H58183   5.078   1.613   2.842 -0.6784  0.4231  0.6842
  441MOL0     H58184   4.914   1.517   2.605 -0.7440 -1.0071  1.0553
  441MOL0     H58185   5.079   1.551   2.558 -1.2576  0.3251 -2.0129
  441MOL0     H58186   5.018   1.313   2.653 -0.1064  0.4951  0.3786
  441MOL0     H58187   5.016   1.389   2.820  2.2602  2.3597  1.1657
  441MOL0     H58188   5.251   1.468   2.760 -1.6982  0.9696 -2.2798
  441MOL0     H58189   5.254   1.357   2.628 -0.2263 -1.4425 -0.1828
  441MOL0     H58190   5.364   1.264   2.808  0.1167 -0.7527  0.6979
  441MOL0     H58191   5.226   1.282   2.928  1.2953 -1.1624  0.2556
  441MOL0     H58192   5.266   1.030   2.822  1.7749 -0.0235 -0.3556
  441MOL0     H58193   5.191   1.119   2.691 -3.3606 -1.0519  1.2764
  441MOL0     H58194   4.922   2.067   2.522  1.8325 -1.1321 -1.1257
  441MOL0     H58195   4.872   2.262   2.673 -0.4418  0.5777  1.3445
  441MOL0     H58196   4.930   2.434   3.188  1.0473 -0.0235  0.5681
  441MOL0     H58197   4.819   2.640   3.266  2.3902  0.4863  0.4716
  441MOL0     H58198   2.990   2.492   3.256 -0.7903 -0.8564  0.6590
  441MOL0     H58199   2.851   2.289   3.235  1.4041 -0.1102  1.7397
  441MOL0     H58200   2.677   2.007   2.994  0.4441  2.7138  1.3647
  441MOL0     H58201   2.495   1.836   2.997  1.3775 -0.6655 -2.8434
  441MOL0     H58202   2.383   1.790   3.284  1.0866  0.3866 -2.6927
  441MOL0     H58203   2.287   1.634   3.279  1.4519 -2.1492 -0.2343
  441MOL0     H58204   2.304   1.854   3.070  3.5649 -2.7805 -1.6845
  441MOL0     H58205   2.235   1.693   3.039 -1.4292  0.5238  0.4383
  441MOL0     H58206   2.142   1.878   3.268  2.5546  0.4555 -0.2541
  441MOL0     H58207   2.084   1.724   3.212  4.2391 -0.3850  2.3339
  441MOL0     H58208   2.069   1.992   3.054 -1.9173  1.0360  2.0550
  441MOL0     H58209   2.038   1.838   2.979 -0.7314 -2.7311  1.2586
  441MOL0     H58210   1.692   1.857   3.220  0.7195  1.1310  1.8632
  441MOL0     H58211   2.670   1.651   3.329 -0.5343 -0.2091 -0.8255
  441MOL0     H58212   2.878   1.784   3.307 -2.0503 -0.0502  1.6551
  442MOL0     O58213   7.741   6.185   1.787  0.0635  1.1961  0.0684
  442MOL0     C58214   7.668   6.152   1.693  0.7137  0.4217  0.8510
  442MOL0     O58215   7.555   6.066   1.697 -0.6392  0.1369  0.3053
  442MOL0     C58216   7.517   6.000   1.817 -0.0764  0.1487 -0.3239
  442MOL0     C58217   7.612   5.956   1.916 -0.5987  0.1764 -0.2977
  442MOL0     C58218   7.567   5.892   2.030  0.2399  0.5036  0.5351
  442MOL0     C58219   7.432   5.884   2.055 -0.4677 -0.0794 -0.7193
  442MOL0     O58220   7.379   5.836   2.168  0.0399 -0.0348 -0.7296
  442MOL0     C58221   7.456   5.763   2.261 -0.2589  1.0345 -0.2827
  442MOL0     C58222   7.358   5.709   2.355  0.2532 -0.1454 -0.3473
  442MOL0     C58223   7.261   5.598   2.292  0.5079  0.7915  0.5200
  442MOL0     C58224   7.195   5.509   2.404  0.2850 -0.3515 -0.2710
  442MOL0     C58225   7.086   5.407   2.352 -0.2417 -0.9358 -0.0813
  442MOL0     C58226   7.133   5.308   2.251  0.4262 -0.2313 -0.1004
  442MOL0     C58227   7.031   5.210   2.198  0.1454  0.0011  0.4830
  442MOL0     C58228   7.055   5.138   2.065 -0.7143  0.8817 -1.1361
  442MOL0     N58229   7.157   5.030   2.077 -0.7774 -0.0307 -0.1927
  442MOL0     C58230   7.285   5.039   2.137  0.2219  0.1925 -0.1842
  442MOL0     C58231   7.359   4.929   2.109 -0.1371 -0.6669  0.7204
  442MOL0     C58232   7.487   4.881   2.169 -0.0081  0.7034 -0.1224
  442MOL0     C58233   7.597   4.955   2.091  0.3866 -0.0904 -1.0660
  442MOL0     C58234   7.642   4.883   1.973 -0.4931  0.5227 -0.7792
  442MOL0     C58235   7.776   4.920   1.910  0.1068  0.8868  0.3509
  442MOL0     O58236   7.776   5.060   1.893  0.7239 -0.5616 -0.6169
  442MOL0     C58237   7.855   5.123   1.799 -0.3930 -0.2964  0.6462
  442MOL0     C58238   7.947   5.060   1.713 -0.1836  0.0759  0.2597
  442MOL0     C58239   8.031   5.135   1.628  1.2619 -0.0591 -0.3125
  442MOL0     C58240   8.049   5.277   1.641  0.3382  0.0171  0.4313
  442MOL0     C58241   8.145   5.346   1.554  0.3064  0.4901 -0.6293
  442MOL0     O58242   8.142   5.479   1.559 -0.3655  0.3706  1.0750
  442MOL0     C58243   8.198   5.564   1.471 -0.2985 -0.6053  0.4562
  442MOL0     C58244   8.294   5.534   1.368  0.0000 -0.0433 -0.4249
  442MOL0     C58245   8.325   5.629   1.269 -0.4042 -0.0636 -0.3206
  442MOL0     C58246   8.285   5.759   1.270 -0.1933 -0.1407  0.2644
  442MOL0     O58247   8.325   5.863   1.180 -0.3823  0.7466 -0.5679
  442MOL0     C58248   8.401   5.818   1.065  0.3567 -0.9628  0.2134
  442MOL0     C58249   8.509   5.929   1.038  1.4908  0.0437 -0.8039
  442MOL0     C58250   8.452   6.073   1.008 -0.8984  0.3808  0.0633
  442MOL0     C58251   8.386   6.090   0.875  0.6137  0.3146  0.2622
  442MOL0     C58252   8.387   6.235   0.831  0.7900 -0.2400 -0.0844
  442MOL0     C58253   8.507   6.283   0.750 -1.0368 -0.5590  0.4070
  442MOL0     C58254   8.497   6.423   0.692  0.1563 -0.2949  0.0482
  442MOL0     C58255   8.606   6.443   0.591 -0.0716 -0.2330 -0.5619
  442MOL0    Cl58256   8.663   6.612   0.601  0.6117 -0.2890  0.0362
  442MOL0     C58257   8.192   5.795   1.377  0.5498  0.0083  0.2490
  442MOL0     C58258   8.150   5.700   1.463  0.5773  0.6693 -0.3332
  442MOL0     O58259   8.221   5.277   1.497  0.7611 -0.1046 -0.1076
  442MOL0     C58260   7.977   5.334   1.743  0.1720 -0.4732 -0.2282
  442MOL0     C58261   7.880   5.259   1.809  0.2830  0.4651  0.2250
  442MOL0     N58262   7.272   4.852   2.033  0.7491 -0.4228  0.5114
  442MOL0     N58263   7.161   4.903   2.019  0.1824 -0.9171  0.3873
  442MOL0     C58264   7.344   5.911   1.965  0.3788 -1.0238  1.2809
  442MOL0     C58265   7.379   5.965   1.833  0.5145 -0.3845 -1.2744
  442MOL0     C58266   7.681   6.220   1.570 -0.6033 -0.2882 -0.6336
  442MOL0     C58267   7.734   6.348   1.564  0.3039  0.9695 -0.8611
  442MOL0     C58268   7.769   6.401   1.437  0.5273 -0.0956 -0.5404
  442MOL0     C58269   7.718   6.352   1.317 -0.0959  0.1625  0.3713
  442MOL0     O58270   7.718   6.420   1.198 -0.7924  0.0401  0.1133
  442MOL0     C58271   7.718   6.350   1.069  0.0156 -1.2221  0.4660
  442MOL0     C58272   7.774   6.447   0.965 -0.4568 -0.3697  0.3724
  442MOL0     C58273   7.791   6.373   0.832  0.2503  0.4516 -0.4681
  442MOL0     C58274   7.898   6.440   0.739  0.5634 -0.6851 -0.3728
  442MOL0     C58275   7.869   6.555   0.653 -0.4706 -0.6416 -0.2228
  442MOL0     C58276   7.844   6.654   0.584 -0.5318 -0.4428 -0.2394
  442MOL0     C58277   7.650   6.235   1.322  0.1949 -0.9296 -0.5724
  442MOL0     C58278   7.630   6.171   1.442 -0.2115  0.6846 -0.7490
  442MOL0     H58279   7.719   5.972   1.923 -0.0863 -2.9726  1.0416
  442MOL0     H58280   7.632   5.869   2.114 -0.2864  0.7836  1.0199
  442MOL0     H58281   7.533   5.826   2.305  1.5755 -0.6217 -0.9598
  442MOL0     H58282   7.510   5.686   2.204  0.0572  1.5856 -0.7360
  442MOL0     H58283   7.301   5.787   2.407 -0.4118 -0.9339  0.1184
  442MOL0     H58284   7.421   5.655   2.426 -1.8232 -0.8122  1.0877
  442MOL0     H58285   7.325   5.538   2.227 -2.1512 -0.1947 -1.3760
  442MOL0     H58286   7.183   5.650   2.235  0.8209  1.2147  0.4766
  442MOL0     H58287   7.271   5.446   2.451  0.3611 -2.0715 -2.5524
  442MOL0     H58288   7.159   5.575   2.484 -0.3287  1.6148 -2.0820
  442MOL0     H58289   7.003   5.460   2.305  0.2926 -0.3297 -0.3431
  442MOL0     H58290   7.052   5.337   2.429  1.2124 -2.1464 -0.4971
  442MOL0     H58291   7.216   5.257   2.301 -0.7517 -3.9656 -1.6113
  442MOL0     H58292   7.169   5.363   2.164  1.0826 -0.1983  0.1896
  442MOL0     H58293   7.004   5.141   2.278  3.0994  1.2734  2.7922
  442MOL0     H58294   6.944   5.272   2.177  0.2422 -0.9118 -3.2650
  442MOL0     H58295   7.077   5.211   1.985  1.2128  2.4495  0.7000
  442MOL0     H58296   6.967   5.080   2.035 -0.7679  1.9550 -3.3067
  442MOL0     H58297   7.309   5.124   2.200 -0.2625  0.8827 -0.9196
  442MOL0     H58298   7.495   4.773   2.155 -2.7805  0.2892  0.9471
  442MOL0     H58299   7.503   4.899   2.275 -2.0199  0.3466  0.2818
  442MOL0     H58300   7.690   4.965   2.148  1.1850  1.2133 -2.5289
  442MOL0     H58301   7.570   5.056   2.061 -0.2375  0.1234  0.1455
  442MOL0     H58302   7.641   4.776   1.998 -2.5257  0.6214 -0.2982
  442MOL0     H58303   7.562   4.875   1.898 -0.6905  0.7020 -0.5868
  442MOL0     H58304   7.781   4.863   1.817 -2.1562  1.2737 -0.0634
  442MOL0     H58305   7.857   4.891   1.978 -1.4822 -1.1846  1.4923
  442MOL0     H58306   7.940   4.952   1.705 -0.0641 -0.0424  1.5602
  442MOL0     H58307   8.086   5.083   1.550  1.4378 -2.9974  1.6379
  442MOL0     H58308   8.348   5.440   1.362  0.2216 -0.2249  2.9497
  442MOL0     H58309   8.387   5.571   1.201  0.5915 -1.9765  2.0776
  442MOL0     H58310   8.332   5.794   0.983  0.9208 -1.6801 -0.0576
  442MOL0     H58311   8.471   5.736   1.085  0.5873 -1.1261 -1.1436
  442MOL0     H58312   8.568   5.899   0.951  0.4020 -0.0066 -1.5512
  442MOL0     H58313   8.560   5.943   1.133  0.4441 -0.5860 -0.1338
  442MOL0     H58314   8.542   6.135   1.001  0.4757 -1.0707  3.0909
  442MOL0     H58315   8.401   6.116   1.094  3.5441  3.2066  1.6734
  442MOL0     H58316   8.432   6.026   0.798  1.8459 -0.6004  1.6917
  442MOL0     H58317   8.282   6.059   0.888  1.2230 -3.2707 -1.9574
  442MOL0     H58318   8.390   6.297   0.921  1.1296  2.1766 -1.6489
  442MOL0     H58319   8.297   6.247   0.769 -0.1514 -1.8825  0.9043
  442MOL0     H58320   8.513   6.216   0.664 -1.4869 -0.4961  0.3276
  442MOL0     H58321   8.589   6.272   0.823 -1.0393 -0.1686  0.4690
  442MOL0     H58322   8.398   6.448   0.653  0.2649  1.4121  0.7805
  442MOL0     H58323   8.522   6.484   0.779  0.4421 -3.6265  2.4904
  442MOL0     H58324   8.557   6.426   0.495  0.4487 -0.8076 -0.7302
  442MOL0     H58325   8.692   6.376   0.600  1.2778  1.6477  1.5806
  442MOL0     H58326   8.161   5.898   1.366  2.1952  0.8818  3.0271
  442MOL0     H58327   8.067   5.726   1.529  1.1924  3.0957 -0.4254
  442MOL0     H58328   7.987   5.441   1.761  0.5480 -0.5440 -0.0056
  442MOL0     H58329   7.830   5.312   1.889 -1.7945  1.4993 -1.6572
  442MOL0     H58330   7.241   5.885   1.986 -0.4361  1.6608  1.0044
  442MOL0     H58331   7.296   5.992   1.768  0.1376  1.2060 -0.2016
  442MOL0     H58332   7.766   6.400   1.654 -0.1648  1.2710 -0.8611
  442MOL0     H58333   7.809   6.502   1.432 -2.5191  1.1457 -3.6796
  442MOL0     H58334   7.619   6.317   1.035  0.1476 -0.9212 -0.2351
  442MOL0     H58335   7.792   6.270   1.080  3.3422  1.5916  0.1925
  442MOL0     H58336   7.708   6.531   0.941  0.7436  0.6123  0.4231
  442MOL0     H58337   7.869   6.487   1.002  0.4791 -1.9139 -0.2662
  442MOL0     H58338   7.691   6.365   0.788  0.7719 -0.2279 -1.5800
  442MOL0     H58339   7.825   6.269   0.843  1.9783  0.8287 -1.7987
  442MOL0     H58340   7.992   6.464   0.790 -0.0628  2.5716 -0.5588
  442MOL0     H58341   7.933   6.355   0.679  0.2103 -1.1375  0.0529
  442MOL0     H58342   7.826   6.728   0.508  2.7678 -0.6074 -1.3256
  442MOL0     H58343   7.605   6.188   1.235 -0.4172 -2.2678  0.4340
  442MOL0     H58344   7.568   6.083   1.441 -1.1941  1.3621 -2.2196
  443MOL0     O58345  10.058   1.023   7.348 -0.5442  0.1650  0.4237
  443MOL0     C58346  10.042   0.905   7.396  0.7192 -0.3749 -0.3957
  443MOL0     O58347  10.110   0.796   7.362  0.8146  0.4780  0.5033
  443MOL0     C58348  10.191   0.815   7.253 -0.5404  0.3098 -0.1285
  443MOL0     C58349  10.162   0.769   7.128 -0.3471  0.3901  0.3172
  443MOL0     C58350  10.251   0.766   7.019  0.3090 -0.3107  0.4904
  443MOL0     C58351  10.374   0.824   7.037  1.3645  0.0723 -0.6836
  443MOL0     O58352  10.464   0.820   6.932  0.7391  0.3192  1.1395
  443MOL0     C58353  10.522   0.946   6.900 -0.1297 -0.9118 -0.6125
  443MOL0     C58354  10.600   0.930   6.775 -0.1234  0.5596  0.1756
  443MOL0     C58355  10.672   1.042   6.714  0.1783  0.6240  0.1688
  443MOL0     C58356  10.592   1.135   6.624 -0.0839  0.5119  0.5711
  443MOL0     C58357  10.672   1.266   6.612 -0.1742  0.7426 -0.6797
  443MOL0     C58358  10.578   1.377   6.553  0.4277 -0.4157  0.0377
  443MOL0     C58359  10.662   1.512   6.575 -0.3230 -0.1315 -0.4279
  443MOL0     C58360  10.605   1.626   6.502 -0.4240 -0.2611 -0.0753
  443MOL0     N58361  10.454   1.642   6.501 -0.0953  0.9078  0.2835
  443MOL0     C58362  10.385   1.674   6.387 -1.0331  1.4204 -0.2528
  443MOL0     C58363  10.254   1.698   6.421 -0.3438 -0.6275  0.8935
  443MOL0     C58364  10.137   1.700   6.326 -0.3650  0.0833 -0.1648
  443MOL0     C58365  10.084   1.563   6.271  0.3099 -0.4351 -0.0522
  443MOL0     C58366  10.052   1.454   6.371  0.5057  0.0741  0.2667
  443MOL0     C58367   9.980   1.335   6.300 -0.3511 -1.0199 -0.2944
  443MOL0     O58368  10.057   1.273   6.196  0.3616 -0.7252  0.2997
  443MOL0     C58369  10.007   1.158   6.145  1.1063 -0.1865  0.6532
  443MOL0     C58370   9.880   1.106   6.177 -0.0481  0.5948  1.0864
  443MOL0     C58371   9.836   0.986   6.120 -0.8575 -0.6497  1.4628
  443MOL0     C58372   9.925   0.912   6.038  0.2903 -0.4789 -1.1110
  443MOL0     C58373   9.903   0.778   5.979 -0.3364  0.5807 -0.9933
  443MOL0     O58374   9.813   0.706   6.048  0.2651 -0.5252 -0.9098
  443MOL0     C58375   9.740   0.601   6.004  0.0850  0.6525  0.9761
  443MOL0     C58376   9.659   0.536   6.101 -0.0161 -0.1400  0.3456
  443MOL0     C58377   9.574   0.433   6.064 -0.5701  0.4402  0.6777
  443MOL0     C58378   9.566   0.389   5.925  0.6815 -0.0797  0.4829
  443MOL0     O58379   9.474   0.290   5.899  0.0825 -0.7698 -0.3362
  443MOL0     C58380   9.449   0.257   5.765 -0.1569  0.1124  0.5136
  443MOL0     C58381   9.334   0.157   5.750  0.3543  0.3284  0.0231
  443MOL0     C58382   9.305   0.125   5.597  0.2532  0.2930 -0.3098
  443MOL0     C58383   9.177   0.035   5.587  1.0332 -0.2550  0.7503
  443MOL0     C58384   9.183  -0.097   5.664  0.6783 -0.0146 -0.5663
  443MOL0     C58385   9.306  -0.177   5.620 -0.3813  0.5529  0.8403
  443MOL0     C58386   9.313  -0.321   5.679 -0.6449 -1.5506  0.2924
  443MOL0     C58387   9.234  -0.414   5.586  0.3531  0.6841 -0.6316
  443MOL0    Cl58388   9.228  -0.582   5.642  0.1243  0.4066 -0.1191
  443MOL0     C58389   9.640   0.462   5.837  0.1993 -0.8532 -0.2898
  443MOL0     C58390   9.731   0.562   5.873 -0.5421 -0.4735 -1.2656
  443MOL0     O58391   9.964   0.742   5.878 -0.0222  0.0424 -0.0349
  443MOL0     C58392  10.055   0.968   6.020  0.0323  0.3525 -0.1007
  443MOL0     C58393  10.088   1.092   6.066  0.7400  0.0476 -0.1808
  443MOL0     N58394  10.254   1.680   6.562  0.6497  0.2788  0.1059
  443MOL0     N58395  10.377   1.661   6.605 -0.3303  0.3699  0.4625
  443MOL0     C58396  10.395   0.889   7.157  0.2365 -0.3168  0.3893
  443MOL0     C58397  10.314   0.881   7.270 -0.0178  0.2319  0.8717
  443MOL0     C58398   9.942   0.890   7.509  1.0609  0.3450  0.2499
  443MOL0     C58399   9.821   0.961   7.505 -0.0895 -0.1509  0.0505
  443MOL0     C58400   9.725   0.942   7.611  0.8516  0.3800  0.3217
  443MOL0     C58401   9.742   0.844   7.703 -0.0015 -0.4259  0.3003
  443MOL0     O58402   9.655   0.828   7.805 -0.3238  0.8281 -0.3997
  443MOL0     C58403   9.577   0.708   7.799  0.1368  0.2014 -0.2140
  443MOL0     C58404   9.441   0.731   7.868  0.2488  0.7611 -0.3895
  443MOL0     C58405   9.349   0.602   7.861  0.2494 -0.1241  0.4412
  443MOL0     C58406   9.291   0.570   7.720  0.4012 -1.6695 -0.5368
  443MOL0     C58407   9.225   0.438   7.740  0.4383  0.1656 -0.4577
  443MOL0     C58408   9.171   0.340   7.770  0.9143  0.2195 -0.0266
  443MOL0     C58409   9.856   0.758   7.697  0.4128  0.0799 -0.1056
  443MOL0     C58410   9.958   0.787   7.601  0.4110 -0.2791 -0.8096
  443MOL0     H58411  10.066   0.719   7.125  0.0973 -0.4547 -1.1558
  443MOL0     H58412  10.224   0.697   6.939 -4.2382  2.0074 -0.2989
  443MOL0     H58413  10.601   0.972   6.972 -0.3057 -0.3154 -0.6243
  443MOL0     H58414  10.449   1.027   6.886 -1.6600 -2.2911 -0.8545
  443MOL0     H58415  10.533   0.877   6.706 -0.9244  0.2029  1.2031
  443MOL0     H58416  10.681   0.862   6.804 -1.4840 -1.1532  0.1010
  443MOL0     H58417  10.754   1.001   6.655 -0.8992 -1.4708  0.0242
  443MOL0     H58418  10.724   1.096   6.794 -1.1373  2.7166 -0.3160
  443MOL0     H58419  10.594   1.078   6.531 -0.0530  0.7203  0.4431
  443MOL0     H58420  10.486   1.144   6.647  0.0369  1.4726  0.7848
  443MOL0     H58421  10.758   1.253   6.547 -0.8924 -3.9754 -1.0258
  443MOL0     H58422  10.717   1.295   6.708  1.0332 -0.2385 -0.9417
  443MOL0     H58423  10.481   1.379   6.603  0.6029 -0.3774  0.3870
  443MOL0     H58424  10.569   1.363   6.445 -1.0579  0.2929  0.0450
  443MOL0     H58425  10.663   1.535   6.682 -2.1821  1.0988 -0.6310
  443MOL0     H58426  10.766   1.494   6.545 -0.2052  1.9288 -1.4344
  443MOL0     H58427  10.633   1.623   6.396  1.9344  0.6090  0.4598
  443MOL0     H58428  10.655   1.717   6.537 -0.4974 -0.0162 -0.5936
  443MOL0     H58429  10.418   1.663   6.284  0.8878 -0.1358  0.4500
  443MOL0     H58430  10.167   1.745   6.230 -2.2964 -3.6410 -2.7551
  443MOL0     H58431  10.059   1.758   6.375 -0.5569  0.6194 -1.0728
  443MOL0     H58432  10.169   1.528   6.212 -0.4324  1.3253 -2.2915
  443MOL0     H58433   9.996   1.582   6.210  0.8810  5.0790  0.3241
  443MOL0     H58434  10.146   1.431   6.423  0.0212 -3.3421 -0.1869
  443MOL0     H58435   9.988   1.497   6.448 -2.1497  0.0255 -1.7750
  443MOL0     H58436   9.890   1.374   6.252  0.0236  1.4285  0.8281
  443MOL0     H58437   9.953   1.268   6.382  4.5801 -1.0224  1.7076
  443MOL0     H58438   9.804   1.158   6.236  0.2630  2.0623  0.2503
  443MOL0     H58439   9.735   0.948   6.130 -1.4936  0.6339  0.1685
  443MOL0     H58440   9.666   0.560   6.206  1.7116 -1.7991  0.6605
  443MOL0     H58441   9.535   0.372   6.144  2.7261  0.1360  2.2050
  443MOL0     H58442   9.537   0.206   5.726 -0.9388  1.0491 -2.8146
  443MOL0     H58443   9.415   0.340   5.702 -0.6515 -1.6693 -1.6901
  443MOL0     H58444   9.239   0.197   5.787 -0.7778 -1.0186 -1.2851
  443MOL0     H58445   9.355   0.068   5.810 -0.4472  1.8563  2.7382
  443MOL0     H58446   9.390   0.076   5.548  1.2360  0.2013  1.3958
  443MOL0     H58447   9.286   0.212   5.534 -0.3080 -1.0385 -2.0462
  443MOL0     H58448   9.083   0.091   5.599 -1.3535 -3.5958 -0.5755
  443MOL0     H58449   9.186  -0.003   5.485 -1.1565 -2.2095  1.1748
  443MOL0     H58450   9.087  -0.148   5.651 -0.3327  1.9629 -1.3164
  443MOL0     H58451   9.188  -0.073   5.770 -0.4362 -2.8559  0.2304
  443MOL0     H58452   9.401  -0.126   5.640  0.4399 -0.3439 -0.6001
  443MOL0     H58453   9.299  -0.189   5.511  0.0807  2.1080  0.6115
  443MOL0     H58454   9.422  -0.331   5.677 -0.5678 -1.1497  1.4653
  443MOL0     H58455   9.277  -0.312   5.782 -0.4958  0.6992  0.2111
  443MOL0     H58456   9.263  -0.401   5.482  1.0183  0.2052 -0.5080
  443MOL0     H58457   9.128  -0.391   5.604  0.9733  2.0032  1.8099
  443MOL0     H58458   9.617   0.452   5.731 -1.3436 -1.6448  0.0866
  443MOL0     H58459   9.796   0.598   5.794  3.7231 -2.5781  0.9274
  443MOL0     H58460  10.127   0.921   5.954 -2.6597 -1.1191 -2.2570
  443MOL0     H58461  10.183   1.129   6.027  1.0731 -2.7234 -2.3051
  443MOL0     H58462  10.494   0.928   7.180  0.5177  0.1983 -1.5466
  443MOL0     H58463  10.342   0.916   7.369  0.3739 -3.4037  2.1932
  443MOL0     H58464   9.811   1.037   7.429 -0.6663 -1.6855 -1.4788
  443MOL0     H58465   9.637   1.005   7.619  0.5004 -0.2800  2.0082
  443MOL0     H58466   9.628   0.616   7.829 -0.3304 -0.4974 -1.5025
  443MOL0     H58467   9.559   0.698   7.692  1.7336 -0.5991 -0.4432
  443MOL0     H58468   9.458   0.754   7.973 -2.0876 -0.9957  0.4475
  443MOL0     H58469   9.388   0.810   7.814 -0.9029  0.8287  0.7859
  443MOL0     H58470   9.268   0.623   7.931  1.3493  3.1074  0.8768
  443MOL0     H58471   9.405   0.518   7.904  0.9700  1.4673  2.8276
  443MOL0     H58472   9.213   0.644   7.697  2.0219  2.3194  4.6248
  443MOL0     H58473   9.355   0.555   7.633 -4.6783 -2.2402 -4.6806
  443MOL0     H58474   9.129   0.245   7.797  1.0046  0.0660 -0.4149
  443MOL0     H58475   9.871   0.681   7.773 -2.2092  0.8589  1.3211
  443MOL0     H58476  10.036   0.713   7.586  0.5578 -0.1471 -0.6928
  444MOL0     O58477   9.062  11.418   7.253  0.0320 -0.0351 -0.3637
  444MOL0     C58478   8.951  11.462   7.292 -0.1879  0.4434 -0.2156
  444MOL0     O58479   8.914  11.480   7.422  0.0501  0.4280  0.3012
  444MOL0     C58480   9.005  11.452   7.522 -0.6548 -0.3978  0.0619
  444MOL0     C58481   8.957  11.443   7.657 -0.1989 -0.0307 -0.5325
  444MOL0     C58482   9.041  11.402   7.762  0.4259  0.4469 -0.3694
  444MOL0     C58483   9.182  11.376   7.740 -0.0889 -0.0579  0.1767
  444MOL0     O58484   9.253  11.335   7.852  0.7078 -0.1828  0.1498
  444MOL0     C58485   9.376  11.276   7.845 -0.9171 -0.2930 -0.4114
  444MOL0     C58486   9.372  11.160   7.947 -0.2430 -0.3970 -0.3821
  444MOL0     C58487   9.517  11.124   7.983 -0.0837 -0.6338  0.0478
  444MOL0     C58488   9.529  11.033   8.108 -0.4830 -0.6283  0.5451
  444MOL0     C58489   9.679  10.994   8.149  0.7243 -0.4678 -0.0226
  444MOL0     C58490   9.689  10.973   8.308  0.1573  0.1136  0.9821
  444MOL0     C58491   9.823  10.908   8.339 -0.1995  0.1938  0.1621
  444MOL0     C58492   9.842  10.879   8.488  1.0154 -0.5049  0.1332
  444MOL0     N58493   9.730  10.815   8.555  0.4963  0.0649 -0.1646
  444MOL0     C58494   9.673  10.862   8.665  0.2600 -0.9683  0.4763
  444MOL0     C58495   9.605  10.749   8.707 -1.1113  0.7630  0.9651
  444MOL0     C58496   9.558  10.729   8.845 -0.0671  0.1979 -0.3714
  444MOL0     C58497   9.645  10.618   8.902 -0.1759  0.4589  0.1239
  444MOL0     C58498   9.571  10.575   9.029 -0.7573  0.0422 -0.4745
  444MOL0     C58499   9.647  10.475   9.103 -0.0314  1.2503 -0.8136
  444MOL0     O58500   9.565  10.432   9.214  0.4071  0.8079  0.5343
  444MOL0     C58501   9.633  10.342   9.295  0.2733  0.5378 -0.3079
  444MOL0     C58502   9.554  10.261   9.369  0.4891 -0.3113  0.1051
  444MOL0     C58503   9.617  10.173   9.461  1.3612  0.3054 -0.2247
  444MOL0     C58504   9.752  10.148   9.464 -0.8607 -0.2007  0.4661
  444MOL0     C58505   9.805  10.026   9.538 -0.3155 -0.0901 -1.1301
  444MOL0     O58506   9.708   9.944   9.596  0.5048 -0.7065  0.1347
  444MOL0     C58507   9.739   9.818   9.640 -0.5207 -0.3056 -0.4058
  444MOL0     C58508   9.845   9.748   9.583 -0.2178 -0.7596 -0.6439
  444MOL0     C58509   9.880   9.626   9.631  1.0765 -0.4745 -0.4256
  444MOL0     C58510   9.808   9.559   9.725 -0.0481 -0.1433  0.3278
  444MOL0     O58511   9.868   9.443   9.778  0.0416  0.1835 -0.9626
  444MOL0     C58512   9.788   9.370   9.873  0.3239  0.3924  0.3116
  444MOL0     C58513   9.845   9.232   9.905  0.8796  0.4218  0.0238
  444MOL0     C58514   9.738   9.150   9.976 -0.2873 -0.0100 -0.2892
  444MOL0     C58515   9.788   9.035  10.052 -0.0502 -0.4232 -0.2312
  444MOL0     C58516   9.887   8.943   9.993  1.1950  0.2933  0.4949
  444MOL0     C58517   9.826   8.868   9.866  0.2541 -0.0307  0.2730
  444MOL0     C58518   9.932   8.764   9.845 -0.6363 -0.4400 -0.1213
  444MOL0     C58519   9.909   8.701   9.713 -0.0088  0.1474  0.4156
  444MOL0    Cl58520   9.921   8.790   9.565  0.2287 -0.1497  0.2001
  444MOL0     C58521   9.699   9.626   9.784 -0.3152 -0.2531 -0.4091
  444MOL0     C58522   9.663   9.756   9.740 -0.4264  1.1063  0.6226
  444MOL0     O58523   9.924  10.021   9.565  0.0337  0.2436  0.3306
  444MOL0     C58524   9.829  10.218   9.378 -0.2680 -0.8648  0.6046
  444MOL0     C58525   9.772  10.314   9.287 -0.4519 -0.8778 -0.8983
  444MOL0     N58526   9.611  10.654   8.603  0.1510 -0.4557 -0.2277
  444MOL0     N58527   9.685  10.696   8.514 -0.6522  0.3873 -0.2847
  444MOL0     C58528   9.226  11.412   7.620 -0.4444 -1.2598  0.7495
  444MOL0     C58529   9.147  11.447   7.513 -0.8421  0.0869 -0.3848
  444MOL0     C58530   8.849  11.479   7.187  0.0176 -1.6394  0.1505
  444MOL0     C58531   8.712  11.516   7.229  0.2409  0.3521 -0.2094
  444MOL0     C58532   8.616  11.530   7.125 -0.1247 -0.5678 -0.2165
  444MOL0     C58533   8.657  11.530   6.990  0.2316  1.1182 -0.0451
  444MOL0     O58534   8.574  11.552   6.885  0.2327  1.1144 -0.2630
  444MOL0     C58535   8.446  11.586   6.919 -0.2395 -0.0310  0.0963
  444MOL0     C58536   8.364  11.645   6.805 -0.3922  0.4037  0.1466
  444MOL0     C58537   8.417  11.782   6.748 -0.4968 -0.1694 -0.3507
  444MOL0     C58538   8.371  11.905   6.829  0.1924 -0.1581  0.5926
  444MOL0     C58539   8.489  11.989   6.814 -0.1819 -0.6018 -0.1813
  444MOL0     C58540   8.598  12.054   6.828  0.2071  0.0076  0.1525
  444MOL0     C58541   8.781  11.500   6.954 -0.8671  0.3795  0.5148
  444MOL0     C58542   8.876  11.471   7.053 -0.0736 -0.0663  0.6803
  444MOL0     H58543   8.851  11.468   7.665  0.3281  2.2245  0.0637
  444MOL0     H58544   9.009  11.378   7.863  1.8946 -1.9342 -0.3982
  444MOL0     H58545   9.439  11.357   7.883 -2.0166 -0.4021  1.8247
  444MOL0     H58546   9.417  11.257   7.745  1.4670 -1.4800  0.7001
  444MOL0     H58547   9.309  11.081   7.905  1.3711 -1.9973  0.0558
  444MOL0     H58548   9.322  11.194   8.038 -0.3471  0.7033 -0.8316
  444MOL0     H58549   9.568  11.215   8.016  2.3842 -2.3242  1.1524
  444MOL0     H58550   9.561  11.084   7.891  1.1508  0.7221  0.0103
  444MOL0     H58551   9.483  11.086   8.192  2.5445  1.2836  1.1755
  444MOL0     H58552   9.466  10.944   8.099 -1.0914 -0.0834 -0.8358
  444MOL0     H58553   9.748  11.074   8.122 -2.5546  2.6156 -0.0367
  444MOL0     H58554   9.703  10.897   8.104  3.9403 -0.5098  1.5334
  444MOL0     H58555   9.607  10.911   8.345  3.4398 -4.7342  1.0838
  444MOL0     H58556   9.677  11.068   8.361  1.1228  0.6106  0.3442
  444MOL0     H58557   9.845  10.813   8.291 -1.6607 -0.2404  0.2955
  444MOL0     H58558   9.897  10.980   8.301 -0.6364  0.4273 -0.2579
  444MOL0     H58559   9.880  10.961   8.549  0.7099 -0.0761 -0.2438
  444MOL0     H58560   9.921  10.803   8.480 -1.0646 -2.6446 -1.4757
  444MOL0     H58561   9.693  10.954   8.718  2.9957 -0.5872 -1.0518
  444MOL0     H58562   9.452  10.701   8.852 -0.3331  1.1237 -0.5276
  444MOL0     H58563   9.572  10.817   8.907 -0.9145  1.0318 -1.3172
  444MOL0     H58564   9.745  10.655   8.927 -0.9465  0.7712  3.1689
  444MOL0     H58565   9.648  10.529   8.838 -0.5802 -0.2767  1.0919
  444MOL0     H58566   9.553  10.655   9.102 -1.4749 -0.5370  0.0004
  444MOL0     H58567   9.469  10.542   9.008 -1.8504  2.1434  1.1071
  444MOL0     H58568   9.740  10.523   9.137 -0.8162  2.3608 -0.1843
  444MOL0     H58569   9.662  10.395   9.029  1.5467  0.0391  0.7177
  444MOL0     H58570   9.448  10.285   9.371  0.8125  1.1826 -0.0325
  444MOL0     H58571   9.549  10.109   9.516  1.3796 -0.4670 -1.0775
  444MOL0     H58572   9.907   9.784   9.502  1.2557 -0.7139  0.4484
  444MOL0     H58573   9.969   9.587   9.583 -0.1641 -2.7456 -1.0211
  444MOL0     H58574   9.686   9.358   9.836  0.3357  0.4071  0.2739
  444MOL0     H58575   9.778   9.433   9.962  2.6928  1.6029 -0.1737
  444MOL0     H58576   9.940   9.238   9.958  1.3893  0.8298 -0.9164
  444MOL0     H58577   9.859   9.182   9.809  0.0324  0.4561 -0.1280
  444MOL0     H58578   9.668   9.121   9.897 -2.4420  1.8406  0.7933
  444MOL0     H58579   9.682   9.216  10.044 -0.5128  0.1514 -0.6299
  444MOL0     H58580   9.833   9.073  10.145  0.8206 -2.9295  0.4540
  444MOL0     H58581   9.708   8.974  10.094  1.6058 -2.1611  0.5417
  444MOL0     H58582   9.930   8.870  10.062  1.9122 -0.0494 -0.2997
  444MOL0     H58583   9.975   8.999   9.961  0.9464  0.3531 -0.0889
  444MOL0     H58584   9.823   8.927   9.774 -0.9883  1.7808  1.4168
  444MOL0     H58585   9.731   8.820   9.891 -1.9964  3.0540 -1.6254
  444MOL0     H58586  10.033   8.806   9.848 -0.2751 -0.9781  5.3463
  444MOL0     H58587   9.926   8.696   9.930  0.4492  0.0040  0.3310
  444MOL0     H58588   9.807   8.661   9.709 -1.5315  3.2230  3.3339
  444MOL0     H58589   9.984   8.623   9.698 -1.4417 -0.7159 -3.7722
  444MOL0     H58590   9.636   9.583   9.861  0.5333  0.2137  0.5779
  444MOL0     H58591   9.578   9.814   9.775  0.9131  3.6383 -0.0965
  444MOL0     H58592   9.936  10.199   9.385  0.5794  2.7917 -0.5286
  444MOL0     H58593   9.840  10.366   9.220  1.3515  2.5734  3.1664
  444MOL0     H58594   9.323  11.461   7.622 -0.5993 -0.9010 -0.3702
  444MOL0     H58595   9.206  11.463   7.422 -0.7115 -3.8778 -1.1712
  444MOL0     H58596   8.685  11.519   7.334  1.7159 -1.0377  0.2432
  444MOL0     H58597   8.513  11.546   7.155  0.5014  3.9795  0.1171
  444MOL0     H58598   8.454  11.659   7.000  2.2410 -3.2911  3.1129
  444MOL0     H58599   8.399  11.496   6.959  1.8131 -2.6464 -2.8658
  444MOL0     H58600   8.353  11.573   6.723 -0.4304 -1.5656  1.8134
  444MOL0     H58601   8.261  11.654   6.840 -0.3418 -0.3191  0.4901
  444MOL0     H58602   8.385  11.797   6.645  2.4262 -0.6681 -1.4294
  444MOL0     H58603   8.524  11.765   6.731 -0.5752 -1.3507  0.2413
  444MOL0     H58604   8.279  11.947   6.788 -0.9803 -2.1723  1.0638
  444MOL0     H58605   8.345  11.868   6.928  1.1149 -3.3831 -0.2460
  444MOL0     H58606   8.700  12.083   6.833  0.6452 -1.5850  1.3353
  444MOL0     H58607   8.803  11.501   6.848 -1.5169 -0.0433  0.3742
  444MOL0     H58608   8.976  11.441   7.024  2.0797  3.6918  3.2954
  445MOL0     O58609  10.304   2.037   9.985  0.8483 -0.6509 -0.2730
  445MOL0     C58610  10.395   2.120  10.003  0.2209  0.0315 -0.0788
  445MOL0     O58611  10.398   2.245   9.948  0.0049  0.6888  0.0826
  445MOL0     C58612  10.290   2.287   9.874 -0.0013 -0.4187 -0.3900
  445MOL0     C58613  10.263   2.221   9.751 -0.5558  0.0315 -0.1830
  445MOL0     C58614  10.147   2.265   9.679 -0.1084 -0.5230  0.5883
  445MOL0     C58615  10.070   2.372   9.723  0.0752 -0.6487  0.3909
  445MOL0     O58616   9.971   2.408   9.642 -0.6023  0.0442 -0.6732
  445MOL0     C58617   9.869   2.492   9.690  0.1974 -0.4559 -0.1670
  445MOL0     C58618   9.845   2.616   9.601 -0.1390 -0.0549  0.1913
  445MOL0     C58619   9.789   2.580   9.467  0.1918 -0.2452 -0.6583
  445MOL0     C58620   9.773   2.707   9.373 -0.1106 -0.0292 -0.3570
  445MOL0     C58621   9.731   2.655   9.238 -0.8445 -0.0425  0.3112
  445MOL0     C58622   9.725   2.769   9.138  0.0073  0.7606 -0.0033
  445MOL0     C58623   9.672   2.713   8.997  0.2075  0.3513 -0.1019
  445MOL0     C58624   9.527   2.688   8.984 -0.3012 -0.8012  0.6733
  445MOL0     N58625   9.460   2.804   8.917  0.2266 -0.4516 -0.5096
  445MOL0     C58626   9.416   2.926   8.967  0.9435  0.0263  0.3214
  445MOL0     C58627   9.317   2.967   8.889 -0.4564 -0.3330  0.5346
  445MOL0     C58628   9.227   3.086   8.935  0.0721 -0.0429  0.2596
  445MOL0     C58629   9.244   3.204   8.844  0.2321 -0.1655 -0.2804
  445MOL0     C58630   9.380   3.280   8.873  0.3599  1.2723 -0.6537
  445MOL0     C58631   9.405   3.411   8.800 -0.0441  0.9004  0.4869
  445MOL0     O58632   9.539   3.466   8.799 -0.4060  0.0779  0.4284
  445MOL0     C58633   9.581   3.553   8.897 -0.2366 -0.1006  0.4560
  445MOL0     C58634   9.506   3.588   9.012  0.3683 -1.1230 -0.6874
  445MOL0     C58635   9.562   3.682   9.101 -0.4315  0.4116  0.4098
  445MOL0     C58636   9.695   3.724   9.097  0.2582  0.3976  0.3027
  445MOL0     C58637   9.754   3.793   9.205  0.3093 -0.0327  0.1098
  445MOL0     O58638   9.671   3.885   9.273 -0.4105 -0.5642  0.1172
  445MOL0     C58639   9.726   3.948   9.376 -0.3295 -0.1198 -0.2026
  445MOL0     C58640   9.832   4.028   9.355  0.0114 -1.0953 -0.0774
  445MOL0     C58641   9.921   4.076   9.458 -0.7222 -0.9365 -0.1131
  445MOL0     C58642   9.891   4.045   9.594 -0.3426  0.1238  0.7929
  445MOL0     O58643   9.959   4.079   9.709  0.4245 -1.0963 -0.3426
  445MOL0     C58644  10.075   4.173   9.701  0.7081 -0.6062 -0.4895
  445MOL0     C58645  10.212   4.113   9.714  1.5212  0.5385 -0.4774
  445MOL0     C58646  10.232   4.007   9.610  0.3000  0.8709  1.4179
  445MOL0     C58647  10.309   4.058   9.488 -0.3357  0.3015  0.2042
  445MOL0     C58648  10.348   3.953   9.378 -0.0077 -0.5736  0.5182
  445MOL0     C58649  10.231   3.931   9.292 -0.0921 -0.2831 -0.1974
  445MOL0     C58650  10.256   3.840   9.172 -0.1814  0.0656  0.1681
  445MOL0     C58651  10.239   3.689   9.213  0.7302  0.2295  0.6061
  445MOL0    Cl58652  10.279   3.592   9.072  0.3027  0.2546  0.5643
  445MOL0     C58653   9.784   3.957   9.610 -1.1245  0.1907  0.1285
  445MOL0     C58654   9.702   3.922   9.509 -1.2860  0.7116 -0.2626
  445MOL0     O58655   9.866   3.759   9.231  0.6841 -0.4781  0.0616
  445MOL0     C58656   9.767   3.682   8.988 -0.8161  0.1058 -0.0331
  445MOL0     C58657   9.708   3.608   8.885 -0.2076  0.8110  0.0621
  445MOL0     N58658   9.290   2.877   8.779  0.0986 -0.2397 -1.0607
  445MOL0     N58659   9.383   2.786   8.803 -0.1305 -0.2131  0.5114
  445MOL0     C58660  10.099   2.433   9.849 -0.4601  0.1553  0.3743
  445MOL0     C58661  10.206   2.385   9.921 -0.2380  0.6982 -0.3238
  445MOL0     C58662  10.496   2.072  10.103 -0.0035 -0.1973  0.7155
  445MOL0     C58663  10.604   2.150  10.139  0.3528 -0.6477 -0.4883
  445MOL0     C58664  10.704   2.104  10.224 -1.1405 -0.1285  0.1973
  445MOL0     C58665  10.702   1.972  10.264  0.2046 -0.1034  0.4516
  445MOL0     O58666  10.817   1.938  10.334  0.7825  0.0661 -0.1425
  445MOL0     C58667  10.833   1.809  10.391 -0.0503  0.6882 -0.0017
  445MOL0     C58668  10.938   1.818  10.495 -0.2766  0.3220 -0.5584
  445MOL0     C58669  11.063   1.891  10.437 -0.4546 -0.9628  0.2075
  445MOL0     C58670  11.178   1.878  10.538  0.5225  0.3134 -0.3229
  445MOL0     C58671  11.280   1.989  10.545 -1.0641  0.5754  0.5008
  445MOL0     C58672  11.418   2.125  10.580  0.5412  0.2256  1.4224
  445MOL0     C58673  10.591   1.896  10.231 -0.7229  1.3880  0.4334
  445MOL0     C58674  10.490   1.944  10.151  0.4638  0.2033 -0.1916
  445MOL0     H58675  10.335   2.145   9.721  1.3293  1.2116  1.1481
  445MOL0     H58676  10.129   2.220   9.582 -0.6861 -2.9242  1.7217
  445MOL0     H58677   9.884   2.525   9.793  0.0263 -1.7116  0.2748
  445MOL0     H58678   9.771   2.445   9.684  0.2793 -0.7542  0.6641
  445MOL0     H58679   9.933   2.682   9.596 -2.6522  3.5363 -0.1716
  445MOL0     H58680   9.770   2.678   9.650  1.1077  3.0637 -1.5371
  445MOL0     H58681   9.690   2.538   9.485  0.5583 -0.5902  0.6614
  445MOL0     H58682   9.848   2.505   9.413  0.2417  1.7864 -3.7210
  445MOL0     H58683   9.714   2.785   9.422  3.0984  0.2880  3.5095
  445MOL0     H58684   9.867   2.760   9.358  1.1312 -1.6520  1.3632
  445MOL0     H58685   9.634   2.606   9.249 -0.8414 -1.3803 -3.7913
  445MOL0     H58686   9.807   2.586   9.199 -1.9531 -1.3939  0.4540
  445MOL0     H58687   9.824   2.811   9.115  0.6669 -0.6999 -0.0001
  445MOL0     H58688   9.664   2.852   9.174  0.7004  0.6522  1.4917
  445MOL0     H58689   9.697   2.778   8.913  2.1001 -0.6064 -0.3364
  445MOL0     H58690   9.722   2.617   8.980  2.3977  1.8788 -3.2491
  445MOL0     H58691   9.473   2.680   9.078 -0.7789 -0.0436  0.4785
  445MOL0     H58692   9.525   2.598   8.922 -1.8173 -0.8863  0.8064
  445MOL0     H58693   9.439   2.985   9.054 -2.5009  1.2462  0.5537
  445MOL0     H58694   9.244   3.113   9.040  4.4579  0.5084 -0.3935
  445MOL0     H58695   9.120   3.062   8.926 -0.3671  2.0666 -0.6164
  445MOL0     H58696   9.158   3.267   8.870 -1.0046 -2.4343  1.4622
  445MOL0     H58697   9.246   3.182   8.737 -0.3603  1.5908 -0.6850
  445MOL0     H58698   9.388   3.321   8.974 -0.8874  1.4467 -0.6097
  445MOL0     H58699   9.463   3.210   8.858 -0.9872  0.2242 -4.5636
  445MOL0     H58700   9.329   3.485   8.826 -2.7955 -1.7965  0.8042
  445MOL0     H58701   9.390   3.388   8.694 -2.1513 -1.6879  1.2136
  445MOL0     H58702   9.403   3.556   9.027 -0.7082  1.1860 -2.4968
  445MOL0     H58703   9.499   3.699   9.187  2.9561 -0.3896  3.2874
  445MOL0     H58704   9.861   4.038   9.251  0.1962  0.2628  0.0876
  445MOL0     H58705  10.010   4.133   9.433 -0.4437 -0.4372  1.8509
  445MOL0     H58706  10.069   4.244   9.784  2.4658 -1.1562  0.1609
  445MOL0     H58707  10.066   4.239   9.614 -0.0411  0.8857  0.6654
  445MOL0     H58708  10.208   4.066   9.813  0.2526 -0.7825 -1.1150
  445MOL0     H58709  10.299   4.179   9.710  2.8551 -0.8655  2.3370
  445MOL0     H58710  10.149   3.952   9.565  2.1242  1.3692 -2.9974
  445MOL0     H58711  10.295   3.927   9.650  1.4014 -0.3695 -2.4228
  445MOL0     H58712  10.253   4.145   9.455 -0.8699  0.4251  1.3775
  445MOL0     H58713  10.411   4.081   9.523  0.8121 -1.2215 -1.9379
  445MOL0     H58714  10.374   3.856   9.422 -0.5450 -0.8695  0.1917
  445MOL0     H58715  10.422   3.997   9.311 -1.2404 -0.0829 -0.5665
  445MOL0     H58716  10.217   4.034   9.259  0.6998  0.3639  1.3376
  445MOL0     H58717  10.148   3.893   9.352  1.1855  0.7179  2.3949
  445MOL0     H58718  10.184   3.873   9.097  2.0458 -0.7405 -2.4931
  445MOL0     H58719  10.357   3.859   9.135 -0.0583  2.0418  1.4154
  445MOL0     H58720  10.136   3.668   9.243 -1.6872  2.9428 -4.4003
  445MOL0     H58721  10.301   3.666   9.300 -0.9035  2.0031  2.3180
  445MOL0     H58722   9.746   3.933   9.709 -0.2760  0.9577  0.6640
  445MOL0     H58723   9.621   3.855   9.533  0.0001 -0.6265  0.4932
  445MOL0     H58724   9.872   3.699   8.970 -1.2580  1.9279 -1.1165
  445MOL0     H58725   9.772   3.616   8.799 -1.0815  2.7213 -0.4761
  445MOL0     H58726  10.038   2.511   9.894 -2.2101 -1.1554  0.3968
  445MOL0     H58727  10.227   2.405  10.026  0.7237  0.4401 -0.4581
  445MOL0     H58728  10.624   2.249  10.099  0.6035 -0.9673 -1.1855
  445MOL0     H58729  10.794   2.154  10.257 -0.3719 -2.8992  2.7882
  445MOL0     H58730  10.857   1.745  10.306  1.9260  2.4575 -0.8583
  445MOL0     H58731  10.733   1.779  10.423  0.2648 -0.3741  0.0447
  445MOL0     H58732  10.886   1.870  10.576  1.0925  0.1737  0.4649
  445MOL0     H58733  10.963   1.716  10.524  2.3986  0.4600 -2.0083
  445MOL0     H58734  11.043   1.998  10.429  1.8957 -0.4715  0.2911
  445MOL0     H58735  11.089   1.856  10.337  0.2164 -1.0359  0.4064
  445MOL0     H58736  11.153   1.876  10.644  2.2995  1.2477  0.1443
  445MOL0     H58737  11.240   1.792  10.513  1.3561 -0.6037  4.0490
  445MOL0     H58738  11.478   2.207  10.614  0.2813  0.0075  2.4220
  445MOL0     H58739  10.577   1.795  10.268  0.5173 -0.0022 -2.5563
  445MOL0     H58740  10.405   1.878  10.136 -0.6167  1.6913 -0.8812
  446MOL0     O58741  11.401   1.551   1.214  0.6817  0.2957  0.2142
  446MOL0     C58742  11.509   1.580   1.265  0.4625 -0.7955 -0.2594
  446MOL0     O58743  11.569   1.508   1.358  0.0627 -0.1003  0.0519
  446MOL0     C58744  11.550   1.375   1.399 -0.2905 -0.3214 -0.1532
  446MOL0     C58745  11.490   1.268   1.325  0.4896  0.5309 -0.2015
  446MOL0     C58746  11.493   1.143   1.384 -0.2546  0.1222  0.3731
  446MOL0     C58747  11.567   1.121   1.502 -0.4633 -0.1521 -0.0062
  446MOL0     O58748  11.561   0.997   1.569  0.1798 -0.2650  0.3691
  446MOL0     C58749  11.594   0.886   1.484 -0.4708 -0.3244 -0.2536
  446MOL0     C58750  11.737   0.854   1.480  0.2628  0.1798 -0.1652
  446MOL0     C58751  11.835   0.951   1.407  0.9369 -0.0599  0.0189
  446MOL0     C58752  11.819   0.978   1.256 -0.8405 -0.3159  0.9516
  446MOL0     C58753  11.942   1.058   1.207  0.8600 -0.0913 -0.7511
  446MOL0     C58754  11.960   1.059   1.050 -0.1024  0.3421 -0.1468
  446MOL0     C58755  11.958   0.923   0.982 -0.1715  0.0439 -0.4006
  446MOL0     C58756  12.093   0.846   0.994  0.1118  0.0432  0.0407
  446MOL0     N58757  12.095   0.724   0.918 -0.1232 -0.0559  0.3501
  446MOL0     C58758  12.037   0.597   0.941  0.5726  0.3988  0.7157
  446MOL0     C58759  12.056   0.532   0.825 -0.1153 -0.2403  0.4580
  446MOL0     C58760  12.011   0.391   0.805 -0.1644 -0.1039 -1.1067
  446MOL0     C58761  11.946   0.373   0.663 -0.0694  0.6331 -0.1784
  446MOL0     C58762  11.865   0.249   0.637 -0.4167 -1.2125 -0.2986
  446MOL0     C58763  11.963   0.136   0.623 -0.0099 -1.0285 -0.5470
  446MOL0     O58764  11.898   0.012   0.597 -0.3447  0.1599  0.5674
  446MOL0     C58765  11.853  -0.064   0.693 -0.4534 -0.3620  0.0688
  446MOL0     C58766  11.808  -0.185   0.657  0.1971  0.1043  0.8027
  446MOL0     C58767  11.753  -0.267   0.752  0.2621  1.1339 -0.0968
  446MOL0     C58768  11.736  -0.238   0.881 -0.5727  0.3000 -0.7318
  446MOL0     C58769  11.654  -0.325   0.969  0.7789 -0.6986 -0.0061
  446MOL0     O58770  11.603  -0.263   1.079 -0.1810 -0.5225 -1.0111
  446MOL0     C58771  11.526  -0.342   1.166 -0.5562  0.1596  0.0213
  446MOL0     C58772  11.564  -0.462   1.225  0.4781  0.5212 -0.9417
  446MOL0     C58773  11.487  -0.515   1.337  0.8055 -0.4509  0.9399
  446MOL0     C58774  11.369  -0.450   1.371  0.0032 -0.0916  0.2981
  446MOL0     O58775  11.278  -0.494   1.466 -0.3423 -0.8792  1.2175
  446MOL0     C58776  11.321  -0.579   1.575  0.5179  0.6480 -0.8446
  446MOL0     C58777  11.263  -0.518   1.708  1.3256 -0.4713 -0.9657
  446MOL0     C58778  11.288  -0.369   1.711  0.1907 -0.0010 -1.3247
  446MOL0     C58779  11.270  -0.294   1.843  0.6533  0.2707 -1.4679
  446MOL0     C58780  11.135  -0.250   1.887  0.0038 -0.2594 -0.0825
  446MOL0     C58781  11.118  -0.100   1.871  0.8612 -1.2233  0.4312
  446MOL0     C58782  11.147  -0.053   1.721 -0.0358  0.0362 -0.4900
  446MOL0     C58783  11.049  -0.084   1.610  0.1895 -0.0920 -0.0435
  446MOL0    Cl58784  10.933   0.059   1.589  0.5424 -0.0562  0.2158
  446MOL0     C58785  11.327  -0.331   1.307  0.0855  0.0031 -0.2516
  446MOL0     C58786  11.416  -0.280   1.200  0.7987  1.0791  0.1270
  446MOL0     O58787  11.622  -0.436   0.930 -0.9450 -0.3520  0.6425
  446MOL0     C58788  11.774  -0.111   0.924 -0.0061  0.7376  0.0937
  446MOL0     C58789  11.834  -0.022   0.830  0.4333  0.4324  0.0206
  446MOL0     N58790  12.102   0.625   0.730  1.8539  0.5482  0.4685
  446MOL0     N58791  12.134   0.736   0.790 -0.5374  0.1828  0.5621
  446MOL0     C58792  11.631   1.220   1.573  0.5629  0.4860 -0.9560
  446MOL0     C58793  11.617   1.346   1.519 -0.2931  0.0391  1.2013
  446MOL0     C58794  11.596   1.684   1.207 -0.1413 -0.3226 -0.6664
  446MOL0     C58795  11.731   1.695   1.235  0.9734 -0.5396  1.3254
  446MOL0     C58796  11.816   1.797   1.174  0.5620  1.3014  1.1920
  446MOL0     C58797  11.749   1.899   1.099 -0.5989 -0.6967  0.2119
  446MOL0     O58798  11.823   2.009   1.061 -0.1612  0.3216 -0.5160
  446MOL0     C58799  11.877   2.093   1.159 -0.2480 -0.2575 -1.3345
  446MOL0     C58800  11.925   2.219   1.091 -0.0190 -0.4305 -0.3034
  446MOL0     C58801  11.827   2.339   1.082 -0.4457  0.6344 -0.4580
  446MOL0     C58802  11.713   2.323   0.980 -0.7419 -0.3382 -0.0346
  446MOL0     C58803  11.764   2.368   0.844  0.3896 -0.4728 -0.4912
  446MOL0     C58804  11.807   2.399   0.743  0.3644  1.0419 -0.1767
  446MOL0     C58805  11.614   1.899   1.071 -0.0406  0.7008 -0.2094
  446MOL0     C58806  11.536   1.782   1.126 -0.7887  0.0765  0.2883
  446MOL0     H58807  11.442   1.267   1.227 -0.0419 -1.1898  0.0505
  446MOL0     H58808  11.444   1.060   1.333 -1.2551  0.3743  0.8965
  446MOL0     H58809  11.551   0.889   1.384 -3.1990  0.2986  0.8546
  446MOL0     H58810  11.544   0.791   1.507 -0.8933  0.0276  0.3204
  446MOL0     H58811  11.747   0.756   1.433  0.4350  0.7000 -1.2414
  446MOL0     H58812  11.780   0.841   1.579  5.4638  0.6035 -2.0657
  446MOL0     H58813  11.927   0.905   1.444 -0.7475 -0.3573  4.3776
  446MOL0     H58814  11.811   1.044   1.459 -0.6750 -0.6415  0.3479
  446MOL0     H58815  11.809   0.880   1.208  0.9540 -0.2255  0.3163
  446MOL0     H58816  11.732   1.043   1.245  1.7286  3.1645 -0.5139
  446MOL0     H58817  12.035   1.022   1.251  0.3561 -0.6713 -0.1477
  446MOL0     H58818  11.926   1.163   1.234  1.8282 -0.2647  0.6099
  446MOL0     H58819  12.057   1.108   1.036  1.8694 -3.7206 -2.8171
  446MOL0     H58820  11.883   1.123   1.007  1.2767  1.2380 -1.3903
  446MOL0     H58821  11.871   0.863   1.012  0.2477 -1.4593 -2.0147
  446MOL0     H58822  11.947   0.934   0.874 -0.5295 -0.3828 -0.4144
  446MOL0     H58823  12.110   0.822   1.099  2.9914 -5.3332 -1.2526
  446MOL0     H58824  12.180   0.909   0.975 -1.0533  1.0702 -2.2955
  446MOL0     H58825  12.004   0.565   1.039 -0.4546 -4.1373 -0.8704
  446MOL0     H58826  11.930   0.372   0.875  1.2379 -0.8636  0.3903
  446MOL0     H58827  12.099   0.329   0.825 -0.9564 -1.2079 -0.9512
  446MOL0     H58828  12.017   0.389   0.581 -2.1014  3.8801 -1.5184
  446MOL0     H58829  11.874   0.453   0.643 -0.7255  0.1329  0.1262
  446MOL0     H58830  11.780   0.240   0.706 -2.0035  2.6426 -1.4586
  446MOL0     H58831  11.823   0.245   0.536 -0.5849 -2.5359 -0.1842
  446MOL0     H58832  12.015   0.120   0.718  0.7769  0.5647 -0.6786
  446MOL0     H58833  12.039   0.176   0.555 -1.1856  2.8439  0.1659
  446MOL0     H58834  11.824  -0.205   0.551  0.0421  4.9391 -0.3399
  446MOL0     H58835  11.735  -0.368   0.717  2.3966  1.1771 -1.4764
  446MOL0     H58836  11.644  -0.517   1.177 -1.2818 -0.6927 -2.6792
  446MOL0     H58837  11.522  -0.603   1.390  1.8002 -0.0662  0.9368
  446MOL0     H58838  11.428  -0.591   1.592  0.1353 -3.1091 -0.0070
  446MOL0     H58839  11.280  -0.681   1.569 -0.7918  0.9529  1.6246
  446MOL0     H58840  11.310  -0.567   1.794  0.4953  0.3164 -0.0491
  446MOL0     H58841  11.155  -0.537   1.710  0.3268  4.1144 -0.7076
  446MOL0     H58842  11.233  -0.309   1.638  0.5243  2.1706  0.1421
  446MOL0     H58843  11.396  -0.362   1.696  0.3476  0.8375  0.0183
  446MOL0     H58844  11.299  -0.362   1.924  3.0121 -0.6131 -2.9286
  446MOL0     H58845  11.346  -0.215   1.845 -0.4012  1.3165  1.2837
  446MOL0     H58846  11.112  -0.280   1.989 -1.2738 -1.5823 -0.7182
  446MOL0     H58847  11.072  -0.313   1.824  0.7734 -0.0482 -1.1096
  446MOL0     H58848  11.194  -0.052   1.933  1.2968 -1.7213  0.2948
  446MOL0     H58849  11.017  -0.067   1.898  0.7799  3.5538 -4.0150
  446MOL0     H58850  11.169   0.053   1.727  3.1186 -0.5766  0.8598
  446MOL0     H58851  11.253  -0.079   1.708  0.3002  1.4202 -0.6162
  446MOL0     H58852  10.985  -0.171   1.628 -1.2149  1.1774  1.4650
  446MOL0     H58853  11.103  -0.087   1.515  0.9892 -1.9870  0.4195
  446MOL0     H58854  11.241  -0.272   1.337  1.1108  0.6903  1.5587
  446MOL0     H58855  11.381  -0.189   1.153 -5.7768 -0.4056  1.1918
  446MOL0     H58856  11.743  -0.072   1.020 -0.9586  1.5972 -0.5413
  446MOL0     H58857  11.854   0.082   0.857 -1.2327  1.2302 -1.5397
  446MOL0     H58858  11.675   1.184   1.666  1.5830 -1.1591 -2.0266
  446MOL0     H58859  11.648   1.418   1.595 -0.5483 -0.2627  1.5962
  446MOL0     H58860  11.784   1.626   1.301 -2.2858 -1.6504  3.0117
  446MOL0     H58861  11.923   1.802   1.190  0.8771  0.8744 -0.5364
  446MOL0     H58862  11.972   2.063   1.204  1.6418  1.5325 -3.8703
  446MOL0     H58863  11.815   2.130   1.241 -0.9781 -0.2866 -1.8693
  446MOL0     H58864  12.005   2.256   1.156 -1.4606  2.2711  0.0687
  446MOL0     H58865  11.972   2.203   0.993 -0.9813 -0.2657 -0.7971
  446MOL0     H58866  11.896   2.419   1.052  1.8006 -2.2554 -3.8798
  446MOL0     H58867  11.781   2.364   1.177  0.0356  2.5245 -0.6754
  446MOL0     H58868  11.688   2.216   0.983  1.0226 -0.7777  2.3607
  446MOL0     H58869  11.628   2.384   1.014 -1.5323 -3.1026  3.7007
  446MOL0     H58870  11.838   2.415   0.641  1.7125  1.9306  0.3431
  446MOL0     H58871  11.563   1.978   1.018  0.7382  0.7455 -0.9145
  446MOL0     H58872  11.431   1.762   1.106 -1.1985 -0.1353  2.3632
  447MOL0     O58873   7.958   2.579  10.881  0.3007  0.6625 -0.1159
  447MOL0     C58874   8.045   2.664  10.899  0.4366 -0.3181  0.5943
  447MOL0     O58875   8.168   2.632  10.942  0.4331  0.7968 -0.7257
  447MOL0     C58876   8.203   2.511  10.980 -1.2811 -0.6105 -0.2194
  447MOL0     C58877   8.125   2.426  11.054 -0.2036 -0.3978 -0.3911
  447MOL0     C58878   8.161   2.291  11.061 -0.1807 -0.7115  0.9171
  447MOL0     C58879   8.280   2.246  11.015 -0.5238  0.0117 -0.1961
  447MOL0     O58880   8.310   2.108  11.029 -0.0595  0.2367 -0.0486
  447MOL0     C58881   8.444   2.075  11.081  0.0556  0.0791  0.3627
  447MOL0     C58882   8.474   1.921  11.046 -0.5829  0.5364  0.3090
  447MOL0     C58883   8.618   1.875  11.058 -0.6695 -0.2546  0.4190
  447MOL0     C58884   8.618   1.730  11.018 -0.8529  0.7394 -0.0536
  447MOL0     C58885   8.768   1.699  11.001  0.7168 -0.4209 -0.1333
  447MOL0     C58886   8.781   1.580  10.910 -0.1365  0.2572 -0.7535
  447MOL0     C58887   8.930   1.562  10.887  0.3260  0.2428 -0.4633
  447MOL0     C58888   8.956   1.420  10.813 -0.5482 -0.1803  0.2123
  447MOL0     N58889   9.095   1.382  10.798  0.4443  0.3456 -0.2282
  447MOL0     C58890   9.196   1.464  10.749  0.2137  0.6168  0.1888
  447MOL0     C58891   9.302   1.394  10.745  0.7549 -0.6546 -0.4830
  447MOL0     C58892   9.444   1.437  10.702 -0.3277  0.4862 -1.2842
  447MOL0     C58893   9.491   1.562  10.780 -0.6381 -0.6491  0.3409
  447MOL0     C58894   9.519   1.545  10.926 -0.0570 -0.2398 -0.3851
  447MOL0     C58895   9.547   1.680  10.994  0.0075 -0.5809 -0.2994
  447MOL0     O58896   9.438   1.771  10.978 -0.4623 -0.1519 -0.1059
  447MOL0     C58897   9.441   1.869  11.070  1.3267 -0.5235 -0.4794
  447MOL0     C58898   9.330   1.877  11.143  0.6229 -0.1915  0.1982
  447MOL0     C58899   9.324   1.959  11.261  0.0076  0.2177  0.1036
  447MOL0     C58900   9.445   2.034  11.294  0.3192 -0.0890 -0.3101
  447MOL0     C58901   9.463   2.103  11.421 -0.8230  0.0877  0.9982
  447MOL0     O58902   9.587   2.151  11.457 -1.0304 -0.4885  0.0363
  447MOL0     C58903   9.600   2.211  11.580  0.0326  0.3443 -0.3783
  447MOL0     C58904   9.516   2.310  11.623  0.3802  0.3028 -0.2315
  447MOL0     C58905   9.528   2.371  11.750  0.7696  0.8812 -0.1990
  447MOL0     C58906   9.612   2.321  11.840 -0.1435  0.2354 -0.2862
  447MOL0     O58907   9.596   2.386  11.960 -0.5853  0.0877  0.6152
  447MOL0     C58908   9.663   2.345  12.080  0.1433 -0.2514 -0.0571
  447MOL0     C58909   9.804   2.406  12.083  0.1897  0.3906  0.5086
  447MOL0     C58910   9.812   2.553  12.075  0.2645 -0.1957  0.5778
  447MOL0     C58911   9.760   2.627  12.197  0.5474  0.1498 -0.2672
  447MOL0     C58912   9.820   2.775  12.194  0.0589  0.5976 -0.5363
  447MOL0     C58913   9.758   2.885  12.283  0.7890  0.1159 -0.8612
  447MOL0     C58914   9.718   2.838  12.421  0.7879  0.0030  0.1549
  447MOL0     C58915   9.632   2.942  12.500 -0.8004  0.3005 -0.2341
  447MOL0    Cl58916   9.701   3.108  12.492 -0.9858  0.1925  0.1036
  447MOL0     C58917   9.691   2.210  11.807 -0.1223  0.7874 -0.3340
  447MOL0     C58918   9.684   2.157  11.671  0.1668 -0.5366  0.2939
  447MOL0     O58919   9.368   2.105  11.493  0.3749  0.4801 -0.8621
  447MOL0     C58920   9.561   2.008  11.221 -0.2351 -1.2969 -0.2444
  447MOL0     C58921   9.557   1.934  11.108 -0.5619  0.0793  0.4719
  447MOL0     N58922   9.269   1.262  10.790 -0.6684  0.4455  0.2213
  447MOL0     N58923   9.141   1.258  10.809  0.5220  1.0127 -1.1503
  447MOL0     C58924   8.366   2.330  10.956 -0.8829  0.1559 -0.3371
  447MOL0     C58925   8.327   2.466  10.929 -0.1150  0.3298  0.6390
  447MOL0     C58926   8.012   2.803  10.856 -0.7213 -0.2556 -0.1484
  447MOL0     C58927   7.884   2.834  10.801 -0.2707  0.0375 -0.5533
  447MOL0     C58928   7.859   2.957  10.734  0.4896  0.3023  0.0052
  447MOL0     C58929   7.950   3.063  10.745 -1.0073  0.2746  0.0171
  447MOL0     O58930   7.900   3.172  10.684 -0.2474 -0.1017  0.7267
  447MOL0     C58931   7.961   3.300  10.689 -0.4329  1.2549 -1.3834
  447MOL0     C58932   7.963   3.351  10.553 -0.2570  0.3584 -0.1408
  447MOL0     C58933   8.086   3.287  10.490  0.1868  0.4321 -0.0103
  447MOL0     C58934   8.081   3.305  10.340  0.1603 -0.6097 -0.3654
  447MOL0     C58935   8.210   3.300  10.286 -0.0526 -0.0471 -0.3828
  447MOL0     C58936   8.325   3.290  10.240  0.1682  0.9614 -1.5225
  447MOL0     C58937   8.070   3.047  10.823  0.1944  0.2299 -0.1206
  447MOL0     C58938   8.105   2.914  10.862 -1.2978  0.3045  0.0009
  447MOL0     H58939   8.024   2.444  11.087 -1.5059 -1.0500 -3.6232
  447MOL0     H58940   8.102   2.220  11.118 -1.9243 -0.5176 -0.5695
  447MOL0     H58941   8.457   2.094  11.188  1.9716  1.6497 -0.0749
  447MOL0     H58942   8.517   2.138  11.029 -0.6962  2.4945  2.0346
  447MOL0     H58943   8.439   1.916  10.942  0.2344  3.9610 -0.2771
  447MOL0     H58944   8.421   1.867  11.124  1.1645  0.8621  1.7789
  447MOL0     H58945   8.640   1.894  11.163 -1.3755 -0.1415  0.5554
  447MOL0     H58946   8.685   1.942  11.003 -0.0946  0.0846  1.5082
  447MOL0     H58947   8.572   1.667  11.095  0.2223  1.7106  1.4477
  447MOL0     H58948   8.566   1.723  10.922 -0.3732 -0.0223 -0.2661
  447MOL0     H58949   8.810   1.669  11.097 -2.1991 -0.2188  1.3173
  447MOL0     H58950   8.825   1.783  10.961 -0.0501 -0.2757 -0.9687
  447MOL0     H58951   8.748   1.613  10.811  1.0567 -0.5904 -1.4632
  447MOL0     H58952   8.723   1.498  10.954  0.7866  1.8784  4.0994
  447MOL0     H58953   8.983   1.637  10.828  2.9479 -2.2892 -1.5968
  447MOL0     H58954   8.986   1.556  10.980  1.5291  1.9684 -1.0269
  447MOL0     H58955   8.895   1.415  10.722  1.0785 -0.1985 -0.9360
  447MOL0     H58956   8.922   1.347  10.887 -0.0216  0.5131  1.1444
  447MOL0     H58957   9.189   1.564  10.708 -1.1065  0.5278  0.1431
  447MOL0     H58958   9.458   1.456  10.596  0.4883  1.0812 -1.0807
  447MOL0     H58959   9.512   1.356  10.730 -0.6108  0.9483  0.9656
  447MOL0     H58960   9.410   1.635  10.770  1.2581  1.4716 -0.3582
  447MOL0     H58961   9.588   1.597  10.743 -0.5159 -1.8056 -0.4941
  447MOL0     H58962   9.436   1.513  10.990  1.2950 -0.4345  1.3643
  447MOL0     H58963   9.601   1.473  10.939 -0.5841 -1.2069 -2.0638
  447MOL0     H58964   9.636   1.728  10.951 -0.9774 -0.5026 -2.4005
  447MOL0     H58965   9.556   1.657  11.100 -1.2878 -0.6023 -0.1867
  447MOL0     H58966   9.250   1.812  11.110  2.6398 -2.2113 -1.0313
  447MOL0     H58967   9.235   1.962  11.323  0.8437  0.0892  1.3526
  447MOL0     H58968   9.445   2.343  11.548  1.5243  0.8375 -1.1148
  447MOL0     H58969   9.457   2.450  11.774 -2.3289 -1.7444 -0.0197
  447MOL0     H58970   9.673   2.238  12.101  0.8459  0.1007  1.5401
  447MOL0     H58971   9.603   2.391  12.159 -2.3819 -2.5714 -0.4703
  447MOL0     H58972   9.850   2.366  11.992 -2.1437  0.9812 -1.0266
  447MOL0     H58973   9.867   2.369  12.163 -1.8966 -0.4948  1.8409
  447MOL0     H58974   9.746   2.584  11.994 -1.4904 -1.4530  1.4495
  447MOL0     H58975   9.908   2.592  12.041 -0.2804  3.3374  2.5035
  447MOL0     H58976   9.652   2.633  12.180 -0.0613 -0.8311  2.6117
  447MOL0     H58977   9.793   2.566  12.282  2.5012 -2.4462 -2.7166
  447MOL0     H58978   9.814   2.808  12.090 -3.3424  0.7866 -0.3967
  447MOL0     H58979   9.925   2.765  12.225  0.3975 -4.2159 -2.3698
  447MOL0     H58980   9.676   2.926  12.222  0.0546  0.8587  0.5848
  447MOL0     H58981   9.836   2.961  12.278 -0.7915  1.8508 -0.2158
  447MOL0     H58982   9.658   2.747  12.423 -1.5922  1.4816  1.4851
  447MOL0     H58983   9.811   2.820  12.475  1.4201  0.7905 -0.6353
  447MOL0     H58984   9.635   2.905  12.603  1.8489 -2.0401 -1.0430
  447MOL0     H58985   9.525   2.956  12.480  0.0194  3.8637 -3.2588
  447MOL0     H58986   9.764   2.168  11.875 -0.9465 -0.1219  0.0042
  447MOL0     H58987   9.751   2.084  11.628  0.6441 -0.1529  0.3786
  447MOL0     H58988   9.657   2.047  11.256  0.2777 -1.7813 -1.0786
  447MOL0     H58989   9.641   1.919  11.041  0.3611 -1.1939  1.8636
  447MOL0     H58990   8.467   2.296  10.933  1.0320  4.1265  1.1868
  447MOL0     H58991   8.393   2.527  10.869  0.4883 -1.6250 -0.7851
  447MOL0     H58992   7.812   2.754  10.787 -0.2893 -0.5581  2.4066
  447MOL0     H58993   7.764   2.977  10.684  0.9537  0.6756 -0.7501
  447MOL0     H58994   8.059   3.296  10.738 -1.0264 -2.6349 -0.1536
  447MOL0     H58995   7.889   3.363  10.743 -0.7648 -0.7186  0.6099
  447MOL0     H58996   7.875   3.327  10.492  2.7712 -1.1935 -4.3858
  447MOL0     H58997   7.980   3.459  10.562  1.9095  0.0310  0.3496
  447MOL0     H58998   8.108   3.183  10.516 -2.1298 -0.1023  0.0206
  447MOL0     H58999   8.157   3.347  10.547 -0.4993 -0.6431  2.0847
  447MOL0     H59000   8.026   3.224  10.291  2.0379 -1.7436 -0.7184
  447MOL0     H59001   8.022   3.394  10.317  0.8945  0.9319  3.0558
  447MOL0     H59002   8.426   3.286  10.203  0.7049  4.0939 -0.6702
  447MOL0     H59003   8.130   3.134  10.847 -1.9239  2.0457 -1.0565
  447MOL0     H59004   8.198   2.877  10.902 -0.3981  3.2699  0.9304
  448MOL0     O59005   7.698   3.955  10.592 -0.2083 -0.2396  0.1201
  448MOL0     C59006   7.645   3.977  10.489 -0.1427 -0.1466  0.4300
  448MOL0     O59007   7.506   3.971  10.464  0.7522  0.3828  0.8037
  448MOL0     C59008   7.421   3.906  10.552 -0.2207  0.9859  0.2773
  448MOL0     C59009   7.289   3.898  10.498 -0.1226 -0.2916 -0.3922
  448MOL0     C59010   7.188   3.825  10.556 -0.4034  0.2139  0.3267
  448MOL0     C59011   7.209   3.759  10.680 -0.3351 -0.1431 -0.7512
  448MOL0     O59012   7.110   3.701  10.752 -0.4285  0.3918 -0.1939
  448MOL0     C59013   6.988   3.655  10.692 -0.3760 -0.5432  0.8591
  448MOL0     C59014   6.896   3.618  10.800  0.1236  0.0546  0.3554
  448MOL0     C59015   6.789   3.728  10.801  0.4902  1.5874  0.4993
  448MOL0     C59016   6.668   3.698  10.902 -1.0657  0.2210  0.7234
  448MOL0     C59017   6.553   3.782  10.858  0.3236  0.4203 -0.5058
  448MOL0     C59018   6.445   3.796  10.975 -0.0261  0.6427 -0.4941
  448MOL0     C59019   6.307   3.858  10.931 -0.5197  0.2408 -0.2272
  448MOL0     C59020   6.311   4.001  10.866 -0.3669  0.6001  0.4624
  448MOL0     N59021   6.328   4.020  10.721  0.0172 -0.1677 -0.0562
  448MOL0     C59022   6.230   3.981  10.627 -0.5933 -0.6623 -0.6202
  448MOL0     C59023   6.287   4.014  10.511 -0.8037  0.2289  0.8298
  448MOL0     C59024   6.223   4.018  10.374 -0.0290 -0.8493 -0.4391
  448MOL0     C59025   6.177   4.163  10.343 -0.4406 -0.4190 -1.0304
  448MOL0     C59026   6.038   4.200  10.364  0.0858  0.6622  0.5949
  448MOL0     C59027   5.973   4.175  10.503 -0.1522  0.5855  0.2791
  448MOL0     O59028   6.025   4.274  10.591  0.2299 -0.2010 -0.7516
  448MOL0     C59029   5.925   4.325  10.680 -0.0549 -1.5460 -0.0031
  448MOL0     C59030   5.867   4.431  10.632  0.0870 -0.5131 -0.3577
  448MOL0     C59031   5.774   4.511  10.699 -0.5461  0.4288 -0.4184
  448MOL0     C59032   5.729   4.467  10.827  0.5945 -0.5720  0.3198
  448MOL0     C59033   5.630   4.539  10.904 -0.4618  0.3489  0.0145
  448MOL0     O59034   5.569   4.640  10.833  0.3281 -0.9619 -0.4060
  448MOL0     C59035   5.504   4.732  10.918 -0.4023  0.7474  0.5229
  448MOL0     C59036   5.371   4.761  10.886  0.0472  0.3489 -0.1959
  448MOL0     C59037   5.294   4.852  10.963 -0.0364 -0.2191  0.9698
  448MOL0     C59038   5.337   4.920  11.072  0.1700 -0.6888  0.5469
  448MOL0     O59039   5.252   5.010  11.129 -0.6834 -0.1299  0.2998
  448MOL0     C59040   5.281   5.036  11.269  0.1952  0.2522  0.0363
  448MOL0     C59041   5.184   5.146  11.320  0.4112 -0.1249  0.3642
  448MOL0     C59042   5.194   5.277  11.248  0.5489  0.8217  0.3792
  448MOL0     C59043   5.300   5.373  11.308  0.3302 -0.3911 -0.4521
  448MOL0     C59044   5.336   5.501  11.230 -0.5819 -0.5582  1.2237
  448MOL0     C59045   5.229   5.607  11.182  0.5366  0.3620  0.3418
  448MOL0     C59046   5.132   5.644  11.295 -0.6748 -0.1731  0.4076
  448MOL0     C59047   5.033   5.738  11.231 -0.3746 -0.6676  0.0477
  448MOL0    Cl59048   4.901   5.651  11.158 -0.4097 -0.2207  0.4929
  448MOL0     C59049   5.471   4.898  11.103 -0.2488  1.0290  0.8478
  448MOL0     C59050   5.550   4.804  11.030 -0.3538  0.4686  0.6344
  448MOL0     O59051   5.600   4.501  11.019 -0.0140 -0.5186 -0.0985
  448MOL0     C59052   5.778   4.342  10.877 -0.7438  0.2458 -0.3281
  448MOL0     C59053   5.879   4.273  10.805  0.6013  0.7002  0.6091
  448MOL0     N59054   6.418   4.053  10.531 -0.6875 -0.8078  1.4025
  448MOL0     N59055   6.437   4.060  10.654 -0.3219  0.8484 -0.1305
  448MOL0     C59056   7.339   3.778  10.748  0.4339  0.0837  0.1401
  448MOL0     C59057   7.436   3.855  10.689  0.2687 -0.7466 -0.0662
  448MOL0     C59058   7.724   4.051  10.389  0.5778 -0.2621  0.5391
  448MOL0     C59059   7.714   4.186  10.346 -0.6045  0.6185 -0.5486
  448MOL0     C59060   7.775   4.233  10.225  0.5916 -0.5826 -0.0006
  448MOL0     C59061   7.862   4.150  10.150  0.4704 -0.1544  0.1484
  448MOL0     O59062   7.918   4.182  10.031  0.3281 -0.3856  0.8418
  448MOL0     C59063   7.997   4.301  10.020  0.2207  0.0608  0.5434
  448MOL0     C59064   8.144   4.268  10.061 -0.5151  0.8548  0.1945
  448MOL0     C59065   8.203   4.180   9.954  0.2702 -0.9356  0.9004
  448MOL0     C59066   8.349   4.210   9.929  0.2670  0.0429  1.0465
  448MOL0     C59067   8.432   4.190  10.053 -0.0649  0.8198  0.5942
  448MOL0     C59068   8.499   4.155  10.145 -0.6157 -0.2681 -0.6982
  448MOL0     C59069   7.868   4.020  10.201  0.1194 -0.5428 -0.2769
  448MOL0     C59070   7.807   3.976  10.316  0.5828  0.0237 -0.1844
  448MOL0     H59071   7.256   3.937  10.402 -2.3454 -2.6046 -0.6786
  448MOL0     H59072   7.095   3.831  10.500  1.1745  1.8462 -2.3002
  448MOL0     H59073   7.014   3.565  10.635 -0.3526  0.3649 -0.6066
  448MOL0     H59074   6.950   3.731  10.623 -3.5728  0.5330  3.5322
  448MOL0     H59075   6.948   3.606  10.895  0.9651  0.4877 -0.0322
  448MOL0     H59076   6.844   3.524  10.780  0.5929  0.2247 -2.0014
  448MOL0     H59077   6.742   3.713  10.704 -0.5819  1.0274  1.0933
  448MOL0     H59078   6.826   3.830  10.819  1.8538  1.1875  0.0977
  448MOL0     H59079   6.639   3.593  10.895 -2.8255  0.7565 -1.0972
  448MOL0     H59080   6.692   3.724  11.006 -1.0883  0.9356  0.5559
  448MOL0     H59081   6.508   3.749  10.764  3.0998  1.8743 -2.4788
  448MOL0     H59082   6.591   3.884  10.844 -0.7615  1.0621  0.9872
  448MOL0     H59083   6.481   3.854  11.060  0.8295  0.5913 -0.8071
  448MOL0     H59084   6.426   3.698  11.021  3.7083  0.9155  2.0602
  448MOL0     H59085   6.257   3.790  10.862 -0.3904 -1.8934  1.6734
  448MOL0     H59086   6.248   3.858  11.023  2.5850 -2.9729  2.0278
  448MOL0     H59087   6.388   4.050  10.926 -0.8212 -1.4542  2.9222
  448MOL0     H59088   6.221   4.060  10.886 -2.3579 -1.5344 -1.5190
  448MOL0     H59089   6.132   3.952  10.662  0.5942  1.1224  5.1406
  448MOL0     H59090   6.149   3.937  10.383 -1.0144  0.1668  1.0927
  448MOL0     H59091   6.297   3.978  10.304  4.1622 -0.6966  3.4581
  448MOL0     H59092   6.215   4.192  10.244 -0.8265  2.6065 -0.3907
  448MOL0     H59093   6.238   4.225  10.409  0.6848 -1.6686 -0.8410
  448MOL0     H59094   6.047   4.309  10.356  2.6593  0.6077  1.7863
  448MOL0     H59095   5.976   4.153  10.287 -0.4756 -0.4581  1.7015
  448MOL0     H59096   6.005   4.074  10.528 -0.7153  0.1268 -0.7729
  448MOL0     H59097   5.864   4.181  10.498 -0.1580  3.7697  1.7664
  448MOL0     H59098   5.899   4.459  10.532  4.9994 -0.2080  1.0466
  448MOL0     H59099   5.729   4.593  10.644 -0.2049 -0.7686 -2.5960
  448MOL0     H59100   5.322   4.712  10.802 -0.2454  1.4213 -0.6677
  448MOL0     H59101   5.192   4.870  10.933 -0.4549 -5.2474 -1.5241
  448MOL0     H59102   5.386   5.064  11.277  0.6798 -0.4211 -2.7555
  448MOL0     H59103   5.248   4.941  11.312 -3.4366  1.1172 -0.4691
  448MOL0     H59104   5.199   5.153  11.428 -0.5129 -0.6531  0.5418
  448MOL0     H59105   5.076   5.126  11.325 -0.5788  4.0800  0.1377
  448MOL0     H59106   5.090   5.309  11.252 -1.2389 -3.9693 -0.8911
  448MOL0     H59107   5.216   5.260  11.142 -3.2335 -4.2445  0.0179
  448MOL0     H59108   5.256   5.414  11.400  3.2921 -1.6831  1.7250
  448MOL0     H59109   5.387   5.313  11.338 -1.4818 -2.1683  1.7013
  448MOL0     H59110   5.403   5.484  11.145  0.4132  1.8302  1.4372
  448MOL0     H59111   5.402   5.559  11.297  2.0809  0.4207 -1.9555
  448MOL0     H59112   5.171   5.542  11.116 -1.0968  1.3081  0.8103
  448MOL0     H59113   5.279   5.692  11.135 -0.6607  1.1952  0.5367
  448MOL0     H59114   5.093   5.563  11.357 -2.2089  1.7292  2.1055
  448MOL0     H59115   5.206   5.702  11.352  3.4051 -1.6495 -2.8831
  448MOL0     H59116   5.074   5.800  11.151 -0.4204 -1.6433 -0.7575
  448MOL0     H59117   4.994   5.793  11.317 -0.8036 -0.5463 -0.2211
  448MOL0     H59118   5.505   4.951  11.192 -0.6943  3.2314 -0.2322
  448MOL0     H59119   5.656   4.799  11.051 -0.8901 -2.2516  3.3309
  448MOL0     H59120   5.743   4.301  10.971  0.8793  2.0825  1.1807
  448MOL0     H59121   5.916   4.182  10.852  2.2086  0.7728 -0.4181
  448MOL0     H59122   7.350   3.739  10.849 -3.1723 -2.7325 -0.3154
  448MOL0     H59123   7.532   3.861  10.738  1.1038  1.7028 -1.8457
  448MOL0     H59124   7.648   4.245  10.409 -0.9724 -1.8371  1.5649
  448MOL0     H59125   7.756   4.335  10.194 -2.3748 -1.0365  0.0652
  448MOL0     H59126   7.951   4.378  10.082  2.1778  0.2338  1.8752
  448MOL0     H59127   7.999   4.334   9.916 -0.5765 -3.1499 -0.6056
  448MOL0     H59128   8.198   4.363  10.070  0.5283  0.1824  1.2664
  448MOL0     H59129   8.143   4.215  10.156 -2.8108 -1.5848 -1.0311
  448MOL0     H59130   8.142   4.168   9.865  1.5627  0.2194 -0.1888
  448MOL0     H59131   8.197   4.083  10.004 -1.2311 -2.1957 -1.5280
  448MOL0     H59132   8.378   4.149   9.843  0.2828  2.0381 -0.4374
  448MOL0     H59133   8.367   4.311   9.891  1.6825 -1.1238 -1.6402
  448MOL0     H59134   8.556   4.121  10.229 -0.0175  1.7407 -0.2316
  448MOL0     H59135   7.934   3.948  10.152  2.7812  0.8701  1.0239
  448MOL0     H59136   7.828   3.873  10.344  2.2751  0.7257  1.3229
  449MOL0     O59137   8.928   8.947   9.659 -0.2048  0.0687 -0.5672
  449MOL0     C59138   8.901   8.933   9.539 -0.2397  0.7154  0.3389
  449MOL0     O59139   8.942   9.016   9.445 -0.2526  0.0730  0.1813
  449MOL0     C59140   9.027   9.120   9.483 -0.3406  0.5688 -0.6764
  449MOL0     C59141   8.977   9.241   9.544 -0.5834 -0.2163  1.0619
  449MOL0     C59142   9.064   9.341   9.572  0.1133 -0.6392  0.7637
  449MOL0     C59143   9.199   9.335   9.534  0.0516  0.3684 -0.1814
  449MOL0     O59144   9.272   9.443   9.569 -0.2880  0.2637  0.2584
  449MOL0     C59145   9.383   9.481   9.481 -1.3461  0.6403  0.3090
  449MOL0     C59146   9.418   9.627   9.513  0.9819  0.1078 -0.5235
  449MOL0     C59147   9.287   9.712   9.537  0.2327 -0.2933  0.2045
  449MOL0     C59148   9.313   9.864   9.540  0.6080  0.5051 -0.1293
  449MOL0     C59149   9.208   9.935   9.608  0.2930 -0.3918 -0.1016
  449MOL0     C59150   9.062   9.922   9.556 -0.6514  0.6318  0.6558
  449MOL0     C59151   9.045   9.984   9.414 -1.1786 -0.9713 -0.3213
  449MOL0     C59152   8.906   9.959   9.349 -1.0905 -0.3266 -0.0066
  449MOL0     N59153   8.807  10.056   9.397 -0.6377 -0.0414  0.2981
  449MOL0     C59154   8.795  10.189   9.348 -0.9350  0.4020  0.0090
  449MOL0     C59155   8.666  10.219   9.378  0.3358 -0.6787 -0.5319
  449MOL0     C59156   8.588  10.346   9.337  0.1966 -0.0332  0.8505
  449MOL0     C59157   8.680  10.478   9.336  0.4162  0.1507 -1.2759
  449MOL0     C59158   8.612  10.608   9.279 -0.4575  0.4053 -1.0315
  449MOL0     C59159   8.492  10.665   9.358 -0.1703 -0.5514  0.5889
  449MOL0     O59160   8.492  10.810   9.340 -0.0570  0.1497 -0.1731
  449MOL0     C59161   8.414  10.881   9.261  0.3884 -0.0834  1.2685
  449MOL0     C59162   8.415  11.016   9.286 -0.2559 -0.4833 -0.2824
  449MOL0     C59163   8.336  11.101   9.205  0.2864 -0.2982  0.1753
  449MOL0     C59164   8.256  11.050   9.098 -0.0059 -0.0145 -0.5155
  449MOL0     C59165   8.178  11.132   9.010  0.5321 -0.2098  0.2917
  449MOL0     O59166   8.170  11.264   9.048  0.5592  0.1509 -0.1086
  449MOL0     C59167   8.133  11.344   8.945 -0.0916 -1.3935  0.2070
  449MOL0     C59168   8.001  11.381   8.910  0.1416 -1.1754 -0.6955
  449MOL0     C59169   7.975  11.466   8.805 -0.7116 -0.2245  0.0681
  449MOL0     C59170   8.073  11.517   8.720 -0.1831 -0.4702 -0.6074
  449MOL0     O59171   8.030  11.602   8.617 -0.5737  0.0485 -0.6994
  449MOL0     C59172   8.131  11.622   8.523  0.6237  0.4879  0.1680
  449MOL0     C59173   8.087  11.689   8.393 -0.5604  0.4815  0.7399
  449MOL0     C59174   7.938  11.656   8.350  0.6649 -0.2815 -0.0725
  449MOL0     C59175   7.832  11.745   8.416 -0.0921 -0.1929 -0.5151
  449MOL0     C59176   7.700  11.731   8.351 -0.2154  0.8526  0.2748
  449MOL0     C59177   7.575  11.788   8.427  0.3626  0.2072 -0.0027
  449MOL0     C59178   7.564  11.723   8.566  0.2949 -0.3506 -0.8190
  449MOL0     C59179   7.427  11.757   8.634 -0.2173 -1.1975 -0.6608
  449MOL0    Cl59180   7.413  11.688   8.796 -0.4284  0.5241  0.3005
  449MOL0     C59181   8.205  11.493   8.762 -0.0836 -0.0971  0.5898
  449MOL0     C59182   8.231  11.416   8.866 -0.1902  0.1165  0.1110
  449MOL0     O59183   8.114  11.084   8.909 -0.6012  0.5880  0.2367
  449MOL0     C59184   8.268  10.908   9.077  0.9305  0.6302  1.4431
  449MOL0     C59185   8.330  10.823   9.164 -0.1881  0.9354 -0.3978
  449MOL0     N59186   8.608  10.109   9.449 -0.9639  0.2804  0.1609
  449MOL0     N59187   8.695  10.009   9.458 -0.0259 -0.8428 -0.4370
  449MOL0     C59188   9.245   9.213   9.482 -0.0774 -0.0984  0.3787
  449MOL0     C59189   9.164   9.106   9.456 -0.1657  0.0606  0.1932
  449MOL0     C59190   8.824   8.812   9.497 -0.0245  0.5787 -0.4753
  449MOL0     C59191   8.804   8.706   9.582  0.3728 -0.1339 -0.5774
  449MOL0     C59192   8.757   8.584   9.545 -0.9165  0.7402  0.8983
  449MOL0     C59193   8.715   8.566   9.407 -0.4305  0.0619 -0.0169
  449MOL0     O59194   8.656   8.443   9.375 -1.2423  0.5502  0.4422
  449MOL0     C59195   8.564   8.428   9.268  0.3397 -0.1551 -0.4870
  449MOL0     C59196   8.423   8.480   9.285  0.9764  0.6592 -0.0538
  449MOL0     C59197   8.393   8.626   9.317  0.1642  0.4175 -1.1545
  449MOL0     C59198   8.238   8.630   9.351  0.0220 -0.1797  1.1314
  449MOL0     C59199   8.160   8.637   9.226 -0.1649  0.4294 -0.4791
  449MOL0     C59200   8.095   8.636   9.130  0.2818 -0.1040  0.7380
  449MOL0     C59201   8.724   8.679   9.317  0.1709  0.2838 -0.1848
  449MOL0     C59202   8.774   8.799   9.366 -0.3374 -1.0263 -0.5121
  449MOL0     H59203   8.871   9.241   9.564 -0.7544 -0.2919  0.1752
  449MOL0     H59204   9.036   9.439   9.610  1.6387 -1.1141  3.3502
  449MOL0     H59205   9.349   9.477   9.377 -2.1307 -1.6756  0.6048
  449MOL0     H59206   9.469   9.414   9.477 -0.3914  1.8118  0.3991
  449MOL0     H59207   9.477   9.665   9.429 -1.2936 -1.5101 -3.0295
  449MOL0     H59208   9.470   9.628   9.609 -2.0492  0.7952  1.2628
  449MOL0     H59209   9.242   9.680   9.632 -1.7494 -1.8038 -1.1816
  449MOL0     H59210   9.215   9.695   9.457  0.0077  1.9148 -0.1224
  449MOL0     H59211   9.408   9.890   9.588 -0.3471  3.1864  0.5122
  449MOL0     H59212   9.329   9.893   9.436  1.8393  1.3627  0.2713
  449MOL0     H59213   9.232  10.041   9.595 -2.1907  0.5899  2.3173
  449MOL0     H59214   9.215   9.912   9.715 -2.8134 -1.8457 -0.1025
  449MOL0     H59215   8.986   9.973   9.615 -1.7019 -0.1366 -0.0061
  449MOL0     H59216   9.041   9.816   9.567  0.0042  0.7085  3.4176
  449MOL0     H59217   9.064  10.091   9.428  0.0579 -1.4085  1.9448
  449MOL0     H59218   9.125   9.945   9.350  0.6147 -0.1288  1.2979
  449MOL0     H59219   8.873   9.856   9.365 -0.0488 -0.5233  0.9609
  449MOL0     H59220   8.926   9.968   9.242  0.4509 -2.0244  0.0973
  449MOL0     H59221   8.868  10.246   9.291 -0.0841 -0.4149  0.2651
  449MOL0     H59222   8.504  10.357   9.407 -0.3673  0.5660  0.0947
  449MOL0     H59223   8.534  10.336   9.243  0.7971  1.6740  0.2961
  449MOL0     H59224   8.779  10.474   9.290  0.0517 -1.0058 -2.0171
  449MOL0     H59225   8.704  10.492   9.442  0.0766 -2.4432 -0.7999
  449MOL0     H59226   8.688  10.687   9.276  1.6715 -1.5874 -2.4917
  449MOL0     H59227   8.587  10.587   9.175 -2.1433  1.1447 -0.8119
  449MOL0     H59228   8.527  10.642   9.459  0.7749 -0.3929  0.3135
  449MOL0     H59229   8.395  10.622   9.335 -0.8257  1.4241 -0.5893
  449MOL0     H59230   8.475  11.059   9.366 -0.9902 -1.0010  0.5635
  449MOL0     H59231   8.338  11.210   9.209 -0.9211 -0.2985  1.0798
  449MOL0     H59232   7.923  11.345   8.978  1.4006  2.5889  3.2320
  449MOL0     H59233   7.872  11.498   8.797 -1.5861 -2.6396  0.7441
  449MOL0     H59234   8.168  11.525   8.488  1.6318  0.9787 -0.1936
  449MOL0     H59235   8.217  11.678   8.561 -0.2114  1.4876  0.6368
  449MOL0     H59236   8.147  11.649   8.312 -1.5322 -0.5238  0.4865
  449MOL0     H59237   8.094  11.798   8.390 -0.3574  0.4476 -0.4358
  449MOL0     H59238   7.900  11.554   8.365 -0.5807 -0.3283 -3.0142
  449MOL0     H59239   7.922  11.679   8.245  0.2527  1.9497  0.4276
  449MOL0     H59240   7.827  11.743   8.526  0.0086  3.3664 -0.3152
  449MOL0     H59241   7.873  11.845   8.402 -0.7130  0.4444  1.7604
  449MOL0     H59242   7.682  11.630   8.314 -0.6730  1.6067 -1.7115
  449MOL0     H59243   7.709  11.788   8.257  0.2583  1.0129  0.4134
  449MOL0     H59244   7.477  11.776   8.379 -0.9055 -1.2719  2.6961
  449MOL0     H59245   7.589  11.895   8.444 -2.1907  0.3459  1.7545
  449MOL0     H59246   7.584  11.616   8.559  0.3981 -0.2648 -2.0123
  449MOL0     H59247   7.639  11.762   8.635  2.4148 -3.2466 -1.3407
  449MOL0     H59248   7.336  11.727   8.580 -1.6825  0.0297  0.9850
  449MOL0     H59249   7.423  11.866   8.642  0.4969 -1.3073  2.4493
  449MOL0     H59250   8.288  11.534   8.706  0.2047 -2.4342 -0.8051
  449MOL0     H59251   8.338  11.409   8.884 -0.1184  1.6104  0.4000
  449MOL0     H59252   8.221  10.870   8.987  0.4584  1.8390  1.1623
  449MOL0     H59253   8.339  10.717   9.142 -1.6102  1.3607 -3.7307
  449MOL0     H59254   9.350   9.199   9.457  0.4765 -0.9600  2.9079
  449MOL0     H59255   9.201   9.017   9.406 -3.4204 -0.1485 -2.2173
  449MOL0     H59256   8.816   8.725   9.688 -1.3727 -0.9276 -0.1940
  449MOL0     H59257   8.751   8.514   9.628  3.1669  0.4598  1.1364
  449MOL0     H59258   8.557   8.321   9.244 -0.6369 -0.0919 -0.4941
  449MOL0     H59259   8.616   8.475   9.183  1.8327 -1.5161 -0.3866
  449MOL0     H59260   8.362   8.455   9.198  2.3013  2.0832 -1.4532
  449MOL0     H59261   8.381   8.422   9.368  0.0771  1.3707  0.0064
  449MOL0     H59262   8.418   8.697   9.238  0.4839 -1.1732 -2.5563
  449MOL0     H59263   8.451   8.649   9.406  1.1673 -2.4853 -0.9649
  449MOL0     H59264   8.205   8.542   9.407 -1.7965 -2.4324 -3.0428
  449MOL0     H59265   8.195   8.720   9.395 -0.7758 -0.4625  0.9468
  449MOL0     H59266   8.014   8.644   9.060 -1.0618  1.4907  2.3702
  449MOL0     H59267   8.683   8.676   9.216 -3.0398  3.4371  0.8038
  449MOL0     H59268   8.795   8.877   9.294  2.9841 -0.2809  1.0611
  450MOL0     O59269   8.390   0.461  10.888 -1.0892 -0.6146 -0.3203
  450MOL0     C59270   8.409   0.579  10.860 -0.1612  0.5555 -0.1497
  450MOL0     O59271   8.505   0.622  10.771 -0.0217  0.2427  0.4346
  450MOL0     C59272   8.529   0.534  10.665 -0.2390 -1.0474 -0.3041
  450MOL0     C59273   8.656   0.553  10.603  0.9634  0.1895  0.0609
  450MOL0     C59274   8.695   0.476  10.494  0.1260  0.7708 -0.7170
  450MOL0     C59275   8.610   0.386  10.432  0.0502 -0.3644 -0.5006
  450MOL0     O59276   8.660   0.316  10.325 -0.5834 -0.3646  0.5513
  450MOL0     C59277   8.550   0.245  10.263 -0.6092 -0.3202  0.9505
  450MOL0     C59278   8.614   0.183  10.139 -0.9204 -0.1175 -0.1358
  450MOL0     C59279   8.621   0.277  10.015 -0.3672  0.4596  0.7735
  450MOL0     C59280   8.686   0.210   9.881  0.4388  0.0010 -0.1130
  450MOL0     C59281   8.702   0.295   9.763  0.0494 -0.5179  0.0573
  450MOL0     C59282   8.732   0.215   9.644  0.2342  0.5703  1.5354
  450MOL0     C59283   8.705   0.281   9.513 -0.1285 -0.2341  0.7708
  450MOL0     C59284   8.759   0.207   9.394 -0.1443  0.2645 -0.6640
  450MOL0     N59285   8.751   0.263   9.260  0.9812 -0.0641  0.0630
  450MOL0     C59286   8.724   0.391   9.234 -0.2161 -0.0858  0.2534
  450MOL0     C59287   8.753   0.409   9.107 -0.3935 -0.5923  0.6891
  450MOL0     C59288   8.713   0.536   9.036  1.1357 -0.3366 -0.0817
  450MOL0     C59289   8.801   0.652   9.100 -0.2237  0.4735  0.8392
  450MOL0     C59290   8.935   0.668   9.037 -0.0104 -0.2320 -0.6177
  450MOL0     C59291   8.930   0.746   8.908  0.2942 -0.0443  0.6647
  450MOL0     O59292   8.927   0.889   8.937  0.3393 -0.3232 -0.8221
  450MOL0     C59293   9.028   0.970   8.880  0.3655 -0.1304  0.5656
  450MOL0     C59294   8.991   1.104   8.848  0.6383 -0.6413  0.6257
  450MOL0     C59295   9.086   1.198   8.785 -0.0117  0.3423 -0.6764
  450MOL0     C59296   9.219   1.159   8.763  0.1317  0.4638 -0.0922
  450MOL0     C59297   9.321   1.231   8.680  0.6787 -0.3125  0.0490
  450MOL0     O59298   9.451   1.194   8.706  0.5703  0.4467  0.9573
  450MOL0     C59299   9.553   1.275   8.654  0.0490 -0.2202 -0.3983
  450MOL0     C59300   9.612   1.360   8.750  0.6532 -1.4868  0.3023
  450MOL0     C59301   9.712   1.456   8.732  1.0205 -0.0487  0.0431
  450MOL0     C59302   9.757   1.471   8.587  0.9853  0.0979 -0.2239
  450MOL0     O59303   9.850   1.566   8.548  0.5717 -0.8086  0.0666
  450MOL0     C59304   9.924   1.646   8.651  1.5725  0.4798 -0.2353
  450MOL0     C59305  10.057   1.561   8.696  0.9940  0.0852  0.2151
  450MOL0     C59306  10.181   1.585   8.600  0.9269 -0.1596  0.0261
  450MOL0     C59307  10.167   1.505   8.474  0.2173 -0.1886  0.9295
  450MOL0     C59308  10.198   1.592   8.341  1.0427  0.7069  0.0468
  450MOL0     C59309  10.245   1.514   8.217 -0.0653 -0.9991  0.2897
  450MOL0     C59310  10.158   1.399   8.160  0.3040 -0.3747  0.1196
  450MOL0     C59311  10.250   1.294   8.091  0.3738  0.6089 -0.1916
  450MOL0    Cl59312  10.319   1.382   7.955 -0.0651  0.2296  0.7655
  450MOL0     C59313   9.699   1.387   8.484  0.7945 -0.0268  0.2136
  450MOL0     C59314   9.602   1.288   8.520  0.0600 -0.5972  0.6729
  450MOL0     O59315   9.288   1.332   8.610 -0.0609 -0.0963  0.1972
  450MOL0     C59316   9.256   1.031   8.822  0.2609 -0.7891  0.2037
  450MOL0     C59317   9.164   0.944   8.877 -0.0653  0.9523  0.8078
  450MOL0     N59318   8.792   0.287   9.053 -0.9143  0.6270 -0.6299
  450MOL0     N59319   8.790   0.204   9.147 -0.3440 -0.1145 -0.4544
  450MOL0     C59320   8.479   0.385  10.484 -0.0027 -0.0526 -0.0760
  450MOL0     C59321   8.440   0.456  10.598  0.1785 -0.3319  0.2544
  450MOL0     C59322   8.331   0.686  10.928  0.3662 -0.2389  0.2274
  450MOL0     C59323   8.215   0.662  11.010  0.7753  0.2973 -0.4473
  450MOL0     C59324   8.142   0.773  11.065  0.1920 -0.4858  0.0986
  450MOL0     C59325   8.175   0.902  11.045  0.6747 -0.9870  1.0082
  450MOL0     O59326   8.093   1.012  11.074  0.0082 -0.1870  0.4612
  450MOL0     C59327   7.983   0.985  11.171 -0.3652  0.4507 -0.3808
  450MOL0     C59328   7.910   1.115  11.195 -0.6901 -0.3216 -0.1626
  450MOL0     C59329   7.976   1.236  11.270 -0.3526 -0.6902  0.6638
  450MOL0     C59330   7.884   1.360  11.287  0.1430 -0.9574  0.5875
  450MOL0     C59331   7.902   1.442  11.164 -0.3924  0.0065  0.2532
  450MOL0     C59332   7.913   1.511  11.064  0.5505 -0.7528 -0.3734
  450MOL0     C59333   8.280   0.930  10.960 -0.8666 -0.4077  0.3936
  450MOL0     C59334   8.359   0.824  10.902  0.5010 -0.7839 -0.6314
  450MOL0     H59335   8.735   0.615  10.642  1.0422  0.1658 -0.0585
  450MOL0     H59336   8.785   0.470  10.433  0.1737 -0.7180 -0.5464
  450MOL0     H59337   8.473   0.314  10.225  0.6324  0.8865  0.5419
  450MOL0     H59338   8.516   0.160  10.323 -1.8986 -1.5427 -1.3442
  450MOL0     H59339   8.568   0.089  10.108  0.3117 -0.8791  0.2663
  450MOL0     H59340   8.712   0.140  10.161 -0.1308  0.8084 -1.7019
  450MOL0     H59341   8.687   0.356  10.051  1.2029 -1.2918  1.9163
  450MOL0     H59342   8.519   0.315  10.000 -1.2033 -1.7265  0.4155
  450MOL0     H59343   8.778   0.161   9.913 -0.2314 -1.3128 -0.1457
  450MOL0     H59344   8.625   0.123   9.853  1.4783 -0.5584 -0.6871
  450MOL0     H59345   8.790   0.359   9.778 -0.2666 -0.5054  2.2155
  450MOL0     H59346   8.617   0.359   9.738 -0.6632 -2.2453 -2.3441
  450MOL0     H59347   8.681   0.118   9.641  1.8558 -0.3023  0.7018
  450MOL0     H59348   8.838   0.191   9.656  0.6693  2.2292  1.3122
  450MOL0     H59349   8.595   0.281   9.511 -0.1236 -0.1837  0.2222
  450MOL0     H59350   8.746   0.382   9.504  0.2524 -0.2712  2.0598
  450MOL0     H59351   8.709   0.110   9.398 -3.8296  2.0271  2.2176
  450MOL0     H59352   8.864   0.186   9.419 -0.9135 -1.7814  1.1479
  450MOL0     H59353   8.669   0.458   9.300 -0.6469 -1.1511  0.9998
  450MOL0     H59354   8.610   0.562   9.060  2.2022  1.7194  2.7848
  450MOL0     H59355   8.734   0.527   8.929  1.9620 -2.7084  0.2235
  450MOL0     H59356   8.823   0.630   9.204 -3.1453  0.6151  1.5857
  450MOL0     H59357   8.745   0.746   9.104 -2.2414 -0.7231  2.4668
  450MOL0     H59358   9.009   0.721   9.098  1.0705  1.6701 -3.3907
  450MOL0     H59359   8.980   0.571   9.015  0.9717 -0.1261  0.8393
  450MOL0     H59360   8.842   0.714   8.852 -0.2801  1.4077  0.6939
  450MOL0     H59361   9.020   0.717   8.852  0.5825 -1.1590  1.6479
  450MOL0     H59362   8.891   1.145   8.858  1.9304  3.3605 -1.0098
  450MOL0     H59363   9.053   1.291   8.741 -0.1820  0.7378  0.2668
  450MOL0     H59364   9.585   1.339   8.853 -0.9567  2.1948  0.7908
  450MOL0     H59365   9.745   1.508   8.821 -1.8666  1.7255  0.1990
  450MOL0     H59366   9.856   1.675   8.732  0.1348  2.0148 -1.9066
  450MOL0     H59367   9.950   1.744   8.611  2.0031  0.3388 -0.3023
  450MOL0     H59368  10.015   1.460   8.704  2.7898 -0.5532  2.3502
  450MOL0     H59369  10.083   1.587   8.799  3.2083  0.1341 -0.3035
  450MOL0     H59370  10.268   1.543   8.651  0.0717 -0.9150  0.9096
  450MOL0     H59371  10.195   1.687   8.564  1.4640  0.0548  0.8101
  450MOL0     H59372  10.224   1.413   8.494  0.2991  0.3795  3.7851
  450MOL0     H59373  10.065   1.469   8.461 -0.1081  1.4836 -1.7549
  450MOL0     H59374  10.287   1.654   8.360 -0.4948  3.8824 -2.0826
  450MOL0     H59375  10.112   1.652   8.312  1.5345  1.2608 -0.3077
  450MOL0     H59376  10.344   1.472   8.235 -0.6703 -2.2108  0.9329
  450MOL0     H59377  10.250   1.586   8.135  1.0182 -1.4939 -0.0922
  450MOL0     H59378  10.088   1.355   8.231 -1.5622 -2.9260 -3.0605
  450MOL0     H59379  10.089   1.440   8.087  0.2909  2.7083  1.7138
  450MOL0     H59380  10.189   1.209   8.058 -0.5500  2.2328 -3.1112
  450MOL0     H59381  10.331   1.261   8.156 -1.5606 -0.6061  1.7202
  450MOL0     H59382   9.720   1.390   8.377 -1.2300  1.7209 -0.2001
  450MOL0     H59383   9.544   1.241   8.441  0.8435 -2.2330  1.0344
  450MOL0     H59384   9.361   1.005   8.827  0.8877  1.1736 -1.4740
  450MOL0     H59385   9.208   0.850   8.911 -0.4060  0.8308  0.9190
  450MOL0     H59386   8.407   0.321  10.434  0.0884 -1.0841  1.0669
  450MOL0     H59387   8.337   0.449  10.632  0.3430  1.2787  1.1762
  450MOL0     H59388   8.185   0.558  11.023  0.3280  0.0807 -2.7695
  450MOL0     H59389   8.044   0.748  11.105 -1.5442  4.6289 -0.2617
  450MOL0     H59390   8.034   0.956  11.264 -3.0355  0.6386  1.2251
  450MOL0     H59391   7.902   0.916  11.148 -1.9505  1.4930  1.7076
  450MOL0     H59392   7.868   1.150  11.100 -1.0134  1.8535  0.7167
  450MOL0     H59393   7.819   1.095  11.253 -0.3026  0.2257  0.6505
  450MOL0     H59394   8.067   1.268  11.218 -1.1565  0.5006 -0.0458
  450MOL0     H59395   8.003   1.190  11.365 -0.6686 -0.6729  0.7609
  450MOL0     H59396   7.777   1.336  11.289 -0.5384  1.0912 -2.6583
  450MOL0     H59397   7.902   1.410  11.382 -0.3853 -2.6286  1.6223
  450MOL0     H59398   7.929   1.581  10.984  1.3462  0.8877  1.1585
  450MOL0     H59399   8.316   1.030  10.937  1.9989 -1.0665  1.4757
  450MOL0     H59400   8.446   0.856  10.845  1.1705 -1.3715  0.0346
  451MOL0     O59401   4.535   1.090   9.448 -0.2998  0.2001 -0.4906
  451MOL0     C59402   4.572   1.201   9.407 -0.2914  0.4242  0.0089
  451MOL0     O59403   4.701   1.240   9.390  0.1911  0.3224 -0.2042
  451MOL0     C59404   4.805   1.148   9.416  0.3986  0.1452 -0.6860
  451MOL0     C59405   4.801   1.009   9.381 -0.0626 -0.1702  0.5919
  451MOL0     C59406   4.918   0.932   9.381 -0.2166 -0.2746  0.4173
  451MOL0     C59407   5.038   0.991   9.423  0.1280  0.8417 -0.0522
  451MOL0     O59408   5.161   0.927   9.424  0.4522 -0.1405  0.2644
  451MOL0     C59409   5.162   0.799   9.361 -0.3729  0.1691 -0.7289
  451MOL0     C59410   5.141   0.687   9.472 -0.7087  0.2764  0.3020
  451MOL0     C59411   5.270   0.675   9.549  0.9471  0.3249 -1.0637
  451MOL0     C59412   5.269   0.554   9.642  0.0170 -0.0632  0.5988
  451MOL0     C59413   5.329   0.591   9.780 -0.7598  0.0053  0.1694
  451MOL0     C59414   5.364   0.466   9.876  0.0986  1.0217  1.1492
  451MOL0     C59415   5.379   0.516  10.020  0.0743 -0.2983 -0.0252
  451MOL0     C59416   5.526   0.523  10.045 -0.4762 -0.4850 -0.1215
  451MOL0     N59417   5.568   0.607  10.153  0.5526  0.7276 -0.2606
  451MOL0     C59418   5.541   0.572  10.281  1.0671  0.0699  0.9378
  451MOL0     C59419   5.572   0.691  10.345 -0.3006 -0.2326  0.4495
  451MOL0     C59420   5.580   0.698  10.499  0.1421  0.1077 -0.7789
  451MOL0     C59421   5.472   0.803  10.540  0.2364  0.5937  1.3001
  451MOL0     C59422   5.472   0.819  10.694  0.1555  1.1509  0.2400
  451MOL0     C59423   5.361   0.921  10.726  0.0276 -0.2151  0.0192
  451MOL0     O59424   5.366   1.033  10.642 -0.2557 -0.1244 -0.9193
  451MOL0     C59425   5.448   1.143  10.654 -0.1165  0.2185  0.6654
  451MOL0     C59426   5.557   1.166  10.733 -0.4880 -0.7274 -0.2399
  451MOL0     C59427   5.595   1.300  10.771  0.8413  0.4548 -0.8952
  451MOL0     C59428   5.539   1.407  10.715  0.2953  0.0634  0.1512
  451MOL0     C59429   5.599   1.541  10.744 -0.4865  0.2402 -1.6432
  451MOL0     O59430   5.628   1.630  10.649  0.2044 -0.0961 -0.4207
  451MOL0     C59431   5.657   1.763  10.665  0.4406  0.0416  0.7042
  451MOL0     C59432   5.622   1.850  10.766  0.5521  0.4021  0.2816
  451MOL0     C59433   5.661   1.979  10.772  0.8940  0.5959  0.0352
  451MOL0     C59434   5.737   2.036  10.675 -0.0205 -0.1638  0.2051
  451MOL0     O59435   5.766   2.163  10.703 -0.2017  0.0115 -0.7658
  451MOL0     C59436   5.854   2.232  10.608 -0.5202  0.1317 -0.3207
  451MOL0     C59437   5.988   2.231  10.665 -0.5603 -0.6043 -1.0783
  451MOL0     C59438   6.058   2.354  10.609 -0.3604 -0.3577 -0.3856
  451MOL0     C59439   6.212   2.348  10.661 -0.0080 -0.0930 -0.1087
  451MOL0     C59440   6.212   2.366  10.825  1.3892  1.0138 -0.0480
  451MOL0     C59441   6.175   2.502  10.894 -0.9030  0.8492  0.1213
  451MOL0     C59442   6.192   2.511  11.049 -0.0528 -0.2085  0.4600
  451MOL0     C59443   6.338   2.547  11.090 -0.2992 -0.9333  0.5357
  451MOL0    Cl59444   6.371   2.720  11.052  0.1458  0.2906 -0.3042
  451MOL0     C59445   5.767   1.960  10.558 -0.4163 -0.2786 -0.4551
  451MOL0     C59446   5.726   1.816  10.557 -0.4765 -0.4857  0.2922
  451MOL0     O59447   5.620   1.552  10.865  0.3633  0.6165 -0.7663
  451MOL0     C59448   5.454   1.383  10.609 -0.5842 -0.0498  0.9407
  451MOL0     C59449   5.407   1.253  10.582  0.2573 -0.0846 -0.2619
  451MOL0     N59450   5.610   0.788  10.256  0.2268 -0.7902  0.1677
  451MOL0     N59451   5.606   0.738  10.137 -0.2278 -0.9643 -0.1297
  451MOL0     C59452   5.035   1.123   9.464  0.2908  0.1842  0.2563
  451MOL0     C59453   4.917   1.197   9.466 -0.8182 -0.0721 -0.0136
  451MOL0     C59454   4.469   1.301   9.407  0.5647  0.1750 -0.4558
  451MOL0     C59455   4.336   1.271   9.381 -2.0696  0.3789  0.9745
  451MOL0     C59456   4.234   1.371   9.390 -0.7502 -0.2253 -0.9419
  451MOL0     C59457   4.269   1.504   9.430  0.0582  0.1609 -0.0335
  451MOL0     O59458   4.163   1.584   9.453 -0.3548 -0.7250  0.7930
  451MOL0     C59459   4.190   1.675   9.553  0.0143 -0.6403  0.2820
  451MOL0     C59460   4.072   1.722   9.637  0.4012 -0.3791 -0.0868
  451MOL0     C59461   3.970   1.813   9.581  0.2680 -0.3516 -0.2885
  451MOL0     C59462   3.924   1.773   9.443  0.0087 -0.2564 -0.1760
  451MOL0     C59463   3.810   1.861   9.404  0.1463  0.6187  0.2999
  451MOL0     C59464   3.724   1.934   9.354  0.3714  0.2212  0.4021
  451MOL0     C59465   4.410   1.536   9.433  0.4927 -0.4137 -0.3829
  451MOL0     C59466   4.506   1.434   9.422  0.2749 -0.3777 -0.6555
  451MOL0     H59467   4.710   0.966   9.341 -1.0238  0.5601  1.9467
  451MOL0     H59468   4.887   0.838   9.335 -1.7800  1.3830 -2.2036
  451MOL0     H59469   5.262   0.777   9.323  0.0068  1.0455 -0.2795
  451MOL0     H59470   5.096   0.799   9.274  2.4685  1.4013 -3.0411
  451MOL0     H59471   5.115   0.598   9.414 -2.5142  1.6955 -1.2191
  451MOL0     H59472   5.062   0.713   9.543  0.1680 -1.1126  1.8374
  451MOL0     H59473   5.299   0.759   9.612 -0.2475  0.0715 -0.1395
  451MOL0     H59474   5.354   0.669   9.479  1.6279 -1.1217 -0.1582
  451MOL0     H59475   5.168   0.514   9.658  0.7148 -3.2416 -1.8843
  451MOL0     H59476   5.332   0.474   9.602  2.5377  0.6978  2.7559
  451MOL0     H59477   5.264   0.670   9.819  0.2662 -0.5310  3.2714
  451MOL0     H59478   5.426   0.642   9.775  0.2998 -1.9095 -0.1689
  451MOL0     H59479   5.456   0.423   9.836 -2.0437 -1.5876 -1.3609
  451MOL0     H59480   5.284   0.392   9.866 -1.5261  2.3154  3.4257
  451MOL0     H59481   5.333   0.614  10.033  0.0028 -0.2823 -0.4048
  451MOL0     H59482   5.347   0.438  10.089  4.8576 -1.6994  1.0228
  451MOL0     H59483   5.566   0.564   9.951 -1.9455 -0.2768 -0.6772
  451MOL0     H59484   5.575   0.427  10.062  2.6402  0.9458 -0.1881
  451MOL0     H59485   5.502   0.476  10.313 -1.2270 -0.1415 -2.0130
  451MOL0     H59486   5.681   0.725  10.529 -1.1246 -0.2145  4.9781
  451MOL0     H59487   5.573   0.604  10.555  2.3447  0.8757  0.9206
  451MOL0     H59488   5.374   0.766  10.511  1.3821 -0.8694 -1.0830
  451MOL0     H59489   5.498   0.894  10.485  1.7048 -1.6633 -2.0667
  451MOL0     H59490   5.442   0.729  10.749  0.5611  0.5295 -0.5324
  451MOL0     H59491   5.570   0.852  10.728  0.2928 -0.8604  1.9590
  451MOL0     H59492   5.376   0.951  10.830  0.6503 -1.0623  0.1847
  451MOL0     H59493   5.264   0.871  10.713  0.8386 -1.0860 -4.0158
  451MOL0     H59494   5.590   1.079  10.791  1.8041 -0.2732 -0.7553
  451MOL0     H59495   5.667   1.304  10.852 -0.4616  1.4402  0.2910
  451MOL0     H59496   5.549   1.810  10.836  0.2934  0.2925 -0.0484
  451MOL0     H59497   5.623   2.043  10.851 -2.0917 -0.0651 -0.7319
  451MOL0     H59498   5.813   2.332  10.594  2.0563  1.1181 -1.3830
  451MOL0     H59499   5.875   2.185  10.511  0.1329  2.6378 -1.4664
  451MOL0     H59500   6.032   2.131  10.656 -0.3509 -0.5627 -0.5454
  451MOL0     H59501   5.978   2.247  10.773  1.1397 -3.0933 -0.4607
  451MOL0     H59502   6.009   2.442  10.651  0.1417 -0.7827  1.1878
  451MOL0     H59503   6.048   2.344  10.501 -3.9483 -2.4404 -0.0125
  451MOL0     H59504   6.268   2.260  10.628  3.1048  1.8372 -0.3576
  451MOL0     H59505   6.280   2.421  10.618 -0.8753  1.6306  1.3067
  451MOL0     H59506   6.315   2.349  10.859  1.8471 -0.7774 -2.0945
  451MOL0     H59507   6.148   2.291  10.871  1.4409  1.5558  0.9418
  451MOL0     H59508   6.066   2.499  10.889 -0.9719  2.3750  0.1391
  451MOL0     H59509   6.219   2.590  10.846  0.8931  0.8703  1.6649
  451MOL0     H59510   6.115   2.578  11.086 -0.4034  1.4791 -2.9180
  451MOL0     H59511   6.189   2.406  11.080  4.1109 -1.7169 -3.1125
  451MOL0     H59512   6.406   2.481  11.035 -1.3600 -4.3618  2.9790
  451MOL0     H59513   6.364   2.535  11.195  1.2129  0.5274  0.3659
  451MOL0     H59514   5.826   1.999  10.476 -0.8936 -1.2585 -1.2829
  451MOL0     H59515   5.756   1.747  10.480 -1.6393 -2.6361  1.6811
  451MOL0     H59516   5.412   1.461  10.547 -1.9494 -3.0194 -2.2206
  451MOL0     H59517   5.325   1.260  10.511  0.9585 -0.0604 -1.0798
  451MOL0     H59518   5.124   1.167   9.507 -1.4777  1.5403  2.8340
  451MOL0     H59519   4.894   1.303   9.478 -3.8700 -0.0970 -3.5827
  451MOL0     H59520   4.296   1.172   9.365 -0.3150 -0.3694  1.0362
  451MOL0     H59521   4.126   1.360   9.387 -0.7778  0.1743 -1.6373
  451MOL0     H59522   4.223   1.765   9.501  0.3645  0.7718  2.7757
  451MOL0     H59523   4.257   1.624   9.624 -1.5313 -1.9968  0.8235
  451MOL0     H59524   4.010   1.642   9.678 -1.7815  1.2713  0.0060
  451MOL0     H59525   4.116   1.777   9.721 -0.6025 -0.6018  0.5975
  451MOL0     H59526   4.017   1.912   9.584  3.2992 -1.7130  0.4834
  451MOL0     H59527   3.892   1.807   9.657 -0.3790  2.3432 -0.6032
  451MOL0     H59528   4.006   1.805   9.377  1.3016  1.7341  2.2189
  451MOL0     H59529   3.902   1.667   9.435  0.7776 -0.7965  3.3836
  451MOL0     H59530   3.662   1.994   9.291  1.6916 -0.0461 -1.2527
  451MOL0     H59531   4.452   1.636   9.449 -0.8712 -0.2720  3.2204
  451MOL0     H59532   4.610   1.463   9.434  1.7453 -4.9373 -0.8396
  452MOL0     O59533   2.280   6.392   7.078 -0.3660  0.1208  0.2998
  452MOL0     C59534   2.253   6.400   7.196  0.0641 -0.4482 -1.4650
  452MOL0     O59535   2.257   6.297   7.296 -0.3771  0.0736 -0.1890
  452MOL0     C59536   2.275   6.167   7.270  0.4837 -0.6649 -0.4255
  452MOL0     C59537   2.326   6.081   7.381 -0.7772 -0.8557 -0.2671
  452MOL0     C59538   2.352   5.945   7.355 -0.2014  0.2898 -0.2005
  452MOL0     C59539   2.339   5.893   7.231 -0.1131  0.1338  1.1558
  452MOL0     O59540   2.338   5.760   7.193 -0.3109 -0.8391 -0.5127
  452MOL0     C59541   2.355   5.657   7.293 -0.3367  0.0482  0.7651
  452MOL0     C59542   2.505   5.644   7.331  0.9398  1.2929 -0.2015
  452MOL0     C59543   2.605   5.654   7.216  0.0377  0.3559  0.5362
  452MOL0     C59544   2.613   5.520   7.150 -0.6008  0.4107 -0.1855
  452MOL0     C59545   2.739   5.504   7.059  0.2937 -0.3039 -0.6890
  452MOL0     C59546   2.756   5.606   6.942  0.5724  0.0832  0.5583
  452MOL0     C59547   2.639   5.579   6.841  0.5464  0.2362  0.5154
  452MOL0     C59548   2.679   5.571   6.691  0.4635 -0.1430  1.0631
  452MOL0     N59549   2.710   5.700   6.632  0.4773 -0.4529  0.8366
  452MOL0     C59550   2.615   5.786   6.557  0.0432 -0.1015  0.1905
  452MOL0     C59551   2.687   5.901   6.533  0.0717 -0.3461 -0.1319
  452MOL0     C59552   2.638   6.019   6.455  0.7858 -0.1039 -0.4088
  452MOL0     C59553   2.501   5.993   6.380 -0.0675  0.4668  1.6185
  452MOL0     C59554   2.417   6.115   6.384 -0.4201  0.1696 -0.2857
  452MOL0     C59555   2.288   6.110   6.292 -0.8597 -0.5095  0.7636
  452MOL0     O59556   2.332   6.110   6.161  0.6643  0.1870  0.0307
  452MOL0     C59557   2.301   6.217   6.079 -0.2722  0.9685 -0.5257
  452MOL0     C59558   2.233   6.202   5.955 -0.1962  0.5341 -0.5468
  452MOL0     C59559   2.207   6.317   5.878  0.0066 -0.2838 -0.1031
  452MOL0     C59560   2.250   6.448   5.908  0.4206  0.9009  0.1780
  452MOL0     C59561   2.234   6.562   5.822 -0.1286  0.2010  0.2539
  452MOL0     O59562   2.226   6.687   5.888  0.8341  1.0540  0.2189
  452MOL0     C59563   2.178   6.801   5.824 -1.2680  0.5621  0.4418
  452MOL0     C59564   2.231   6.923   5.868 -0.7735 -0.0298 -0.5027
  452MOL0     C59565   2.199   7.035   5.797  0.6467 -0.0813  0.2876
  452MOL0     C59566   2.132   7.030   5.672  0.2250  0.0419 -0.7852
  452MOL0     O59567   2.126   7.135   5.585  0.3140 -0.2725  0.2751
  452MOL0     C59568   2.038   7.125   5.468 -1.2055  0.4925 -0.2658
  452MOL0     C59569   2.047   7.260   5.386  0.8438 -0.2836  0.5795
  452MOL0     C59570   2.146   7.234   5.257 -0.4482  0.6473  0.3205
  452MOL0     C59571   2.292   7.235   5.290  0.4173  0.2709 -0.0421
  452MOL0     C59572   2.394   7.186   5.175  1.1284  0.7002  0.3272
  452MOL0     C59573   2.433   7.292   5.074  0.1727  0.1736  0.0587
  452MOL0     C59574   2.548   7.238   4.993 -0.9139 -0.1104 -0.7898
  452MOL0     C59575   2.601   7.352   4.906 -0.2390 -0.4424 -0.9162
  452MOL0    Cl59576   2.498   7.378   4.767  0.0455  0.8250 -0.2194
  452MOL0     C59577   2.072   6.909   5.634  0.4834  0.0363  0.5124
  452MOL0     C59578   2.088   6.797   5.720  0.0715  0.1524 -0.3830
  452MOL0     O59579   2.216   6.543   5.700 -0.2800  0.0909 -0.1816
  452MOL0     C59580   2.313   6.461   6.030 -0.0525 -0.2931  0.5507
  452MOL0     C59581   2.348   6.349   6.117 -0.0806  0.2467 -0.0743
  452MOL0     N59582   2.813   5.883   6.590  0.9589  0.3651 -0.4242
  452MOL0     N59583   2.827   5.768   6.640 -0.3196 -0.4639  0.0980
  452MOL0     C59584   2.283   5.971   7.128  0.0247 -0.2856 -0.0083
  452MOL0     C59585   2.254   6.109   7.144  0.0587 -0.1008 -0.5175
  452MOL0     C59586   2.213   6.526   7.244 -0.5506  0.4931  0.0504
  452MOL0     C59587   2.164   6.528   7.374 -0.6989 -0.4808 -0.0929
  452MOL0     C59588   2.129   6.649   7.433 -0.2079  0.7090  0.0611
  452MOL0     C59589   2.145   6.767   7.360  0.4490  0.2903 -0.6579
  452MOL0     O59590   2.103   6.888   7.414 -0.3281  0.1326  0.0262
  452MOL0     C59591   1.999   6.901   7.510 -0.0938 -0.3762  0.0494
  452MOL0     C59592   1.961   7.042   7.527 -0.4478 -0.7822  0.3668
  452MOL0     C59593   2.071   7.122   7.594  0.0092  0.2021  0.0689
  452MOL0     C59594   2.037   7.273   7.584  0.0487  1.7096 -0.2173
  452MOL0     C59595   2.135   7.358   7.510  0.1283  0.1327  0.5575
  452MOL0     C59596   2.207   7.427   7.455 -0.0490 -0.6209  0.9630
  452MOL0     C59597   2.179   6.768   7.230  0.0111  1.0720 -0.4830
  452MOL0     C59598   2.214   6.644   7.166  0.3068  0.7741 -0.0738
  452MOL0     H59599   2.354   6.124   7.476 -1.8981  0.5665 -0.5374
  452MOL0     H59600   2.384   5.882   7.438 -0.2016 -1.0835 -1.2197
  452MOL0     H59601   2.327   5.561   7.249  0.4526  0.3140 -0.3372
  452MOL0     H59602   2.297   5.682   7.383 -2.8200 -3.2451  0.2762
  452MOL0     H59603   2.517   5.554   7.392  0.7337  2.9577  2.4257
  452MOL0     H59604   2.521   5.732   7.394 -1.0323  2.1737 -0.8304
  452MOL0     H59605   2.702   5.694   7.246  0.2740 -1.9608  3.2913
  452MOL0     H59606   2.580   5.720   7.132  0.8377 -0.2185 -0.1778
  452MOL0     H59607   2.629   5.438   7.220  2.0860  1.9548  1.1583
  452MOL0     H59608   2.518   5.503   7.099 -0.1763 -0.1815 -0.8033
  452MOL0     H59609   2.748   5.402   7.020  4.3065  0.0686 -1.1675
  452MOL0     H59610   2.827   5.530   7.119  0.1476 -0.8671 -0.2233
  452MOL0     H59611   2.858   5.598   6.905  0.6698  1.8055  0.3385
  452MOL0     H59612   2.751   5.711   6.975  1.4218  1.1904 -2.4795
  452MOL0     H59613   2.594   5.483   6.866  1.7175 -0.8555 -1.3719
  452MOL0     H59614   2.559   5.652   6.859 -2.3869 -2.9753  1.4893
  452MOL0     H59615   2.587   5.540   6.641  0.9136 -1.6806  1.1487
  452MOL0     H59616   2.768   5.510   6.675 -1.2298 -2.3995 -0.3347
  452MOL0     H59617   2.510   5.773   6.532 -0.3838  0.0689  1.7434
  452MOL0     H59618   2.725   6.042   6.392  4.3291 -2.1641  3.2368
  452MOL0     H59619   2.621   6.107   6.518  0.6976  0.4598 -1.2107
  452MOL0     H59620   2.445   5.906   6.417  1.1801 -1.3046 -0.4856
  452MOL0     H59621   2.520   5.954   6.280 -2.3915 -1.0081  1.6617
  452MOL0     H59622   2.375   6.151   6.478 -0.5948  2.2797 -1.1297
  452MOL0     H59623   2.484   6.196   6.353  0.9900 -0.9450 -0.2569
  452MOL0     H59624   2.238   6.205   6.314  0.7485  0.0106  2.3640
  452MOL0     H59625   2.223   6.025   6.311 -0.6460 -0.7613  0.3829
  452MOL0     H59626   2.204   6.100   5.929 -0.1605  0.7008 -1.2601
  452MOL0     H59627   2.153   6.293   5.787 -0.9716  3.4827 -0.6683
  452MOL0     H59628   2.305   6.922   5.948 -1.8853 -2.4137  0.5814
  452MOL0     H59629   2.229   7.134   5.830 -1.0951 -0.2406  2.5648
  452MOL0     H59630   1.935   7.105   5.502 -1.5475  1.4612 -0.7103
  452MOL0     H59631   2.079   7.045   5.406 -2.6217 -0.0872 -0.4981
  452MOL0     H59632   2.080   7.342   5.450 -1.0290 -0.0917  1.3769
  452MOL0     H59633   1.943   7.280   5.360  0.4113 -0.4024  2.1367
  452MOL0     H59634   2.109   7.299   5.177 -2.7198 -1.2925 -0.3264
  452MOL0     H59635   2.128   7.131   5.226  1.1919  0.8556 -1.5070
  452MOL0     H59636   2.327   7.339   5.297  1.6758  0.1706 -3.2780
  452MOL0     H59637   2.322   7.169   5.372  0.8857 -2.9023 -2.5766
  452MOL0     H59638   2.354   7.097   5.126  3.6176 -0.6284  0.5204
  452MOL0     H59639   2.477   7.156   5.240  0.4391 -0.2908  0.7740
  452MOL0     H59640   2.458   7.380   5.134 -2.9014  0.6994  0.7569
  452MOL0     H59641   2.345   7.320   5.015  0.7971  1.5399 -0.2738
  452MOL0     H59642   2.627   7.202   5.060 -1.2473 -0.9080 -0.8182
  452MOL0     H59643   2.519   7.157   4.925 -2.6009 -1.0759  1.0154
  452MOL0     H59644   2.694   7.325   4.856 -0.6607  1.8808 -3.1582
  452MOL0     H59645   2.622   7.446   4.958  1.9214  0.5451 -3.3567
  452MOL0     H59646   2.019   6.895   5.541 -0.2937  2.4389  0.5256
  452MOL0     H59647   2.045   6.704   5.685 -1.5414  0.6819  0.0761
  452MOL0     H59648   2.349   6.554   6.073 -1.3845 -0.9556  3.3678
  452MOL0     H59649   2.396   6.355   6.213 -6.0141  0.2710  3.4036
  452MOL0     H59650   2.264   5.920   7.034  1.7312 -0.3478 -0.3647
  452MOL0     H59651   2.209   6.166   7.064  1.0870  2.9267  0.8998
  452MOL0     H59652   2.165   6.440   7.438  0.9326 -0.6569 -0.3257
  452MOL0     H59653   2.077   6.645   7.528  0.7775 -0.9999  0.5575
  452MOL0     H59654   2.026   6.859   7.607  0.8401  0.8449  0.3393
  452MOL0     H59655   1.912   6.851   7.465  1.3978 -1.5789 -1.6110
  452MOL0     H59656   1.941   7.085   7.428 -1.1166 -2.8843 -0.4747
  452MOL0     H59657   1.868   7.041   7.584 -0.9848  1.6758 -0.3467
  452MOL0     H59658   2.161   7.083   7.545 -0.1780  3.1552 -3.0468
  452MOL0     H59659   2.075   7.091   7.698 -0.8374  0.1946  0.1000
  452MOL0     H59660   1.941   7.291   7.533 -0.5914 -0.9222 -0.0896
  452MOL0     H59661   2.033   7.319   7.683 -1.3394  0.8525  0.1502
  452MOL0     H59662   2.268   7.491   7.395 -0.1520  0.5650  2.0701
  452MOL0     H59663   2.178   6.862   7.177 -1.3026  0.2867 -1.9333
  452MOL0     H59664   2.250   6.651   7.064 -1.7114  2.3539 -0.7507
  453MOL0     O59665   5.626   8.873   8.048  0.1213  0.3528 -0.4886
  453MOL0     C59666   5.587   8.786   8.132 -0.2117 -0.2819 -0.0755
  453MOL0     O59667   5.644   8.753   8.245  0.0554 -1.1470 -0.0628
  453MOL0     C59668   5.761   8.806   8.273 -0.0477  0.4478 -0.1330
  453MOL0     C59669   5.890   8.765   8.228 -0.1991  0.3445 -0.6758
  453MOL0     C59670   6.007   8.823   8.275  0.1281  0.0935  0.0867
  453MOL0     C59671   6.000   8.940   8.351 -0.2925 -0.7931 -0.0520
  453MOL0     O59672   6.129   8.983   8.393 -0.2417  0.8226 -0.1358
  453MOL0     C59673   6.149   9.108   8.465  0.1707 -0.6195  0.2337
  453MOL0     C59674   6.300   9.124   8.451 -0.4474  0.4473  0.2472
  453MOL0     C59675   6.352   9.173   8.311 -0.5712  0.2138 -0.8309
  453MOL0     C59676   6.300   9.094   8.184 -0.0824 -0.1759 -0.0195
  453MOL0     C59677   6.360   9.151   8.062 -0.0221 -0.1286 -0.2370
  453MOL0     C59678   6.306   9.100   7.921 -0.1396 -0.2918  0.7830
  453MOL0     C59679   6.297   8.947   7.907 -0.3645 -0.3234  0.4048
  453MOL0     C59680   6.271   8.917   7.759  0.0288 -0.1062 -0.6147
  453MOL0     N59681   6.337   8.786   7.730  0.5720 -0.4687 -0.2711
  453MOL0     C59682   6.268   8.664   7.717 -0.2038  0.3484  0.1010
  453MOL0     C59683   6.361   8.579   7.659  0.6748  0.1816 -0.1001
  453MOL0     C59684   6.346   8.431   7.623 -0.2397  0.4801 -0.0764
  453MOL0     C59685   6.451   8.379   7.518  1.1678 -0.3784 -0.1557
  453MOL0     C59686   6.466   8.220   7.510  0.5885 -0.1475  0.9035
  453MOL0     C59687   6.339   8.153   7.453  0.4036  0.3187  0.2283
  453MOL0     O59688   6.372   8.015   7.437  0.0152 -0.1410 -0.7120
  453MOL0     C59689   6.263   7.933   7.468 -0.1615 -0.4954 -0.4472
  453MOL0     C59690   6.159   7.895   7.383  0.7544 -0.4179  0.2353
  453MOL0     C59691   6.061   7.803   7.416 -0.2624  0.6378 -0.7079
  453MOL0     C59692   6.057   7.767   7.559  0.1314  0.2922  0.8297
  453MOL0     C59693   5.941   7.682   7.601 -0.1907 -0.0189 -0.2399
  453MOL0     O59694   5.823   7.706   7.537  0.2213  0.4036 -0.8923
  453MOL0     C59695   5.706   7.624   7.562  0.7113 -0.2912  0.5794
  453MOL0     C59696   5.582   7.688   7.552 -0.4599 -0.2164  0.1001
  453MOL0     C59697   5.469   7.618   7.570  0.0811 -0.6886  0.0541
  453MOL0     C59698   5.460   7.480   7.601  0.3907  0.5610  0.0937
  453MOL0     O59699   5.334   7.437   7.622 -0.6638  0.0528 -0.0370
  453MOL0     C59700   5.306   7.297   7.652 -0.1094  0.1878  0.1986
  453MOL0     C59701   5.180   7.285   7.739 -0.4406  0.0907 -0.4645
  453MOL0     C59702   5.059   7.341   7.682 -0.1453  1.0444  0.7399
  453MOL0     C59703   4.944   7.339   7.777  0.1449  1.2583 -0.1199
  453MOL0     C59704   4.848   7.430   7.716 -0.0206 -0.2307  0.4958
  453MOL0     C59705   4.701   7.395   7.748 -0.0577 -0.0357  0.1212
  453MOL0     C59706   4.669   7.440   7.890 -0.3089 -0.0560  0.0623
  453MOL0     C59707   4.587   7.568   7.880 -0.1990  0.2020  0.7048
  453MOL0    Cl59708   4.573   7.626   8.059 -0.3243 -0.6503 -0.1385
  453MOL0     C59709   5.581   7.410   7.614  0.9262 -0.9959  0.3726
  453MOL0     C59710   5.697   7.484   7.603 -0.1761  0.0414  0.1044
  453MOL0     O59711   5.962   7.606   7.694 -0.4877 -0.1659  0.4016
  453MOL0     C59712   6.147   7.825   7.649 -0.5265  0.7817 -0.4012
  453MOL0     C59713   6.250   7.901   7.601 -0.8973 -0.2921 -0.0292
  453MOL0     N59714   6.485   8.648   7.654  0.5668 -0.0836 -0.2977
  453MOL0     N59715   6.469   8.768   7.699 -0.1103  0.7813  0.1468
  453MOL0     C59716   5.880   8.977   8.403 -0.1509  0.6885 -0.6600
  453MOL0     C59717   5.761   8.911   8.356 -0.3067 -0.1499 -0.2279
  453MOL0     C59718   5.463   8.713   8.105 -0.9086 -0.7927 -0.6105
  453MOL0     C59719   5.434   8.586   8.165  0.2948 -0.4051  0.7862
  453MOL0     C59720   5.317   8.518   8.130 -0.6884 -0.5179  0.0517
  453MOL0     C59721   5.220   8.577   8.044  0.5544 -0.3397  0.0732
  453MOL0     O59722   5.106   8.511   8.014  0.6847 -0.0320 -0.0004
  453MOL0     C59723   5.100   8.364   7.983  1.3838 -1.1819  0.4125
  453MOL0     C59724   5.165   8.329   7.842  0.5640  0.2931 -0.7992
  453MOL0     C59725   5.070   8.366   7.732  0.1975  0.1260  0.0561
  453MOL0     C59726   5.129   8.424   7.609  0.1169  0.6818  1.2508
  453MOL0     C59727   5.160   8.572   7.612  0.3318  0.5009  0.1739
  453MOL0     C59728   5.171   8.695   7.616  0.1620 -0.6859 -0.4453
  453MOL0     C59729   5.248   8.704   7.987 -0.5027 -0.0550 -0.2001
  453MOL0     C59730   5.368   8.770   8.026  0.1315  0.1527  0.1639
  453MOL0     H59731   5.890   8.685   8.154 -5.5753 -1.7978  1.1007
  453MOL0     H59732   6.106   8.787   8.247 -0.9557 -3.0817 -0.0459
  453MOL0     H59733   6.118   9.098   8.569 -0.4168 -2.4108 -0.0797
  453MOL0     H59734   6.090   9.184   8.414  0.6448 -1.2482 -1.3243
  453MOL0     H59735   6.345   9.026   8.467 -0.9894  0.1903  0.1999
  453MOL0     H59736   6.350   9.176   8.533  0.3825  1.3323 -0.7910
  453MOL0     H59737   6.460   9.157   8.306  0.1870  3.7479  1.3774
  453MOL0     H59738   6.329   9.279   8.298  0.0734  0.0503 -4.4726
  453MOL0     H59739   6.327   8.990   8.201 -0.6123 -0.3115  0.0259
  453MOL0     H59740   6.191   9.104   8.186  0.0662  1.7599  1.3616
  453MOL0     H59741   6.467   9.125   8.062 -0.0074 -1.0091  4.8073
  453MOL0     H59742   6.362   9.261   8.061  1.4717 -0.1349  0.0771
  453MOL0     H59743   6.376   9.142   7.848 -0.3439  2.5540  2.1243
  453MOL0     H59744   6.207   9.141   7.900  0.7335  2.3012  1.4436
  453MOL0     H59745   6.391   8.904   7.944 -1.7984 -1.8430  2.5203
  453MOL0     H59746   6.212   8.907   7.963  1.1486 -2.3406  1.4050
  453MOL0     H59747   6.311   8.991   7.689  2.0214  1.4101  1.9255
  453MOL0     H59748   6.165   8.912   7.733 -0.5969  3.2274  0.8983
  453MOL0     H59749   6.167   8.634   7.739 -0.6279  0.2492 -1.7588
  453MOL0     H59750   6.251   8.424   7.569 -2.5444  2.0251  3.4217
  453MOL0     H59751   6.342   8.374   7.716 -0.7405  2.6482  1.2860
  453MOL0     H59752   6.548   8.422   7.542  1.3861 -0.2507 -1.2007
  453MOL0     H59753   6.426   8.416   7.418  2.1242  0.0901 -0.2353
  453MOL0     H59754   6.548   8.194   7.442 -2.4883 -1.3023 -2.7443
  453MOL0     H59755   6.495   8.183   7.609 -0.8590 -0.3998  1.2478
  453MOL0     H59756   6.298   8.186   7.357  0.5778  0.1546  0.0962
  453MOL0     H59757   6.262   8.142   7.530 -0.2272 -1.1576 -0.5550
  453MOL0     H59758   6.174   7.931   7.282 -0.1872 -0.6332  0.0177
  453MOL0     H59759   5.982   7.759   7.356  0.4728 -1.3058 -0.3233
  453MOL0     H59760   5.564   7.791   7.523  0.6084 -0.3144 -1.0246
  453MOL0     H59761   5.369   7.659   7.575 -0.9581 -3.0942  0.2459
  453MOL0     H59762   5.384   7.257   7.718  0.7776  1.2068 -0.2057
  453MOL0     H59763   5.301   7.234   7.563  1.8493 -3.0955  2.1819
  453MOL0     H59764   5.201   7.347   7.827 -0.4676 -0.3996 -0.1072
  453MOL0     H59765   5.172   7.180   7.770 -0.3541 -0.0891 -1.0380
  453MOL0     H59766   5.036   7.289   7.589  2.6084  0.7805  0.1279
  453MOL0     H59767   5.085   7.445   7.657  0.7044  0.7659  0.4128
  453MOL0     H59768   4.915   7.233   7.787  2.1472  0.8711  2.7481
  453MOL0     H59769   4.965   7.372   7.879 -2.7535 -1.3798  1.5241
  453MOL0     H59770   4.856   7.421   7.607 -1.6295 -1.6175  0.4614
  453MOL0     H59771   4.869   7.531   7.753  0.8417 -0.2769  0.1659
  453MOL0     H59772   4.688   7.286   7.740 -1.5306 -0.2337  3.3023
  453MOL0     H59773   4.640   7.439   7.669  1.5121 -1.0273 -1.7097
  453MOL0     H59774   4.616   7.357   7.937  0.9015  0.5628  2.6879
  453MOL0     H59775   4.760   7.458   7.948  0.5273 -1.9008 -0.5871
  453MOL0     H59776   4.492   7.538   7.836  1.4779 -3.1728 -1.0624
  453MOL0     H59777   4.630   7.640   7.811  0.3482 -0.4433  0.3587
  453MOL0     H59778   5.592   7.305   7.637 -0.8178 -1.2598  0.1574
  453MOL0     H59779   5.793   7.435   7.622 -0.0544  0.7685  1.5343
  453MOL0     H59780   6.147   7.802   7.755 -5.1770 -1.3091 -0.6294
  453MOL0     H59781   6.312   7.941   7.680 -0.2961 -3.4328  1.2445
  453MOL0     H59782   5.880   9.054   8.480  2.3477 -0.8635  1.0725
  453MOL0     H59783   5.673   8.946   8.409  0.4440 -0.1248  1.0496
  453MOL0     H59784   5.502   8.534   8.233 -1.7575 -2.2460  1.5451
  453MOL0     H59785   5.296   8.419   8.168 -0.9795 -1.1181 -1.5556
  453MOL0     H59786   4.996   8.331   7.984  1.2925 -0.9233  2.3138
  453MOL0     H59787   5.147   8.305   8.062  0.2661 -0.1107  1.9422
  453MOL0     H59788   5.262   8.377   7.834  2.8294 -3.3964  1.5467
  453MOL0     H59789   5.198   8.225   7.854  1.8214  1.0313  4.7191
  453MOL0     H59790   4.991   8.428   7.775  0.2322  0.6261 -0.5813
  453MOL0     H59791   5.019   8.273   7.706 -1.5880  0.5588  1.7158
  453MOL0     H59792   5.216   8.358   7.606 -0.6318 -0.2958  0.3915
  453MOL0     H59793   5.061   8.403   7.526  0.0711  0.7714  1.2645
  453MOL0     H59794   5.190   8.799   7.636 -0.0076 -0.9073  1.0108
  453MOL0     H59795   5.181   8.741   7.910 -1.5467 -2.3980 -0.5179
  453MOL0     H59796   5.403   8.867   7.991 -0.4723 -0.1746 -1.4522
  454MOL0     O59797   3.555  10.185   5.296  0.3988  0.5757  0.6298
  454MOL0     C59798   3.591  10.072   5.330  0.7298 -0.1268 -0.9397
  454MOL0     O59799   3.507   9.973   5.378  0.9892  0.0010  0.5462
  454MOL0     C59800   3.376  10.008   5.386  0.3714 -1.1287 -0.9090
  454MOL0     C59801   3.301  10.063   5.282  1.2855  0.5119 -0.0409
  454MOL0     C59802   3.163  10.083   5.305  0.1886 -0.4608 -0.8800
  454MOL0     C59803   3.094  10.037   5.431 -0.1939  0.8033  1.0051
  454MOL0     O59804   2.959  10.028   5.447  0.2015 -0.0966  0.0423
  454MOL0     C59805   2.877  10.101   5.348 -0.3311 -0.5193 -1.0877
  454MOL0     C59806   2.742  10.085   5.403  0.9988  0.0929 -1.3675
  454MOL0     C59807   2.629  10.173   5.345 -0.0660  0.0005  0.8551
  454MOL0     C59808   2.492  10.146   5.418  0.3040 -0.8402  0.7398
  454MOL0     C59809   2.371  10.190   5.328 -0.4652  0.8566 -0.7079
  454MOL0     C59810   2.374  10.122   5.187 -0.8677 -0.5367  0.7556
  454MOL0     C59811   2.256  10.155   5.104  1.4305  0.3812 -0.0512
  454MOL0     C59812   2.195  10.036   5.038  0.1661  0.0233 -0.6005
  454MOL0     N59813   2.071  10.065   4.955 -0.3300 -0.1565 -0.3896
  454MOL0     C59814   1.986   9.983   4.882  0.4657  0.1867 -1.0306
  454MOL0     C59815   1.911  10.054   4.797  0.1731 -0.7746 -0.1679
  454MOL0     C59816   1.807  10.003   4.697  0.1788  1.2367 -0.0323
  454MOL0     C59817   1.677  10.089   4.701  0.1186  0.0785  0.3102
  454MOL0     C59818   1.548  10.029   4.631 -0.5096  0.5467  0.7294
  454MOL0     C59819   1.429  10.122   4.656 -0.5707  0.8011  0.4732
  454MOL0     O59820   1.395  10.107   4.795 -0.5508 -0.3573 -0.0398
  454MOL0     C59821   1.434  10.205   4.884 -0.2777  0.4916  0.1973
  454MOL0     C59822   1.510  10.319   4.862 -0.6367 -0.0290 -0.2410
  454MOL0     C59823   1.516  10.426   4.959  0.2732 -0.4281  0.8036
  454MOL0     C59824   1.456  10.411   5.083 -0.2471 -0.5459 -0.2927
  454MOL0     C59825   1.465  10.524   5.182 -0.9239 -0.2576 -0.9926
  454MOL0     O59826   1.558  10.628   5.161 -0.4212  0.0782 -0.7562
  454MOL0     C59827   1.566  10.740   5.244 -0.3271 -0.8549 -0.0509
  454MOL0     C59828   1.700  10.773   5.282  0.2147 -0.7135  0.5848
  454MOL0     C59829   1.728  10.901   5.341 -0.1624 -0.1104 -0.1125
  454MOL0     C59830   1.608  10.976   5.383 -0.4777 -0.1169  0.2116
  454MOL0     O59831   1.616  11.095   5.448 -0.5463  0.2517  0.0033
  454MOL0     C59832   1.753  11.156   5.470 -0.2509  0.7898  0.1842
  454MOL0     C59833   1.725  11.300   5.499  1.3091 -0.6509 -0.5182
  454MOL0     C59834   1.618  11.375   5.432  0.4921 -0.0344 -0.8003
  454MOL0     C59835   1.623  11.526   5.467 -0.3463  0.3615 -0.5031
  454MOL0     C59836   1.556  11.599   5.360 -0.0768 -0.0150  0.2617
  454MOL0     C59837   1.574  11.749   5.400  0.4559  0.1211  0.7763
  454MOL0     C59838   1.666  11.826   5.305  0.4198  0.4145  1.2046
  454MOL0     C59839   1.686  11.969   5.333 -0.7576  0.0123 -0.5285
  454MOL0    Cl59840   1.818  12.018   5.443  0.3818  0.4033  0.1613
  454MOL0     C59841   1.477  10.923   5.367  0.1015 -0.2314  0.4091
  454MOL0     C59842   1.453  10.811   5.296 -0.6047 -0.7944 -0.6656
  454MOL0     O59843   1.379  10.528   5.269  0.2225 -0.1733  0.1885
  454MOL0     C59844   1.383  10.290   5.111 -0.3879 -0.1220 -0.1700
  454MOL0     C59845   1.373  10.200   5.005 -0.7109  0.5082 -0.1027
  454MOL0     N59846   1.937  10.186   4.833 -0.2461  0.2321 -0.4348
  454MOL0     N59847   2.027  10.189   4.925  0.1708  0.0091  0.3205
  454MOL0     C59848   3.181   9.991   5.534 -0.2088 -0.0829 -0.3742
  454MOL0     C59849   3.319   9.971   5.511 -0.3970  0.4624  0.5279
  454MOL0     C59850   3.712  10.013   5.283 -0.8923 -0.4230 -0.8936
  454MOL0     C59851   3.771   9.888   5.326  0.5089  0.2551 -0.2976
  454MOL0     C59852   3.882   9.830   5.282  0.4918  0.3953  0.0837
  454MOL0     C59853   3.959   9.898   5.188 -1.0312  0.8411  0.6514
  454MOL0     O59854   4.082   9.862   5.138  0.6576  0.1600  0.3313
  454MOL0     C59855   4.124   9.736   5.190 -0.4274  0.1145 -0.0858
  454MOL0     C59856   4.266   9.717   5.148  0.5146  0.3854  0.1681
  454MOL0     C59857   4.336   9.614   5.236 -0.2749  0.0437  0.7123
  454MOL0     C59858   4.467   9.549   5.175 -0.4861  0.3813 -0.2965
  454MOL0     C59859   4.449   9.449   5.072  0.7845  0.2689 -0.9556
  454MOL0     C59860   4.429   9.348   5.012  0.1152  0.0640 -0.5743
  454MOL0     C59861   3.911  10.022   5.145 -0.4092  0.2982  0.4026
  454MOL0     C59862   3.786  10.072   5.178 -0.1079 -0.0474 -1.0381
  454MOL0     H59863   3.348  10.101   5.192  1.5211  1.7811  0.5992
  454MOL0     H59864   3.105  10.140   5.233  1.3845  1.7831 -0.1635
  454MOL0     H59865   2.887  10.049   5.253 -0.9730 -0.6022 -1.1104
  454MOL0     H59866   2.895  10.209   5.352 -0.1157 -0.5768  1.1930
  454MOL0     H59867   2.742  10.102   5.511 -1.3834  1.5543 -1.5142
  454MOL0     H59868   2.703   9.983   5.404  3.0955 -0.7722  0.7886
  454MOL0     H59869   2.631  10.156   5.237  1.9593  0.0953  0.8390
  454MOL0     H59870   2.660  10.277   5.358  0.9431 -0.1444 -0.1283
  454MOL0     H59871   2.485  10.043   5.454  3.8915 -1.1892  0.8345
  454MOL0     H59872   2.504  10.218   5.500  2.6062 -3.4409  2.8721
  454MOL0     H59873   2.371  10.299   5.324  0.7200  0.9925  1.3812
  454MOL0     H59874   2.277  10.160   5.375 -0.4969 -2.7331 -2.6971
  454MOL0     H59875   2.395  10.015   5.201  0.6510 -0.0518  2.6088
  454MOL0     H59876   2.463  10.155   5.132 -0.3331 -2.1563  0.5879
  454MOL0     H59877   2.182  10.204   5.168 -0.0288  0.6363 -1.8412
  454MOL0     H59878   2.275  10.230   5.026 -2.3258  1.2448 -0.3287
  454MOL0     H59879   2.166   9.956   5.107  3.0158  1.0808  2.0340
  454MOL0     H59880   2.279   9.998   4.978  1.6249  2.5424 -0.3166
  454MOL0     H59881   1.999   9.876   4.876 -2.5002 -0.1893 -2.2938
  454MOL0     H59882   1.772   9.907   4.735  1.8063  0.7433  0.3208
  454MOL0     H59883   1.841   9.983   4.595 -2.0875 -0.0129 -0.5919
  454MOL0     H59884   1.700  10.191   4.668  0.5405 -0.1104  0.0184
  454MOL0     H59885   1.663  10.086   4.810  2.3229 -2.0060  0.6178
  454MOL0     H59886   1.565  10.016   4.523 -0.0504 -3.2821  1.1192
  454MOL0     H59887   1.517   9.931   4.669 -4.4386  0.6401 -1.6656
  454MOL0     H59888   1.341  10.083   4.602  2.1413 -4.6612 -0.7163
  454MOL0     H59889   1.464  10.220   4.623 -0.3330  0.7990  0.7185
  454MOL0     H59890   1.543  10.352   4.764  0.1835  3.0564  0.9397
  454MOL0     H59891   1.575  10.510   4.922 -3.8646  1.3833 -2.5411
  454MOL0     H59892   1.774  10.706   5.240  2.1865  0.2819  2.2801
  454MOL0     H59893   1.828  10.940   5.353 -0.3337  0.0900  0.7117
  454MOL0     H59894   1.819  11.151   5.383  2.6338 -0.9618  2.2896
  454MOL0     H59895   1.809  11.112   5.553 -1.1262  1.0859  0.9469
  454MOL0     H59896   1.820  11.349   5.475  0.6858  0.2440 -1.2002
  454MOL0     H59897   1.708  11.307   5.606  2.4750  1.7161 -0.4165
  454MOL0     H59898   1.522  11.329   5.459  1.0709  0.6000  2.9026
  454MOL0     H59899   1.638  11.363   5.325 -0.2641  1.4441 -1.1370
  454MOL0     H59900   1.592  11.548   5.570  1.8237 -0.3164  0.3559
  454MOL0     H59901   1.730  11.549   5.471 -0.1748 -0.5223  1.9131
  454MOL0     H59902   1.450  11.570   5.353  0.2282 -1.0044 -0.5341
  454MOL0     H59903   1.592  11.578   5.259  0.4451 -1.2146  0.6807
  454MOL0     H59904   1.611  11.773   5.500 -0.3698 -0.3707  1.2059
  454MOL0     H59905   1.477  11.799   5.402  1.1521  1.5374  0.2138
  454MOL0     H59906   1.765  11.781   5.311  0.9645  1.7732  3.2611
  454MOL0     H59907   1.626  11.807   5.205 -1.5378  2.0029  1.6185
  454MOL0     H59908   1.588  12.010   5.361 -0.2216  0.0107  1.5130
  454MOL0     H59909   1.708  12.021   5.239 -3.9467  0.1327 -1.3404
  454MOL0     H59910   1.401  10.984   5.414  2.7089  1.7445  2.3569
  454MOL0     H59911   1.352  10.777   5.275 -1.7182  2.5796 -1.3877
  454MOL0     H59912   1.329  10.269   5.203  0.9574 -3.6269 -0.0287
  454MOL0     H59913   1.293  10.133   5.036 -1.2836  2.6685  3.8154
  454MOL0     H59914   3.137   9.935   5.616  0.3660 -0.2560 -0.1842
  454MOL0     H59915   3.389   9.934   5.584 -0.5017 -0.5558  0.1251
  454MOL0     H59916   3.716   9.835   5.403 -0.1129  0.6419 -0.4703
  454MOL0     H59917   3.904   9.736   5.333  3.5592  0.0113 -1.7225
  454MOL0     H59918   4.059   9.658   5.151  1.4951 -0.9757 -1.2559
  454MOL0     H59919   4.128   9.736   5.300 -1.9856 -0.6264 -0.0021
  454MOL0     H59920   4.269   9.681   5.045  0.7918  0.6383  0.0864
  454MOL0     H59921   4.319   9.812   5.138  1.7145 -0.4659 -2.0191
  454MOL0     H59922   4.272   9.525   5.242  1.8285 -1.4770  1.8291
  454MOL0     H59923   4.343   9.651   5.338  2.5094  1.2460  0.1657
  454MOL0     H59924   4.542   9.618   5.135  1.3680 -1.5651 -0.3495
  454MOL0     H59925   4.533   9.504   5.250  0.5198  0.2939 -1.1995
  454MOL0     H59926   4.410   9.265   4.947 -3.1756  0.9729 -0.9526
  454MOL0     H59927   3.972  10.064   5.066  1.7606  0.3307  1.9808
  454MOL0     H59928   3.766  10.172   5.141  3.2110  0.9944 -0.3113
  455MOL0     O59929   9.136   3.487   9.141 -0.2651 -1.4692 -0.6783
  455MOL0     C59930   9.030   3.523   9.089  0.0475  0.3418 -0.5743
  455MOL0     O59931   8.973   3.649   9.090  0.9510 -0.4133 -0.4423
  455MOL0     C59932   9.021   3.756   9.163  0.5497 -0.3745  0.4633
  455MOL0     C59933   8.975   3.881   9.120  0.1684  0.1760 -0.5136
  455MOL0     C59934   9.023   3.997   9.189  0.5092 -0.0377 -0.0089
  455MOL0     C59935   9.117   3.998   9.287 -0.4387  0.4297 -0.1531
  455MOL0     O59936   9.156   4.121   9.340 -0.3504  0.9337 -0.5018
  455MOL0     C59937   9.273   4.105   9.427  0.6589  0.2048  0.6394
  455MOL0     C59938   9.342   4.232   9.479  0.6073  0.3747  0.0307
  455MOL0     C59939   9.291   4.363   9.416  0.1188 -0.0799  0.0818
  455MOL0     C59940   9.366   4.493   9.455  0.4197  0.1758 -0.5019
  455MOL0     C59941   9.272   4.618   9.437  0.2605 -0.4505  1.4787
  455MOL0     C59942   9.351   4.746   9.407  0.4705 -0.3533 -0.0049
  455MOL0     C59943   9.466   4.779   9.506  0.4833  0.2865 -0.5616
  455MOL0     C59944   9.408   4.873   9.617 -1.4260 -0.2490  0.2733
  455MOL0     N59945   9.528   4.916   9.692 -1.1827 -0.0326  0.9654
  455MOL0     C59946   9.597   4.842   9.785  0.4941  0.9555  0.8541
  455MOL0     C59947   9.678   4.925   9.843  0.2411  0.1951 -0.0765
  455MOL0     C59948   9.794   4.867   9.926  1.0016 -0.2905  0.5293
  455MOL0     C59949   9.940   4.885   9.865  0.5049 -0.1933  0.4248
  455MOL0     C59950  10.032   4.763   9.874  0.0721  0.6863 -0.8767
  455MOL0     C59951   9.992   4.651   9.785  0.4547  0.3298 -0.0625
  455MOL0     O59952   9.980   4.708   9.654  0.0986  0.4749 -0.7657
  455MOL0     C59953   9.921   4.625   9.554  0.2484 -0.3430 -0.0219
  455MOL0     C59954   9.905   4.686   9.426  0.0343  0.2640 -0.3871
  455MOL0     C59955   9.839   4.628   9.322 -0.4528 -0.2588  0.3611
  455MOL0     C59956   9.801   4.493   9.330  0.4501 -0.6587  0.2905
  455MOL0     C59957   9.732   4.419   9.216  0.1560  0.9578 -0.6469
  455MOL0     O59958   9.732   4.275   9.219 -0.6236 -0.0298 -0.7286
  455MOL0     C59959   9.674   4.209   9.113 -0.3288  1.5055 -0.1861
  455MOL0     C59960   9.539   4.186   9.112  0.5550  0.2245 -0.6352
  455MOL0     C59961   9.483   4.108   9.017 -0.4550  0.1161  0.3196
  455MOL0     C59962   9.562   4.053   8.911 -0.3899  0.1402  0.7588
  455MOL0     O59963   9.512   3.980   8.807 -0.4317  0.3094 -0.1789
  455MOL0     C59964   9.378   3.936   8.807 -0.2722 -0.3935  0.1713
  455MOL0     C59965   9.341   3.827   8.711  0.0289 -0.1747 -0.1031
  455MOL0     C59966   9.184   3.795   8.720 -0.4683 -0.0350  0.8774
  455MOL0     C59967   9.154   3.680   8.627  0.9238 -0.1976  0.4950
  455MOL0     C59968   9.003   3.642   8.623 -0.9415  0.1555  0.0668
  455MOL0     C59969   8.970   3.539   8.512  1.0683  0.2307 -0.8218
  455MOL0     C59970   9.019   3.398   8.543  0.0405 -0.0008  0.4356
  455MOL0     C59971   8.973   3.302   8.433  0.1425 -0.2425 -0.4033
  455MOL0    Cl59972   8.793   3.275   8.437 -0.0310  0.3873 -0.5228
  455MOL0     C59973   9.709   4.078   8.910  0.6747 -0.3168 -0.2601
  455MOL0     C59974   9.760   4.152   9.019  0.2920 -0.3463  0.4411
  455MOL0     O59975   9.673   4.484   9.134  0.5106 -0.1538  0.3476
  455MOL0     C59976   9.812   4.435   9.463  0.6472  0.1857  1.7569
  455MOL0     C59977   9.882   4.498   9.571  0.0040  0.1932  1.2110
  455MOL0     N59978   9.662   5.052   9.792 -0.9417 -0.0934 -0.4374
  455MOL0     N59979   9.575   5.041   9.697  0.8388  0.0089  0.8806
  455MOL0     C59980   9.154   3.860   9.325 -0.0676 -0.7568 -0.0188
  455MOL0     C59981   9.115   3.743   9.264 -0.5965 -0.0649 -0.6256
  455MOL0     C59982   8.945   3.418   9.032 -0.0098 -0.3776 -0.1705
  455MOL0     C59983   8.960   3.300   9.088 -1.0084 -0.2398  0.4839
  455MOL0     C59984   8.886   3.189   9.044 -0.2051  0.1284  0.3440
  455MOL0     C59985   8.796   3.199   8.932 -0.3547  0.3545  0.2970
  455MOL0     O59986   8.746   3.080   8.892 -0.1440  0.4320 -0.7681
  455MOL0     C59987   8.713   3.076   8.746 -0.7919  0.5611  0.9652
  455MOL0     C59988   8.726   2.928   8.694  0.9405  0.1312 -1.0594
  455MOL0     C59989   8.703   2.906   8.542 -0.1017  0.1032  0.2419
  455MOL0     C59990   8.578   2.961   8.477 -0.8089 -0.0220  0.3964
  455MOL0     C59991   8.551   2.902   8.344  0.6379  0.7623 -0.3294
  455MOL0     C59992   8.519   2.835   8.250  0.4771 -0.3399  0.2398
  455MOL0     C59993   8.767   3.333   8.888  0.9814  0.0910 -0.0085
  455MOL0     C59994   8.839   3.440   8.944 -0.5393 -0.1914 -0.0832
  455MOL0     H59995   8.911   3.903   9.036  1.7059  2.4528 -1.1799
  455MOL0     H59996   8.986   4.094   9.158 -0.5443 -0.3209  0.3436
  455MOL0     H59997   9.345   4.043   9.373 -0.1686  0.2126 -0.5227
  455MOL0     H59998   9.248   4.045   9.515  1.4566 -1.5409 -0.2781
  455MOL0     H59999   9.450   4.216   9.481  0.2240 -2.9491 -0.1407
  455MOL0     H60000   9.338   4.239   9.588  2.0061 -1.6186  0.2641
  455MOL0     H60001   9.193   4.370   9.463 -0.1032  1.8087 -0.5845
  455MOL0     H60002   9.289   4.362   9.307  2.7103 -1.3845 -0.0370
  455MOL0     H60003   9.398   4.483   9.560 -1.4315 -0.4621  0.0562
  455MOL0     H60004   9.452   4.510   9.391 -0.4254 -1.6803 -2.2771
  455MOL0     H60005   9.225   4.634   9.535  1.4663 -0.3024  2.0490
  455MOL0     H60006   9.202   4.598   9.356  0.9684 -4.1208  1.5763
  455MOL0     H60007   9.275   4.824   9.409  1.7832  0.9780  1.7112
  455MOL0     H60008   9.401   4.717   9.314  0.9428 -0.5282  0.2991
  455MOL0     H60009   9.501   4.685   9.548  0.5983  0.0460 -1.1784
  455MOL0     H60010   9.554   4.824   9.460  0.1007  2.1248  0.4008
  455MOL0     H60011   9.330   4.826   9.678 -1.6010 -0.0209  0.2312
  455MOL0     H60012   9.349   4.955   9.573 -0.4738 -1.0902 -2.7907
  455MOL0     H60013   9.589   4.736   9.808 -0.1257  0.6523 -0.6373
  455MOL0     H60014   9.780   4.759   9.939  3.2336 -0.7634 -0.5967
  455MOL0     H60015   9.786   4.901  10.030 -0.8728  1.6944 -0.1871
  455MOL0     H60016  10.001   4.961   9.915  1.6371 -0.3188 -0.7289
  455MOL0     H60017   9.935   4.919   9.761 -0.2478 -1.1625  0.1267
  455MOL0     H60018  10.136   4.779   9.845  0.4694 -1.0586 -0.5080
  455MOL0     H60019  10.019   4.736   9.979 -1.4529 -3.0814 -1.8718
  455MOL0     H60020   9.905   4.593   9.815 -0.6935  2.2366  0.5004
  455MOL0     H60021  10.073   4.578   9.795 -0.0403  0.0308  2.3145
  455MOL0     H60022   9.922   4.791   9.406  0.6048  0.5524  1.4967
  455MOL0     H60023   9.814   4.674   9.227 -0.3298  2.8723  1.7391
  455MOL0     H60024   9.479   4.224   9.193  1.0180 -1.0813  0.3654
  455MOL0     H60025   9.377   4.085   9.025 -1.0049  1.1254 -2.6156
  455MOL0     H60026   9.310   4.022   8.814 -0.6300 -0.7919  2.0607
  455MOL0     H60027   9.366   3.887   8.904 -1.7320 -0.4113  0.0003
  455MOL0     H60028   9.394   3.732   8.722  0.8117 -0.1250 -2.7444
  455MOL0     H60029   9.380   3.850   8.612  2.5936  0.6604  1.0167
  455MOL0     H60030   9.126   3.883   8.691 -1.3351 -0.8910 -0.0583
  455MOL0     H60031   9.158   3.765   8.822  1.5744 -0.7691  1.2336
  455MOL0     H60032   9.200   3.705   8.531  3.0915 -0.2001  1.4799
  455MOL0     H60033   9.200   3.586   8.658  0.2557 -0.8311 -0.3669
  455MOL0     H60034   8.943   3.730   8.599  0.6084  1.1260 -0.4284
  455MOL0     H60035   8.973   3.613   8.724  1.3490 -1.1917  0.4320
  455MOL0     H60036   9.006   3.570   8.414  2.2485  1.7461  0.0568
  455MOL0     H60037   8.861   3.533   8.507  0.9175  0.4414  1.3453
  455MOL0     H60038   9.126   3.396   8.522 -0.1542  2.1766 -1.0389
  455MOL0     H60039   8.991   3.367   8.644 -1.2348  0.4122  0.2325
  455MOL0     H60040   9.020   3.207   8.461  0.0901  0.3127  1.7060
  455MOL0     H60041   9.007   3.336   8.335 -0.3985 -1.0956 -0.8950
  455MOL0     H60042   9.779   4.036   8.839  3.0660 -0.4849  2.0387
  455MOL0     H60043   9.864   4.152   9.049  0.0768 -2.1872  1.2988
  455MOL0     H60044   9.766   4.339   9.485  1.6574 -0.4910  1.0102
  455MOL0     H60045   9.893   4.441   9.663  4.1947  1.4764  1.7174
  455MOL0     H60046   9.231   3.842   9.399 -2.6176 -0.6435  2.8337
  455MOL0     H60047   9.163   3.657   9.308 -0.4977  0.8342  1.1189
  455MOL0     H60048   9.037   3.270   9.158  2.1643  1.0454 -2.2294
  455MOL0     H60049   8.882   3.091   9.091  0.0797  0.0075  0.1226
  455MOL0     H60050   8.786   3.128   8.683 -1.5080 -1.4345 -1.6616
  455MOL0     H60051   8.616   3.126   8.744  0.6076  3.4753 -0.9315
  455MOL0     H60052   8.822   2.881   8.718  0.0422 -0.9531  0.5306
  455MOL0     H60053   8.645   2.876   8.746  2.1039 -0.0041  0.6885
  455MOL0     H60054   8.719   2.801   8.514  1.7998 -0.2341  2.2922
  455MOL0     H60055   8.788   2.959   8.498  0.9352 -0.6547  1.2465
  455MOL0     H60056   8.494   2.929   8.539 -2.2704 -0.4785 -1.7137
  455MOL0     H60057   8.582   3.070   8.476 -1.4239  0.0103 -1.0386
  455MOL0     H60058   8.490   2.760   8.179 -1.7286 -0.8228  1.5690
  455MOL0     H60059   8.693   3.360   8.814  1.2776 -0.7933 -0.6449
  455MOL0     H60060   8.825   3.545   8.921 -3.4978 -0.5349 -0.1436
  456MOL0     O60061   5.628   4.962   1.208  1.3767 -0.1096  0.6184
  456MOL0     C60062   5.659   5.001   1.314 -0.2367 -0.3751 -0.0635
  456MOL0     O60063   5.660   4.928   1.435  0.3029  0.2130  0.1518
  456MOL0     C60064   5.648   4.800   1.423  0.7775  0.4142 -0.7257
  456MOL0     C60065   5.745   4.728   1.368  0.6498 -0.6552  0.6774
  456MOL0     C60066   5.743   4.593   1.360  0.7797  0.2857  0.1748
  456MOL0     C60067   5.631   4.515   1.402 -0.9111  0.2740  0.8186
  456MOL0     O60068   5.627   4.375   1.383 -0.3136  0.1256 -0.4652
  456MOL0     C60069   5.579   4.337   1.248  0.0878 -0.0614  0.0226
  456MOL0     C60070   5.650   4.202   1.220 -1.2424 -0.1147  0.0725
  456MOL0     C60071   5.650   4.158   1.069  0.1547 -0.1737 -0.7973
  456MOL0     C60072   5.761   4.218   0.981 -0.2691 -0.2660 -0.8915
  456MOL0     C60073   5.695   4.283   0.849 -1.1007  0.3034 -0.2468
  456MOL0     C60074   5.652   4.167   0.753 -0.2798 -0.2966  0.3893
  456MOL0     C60075   5.780   4.097   0.695  0.1684 -0.8194  0.1161
  456MOL0     C60076   5.752   4.038   0.562  1.2154  0.5770 -0.8715
  456MOL0     N60077   5.667   3.919   0.591 -0.2187 -0.3564  0.6429
  456MOL0     C60078   5.699   3.808   0.680 -0.4791 -0.4098  0.7070
  456MOL0     C60079   5.602   3.725   0.648  0.7653  0.0463 -0.5283
  456MOL0     C60080   5.593   3.582   0.697 -0.7243 -0.2576  0.1156
  456MOL0     C60081   5.688   3.489   0.620 -0.3168  0.3119 -1.3784
  456MOL0     C60082   5.684   3.350   0.685 -0.9252  0.8484 -0.3645
  456MOL0     C60083   5.806   3.314   0.760  0.7066 -0.3427 -0.6288
  456MOL0     O60084   5.830   3.408   0.869  0.0018  0.6275  0.3745
  456MOL0     C60085   5.748   3.409   0.982  0.7438  0.3632  0.1434
  456MOL0     C60086   5.645   3.319   1.010 -0.6056 -0.6202 -0.9877
  456MOL0     C60087   5.561   3.348   1.120 -0.0671 -0.2747  0.0062
  456MOL0     C60088   5.580   3.454   1.204  0.3161 -0.0710  1.3150
  456MOL0     C60089   5.493   3.486   1.320 -0.3386 -0.9218 -0.2565
  456MOL0     O60090   5.509   3.608   1.385  0.0933  0.3485  0.6527
  456MOL0     C60091   5.447   3.634   1.505 -0.2990  0.1661 -0.8803
  456MOL0     C60092   5.508   3.617   1.624  0.2667 -0.3811 -0.0749
  456MOL0     C60093   5.460   3.664   1.748  0.5154 -0.1597  0.0166
  456MOL0     C60094   5.337   3.713   1.756  0.3982  0.0639  0.4838
  456MOL0     O60095   5.303   3.782   1.866 -0.2052 -0.3322  0.5540
  456MOL0     C60096   5.239   3.918   1.841 -0.1527  0.1695 -1.8353
  456MOL0     C60097   5.290   4.002   1.961 -0.0653  0.8773  0.0711
  456MOL0     C60098   5.406   4.087   1.906  0.4785 -0.5385  0.9132
  456MOL0     C60099   5.365   4.212   1.823 -0.0830 -0.8125  0.2731
  456MOL0     C60100   5.480   4.311   1.790 -0.9377  0.1944  0.0002
  456MOL0     C60101   5.505   4.401   1.907 -0.2360 -0.8224 -0.1389
  456MOL0     C60102   5.414   4.523   1.920  0.0563 -0.9141 -0.2674
  456MOL0     C60103   5.454   4.633   1.826 -0.5696 -0.9177 -0.5831
  456MOL0    Cl60104   5.322   4.647   1.693  0.2019 -0.0793 -0.3131
  456MOL0     C60105   5.266   3.733   1.636 -0.2296  0.5504 -0.0450
  456MOL0     C60106   5.324   3.699   1.514 -0.0187 -0.7917  0.2748
  456MOL0     O60107   5.409   3.398   1.355 -0.1522  0.4999 -0.3767
  456MOL0     C60108   5.696   3.536   1.189  0.5550  0.8743 -0.0580
  456MOL0     C60109   5.772   3.510   1.075 -0.4078 -0.2789 -0.5065
  456MOL0     N60110   5.512   3.772   0.556 -0.2448  0.5291  0.0920
  456MOL0     N60111   5.551   3.891   0.521 -0.1754 -0.3276 -0.7042
  456MOL0     C60112   5.533   4.587   1.468 -0.5169  0.1310  0.9860
  456MOL0     C60113   5.543   4.723   1.480 -0.0233 -0.3797 -1.3366
  456MOL0     C60114   5.671   5.142   1.329 -0.8318 -0.9497 -0.0518
  456MOL0     C60115   5.721   5.222   1.225 -0.0114 -0.3445  0.8789
  456MOL0     C60116   5.745   5.359   1.248  0.8422 -0.6988  0.5320
  456MOL0     C60117   5.703   5.415   1.372  0.9051  0.2479  0.3240
  456MOL0     O60118   5.698   5.553   1.372  0.6761  1.3024  0.2205
  456MOL0     C60119   5.692   5.638   1.491 -0.4062 -0.0747  0.1495
  456MOL0     C60120   5.679   5.786   1.447 -0.7980 -1.0797 -0.6691
  456MOL0     C60121   5.667   5.885   1.567  0.0201  0.5860 -0.6847
  456MOL0     C60122   5.681   6.036   1.535 -0.3609 -0.4950  0.1729
  456MOL0     C60123   5.820   6.069   1.516 -0.2820 -0.5835  0.3687
  456MOL0     C60124   5.934   6.099   1.487 -0.0713 -0.4809  0.3676
  456MOL0     C60125   5.649   5.338   1.474  0.4612 -0.7771  0.6541
  456MOL0     C60126   5.647   5.201   1.451  0.1026  0.2046 -0.4345
  456MOL0     H60127   5.834   4.781   1.336 -1.7389  2.9773 -0.6568
  456MOL0     H60128   5.825   4.532   1.324 -1.4091 -1.8451 -1.4660
  456MOL0     H60129   5.615   4.409   1.174  1.0222 -0.8021 -0.2646
  456MOL0     H60130   5.471   4.317   1.249  0.2345 -0.8784 -0.1218
  456MOL0     H60131   5.589   4.138   1.285 -1.9433  2.9887  2.7471
  456MOL0     H60132   5.753   4.200   1.257 -0.1471  1.2274 -2.5818
  456MOL0     H60133   5.547   4.171   1.033 -1.0848 -1.7115  1.9163
  456MOL0     H60134   5.648   4.048   1.069  0.8729 -0.2528  1.8911
  456MOL0     H60135   5.814   4.297   1.035 -1.2225 -0.2736  0.0906
  456MOL0     H60136   5.832   4.143   0.945  1.6631  0.4321  1.2078
  456MOL0     H60137   5.763   4.336   0.782  0.7091 -2.1266 -0.4853
  456MOL0     H60138   5.616   4.351   0.882 -0.6582 -0.1620  1.9133
  456MOL0     H60139   5.592   4.203   0.668 -0.9547  0.4388  1.1558
  456MOL0     H60140   5.588   4.098   0.808 -0.9451 -0.2782 -0.3322
  456MOL0     H60141   5.850   4.179   0.676 -2.1974  1.0671 -1.0832
  456MOL0     H60142   5.824   4.021   0.759  1.1657 -0.4477 -0.1027
  456MOL0     H60143   5.836   4.028   0.494 -0.7467 -3.9123 -3.0722
  456MOL0     H60144   5.689   4.106   0.504  0.8692  0.0028 -1.1750
  456MOL0     H60145   5.794   3.775   0.722 -0.1806  0.1231  0.4557
  456MOL0     H60146   5.496   3.535   0.677  0.0831 -1.7403 -0.4437
  456MOL0     H60147   5.607   3.581   0.805  2.0716 -0.3321 -0.1854
  456MOL0     H60148   5.790   3.527   0.626 -1.2633  2.7480  1.9874
  456MOL0     H60149   5.650   3.477   0.518  0.9381 -1.8420 -1.6535
  456MOL0     H60150   5.604   3.334   0.758 -0.6076 -0.0622 -0.1949
  456MOL0     H60151   5.662   3.283   0.601  2.2151 -1.3829  0.4251
  456MOL0     H60152   5.890   3.307   0.690  0.0483 -4.0586 -1.2759
  456MOL0     H60153   5.794   3.218   0.811 -2.9746  0.1800 -0.2233
  456MOL0     H60154   5.611   3.239   0.945  1.1580  0.1285 -2.9216
  456MOL0     H60155   5.476   3.282   1.133 -0.5383  0.6499  2.0791
  456MOL0     H60156   5.606   3.571   1.620 -0.1584 -1.5838  1.8411
  456MOL0     H60157   5.515   3.667   1.842 -1.2169 -3.7290  1.3534
  456MOL0     H60158   5.130   3.912   1.842 -0.6259  4.6867 -2.4178
  456MOL0     H60159   5.280   3.974   1.756 -0.4837  0.7403 -1.6266
  456MOL0     H60160   5.332   3.933   2.035 -1.0748  0.8411  0.6282
  456MOL0     H60161   5.213   4.070   2.000 -0.3098 -2.0538  5.5738
  456MOL0     H60162   5.476   4.025   1.849 -0.7890  0.0940 -1.4570
  456MOL0     H60163   5.455   4.120   1.998  0.2043 -3.7049  2.3014
  456MOL0     H60164   5.320   4.196   1.725  0.3628  3.0463 -0.7305
  456MOL0     H60165   5.288   4.270   1.876 -2.6318 -1.4313 -2.4798
  456MOL0     H60166   5.462   4.367   1.698  1.4998 -2.2236 -2.1224
  456MOL0     H60167   5.570   4.252   1.774 -2.2547 -1.8808 -0.0677
  456MOL0     H60168   5.610   4.433   1.903 -0.3680 -0.4937 -3.1694
  456MOL0     H60169   5.499   4.347   2.002 -0.4968 -1.3541 -0.4532
  456MOL0     H60170   5.313   4.495   1.890 -1.0542  2.4320 -0.1149
  456MOL0     H60171   5.408   4.556   2.024 -3.4253 -0.6918 -0.4179
  456MOL0     H60172   5.560   4.623   1.799  0.6172  1.9987  2.4431
  456MOL0     H60173   5.448   4.723   1.887  2.3796 -0.6057 -0.6046
  456MOL0     H60174   5.168   3.778   1.647 -0.8999 -1.2315  2.0121
  456MOL0     H60175   5.271   3.730   1.425 -1.2756  1.1972  1.6236
  456MOL0     H60176   5.719   3.626   1.244  0.7513  0.9768 -0.3101
  456MOL0     H60177   5.850   3.584   1.058  0.0611  0.0844  2.7294
  456MOL0     H60178   5.447   4.539   1.513 -1.6226 -0.3376 -1.4462
  456MOL0     H60179   5.462   4.786   1.514  2.3950  2.7107 -0.8879
  456MOL0     H60180   5.745   5.167   1.135 -0.0398  2.8584 -1.2566
  456MOL0     H60181   5.796   5.430   1.183  0.6224  0.5857  1.6977
  456MOL0     H60182   5.789   5.632   1.541 -0.1261 -1.1181 -0.4937
  456MOL0     H60183   5.613   5.618   1.563  0.5895  1.8716  1.8798
  456MOL0     H60184   5.777   5.794   1.399  0.7967  0.7930  2.5347
  456MOL0     H60185   5.603   5.818   1.376 -0.5646  1.3008  0.0489
  456MOL0     H60186   5.736   5.862   1.649  0.4679  4.1531  0.1245
  456MOL0     H60187   5.566   5.884   1.607  0.3766 -1.6238  0.2588
  456MOL0     H60188   5.622   6.078   1.453  0.5897  0.9474  0.1887
  456MOL0     H60189   5.647   6.091   1.623  3.2795 -0.3848  1.7165
  456MOL0     H60190   6.034   6.126   1.457 -0.1644  3.5164  2.9333
  456MOL0     H60191   5.619   5.392   1.564 -1.4598 -1.7554  0.6527
  456MOL0     H60192   5.614   5.145   1.538 -3.0696 -0.5590 -1.9653
  457MOL0     O60193   5.686   3.304   7.252 -0.4835  0.0030 -0.9288
  457MOL0     C60194   5.792   3.355   7.284 -0.3794 -0.2471  0.0096
  457MOL0     O60195   5.889   3.297   7.368 -0.0675 -0.1806  0.5536
  457MOL0     C60196   5.839   3.200   7.453  0.2686  0.0884  0.4634
  457MOL0     C60197   5.842   3.072   7.431  0.9722  0.8851 -0.1864
  457MOL0     C60198   5.777   2.977   7.510 -0.1289 -0.1934  0.5028
  457MOL0     C60199   5.722   3.013   7.631 -0.4717 -1.6128  0.7555
  457MOL0     O60200   5.641   2.943   7.714  0.2446  0.0863 -0.8353
  457MOL0     C60201   5.643   2.803   7.722  0.8265 -0.2372 -0.0438
  457MOL0     C60202   5.562   2.751   7.826  0.2875 -0.3633  0.5335
  457MOL0     C60203   5.535   2.589   7.828  0.1251  0.1269 -0.0345
  457MOL0     C60204   5.664   2.515   7.838  0.2773  0.8717  0.2280
  457MOL0     C60205   5.619   2.367   7.823 -0.1210  0.4161 -0.1811
  457MOL0     C60206   5.736   2.278   7.867  0.9314 -0.9886 -0.6318
  457MOL0     C60207   5.685   2.134   7.853  0.5447  0.4956  0.8843
  457MOL0     C60208   5.796   2.029   7.873  0.4712  0.5771 -0.8196
  457MOL0     N60209   5.736   1.898   7.885  0.4566  0.2919  0.2889
  457MOL0     C60210   5.641   1.851   7.981 -0.4597 -0.0030  0.2503
  457MOL0     C60211   5.602   1.732   7.929  0.2202 -0.2115 -0.4068
  457MOL0     C60212   5.484   1.663   7.974  0.2303  0.3288 -0.2785
  457MOL0     C60213   5.507   1.512   7.988 -0.9767 -0.3653  0.5222
  457MOL0     C60214   5.417   1.429   8.079 -0.1367  0.3757 -0.2953
  457MOL0     C60215   5.270   1.461   8.064 -0.0053  0.1166  0.7990
  457MOL0     O60216   5.234   1.453   7.923  0.1271 -0.1956 -0.7130
  457MOL0     C60217   5.201   1.334   7.862 -0.3143  0.3984  0.5138
  457MOL0     C60218   5.194   1.206   7.925  0.2604  0.2563 -0.5519
  457MOL0     C60219   5.163   1.092   7.842  0.0394 -0.5239 -0.5106
  457MOL0     C60220   5.166   1.089   7.709 -0.7123 -0.9160 -0.0106
  457MOL0     C60221   5.139   0.969   7.622 -0.1242 -0.0828  0.7615
  457MOL0     O60222   5.115   0.987   7.489  0.2348  0.6620  0.1105
  457MOL0     C60223   5.083   0.868   7.434  0.9517  0.7758 -0.6314
  457MOL0     C60224   4.973   0.790   7.471 -0.4069  0.4006 -0.2517
  457MOL0     C60225   4.940   0.678   7.402 -0.0527  0.3078  0.2109
  457MOL0     C60226   5.018   0.639   7.288  1.0542  0.5336  0.4485
  457MOL0     O60227   4.977   0.528   7.215  0.1284 -0.0339  0.5446
  457MOL0     C60228   5.089   0.459   7.144  1.0921  0.1518  0.2099
  457MOL0     C60229   5.057   0.312   7.111 -0.0700 -0.6002  0.3715
  457MOL0     C60230   4.917   0.275   7.051 -0.4086  0.7433  0.0645
  457MOL0     C60231   4.888   0.331   6.906  1.7997  0.1329 -0.0775
  457MOL0     C60232   4.997   0.269   6.801  0.1925 -0.2792 -0.0754
  457MOL0     C60233   4.973   0.326   6.654  0.1882 -0.8624 -0.2438
  457MOL0     C60234   5.083   0.299   6.552  0.3132  0.0170 -0.5886
  457MOL0     C60235   5.103   0.155   6.519 -1.2548  1.0613 -0.0595
  457MOL0    Cl60236   5.210   0.136   6.385  0.0967 -0.0095  0.1006
  457MOL0     C60237   5.135   0.709   7.267  0.0941 -0.4447  1.0293
  457MOL0     C60238   5.164   0.817   7.340 -0.4159  0.0175  0.0465
  457MOL0     O60239   5.157   0.859   7.677  0.5790 -0.3569 -0.2982
  457MOL0     C60240   5.179   1.221   7.644 -0.7116  0.9100 -0.8940
  457MOL0     C60241   5.189   1.338   7.727  0.2134 -0.0196  0.8796
  457MOL0     N60242   5.681   1.700   7.818  0.6126 -0.3553 -0.2289
  457MOL0     N60243   5.745   1.799   7.793 -0.3940  0.0709 -0.0298
  457MOL0     C60244   5.727   3.155   7.659 -0.1957  0.1100 -0.5463
  457MOL0     C60245   5.787   3.244   7.572 -0.3436 -0.0648  0.8572
  457MOL0     C60246   5.825   3.492   7.228  0.5668 -0.6089  0.4427
  457MOL0     C60247   5.964   3.527   7.233  0.4932  0.7944 -0.4326
  457MOL0     C60248   5.994   3.663   7.219 -0.0468 -0.1788 -0.0777
  457MOL0     C60249   5.900   3.761   7.199  0.9867 -0.2079 -0.3453
  457MOL0     O60250   5.930   3.878   7.136  0.0490  0.3771  0.0382
  457MOL0     C60251   6.038   3.959   7.188  0.7600  0.0184  0.1292
  457MOL0     C60252   6.062   3.964   7.337 -0.3610  0.4081 -0.2024
  457MOL0     C60253   5.954   4.025   7.425  0.8131  0.4357  0.9606
  457MOL0     C60254   6.002   4.062   7.567 -0.1340  0.9785 -0.6017
  457MOL0     C60255   6.053   3.944   7.651 -0.6692 -0.0480 -0.6362
  457MOL0     C60256   6.089   3.842   7.708 -0.6302  0.3708  0.5066
  457MOL0     C60257   5.768   3.720   7.190 -0.0417 -0.6763 -0.0688
  457MOL0     C60258   5.724   3.583   7.202  0.5449 -0.1033 -0.9111
  457MOL0     H60259   5.885   3.044   7.336  0.5624  4.4269 -1.5884
  457MOL0     H60260   5.759   2.876   7.477 -0.3229 -0.8793  2.5278
  457MOL0     H60261   5.751   2.784   7.728  1.3949  2.4568 -0.6099
  457MOL0     H60262   5.607   2.759   7.628  1.7469 -4.7814  1.4658
  457MOL0     H60263   5.469   2.809   7.829  1.2180  1.5002 -2.3928
  457MOL0     H60264   5.614   2.777   7.919  2.2606 -3.1933  0.3706
  457MOL0     H60265   5.500   2.563   7.728  3.3654 -0.5943 -1.1185
  457MOL0     H60266   5.466   2.554   7.905 -0.4752  0.0004 -0.6170
  457MOL0     H60267   5.747   2.543   7.772  2.8481 -0.2999  2.7314
  457MOL0     H60268   5.705   2.542   7.936  2.4216 -4.2388  1.0385
  457MOL0     H60269   5.591   2.337   7.722 -2.4945 -0.7258  0.7246
  457MOL0     H60270   5.526   2.346   7.876  0.2062  0.1368  0.2941
  457MOL0     H60271   5.757   2.298   7.973 -1.3091 -0.4312 -0.2503
  457MOL0     H60272   5.816   2.288   7.793  0.7394  0.8998 -0.6305
  457MOL0     H60273   5.614   2.115   7.935  0.0124  2.5485  0.9489
  457MOL0     H60274   5.652   2.120   7.750  4.5040 -0.7731 -0.3943
  457MOL0     H60275   5.848   2.057   7.965  0.0763  0.4687 -0.5627
  457MOL0     H60276   5.878   2.037   7.800 -0.9501  0.8882 -2.4606
  457MOL0     H60277   5.603   1.908   8.065 -3.4841  3.0504 -2.8881
  457MOL0     H60278   5.399   1.676   7.905  0.4875 -2.1722 -1.1674
  457MOL0     H60279   5.463   1.689   8.078  1.4906 -4.0380  1.2776
  457MOL0     H60280   5.607   1.508   8.031  1.0727  0.8821 -3.5995
  457MOL0     H60281   5.509   1.462   7.891  0.6183 -2.1202  1.4011
  457MOL0     H60282   5.422   1.322   8.059  0.0049  0.1968  0.6417
  457MOL0     H60283   5.440   1.443   8.185 -0.5283 -0.1922 -0.1336
  457MOL0     H60284   5.241   1.561   8.100 -1.0289  0.6472 -1.2839
  457MOL0     H60285   5.211   1.396   8.129 -4.4918  1.3583 -1.5691
  457MOL0     H60286   5.205   1.191   8.032 -1.8824 -2.6488 -0.6139
  457MOL0     H60287   5.137   0.991   7.873 -2.5334 -0.5922 -2.5243
  457MOL0     H60288   4.912   0.826   7.554  0.6586  1.1484  0.2348
  457MOL0     H60289   4.860   0.610   7.432 -0.9309  0.3598 -1.8841
  457MOL0     H60290   5.186   0.456   7.193  3.4951  0.4622 -4.0499
  457MOL0     H60291   5.111   0.519   7.055  0.5930 -0.4657 -0.3385
  457MOL0     H60292   5.059   0.258   7.206  2.4310 -0.8432  0.2415
  457MOL0     H60293   5.135   0.261   7.053  0.9693  0.6564  0.5997
  457MOL0     H60294   4.845   0.304   7.128  0.3786  2.3020  0.2603
  457MOL0     H60295   4.929   0.168   7.033 -1.4475  0.2011  2.2449
  457MOL0     H60296   4.782   0.315   6.881  1.1836  1.0900  1.6995
  457MOL0     H60297   4.887   0.440   6.910 -0.8871  0.2105 -0.4243
  457MOL0     H60298   4.979   0.162   6.786 -1.7652 -0.0249  0.2387
  457MOL0     H60299   5.093   0.308   6.835  0.4827 -1.3636  0.3805
  457MOL0     H60300   4.964   0.435   6.656  3.5738 -0.3700 -2.8069
  457MOL0     H60301   4.877   0.287   6.616 -0.9773  1.7945 -0.2311
  457MOL0     H60302   5.052   0.352   6.461 -0.1327 -0.2948 -0.6192
  457MOL0     H60303   5.178   0.336   6.591  0.3123  0.1297 -0.6962
  457MOL0     H60304   5.010   0.098   6.505  0.5804 -2.2516  0.0448
  457MOL0     H60305   5.158   0.106   6.600 -1.0494  1.3352 -0.0330
  457MOL0     H60306   5.211   0.680   7.195 -0.2939  0.0661  0.4109
  457MOL0     H60307   5.253   0.872   7.310 -0.5816  0.3329  0.1205
  457MOL0     H60308   5.158   1.223   7.538 -0.6540  1.6438 -0.8991
  457MOL0     H60309   5.208   1.434   7.680  0.6457 -0.5156  0.0220
  457MOL0     H60310   5.671   3.171   7.751  0.6964 -1.0881  0.2400
  457MOL0     H60311   5.789   3.352   7.588 -1.5453 -0.0105  0.7963
  457MOL0     H60312   6.043   3.455   7.249 -1.1977 -1.5177 -1.8256
  457MOL0     H60313   6.098   3.694   7.215  0.4376 -1.8511 -1.3856
  457MOL0     H60314   6.037   4.064   7.158  1.5653  0.4476  1.4842
  457MOL0     H60315   6.129   3.924   7.137  2.1218  0.9416  1.8071
  457MOL0     H60316   6.075   3.859   7.364  1.4546  0.8311  0.7154
  457MOL0     H60317   6.150   4.021   7.367 -1.6705  1.3101  2.2112
  457MOL0     H60318   5.871   3.954   7.437 -0.5909  1.6901 -0.6882
  457MOL0     H60319   5.916   4.111   7.369 -0.0863 -1.0719 -0.8487
  457MOL0     H60320   6.099   4.112   7.553  1.9821 -2.3657  0.8649
  457MOL0     H60321   5.930   4.119   7.626  1.8654  2.2219  0.8050
  457MOL0     H60322   6.118   3.755   7.762 -1.4346 -1.9206 -2.5018
  457MOL0     H60323   5.698   3.796   7.157 -1.1981 -1.5466  0.2961
  457MOL0     H60324   5.620   3.553   7.207  0.0802  1.5657  0.7381
  458MOL0     O60325   3.108   7.024   4.321 -0.0394 -0.8864  0.0782
  458MOL0     C60326   3.052   7.074   4.230  0.6490 -1.0569  0.0403
  458MOL0     O60327   2.982   7.009   4.138  0.5004 -0.0882  0.1876
  458MOL0     C60328   2.945   6.880   4.155 -0.1937  0.6517  0.0175
  458MOL0     C60329   2.957   6.801   4.037 -0.4361  0.1051 -0.5028
  458MOL0     C60330   2.915   6.670   4.035  0.3504  0.5495  0.1647
  458MOL0     C60331   2.852   6.614   4.147  1.3520 -0.7818 -0.4346
  458MOL0     O60332   2.809   6.484   4.165  0.2422  0.3209 -1.0212
  458MOL0     C60333   2.881   6.380   4.110 -0.5152  0.1347  0.0715
  458MOL0     C60334   2.794   6.258   4.108  0.1504  0.7565  0.1966
  458MOL0     C60335   2.797   6.180   4.242 -0.0110  0.3723  0.1161
  458MOL0     C60336   2.695   6.060   4.246  0.8693  0.2531  0.2592
  458MOL0     C60337   2.701   5.961   4.371  0.8849 -0.0721 -0.1252
  458MOL0     C60338   2.631   5.826   4.348 -1.0705 -0.4598  0.9225
  458MOL0     C60339   2.473   5.840   4.344  0.2129 -0.5051  0.3380
  458MOL0     C60340   2.404   5.708   4.358  0.6882 -0.9450  0.7095
  458MOL0     N60341   2.260   5.747   4.326  0.4289  0.4925 -0.3081
  458MOL0     C60342   2.195   5.697   4.218  0.1058 -0.1779 -0.1987
  458MOL0     C60343   2.075   5.756   4.211  0.3034 -0.9141  0.2598
  458MOL0     C60344   1.994   5.748   4.090 -0.0021  0.6992 -0.1323
  458MOL0     C60345   1.940   5.607   4.069 -0.1411 -1.3153  0.0821
  458MOL0     C60346   1.843   5.607   3.945  0.5449 -0.1543  0.2270
  458MOL0     C60347   1.770   5.474   3.948  0.3863 -0.4020  0.2049
  458MOL0     O60348   1.677   5.477   3.841  0.1297  0.5853  0.9315
  458MOL0     C60349   1.710   5.426   3.716  0.1285  0.2703  0.2127
  458MOL0     C60350   1.798   5.331   3.695 -0.0082  0.1376  0.5201
  458MOL0     C60351   1.826   5.278   3.565  0.0025 -0.4565 -0.2263
  458MOL0     C60352   1.756   5.338   3.450  0.4783 -1.4824  0.3102
  458MOL0     C60353   1.786   5.302   3.307  0.7287 -1.4078  0.4611
  458MOL0     O60354   1.716   5.360   3.202 -0.4670  0.1956  0.5138
  458MOL0     C60355   1.745   5.306   3.083  0.9102 -0.1211  0.0494
  458MOL0     C60356   1.707   5.174   3.042  0.3025 -1.0511 -0.4586
  458MOL0     C60357   1.741   5.132   2.917  0.1384 -0.1050  0.5330
  458MOL0     C60358   1.808   5.207   2.827 -0.0154 -0.3542 -0.3596
  458MOL0     O60359   1.851   5.159   2.711 -0.2137  0.0964  0.4250
  458MOL0     C60360   1.967   5.076   2.709 -0.1282  0.1566 -0.4491
  458MOL0     C60361   2.069   5.125   2.593  0.4253 -0.5152  0.3453
  458MOL0     C60362   2.090   5.275   2.603 -0.6793 -0.4211  0.2889
  458MOL0     C60363   2.205   5.318   2.499 -0.8511  0.8532  0.2618
  458MOL0     C60364   2.347   5.272   2.551  0.3207  0.2414  0.2704
  458MOL0     C60365   2.455   5.268   2.445 -0.2372 -0.1620 -0.4151
  458MOL0     C60366   2.509   5.399   2.386  0.2182 -0.1993  0.2756
  458MOL0     C60367   2.597   5.380   2.264  0.3193  1.5406  0.2121
  458MOL0    Cl60368   2.726   5.255   2.281  0.4319  0.2479 -0.3930
  458MOL0     C60369   1.847   5.329   2.868  1.1777 -0.0576  0.2376
  458MOL0     C60370   1.822   5.382   2.997  0.5159 -0.5236 -0.0348
  458MOL0     O60371   1.884   5.233   3.302  0.5359  0.1806 -0.4893
  458MOL0     C60372   1.653   5.428   3.477 -1.2708 -1.2306  0.1303
  458MOL0     C60373   1.639   5.471   3.610  0.6239  0.2438  0.0737
  458MOL0     N60374   2.076   5.862   4.298  1.0287  0.5561 -0.1492
  458MOL0     N60375   2.181   5.843   4.379 -0.5041  0.0587 -0.2410
  458MOL0     C60376   2.841   6.689   4.269  0.2944  0.5512  1.2087
  458MOL0     C60377   2.885   6.824   4.266  0.1404 -0.1006 -0.5473
  458MOL0     C60378   3.029   7.224   4.234  0.7999  0.3785 -0.5042
  458MOL0     C60379   3.065   7.300   4.343 -0.6423 -0.1115  0.5350
  458MOL0     C60380   3.044   7.446   4.342  0.9653 -0.0877 -1.0819
  458MOL0     C60381   2.993   7.511   4.221  0.2211  0.0491  0.2797
  458MOL0     O60382   2.988   7.643   4.186 -0.5335 -0.3884  0.3534
  458MOL0     C60383   3.046   7.748   4.263 -0.3522 -0.7371  0.4004
  458MOL0     C60384   3.069   7.875   4.185  0.0194 -0.5096  1.2935
  458MOL0     C60385   3.112   7.990   4.286 -0.4123 -0.3149 -0.4868
  458MOL0     C60386   3.102   8.112   4.204 -0.3102 -0.8294 -0.0384
  458MOL0     C60387   3.181   8.228   4.252 -0.9946 -0.7595 -0.4715
  458MOL0     C60388   3.233   8.327   4.293  0.4869 -1.2847  0.1860
  458MOL0     C60389   2.968   7.428   4.110 -0.5990 -0.0522  0.4564
  458MOL0     C60390   2.971   7.288   4.126  0.0959 -0.3908  0.3109
  458MOL0     H60391   3.022   6.842   3.960  1.2535  1.4122  1.5242
  458MOL0     H60392   2.918   6.623   3.937 -0.0460  0.0774  0.3735
  458MOL0     H60393   2.981   6.369   4.153 -0.4064 -1.7051 -0.5710
  458MOL0     H60394   2.903   6.408   4.006  1.6441  2.2736  1.0041
  458MOL0     H60395   2.851   6.198   4.037  1.8327  2.6145 -0.1150
  458MOL0     H60396   2.696   6.281   4.064  0.8642  2.4986 -0.6027
  458MOL0     H60397   2.755   6.244   4.321  1.5448 -0.2983  1.5497
  458MOL0     H60398   2.903   6.157   4.258  0.4417  1.1278 -1.6529
  458MOL0     H60399   2.598   6.111   4.249  0.0965 -0.9483 -2.0813
  458MOL0     H60400   2.699   6.002   4.154 -2.4502 -2.7339  1.7554
  458MOL0     H60401   2.660   6.013   4.458 -4.0344 -0.3328 -1.9934
  458MOL0     H60402   2.806   5.932   4.387 -0.1975 -4.1537  0.7197
  458MOL0     H60403   2.673   5.765   4.429  1.1704  0.0353  0.2025
  458MOL0     H60404   2.659   5.792   4.248 -1.5007 -0.0422  0.6613
  458MOL0     H60405   2.435   5.900   4.427 -0.6833 -1.9641  1.0262
  458MOL0     H60406   2.446   5.894   4.253  2.0529  1.9266  1.1185
  458MOL0     H60407   2.416   5.664   4.457  1.3319 -1.3497  0.4574
  458MOL0     H60408   2.433   5.635   4.283 -3.0089 -0.6515 -1.2479
  458MOL0     H60409   2.243   5.621   4.157  1.2702  1.4089 -1.3173
  458MOL0     H60410   2.059   5.787   4.011 -0.2162  0.0725 -0.6263
  458MOL0     H60411   1.912   5.819   4.076 -0.1046  0.5103 -0.4902
  458MOL0     H60412   1.890   5.585   4.163  2.6033  0.3186  2.0998
  458MOL0     H60413   2.023   5.540   4.046  1.2629  0.5930 -0.7449
  458MOL0     H60414   1.773   5.691   3.950  2.2285  1.6436 -2.8955
  458MOL0     H60415   1.892   5.630   3.850 -3.3864 -1.2981 -2.3088
  458MOL0     H60416   1.729   5.452   4.047  0.8590  0.6474  0.6578
  458MOL0     H60417   1.852   5.402   3.941 -0.7785 -1.8227  0.6921
  458MOL0     H60418   1.851   5.285   3.778 -0.5737 -0.6696  0.4539
  458MOL0     H60419   1.890   5.193   3.547 -0.6555 -0.6384 -1.8209
  458MOL0     H60420   1.642   5.122   3.111 -3.1063  1.7660 -1.2485
  458MOL0     H60421   1.704   5.031   2.903  0.8907 -0.3455  0.2243
  458MOL0     H60422   1.941   4.970   2.697  0.5353 -0.0830  0.1437
  458MOL0     H60423   2.025   5.095   2.800 -0.9267  0.1300  0.0728
  458MOL0     H60424   2.023   5.118   2.494 -0.5038  0.6281  0.6622
  458MOL0     H60425   2.157   5.061   2.589  1.1439  0.3258  1.6826
  458MOL0     H60426   2.114   5.296   2.708 -1.1471  3.2421 -0.1854
  458MOL0     H60427   1.997   5.329   2.583 -0.6432  2.0230  5.1282
  458MOL0     H60428   2.189   5.273   2.400 -1.5503  1.4209  0.1144
  458MOL0     H60429   2.209   5.425   2.478  0.6058  0.6438 -0.6953
  458MOL0     H60430   2.341   5.177   2.603 -1.4476  0.6896  0.9647
  458MOL0     H60431   2.380   5.346   2.625  1.8251  1.0848 -1.1657
  458MOL0     H60432   2.424   5.203   2.363 -2.0945  0.2260 -0.0690
  458MOL0     H60433   2.541   5.215   2.485 -0.7850  0.7018  2.1118
  458MOL0     H60434   2.428   5.460   2.343 -1.3810 -1.6898  1.0696
  458MOL0     H60435   2.575   5.454   2.453  2.1535  0.7232 -2.2273
  458MOL0     H60436   2.635   5.477   2.232 -0.6785  2.1435  0.8074
  458MOL0     H60437   2.537   5.348   2.178 -0.3034  0.5401  0.9927
  458MOL0     H60438   1.906   5.396   2.806  1.2862 -0.0223  0.3791
  458MOL0     H60439   1.861   5.474   3.041 -0.1999 -1.6622  3.2987
  458MOL0     H60440   1.609   5.469   3.387 -3.8310 -0.9091  1.4184
  458MOL0     H60441   1.555   5.538   3.626 -1.7149 -1.9377 -2.0867
  458MOL0     H60442   2.790   6.647   4.356 -2.1872  3.2017  1.1612
  458MOL0     H60443   2.868   6.883   4.355  1.3780 -1.9678  1.0230
  458MOL0     H60444   3.093   7.260   4.440  1.4794 -0.5599 -0.2145
  458MOL0     H60445   3.067   7.489   4.438  1.9660 -2.3777 -0.2308
  458MOL0     H60446   3.143   7.714   4.302 -1.4218 -2.4451  1.7218
  458MOL0     H60447   2.966   7.772   4.334  0.1630  1.4979  0.3092
  458MOL0     H60448   3.144   7.857   4.108 -0.9214 -1.5531  0.5796
  458MOL0     H60449   2.974   7.906   4.138  1.3412  1.1605 -0.4298
  458MOL0     H60450   3.218   7.975   4.309 -0.2492 -1.7740 -2.0075
  458MOL0     H60451   3.066   7.985   4.384  2.3451  0.3668  0.9579
  458MOL0     H60452   3.143   8.088   4.106  2.9581 -0.4990  1.1037
  458MOL0     H60453   2.996   8.137   4.200  0.0701  0.7567 -1.2545
  458MOL0     H60454   3.284   8.420   4.308 -1.3245  0.3166 -2.5652
  458MOL0     H60455   2.926   7.465   4.017  0.0005 -1.7715 -0.5343
  458MOL0     H60456   2.943   7.224   4.043  2.5288 -1.3297  0.1496
  459MOL0     O60457   3.230  10.869   7.224  0.4405 -0.6160  1.4079
  459MOL0     C60458   3.287  10.955   7.287  0.9113 -0.4406 -0.2582
  459MOL0     O60459   3.359  11.069   7.237  0.2532  0.1706 -0.2213
  459MOL0     C60460   3.376  11.054   7.105  0.6509  0.2820  0.2004
  459MOL0     C60461   3.271  11.105   7.034 -0.2718 -0.3930  0.6727
  459MOL0     C60462   3.276  11.115   6.894 -0.6087 -0.8799 -0.0996
  459MOL0     C60463   3.391  11.088   6.821 -0.4322 -0.1465  0.6810
  459MOL0     O60464   3.396  11.099   6.684  0.2371  0.6855  0.2942
  459MOL0     C60465   3.272  11.111   6.610  1.2360  0.6367  0.2563
  459MOL0     C60466   3.177  10.988   6.608  0.4843  0.1668  0.1928
  459MOL0     C60467   3.226  10.853   6.562 -0.0644  0.5254  0.0929
  459MOL0     C60468   3.332  10.791   6.654  0.1735  0.3178 -0.1799
  459MOL0     C60469   3.374  10.646   6.613 -0.2860 -0.4958  0.0120
  459MOL0     C60470   3.453  10.634   6.487 -0.5419 -0.5037  0.0870
  459MOL0     C60471   3.512  10.492   6.442 -0.0836  0.5011 -0.1134
  459MOL0     C60472   3.642  10.493   6.363  0.2586 -0.0730 -0.5198
  459MOL0     N60473   3.761  10.527   6.446  0.0128  0.3113  1.0107
  459MOL0     C60474   3.789  10.501   6.572  0.0960  0.4403  0.0746
  459MOL0     C60475   3.917  10.534   6.592  0.4273 -0.0615 -0.3562
  459MOL0     C60476   3.997  10.517   6.722  0.3298  0.5337  0.3262
  459MOL0     C60477   4.124  10.420   6.704 -0.1822 -0.6775  0.2672
  459MOL0     C60478   4.099  10.279   6.656 -0.0648 -0.3954 -0.3152
  459MOL0     C60479   4.228  10.202   6.640  0.5150 -0.1164  0.6360
  459MOL0     O60480   4.189  10.091   6.565  0.3780 -0.6357 -0.3923
  459MOL0     C60481   4.228   9.964   6.603  0.1747 -0.2947 -0.0201
  459MOL0     C60482   4.132   9.868   6.592  0.1927 -1.0483 -0.2750
  459MOL0     C60483   4.173   9.736   6.569 -0.0761 -0.1738 -0.8460
  459MOL0     C60484   4.305   9.694   6.594 -0.0231 -0.4910 -0.4188
  459MOL0     C60485   4.336   9.550   6.586  0.4071 -0.9132  0.3966
  459MOL0     O60486   4.460   9.509   6.620 -0.3455 -0.0830 -0.3289
  459MOL0     C60487   4.480   9.380   6.653  0.0376  0.5516 -0.0970
  459MOL0     C60488   4.413   9.323   6.764 -0.4509  0.6578  0.1048
  459MOL0     C60489   4.436   9.195   6.796  0.5445  1.2242 -1.0934
  459MOL0     C60490   4.544   9.124   6.734  0.8834  1.0275  0.2436
  459MOL0     O60491   4.579   8.989   6.770 -0.0211 -1.2635  0.5221
  459MOL0     C60492   4.599   8.902   6.658  0.1051  0.6764  0.3047
  459MOL0     C60493   4.576   8.757   6.710 -0.7936 -0.1385  0.1559
  459MOL0     C60494   4.617   8.657   6.602 -0.4687  0.5636 -0.0280
  459MOL0     C60495   4.521   8.666   6.484  0.1482  0.2474  0.0808
  459MOL0     C60496   4.531   8.539   6.392  0.2222  0.0165  0.7159
  459MOL0     C60497   4.517   8.413   6.475 -0.4670  0.7428  0.4209
  459MOL0     C60498   4.499   8.285   6.389  0.3320 -0.4372  0.6336
  459MOL0     C60499   4.439   8.171   6.475 -0.3290  0.4986 -0.2448
  459MOL0    Cl60500   4.261   8.187   6.494 -0.0064  0.1884 -0.4265
  459MOL0     C60501   4.623   9.189   6.637  0.3026 -1.0942  0.0382
  459MOL0     C60502   4.581   9.310   6.585  1.0327 -1.7886  0.7857
  459MOL0     O60503   4.259   9.473   6.533 -0.3490  0.4697  0.5050
  459MOL0     C60504   4.401   9.796   6.609 -0.1270 -0.0383  0.7781
  459MOL0     C60505   4.358   9.932   6.611 -0.2965  0.3524 -0.9532
  459MOL0     N60506   3.972  10.571   6.475  0.4022 -0.0988  1.6321
  459MOL0     N60507   3.880  10.562   6.384  0.0229  0.3015  0.1439
  459MOL0     C60508   3.499  11.042   6.890  0.0120  0.2882 -0.5460
  459MOL0     C60509   3.487  11.012   7.031 -0.9448 -0.0017 -0.5696
  459MOL0     C60510   3.254  10.960   7.434  0.2235  0.4609 -0.0043
  459MOL0     C60511   3.190  10.855   7.499  0.3848  0.0792  0.7426
  459MOL0     C60512   3.167  10.856   7.637 -0.7591  0.0413 -0.1540
  459MOL0     C60513   3.184  10.980   7.707 -1.4531  0.9435 -0.3263
  459MOL0     O60514   3.151  10.999   7.841 -1.0763 -0.1622 -0.2591
  459MOL0     C60515   3.090  10.888   7.914  0.0704  0.0550  0.8684
  459MOL0     C60516   3.061  10.921   8.060 -0.2354 -0.5957 -0.3844
  459MOL0     C60517   2.964  10.824   8.118  1.0233  0.2095  0.2812
  459MOL0     C60518   2.944  10.838   8.274  0.0704 -0.2177  0.1557
  459MOL0     C60519   3.046  10.755   8.339 -0.1025  0.3326  0.0610
  459MOL0     C60520   3.110  10.688   8.408 -0.4302 -0.1726  0.7325
  459MOL0     C60521   3.243  11.083   7.637 -0.1872  0.3106  0.6522
  459MOL0     C60522   3.286  11.081   7.505  0.0389 -0.6684  0.5324
  459MOL0     H60523   3.186  11.152   7.082 -1.0817  2.7176 -3.2561
  459MOL0     H60524   3.186  11.165   6.858 -1.2059  3.1172  5.6268
  459MOL0     H60525   3.296  11.121   6.504 -1.0761 -2.6325 -0.7218
  459MOL0     H60526   3.217  11.201   6.639 -1.1681 -0.4663 -0.6761
  459MOL0     H60527   3.096  11.009   6.537  2.3895 -0.9592 -2.4602
  459MOL0     H60528   3.141  10.957   6.707 -0.5687  0.8772  0.0462
  459MOL0     H60529   3.263  10.854   6.459  2.1088  0.8530  0.8167
  459MOL0     H60530   3.142  10.786   6.578 -0.7823  1.8883  2.4424
  459MOL0     H60531   3.420  10.857   6.656  1.5104 -1.4293  0.8677
  459MOL0     H60532   3.290  10.789   6.754  0.1097  1.4282 -0.1688
  459MOL0     H60533   3.285  10.583   6.601  0.5515 -1.7938  0.3308
  459MOL0     H60534   3.432  10.602   6.695  0.2812 -0.7081 -0.4942
  459MOL0     H60535   3.539  10.701   6.492 -3.4130  3.4475  0.8903
  459MOL0     H60536   3.404  10.672   6.397 -0.8233 -1.7927 -0.3355
  459MOL0     H60537   3.513  10.423   6.527  1.1288  2.0176  1.1693
  459MOL0     H60538   3.434  10.456   6.374  0.5153 -0.4039 -0.3373
  459MOL0     H60539   3.641  10.564   6.281 -3.8294  1.2950  0.4917
  459MOL0     H60540   3.660  10.392   6.324  1.7973  1.4189 -4.0445
  459MOL0     H60541   3.728  10.457   6.650  3.5840 -1.8044  1.7887
  459MOL0     H60542   3.935  10.479   6.805  3.7723 -2.5296  1.7804
  459MOL0     H60543   4.025  10.612   6.767 -1.9637 -0.3140  3.9478
  459MOL0     H60544   4.175  10.412   6.801 -0.2365 -1.9604  0.2028
  459MOL0     H60545   4.188  10.468   6.629 -0.0380 -2.7463 -1.0285
  459MOL0     H60546   4.031  10.242   6.734 -0.3899  1.2045  0.1949
  459MOL0     H60547   4.044  10.297   6.564 -0.4950 -0.6803 -0.1195
  459MOL0     H60548   4.276  10.176   6.735 -0.9788  2.3870  2.2130
  459MOL0     H60549   4.296  10.270   6.589  0.2198  1.0860  1.7848
  459MOL0     H60550   4.029   9.903   6.584 -0.8656 -3.9368 -0.2554
  459MOL0     H60551   4.094   9.665   6.545  0.9385 -1.3443 -0.7805
  459MOL0     H60552   4.335   9.370   6.823 -1.2751 -2.8594  2.0551
  459MOL0     H60553   4.382   9.142   6.874  2.0199 -0.0169 -0.8759
  459MOL0     H60554   4.696   8.904   6.607  1.2318 -0.2588  2.2852
  459MOL0     H60555   4.509   8.911   6.596 -0.6065  0.4306  1.2744
  459MOL0     H60556   4.470   8.760   6.734 -0.5137  0.9437  1.3717
  459MOL0     H60557   4.635   8.738   6.800 -2.2271 -1.0014  0.9366
  459MOL0     H60558   4.619   8.564   6.659  3.7635  1.2973  1.3740
  459MOL0     H60559   4.711   8.682   6.553 -1.7621  0.6179 -2.6769
  459MOL0     H60560   4.419   8.689   6.515  0.0463  1.6687 -1.1766
  459MOL0     H60561   4.539   8.758   6.427 -0.2815 -0.4685 -1.2551
  459MOL0     H60562   4.615   8.537   6.322  0.3193  0.9204  0.7977
  459MOL0     H60563   4.438   8.544   6.334 -1.0088  0.2685  2.6202
  459MOL0     H60564   4.426   8.428   6.533  0.4854  0.1678  2.1176
  459MOL0     H60565   4.606   8.394   6.536  0.9252  1.3131 -1.3327
  459MOL0     H60566   4.432   8.298   6.304  2.5013 -0.5421 -1.1745
  459MOL0     H60567   4.592   8.253   6.342 -1.4538 -2.5593 -1.7847
  459MOL0     H60568   4.498   8.166   6.567 -1.6233  0.2825  0.5908
  459MOL0     H60569   4.453   8.080   6.417  3.4345  1.4053 -1.0741
  459MOL0     H60570   4.705   9.136   6.590  2.1844  0.9746  0.8330
  459MOL0     H60571   4.631   9.355   6.500 -2.4207 -1.4367 -1.2194
  459MOL0     H60572   4.507   9.774   6.601 -0.4999 -2.3646  1.6218
  459MOL0     H60573   4.439  10.004   6.611  1.3006 -1.2869  1.3251
  459MOL0     H60574   3.592  11.024   6.837  0.6335  0.3371  0.5160
  459MOL0     H60575   3.573  10.964   7.076 -0.4408  1.6791  0.3529
  459MOL0     H60576   3.166  10.774   7.431 -0.5252  0.7237  0.2729
  459MOL0     H60577   3.123  10.768   7.682 -0.1111 -0.5460 -0.6462
  459MOL0     H60578   3.145  10.794   7.908  0.7064  0.5058 -3.3037
  459MOL0     H60579   2.993  10.860   7.871  0.2563 -1.9101  1.6371
  459MOL0     H60580   3.151  10.904   8.119 -1.1958 -0.2314  1.2498
  459MOL0     H60581   3.020  11.021   8.072 -1.3569 -0.8697 -1.6676
  459MOL0     H60582   2.978  10.716   8.103  0.3465 -0.4804  3.7422
  459MOL0     H60583   2.868  10.854   8.074  1.5162 -2.1814 -2.7805
  459MOL0     H60584   2.952  10.945   8.294 -0.6606 -0.3941  1.5164
  459MOL0     H60585   2.843  10.808   8.306 -0.6802  2.2221  0.3188
  459MOL0     H60586   3.165  10.619   8.469  2.9112  1.0336 -0.6715
  459MOL0     H60587   3.253  11.176   7.692  1.3117 -0.4083  1.6653
  459MOL0     H60588   3.308  11.179   7.464  0.1850 -2.1788 -3.4789
  460MOL0     O60589   2.822   3.871   5.718  0.1644 -0.1646 -0.1813
  460MOL0     C60590   2.920   3.946   5.739 -0.6544 -0.4191 -0.8008
  460MOL0     O60591   2.961   3.989   5.862  0.8546 -0.5134  0.1771
  460MOL0     C60592   2.885   3.956   5.972 -0.2977 -0.8162 -0.9586
  460MOL0     C60593   2.943   3.851   6.038  0.5050  0.2220 -0.4484
  460MOL0     C60594   2.878   3.799   6.155 -0.8633 -0.2657 -0.0373
  460MOL0     C60595   2.753   3.854   6.207 -0.8291  0.5395 -0.0680
  460MOL0     O60596   2.718   3.814   6.336 -0.5025  0.4601  0.2262
  460MOL0     C60597   2.598   3.860   6.399 -0.4815 -0.0240  0.3664
  460MOL0     C60598   2.484   3.763   6.365 -0.0023  0.7423  0.0403
  460MOL0     C60599   2.397   3.722   6.484  0.2916  0.3044 -0.5441
  460MOL0     C60600   2.313   3.598   6.447  0.3294  0.2269  0.2002
  460MOL0     C60601   2.187   3.588   6.540 -0.6804 -0.2582  0.4946
  460MOL0     C60602   2.122   3.455   6.556 -0.1132 -0.0050  0.0770
  460MOL0     C60603   2.004   3.462   6.645  0.2949 -0.0694 -0.3795
  460MOL0     C60604   2.014   3.373   6.766  0.1440 -0.1595 -0.3731
  460MOL0     N60605   1.900   3.386   6.857  0.4639  0.8808  1.1693
  460MOL0     C60606   1.873   3.476   6.960 -0.9560  0.5791 -0.4349
  460MOL0     C60607   1.754   3.443   7.001  0.7064 -0.3786  0.3734
  460MOL0     C60608   1.681   3.518   7.108  0.0882  0.9408 -0.5803
  460MOL0     C60609   1.689   3.457   7.253  0.4227  0.3770  0.2285
  460MOL0     C60610   1.671   3.304   7.273 -0.0095 -0.8190 -0.3569
  460MOL0     C60611   1.667   3.266   7.426 -0.1873  0.2376 -0.3789
  460MOL0     O60612   1.792   3.284   7.494 -0.3469 -0.1525  0.0916
  460MOL0     C60613   1.797   3.338   7.626 -0.2851  0.1585  0.8003
  460MOL0     C60614   1.682   3.342   7.704 -0.2090 -0.0854  1.0419
  460MOL0     C60615   1.673   3.417   7.819  0.4123  0.0738 -0.0507
  460MOL0     C60616   1.793   3.478   7.863 -0.0484  0.1765 -0.9977
  460MOL0     C60617   1.782   3.578   7.973 -0.1427 -0.4284 -0.6686
  460MOL0     O60618   1.687   3.568   8.062 -0.2436  0.3890  0.1528
  460MOL0     C60619   1.659   3.663   8.166  0.0783 -0.5934  0.2855
  460MOL0     C60620   1.688   3.799   8.155  0.1722 -0.6328  0.4828
  460MOL0     C60621   1.665   3.886   8.268 -0.0731  0.6985 -0.2721
  460MOL0     C60622   1.601   3.835   8.385  0.2353  1.2304  0.1045
  460MOL0     O60623   1.552   3.916   8.487  0.8448  0.3182 -0.2047
  460MOL0     C60624   1.402   3.928   8.470 -0.2252 -0.0394 -0.0893
  460MOL0     C60625   1.327   3.908   8.601 -1.0498  0.1512  0.9644
  460MOL0     C60626   1.202   4.001   8.607 -0.2738  0.3598 -0.4513
  460MOL0     C60627   1.108   3.959   8.721  0.8261 -0.5947 -0.3158
  460MOL0     C60628   0.988   3.891   8.666  0.4313 -0.3147 -0.4347
  460MOL0     C60629   0.904   3.830   8.781 -0.1571  0.0713 -0.1297
  460MOL0     C60630   0.777   3.773   8.728  0.6731 -0.6017  0.5310
  460MOL0     C60631   0.693   3.705   8.832 -1.0419 -0.6143  0.7620
  460MOL0    Cl60632   0.780   3.571   8.886  0.4782  0.4748 -0.1342
  460MOL0     C60633   1.581   3.700   8.392  0.2454  0.0583 -0.5570
  460MOL0     C60634   1.606   3.615   8.285  0.7080 -0.0692 -0.1687
  460MOL0     O60635   1.875   3.662   7.979  0.0784 -0.4371  0.0046
  460MOL0     C60636   1.915   3.455   7.796 -0.0401  0.6272 -0.1081
  460MOL0     C60637   1.920   3.379   7.680 -1.0714  0.0129  0.7788
  460MOL0     N60638   1.696   3.348   6.921 -0.4398 -0.2172 -0.5000
  460MOL0     N60639   1.788   3.312   6.835 -0.5789 -0.4933  0.0051
  460MOL0     C60640   2.699   3.962   6.137 -0.1477 -0.3872 -0.5770
  460MOL0     C60641   2.763   4.012   6.022  0.1956  0.9447  0.1223
  460MOL0     C60642   3.005   3.974   5.627 -0.8678  0.2610 -0.4133
  460MOL0     C60643   3.118   4.054   5.640  0.3958 -0.3786  0.4653
  460MOL0     C60644   3.200   4.096   5.532  0.9423  0.2281 -0.7798
  460MOL0     C60645   3.181   4.047   5.406 -0.4681  0.3688 -0.0675
  460MOL0     O60646   3.256   4.085   5.302  0.1709 -0.2030  0.0789
  460MOL0     C60647   3.198   4.069   5.174 -0.2197 -1.2323 -0.2506
  460MOL0     C60648   3.298   4.110   5.075  0.6071 -0.7727 -0.2876
  460MOL0     C60649   3.226   4.140   4.938  0.2756 -0.9485 -0.7290
  460MOL0     C60650   3.199   4.003   4.862 -0.0059 -0.2452  0.4421
  460MOL0     C60651   3.078   3.931   4.919 -0.9979  0.2485  0.3517
  460MOL0     C60652   2.988   3.865   4.960 -0.4981 -0.9931  0.7484
  460MOL0     C60653   3.078   3.954   5.389 -0.2300 -0.4064  0.4299
  460MOL0     C60654   2.994   3.916   5.497 -0.3650 -0.2439  0.0318
  460MOL0     H60655   3.039   3.806   6.014  1.8609  1.8970  1.5258
  460MOL0     H60656   2.929   3.729   6.220 -1.9146  2.2766  3.9111
  460MOL0     H60657   2.581   3.968   6.385 -2.3414 -0.5181 -1.7277
  460MOL0     H60658   2.625   3.844   6.504 -2.6715 -1.9035  0.7444
  460MOL0     H60659   2.537   3.678   6.319 -0.2194  0.7509 -0.2324
  460MOL0     H60660   2.420   3.811   6.290 -0.0851  0.1902 -0.2525
  460MOL0     H60661   2.337   3.808   6.516 -1.8942 -0.1682 -3.0298
  460MOL0     H60662   2.461   3.693   6.567 -0.2490 -1.8674 -0.8177
  460MOL0     H60663   2.280   3.595   6.342  0.0546 -2.2485  0.2979
  460MOL0     H60664   2.375   3.511   6.468 -1.0280  0.0657  4.3747
  460MOL0     H60665   2.115   3.664   6.507  2.2113  1.8697 -1.3145
  460MOL0     H60666   2.227   3.617   6.638 -0.7325  0.3933  0.3254
  460MOL0     H60667   2.191   3.371   6.570  1.2877  0.9488 -0.8887
  460MOL0     H60668   2.091   3.440   6.453 -1.4298  0.2409  0.4184
  460MOL0     H60669   1.976   3.565   6.671 -0.2956 -0.0003 -1.2564
  460MOL0     H60670   1.923   3.412   6.592 -0.5596 -0.0086  0.8123
  460MOL0     H60671   2.099   3.411   6.824 -1.4311 -1.2070  2.9109
  460MOL0     H60672   2.025   3.266   6.744  0.8237  0.1885 -1.8081
  460MOL0     H60673   1.937   3.555   6.997  0.5885 -0.7396 -0.2057
  460MOL0     H60674   1.577   3.533   7.078 -1.2453 -0.5866  2.7662
  460MOL0     H60675   1.716   3.621   7.105 -0.7708  1.2156 -2.5307
  460MOL0     H60676   1.621   3.507   7.322  1.6850  0.8866  1.1622
  460MOL0     H60677   1.784   3.485   7.300  0.1161  2.6661 -0.4049
  460MOL0     H60678   1.575   3.273   7.232  0.2373 -3.6807  0.9994
  460MOL0     H60679   1.755   3.250   7.228  1.6247  1.3619 -0.1355
  460MOL0     H60680   1.639   3.161   7.434  0.0741  0.2890  1.8786
  460MOL0     H60681   1.588   3.315   7.485 -1.3051 -3.0384  1.0721
  460MOL0     H60682   1.586   3.299   7.678 -0.4350  0.7469  0.4849
  460MOL0     H60683   1.580   3.437   7.870 -0.3697  1.0949 -1.7994
  460MOL0     H60684   1.737   3.833   8.065  3.0085 -4.9241  0.1392
  460MOL0     H60685   1.679   3.993   8.276  3.4465  0.4034 -1.1518
  460MOL0     H60686   1.357   3.853   8.405  0.3615 -0.6174  0.1630
  460MOL0     H60687   1.375   4.028   8.434  0.6865  0.2910  0.1109
  460MOL0     H60688   1.400   3.929   8.680  1.6882 -1.5431 -0.9093
  460MOL0     H60689   1.288   3.808   8.620 -1.4030  0.6101  2.8980
  460MOL0     H60690   1.165   3.997   8.505  3.9719 -1.3263 -2.1449
  460MOL0     H60691   1.237   4.104   8.612 -1.2404  0.6856 -0.0067
  460MOL0     H60692   1.171   3.910   8.796  1.9791  3.3297  1.5395
  460MOL0     H60693   1.078   4.056   8.762 -1.8772 -1.8249  0.8306
  460MOL0     H60694   1.020   3.813   8.596 -1.0526 -0.2271 -1.2361
  460MOL0     H60695   0.940   3.970   8.607  0.9077  0.8936  0.7191
  460MOL0     H60696   0.887   3.907   8.857  2.3597 -0.4910  1.0977
  460MOL0     H60697   0.967   3.756   8.831 -1.3321 -3.5696 -3.4849
  460MOL0     H60698   0.721   3.838   8.660  4.4954  0.9421 -1.4450
  460MOL0     H60699   0.820   3.694   8.665  0.2489  0.1255 -0.6983
  460MOL0     H60700   0.604   3.664   8.783 -0.5018 -2.1618  1.0157
  460MOL0     H60701   0.662   3.772   8.913 -4.3665 -2.1106  0.9141
  460MOL0     H60702   1.532   3.661   8.481 -1.3055 -0.0224 -1.4093
  460MOL0     H60703   1.579   3.511   8.303 -1.3796  0.0532 -2.2064
  460MOL0     H60704   2.008   3.490   7.840  1.4051 -1.7069 -1.1093
  460MOL0     H60705   2.017   3.376   7.630 -1.6459  1.1218 -0.4679
  460MOL0     H60706   2.610   4.017   6.164  1.5018  1.5831  1.1446
  460MOL0     H60707   2.713   4.083   5.956  1.7416 -0.9667 -3.4002
  460MOL0     H60708   3.150   4.111   5.727 -0.1619  1.6251 -0.5669
  460MOL0     H60709   3.291   4.155   5.542  0.6538  0.9144 -1.9973
  460MOL0     H60710   3.099   4.115   5.164 -1.5511 -3.9001 -0.0884
  460MOL0     H60711   3.198   3.961   5.160  1.0241 -1.0370 -2.3643
  460MOL0     H60712   3.348   4.203   5.103 -0.9429  0.7567 -2.2838
  460MOL0     H60713   3.379   4.038   5.062 -1.5931 -3.4543 -0.2314
  460MOL0     H60714   3.291   4.211   4.886 -1.5323  0.8015 -0.7601
  460MOL0     H60715   3.140   4.204   4.961  1.5310  0.9092 -1.0134
  460MOL0     H60716   3.183   4.032   4.758  1.2066 -1.3393 -0.0769
  460MOL0     H60717   3.285   3.936   4.863  1.1002  0.9738 -2.3492
  460MOL0     H60718   2.911   3.807   5.009 -0.7759 -1.4424 -0.1984
  460MOL0     H60719   3.052   3.915   5.291 -1.8944 -2.6336  1.6711
  460MOL0     H60720   2.909   3.851   5.480  0.6431 -1.4876 -0.4496
  461MOL0     O60721   3.653   5.569   3.894  0.1454  0.1063  0.4108
  461MOL0     C60722   3.739   5.490   3.937 -0.9161 -1.0349 -0.7243
  461MOL0     O60723   3.869   5.530   3.979  0.6675  0.1376 -0.0947
  461MOL0     C60724   3.908   5.663   3.967 -1.0988 -0.4398  0.3501
  461MOL0     C60725   3.972   5.716   3.850 -0.0434 -0.3344 -0.0232
  461MOL0     C60726   4.042   5.831   3.854 -0.6973  0.6922 -0.2752
  461MOL0     C60727   4.067   5.903   3.974 -0.6956  0.9903 -0.3116
  461MOL0     O60728   4.165   5.999   3.968  0.2974 -0.0817  0.5202
  461MOL0     C60729   4.183   6.110   4.055  0.1784  0.7439  1.0500
  461MOL0     C60730   4.321   6.111   4.115  0.3468  0.1708 -0.0882
  461MOL0     C60731   4.338   5.993   4.203 -0.2545  0.0097 -0.6502
  461MOL0     C60732   4.464   6.011   4.291 -1.0067 -0.3513  0.2924
  461MOL0     C60733   4.481   5.895   4.381 -0.2385 -0.1882 -1.0882
  461MOL0     C60734   4.588   5.794   4.342 -0.1966 -0.3274 -0.3092
  461MOL0     C60735   4.572   5.669   4.425 -0.1529 -0.3154 -0.2813
  461MOL0     C60736   4.569   5.683   4.585  0.3635  0.7256 -0.1992
  461MOL0     N60737   4.604   5.561   4.655 -0.0983  0.3642 -0.4214
  461MOL0     C60738   4.526   5.445   4.648  0.7156 -0.9634 -0.4143
  461MOL0     C60739   4.589   5.354   4.733 -0.3260 -0.2988 -0.3438
  461MOL0     C60740   4.557   5.215   4.784  0.2562  0.6469  0.9547
  461MOL0     C60741   4.480   5.128   4.684 -0.6780 -0.1170  0.2601
  461MOL0     C60742   4.535   5.105   4.539 -0.5702 -0.6737  0.2519
  461MOL0     C60743   4.503   4.974   4.475 -0.0237  0.1005  0.3188
  461MOL0     O60744   4.626   4.938   4.409  1.4119 -0.1399 -0.6508
  461MOL0     C60745   4.673   4.993   4.299 -1.0536 -0.2609  0.6197
  461MOL0     C60746   4.796   4.935   4.252  0.5483  0.1848  0.3689
  461MOL0     C60747   4.854   4.977   4.133 -0.5275  0.1737 -0.2176
  461MOL0     C60748   4.796   5.084   4.054  0.3320  0.5107  0.4836
  461MOL0     C60749   4.853   5.145   3.939 -0.2850 -0.4969  0.0144
  461MOL0     O60750   4.942   5.073   3.856 -0.3538  0.0669 -0.0174
  461MOL0     C60751   5.003   5.160   3.770  0.5747  0.9140  0.0241
  461MOL0     C60752   5.108   5.245   3.804 -0.2575  0.1877 -0.1895
  461MOL0     C60753   5.159   5.339   3.711  0.0706  0.2966 -0.3314
  461MOL0     C60754   5.098   5.350   3.582  0.2868  0.5518  0.4464
  461MOL0     O60755   5.127   5.427   3.473  0.4331 -0.6349  0.0411
  461MOL0     C60756   5.236   5.501   3.489 -1.1933 -0.4317  0.4784
  461MOL0     C60757   5.241   5.596   3.371  0.0903 -0.9086  0.8249
  461MOL0     C60758   5.364   5.695   3.372  0.7962  0.2177 -0.4155
  461MOL0     C60759   5.331   5.821   3.300 -0.7122 -0.4755  0.4602
  461MOL0     C60760   5.299   5.805   3.158 -0.3682 -0.2826  0.3140
  461MOL0     C60761   5.273   5.932   3.078  0.8993 -0.4890  0.4549
  461MOL0     C60762   5.157   6.013   3.120 -0.3213  0.9817  0.0985
  461MOL0     C60763   5.126   6.133   3.027  0.4429 -0.1334  0.5685
  461MOL0    Cl60764   5.033   6.072   2.877 -0.1724  0.1317  0.0173
  461MOL0     C60765   5.003   5.261   3.549 -0.1852 -0.6956  0.4938
  461MOL0     C60766   4.955   5.165   3.641 -0.0134  0.1592  0.4037
  461MOL0     O60767   4.814   5.260   3.914 -0.5180  0.3726  0.9448
  461MOL0     C60768   4.670   5.137   4.107 -0.1775 -0.4418 -0.3234
  461MOL0     C60769   4.614   5.096   4.226  0.0181  0.2620 -0.4031
  461MOL0     N60770   4.710   5.417   4.771 -1.1133  0.5496 -0.6542
  461MOL0     N60771   4.718   5.535   4.725 -0.8207 -0.0540  0.0879
  461MOL0     C60772   3.988   5.869   4.087  0.0764 -0.2275  0.2303
  461MOL0     C60773   3.919   5.743   4.082  0.4114 -0.9419 -0.6136
  461MOL0     C60774   3.691   5.352   3.944  0.4257  0.4025 -0.0034
  461MOL0     C60775   3.765   5.261   4.018  0.3360 -1.3984  0.0250
  461MOL0     C60776   3.716   5.141   4.022  0.5617  0.5739 -0.0577
  461MOL0     C60777   3.614   5.092   3.949 -0.3858  0.3871  0.2157
  461MOL0     O60778   3.580   4.959   3.971 -0.6942 -0.6213 -0.1950
  461MOL0     C60779   3.518   4.886   3.858  0.3374  0.2125 -0.2943
  461MOL0     C60780   3.629   4.851   3.758 -0.4300  0.4905  0.2354
  461MOL0     C60781   3.584   4.797   3.629  0.5518  0.2534 -1.3591
  461MOL0     C60782   3.687   4.779   3.531 -1.2735  0.1135 -0.7904
  461MOL0     C60783   3.791   4.681   3.564  0.5702 -0.4529  0.6648
  461MOL0     C60784   3.865   4.592   3.583  0.0247 -0.0480  0.0109
  461MOL0     C60785   3.544   5.185   3.865 -0.4405 -1.0271 -1.2425
  461MOL0     C60786   3.590   5.316   3.853  0.1029  0.3688 -1.0727
  461MOL0     H60787   3.993   5.645   3.771  0.1947 -3.0682  2.3580
  461MOL0     H60788   4.107   5.849   3.769  2.2823 -0.7894  1.5171
  461MOL0     H60789   4.097   6.097   4.121 -0.9551 -3.4022 -0.9271
  461MOL0     H60790   4.173   6.204   3.998 -1.6584 -0.2343 -0.3263
  461MOL0     H60791   4.334   6.201   4.177  4.2798 -1.5424  1.8835
  461MOL0     H60792   4.395   6.113   4.035  0.4058  1.0311 -0.0289
  461MOL0     H60793   4.352   5.895   4.157 -1.6286 -1.2050  1.3349
  461MOL0     H60794   4.242   5.973   4.251 -0.7848 -1.1339 -2.1347
  461MOL0     H60795   4.555   6.023   4.231 -0.3297  0.3638  1.4207
  461MOL0     H60796   4.445   6.099   4.354 -1.8582  0.7746 -1.4856
  461MOL0     H60797   4.383   5.848   4.396 -0.6830  0.7652 -0.8814
  461MOL0     H60798   4.521   5.919   4.481  1.5701 -1.7640 -1.3793
  461MOL0     H60799   4.689   5.834   4.355 -0.4857  0.2422  0.1824
  461MOL0     H60800   4.574   5.778   4.235 -4.3750  0.9856 -0.1086
  461MOL0     H60801   4.485   5.613   4.390 -3.3539  2.4696  2.5427
  461MOL0     H60802   4.662   5.610   4.402  0.9759  0.5839  1.5953
  461MOL0     H60803   4.466   5.708   4.610  0.4193  1.4826 -0.6572
  461MOL0     H60804   4.644   5.757   4.616  2.0133 -0.6862 -0.6154
  461MOL0     H60805   4.432   5.430   4.597  0.6478 -2.1885  0.0360
  461MOL0     H60806   4.498   5.218   4.876 -1.3121 -4.3665  0.3813
  461MOL0     H60807   4.654   5.171   4.807  0.0508  1.6739  4.2692
  461MOL0     H60808   4.378   5.166   4.676 -2.6853 -4.0506  3.3009
  461MOL0     H60809   4.464   5.029   4.728  1.2175 -0.1880  0.8916
  461MOL0     H60810   4.497   5.182   4.471  1.9512  0.0792 -0.4310
  461MOL0     H60811   4.642   5.125   4.542 -0.7920  2.7087 -4.3011
  461MOL0     H60812   4.421   4.980   4.402  0.1792 -0.3452  0.0507
  461MOL0     H60813   4.480   4.900   4.551  0.1378  0.2285  0.4952
  461MOL0     H60814   4.837   4.856   4.314 -1.7601  0.4246  2.3534
  461MOL0     H60815   4.955   4.943   4.111  0.7435  3.6826 -0.4672
  461MOL0     H60816   5.158   5.237   3.900 -2.4728  0.5675  1.0764
  461MOL0     H60817   5.251   5.392   3.733  0.8287 -2.5948  5.2511
  461MOL0     H60818   5.311   5.423   3.473 -1.3243  0.2332 -6.1109
  461MOL0     H60819   5.252   5.557   3.582 -0.2576 -2.3689  1.5479
  461MOL0     H60820   5.147   5.652   3.368  0.7841  0.3804  2.1211
  461MOL0     H60821   5.247   5.540   3.277  1.5993  1.7000 -0.7452
  461MOL0     H60822   5.448   5.644   3.325 -1.1189 -1.8266 -1.8536
  461MOL0     H60823   5.386   5.720   3.476  2.5673 -0.9296 -0.4791
  461MOL0     H60824   5.235   5.864   3.329 -1.2073 -0.7115 -0.7881
  461MOL0     H60825   5.408   5.896   3.321 -0.3877 -0.0677 -1.9460
  461MOL0     H60826   5.219   5.729   3.157  0.8245 -2.2717  6.5679
  461MOL0     H60827   5.373   5.738   3.114  2.3311  2.4297  0.4417
  461MOL0     H60828   5.268   5.909   2.972  2.6088  0.0512  0.2216
  461MOL0     H60829   5.360   5.998   3.084 -1.1590  2.3893  0.3632
  461MOL0     H60830   5.070   5.948   3.108  0.7258  0.1390 -4.8788
  461MOL0     H60831   5.168   6.045   3.224 -3.1448  3.2281 -0.1686
  461MOL0     H60832   5.224   6.173   2.997  2.7714 -5.5735 -0.1842
  461MOL0     H60833   5.064   6.213   3.069 -1.5631 -0.7181 -1.0947
  461MOL0     H60834   4.962   5.287   3.451 -1.0735 -1.0598  0.7532
  461MOL0     H60835   4.866   5.106   3.624  1.7843 -3.1255  1.5514
  461MOL0     H60836   4.608   5.216   4.066 -1.0872 -1.0014 -0.0664
  461MOL0     H60837   4.519   5.135   4.261  0.8378  0.7012  1.4729
  461MOL0     H60838   3.985   5.920   4.182  3.2962 -0.0502  0.3270
  461MOL0     H60839   3.871   5.696   4.167  1.4575  1.1783  1.2716
  461MOL0     H60840   3.845   5.277   4.089 -0.2373 -0.5568  0.4936
  461MOL0     H60841   3.779   5.072   4.077 -1.2836 -2.7481 -1.7884
  461MOL0     H60842   3.426   4.928   3.816 -0.0139 -1.5611 -1.4006
  461MOL0     H60843   3.481   4.788   3.891 -1.2581  1.5000  2.0290
  461MOL0     H60844   3.700   4.931   3.738  1.7185 -1.1131  1.0636
  461MOL0     H60845   3.685   4.778   3.818 -0.1844 -0.7680 -1.4745
  461MOL0     H60846   3.502   4.862   3.596  2.5025  2.7444 -1.6398
  461MOL0     H60847   3.527   4.706   3.649 -3.9141  2.9899 -0.0907
  461MOL0     H60848   3.638   4.745   3.439 -2.3290 -2.4067  0.6133
  461MOL0     H60849   3.736   4.877   3.533  0.3071 -0.6172  2.2091
  461MOL0     H60850   3.943   4.522   3.607  0.5575  1.3959  2.8976
  461MOL0     H60851   3.458   5.167   3.802 -2.1164 -2.1554  1.1894
  461MOL0     H60852   3.539   5.369   3.774 -2.7126 -3.1155 -1.8768
  462MOL0     O60853   5.043   7.224  10.767  0.3254 -0.4255 -1.2018
  462MOL0     C60854   4.930   7.222  10.816  1.4925 -0.7467 -0.7506
  462MOL0     O60855   4.890   7.136  10.926  0.1453  0.0103  0.2014
  462MOL0     C60856   4.984   7.038  10.966 -0.0223 -0.1139  0.6733
  462MOL0     C60857   5.027   7.030  11.094 -0.4582  0.4510 -0.2332
  462MOL0     C60858   5.109   6.923  11.137 -0.3768  0.2337  0.0750
  462MOL0     C60859   5.174   6.844  11.040  0.1142 -0.1850 -0.8658
  462MOL0     O60860   5.268   6.758  11.092  0.0496  0.0226  0.1514
  462MOL0     C60861   5.375   6.727  10.999 -0.6516 -0.0244  0.2240
  462MOL0     C60862   5.469   6.845  10.967 -0.8284  0.7579  1.1850
  462MOL0     C60863   5.579   6.792  10.866  0.3889  0.1831  0.2316
  462MOL0     C60864   5.676   6.903  10.809  0.7650  0.0182  0.6748
  462MOL0     C60865   5.711   6.853  10.666  0.2209 -0.7090 -0.5581
  462MOL0     C60866   5.853   6.899  10.624 -0.5905  0.1415  0.3010
  462MOL0     C60867   5.862   7.052  10.620  0.2467  0.1450 -0.6593
  462MOL0     C60868   6.005   7.108  10.581 -0.0954  0.2511  0.4550
  462MOL0     N60869   5.992   7.255  10.554 -0.2661  1.1988  0.8728
  462MOL0     C60870   5.991   7.348  10.653  1.0579  0.5120 -0.3552
  462MOL0     C60871   5.937   7.459  10.606  0.3442 -0.6645 -0.2461
  462MOL0     C60872   5.936   7.599  10.668  0.4203  0.8570  0.5867
  462MOL0     C60873   5.801   7.668  10.693  0.4105  0.4405  0.1764
  462MOL0     C60874   5.807   7.803  10.764 -0.6603 -0.6572 -0.1415
  462MOL0     C60875   5.674   7.874  10.777  1.2147  0.0140 -0.0768
  462MOL0     O60876   5.681   8.016  10.790  0.3749  0.0391  0.1530
  462MOL0     C60877   5.562   8.092  10.785  0.2359  0.4762  0.2502
  462MOL0     C60878   5.433   8.034  10.787 -0.8344 -0.8136  0.5150
  462MOL0     C60879   5.320   8.116  10.785  1.0807  0.2887 -0.3230
  462MOL0     C60880   5.333   8.258  10.798 -1.0170  0.2952  0.1572
  462MOL0     C60881   5.217   8.344  10.825 -0.0961  0.1598  0.4140
  462MOL0     O60882   5.240   8.481  10.846  0.8461  0.3611  1.4903
  462MOL0     C60883   5.132   8.560  10.888 -0.5929  0.9543  0.2285
  462MOL0     C60884   5.005   8.567  10.821 -0.0778  0.2561  0.7186
  462MOL0     C60885   4.891   8.641  10.874 -0.7565 -0.7070 -0.1461
  462MOL0     C60886   4.911   8.714  10.989 -0.8584  0.0991 -0.6605
  462MOL0     O60887   4.815   8.779  11.059  0.9188 -0.0884 -0.6309
  462MOL0     C60888   4.674   8.783  11.027 -0.9116  0.1156 -0.9895
  462MOL0     C60889   4.600   8.655  11.038  0.0260  1.2807 -1.3782
  462MOL0     C60890   4.456   8.681  11.004 -0.4516 -0.3214 -0.4812
  462MOL0     C60891   4.354   8.563  11.006  0.5526 -0.2579 -0.2051
  462MOL0     C60892   4.244   8.602  10.912  0.9401  0.3689  0.2182
  462MOL0     C60893   4.162   8.734  10.950  0.6227  0.7156  0.3388
  462MOL0     C60894   4.030   8.727  10.887 -0.0283 -0.2711 -0.5789
  462MOL0     C60895   4.051   8.752  10.744 -0.0129 -0.0172 -0.4229
  462MOL0    Cl60896   4.101   8.919  10.715 -0.0720  0.3483  0.1659
  462MOL0     C60897   5.036   8.703  11.061  0.0747  0.3078  0.0209
  462MOL0     C60898   5.142   8.630  11.005 -0.2314  0.0798  0.3627
  462MOL0     O60899   5.107   8.290  10.831 -0.4501  0.7033 -0.2906
  462MOL0     C60900   5.465   8.315  10.785  0.0668 -0.6365  0.1793
  462MOL0     C60901   5.575   8.232  10.779 -0.8547 -0.7021 -0.4808
  462MOL0     N60902   5.917   7.440  10.472  0.0419 -0.0091  0.0643
  462MOL0     N60903   5.952   7.314  10.439  0.1403  0.6125 -0.5155
  462MOL0     C60904   5.127   6.846  10.905  0.4383  0.0532  1.0749
  462MOL0     C60905   5.032   6.943  10.869  0.2529  0.1290 -0.7002
  462MOL0     C60906   4.829   7.324  10.773 -0.2144  0.6109 -0.3570
  462MOL0     C60907   4.696   7.310  10.799 -0.1704  1.2576  0.4587
  462MOL0     C60908   4.607   7.402  10.754  0.3589 -0.1235 -0.8108
  462MOL0     C60909   4.653   7.515  10.692  0.1891 -0.4507  0.1816
  462MOL0     O60910   4.566   7.622  10.666 -0.2887 -0.2354 -0.7066
  462MOL0     C60911   4.625   7.753  10.709 -0.0187  1.0359 -0.1865
  462MOL0     C60912   4.541   7.796  10.833 -0.5884 -0.6400  0.7747
  462MOL0     C60913   4.390   7.817  10.805 -1.0675  0.9547 -0.4779
  462MOL0     C60914   4.310   7.896  10.909 -0.3355  0.2001 -0.1276
  462MOL0     C60915   4.351   8.038  10.903 -0.7697  0.9175  0.9582
  462MOL0     C60916   4.394   8.148  10.892  0.1201 -0.0878 -0.5159
  462MOL0     C60917   4.792   7.529  10.661  0.4501 -0.1344 -0.7975
  462MOL0     C60918   4.876   7.436  10.709  0.0658 -1.0128 -0.6971
  462MOL0     H60919   5.000   7.107  11.166  0.8930  0.6251  0.1076
  462MOL0     H60920   5.158   6.915  11.234  2.7397  1.8173 -1.2163
  462MOL0     H60921   5.340   6.678  10.908 -1.5721  0.5576  0.2532
  462MOL0     H60922   5.439   6.650  11.044  0.2438  0.1920 -0.6578
  462MOL0     H60923   5.538   6.881  11.044  2.5852  0.1406 -1.3747
  462MOL0     H60924   5.411   6.925  10.920 -1.2776 -1.2823 -2.0640
  462MOL0     H60925   5.520   6.748  10.786 -1.0515 -0.6274  1.6802
  462MOL0     H60926   5.631   6.707  10.910 -0.0684 -0.1905  0.0589
  462MOL0     H60927   5.625   6.999  10.817 -1.0616 -0.8860  0.3578
  462MOL0     H60928   5.764   6.904  10.875 -1.1585 -1.6031  3.4720
  462MOL0     H60929   5.644   6.893  10.590  1.7669  2.2971 -0.4984
  462MOL0     H60930   5.711   6.743  10.664  0.6165 -0.7986  1.4810
  462MOL0     H60931   5.866   6.855  10.525 -2.7598 -0.5069  0.2418
  462MOL0     H60932   5.935   6.865  10.687  0.6663  0.0821 -1.3086
  462MOL0     H60933   5.790   7.090  10.547  0.8890 -0.1391 -1.4576
  462MOL0     H60934   5.838   7.099  10.716 -0.4902  2.9141 -2.1010
  462MOL0     H60935   6.033   7.044  10.497 -1.4654 -1.7858  1.4546
  462MOL0     H60936   6.075   7.098  10.664 -0.4741  0.2475  0.7774
  462MOL0     H60937   6.028   7.321  10.751 -3.0894 -0.0942  1.2744
  462MOL0     H60938   6.009   7.654  10.608  1.3573 -1.3398 -0.3998
  462MOL0     H60939   5.974   7.590  10.770 -0.8427 -3.3851  0.8817
  462MOL0     H60940   5.732   7.616  10.760 -0.2049 -1.5268 -1.8507
  462MOL0     H60941   5.750   7.670  10.596  1.3052 -2.2551 -0.4308
  462MOL0     H60942   5.852   7.787  10.862 -0.9268 -3.2986 -0.3859
  462MOL0     H60943   5.869   7.857  10.691 -2.7978  0.7722 -1.0016
  462MOL0     H60944   5.635   7.822  10.865  1.0717 -0.4865 -0.4306
  462MOL0     H60945   5.608   7.841  10.696 -0.4079 -0.3871  1.3513
  462MOL0     H60946   5.412   7.928  10.793 -0.7647 -0.8836 -0.2648
  462MOL0     H60947   5.221   8.075  10.805  1.2745  0.8328  1.9784
  462MOL0     H60948   4.993   8.511  10.729  0.2733 -0.4868  1.1145
  462MOL0     H60949   4.796   8.643  10.822 -0.4311  2.4623 -0.8063
  462MOL0     H60950   4.643   8.822  10.929 -1.9147  0.6123 -0.4882
  462MOL0     H60951   4.628   8.849  11.101 -0.3209 -1.8551  1.2684
  462MOL0     H60952   4.622   8.620  11.139 -0.8301  2.0693 -0.9097
  462MOL0     H60953   4.647   8.588  10.965  2.9249  1.3927  0.2361
  462MOL0     H60954   4.470   8.719  10.902 -0.9370 -0.9814 -0.8034
  462MOL0     H60955   4.429   8.763  11.071 -2.4741 -0.1360 -1.4153
  462MOL0     H60956   4.396   8.470  10.968  2.9030 -0.1102  1.7697
  462MOL0     H60957   4.314   8.554  11.107 -0.9422  2.7859 -0.3924
  462MOL0     H60958   4.175   8.520  10.889 -0.7553  0.3294  4.4461
  462MOL0     H60959   4.294   8.601  10.815  2.3706 -0.9492  0.9106
  462MOL0     H60960   4.218   8.825  10.927  0.6978  0.7534  0.6676
  462MOL0     H60961   4.144   8.725  11.058  3.0208 -0.4290  0.7114
  462MOL0     H60962   3.990   8.626  10.888  1.1278 -0.7727  1.6978
  462MOL0     H60963   3.964   8.802  10.932  0.1612 -0.2218 -0.3810
  462MOL0     H60964   3.951   8.736  10.701 -1.5157 -2.5231  3.4275
  462MOL0     H60965   4.115   8.677  10.698  0.0165 -1.0110  1.1726
  462MOL0     H60966   5.048   8.736  11.163  0.2587  0.1211  0.0594
  462MOL0     H60967   5.236   8.613  11.056  1.3375 -2.2721 -2.9416
  462MOL0     H60968   5.471   8.423  10.779  0.3200 -0.7066 -1.0716
  462MOL0     H60969   5.674   8.277  10.786 -0.9962 -0.0082 -2.3213
  462MOL0     H60970   5.154   6.771  10.832 -0.5745 -0.4145  1.1741
  462MOL0     H60971   5.006   6.948  10.764 -1.6598 -0.1167 -0.2813
  462MOL0     H60972   4.656   7.216  10.837 -3.8172  2.7367  0.7828
  462MOL0     H60973   4.503   7.382  10.777  0.2962 -1.7150 -2.2576
  462MOL0     H60974   4.601   7.822  10.628 -1.5709  2.3866  1.3345
  462MOL0     H60975   4.731   7.766  10.730 -0.2297  1.0897  0.9555
  462MOL0     H60976   4.554   7.719  10.910 -0.1768 -0.2124  1.1401
  462MOL0     H60977   4.582   7.894  10.856  1.1395 -0.8109 -1.2814
  462MOL0     H60978   4.346   7.722  10.773 -1.1433  1.7812 -3.0376
  462MOL0     H60979   4.381   7.871  10.710  2.0425  0.6205 -1.0616
  462MOL0     H60980   4.207   7.880  10.878 -0.0534 -5.3895  0.7397
  462MOL0     H60981   4.326   7.853  11.008  2.2523 -0.6231 -0.8081
  462MOL0     H60982   4.465   8.228  10.890 -0.3589  0.3663  0.1333
  462MOL0     H60983   4.834   7.618  10.615 -1.4866  1.1954 -0.1607
  462MOL0     H60984   4.982   7.454  10.690  0.5639  3.7461  4.2426
  463MOL0     O60985   2.766   7.653   1.204  0.0064 -0.0770  0.0768
  463MOL0     C60986   2.733   7.673   1.089  0.1905  0.1500  0.6452
  463MOL0     O60987   2.742   7.581   0.988 -0.4004 -0.5505  0.0692
  463MOL0     C60988   2.794   7.454   1.008  0.5064 -0.2084  0.1816
  463MOL0     C60989   2.868   7.399   0.904 -0.7106 -0.6195  0.4766
  463MOL0     C60990   2.925   7.269   0.913  0.7044 -0.3558 -0.4926
  463MOL0     C60991   2.885   7.187   1.026 -0.4643  0.4588 -0.0610
  463MOL0     O60992   2.924   7.059   1.035 -0.0409  0.8122  0.0018
  463MOL0     C60993   2.923   6.979   0.911  0.2765 -0.4303  0.4912
  463MOL0     C60994   2.894   6.827   0.947 -0.1933 -0.1792  0.2268
  463MOL0     C60995   2.914   6.738   0.824  0.7328  0.9489  0.2110
  463MOL0     C60996   2.893   6.584   0.854  1.0640 -0.6412 -0.3629
  463MOL0     C60997   2.864   6.506   0.722  0.2367  0.2636  0.0206
  463MOL0     C60998   2.986   6.511   0.629  0.6543 -0.3812  0.1049
  463MOL0     C60999   2.947   6.544   0.481 -0.2719  0.4017  0.7597
  463MOL0     C61000   2.873   6.441   0.414 -0.2047  0.3082  0.6864
  463MOL0     N61001   2.913   6.433   0.279 -0.9955  0.7804 -0.8071
  463MOL0     C61002   3.044   6.396   0.240 -0.4637  0.3054  0.2600
  463MOL0     C61003   3.043   6.452   0.114  0.8486  0.1060  0.4328
  463MOL0     C61004   3.150   6.464   0.005 -0.5770  0.7347  0.7122
  463MOL0     C61005   3.180   6.324  -0.064 -0.4503  0.1102  0.1031
  463MOL0     C61006   3.047   6.275  -0.141  0.3408  0.6673 -0.4307
  463MOL0     C61007   3.041   6.137  -0.213  0.0072  1.3876 -0.2531
  463MOL0     O61008   2.999   6.020  -0.136  0.6618 -0.4710 -0.5132
  463MOL0     C61009   3.093   5.932  -0.093 -0.0277  0.7844 -0.3230
  463MOL0     C61010   3.237   5.963  -0.090  0.4150 -0.8335 -0.7049
  463MOL0     C61011   3.312   5.868  -0.030  0.1973  0.5569 -0.4816
  463MOL0     C61012   3.275   5.733  -0.000  0.0407  0.0949 -0.9692
  463MOL0     C61013   3.358   5.644   0.070  0.1696  0.9706 -0.0154
  463MOL0     O61014   3.323   5.518   0.051 -0.6917  0.3867  0.3125
  463MOL0     C61015   3.390   5.417   0.111 -0.2269 -0.0480  0.4784
  463MOL0     C61016   3.323   5.296   0.130  0.8115  0.3904  0.3649
  463MOL0     C61017   3.386   5.189   0.185 -0.0702  1.1296  0.3642
  463MOL0     C61018   3.526   5.192   0.204  0.3063 -0.6155  0.2708
  463MOL0     O61019   3.584   5.075   0.237  0.0884 -0.1049 -0.3003
  463MOL0     C61020   3.710   5.047   0.178 -0.0095  0.5574  0.3805
  463MOL0     C61021   3.727   4.892   0.195  0.0108 -0.1946  0.5723
  463MOL0     C61022   3.774   4.853   0.335  0.3067  1.3136  1.3076
  463MOL0     C61023   3.779   4.698   0.358  0.1132 -0.8054  0.0985
  463MOL0     C61024   3.869   4.678   0.479  0.3280  0.2208  1.1480
  463MOL0     C61025   3.855   4.538   0.549 -0.7439  1.0126 -0.7702
  463MOL0     C61026   3.896   4.422   0.454 -0.2325 -0.8184 -0.1870
  463MOL0     C61027   4.035   4.442   0.406  0.2670 -0.6542 -0.0039
  463MOL0    Cl61028   4.156   4.448   0.530  0.3446 -0.0689 -0.3765
  463MOL0     C61029   3.593   5.314   0.186 -0.3918  1.2735 -0.0462
  463MOL0     C61030   3.529   5.423   0.138 -0.8665  0.7148 -0.1249
  463MOL0     O61031   3.442   5.688   0.148  0.6377  0.4323 -0.0223
  463MOL0     C61032   3.134   5.707  -0.014 -0.6815 -0.2951 -0.6732
  463MOL0     C61033   3.049   5.804  -0.054  0.1872 -0.2082  0.7322
  463MOL0     N61034   2.923   6.509   0.085  0.3578  0.3599  0.8444
  463MOL0     N61035   2.840   6.500   0.185  0.4866 -0.1984 -0.0309
  463MOL0     C61036   2.818   7.248   1.129 -0.1056  1.7493 -0.5714
  463MOL0     C61037   2.764   7.374   1.120  0.1367 -0.5334  1.1995
  463MOL0     C61038   2.696   7.807   1.042 -0.2885  0.2120 -0.0587
  463MOL0     C61039   2.637   7.818   0.915  0.5764  0.1659 -1.0443
  463MOL0     C61040   2.609   7.946   0.864 -0.7711 -0.4467 -0.0690
  463MOL0     C61041   2.632   8.062   0.941 -0.6334 -0.5284  0.2988
  463MOL0     O61042   2.595   8.185   0.898 -0.6421 -0.1224  0.2402
  463MOL0     C61043   2.706   8.273   0.880 -0.4888  0.0994  1.0940
  463MOL0     C61044   2.745   8.294   0.728 -0.2324  0.8119 -0.4089
  463MOL0     C61045   2.615   8.285   0.641  0.0164 -0.9260  0.2439
  463MOL0     C61046   2.516   8.398   0.669  0.3018 -0.1366 -0.6513
  463MOL0     C61047   2.546   8.527   0.601 -0.2032  0.6062  0.6398
  463MOL0     C61048   2.573   8.634   0.559 -0.2290 -0.0942  0.7659
  463MOL0     C61049   2.679   8.051   1.072  0.2141 -0.6101  0.7211
  463MOL0     C61050   2.719   7.924   1.124 -0.3259  0.2492  0.3534
  463MOL0     H61051   2.884   7.452   0.811  2.1347  1.2386  1.8947
  463MOL0     H61052   2.978   7.220   0.832  0.7632 -0.5182 -0.3572
  463MOL0     H61053   3.024   6.999   0.874 -0.0418 -1.5124 -1.0325
  463MOL0     H61054   2.859   7.002   0.825  0.4813  0.4895  0.5779
  463MOL0     H61055   2.791   6.804   0.975 -0.7962  0.5171 -1.3124
  463MOL0     H61056   2.955   6.812   1.037  1.5424  1.4546 -0.6247
  463MOL0     H61057   3.004   6.757   0.765  1.0017  1.4537  0.7751
  463MOL0     H61058   2.831   6.772   0.762  1.5414  1.0708 -0.8288
  463MOL0     H61059   2.977   6.545   0.912  1.1485  2.4868  1.8644
  463MOL0     H61060   2.806   6.565   0.917  1.2819 -1.1565 -0.2153
  463MOL0     H61061   2.788   6.543   0.652  0.2735 -1.8765 -1.2259
  463MOL0     H61062   2.845   6.404   0.756 -0.7961  0.4778  0.1143
  463MOL0     H61063   3.028   6.410   0.623  1.1946 -0.1083 -0.8873
  463MOL0     H61064   3.063   6.582   0.660 -0.1184 -0.2062  1.7136
  463MOL0     H61065   2.901   6.643   0.478  0.9390  1.0951  2.7365
  463MOL0     H61066   3.043   6.569   0.434  0.9321 -0.1551  2.7685
  463MOL0     H61067   2.769   6.472   0.424  0.5309  2.7550  1.6082
  463MOL0     H61068   2.891   6.347   0.465  2.0620 -2.1065 -3.9308
  463MOL0     H61069   3.124   6.350   0.296 -2.4122 -2.8541  0.6821
  463MOL0     H61070   3.238   6.501   0.060 -0.2681  1.4641 -0.2376
  463MOL0     H61071   3.124   6.536  -0.073  0.3771 -0.3785 -0.6861
  463MOL0     H61072   3.212   6.259   0.018 -0.8243  0.9304  0.9187
  463MOL0     H61073   3.258   6.335  -0.139 -1.0234 -1.2260 -0.7216
  463MOL0     H61074   2.953   6.281  -0.085 -0.3798  2.6722 -1.7288
  463MOL0     H61075   3.030   6.345  -0.223  2.6551  1.9417  0.0758
  463MOL0     H61076   3.127   6.124  -0.279 -2.2320 -3.3661 -2.7636
  463MOL0     H61077   2.957   6.141  -0.283 -1.2508  1.0759  1.1991
  463MOL0     H61078   3.266   6.064  -0.118 -2.5016 -0.3123 -2.2761
  463MOL0     H61079   3.414   5.897  -0.006  0.6375 -1.5651  0.4588
  463MOL0     H61080   3.220   5.299   0.095  0.9966 -2.4920 -0.7487
  463MOL0     H61081   3.320   5.103   0.195  1.1012 -0.0645 -1.4546
  463MOL0     H61082   3.794   5.098   0.226 -0.4275  0.9532  0.7013
  463MOL0     H61083   3.701   5.081   0.075 -1.3612  1.5767  0.7967
  463MOL0     H61084   3.807   4.855   0.130 -0.2953  1.0365 -0.5387
  463MOL0     H61085   3.632   4.841   0.178 -0.2133  1.4513 -4.6730
  463MOL0     H61086   3.714   4.897   0.415 -0.4572 -1.0374  2.1266
  463MOL0     H61087   3.878   4.888   0.335  1.7133 -2.2978 -0.7249
  463MOL0     H61088   3.676   4.667   0.375 -0.8019  1.1062 -1.4860
  463MOL0     H61089   3.824   4.654   0.268  3.3256  2.7422 -0.2864
  463MOL0     H61090   3.849   4.761   0.546  3.0344  3.4861 -1.6768
  463MOL0     H61091   3.972   4.701   0.451  0.6311 -2.4796 -0.3901
  463MOL0     H61092   3.762   4.517   0.601  0.4884  1.1219  1.6238
  463MOL0     H61093   3.916   4.541   0.640 -0.9966 -1.6093 -0.4431
  463MOL0     H61094   3.877   4.327   0.505 -0.2423  1.1963  3.9946
  463MOL0     H61095   3.825   4.424   0.371 -0.6456  1.8009  0.1288
  463MOL0     H61096   4.032   4.522   0.332 -0.6264 -2.9023 -2.5692
  463MOL0     H61097   4.056   4.356   0.341 -3.0927 -1.2116 -0.5791
  463MOL0     H61098   3.701   5.327   0.187 -0.2447  0.6536 -2.0064
  463MOL0     H61099   3.584   5.513   0.114  1.2661 -0.6033 -0.4564
  463MOL0     H61100   3.089   5.611   0.012 -0.9504  0.0823  0.3163
  463MOL0     H61101   2.946   5.781  -0.027  0.4863  0.3034  2.4460
  463MOL0     H61102   2.813   7.185   1.217 -1.3800 -1.4007 -2.6968
  463MOL0     H61103   2.716   7.429   1.200 -1.0354 -0.5653  0.5292
  463MOL0     H61104   2.617   7.733   0.852  1.9031 -1.0662  0.1276
  463MOL0     H61105   2.566   7.950   0.764 -0.6010 -1.9588 -0.2266
  463MOL0     H61106   2.794   8.247   0.938  0.0289  2.4551  1.4293
  463MOL0     H61107   2.669   8.364   0.928 -1.2496 -1.7525  4.3296
  463MOL0     H61108   2.803   8.385   0.709  1.8978 -0.8149 -2.2193
  463MOL0     H61109   2.815   8.216   0.698 -1.0183 -0.0863  0.0407
  463MOL0     H61110   2.561   8.191   0.657 -2.4571  0.6503  1.8270
  463MOL0     H61111   2.643   8.284   0.535 -1.2837  1.3471 -0.1958
  463MOL0     H61112   2.417   8.364   0.637  0.1334 -1.0288  0.7451
  463MOL0     H61113   2.517   8.412   0.777 -1.4301 -1.8216 -0.3519
  463MOL0     H61114   2.592   8.737   0.536 -1.6054  0.0297  0.0582
  463MOL0     H61115   2.705   8.135   1.136  0.9575  2.1744 -2.9421
  463MOL0     H61116   2.766   7.940   1.221  1.8052  3.5521 -1.0355
  464MOL0     O61117   7.397   1.635   4.134  0.6160  0.0068  0.8982
  464MOL0     C61118   7.429   1.529   4.196 -0.6728  0.3910  0.1087
  464MOL0     O61119   7.437   1.508   4.329 -0.0742  0.5241  0.0621
  464MOL0     C61120   7.394   1.600   4.420 -0.4727  0.2626  0.5845
  464MOL0     C61121   7.256   1.603   4.462 -0.6377  0.5453  0.1912
  464MOL0     C61122   7.207   1.715   4.531 -0.8989 -0.5406  0.0852
  464MOL0     C61123   7.292   1.809   4.576  0.6424 -0.6043  0.6852
  464MOL0     O61124   7.251   1.915   4.644  0.0939 -0.2562  0.0373
  464MOL0     C61125   7.331   1.957   4.759  0.2377  0.3781  0.4752
  464MOL0     C61126   7.244   1.937   4.890 -1.5532 -0.0766 -0.5582
  464MOL0     C61127   7.305   2.002   5.012 -0.2938  0.1665  0.0903
  464MOL0     C61128   7.223   1.973   5.134 -1.1152 -0.9300 -1.1384
  464MOL0     C61129   7.280   2.028   5.263 -0.2255  0.2754  0.2789
  464MOL0     C61130   7.181   2.007   5.379  0.6643 -0.0304  0.3979
  464MOL0     C61131   7.206   2.073   5.513  0.3242  0.6294  0.4750
  464MOL0     C61132   7.315   2.000   5.609  0.1882  0.4935  0.9881
  464MOL0     N61133   7.347   2.074   5.729 -1.1550  0.1399  0.6364
  464MOL0     C61134   7.269   2.063   5.842  0.3508  0.7053 -0.1059
  464MOL0     C61135   7.347   2.138   5.931 -0.3744  0.1181  0.9735
  464MOL0     C61136   7.319   2.161   6.074 -0.3231 -0.2297 -0.1522
  464MOL0     C61137   7.373   2.038   6.144 -0.0932  0.3253 -0.7341
  464MOL0     C61138   7.347   2.068   6.296 -0.4416 -0.5301 -0.2208
  464MOL0     C61139   7.282   1.957   6.374  0.3950  0.1228  0.4182
  464MOL0     O61140   7.368   1.837   6.392 -0.5495  0.1946 -0.1892
  464MOL0     C61141   7.323   1.744   6.482 -0.2331  0.6593 -0.1147
  464MOL0     C61142   7.191   1.720   6.506  0.4193  1.7076  0.1391
  464MOL0     C61143   7.154   1.623   6.604 -0.1240 -0.2492 -0.4401
  464MOL0     C61144   7.260   1.547   6.668 -0.7976  0.1323 -0.4475
  464MOL0     C61145   7.205   1.432   6.750 -0.2390 -0.0093  0.4545
  464MOL0     O61146   7.089   1.444   6.812 -0.2438  0.0145  0.1183
  464MOL0     C61147   7.032   1.336   6.881  0.6207 -0.3203  0.0773
  464MOL0     C61148   7.070   1.303   7.007  1.1351 -0.5476  0.0549
  464MOL0     C61149   7.001   1.211   7.078 -0.1013 -0.1731  0.1485
  464MOL0     C61150   6.918   1.110   7.021  0.1533 -0.2558  0.2934
  464MOL0     O61151   6.875   1.001   7.098  0.1307  0.8455 -0.5920
  464MOL0     C61152   6.845   0.880   7.023  0.2608  0.1712  1.5328
  464MOL0     C61153   6.881   0.760   7.109  0.4858  0.3046  0.4490
  464MOL0     C61154   7.028   0.701   7.087 -0.9107  0.4971  0.0540
  464MOL0     C61155   7.050   0.575   7.181 -0.2928  0.0710  0.2249
  464MOL0     C61156   7.197   0.531   7.170 -0.1667 -0.4901 -0.5498
  464MOL0     C61157   7.220   0.388   7.225  0.9591  1.0909  0.4187
  464MOL0     C61158   7.362   0.335   7.180  0.3106  0.8330 -0.8123
  464MOL0     C61159   7.359   0.185   7.176  0.3469  0.8343 -0.6189
  464MOL0    Cl61160   7.328   0.111   7.332  0.2417 -0.5943  0.3399
  464MOL0     C61161   6.891   1.134   6.879  0.3533 -0.0492 -0.5441
  464MOL0     C61162   6.935   1.253   6.814 -1.0966 -0.4193 -0.3175
  464MOL0     O61163   7.277   1.332   6.742  0.7179 -0.3378 -0.5482
  464MOL0     C61164   7.390   1.589   6.652  0.0878  0.1434 -0.1902
  464MOL0     C61165   7.417   1.677   6.555 -0.7085 -0.3911  0.0136
  464MOL0     N61166   7.457   2.187   5.865 -0.1847 -0.2742  0.5952
  464MOL0     N61167   7.461   2.147   5.746  0.5289  0.4017 -0.3430
  464MOL0     C61168   7.423   1.808   4.535 -1.1161  0.7664  0.4958
  464MOL0     C61169   7.481   1.705   4.454 -0.0785 -0.0840 -0.5444
  464MOL0     C61170   7.462   1.411   4.117  0.0677  0.2597  0.0367
  464MOL0     C61171   7.471   1.280   4.166 -0.6745 -0.6260  0.2648
  464MOL0     C61172   7.521   1.178   4.089 -0.3171 -0.1775 -0.4430
  464MOL0     C61173   7.545   1.193   3.954 -0.1914  0.7036 -0.8938
  464MOL0     O61174   7.591   1.075   3.893  0.5395 -0.2412  0.3043
  464MOL0     C61175   7.633   1.075   3.754  0.0639  0.0788 -0.6184
  464MOL0     C61176   7.692   0.943   3.730 -0.3570 -0.2129  0.1214
  464MOL0     C61177   7.843   0.953   3.790  0.1479  0.6316  0.1022
  464MOL0     C61178   7.850   0.891   3.935 -0.5832  0.9681  0.3308
  464MOL0     C61179   7.982   0.902   4.002 -0.3284 -0.9469 -0.5785
  464MOL0     C61180   8.081   0.904   4.067 -0.5604 -0.1888  0.5114
  464MOL0     C61181   7.523   1.321   3.891 -0.3085  0.2809  0.4103
  464MOL0     C61182   7.487   1.431   3.974 -0.1106  0.1284 -0.1683
  464MOL0     H61183   7.180   1.527   4.444  0.1387 -0.3068  0.4141
  464MOL0     H61184   7.103   1.718   4.561 -1.0154  2.1703 -0.3268
  464MOL0     H61185   7.353   2.065   4.759 -0.1582  0.6214  4.6462
  464MOL0     H61186   7.426   1.904   4.770  2.7223  4.4938  1.1713
  464MOL0     H61187   7.260   1.833   4.920  1.2104  0.8665  1.7087
  464MOL0     H61188   7.136   1.949   4.876 -1.7889 -1.0637  0.2969
  464MOL0     H61189   7.297   2.109   4.992 -3.7091 -0.4104 -2.3824
  464MOL0     H61190   7.406   1.963   5.031  1.1529  3.3902 -0.3117
  464MOL0     H61191   7.119   2.006   5.128 -1.4716 -1.1966  2.1590
  464MOL0     H61192   7.211   1.868   5.160  0.7330 -0.8440  0.2412
  464MOL0     H61193   7.299   2.135   5.250  2.7590 -0.1033  0.8615
  464MOL0     H61194   7.376   1.977   5.277  0.4841  0.4752 -3.0465
  464MOL0     H61195   7.157   1.901   5.395 -3.8834  0.5077 -1.5143
  464MOL0     H61196   7.089   2.053   5.345  0.4613  0.3958  1.4808
  464MOL0     H61197   7.245   2.171   5.482  0.2973  1.2782  2.3916
  464MOL0     H61198   7.116   2.102   5.569  1.6660 -0.6992  3.5130
  464MOL0     H61199   7.408   1.983   5.554  0.3072 -1.6137  1.7493
  464MOL0     H61200   7.283   1.903   5.649 -1.7458  1.4456  1.8449
  464MOL0     H61201   7.183   2.000   5.863  1.9047 -1.3716  0.3495
  464MOL0     H61202   7.214   2.180   6.097 -0.1293  1.4431 -0.4930
  464MOL0     H61203   7.367   2.252   6.110  1.9534 -1.1410 -0.7285
  464MOL0     H61204   7.481   2.030   6.130  0.3923 -2.5547  3.0294
  464MOL0     H61205   7.324   1.946   6.112  0.6906 -0.4050  0.1066
  464MOL0     H61206   7.443   2.093   6.342  0.6595 -0.1775 -2.5621
  464MOL0     H61207   7.274   2.148   6.312 -0.6217 -0.7871  0.2855
  464MOL0     H61208   7.190   1.919   6.328  0.6120 -2.5755  2.0145
  464MOL0     H61209   7.239   1.983   6.471 -0.2816 -1.8410  0.6759
  464MOL0     H61210   7.118   1.777   6.450 -0.2116  0.2191 -0.5914
  464MOL0     H61211   7.056   1.602   6.646  0.6179  0.0498  1.5416
  464MOL0     H61212   7.133   1.370   7.066  1.9445 -0.6953 -0.6180
  464MOL0     H61213   7.020   1.194   7.184 -0.1958  0.6479  0.3061
  464MOL0     H61214   6.908   0.886   6.934 -0.0024  1.8703  1.4251
  464MOL0     H61215   6.742   0.866   6.988  0.7252  0.0648  0.1548
  464MOL0     H61216   6.810   0.680   7.083  1.3019  0.0552 -1.1167
  464MOL0     H61217   6.858   0.772   7.215 -0.4774  2.0549  0.0785
  464MOL0     H61218   7.089   0.784   7.124 -2.4562  1.1068  1.3597
  464MOL0     H61219   7.033   0.677   6.980 -3.3916 -0.9258  0.1830
  464MOL0     H61220   7.036   0.614   7.281  0.7321 -0.2606  0.5118
  464MOL0     H61221   6.984   0.492   7.151 -2.4654  1.4977  0.8362
  464MOL0     H61222   7.270   0.600   7.214 -0.3882 -0.7285  0.2107
  464MOL0     H61223   7.218   0.539   7.063 -2.2458  2.7670 -0.8711
  464MOL0     H61224   7.140   0.329   7.180  0.3452  2.2807 -0.1109
  464MOL0     H61225   7.212   0.395   7.334  0.7243 -0.3131  0.5084
  464MOL0     H61226   7.392   0.373   7.082  1.0441 -2.1539 -1.8324
  464MOL0     H61227   7.445   0.373   7.241  2.2034 -2.1032 -1.3448
  464MOL0     H61228   7.463   0.158   7.152  0.5474  1.3464 -0.3576
  464MOL0     H61229   7.280   0.160   7.105  0.0353 -1.4151  0.4522
  464MOL0     H61230   6.815   1.087   6.818 -1.1956  2.6711 -0.9012
  464MOL0     H61231   6.920   1.272   6.708  3.3486  0.3709 -0.9998
  464MOL0     H61232   7.475   1.541   6.698  0.7437  0.3326 -1.1676
  464MOL0     H61233   7.520   1.711   6.556 -1.0821  0.8050  0.8927
  464MOL0     H61234   7.491   1.889   4.561 -0.2353 -0.0942  0.9752
  464MOL0     H61235   7.585   1.705   4.426 -0.2492 -1.1019 -1.2078
  464MOL0     H61236   7.456   1.252   4.270 -2.6402  0.4838  0.3243
  464MOL0     H61237   7.536   1.080   4.132 -2.2142 -0.0487  0.6258
  464MOL0     H61238   7.696   1.157   3.721  3.6516 -1.7040  1.2590
  464MOL0     H61239   7.547   1.077   3.685  1.7537  1.1747 -2.8141
  464MOL0     H61240   7.630   0.863   3.769 -1.1202 -0.2048 -1.0157
  464MOL0     H61241   7.697   0.944   3.620 -0.7697  4.0508 -0.0530
  464MOL0     H61242   7.880   1.056   3.788  1.4503  0.1936  0.5158
  464MOL0     H61243   7.909   0.883   3.738  2.6431  1.3783  2.0816
  464MOL0     H61244   7.779   0.951   3.994  0.4777  2.9481 -0.3138
  464MOL0     H61245   7.823   0.785   3.932  0.6571  0.3833  4.3255
  464MOL0     H61246   8.174   0.892   4.120  0.5809 -0.2361 -1.3947
  464MOL0     H61247   7.538   1.325   3.783 -2.9200  0.2930 -0.0188
  464MOL0     H61248   7.475   1.532   3.936  1.4854  0.0390 -0.9971
  465MOL0     O61249   0.366   5.417   1.027 -0.0467  0.4219 -0.0887
  465MOL0     C61250   0.307   5.461   0.923 -0.6725 -0.1968 -0.1821
  465MOL0     O61251   0.346   5.557   0.845  0.2269  0.0214 -0.1668
  465MOL0     C61252   0.451   5.642   0.858 -1.1579  0.2415 -0.2147
  465MOL0     C61253   0.448   5.735   0.753 -0.4306  0.4208  0.5515
  465MOL0     C61254   0.554   5.829   0.751  0.1019 -0.1037  0.1006
  465MOL0     C61255   0.653   5.846   0.851  0.6767  0.4287 -0.1041
  465MOL0     O61256   0.749   5.933   0.839 -0.3484  0.0674  0.1912
  465MOL0     C61257   0.755   6.007   0.716 -0.3736  0.1756  0.1861
  465MOL0     C61258   0.872   6.109   0.745  0.0812  0.6241  0.5174
  465MOL0     C61259   1.007   6.043   0.712  0.2078  0.2447  0.9671
  465MOL0     C61260   1.110   6.140   0.756 -0.2366  0.2169 -0.1871
  465MOL0     C61261   1.256   6.102   0.709 -0.3663  0.0703 -0.2638
  465MOL0     C61262   1.367   6.163   0.803  1.1537  0.6645  0.1110
  465MOL0     C61263   1.378   6.312   0.764 -0.1330  0.0792 -0.8704
  465MOL0     C61264   1.446   6.390   0.874 -0.1819  0.1046 -0.4132
  465MOL0     N61265   1.563   6.338   0.935 -0.8109  0.7958 -0.2506
  465MOL0     C61266   1.589   6.307   1.071  0.1353  0.2284 -0.4814
  465MOL0     C61267   1.720   6.266   1.061  0.2091 -0.6210  0.1390
  465MOL0     C61268   1.804   6.220   1.177 -0.4734 -0.9770  0.2900
  465MOL0     C61269   1.762   6.080   1.240  0.0624  0.2180  0.1351
  465MOL0     C61270   1.816   6.052   1.382  0.4551 -1.1246  0.2269
  465MOL0     C61271   1.799   5.909   1.430 -1.3593  1.1252 -0.0684
  465MOL0     O61272   1.662   5.871   1.423 -0.3773  0.6951  0.1356
  465MOL0     C61273   1.629   5.753   1.481  0.0605  0.5196  0.6237
  465MOL0     C61274   1.585   5.751   1.613 -0.6422 -0.4331 -0.8545
  465MOL0     C61275   1.522   5.641   1.673 -0.2008  0.2605  0.3957
  465MOL0     C61276   1.515   5.522   1.605 -0.5067  0.0668  0.1254
  465MOL0     C61277   1.473   5.400   1.677  0.4321 -0.8502  0.3680
  465MOL0     O61278   1.399   5.414   1.789  0.2068 -0.0821 -0.8280
  465MOL0     C61279   1.298   5.329   1.819  0.1178  0.8662  0.5879
  465MOL0     C61280   1.255   5.228   1.735  0.5933  0.7666  0.1540
  465MOL0     C61281   1.140   5.161   1.776 -0.0113 -0.9408  1.6977
  465MOL0     C61282   1.064   5.187   1.885  0.5621  0.1092 -0.2742
  465MOL0     O61283   0.952   5.111   1.914  0.0165 -0.7022 -1.1630
  465MOL0     C61284   0.870   5.147   2.025  0.6225  0.4150  0.6068
  465MOL0     C61285   0.781   5.036   2.071 -0.7298  0.9632 -0.1905
  465MOL0     C61286   0.697   4.984   1.960  0.1015 -0.5045 -0.1653
  465MOL0     C61287   0.581   5.078   1.920 -0.5790 -1.6518 -0.6386
  465MOL0     C61288   0.518   5.019   1.798  0.1101  0.2519 -0.1221
  465MOL0     C61289   0.413   5.103   1.743  0.2980 -0.3198  0.2213
  465MOL0     C61290   0.333   5.048   1.630  0.3625  0.5753  0.1842
  465MOL0     C61291   0.206   4.971   1.690 -0.7423 -0.6384 -0.2231
  465MOL0    Cl61292   0.080   5.088   1.734 -0.4537 -0.8134 -0.5279
  465MOL0     C61293   1.115   5.288   1.971  0.1159 -0.4691 -0.4795
  465MOL0     C61294   1.227   5.358   1.936  0.5294 -0.3717 -0.2751
  465MOL0     O61295   1.519   5.289   1.629 -0.0806 -0.4695 -0.5724
  465MOL0     C61296   1.559   5.519   1.462  0.2007 -0.5352 -0.7105
  465MOL0     C61297   1.613   5.637   1.403  0.5984  0.5140 -0.2023
  465MOL0     N61298   1.769   6.277   0.934  0.2822  0.3744 -0.2319
  465MOL0     N61299   1.681   6.328   0.863  0.2380 -0.4742  0.2632
  465MOL0     C61300   0.645   5.745   0.953 -1.2057  0.8359 -0.9827
  465MOL0     C61301   0.543   5.648   0.962 -0.0740 -0.5725  0.3696
  465MOL0     C61302   0.188   5.388   0.893  0.5471  0.0669 -0.4349
  465MOL0     C61303   0.085   5.445   0.824 -0.4493 -0.0620  0.0131
  465MOL0     C61304  -0.034   5.377   0.804  0.3323  0.6227 -0.8763
  465MOL0     C61305  -0.054   5.250   0.852 -0.3040  0.1923  0.0607
  465MOL0     O61306  -0.181   5.200   0.843 -0.0685  0.1950  0.5782
  465MOL0     C61307  -0.208   5.068   0.881 -0.6951  0.1798  0.5903
  465MOL0     C61308  -0.346   5.030   0.835  0.4177  0.6904 -0.8879
  465MOL0     C61309  -0.436   5.121   0.927  0.3540 -0.4103  0.7285
  465MOL0     C61310  -0.561   5.157   0.859 -0.7704 -0.0817 -0.5609
  465MOL0     C61311  -0.656   5.219   0.952  0.4239 -0.4524 -0.5216
  465MOL0     C61312  -0.738   5.285   1.023  0.4039  0.8010  0.7176
  465MOL0     C61313   0.046   5.185   0.918  0.0682  0.2646  0.5348
  465MOL0     C61314   0.169   5.248   0.934 -0.3884  0.4259 -0.3016
  465MOL0     H61315   0.371   5.736   0.676 -1.2711  0.2832  1.3723
  465MOL0     H61316   0.560   5.890   0.661 -0.4722  0.2169  0.2755
  465MOL0     H61317   0.662   6.063   0.706 -1.0685 -0.6893  1.4230
  465MOL0     H61318   0.764   5.949   0.624 -1.5889  0.3254 -0.0390
  465MOL0     H61319   0.867   6.137   0.851  2.6956  0.1318  0.8347
  465MOL0     H61320   0.853   6.196   0.681  0.2905  0.9870  0.9445
  465MOL0     H61321   1.013   6.020   0.605 -1.7698  3.3030  0.0660
  465MOL0     H61322   1.018   5.949   0.767  1.1706  0.7671  1.7034
  465MOL0     H61323   1.103   6.243   0.721  3.3327  0.2631 -1.1347
  465MOL0     H61324   1.108   6.143   0.865 -1.9755 -0.4717 -0.1705
  465MOL0     H61325   1.261   6.131   0.603 -1.7346 -1.9326 -0.9468
  465MOL0     H61326   1.279   5.995   0.719 -0.4330  0.2208  1.7720
  465MOL0     H61327   1.461   6.109   0.805  1.6837  1.4750  4.0717
  465MOL0     H61328   1.320   6.153   0.901 -2.2684  0.6536 -1.3789
  465MOL0     H61329   1.445   6.316   0.677 -2.5586  0.2741 -2.8400
  465MOL0     H61330   1.284   6.358   0.735 -0.9463 -1.1855 -0.3356
  465MOL0     H61331   1.377   6.385   0.958  0.8303 -0.7749  0.3829
  465MOL0     H61332   1.475   6.488   0.834 -0.1649 -0.1735 -1.0893
  465MOL0     H61333   1.526   6.300   1.159 -0.1770 -0.2619 -0.7395
  465MOL0     H61334   1.773   6.284   1.260  2.0301 -0.6122  1.0317
  465MOL0     H61335   1.912   6.235   1.169 -1.0457  3.7218 -2.1284
  465MOL0     H61336   1.802   6.002   1.175 -0.8949 -1.0885  1.0816
  465MOL0     H61337   1.653   6.076   1.239  0.0694 -0.3806 -1.5854
  465MOL0     H61338   1.921   6.080   1.398  1.0627 -2.8022 -0.6347
  465MOL0     H61339   1.763   6.117   1.452 -0.2755 -0.7149 -0.6780
  465MOL0     H61340   1.831   5.888   1.533 -0.9842 -1.2724 -0.6224
  465MOL0     H61341   1.863   5.859   1.357 -0.1351  2.7682 -0.1643
  465MOL0     H61342   1.582   5.836   1.680  0.1192  1.0115 -2.5724
  465MOL0     H61343   1.516   5.629   1.781  4.6055 -1.7807  0.6549
  465MOL0     H61344   1.308   5.201   1.644  0.2721  1.3093 -0.1991
  465MOL0     H61345   1.100   5.080   1.716  0.5987 -2.7991  3.6840
  465MOL0     H61346   0.817   5.239   2.000 -1.9286 -0.7072  1.6082
  465MOL0     H61347   0.936   5.179   2.105  0.9140 -0.3273  0.6747
  465MOL0     H61348   0.718   5.066   2.156  1.1200  2.0995  0.8596
  465MOL0     H61349   0.843   4.953   2.107 -3.4931 -1.3155 -0.2844
  465MOL0     H61350   0.649   4.887   1.974 -2.9398  0.8282 -0.5483
  465MOL0     H61351   0.764   4.955   1.879 -0.9571 -1.2258 -0.8165
  465MOL0     H61352   0.513   5.090   2.005  1.5164  0.6992  0.8314
  465MOL0     H61353   0.633   5.172   1.901  3.1897 -3.2396  0.9367
  465MOL0     H61354   0.480   4.918   1.816 -1.3212  0.9351  0.8945
  465MOL0     H61355   0.593   5.006   1.720 -0.1369 -2.3137 -0.0445
  465MOL0     H61356   0.455   5.198   1.709  1.4317 -0.3655  1.4275
  465MOL0     H61357   0.360   5.130   1.834  0.3908  1.8305 -0.3113
  465MOL0     H61358   0.300   5.128   1.564 -0.4230  0.5012  0.4704
  465MOL0     H61359   0.392   4.980   1.569  1.1896  2.7511 -1.5468
  465MOL0     H61360   0.240   4.917   1.779  3.0627  2.6629  0.5967
  465MOL0     H61361   0.170   4.907   1.609 -2.1410  2.0503 -1.8604
  465MOL0     H61362   1.058   5.321   2.057 -0.0022 -0.6959 -0.4702
  465MOL0     H61363   1.245   5.446   1.997 -1.1948 -0.4737  0.4383
  465MOL0     H61364   1.552   5.427   1.405 -0.4133 -0.0934 -1.3523
  465MOL0     H61365   1.647   5.640   1.300 -0.4295 -2.7944 -0.7538
  465MOL0     H61366   0.737   5.744   1.010 -1.2855  1.4704 -0.8345
  465MOL0     H61367   0.547   5.575   1.043  0.2305 -3.0564 -1.7351
  465MOL0     H61368   0.104   5.547   0.792  2.9995 -0.6039 -0.0042
  465MOL0     H61369  -0.115   5.429   0.752 -0.2439 -0.0853 -0.6978
  465MOL0     H61370  -0.197   5.053   0.989  2.8641 -4.9454 -0.1198
  465MOL0     H61371  -0.137   4.999   0.835 -1.1437  1.4299 -2.1333
  465MOL0     H61372  -0.361   5.060   0.731 -0.8377  0.8721 -0.6682
  465MOL0     H61373  -0.375   4.925   0.848  0.6832  0.4940 -1.8281
  465MOL0     H61374  -0.386   5.211   0.965 -2.4177  2.3098 -1.5413
  465MOL0     H61375  -0.463   5.055   1.009 -1.3104 -0.8021 -0.0834
  465MOL0     H61376  -0.529   5.222   0.777  1.2901  0.1360  0.3760
  465MOL0     H61377  -0.616   5.072   0.817 -0.5865 -0.3057 -0.3465
  465MOL0     H61378  -0.793   5.350   1.089  0.1077  0.5113  0.7575
  465MOL0     H61379   0.040   5.080   0.945  0.9318 -0.1513 -0.7459
  465MOL0     H61380   0.244   5.191   0.987  0.1881  1.8022  0.3993
  466MOL0     O61381   5.485  11.422   3.095  0.6987  0.1119  0.2963
  466MOL0     C61382   5.510  11.362   2.994  0.3785  0.5798 -0.0983
  466MOL0     O61383   5.512  11.409   2.868  0.6294 -0.5275  0.1431
  466MOL0     C61384   5.433  11.512   2.821 -0.5005 -0.0921 -0.5698
  466MOL0     C61385   5.478  11.590   2.711 -0.7656 -1.3071  0.5142
  466MOL0     C61386   5.418  11.702   2.657  0.7264 -0.5913  0.0693
  466MOL0     C61387   5.292  11.741   2.715 -0.3368  0.0205  0.4617
  466MOL0     O61388   5.249  11.859   2.668 -0.7684  0.2240 -0.7880
  466MOL0     C61389   5.164  11.929   2.755 -0.2803  0.4512 -0.1767
  466MOL0     C61390   5.121  12.061   2.693 -0.8706 -1.0314 -1.1166
  466MOL0     C61391   4.985  12.116   2.750 -0.6197 -0.5166  0.0723
  466MOL0     C61392   4.873  12.038   2.688  0.3827 -0.7280 -0.8001
  466MOL0     C61393   4.754  12.060   2.778 -1.4826  0.8740 -1.2130
  466MOL0     C61394   4.620  11.994   2.724 -0.7068  0.3750  0.1503
  466MOL0     C61395   4.507  12.001   2.823  0.1949  0.6320 -0.7201
  466MOL0     C61396   4.438  12.137   2.842 -0.5029  0.3982 -0.8692
  466MOL0     N61397   4.371  12.150   2.973  0.0403 -0.1391 -0.6457
  466MOL0     C61398   4.416  12.239   3.068  1.0712 -0.3593 -0.9790
  466MOL0     C61399   4.306  12.256   3.155 -0.7924 -0.7760  0.1784
  466MOL0     C61400   4.308  12.338   3.287  0.3311 -0.0411 -0.4502
  466MOL0     C61401   4.230  12.470   3.275  0.5638 -0.3589 -0.1072
  466MOL0     C61402   4.083  12.477   3.320 -1.1159 -0.4704  0.6103
  466MOL0     C61403   3.992  12.395   3.223  0.7174  0.2901 -1.3837
  466MOL0     O61404   3.874  12.351   3.293 -0.0025 -0.4309 -0.4850
  466MOL0     C61405   3.816  12.232   3.265 -0.4295  0.3296  0.0652
  466MOL0     C61406   3.845  12.152   3.155  0.1344  0.8060 -0.6152
  466MOL0     C61407   3.779  12.035   3.133  0.1929  0.2238 -0.6393
  466MOL0     C61408   3.674  11.996   3.217 -0.1603 -0.4974 -0.0935
  466MOL0     C61409   3.593  11.884   3.181 -0.2675  0.4454 -0.1074
  466MOL0     O61410   3.609  11.840   3.060 -0.5987  0.8399  0.0925
  466MOL0     C61411   3.573  11.707   3.033  0.8296 -0.4868  0.1505
  466MOL0     C61412   3.593  11.599   3.123 -0.4708 -1.1068 -0.0485
  466MOL0     C61413   3.564  11.466   3.078  0.2711 -0.4673 -0.5520
  466MOL0     C61414   3.516  11.444   2.953  0.0177 -0.6182 -0.6861
  466MOL0     O61415   3.490  11.317   2.938  0.0095  0.3313 -0.5017
  466MOL0     C61416   3.445  11.287   2.808  0.3125  1.7550  0.8411
  466MOL0     C61417   3.401  11.137   2.817 -0.1792  0.8208 -0.2370
  466MOL0     C61418   3.369  11.064   2.679  0.1352  0.2709 -1.0077
  466MOL0     C61419   3.289  10.935   2.706  0.0157  0.5492  0.7888
  466MOL0     C61420   3.306  10.853   2.579  0.1678 -0.7714  0.2908
  466MOL0     C61421   3.224  10.714   2.566  1.2106 -0.1274 -0.7324
  466MOL0     C61422   3.251  10.656   2.420 -0.3217  0.0582  0.3618
  466MOL0     C61423   3.171  10.529   2.393  0.3358  1.0626  0.0668
  466MOL0    Cl61424   3.258  10.377   2.470  0.3407  0.0132  0.1134
  466MOL0     C61425   3.492  11.554   2.867  0.3885 -0.2244 -0.8963
  466MOL0     C61426   3.514  11.687   2.910 -0.1758 -0.8014  0.2503
  466MOL0     O61427   3.516  11.835   3.265 -0.9375  0.0806  0.7907
  466MOL0     C61428   3.636  12.071   3.328 -0.0172  0.2765  0.1679
  466MOL0     C61429   3.712  12.193   3.347  0.3697  0.0643  0.0382
  466MOL0     N61430   4.212  12.158   3.107  0.1582 -0.1966 -0.5981
  466MOL0     N61431   4.255  12.098   2.998 -0.1779 -0.6133  0.3301
  466MOL0     C61432   5.235  11.670   2.832 -0.9647 -0.1769  0.1033
  466MOL0     C61433   5.313  11.556   2.879 -0.3232 -1.0422  0.2498
  466MOL0     C61434   5.561  11.229   3.017 -0.4075  0.9748 -0.2911
  466MOL0     C61435   5.543  11.163   3.135  0.3368 -0.0882 -0.7643
  466MOL0     C61436   5.584  11.036   3.155  0.7474 -0.3374  0.8783
  466MOL0     C61437   5.639  10.957   3.051  0.0056 -0.0070 -0.1368
  466MOL0     O61438   5.647  10.819   3.073 -0.1923  0.0010  0.6994
  466MOL0     C61439   5.768  10.744   3.030  0.5000 -0.0072  0.6202
  466MOL0     C61440   5.748  10.595   2.975  0.1864 -0.2088 -0.0298
  466MOL0     C61441   5.647  10.605   2.859  0.5175  0.2041  0.5670
  466MOL0     C61442   5.634  10.491   2.759 -0.0741  0.2554  0.0224
  466MOL0     C61443   5.582  10.377   2.817  0.1192 -0.4918 -0.8751
  466MOL0     C61444   5.536  10.269   2.862 -0.1499  0.0372  0.0198
  466MOL0     C61445   5.649  11.019   2.931  0.7550 -0.1196  0.3354
  466MOL0     C61446   5.622  11.158   2.915 -0.2489  1.1769  0.2389
  466MOL0     H61447   5.573  11.552   2.672  0.3323  1.2626  0.4824
  466MOL0     H61448   5.477  11.762   2.588  1.9567 -2.8540 -0.9240
  466MOL0     H61449   5.219  11.967   2.841 -1.5188  4.2662 -0.8720
  466MOL0     H61450   5.080  11.864   2.782 -1.1877  0.6887 -2.2133
  466MOL0     H61451   5.111  12.049   2.584 -0.4522  0.1704 -1.3026
  466MOL0     H61452   5.194  12.142   2.695 -0.8564 -1.0099 -2.0117
  466MOL0     H61453   4.969  12.220   2.718  1.5102  0.1161  0.9079
  466MOL0     H61454   4.978  12.102   2.859 -1.3072  1.5168  0.3479
  466MOL0     H61455   4.839  12.080   2.593  1.1714  1.8865 -0.0123
  466MOL0     H61456   4.895  11.931   2.695 -1.0288 -1.0624 -1.2717
  466MOL0     H61457   4.738  12.168   2.778  1.8235  1.4817  0.0311
  466MOL0     H61458   4.779  12.021   2.877  2.5545 -1.2503 -2.8062
  466MOL0     H61459   4.635  11.889   2.699  0.8281  1.0938 -2.3237
  466MOL0     H61460   4.595  12.053   2.634  1.1159 -0.4463 -0.9459
  466MOL0     H61461   4.419  11.950   2.781 -2.1898  0.6604  3.6542
  466MOL0     H61462   4.532  11.948   2.915 -0.2750  2.2756  0.3904
  466MOL0     H61463   4.363  12.152   2.764  0.2199 -1.1059 -1.9018
  466MOL0     H61464   4.516  12.212   2.824 -0.4326  0.0024 -2.2739
  466MOL0     H61465   4.507  12.297   3.081 -1.2722  3.3585  0.8060
  466MOL0     H61466   4.411  12.372   3.297 -0.2517  1.0520  2.8569
  466MOL0     H61467   4.265  12.276   3.366 -1.5376  1.5786 -0.1103
  466MOL0     H61468   4.243  12.510   3.174 -0.9685  2.2568  0.6338
  466MOL0     H61469   4.283  12.535   3.346 -0.5687 -0.0570  0.4743
  466MOL0     H61470   4.079  12.429   3.418 -0.5909  0.6488  1.1942
  466MOL0     H61471   4.044  12.579   3.324  0.5151  0.2686 -1.1106
  466MOL0     H61472   4.046  12.304   3.196 -3.8037 -2.7351 -1.2254
  466MOL0     H61473   3.976  12.460   3.137  1.1274  2.8150  0.3371
  466MOL0     H61474   3.918  12.180   3.079 -1.2509  3.1961 -1.1570
  466MOL0     H61475   3.807  11.969   3.051  1.8705  0.1820 -0.0820
  466MOL0     H61476   3.627  11.615   3.225  0.6019 -1.6223 -0.3157
  466MOL0     H61477   3.581  11.382   3.145 -0.2769 -1.6663 -1.8596
  466MOL0     H61478   3.521  11.297   2.730  0.1184 -2.4061 -0.1275
  466MOL0     H61479   3.352  11.336   2.778 -2.1791 -2.6856  0.4299
  466MOL0     H61480   3.304  11.143   2.867  0.2565  2.7551  0.4699
  466MOL0     H61481   3.481  11.087   2.872 -0.0604  1.2466 -0.0189
  466MOL0     H61482   3.461  11.057   2.621 -0.3549 -0.1548 -1.7530
  466MOL0     H61483   3.295  11.129   2.631 -0.6921  0.2424  0.1991
  466MOL0     H61484   3.320  10.886   2.799 -1.1365 -0.2156  0.7943
  466MOL0     H61485   3.186  10.967   2.725  0.6532  0.9172  4.3424
  466MOL0     H61486   3.413  10.844   2.561  1.2780  3.1103  3.4336
  466MOL0     H61487   3.273  10.915   2.495  0.5813  1.5704  1.7545
  466MOL0     H61488   3.117  10.725   2.586  0.8554 -1.1059 -2.0098
  466MOL0     H61489   3.266  10.647   2.642 -0.8135 -0.8947 -0.2478
  466MOL0     H61490   3.231  10.733   2.345  3.3518 -0.0300 -0.9016
  466MOL0     H61491   3.358  10.631   2.419 -0.3263 -0.0342  1.2855
  466MOL0     H61492   3.161  10.510   2.286  3.7363  0.5483 -0.2637
  466MOL0     H61493   3.073  10.546   2.438 -1.4028 -0.3137 -2.9373
  466MOL0     H61494   3.444  11.546   2.770 -0.9274  4.0639 -0.8336
  466MOL0     H61495   3.498  11.776   2.850  0.0295  1.0642  2.7672
  466MOL0     H61496   3.551  12.040   3.388 -0.4939 -0.1607 -0.7211
  466MOL0     H61497   3.693  12.260   3.430  0.1869 -1.5194  1.3322
  466MOL0     H61498   5.140  11.701   2.875 -1.6776 -2.6912  0.5075
  466MOL0     H61499   5.271  11.510   2.968  0.5957  2.3827  2.6639
  466MOL0     H61500   5.494  11.210   3.219 -2.7668 -1.6948 -1.5081
  466MOL0     H61501   5.560  10.991   3.250 -1.3855 -2.6720 -0.6332
  466MOL0     H61502   5.847  10.741   3.105 -2.5184 -0.4320  4.0534
  466MOL0     H61503   5.805  10.819   2.959  0.9761  2.4511  3.2874
  466MOL0     H61504   5.839  10.558   2.927  0.7792  0.7261  0.3479
  466MOL0     H61505   5.714  10.530   3.056 -0.1434 -0.8628 -0.6880
  466MOL0     H61506   5.671  10.683   2.786  1.7567  0.8446  1.6243
  466MOL0     H61507   5.545  10.626   2.890  0.2504 -1.3070  0.7782
  466MOL0     H61508   5.567  10.539   2.687  0.0436  1.8076  0.9082
  466MOL0     H61509   5.733  10.473   2.717  0.8500  0.3206  2.0860
  466MOL0     H61510   5.508  10.171   2.895 -0.1137  0.1716  0.4659
  466MOL0     H61511   5.681  10.965   2.843  1.5733 -0.3354  0.7505
  466MOL0     H61512   5.645  11.196   2.816 -1.0147  2.3229  0.4672
  467MOL0     O61513   2.204   0.283   3.222  0.2617 -0.1646 -0.3028
  467MOL0     C61514   2.213   0.404   3.236  0.8894  0.1955  0.7381
  467MOL0     O61515   2.120   0.473   3.294 -0.0612  0.0532  0.0942
  467MOL0     C61516   1.990   0.434   3.307 -0.0854  0.3451  0.0497
  467MOL0     C61517   1.902   0.476   3.419 -0.6442  0.2155  0.8455
  467MOL0     C61518   1.773   0.426   3.439 -0.1301  0.1797 -0.7325
  467MOL0     C61519   1.721   0.332   3.350  0.4984  1.4367 -0.4603
  467MOL0     O61520   1.593   0.292   3.375 -0.1917 -0.4629  0.4224
  467MOL0     C61521   1.560   0.155   3.349 -0.8448 -0.6647 -0.6141
  467MOL0     C61522   1.493   0.139   3.218 -0.3184  0.1131  0.5452
  467MOL0     C61523   1.432  -0.007   3.203  0.1386  0.6519  0.9780
  467MOL0     C61524   1.355   0.002   3.062  0.3285  0.5321  0.8744
  467MOL0     C61525   1.257  -0.116   3.045  0.2359  0.0233 -0.1230
  467MOL0     C61526   1.349  -0.239   3.011 -1.0215 -0.4563  0.7255
  467MOL0     C61527   1.289  -0.374   3.058  0.0901 -0.9492 -0.0669
  467MOL0     C61528   1.153  -0.423   2.997  0.2698  0.0744  0.0618
  467MOL0     N61529   1.139  -0.407   2.859 -0.5565  0.0252  0.4883
  467MOL0     C61530   1.196  -0.492   2.765 -0.0306  0.2871 -0.5480
  467MOL0     C61531   1.170  -0.442   2.641  0.6023  0.5005 -0.5385
  467MOL0     C61532   1.207  -0.492   2.503 -0.0084  0.5011  0.2309
  467MOL0     C61533   1.108  -0.463   2.380  0.5794  0.4142  0.1968
  467MOL0     C61534   1.171  -0.518   2.258 -0.2980  0.7877  0.6281
  467MOL0     C61535   1.067  -0.510   2.134 -1.0869 -0.5464 -0.0828
  467MOL0     O61536   0.932  -0.556   2.166 -0.0018 -0.1045  0.3111
  467MOL0     C61537   0.847  -0.488   2.087  0.6377  0.6388 -0.3312
  467MOL0     C61538   0.769  -0.554   1.985 -0.8636 -0.2621 -0.3992
  467MOL0     C61539   0.683  -0.490   1.901  0.1504  0.6426  0.5315
  467MOL0     C61540   0.644  -0.357   1.930 -0.5165  0.9788  0.1107
  467MOL0     C61541   0.540  -0.287   1.859  0.5995 -0.1220  1.0147
  467MOL0     O61542   0.444  -0.360   1.790  0.3340 -0.2941  0.1537
  467MOL0     C61543   0.347  -0.294   1.726  0.2325  0.0511  0.0276
  467MOL0     C61544   0.354  -0.304   1.586 -0.1219 -0.3911 -0.4037
  467MOL0     C61545   0.253  -0.249   1.507  1.2592 -0.3302 -0.9880
  467MOL0     C61546   0.149  -0.177   1.568 -0.2493 -0.0482 -0.0077
  467MOL0     O61547   0.049  -0.109   1.501 -0.4065 -0.0842  0.0627
  467MOL0     C61548   0.068   0.030   1.459 -0.2217  1.0401  0.1657
  467MOL0     C61549   0.084   0.035   1.312 -0.2197 -0.5124 -0.2682
  467MOL0     C61550   0.113   0.176   1.270  0.1919 -0.2260 -0.2795
  467MOL0     C61551   0.126   0.176   1.121  0.9188  0.7907 -0.9477
  467MOL0     C61552   0.098   0.313   1.054  0.3831  0.1429 -0.7030
  467MOL0     C61553   0.187   0.425   1.137  1.2054  0.1104 -0.2966
  467MOL0     C61554   0.183   0.562   1.069  0.5959  0.4752 -0.8396
  467MOL0     C61555   0.063   0.646   1.086 -0.2819  0.4155  0.5727
  467MOL0    Cl61556   0.080   0.794   0.990 -0.2475 -0.2547  0.0448
  467MOL0     C61557   0.144  -0.179   1.706 -0.1590 -0.5933 -1.5046
  467MOL0     C61558   0.243  -0.238   1.791  0.5565  0.2844  0.2512
  467MOL0     O61559   0.539  -0.164   1.858  0.0250 -0.3565 -0.5599
  467MOL0     C61560   0.708  -0.284   2.037 -0.7581  0.5675 -0.0827
  467MOL0     C61561   0.818  -0.350   2.102  0.5617  0.6553 -0.6628
  467MOL0     N61562   1.102  -0.321   2.663  0.3091 -0.1517 -0.0386
  467MOL0     N61563   1.095  -0.299   2.796 -0.2076 -0.0695  0.2858
  467MOL0     C61564   1.785   0.294   3.236 -0.0442 -0.5287  0.6526
  467MOL0     C61565   1.915   0.337   3.209 -0.6118  0.4257  0.1916
  467MOL0     C61566   2.342   0.467   3.205 -0.0868 -0.1411  1.0771
  467MOL0     C61567   2.355   0.613   3.204 -0.4603  0.6471  0.1510
  467MOL0     C61568   2.467   0.674   3.165 -0.5386  0.6832 -0.3075
  467MOL0     C61569   2.583   0.602   3.125  0.0846 -0.9737 -0.2702
  467MOL0     O61570   2.710   0.654   3.086  0.4055 -0.0719 -0.5204
  467MOL0     C61571   2.720   0.796   3.090 -0.4870  0.1071 -0.0629
  467MOL0     C61572   2.854   0.834   3.023  0.1640 -0.3947  0.7657
  467MOL0     C61573   2.889   0.987   2.995  0.5688  1.4747 -0.3874
  467MOL0     C61574   3.032   0.999   2.938 -0.4031  0.2467 -0.0444
  467MOL0     C61575   3.068   1.144   2.893  0.6933  0.1035  0.4145
  467MOL0     C61576   3.109   1.243   2.837  0.1901  0.0491 -0.7071
  467MOL0     C61577   2.573   0.461   3.132  0.3755  0.3548 -0.2383
  467MOL0     C61578   2.460   0.395   3.179  0.3682  0.5140  0.1108
  467MOL0     H61579   1.940   0.558   3.480  0.7639 -0.2856  0.6650
  467MOL0     H61580   1.717   0.462   3.525 -2.2990  0.2078 -2.0966
  467MOL0     H61581   1.480   0.140   3.422  1.1264  1.6630  2.2553
  467MOL0     H61582   1.647   0.091   3.364 -3.1365 -3.2800  3.1878
  467MOL0     H61583   1.559   0.169   3.135  0.8381 -0.2351  1.3151
  467MOL0     H61584   1.406   0.205   3.218  1.1191  2.1440 -0.6522
  467MOL0     H61585   1.378  -0.037   3.294  0.2969 -1.6909  0.3551
  467MOL0     H61586   1.520  -0.070   3.192  1.5576  2.8689 -1.6129
  467MOL0     H61587   1.288   0.088   3.071  1.9718  1.7546  2.0416
  467MOL0     H61588   1.416   0.015   2.973  3.8230 -0.5325  2.9414
  467MOL0     H61589   1.178  -0.098   2.970  1.8512 -0.4175 -2.0104
  467MOL0     H61590   1.208  -0.125   3.142 -2.2948  1.1801 -1.1894
  467MOL0     H61591   1.444  -0.226   3.063  0.2753 -0.6029 -1.4908
  467MOL0     H61592   1.371  -0.235   2.904 -0.5198  2.1110  0.8553
  467MOL0     H61593   1.366  -0.446   3.031  3.8696  1.3938  3.4207
  467MOL0     H61594   1.282  -0.371   3.167  2.7774 -4.9506  0.4314
  467MOL0     H61595   1.082  -0.368   3.058  2.7352  1.7738  1.6162
  467MOL0     H61596   1.151  -0.530   3.017  2.0955  0.0868  0.5415
  467MOL0     H61597   1.241  -0.590   2.776 -0.7010 -0.3877 -3.0241
  467MOL0     H61598   1.228  -0.597   2.524 -0.6057  0.2918 -0.1986
  467MOL0     H61599   1.301  -0.440   2.481 -0.4134  1.1556  0.0294
  467MOL0     H61600   1.087  -0.355   2.377 -1.7972  0.0367  0.7259
  467MOL0     H61601   1.014  -0.518   2.391 -0.1819  1.3949 -1.1068
  467MOL0     H61602   1.267  -0.467   2.242  0.9946 -1.0513  2.0679
  467MOL0     H61603   1.191  -0.626   2.266 -1.7444  0.4162 -0.2966
  467MOL0     H61604   1.096  -0.578   2.054 -2.5299 -0.9525 -0.2829
  467MOL0     H61605   1.053  -0.404   2.111 -0.2286 -0.2749  0.6165
  467MOL0     H61606   0.791  -0.661   1.981 -1.6401 -0.4401 -0.1217
  467MOL0     H61607   0.649  -0.544   1.813  2.3643 -0.5141  0.3105
  467MOL0     H61608   0.439  -0.351   1.537 -0.3770  0.4246 -1.6683
  467MOL0     H61609   0.245  -0.247   1.398 -2.8238  0.6090 -0.8233
  467MOL0     H61610   0.155   0.073   1.509  0.9461 -1.2336  0.2127
  467MOL0     H61611  -0.023   0.087   1.478 -0.9956  0.5299 -1.7540
  467MOL0     H61612  -0.008   0.015   1.256 -1.8195  2.1208  1.2189
  467MOL0     H61613   0.159  -0.037   1.280 -2.7871 -3.0532 -0.9509
  467MOL0     H61614   0.199   0.219   1.323 -0.1811  2.9002 -1.9332
  467MOL0     H61615   0.027   0.236   1.301 -0.4280 -1.0851 -0.3010
  467MOL0     H61616   0.226   0.148   1.087  0.4770 -1.8243 -0.3074
  467MOL0     H61617   0.051   0.107   1.083 -0.3943  0.4205  2.0555
  467MOL0     H61618  -0.007   0.343   1.056  0.3062  0.0290 -2.3500
  467MOL0     H61619   0.123   0.328   0.949 -1.5749 -0.5156 -1.3003
  467MOL0     H61620   0.287   0.382   1.146  0.2175 -1.9000  2.3858
  467MOL0     H61621   0.153   0.434   1.241 -2.8344 -0.0700 -1.4158
  467MOL0     H61622   0.262   0.621   1.115 -0.0386 -0.3331  1.4121
  467MOL0     H61623   0.198   0.548   0.961  0.6601 -2.4663 -0.5360
  467MOL0     H61624   0.051   0.680   1.190 -0.0830 -2.3710  1.5761
  467MOL0     H61625  -0.034   0.599   1.071  0.6453 -1.8707  1.3362
  467MOL0     H61626   0.069  -0.116   1.751  1.3225  1.0867 -1.3038
  467MOL0     H61627   0.215  -0.245   1.896 -4.3144 -4.4869 -0.8781
  467MOL0     H61628   0.682  -0.187   2.077 -2.1952 -0.4382  1.6004
  467MOL0     H61629   0.878  -0.307   2.181 -2.5657  3.3462  0.4547
  467MOL0     H61630   1.741   0.225   3.165  0.1921  0.2785 -0.2941
  467MOL0     H61631   1.963   0.319   3.113  1.9747 -1.5359  1.7278
  467MOL0     H61632   2.267   0.673   3.225 -0.3955  0.6809  0.3299
  467MOL0     H61633   2.469   0.782   3.175  2.4195  0.5792  1.4164
  467MOL0     H61634   2.703   0.828   3.193 -2.1236 -1.8949  0.3760
  467MOL0     H61635   2.647   0.843   3.023  0.5670  1.6664 -0.1389
  467MOL0     H61636   2.928   0.787   3.089  0.9295  0.5964  0.6316
  467MOL0     H61637   2.858   0.781   2.928 -0.8244 -0.5533  0.8005
  467MOL0     H61638   2.871   1.044   3.087 -1.7175  0.7271 -0.2955
  467MOL0     H61639   2.815   1.029   2.927 -0.9053 -0.2774  0.0431
  467MOL0     H61640   3.106   0.974   3.015 -1.6694  3.0411  2.2360
  467MOL0     H61641   3.046   0.940   2.846 -0.0101 -0.4980  0.4828
  467MOL0     H61642   3.140   1.336   2.793 -0.9967 -0.0994 -1.9275
  467MOL0     H61643   2.661   0.402   3.106 -0.3292 -1.1540  0.6912
  467MOL0     H61644   2.453   0.288   3.195 -2.0404  0.7215  0.9149
  468MOL0     O61645   3.583   3.526   5.098  0.5962 -0.2525 -0.2524
  468MOL0     C61646   3.542   3.614   5.022  0.5926 -0.7732  0.0617
  468MOL0     O61647   3.417   3.660   5.034 -0.0625 -0.4690 -0.1081
  468MOL0     C61648   3.326   3.619   5.134  0.6985 -0.8198  0.0876
  468MOL0     C61649   3.359   3.592   5.263  0.8877 -0.0005  0.5206
  468MOL0     C61650   3.260   3.557   5.367 -1.6679 -0.5005  0.4065
  468MOL0     C61651   3.129   3.557   5.329  0.3335  0.5976  0.8528
  468MOL0     O61652   3.019   3.523   5.413  0.1283 -0.6332 -0.0446
  468MOL0     C61653   3.053   3.529   5.557 -0.0941 -0.4816  0.3712
  468MOL0     C61654   2.920   3.501   5.636 -0.2214  0.0202  0.4375
  468MOL0     C61655   2.934   3.484   5.784 -0.2950  0.3924 -0.6657
  468MOL0     C61656   2.800   3.497   5.858  0.0988 -0.1145  1.0483
  468MOL0     C61657   2.826   3.490   6.008 -0.3944  0.7843 -1.1362
  468MOL0     C61658   2.701   3.504   6.093  0.0800 -0.0589 -0.0148
  468MOL0     C61659   2.711   3.428   6.233  0.9395  0.6179 -0.1723
  468MOL0     C61660   2.792   3.490   6.355  0.0321 -0.3458 -0.8916
  468MOL0     N61661   2.795   3.401   6.473 -1.3828 -0.7213  0.4037
  468MOL0     C61662   2.884   3.307   6.505 -0.5837 -0.8576  0.5205
  468MOL0     C61663   2.848   3.264   6.633  0.3384 -1.2976 -0.2886
  468MOL0     C61664   2.895   3.142   6.695 -0.5357 -0.3858  0.2712
  468MOL0     C61665   3.034   3.161   6.768 -0.2446  0.4881 -0.3130
  468MOL0     C61666   3.032   3.296   6.843  0.0005  0.1699 -0.3067
  468MOL0     C61667   3.151   3.322   6.942 -0.3438  0.4646  0.7384
  468MOL0     O61668   3.286   3.304   6.890 -0.3452  0.0304  0.7637
  468MOL0     C61669   3.332   3.388   6.787  0.3576 -0.2824 -0.4606
  468MOL0     C61670   3.423   3.350   6.697  0.8017  0.3840 -0.6324
  468MOL0     C61671   3.483   3.425   6.590  0.4084 -0.5252  0.3811
  468MOL0     C61672   3.439   3.556   6.570 -0.5041  0.2126  0.9427
  468MOL0     C61673   3.498   3.658   6.465 -1.0556  0.7651 -0.4902
  468MOL0     O61674   3.593   3.619   6.381 -0.0413 -1.0033 -0.7034
  468MOL0     C61675   3.625   3.691   6.275 -0.1644 -1.0335  1.4301
  468MOL0     C61676   3.659   3.616   6.166 -0.2140  0.8276  0.4686
  468MOL0     C61677   3.690   3.678   6.049 -1.0881 -0.0791  0.6136
  468MOL0     C61678   3.723   3.811   6.044  0.4459  0.0747  1.1733
  468MOL0     O61679   3.768   3.844   5.916 -0.5244  0.8880  0.5982
  468MOL0     C61680   3.796   3.982   5.881 -0.2656 -0.4165 -0.9548
  468MOL0     C61681   3.675   4.068   5.859  0.6132 -0.0596  0.3573
  468MOL0     C61682   3.707   4.196   5.773 -0.1586 -0.0599  1.0168
  468MOL0     C61683   3.730   4.172   5.627  0.9755  0.3643 -0.7962
  468MOL0     C61684   3.710   4.293   5.544  0.4568  0.3594  0.5105
  468MOL0     C61685   3.720   4.269   5.399 -0.9406  0.0926 -0.4662
  468MOL0     C61686   3.603   4.191   5.340 -0.3493  0.2343 -0.1332
  468MOL0     C61687   3.633   4.143   5.196  0.0249 -0.6407  0.5948
  468MOL0    Cl61688   3.789   4.099   5.156 -0.1619 -0.1042  0.1644
  468MOL0     C61689   3.692   3.898   6.157  0.0514  0.7174  0.4830
  468MOL0     C61690   3.653   3.834   6.275  0.5243 -0.0734 -0.6890
  468MOL0     O61691   3.449   3.767   6.466  0.3289  0.7031 -0.0476
  468MOL0     C61692   3.334   3.596   6.663 -0.1067  0.0710 -0.5392
  468MOL0     C61693   3.286   3.518   6.766  0.4735  0.2827 -0.1944
  468MOL0     N61694   2.740   3.337   6.672  0.7025 -0.1996  0.0540
  468MOL0     N61695   2.709   3.410   6.571 -0.0381  0.2705 -0.7035
  468MOL0     C61696   3.088   3.570   5.191  0.3976  0.4035 -0.9213
  468MOL0     C61697   3.189   3.596   5.107 -0.2446  0.0195  1.0888
  468MOL0     C61698   3.618   3.676   4.922 -0.2064  0.1579 -0.3567
  468MOL0     C61699   3.725   3.611   4.878  0.8424 -0.2442 -0.2556
  468MOL0     C61700   3.814   3.668   4.791  0.8451  0.5636 -0.3214
  468MOL0     C61701   3.782   3.785   4.722 -1.1208 -0.2020 -0.4817
  468MOL0     O61702   3.854   3.841   4.616  0.1640 -0.2984 -0.1926
  468MOL0     C61703   3.980   3.779   4.569 -0.4753  0.5307  0.8634
  468MOL0     C61704   4.042   3.861   4.461  0.3235 -0.4418  0.0102
  468MOL0     C61705   3.949   3.902   4.347 -0.1919  0.5530 -0.0810
  468MOL0     C61706   3.877   3.774   4.281  0.6147  0.4505 -0.2282
  468MOL0     C61707   3.810   3.816   4.155 -0.0818 -0.3680 -0.0599
  468MOL0     C61708   3.779   3.886   4.053  0.0886  0.0687 -1.2668
  468MOL0     C61709   3.665   3.851   4.770  0.7361 -0.0715 -0.0107
  468MOL0     C61710   3.581   3.793   4.859 -0.6818  0.4285  0.6453
  468MOL0     H61711   3.463   3.599   5.291  3.5763  0.3536 -7.2384
  468MOL0     H61712   3.287   3.548   5.471  0.9137  0.6188 -0.1023
  468MOL0     H61713   3.088   3.627   5.590 -1.4577 -0.7106  2.7321
  468MOL0     H61714   3.130   3.452   5.568 -0.2538 -0.7552 -0.3493
  468MOL0     H61715   2.875   3.406   5.605 -0.7827 -0.3132  2.1354
  468MOL0     H61716   2.847   3.577   5.610  0.2117 -0.2238 -1.6124
  468MOL0     H61717   3.001   3.566   5.812  0.9735 -1.1805  1.2445
  468MOL0     H61718   2.979   3.386   5.807  1.8977  1.7931  1.5932
  468MOL0     H61719   2.744   3.585   5.824 -2.6337 -1.2520  2.2777
  468MOL0     H61720   2.732   3.416   5.833  1.2925 -1.0755  0.8258
  468MOL0     H61721   2.899   3.566   6.037 -0.5516  0.9248 -1.1094
  468MOL0     H61722   2.845   3.385   6.030  0.5446  1.6770  3.4773
  468MOL0     H61723   2.620   3.454   6.039  1.0326 -3.7417  1.6883
  468MOL0     H61724   2.660   3.606   6.097 -3.4378 -1.0809 -3.8284
  468MOL0     H61725   2.607   3.413   6.262  0.5150 -0.5171 -2.1357
  468MOL0     H61726   2.757   3.329   6.224 -0.5048 -0.0371 -0.5187
  468MOL0     H61727   2.731   3.575   6.388 -3.4751 -2.2713 -1.9790
  468MOL0     H61728   2.891   3.522   6.322  0.2499  2.4683  1.9954
  468MOL0     H61729   2.955   3.269   6.432 -0.7376  1.1056 -0.7400
  468MOL0     H61730   2.910   3.070   6.614 -0.1412  0.0184 -0.0218
  468MOL0     H61731   2.817   3.101   6.760  1.9725 -2.8255  1.9439
  468MOL0     H61732   3.114   3.163   6.694 -0.1190 -0.1523 -0.2014
  468MOL0     H61733   3.053   3.081   6.841 -2.7141  0.5294  0.4623
  468MOL0     H61734   3.019   3.384   6.780 -0.6384 -0.2094 -0.7217
  468MOL0     H61735   2.943   3.304   6.907 -1.1044  0.0568 -1.7703
  468MOL0     H61736   3.141   3.246   7.020  1.7097 -3.0238 -2.0855
  468MOL0     H61737   3.139   3.424   6.979  0.4820  1.1799 -0.8521
  468MOL0     H61738   3.457   3.249   6.717 -1.5853 -0.0935  1.6139
  468MOL0     H61739   3.563   3.379   6.532 -0.7704  0.3878 -2.1415
  468MOL0     H61740   3.653   3.508   6.168  3.2009  0.5123 -0.3251
  468MOL0     H61741   3.717   3.615   5.966  3.2498  0.1400  1.6205
  468MOL0     H61742   3.863   3.984   5.795 -1.4862 -0.5385 -1.9382
  468MOL0     H61743   3.850   4.029   5.964 -1.4083 -2.9142  1.3466
  468MOL0     H61744   3.628   4.097   5.954 -1.4673 -3.1047  0.3801
  468MOL0     H61745   3.599   4.020   5.798 -0.8969  0.4296  1.7963
  468MOL0     H61746   3.783   4.252   5.828 -0.7776 -0.6643  2.5395
  468MOL0     H61747   3.616   4.255   5.781  0.5698  1.1749  0.4026
  468MOL0     H61748   3.834   4.140   5.623  1.0207  0.6302 -3.5574
  468MOL0     H61749   3.665   4.092   5.590  1.3724  1.5724 -4.4782
  468MOL0     H61750   3.780   4.373   5.569 -0.0164  0.5940  1.1048
  468MOL0     H61751   3.607   4.324   5.566  0.4220  1.4438 -1.0018
  468MOL0     H61752   3.811   4.210   5.390 -0.6596  0.1366  1.6210
  468MOL0     H61753   3.741   4.363   5.347 -0.4156  0.5474  0.5406
  468MOL0     H61754   3.580   4.104   5.403 -0.7677  0.8628  0.5989
  468MOL0     H61755   3.506   4.241   5.338 -1.6351 -1.9941  1.4181
  468MOL0     H61756   3.608   4.207   5.111  0.1297 -2.0840 -0.5559
  468MOL0     H61757   3.571   4.057   5.172 -2.5639  1.0601  0.8134
  468MOL0     H61758   3.695   4.007   6.160  0.2824  0.7368 -0.3231
  468MOL0     H61759   3.651   3.904   6.359 -1.3996 -1.5924  0.6147
  468MOL0     H61760   3.309   3.700   6.651  1.7208  0.4583 -1.2549
  468MOL0     H61761   3.216   3.560   6.837  0.9494 -1.7599  1.5524
  468MOL0     H61762   2.986   3.563   5.156 -0.5460 -1.9454  1.8605
  468MOL0     H61763   3.157   3.625   5.008  3.1174  2.8191  0.6516
  468MOL0     H61764   3.760   3.522   4.929 -0.3934  0.4733  1.9863
  468MOL0     H61765   3.896   3.601   4.766 -0.9419 -1.4915 -0.9068
  468MOL0     H61766   3.952   3.682   4.527  1.0256  0.1703  0.6453
  468MOL0     H61767   4.052   3.760   4.650 -0.0495  0.1166  0.3907
  468MOL0     H61768   4.086   3.950   4.506 -0.4494 -0.4603  0.8241
  468MOL0     H61769   4.126   3.801   4.424 -0.9565 -2.5245  0.2932
  468MOL0     H61770   3.996   3.960   4.267 -1.3932 -1.6956 -2.5277
  468MOL0     H61771   3.872   3.965   4.392 -0.6656 -0.4890  0.6005
  468MOL0     H61772   3.943   3.691   4.254 -0.4015 -0.0902 -1.1146
  468MOL0     H61773   3.812   3.736   4.361  0.2020  2.3959  0.4271
  468MOL0     H61774   3.755   3.940   3.963 -3.1616 -1.0703 -1.2032
  468MOL0     H61775   3.656   3.954   4.737 -0.3843 -0.2742 -0.3956
  468MOL0     H61776   3.493   3.850   4.889 -1.1045 -0.9225  2.1295
  469MOL0     O61777   4.795   4.378   1.171  0.5344 -0.0834 -0.1403
  469MOL0     C61778   4.718   4.402   1.268 -0.3251 -0.0569  0.8419
  469MOL0     O61779   4.638   4.314   1.332  0.9009  0.7725 -0.1426
  469MOL0     C61780   4.633   4.184   1.281  0.2095  1.0327 -0.1326
  469MOL0     C61781   4.744   4.096   1.251  0.7673 -0.1011  0.3922
  469MOL0     C61782   4.714   3.966   1.211  0.2208 -0.0194 -0.6390
  469MOL0     C61783   4.582   3.901   1.210 -0.0039 -1.2230 -0.6249
  469MOL0     O61784   4.562   3.765   1.192  0.2129 -0.0431  0.7075
  469MOL0     C61785   4.426   3.710   1.184  0.4940  0.4094 -0.7569
  469MOL0     C61786   4.448   3.557   1.192 -0.0603 -0.8412  0.6623
  469MOL0     C61787   4.332   3.481   1.259 -0.0287  0.3965  0.4703
  469MOL0     C61788   4.369   3.333   1.277 -0.5954 -0.1818 -0.5110
  469MOL0     C61789   4.251   3.242   1.270  1.2946 -0.1728  0.7577
  469MOL0     C61790   4.308   3.110   1.228 -0.2632  1.4821 -0.1642
  469MOL0     C61791   4.182   3.010   1.226 -0.6792  0.2624  0.2294
  469MOL0     C61792   4.218   2.870   1.271  0.9115 -0.0293  0.4326
  469MOL0     N61793   4.310   2.809   1.168  0.8098  0.0974 -0.2994
  469MOL0     C61794   4.269   2.714   1.076  1.0334 -0.0636  0.6634
  469MOL0     C61795   4.388   2.683   1.018  0.2600 -0.6978  0.4015
  469MOL0     C61796   4.417   2.608   0.894 -0.8669 -0.4920 -0.4316
  469MOL0     C61797   4.314   2.644   0.790 -0.2027 -1.2134  0.8498
  469MOL0     C61798   4.320   2.551   0.664 -0.1717  0.5163  0.1157
  469MOL0     C61799   4.198   2.567   0.569  0.5925 -0.3117  0.1040
  469MOL0     O61800   4.192   2.460   0.477  0.4283 -0.3615 -0.0083
  469MOL0     C61801   4.086   2.484   0.386  0.2197  0.0811  1.0550
  469MOL0     C61802   4.001   2.596   0.379 -0.1319  0.8990  0.2648
  469MOL0     C61803   3.908   2.612   0.275  0.7946  0.0828 -0.0814
  469MOL0     C61804   3.903   2.514   0.175 -0.1963 -0.0829  0.9040
  469MOL0     C61805   3.793   2.527   0.075 -0.2091  0.4485  0.8869
  469MOL0     O61806   3.765   2.416   0.011  0.6739  0.6393 -0.0951
  469MOL0     C61807   3.639   2.411  -0.048 -0.4808 -0.8223  0.2794
  469MOL0     C61808   3.564   2.298  -0.012  0.3839  0.3467 -0.2601
  469MOL0     C61809   3.435   2.274  -0.077  0.6094  0.0839 -1.1073
  469MOL0     C61810   3.399   2.367  -0.173  0.3642  0.0182  0.0981
  469MOL0     O61811   3.284   2.355  -0.250 -0.1855 -0.5805 -0.4252
  469MOL0     C61812   3.196   2.244  -0.238  0.8997  0.4594 -1.3129
  469MOL0     C61813   3.042   2.250  -0.272 -0.1694 -0.5595 -0.1194
  469MOL0     C61814   3.028   2.324  -0.414  0.5951  0.1144 -0.0708
  469MOL0     C61815   3.071   2.253  -0.532  0.2697  0.4996  0.9006
  469MOL0     C61816   3.066   2.340  -0.659 -0.8123  0.3375  0.2358
  469MOL0     C61817   3.126   2.258  -0.783  1.0394  1.1207  0.3105
  469MOL0     C61818   3.112   2.325  -0.919  0.4338 -0.9103  0.1719
  469MOL0     C61819   3.167   2.247  -1.037  0.4092 -0.4937 -0.4746
  469MOL0    Cl61820   3.130   2.331  -1.193  0.2503 -0.1951 -0.2210
  469MOL0     C61821   3.477   2.473  -0.209 -0.5571 -0.2984  0.4195
  469MOL0     C61822   3.597   2.507  -0.144  0.1782 -0.0788 -0.5139
  469MOL0     O61823   3.731   2.639   0.073 -1.1986  0.3263 -0.1584
  469MOL0     C61824   3.996   2.413   0.172  0.2174 -0.2991 -0.8331
  469MOL0     C61825   4.081   2.395   0.277 -0.8225  0.8772 -0.0181
  469MOL0     N61826   4.486   2.765   1.068  0.3182  0.1209  0.0426
  469MOL0     N61827   4.441   2.831   1.167 -0.2686 -0.6739  0.5488
  469MOL0     C61828   4.479   3.991   1.234 -0.3164 -0.7121  0.2711
  469MOL0     C61829   4.504   4.126   1.261  0.5824  0.2033 -0.4913
  469MOL0     C61830   4.717   4.544   1.322 -0.1698  0.5053 -0.0729
  469MOL0     C61831   4.726   4.646   1.226  0.0177 -0.0761 -0.1660
  469MOL0     C61832   4.746   4.781   1.267 -0.6732 -0.3006 -0.1729
  469MOL0     C61833   4.767   4.810   1.402 -0.5080  0.3766 -0.9230
  469MOL0     O61834   4.800   4.935   1.458  0.3780  0.3090  0.0767
  469MOL0     C61835   4.834   5.044   1.369 -0.3432  0.8881 -0.3911
  469MOL0     C61836   4.865   5.163   1.463 -0.5294 -0.4319  0.9728
  469MOL0     C61837   4.745   5.235   1.514  0.3886 -0.0588 -0.1906
  469MOL0     C61838   4.764   5.377   1.556  0.5452  0.3453 -0.9249
  469MOL0     C61839   4.799   5.474   1.450 -0.0121 -0.5476 -1.1658
  469MOL0     C61840   4.824   5.551   1.360  0.2612 -0.8098  0.0632
  469MOL0     C61841   4.752   4.707   1.504 -0.1109  0.6472  0.0667
  469MOL0     C61842   4.727   4.573   1.461 -0.3023  0.5967 -0.7195
  469MOL0     H61843   4.844   4.139   1.254  0.4974  0.5216  0.8396
  469MOL0     H61844   4.803   3.905   1.198 -0.4362 -1.1648  0.0157
  469MOL0     H61845   4.381   3.739   1.088  3.8893 -1.5322 -3.1270
  469MOL0     H61846   4.362   3.743   1.266 -2.1568  1.3743 -3.0591
  469MOL0     H61847   4.545   3.525   1.232  1.1007  0.9165 -0.6374
  469MOL0     H61848   4.454   3.522   1.089 -2.4337 -0.6487  0.3942
  469MOL0     H61849   4.238   3.487   1.203 -0.3945  1.1431  1.1422
  469MOL0     H61850   4.305   3.507   1.362 -0.6297 -2.4378  1.1179
  469MOL0     H61851   4.441   3.303   1.200 -0.4260 -1.6233  0.1898
  469MOL0     H61852   4.410   3.313   1.376  1.0479  0.5269 -1.0146
  469MOL0     H61853   4.179   3.273   1.194  0.0179  2.2437  2.7946
  469MOL0     H61854   4.200   3.237   1.366  3.2875  1.3566  1.9925
  469MOL0     H61855   4.383   3.085   1.304  0.2122  3.1447 -0.0543
  469MOL0     H61856   4.354   3.113   1.129 -0.9679  3.2755 -0.4703
  469MOL0     H61857   4.114   3.035   1.308 -0.0598  0.2582  0.7516
  469MOL0     H61858   4.139   3.013   1.125  2.2598  2.6265 -1.1099
  469MOL0     H61859   4.129   2.809   1.292  0.9444 -1.3459 -2.6161
  469MOL0     H61860   4.273   2.870   1.365  3.4038 -0.6041 -0.9360
  469MOL0     H61861   4.172   2.669   1.059 -0.3022  1.6985  2.9565
  469MOL0     H61862   4.409   2.503   0.926 -0.2984 -0.4299 -0.0762
  469MOL0     H61863   4.521   2.612   0.858 -0.6609 -2.3999 -0.1700
  469MOL0     H61864   4.341   2.744   0.757 -0.3942 -0.6290  2.3800
  469MOL0     H61865   4.214   2.636   0.834  0.4649 -3.2419  2.1665
  469MOL0     H61866   4.408   2.559   0.600 -0.3626  0.5067 -0.1463
  469MOL0     H61867   4.311   2.458   0.721 -2.3794  1.6631  1.8464
  469MOL0     H61868   4.202   2.666   0.523 -0.6483 -0.0713  0.4853
  469MOL0     H61869   4.105   2.546   0.623 -0.2393 -3.0317 -2.1669
  469MOL0     H61870   3.993   2.679   0.448  0.7989  0.6772  0.6658
  469MOL0     H61871   3.842   2.698   0.278  2.2402  1.2072  0.3211
  469MOL0     H61872   3.605   2.215   0.044 -2.9427 -2.2224 -1.3416
  469MOL0     H61873   3.384   2.179  -0.067 -0.3177  0.7298  0.8749
  469MOL0     H61874   3.187   2.213  -0.133  1.0754  2.5557 -0.6301
  469MOL0     H61875   3.238   2.156  -0.287 -0.8263 -1.0473 -0.2504
  469MOL0     H61876   2.986   2.300  -0.193  0.5462  0.4584 -0.2327
  469MOL0     H61877   2.992   2.153  -0.266  1.2878 -1.3395  0.0507
  469MOL0     H61878   3.075   2.422  -0.422 -1.9464  1.3135 -1.8830
  469MOL0     H61879   2.921   2.346  -0.426  0.5175 -1.3085 -2.5845
  469MOL0     H61880   3.169   2.207  -0.518  0.4047  0.0226 -1.3201
  469MOL0     H61881   2.992   2.181  -0.553  0.1585  1.5138 -3.0028
  469MOL0     H61882   3.128   2.430  -0.653  1.5134 -1.1336 -0.4808
  469MOL0     H61883   2.965   2.373  -0.687 -0.5924  3.5266  2.6694
  469MOL0     H61884   3.071   2.163  -0.792  1.1019  1.2254 -1.5883
  469MOL0     H61885   3.225   2.213  -0.774 -0.4198 -2.3478  0.8514
  469MOL0     H61886   3.007   2.349  -0.935  0.3534 -0.9534  0.6159
  469MOL0     H61887   3.164   2.421  -0.926 -1.1909  0.1258  1.5237
  469MOL0     H61888   3.111   2.153  -1.032  1.1960 -1.0724 -1.8252
  469MOL0     H61889   3.275   2.228  -1.036  0.6405  0.6187  1.8391
  469MOL0     H61890   3.445   2.541  -0.287  1.7387 -0.8397 -1.1142
  469MOL0     H61891   3.654   2.594  -0.176 -0.6149  1.2229  1.4111
  469MOL0     H61892   4.004   2.352   0.082  1.7948 -0.3407 -0.6919
  469MOL0     H61893   4.159   2.321   0.262  0.5000  2.4116 -1.1138
  469MOL0     H61894   4.377   3.965   1.210  0.4265 -1.7873 -1.9778
  469MOL0     H61895   4.421   4.185   1.297  0.4631  0.7784 -1.6676
  469MOL0     H61896   4.704   4.626   1.122  0.2387 -0.4647 -0.1400
  469MOL0     H61897   4.761   4.863   1.198 -0.0576 -1.3054 -1.2735
  469MOL0     H61898   4.749   5.066   1.302 -1.2024 -0.2084  0.2983
  469MOL0     H61899   4.924   5.026   1.310 -1.8085  1.8760 -3.1349
  469MOL0     H61900   4.925   5.129   1.548  0.6832 -2.7263 -0.7030
  469MOL0     H61901   4.926   5.232   1.405 -0.0311 -0.1978  1.7577
  469MOL0     H61902   4.715   5.175   1.601  0.4423  0.1639 -0.0179
  469MOL0     H61903   4.675   5.225   1.431 -0.0255 -3.5968  0.4074
  469MOL0     H61904   4.673   5.410   1.607  1.4064  2.7680 -0.7830
  469MOL0     H61905   4.842   5.390   1.633  2.2770  0.7182 -2.6532
  469MOL0     H61906   4.844   5.622   1.283  1.9414 -1.6191 -0.3022
  469MOL0     H61907   4.768   4.726   1.610  3.0724  2.6064 -0.6233
  469MOL0     H61908   4.730   4.508   1.547  0.8003  1.9296  0.3083
  470MOL0     O61909   2.824   1.884   8.795 -0.3325 -0.6808  0.1934
  470MOL0     C61910   2.926   1.825   8.829 -0.8376 -0.4549  0.7082
  470MOL0     O61911   2.930   1.697   8.887  0.2348  0.5011  0.5290
  470MOL0     C61912   2.816   1.660   8.954  0.4436 -0.1237 -0.2108
  470MOL0     C61913   2.795   1.735   9.078  0.3066 -0.1083 -0.3506
  470MOL0     C61914   2.687   1.698   9.169  0.2688 -0.3842  0.4064
  470MOL0     C61915   2.598   1.599   9.136  0.8704 -0.6502 -0.2349
  470MOL0     O61916   2.506   1.575   9.231  0.5324 -1.0336  0.2577
  470MOL0     C61917   2.420   1.477   9.203 -0.0978  0.8882 -0.5135
  470MOL0     C61918   2.338   1.457   9.342 -0.0366 -0.7753 -0.4350
  470MOL0     C61919   2.425   1.484   9.471 -0.4712  1.0080  0.3410
  470MOL0     C61920   2.340   1.478   9.603 -0.9393  0.0059  0.0576
  470MOL0     C61921   2.413   1.514   9.734 -0.1100  0.0550 -0.5697
  470MOL0     C61922   2.485   1.390   9.794 -0.0619  0.2917 -0.0621
  470MOL0     C61923   2.604   1.319   9.714 -0.3176  0.2712 -0.0596
  470MOL0     C61924   2.690   1.249   9.824 -0.5973 -0.9046  0.0337
  470MOL0     N61925   2.621   1.140   9.883 -0.7944 -0.0781  0.9066
  470MOL0     C61926   2.582   1.026   9.826 -0.6098  0.4573  0.1206
  470MOL0     C61927   2.505   0.963   9.922  0.0103  0.4925 -0.6293
  470MOL0     C61928   2.439   0.833   9.902  2.1317  0.5274 -0.4901
  470MOL0     C61929   2.286   0.854   9.882  0.0571 -0.5549 -0.7177
  470MOL0     C61930   2.234   0.981   9.807 -0.7929  0.5011 -0.0551
  470MOL0     C61931   2.293   1.022   9.673 -0.1068  0.1532  0.9220
  470MOL0     O61932   2.342   0.905   9.610 -0.2063  0.2642 -0.9203
  470MOL0     C61933   2.409   0.929   9.495 -0.7912 -0.3719 -0.5138
  470MOL0     C61934   2.422   1.050   9.428 -0.0237  0.7402  0.0488
  470MOL0     C61935   2.501   1.061   9.309 -0.2215  0.2501  0.1769
  470MOL0     C61936   2.557   0.954   9.247 -1.0446  0.5840  0.4902
  470MOL0     C61937   2.622   0.960   9.118  0.3606 -0.0800 -0.9590
  470MOL0     O61938   2.671   1.087   9.094  0.4828  0.3530  0.1732
  470MOL0     C61939   2.758   1.117   8.991  0.9845  0.9609 -0.2358
  470MOL0     C61940   2.779   1.046   8.874 -0.2673  0.5640 -0.6057
  470MOL0     C61941   2.871   1.104   8.784 -0.5469  0.9918  0.8284
  470MOL0     C61942   2.936   1.224   8.798 -1.2220  0.0697  0.6558
  470MOL0     O61943   3.005   1.277   8.691  0.4927 -0.6153 -0.1088
  470MOL0     C61944   3.051   1.408   8.691 -0.6286 -1.0699 -0.6732
  470MOL0     C61945   3.135   1.444   8.564  0.3815 -0.0736 -0.2079
  470MOL0     C61946   3.229   1.569   8.585  0.4415  0.7035  0.0552
  470MOL0     C61947   3.321   1.610   8.469 -0.6669  0.1949  0.2471
  470MOL0     C61948   3.249   1.582   8.331 -0.5688 -0.2210 -0.6643
  470MOL0     C61949   3.346   1.591   8.225 -0.1124  0.6728 -0.2588
  470MOL0     C61950   3.418   1.456   8.200  0.1957  0.0146  0.5329
  470MOL0     C61951   3.514   1.477   8.087 -0.0419  0.3393  0.8756
  470MOL0    Cl61952   3.675   1.432   8.139  0.2112  0.3332 -0.2082
  470MOL0     C61953   2.902   1.300   8.909 -0.3990 -0.0299 -0.1364
  470MOL0     C61954   2.810   1.254   8.997 -0.3766 -0.5890 -0.3309
  470MOL0     O61955   2.641   0.861   9.052 -0.2715 -0.1873 -0.6156
  470MOL0     C61956   2.525   0.831   9.304  0.8882  0.3902  0.3586
  470MOL0     C61957   2.460   0.822   9.422 -0.3407 -0.4469 -0.2491
  470MOL0     N61958   2.506   1.042  10.039  0.1848 -0.0642  0.4848
  470MOL0     N61959   2.578   1.143  10.009  0.5566 -0.0927  0.2392
  470MOL0     C61960   2.613   1.538   9.008  0.7376 -0.0310 -0.3951
  470MOL0     C61961   2.715   1.569   8.913  0.2729 -0.3008 -0.7063
  470MOL0     C61962   3.062   1.877   8.793  0.1058 -0.0063 -0.5675
  470MOL0     C61963   3.183   1.825   8.846 -0.0297  0.6955  0.6187
  470MOL0     C61964   3.304   1.882   8.801 -0.1417 -0.2947 -0.8770
  470MOL0     C61965   3.314   1.989   8.707  0.2723 -0.9004 -0.5987
  470MOL0     O61966   3.443   2.042   8.686 -0.3777 -0.0706  0.2231
  470MOL0     C61967   3.441   2.165   8.611 -0.7552 -0.6537  0.3535
  470MOL0     C61968   3.573   2.236   8.627 -0.6425  0.2031 -0.0970
  470MOL0     C61969   3.702   2.142   8.621 -0.6225 -0.9517 -0.0956
  470MOL0     C61970   3.730   2.076   8.485  0.2454  0.8471  0.3552
  470MOL0     C61971   3.710   2.172   8.378 -0.8360  0.0251  0.3247
  470MOL0     C61972   3.694   2.242   8.280 -0.0100 -0.6772  0.4034
  470MOL0     C61973   3.190   2.044   8.656  0.7783 -0.3630 -0.4740
  470MOL0     C61974   3.078   1.991   8.704 -0.2142 -0.3674 -0.2129
  470MOL0     H61975   2.864   1.809   9.116  0.0727 -0.7807  1.4568
  470MOL0     H61976   2.666   1.734   9.269  1.6694 -0.4553  0.7530
  470MOL0     H61977   2.467   1.385   9.167  1.6962  1.3854  0.4594
  470MOL0     H61978   2.348   1.504   9.125  0.1453  1.0339 -0.6876
  470MOL0     H61979   2.295   1.357   9.351 -2.0242  0.0243 -0.4186
  470MOL0     H61980   2.254   1.527   9.330  0.7078  0.2975  0.3550
  470MOL0     H61981   2.478   1.579   9.474  0.5736  0.4176  2.4627
  470MOL0     H61982   2.500   1.404   9.473 -1.4217  0.0620 -0.1768
  470MOL0     H61983   2.264   1.554   9.589 -0.8620 -0.1015 -1.0378
  470MOL0     H61984   2.299   1.376   9.600  0.8826 -0.7781  0.2801
  470MOL0     H61985   2.345   1.551   9.811 -0.8498  0.7704 -1.5342
  470MOL0     H61986   2.477   1.603   9.727 -1.8001  1.2555 -1.7609
  470MOL0     H61987   2.421   1.308   9.827  1.7782 -1.4760 -0.6972
  470MOL0     H61988   2.520   1.419   9.894  0.8476 -4.1637  1.1269
  470MOL0     H61989   2.562   1.238   9.654  0.1440  0.8843 -1.2299
  470MOL0     H61990   2.656   1.402   9.665 -2.1809  1.0709 -0.7637
  470MOL0     H61991   2.710   1.328   9.897 -3.7214  0.4785 -0.4699
  470MOL0     H61992   2.785   1.209   9.786  0.3970 -2.7375  3.8923
  470MOL0     H61993   2.608   1.003   9.724 -0.9046  1.3421 -0.1637
  470MOL0     H61994   2.453   0.769   9.990 -2.9114 -3.4930 -2.1462
  470MOL0     H61995   2.489   0.793   9.813 -0.9180 -2.1604 -1.1827
  470MOL0     H61996   2.250   0.857   9.986 -1.0291  4.2461 -0.9626
  470MOL0     H61997   2.252   0.768   9.824  1.1944 -0.0370 -2.2181
  470MOL0     H61998   2.132   0.945   9.790 -0.6069 -0.0397 -0.0160
  470MOL0     H61999   2.242   1.052   9.890 -1.2141 -1.1883  1.4892
  470MOL0     H62000   2.363   1.106   9.672  0.6893 -0.4945 -0.2887
  470MOL0     H62001   2.219   1.060   9.601  2.9691 -0.0520 -2.6585
  470MOL0     H62002   2.390   1.149   9.458 -1.1854  0.5404 -0.4752
  470MOL0     H62003   2.508   1.161   9.267 -2.4848  1.5348  2.5725
  470MOL0     H62004   2.733   0.949   8.857 -0.0180  0.0253  1.4816
  470MOL0     H62005   2.888   1.047   8.693  0.0740  2.4715 -0.0142
  470MOL0     H62006   3.119   1.414   8.776 -0.7999 -2.4700 -0.4222
  470MOL0     H62007   2.969   1.479   8.708  0.0807 -0.6078  1.0206
  470MOL0     H62008   3.061   1.468   8.486  3.1139 -0.7941 -3.2597
  470MOL0     H62009   3.192   1.355   8.536  3.4533  0.6689  2.9382
  470MOL0     H62010   3.296   1.547   8.668  0.2397  0.5258  0.1747
  470MOL0     H62011   3.174   1.659   8.615  0.0159 -0.4508  3.1909
  470MOL0     H62012   3.339   1.717   8.479 -2.8743  0.6254  0.2669
  470MOL0     H62013   3.414   1.553   8.471 -1.8346 -2.0136 -1.8959
  470MOL0     H62014   3.167   1.656   8.329 -2.6475 -2.3903 -3.0774
  470MOL0     H62015   3.191   1.490   8.325 -1.2583  0.1853 -0.4295
  470MOL0     H62016   3.415   1.671   8.254  0.1270  0.2102  0.4738
  470MOL0     H62017   3.295   1.628   8.135 -1.7614 -0.2320  0.2587
  470MOL0     H62018   3.453   1.421   8.297  2.0891 -0.6706 -0.3464
  470MOL0     H62019   3.344   1.382   8.167  1.9587 -0.5391 -2.5823
  470MOL0     H62020   3.519   1.583   8.060 -0.2392  0.6450  1.9945
  470MOL0     H62021   3.490   1.409   8.005 -4.7025  0.5629  1.7675
  470MOL0     H62022   2.933   1.403   8.927 -0.8009  0.5713 -2.5603
  470MOL0     H62023   2.766   1.330   9.061 -1.1761  0.9041 -2.5288
  470MOL0     H62024   2.556   0.742   9.251 -0.5885 -0.4160  0.8207
  470MOL0     H62025   2.447   0.724   9.468  1.1827  0.2608  1.8351
  470MOL0     H62026   2.547   1.462   8.967 -0.1058  0.1273  0.6399
  470MOL0     H62027   2.702   1.518   8.818 -0.6700 -1.2354 -0.1007
  470MOL0     H62028   3.170   1.730   8.898  1.3597 -0.4314 -0.9636
  470MOL0     H62029   3.396   1.849   8.849 -0.9598  0.7332  1.6069
  470MOL0     H62030   3.363   2.229   8.652 -1.6284 -2.5812  1.8981
  470MOL0     H62031   3.418   2.145   8.506  4.3291 -2.8981 -0.6561
  470MOL0     H62032   3.579   2.329   8.570  1.2885 -0.3493 -0.8860
  470MOL0     H62033   3.570   2.278   8.728 -0.9206 -3.0939  1.3997
  470MOL0     H62034   3.704   2.058   8.692 -3.2627 -0.9153  0.1166
  470MOL0     H62035   3.790   2.203   8.642 -0.6230 -1.7090  2.4479
  470MOL0     H62036   3.833   2.041   8.493 -0.7447 -2.2922  0.6665
  470MOL0     H62037   3.677   1.981   8.472  1.9157  0.0627 -1.3465
  470MOL0     H62038   3.652   2.312   8.211 -0.2193 -1.1108  0.0902
  470MOL0     H62039   3.170   2.122   8.583 -1.5298  0.6831  1.1586
  470MOL0     H62040   2.985   2.041   8.677 -0.2310  2.5077  4.0790
  471MOL0     O62041   4.848   2.985   2.120  0.5582 -0.1237  0.0318
  471MOL0     C62042   4.833   3.101   2.165  0.1902  0.4911 -0.2678
  471MOL0     O62043   4.711   3.175   2.183 -0.8067  0.8594 -0.6233
  471MOL0     C62044   4.595   3.101   2.198  0.4786 -0.6548 -0.0987
  471MOL0     C62045   4.475   3.145   2.142  0.0745 -0.5110  0.6319
  471MOL0     C62046   4.358   3.072   2.142 -0.7964  0.3532 -0.2268
  471MOL0     C62047   4.362   2.950   2.199 -0.1294 -0.4246  0.1949
  471MOL0     O62048   4.258   2.861   2.201 -0.0849 -0.0297  0.0312
  471MOL0     C62049   4.146   2.926   2.268  0.0424 -0.6098  0.6142
  471MOL0     C62050   4.167   2.929   2.421 -0.0251  0.6010 -0.4370
  471MOL0     C62051   4.027   2.924   2.485 -0.7187  1.3662  0.1227
  471MOL0     C62052   4.013   2.917   2.634  0.6628  0.0528 -0.2432
  471MOL0     C62053   3.868   2.876   2.678 -0.2518 -0.5234 -0.6817
  471MOL0     C62054   3.851   2.722   2.668 -0.5286  0.0831  0.9372
  471MOL0     C62055   3.711   2.677   2.718 -0.3144 -0.8821  0.2454
  471MOL0     C62056   3.664   2.566   2.619  0.4131 -0.2741 -0.7735
  471MOL0     N62057   3.592   2.462   2.695 -0.2048  0.2374  0.3163
  471MOL0     C62058   3.649   2.353   2.751 -0.3098  0.0645  0.2319
  471MOL0     C62059   3.574   2.316   2.857 -0.2813  0.5709  0.8097
  471MOL0     C62060   3.569   2.205   2.958 -1.1370 -0.7486  0.5321
  471MOL0     C62061   3.440   2.125   2.949  0.5783  0.2727  0.7827
  471MOL0     C62062   3.460   2.012   3.048 -0.7517  0.2341 -0.6169
  471MOL0     C62063   3.329   1.921   3.057 -0.7960  0.3599 -0.0690
  471MOL0     O62064   3.362   1.778   3.081  0.5301 -0.5505 -0.1276
  471MOL0     C62065   3.260   1.689   3.113 -0.3861  0.2821 -0.4390
  471MOL0     C62066   3.122   1.720   3.085 -0.4007 -0.7462  0.4081
  471MOL0     C62067   3.021   1.627   3.096  0.1075  0.4450 -1.0953
  471MOL0     C62068   3.049   1.497   3.120  0.0745  0.1236 -0.0497
  471MOL0     C62069   2.940   1.391   3.133  0.1374 -0.0986  0.7570
  471MOL0     O62070   2.809   1.449   3.127 -0.6255  1.0837  0.1899
  471MOL0     C62071   2.712   1.357   3.143 -0.8735 -0.0804  0.4572
  471MOL0     C62072   2.662   1.277   3.037  0.3156  1.2733 -1.2926
  471MOL0     C62073   2.553   1.197   3.069  0.5581 -0.0959  0.0524
  471MOL0     C62074   2.498   1.183   3.198  0.2424  0.4379 -0.4525
  471MOL0     O62075   2.385   1.098   3.208 -0.2043 -0.0953  0.2007
  471MOL0     C62076   2.280   1.100   3.315  0.1151 -0.5121 -0.6458
  471MOL0     C62077   2.153   1.141   3.252  0.1010  0.1483  0.2348
  471MOL0     C62078   2.152   1.279   3.186  0.5626  0.3112 -0.8413
  471MOL0     C62079   2.018   1.304   3.123  1.2250  0.4729  0.1569
  471MOL0     C62080   2.025   1.422   3.028  0.1599 -0.2872  0.4689
  471MOL0     C62081   1.894   1.445   2.950 -0.0136  0.3351  0.1700
  471MOL0     C62082   1.858   1.588   2.932  0.0349 -0.0298  0.5191
  471MOL0     C62083   1.751   1.616   2.827  0.0384  0.6532  0.1286
  471MOL0    Cl62084   1.591   1.557   2.881 -0.4549  0.1657  0.2758
  471MOL0     C62085   2.548   1.260   3.299  0.4353  0.1892 -0.2317
  471MOL0     C62086   2.654   1.353   3.275  0.2930  0.0023 -0.3467
  471MOL0     O62087   2.970   1.277   3.143 -0.0508 -0.2618  0.3927
  471MOL0     C62088   3.186   1.463   3.147  0.2184  0.1901 -0.1860
  471MOL0     C62089   3.285   1.560   3.138  0.1863  0.4305 -0.9176
  471MOL0     N62090   3.466   2.393   2.854  0.0543 -0.2789 -1.0347
  471MOL0     N62091   3.479   2.492   2.769 -0.7541  0.5198  0.0531
  471MOL0     C62092   4.475   2.904   2.258  0.5012 -0.0541 -0.7497
  471MOL0     C62093   4.593   2.977   2.261  0.2949 -0.5873 -0.3488
  471MOL0     C62094   4.949   3.158   2.221 -0.2211 -0.2603 -0.5532
  471MOL0     C62095   5.055   3.083   2.280 -1.3921  0.1633 -0.2352
  471MOL0     C62096   5.166   3.144   2.341 -0.0651 -0.5229 -0.6144
  471MOL0     C62097   5.175   3.282   2.356  0.2879  1.2376 -0.9637
  471MOL0     O62098   5.270   3.346   2.431 -0.6380 -0.3241 -0.0194
  471MOL0     C62099   5.410   3.326   2.395  0.5545 -1.4827 -0.1650
  471MOL0     C62100   5.451   3.416   2.281 -0.2634  0.3343  0.6080
  471MOL0     C62101   5.493   3.559   2.318 -0.1222 -0.3214 -0.3327
  471MOL0     C62102   5.514   3.648   2.204 -0.5662  0.9710  0.4085
  471MOL0     C62103   5.494   3.780   2.249 -0.6095  0.2003  0.3166
  471MOL0     C62104   5.488   3.894   2.282  0.6324  0.0976 -0.0659
  471MOL0     C62105   5.078   3.360   2.289 -0.6408  1.2232 -1.4645
  471MOL0     C62106   4.963   3.300   2.241  0.8280 -0.0423 -0.5760
  471MOL0     H62107   4.473   3.247   2.105  0.8556 -1.0330 -0.9132
  471MOL0     H62108   4.269   3.113   2.095 -0.5104  0.3763 -0.7679
  471MOL0     H62109   4.054   2.870   2.250 -0.9521  1.1011  0.2272
  471MOL0     H62110   4.121   3.025   2.230 -1.4419 -1.6520 -1.3027
  471MOL0     H62111   4.229   3.004   2.471 -0.7195  0.9325 -0.0523
  471MOL0     H62112   4.199   2.830   2.455  0.4847  0.9054 -0.0170
  471MOL0     H62113   3.966   2.844   2.442 -0.1723  0.1363  1.5391
  471MOL0     H62114   3.987   3.023   2.463  2.1288  2.9990  1.6504
  471MOL0     H62115   4.081   2.839   2.670 -0.9778 -1.1175  0.4656
  471MOL0     H62116   4.050   3.009   2.680  1.1761 -1.1945  2.0174
  471MOL0     H62117   3.792   2.925   2.617 -1.3335 -1.5114 -0.1730
  471MOL0     H62118   3.856   2.913   2.780 -4.5814 -1.1498 -0.7939
  471MOL0     H62119   3.920   2.678   2.741  0.9284  0.3339 -0.2423
  471MOL0     H62120   3.876   2.695   2.565  3.8521 -0.5452  1.9740
  471MOL0     H62121   3.717   2.636   2.819 -2.9017  1.8407  1.6446
  471MOL0     H62122   3.644   2.763   2.723  0.8784  0.0197  2.5648
  471MOL0     H62123   3.745   2.521   2.560  0.3479 -0.1762 -0.9409
  471MOL0     H62124   3.596   2.620   2.552 -0.2649  1.5769  1.3134
  471MOL0     H62125   3.742   2.305   2.724  0.4309 -2.1717  5.4717
  471MOL0     H62126   3.579   2.249   3.057 -1.8352 -1.2161  0.8149
  471MOL0     H62127   3.652   2.143   2.922  1.9581  3.5879 -0.6403
  471MOL0     H62128   3.411   2.099   2.847 -0.3101 -0.8714  1.2926
  471MOL0     H62129   3.354   2.184   2.980  0.9964 -0.2022  3.0174
  471MOL0     H62130   3.543   1.951   3.013 -0.2714 -0.2888  1.3090
  471MOL0     H62131   3.481   2.051   3.148  1.6134 -0.9368 -0.5807
  471MOL0     H62132   3.278   1.927   2.960  0.0148  0.2539 -0.5103
  471MOL0     H62133   3.257   1.964   3.126 -1.5505 -0.4379 -0.3386
  471MOL0     H62134   3.089   1.820   3.061  0.2648 -0.0978  2.0464
  471MOL0     H62135   2.925   1.667   3.064 -0.5686  0.0857  0.4203
  471MOL0     H62136   2.682   1.300   2.932  0.8521  0.5047 -1.3595
  471MOL0     H62137   2.502   1.149   2.987  3.2643  0.9404 -2.3987
  471MOL0     H62138   2.312   1.168   3.394 -2.0572 -1.6504  1.3510
  471MOL0     H62139   2.263   1.006   3.368  1.9634  0.3878  1.7590
  471MOL0     H62140   2.073   1.135   3.326  0.7238  4.9521  1.6601
  471MOL0     H62141   2.128   1.067   3.176 -0.3394  0.7357 -0.2053
  471MOL0     H62142   2.225   1.270   3.105 -0.0144  2.4447 -1.6454
  471MOL0     H62143   2.193   1.369   3.233  3.1109 -0.8289 -0.7013
  471MOL0     H62144   1.977   1.212   3.080 -1.0486  1.7073 -0.4978
  471MOL0     H62145   1.944   1.307   3.204 -0.4462 -3.7472 -0.9200
  471MOL0     H62146   2.113   1.407   2.966 -1.1326 -1.3893 -1.1768
  471MOL0     H62147   2.037   1.514   3.086 -1.2475 -0.7146  1.4942
  471MOL0     H62148   1.810   1.402   3.005 -0.7081  0.3884 -0.8220
  471MOL0     H62149   1.905   1.396   2.853 -0.4517 -0.8324  0.6891
  471MOL0     H62150   1.816   1.627   3.026  1.2372 -1.2248  1.5902
  471MOL0     H62151   1.949   1.637   2.896  0.8437 -2.9392 -1.6901
  471MOL0     H62152   1.793   1.564   2.740  3.1930 -0.3351  2.0618
  471MOL0     H62153   1.735   1.724   2.821  0.4848  0.6214 -2.9135
  471MOL0     H62154   2.508   1.248   3.399 -1.6443 -0.5254 -1.1143
  471MOL0     H62155   2.716   1.407   3.346  0.9232  0.7183 -1.4207
  471MOL0     H62156   3.197   1.358   3.174 -0.8468 -0.1677 -1.0770
  471MOL0     H62157   3.387   1.531   3.162 -0.0950  1.5129  1.8732
  471MOL0     H62158   4.485   2.804   2.300  3.0452 -0.1751 -1.5008
  471MOL0     H62159   4.683   2.941   2.309 -1.0924 -0.7276  2.3689
  471MOL0     H62160   5.040   2.975   2.284 -1.6664  0.1839 -0.6277
  471MOL0     H62161   5.223   3.085   2.412 -0.4934  1.0799  1.1456
  471MOL0     H62162   5.420   3.220   2.370 -0.3222 -1.8862  1.1311
  471MOL0     H62163   5.474   3.351   2.480 -1.3993  2.2807  0.4134
  471MOL0     H62164   5.539   3.374   2.232  0.2385  3.4266 -1.4086
  471MOL0     H62165   5.375   3.414   2.203  0.2963 -2.3532  0.0203
  471MOL0     H62166   5.589   3.550   2.370 -1.2555  0.9026  2.1245
  471MOL0     H62167   5.415   3.609   2.376  1.3961  3.2277 -1.1018
  471MOL0     H62168   5.616   3.629   2.168 -0.6846 -0.8482  0.9253
  471MOL0     H62169   5.438   3.615   2.132 -1.1606 -0.1727  1.5241
  471MOL0     H62170   5.477   4.001   2.292  0.3123  0.2709 -1.9882
  471MOL0     H62171   5.095   3.466   2.304  1.7185  0.5254  2.0649
  471MOL0     H62172   4.883   3.366   2.210  2.0602  1.0581 -1.4724
  472MOL0     O62173  11.339   0.443   7.090 -0.8140  0.6217 -0.5585
  472MOL0     C62174  11.266   0.524   7.032  0.2782 -1.2477  0.0555
  472MOL0     O62175  11.292   0.587   6.914 -0.1134 -0.1281  0.2427
  472MOL0     C62176  11.411   0.549   6.851  0.5455  0.8563  0.1572
  472MOL0     C62177  11.384   0.504   6.724 -0.2555 -0.0799  0.2652
  472MOL0     C62178  11.493   0.472   6.639  0.4051 -0.4523  0.6196
  472MOL0     C62179  11.620   0.481   6.693 -0.5105  0.3945 -0.3326
  472MOL0     O62180  11.730   0.448   6.612 -0.8317 -0.4132 -0.3349
  472MOL0     C62181  11.858   0.510   6.628 -0.5162  0.1466 -0.4238
  472MOL0     C62182  11.937   0.528   6.493  0.5945 -0.3124 -0.9318
  472MOL0     C62183  11.993   0.395   6.442 -0.1363  0.2300  0.8234
  472MOL0     C62184  12.106   0.336   6.537  0.2314 -0.8815 -0.0914
  472MOL0     C62185  12.227   0.282   6.456  0.0131 -0.0722 -0.0641
  472MOL0     C62186  12.336   0.222   6.531 -0.6064 -0.7446  0.7582
  472MOL0     C62187  12.284   0.104   6.619 -0.0655 -0.2896 -0.3921
  472MOL0     C62188  12.315  -0.034   6.554  0.2582  0.4181 -0.1611
  472MOL0     N62189  12.337  -0.140   6.655 -0.3470 -0.8777 -0.0731
  472MOL0     C62190  12.239  -0.198   6.730 -0.1078 -0.2295 -0.2585
  472MOL0     C62191  12.307  -0.276   6.817  0.7022 -0.0734  0.2452
  472MOL0     C62192  12.248  -0.371   6.913  0.5383 -0.2434  0.4073
  472MOL0     C62193  12.122  -0.322   6.994 -0.1632 -0.0989  0.3305
  472MOL0     C62194  11.988  -0.357   6.919  0.1117  0.4693 -0.9933
  472MOL0     C62195  11.869  -0.318   7.003  0.0402 -0.6886  0.7585
  472MOL0     O62196  11.756  -0.366   6.923 -0.0528  0.0822 -0.3591
  472MOL0     C62197  11.653  -0.420   7.004 -0.0345 -0.2180  0.5654
  472MOL0     C62198  11.600  -0.545   6.972 -0.0716 -0.1522 -0.7650
  472MOL0     C62199  11.491  -0.593   7.049 -0.5833  0.2470 -0.1412
  472MOL0     C62200  11.450  -0.522   7.165  0.2385  0.7699 -0.5067
  472MOL0     C62201  11.356  -0.592   7.255 -0.4019  1.3155 -1.2356
  472MOL0     O62202  11.323  -0.710   7.226  0.9590  0.0580 -0.6002
  472MOL0     C62203  11.236  -0.780   7.312  0.3755 -0.8185  0.2048
  472MOL0     C62204  11.278  -0.893   7.375  0.3442  0.3902 -1.1353
  472MOL0     C62205  11.203  -0.961   7.468 -0.2956  1.6907 -0.9442
  472MOL0     C62206  11.076  -0.915   7.492  0.0717 -0.3374  0.0149
  472MOL0     O62207  11.000  -0.997   7.575 -0.2095  0.1413 -0.0862
  472MOL0     C62208  10.893  -0.940   7.650  0.7011 -0.6899  0.5964
  472MOL0     C62209  10.849  -1.043   7.760 -0.7257  0.3577 -0.9190
  472MOL0     C62210  10.836  -1.188   7.699  0.0066  0.2612  0.9417
  472MOL0     C62211  10.832  -1.275   7.823 -0.3314 -0.2938  0.1727
  472MOL0     C62212  10.842  -1.430   7.794  0.9511 -0.6443 -0.8056
  472MOL0     C62213  10.807  -1.504   7.926  0.2902 -0.3048  0.9772
  472MOL0     C62214  10.785  -1.653   7.898  0.3135  0.4460  0.6463
  472MOL0     C62215  10.766  -1.731   8.023 -0.2747 -1.1227  0.4991
  472MOL0    Cl62216  10.603  -1.718   8.076 -0.2150  0.0456  0.0824
  472MOL0     C62217  11.016  -0.810   7.414 -0.2027  0.3847  0.0959
  472MOL0     C62218  11.102  -0.738   7.331 -0.5494  0.3844 -0.1955
  472MOL0     O62219  11.318  -0.532   7.353 -0.8582  0.2675  0.2993
  472MOL0     C62220  11.505  -0.399   7.196 -0.7762  0.1267 -0.5868
  472MOL0     C62221  11.611  -0.351   7.117 -0.0817 -0.7047 -1.1190
  472MOL0     N62222  12.439  -0.277   6.770  0.7578 -0.6230 -0.2366
  472MOL0     N62223  12.459  -0.204   6.662  0.0516  0.2934 -0.3123
  472MOL0     C62224  11.646   0.527   6.825 -0.8642 -0.1937 -0.6583
  472MOL0     C62225  11.539   0.561   6.906  0.1671 -0.1979 -0.3654
  472MOL0     C62226  11.136   0.569   7.103  0.2946  0.5212  0.2022
  472MOL0     C62227  11.087   0.489   7.213 -0.1524 -0.1555 -0.1879
  472MOL0     C62228  10.980   0.528   7.287 -0.0375 -0.4135 -0.1783
  472MOL0     C62229  10.916   0.653   7.268  1.1903  0.3711  0.5577
  472MOL0     O62230  10.821   0.684   7.358  0.8806  0.1415  0.0442
  472MOL0     C62231  10.708   0.770   7.322  0.5364  0.0821  0.7119
  472MOL0     C62232  10.613   0.775   7.436 -0.6788  0.1385 -0.0237
  472MOL0     C62233  10.515   0.658   7.460  0.4285  0.3479 -0.9154
  472MOL0     C62234  10.432   0.699   7.581 -0.1408 -0.5365  0.5591
  472MOL0     C62235  10.326   0.609   7.601  0.5300  0.1339  0.2299
  472MOL0     C62236  10.236   0.534   7.629  0.8958  0.0502  0.7324
  472MOL0     C62237  10.967   0.737   7.170  0.1138  0.1128  0.1147
  472MOL0     C62238  11.062   0.690   7.078 -0.5847 -0.2687  0.3336
  472MOL0     H62239  11.277   0.502   6.706 -0.1026 -2.0388 -0.7277
  472MOL0     H62240  11.462   0.460   6.535 -4.8082  2.6682  1.4524
  472MOL0     H62241  11.923   0.449   6.691  0.4061  2.4264  0.9886
  472MOL0     H62242  11.855   0.605   6.682 -3.8629 -0.4765  0.6936
  472MOL0     H62243  12.017   0.602   6.503 -0.0969  0.6759 -2.4279
  472MOL0     H62244  11.860   0.574   6.430 -1.6820 -1.1295  1.0825
  472MOL0     H62245  12.039   0.418   6.345 -2.8835  1.7527 -0.2182
  472MOL0     H62246  11.924   0.313   6.421 -3.0477  2.9318 -0.9065
  472MOL0     H62247  12.163   0.407   6.597 -0.9362 -0.0892  0.1108
  472MOL0     H62248  12.059   0.268   6.608  0.7007 -2.8867 -1.6063
  472MOL0     H62249  12.264   0.359   6.388  0.2616  1.1667  1.4184
  472MOL0     H62250  12.184   0.206   6.390 -3.0406  2.1798 -0.9322
  472MOL0     H62251  12.376   0.297   6.599  1.3373 -0.7713 -0.2678
  472MOL0     H62252  12.419   0.191   6.467 -0.2260  0.4599  0.6492
  472MOL0     H62253  12.343   0.102   6.711 -2.0248 -1.4812  0.9152
  472MOL0     H62254  12.179   0.097   6.650 -0.7972  2.1093 -2.0356
  472MOL0     H62255  12.395  -0.045   6.479  1.1548 -3.0222  1.1073
  472MOL0     H62256  12.226  -0.065   6.500 -1.6926 -1.4015  3.7462
  472MOL0     H62257  12.131  -0.184   6.733 -0.0625 -0.0274  0.8748
  472MOL0     H62258  12.322  -0.400   6.988 -0.4657 -1.5470  0.9184
  472MOL0     H62259  12.225  -0.461   6.856 -2.2907  1.1506 -0.8070
  472MOL0     H62260  12.136  -0.215   7.010  4.2921 -0.5588  0.5791
  472MOL0     H62261  12.102  -0.373   7.089 -0.7525  1.0131  0.8271
  472MOL0     H62262  11.992  -0.318   6.816  1.3243 -1.0779 -1.5769
  472MOL0     H62263  11.982  -0.464   6.895  0.4463  0.0935  0.5063
  472MOL0     H62264  11.869  -0.211   7.026 -1.3429 -0.7694  1.1890
  472MOL0     H62265  11.883  -0.373   7.097  0.3943  0.3993  1.3650
  472MOL0     H62266  11.638  -0.603   6.888  2.6438  3.1494 -2.0284
  472MOL0     H62267  11.448  -0.688   7.020  1.3347 -0.2617 -1.5484
  472MOL0     H62268  11.380  -0.929   7.365 -0.0829 -1.5146  0.8085
  472MOL0     H62269  11.243  -1.051   7.514  0.6081  2.4369 -0.2362
  472MOL0     H62270  10.808  -0.921   7.583  1.3054  0.0204  0.0115
  472MOL0     H62271  10.918  -0.841   7.690 -2.6860  0.8638 -0.7230
  472MOL0     H62272  10.748  -1.011   7.786 -0.8199 -0.3008 -0.4430
  472MOL0     H62273  10.927  -1.035   7.837 -0.2818 -3.0326 -0.8725
  472MOL0     H62274  10.907  -1.222   7.623 -1.0136 -0.1759  0.1663
  472MOL0     H62275  10.739  -1.193   7.650  1.8724  1.0497 -3.2589
  472MOL0     H62276  10.894  -1.230   7.901  0.3504  2.1464 -1.6878
  472MOL0     H62277  10.735  -1.266   7.873 -0.8699  2.6182 -1.1927
  472MOL0     H62278  10.944  -1.464   7.773  2.4443  1.2001  2.5679
  472MOL0     H62279  10.763  -1.465   7.727 -0.0158 -1.3318  0.6276
  472MOL0     H62280  10.715  -1.470   7.974 -0.0370 -0.8866  0.7742
  472MOL0     H62281  10.883  -1.482   8.001  0.4671 -0.4207  0.8358
  472MOL0     H62282  10.697  -1.670   7.836  0.8341 -2.1796  0.5279
  472MOL0     H62283  10.871  -1.704   7.853  2.1459  0.0970  4.1649
  472MOL0     H62284  10.837  -1.702   8.102  2.0237  0.8107 -2.0848
  472MOL0     H62285  10.792  -1.833   7.993  2.2704 -0.9378  1.7923
  472MOL0     H62286  10.909  -0.791   7.416 -0.4393 -0.5218 -1.6572
  472MOL0     H62287  11.056  -0.664   7.266  2.3553  1.7839 -0.8599
  472MOL0     H62288  11.460  -0.350   7.281  0.0110  0.2170 -0.2132
  472MOL0     H62289  11.644  -0.251   7.144 -0.4462  0.1326 -3.5390
  472MOL0     H62290  11.741   0.553   6.870 -2.0152  1.8228  0.7675
  472MOL0     H62291  11.549   0.579   7.012  4.8102 -4.2415  0.2467
  472MOL0     H62292  11.137   0.398   7.245 -1.0047  0.0948  2.0630
  472MOL0     H62293  10.951   0.479   7.379  0.4073  0.7954  0.6262
  472MOL0     H62294  10.655   0.712   7.245 -2.0051  2.6422  0.3624
  472MOL0     H62295  10.742   0.868   7.289 -0.1593 -0.3880 -1.6260
  472MOL0     H62296  10.658   0.802   7.531 -0.6436  1.9572 -0.5258
  472MOL0     H62297  10.564   0.869   7.410 -0.6915  1.1834  3.3575
  472MOL0     H62298  10.569   0.568   7.492 -0.7558  0.5126  1.7670
  472MOL0     H62299  10.453   0.639   7.372  0.8377  1.1177 -1.3815
  472MOL0     H62300  10.497   0.708   7.669  2.1724 -0.5144 -1.0403
  472MOL0     H62301  10.392   0.796   7.552  1.9840  0.2027 -0.0945
  472MOL0     H62302  10.165   0.459   7.656 -0.1444  0.7476  0.0281
  472MOL0     H62303  10.928   0.838   7.158  3.4135  1.2584 -2.1985
  472MOL0     H62304  11.108   0.756   7.005  2.4396  0.2605  2.4884
  473MOL0     O62305   8.995   2.571   1.241  0.4159  0.9649 -0.0480
  473MOL0     C62306   8.927   2.629   1.323  0.6459 -0.0400 -0.0924
  473MOL0     O62307   8.955   2.636   1.455 -0.3844 -0.3051  0.7310
  473MOL0     C62308   9.061   2.565   1.507 -0.3765 -0.7370 -0.1423
  473MOL0     C62309   9.056   2.431   1.526  0.0148  0.1771 -0.2516
  473MOL0     C62310   9.157   2.369   1.602  0.8733  0.9669  0.0346
  473MOL0     C62311   9.262   2.443   1.661 -1.4921  0.3817  0.1128
  473MOL0     O62312   9.365   2.399   1.742 -0.5514  0.0580 -0.2454
  473MOL0     C62313   9.343   2.264   1.800  0.2397 -0.4794  0.0319
  473MOL0     C62314   9.476   2.239   1.876 -0.1276 -0.0945 -1.2581
  473MOL0     C62315   9.489   2.106   1.949  0.6433  0.3981 -1.1985
  473MOL0     C62316   9.635   2.082   1.994 -0.3032 -0.8353 -0.4772
  473MOL0     C62317   9.702   2.189   2.081 -0.2504 -0.0217  0.3690
  473MOL0     C62318   9.840   2.149   2.117 -0.5397 -0.0034  0.2982
  473MOL0     C62319   9.905   2.256   2.217  0.6558 -0.0406  1.0990
  473MOL0     C62320  10.048   2.221   2.238 -0.2620 -0.4082 -0.1050
  473MOL0     N62321  10.090   2.228   2.378 -0.2414 -0.5533 -0.0069
  473MOL0     C62322  10.063   2.123   2.463  1.3010 -0.4026  0.3827
  473MOL0     C62323  10.136   2.148   2.574  0.2778 -0.6035  0.1330
  473MOL0     C62324  10.150   2.039   2.677 -0.1475 -0.4973  0.1614
  473MOL0     C62325  10.271   1.959   2.665 -0.6341  0.3598  0.1534
  473MOL0     C62326  10.412   2.032   2.662 -0.3899  0.5788  0.7754
  473MOL0     C62327  10.519   1.922   2.669  1.0786 -0.8400 -0.2420
  473MOL0     O62328  10.530   1.861   2.795 -0.9160  0.7665  0.2657
  473MOL0     C62329  10.628   1.762   2.805 -0.0735 -0.3406 -0.1265
  473MOL0     C62330  10.699   1.701   2.698  0.6651 -0.1133  0.4824
  473MOL0     C62331  10.789   1.600   2.725 -0.2765  0.9476  0.5838
  473MOL0     C62332  10.806   1.550   2.855 -0.1667  0.8616 -0.8600
  473MOL0     C62333  10.877   1.423   2.888  0.2654  0.1958 -0.3202
  473MOL0     O62334  10.947   1.368   2.781 -0.3248  0.6673  0.7631
  473MOL0     C62335  11.044   1.271   2.811 -0.1070 -0.1348  0.1371
  473MOL0     C62336  11.169   1.325   2.841  0.0371 -0.3253 -0.6869
  473MOL0     C62337  11.275   1.241   2.884  0.2251  0.0919 -0.2269
  473MOL0     C62338  11.248   1.105   2.903 -0.7591  1.2885 -0.4995
  473MOL0     O62339  11.344   1.020   2.959  0.1345  0.0077  0.6989
  473MOL0     C62340  11.467   1.075   3.016  0.5084 -0.3616  0.0395
  473MOL0     C62341  11.545   0.961   3.090  0.2976 -0.9674 -1.0379
  473MOL0     C62342  11.458   0.889   3.193  0.0228  0.2036 -0.6921
  473MOL0     C62343  11.542   0.773   3.253  0.2355 -0.7381  0.0632
  473MOL0     C62344  11.450   0.658   3.291  0.7059  0.2739  0.6281
  473MOL0     C62345  11.521   0.564   3.389  0.4854  0.3790 -0.5262
  473MOL0     C62346  11.470   0.428   3.386  0.6927  0.0551  0.0960
  473MOL0     C62347  11.552   0.343   3.489  0.7143 -0.3642  0.0713
  473MOL0    Cl62348  11.700   0.289   3.402  0.2329 -0.2235  0.5822
  473MOL0     C62349  11.128   1.053   2.868  0.6218  0.0619  0.9267
  473MOL0     C62350  11.027   1.137   2.815 -0.6901 -0.3656  0.0580
  473MOL0     O62351  10.864   1.360   2.997 -0.4317 -0.3712  0.3442
  473MOL0     C62352  10.729   1.601   2.959 -0.3120  0.0635  0.3439
  473MOL0     C62353  10.647   1.707   2.930 -0.0469 -1.0799 -0.0112
  473MOL0     N62354  10.217   2.255   2.545 -0.0185  0.2593 -1.0565
  473MOL0     N62355  10.193   2.300   2.429 -0.0986 -0.1417  0.4878
  473MOL0     C62356   9.264   2.579   1.627 -0.5591  0.2614  0.8621
  473MOL0     C62357   9.163   2.645   1.550 -0.2662 -0.4654 -0.1517
  473MOL0     C62358   8.806   2.694   1.261  0.7668  0.0442 -0.8708
  473MOL0     C62359   8.793   2.715   1.122  0.8619  0.4332  0.6896
  473MOL0     C62360   8.665   2.745   1.067  0.2231 -0.3781 -0.4909
  473MOL0     C62361   8.559   2.782   1.146  0.1398 -0.3732 -0.9062
  473MOL0     O62362   8.448   2.818   1.071 -0.2220  0.3753  0.0130
  473MOL0     C62363   8.328   2.853   1.131 -0.0719 -0.2508  0.3147
  473MOL0     C62364   8.325   3.010   1.150  0.9788  0.1743  0.6888
  473MOL0     C62365   8.359   3.044   1.296 -0.2868  0.2291  0.2476
  473MOL0     C62366   8.340   3.184   1.352 -0.1769  1.2704 -0.0041
  473MOL0     C62367   8.201   3.227   1.357 -0.8323  0.8207  0.0258
  473MOL0     C62368   8.091   3.268   1.357  0.6914  0.3747 -0.0152
  473MOL0     C62369   8.582   2.772   1.287  0.1487  0.5051  0.6367
  473MOL0     C62370   8.693   2.722   1.341 -0.1076 -0.9605 -0.3285
  473MOL0     H62371   8.972   2.367   1.500 -0.0852 -0.6697  1.9066
  473MOL0     H62372   9.155   2.262   1.622  3.4918  0.3982 -2.1674
  473MOL0     H62373   9.349   2.182   1.727  1.0973 -0.7179  0.3573
  473MOL0     H62374   9.253   2.248   1.860 -0.4192  0.0710 -0.7917
  473MOL0     H62375   9.516   2.323   1.935  0.9289  0.1608 -2.2970
  473MOL0     H62376   9.563   2.237   1.810  3.5401 -3.3116  3.0213
  473MOL0     H62377   9.455   2.017   1.897  4.5655 -1.9756 -0.1468
  473MOL0     H62378   9.437   2.129   2.042  1.9603  2.5677 -0.9163
  473MOL0     H62379   9.633   1.989   2.052  3.6870 -1.2264 -0.6476
  473MOL0     H62380   9.695   2.063   1.905 -0.9139  1.9913 -1.6140
  473MOL0     H62381   9.650   2.232   2.167  0.6378 -0.4990  1.1780
  473MOL0     H62382   9.711   2.280   2.021 -4.1839  0.7773  0.7669
  473MOL0     H62383   9.900   2.157   2.026  0.3195  5.0585  0.9967
  473MOL0     H62384   9.848   2.052   2.167 -0.6955  1.2202  2.8741
  473MOL0     H62385   9.916   2.357   2.178  2.3114  0.5440  2.9010
  473MOL0     H62386   9.851   2.272   2.311  1.2365  1.5179  1.1936
  473MOL0     H62387  10.115   2.292   2.188  1.3205 -1.1893  0.8337
  473MOL0     H62388  10.076   2.123   2.200 -0.6499 -0.5991  0.0976
  473MOL0     H62389  10.006   2.033   2.446  0.4391  0.5408 -2.2411
  473MOL0     H62390  10.068   1.966   2.669 -0.2552 -0.3900  0.2701
  473MOL0     H62391  10.158   2.077   2.780 -4.5041  3.6630 -0.6576
  473MOL0     H62392  10.264   1.897   2.575 -0.9107  2.1660 -1.1154
  473MOL0     H62393  10.277   1.891   2.750  3.6817  1.3989  0.9107
  473MOL0     H62394  10.420   2.085   2.567  0.7037  0.0879  0.5844
  473MOL0     H62395  10.433   2.101   2.745 -0.7793  1.0250  0.5047
  473MOL0     H62396  10.614   1.967   2.636  1.6384 -1.2170  0.8108
  473MOL0     H62397  10.489   1.853   2.589 -0.2298 -1.3550  0.6674
  473MOL0     H62398  10.691   1.733   2.594  1.3314 -0.8632  0.1789
  473MOL0     H62399  10.846   1.550   2.647  1.4130  0.5782  1.9931
  473MOL0     H62400  11.172   1.433   2.830 -0.9529 -0.4494 -2.4516
  473MOL0     H62401  11.366   1.281   2.926  0.7325  0.2681 -1.4567
  473MOL0     H62402  11.448   1.153   3.091  1.8621 -1.0103  1.0997
  473MOL0     H62403  11.525   1.114   2.933  1.7262  0.0655  1.0617
  473MOL0     H62404  11.626   1.007   3.147  1.1646 -0.7070 -2.4298
  473MOL0     H62405  11.601   0.890   3.028  2.3580  1.3072 -1.9250
  473MOL0     H62406  11.378   0.847   3.132  1.0989 -0.5870 -1.5981
  473MOL0     H62407  11.419   0.947   3.277 -0.5983  0.2915 -1.0327
  473MOL0     H62408  11.622   0.736   3.189 -0.6115 -2.0893 -0.2479
  473MOL0     H62409  11.605   0.814   3.332 -1.2065 -0.2874  1.0189
  473MOL0     H62410  11.419   0.600   3.204  0.9620 -2.7714  2.3852
  473MOL0     H62411  11.358   0.694   3.338  0.1234 -0.3521 -0.0100
  473MOL0     H62412  11.523   0.590   3.495  3.1128  2.6871 -1.0177
  473MOL0     H62413  11.624   0.566   3.351 -0.0941 -1.5646 -2.4452
  473MOL0     H62414  11.369   0.428   3.427  1.1168 -2.0763  1.2844
  473MOL0     H62415  11.450   0.391   3.285  1.0388 -4.0773  1.3521
  473MOL0     H62416  11.483   0.261   3.511 -2.0880  1.3439 -1.7730
  473MOL0     H62417  11.577   0.403   3.577 -0.3260 -2.6381  2.0444
  473MOL0     H62418  11.110   0.947   2.876  1.3159 -0.1979 -0.5694
  473MOL0     H62419  10.933   1.104   2.774  0.3208 -1.0353 -1.8192
  473MOL0     H62420  10.726   1.555   3.057  1.0324 -0.8199  0.0020
  473MOL0     H62421  10.578   1.747   3.004 -3.3300 -0.0892 -3.2785
  473MOL0     H62422   9.344   2.633   1.676  0.7144  0.0905 -0.9406
  473MOL0     H62423   9.177   2.750   1.526 -2.1409  0.2392  1.5877
  473MOL0     H62424   8.878   2.689   1.059  0.3291  3.1592 -1.3072
  473MOL0     H62425   8.656   2.731   0.960  0.3583 -0.9378 -0.4325
  473MOL0     H62426   8.303   2.808   1.228  0.4748  2.8219  2.0453
  473MOL0     H62427   8.242   2.821   1.072  0.0290 -1.4538  0.8031
  473MOL0     H62428   8.375   3.072   1.075  0.7368 -0.1446  0.2543
  473MOL0     H62429   8.223   3.047   1.135  0.4490 -1.4786 -0.0059
  473MOL0     H62430   8.466   3.025   1.294 -0.7463 -2.8506 -1.0397
  473MOL0     H62431   8.316   2.971   1.365 -0.3436 -1.4578 -1.4915
  473MOL0     H62432   8.373   3.183   1.456 -0.5062  1.0598  0.1007
  473MOL0     H62433   8.409   3.248   1.296 -0.5413 -0.1433 -2.1629
  473MOL0     H62434   7.994   3.305   1.334 -1.2495 -4.8277 -1.6620
  473MOL0     H62435   8.496   2.795   1.349  1.2916 -1.7895  3.2742
  473MOL0     H62436   8.694   2.741   1.448 -1.4454  0.8246 -0.5998
  474MOL0     O62437   8.390  11.418   2.097 -0.1770 -0.5513  0.0773
  474MOL0     C62438   8.396  11.406   1.975 -0.7687  0.3392  0.6009
  474MOL0     O62439   8.308  11.343   1.896  0.5705 -1.2967 -0.1871
  474MOL0     C62440   8.185  11.321   1.957 -0.1184 -0.6315 -0.1462
  474MOL0     C62441   8.158  11.185   1.991 -0.3723 -1.7132 -0.0540
  474MOL0     C62442   8.035  11.148   2.043 -0.6675 -0.0784 -0.8252
  474MOL0     C62443   7.939  11.249   2.066  0.8225 -0.2608 -1.0007
  474MOL0     O62444   7.811  11.234   2.125 -0.1678 -0.0085 -0.1369
  474MOL0     C62445   7.737  11.119   2.106  0.4355  0.2104 -0.0960
  474MOL0     C62446   7.609  11.185   2.059  0.2884 -0.5013  0.2368
  474MOL0     C62447   7.494  11.087   2.055 -0.4426  0.1666 -0.6115
  474MOL0     C62448   7.364  11.165   2.021 -0.3630 -0.3782 -0.5288
  474MOL0     C62449   7.308  11.229   2.142 -0.3139  0.3911 -0.2377
  474MOL0     C62450   7.169  11.285   2.128 -0.1696 -0.0559 -0.0311
  474MOL0     C62451   7.184  11.428   2.083 -0.8780 -0.0352 -0.7332
  474MOL0     C62452   7.154  11.468   1.942  0.2176 -0.1206 -0.3196
  474MOL0     N62453   7.011  11.437   1.906 -0.9991  0.1025 -0.4000
  474MOL0     C62454   6.974  11.338   1.814 -0.8602  0.4061 -0.6557
  474MOL0     C62455   6.841  11.350   1.808  0.2497 -0.0459  1.1910
  474MOL0     C62456   6.763  11.278   1.707  0.0876  0.4367  0.8864
  474MOL0     C62457   6.764  11.127   1.729 -0.1300  0.4007  0.3299
  474MOL0     C62458   6.731  11.079   1.877 -0.3846  0.4675 -0.5343
  474MOL0     C62459   6.769  10.927   1.886 -0.7927 -0.5435 -0.3333
  474MOL0     O62460   6.911  10.908   1.902  0.2504  0.0480 -0.0993
  474MOL0     C62461   6.966  10.902   2.032  0.7238  0.2177  0.9318
  474MOL0     C62462   7.101  10.863   2.036  0.2410 -0.8012  0.2885
  474MOL0     C62463   7.165  10.850   2.159 -0.1274 -0.7629  0.2757
  474MOL0     C62464   7.094  10.886   2.275 -0.1571  0.3213 -0.7970
  474MOL0     C62465   7.162  10.882   2.411  0.3370 -0.0252 -0.0048
  474MOL0     O62466   7.094  10.939   2.511  0.4268 -0.1660 -0.9935
  474MOL0     C62467   7.133  10.945   2.638 -0.1127  0.8991 -0.6688
  474MOL0     C62468   7.087  11.045   2.721  0.3449  0.6440  0.4490
  474MOL0     C62469   7.115  11.032   2.858 -1.1916 -0.2769 -0.0208
  474MOL0     C62470   7.194  10.933   2.914 -0.5243  0.0239 -0.1741
  474MOL0     O62471   7.241  10.930   3.047 -0.8511 -0.4568  0.2010
  474MOL0     C62472   7.184  11.018   3.135 -1.2190 -1.2983  0.0185
  474MOL0     C62473   7.218  10.982   3.276  0.6925  0.4311  0.1840
  474MOL0     C62474   7.098  11.013   3.368 -0.3057  0.1486 -0.1521
  474MOL0     C62475   7.139  11.018   3.510 -0.2972 -0.6474 -0.7277
  474MOL0     C62476   7.025  10.996   3.613  0.6944  0.6707  0.0311
  474MOL0     C62477   6.902  11.090   3.597 -0.4769  0.2072  0.4539
  474MOL0     C62478   6.794  11.042   3.694  0.3477 -0.7649 -0.1743
  474MOL0     C62479   6.661  11.121   3.709  0.0410  0.3351  0.7176
  474MOL0    Cl62480   6.566  11.099   3.870  0.2228  0.2531 -0.5250
  474MOL0     C62481   7.225  10.824   2.831 -0.9601  0.0538  0.5165
  474MOL0     C62482   7.185  10.831   2.701 -1.5806 -0.0913 -0.0296
  474MOL0     O62483   7.278  10.827   2.418 -0.2029 -0.7770  0.0545
  474MOL0     C62484   6.958  10.923   2.269  0.2120  0.6796  0.9255
  474MOL0     C62485   6.898  10.928   2.145  0.3559  0.5427 -0.8661
  474MOL0     N62486   6.803  11.471   1.864  0.0759 -0.1299 -0.2124
  474MOL0     N62487   6.914  11.522   1.921  0.1027  1.3680  0.5680
  474MOL0     C62488   7.964  11.383   2.035 -0.7150  0.2751 -0.2437
  474MOL0     C62489   8.088  11.421   1.978  0.3919 -0.5334 -0.1007
  474MOL0     C62490   8.517  11.460   1.903 -0.2146 -0.6692 -0.0683
  474MOL0     C62491   8.527  11.445   1.761  0.6783  1.5205  0.9592
  474MOL0     C62492   8.619  11.522   1.692 -0.7768 -0.7906  0.6190
  474MOL0     C62493   8.719  11.596   1.758  0.6955  0.3864  0.2700
  474MOL0     O62494   8.803  11.668   1.677 -0.0935 -0.3864  0.9340
  474MOL0     C62495   8.884  11.772   1.733  0.5471 -0.5208  0.7961
  474MOL0     C62496   9.013  11.710   1.770 -0.7036 -0.2536 -1.4831
  474MOL0     C62497   9.103  11.815   1.838 -0.7867  1.2350  0.0281
  474MOL0     C62498   9.248  11.761   1.842  0.0178  0.4266 -0.1756
  474MOL0     C62499   9.312  11.837   1.947 -0.6285 -0.0945  0.2720
  474MOL0     C62500   9.377  11.881   2.041  0.0743  0.1032  0.2050
  474MOL0     C62501   8.714  11.595   1.898 -0.9584  0.2660 -0.0348
  474MOL0     C62502   8.617  11.525   1.971 -0.8331 -0.5551  0.1106
  474MOL0     H62503   8.237  11.112   1.974  0.9017 -0.2104 -0.8230
  474MOL0     H62504   8.010  11.047   2.071 -0.2239  0.4190  1.6057
  474MOL0     H62505   7.716  11.065   2.199 -2.4109  0.4899 -0.4877
  474MOL0     H62506   7.790  11.045   2.045  2.7896  1.6985  0.0440
  474MOL0     H62507   7.630  11.225   1.959  1.0735  2.2734  1.4115
  474MOL0     H62508   7.585  11.270   2.124  0.9155 -0.4635  0.4211
  474MOL0     H62509   7.488  11.027   2.146  1.8191 -1.6377 -1.5315
  474MOL0     H62510   7.517  11.022   1.969 -2.1508 -2.5838  0.8603
  474MOL0     H62511   7.377  11.241   1.943 -2.0578  1.0792  0.5431
  474MOL0     H62512   7.280  11.099   1.997 -0.3250 -1.3569  1.7752
  474MOL0     H62513   7.380  11.300   2.185 -1.8375  0.7589  1.8385
  474MOL0     H62514   7.300  11.143   2.208 -0.6597 -2.1325 -3.3257
  474MOL0     H62515   7.117  11.278   2.224 -1.4560 -2.2734 -0.8232
  474MOL0     H62516   7.118  11.224   2.054 -1.5332 -1.1075  1.6962
  474MOL0     H62517   7.115  11.483   2.148 -1.1081 -3.1666  1.9300
  474MOL0     H62518   7.278  11.480   2.100 -1.8436  2.0914 -1.5032
  474MOL0     H62519   7.232  11.423   1.879  1.5013  2.3006 -0.6165
  474MOL0     H62520   7.172  11.575   1.924  1.3381 -0.4047 -0.9923
  474MOL0     H62521   7.030  11.252   1.779  0.7886  1.6188 -1.1694
  474MOL0     H62522   6.809  11.295   1.608  1.8627 -2.6669  1.0504
  474MOL0     H62523   6.660  11.313   1.716 -0.5376 -1.6019  2.0662
  474MOL0     H62524   6.867  11.094   1.710  0.0380  0.2590  1.4210
  474MOL0     H62525   6.689  11.085   1.662 -0.1725  0.1781  0.5109
  474MOL0     H62526   6.782  11.139   1.953 -0.3411 -0.6331  0.3256
  474MOL0     H62527   6.623  11.080   1.891 -0.5157  4.2597 -0.6759
  474MOL0     H62528   6.738  10.869   1.799 -0.8871 -5.1216  2.4737
  474MOL0     H62529   6.702  10.888   1.964 -2.1529  0.1074 -1.1341
  474MOL0     H62530   7.154  10.852   1.942 -0.2969  0.7404 -0.2221
  474MOL0     H62531   7.273  10.843   2.155 -0.2501 -2.4325 -1.4935
  474MOL0     H62532   7.032  11.132   2.687  0.7748  0.1757 -1.6244
  474MOL0     H62533   7.083  11.122   2.909  2.3522  1.7199 -0.9722
  474MOL0     H62534   7.075  11.009   3.133 -1.4052  0.6263 -1.2951
  474MOL0     H62535   7.211  11.120   3.107 -1.2611 -2.0535 -3.1767
  474MOL0     H62536   7.310  11.035   3.304  0.5363  1.1786 -0.6649
  474MOL0     H62537   7.253  10.879   3.282  2.1743  0.8456 -0.6539
  474MOL0     H62538   7.010  10.954   3.342 -1.0000  0.2168  1.8534
  474MOL0     H62539   7.058  11.109   3.332 -0.8454 -0.4585 -1.2085
  474MOL0     H62540   7.208  10.938   3.538 -1.3833 -1.7899 -1.1972
  474MOL0     H62541   7.204  11.105   3.521  0.5298 -1.1791 -1.2792
  474MOL0     H62542   7.072  11.002   3.712  3.0748 -1.3840 -0.8915
  474MOL0     H62543   6.991  10.893   3.603  3.8224 -0.3709 -0.9247
  474MOL0     H62544   6.869  11.075   3.494  1.2475  1.2483 -0.2842
  474MOL0     H62545   6.941  11.191   3.611 -0.4723  0.4603 -1.2136
  474MOL0     H62546   6.768  10.937   3.674  0.4764 -0.6479 -0.9717
  474MOL0     H62547   6.839  11.037   3.794  0.6388 -2.7457 -0.3650
  474MOL0     H62548   6.594  11.089   3.629  2.0906  1.2117 -1.4794
  474MOL0     H62549   6.680  11.229   3.713  0.5480  0.3160 -0.5384
  474MOL0     H62550   7.284  10.748   2.881  0.7925  0.4519 -0.8434
  474MOL0     H62551   7.195  10.747   2.633 -2.3137  0.4544 -0.8361
  474MOL0     H62552   6.905  10.954   2.358  1.8520  0.3999  2.0431
  474MOL0     H62553   6.794  10.960   2.146 -0.6502 -2.4656  0.5778
  474MOL0     H62554   7.883  11.455   2.039  0.2237  1.5109 -2.1987
  474MOL0     H62555   8.114  11.522   1.951  0.1268  0.0418  1.6460
  474MOL0     H62556   8.464  11.379   1.702  1.9237  1.4876 -0.3820
  474MOL0     H62557   8.617  11.531   1.584  3.4818 -2.1639  0.2275
  474MOL0     H62558   8.838  11.819   1.820 -0.3762  1.4468 -0.6715
  474MOL0     H62559   8.902  11.858   1.668 -0.8459  0.3606  1.5310
  474MOL0     H62560   9.003  11.624   1.838  2.3105  0.7224  0.4379
  474MOL0     H62561   9.066  11.675   1.681 -0.8936 -0.3844 -1.5433
  474MOL0     H62562   9.062  11.831   1.938  0.5452 -1.2537  1.0755
  474MOL0     H62563   9.086  11.906   1.780 -0.2416  0.4733 -1.4056
  474MOL0     H62564   9.244  11.657   1.877  0.1928  0.2346 -0.7117
  474MOL0     H62565   9.314  11.775   1.756 -0.3732  3.7379 -0.0600
  474MOL0     H62566   9.426  11.921   2.127  0.7513 -0.4682  0.0880
  474MOL0     H62567   8.793  11.643   1.954 -1.0488  1.8468 -1.2053
  474MOL0     H62568   8.614  11.556   2.075 -2.8673  0.9456 -0.3258
  475MOL0     O62569   4.578   0.231   2.486 -0.8033  1.2767  0.3848
  475MOL0     C62570   4.613   0.282   2.380 -0.0739  0.2482 -0.6577
  475MOL0     O62571   4.729   0.246   2.311  0.7536 -0.0281  0.0749
  475MOL0     C62572   4.812   0.151   2.356 -0.2597 -0.2370  0.8646
  475MOL0     C62573   4.886   0.170   2.475 -0.5418  0.0334 -0.4735
  475MOL0     C62574   4.963   0.070   2.529 -0.1245  0.6440 -0.2438
  475MOL0     C62575   4.987  -0.048   2.465  0.1928 -0.0508 -0.1539
  475MOL0     O62576   5.078  -0.150   2.485  0.3667 -0.9333  0.5265
  475MOL0     C62577   5.207  -0.109   2.521 -0.1196 -0.5767  0.4425
  475MOL0     C62578   5.291  -0.222   2.586  0.3624  0.2039 -0.5369
  475MOL0     C62579   5.290  -0.348   2.507 -0.6981  0.0532  0.3112
  475MOL0     C62580   5.391  -0.451   2.551  0.8142  0.0258  0.2091
  475MOL0     C62581   5.531  -0.405   2.537  0.0538  0.1824 -0.2971
  475MOL0     C62582   5.551  -0.349   2.392  0.0965  0.7657 -0.0552
  475MOL0     C62583   5.698  -0.342   2.335  0.1656  0.4671 -1.0871
  475MOL0     C62584   5.685  -0.324   2.185 -0.4776 -0.6992 -0.3808
  475MOL0     N62585   5.610  -0.195   2.149 -0.3364  0.6875  0.1272
  475MOL0     C62586   5.612  -0.076   2.214  0.2343 -0.8463  1.1187
  475MOL0     C62587   5.520  -0.007   2.145  0.2756 -0.6993  0.3802
  475MOL0     C62588   5.492   0.134   2.179  1.0525 -0.3721  0.7330
  475MOL0     C62589   5.333   0.150   2.210 -0.4823  0.2581 -0.2031
  475MOL0     C62590   5.308   0.283   2.281  1.3936 -0.0274 -0.0354
  475MOL0     C62591   5.162   0.297   2.338  0.1775 -0.3697 -0.0044
  475MOL0     O62592   5.069   0.275   2.226 -0.7807 -0.5169 -0.4032
  475MOL0     C62593   5.019   0.393   2.178  0.0539  0.1804  0.2983
  475MOL0     C62594   4.950   0.483   2.257  0.4083  0.2898 -0.3928
  475MOL0     C62595   4.890   0.598   2.198  1.0289  0.2564  0.4669
  475MOL0     C62596   4.907   0.621   2.060 -0.0205 -0.6174  0.8999
  475MOL0     C62597   4.882   0.750   1.999 -0.4832 -0.6305  0.7235
  475MOL0     O62598   4.802   0.834   2.063  0.6218 -0.1975 -0.4034
  475MOL0     C62599   4.822   0.967   2.054 -0.1970 -0.6525  0.4347
  475MOL0     C62600   4.947   1.019   2.029 -0.2327 -0.3705  0.2697
  475MOL0     C62601   4.970   1.156   2.040 -0.7016 -0.7338  0.5932
  475MOL0     C62602   4.866   1.240   2.065  0.9366 -1.0024 -0.1815
  475MOL0     O62603   4.890   1.368   2.069  0.4183  0.3047 -0.4011
  475MOL0     C62604   4.869   1.410   2.199  0.6665 -0.7048 -1.0989
  475MOL0     C62605   4.965   1.530   2.217 -0.6803 -0.2304 -0.0304
  475MOL0     C62606   5.103   1.469   2.226  0.7720  0.7387  0.2646
  475MOL0     C62607   5.201   1.577   2.262  0.4964  0.3891  0.0160
  475MOL0     C62608   5.347   1.529   2.268  0.5804  0.4362 -0.6301
  475MOL0     C62609   5.459   1.638   2.241  0.7538 -0.3227  0.2176
  475MOL0     C62610   5.604   1.587   2.246  0.3919 -0.0470  0.1130
  475MOL0     C62611   5.678   1.617   2.383 -0.6448  0.3890  0.1861
  475MOL0    Cl62612   5.851   1.574   2.363 -0.5626  0.1044  0.5284
  475MOL0     C62613   4.737   1.194   2.074  1.0789  0.8928 -0.0077
  475MOL0     C62614   4.713   1.060   2.075  0.2401 -0.0044 -0.0260
  475MOL0     O62615   4.932   0.772   1.882 -1.3267  0.3418  0.5995
  475MOL0     C62616   4.966   0.529   1.978 -0.3944  0.3840 -0.2469
  475MOL0     C62617   5.007   0.409   2.035 -1.3788  0.0664  0.6733
  475MOL0     N62618   5.471  -0.082   2.044  0.2056  0.1634  0.6715
  475MOL0     N62619   5.523  -0.197   2.045 -0.2088  0.3059  0.1138
  475MOL0     C62620   4.907  -0.069   2.352  0.1894  0.3976  0.5021
  475MOL0     C62621   4.818   0.023   2.297 -1.0784 -0.2541 -0.8201
  475MOL0     C62622   4.529   0.396   2.334 -0.0569  0.9062  0.2565
  475MOL0     C62623   4.574   0.486   2.237 -1.0642 -1.4315  0.1479
  475MOL0     C62624   4.496   0.597   2.193  0.1979  0.9301 -0.7265
  475MOL0     C62625   4.375   0.625   2.262 -0.0579  0.5164  0.5076
  475MOL0     O62626   4.300   0.736   2.238  0.1207 -0.1939  0.2240
  475MOL0     C62627   4.351   0.860   2.295 -0.0897 -0.8112  0.0861
  475MOL0     C62628   4.334   0.860   2.446  0.6323  0.2657  0.1272
  475MOL0     C62629   4.421   0.972   2.505 -0.4011 -0.7447  0.2038
  475MOL0     C62630   4.389   0.997   2.652 -0.3042 -0.9998 -0.1814
  475MOL0     C62631   4.511   1.001   2.742  0.3677 -0.5430  0.4725
  475MOL0     C62632   4.604   0.999   2.811  0.1442 -0.0497 -0.1892
  475MOL0     C62633   4.336   0.537   2.361  0.1736  0.4708 -1.4899
  475MOL0     C62634   4.405   0.416   2.395 -0.2082  0.8960  0.6656
  475MOL0     H62635   4.866   0.263   2.526  0.6002 -0.2228  0.4859
  475MOL0     H62636   5.014   0.090   2.622 -0.4507  1.0587 -0.1505
  475MOL0     H62637   5.224  -0.024   2.588 -0.0440 -0.9101  0.8445
  475MOL0     H62638   5.246  -0.077   2.424 -2.9535  0.2230 -0.5475
  475MOL0     H62639   5.268  -0.248   2.689  3.6780 -3.7714 -0.5877
  475MOL0     H62640   5.392  -0.180   2.590  0.2839  0.9094 -3.4516
  475MOL0     H62641   5.307  -0.330   2.400 -1.2965 -2.4324 -0.2469
  475MOL0     H62642   5.187  -0.384   2.503 -1.1419  1.2461  0.3732
  475MOL0     H62643   5.366  -0.471   2.656 -1.2668 -1.2692 -0.4727
  475MOL0     H62644   5.375  -0.534   2.482  1.3800  0.3508 -0.3173
  475MOL0     H62645   5.603  -0.487   2.543  0.3016  0.2998 -1.3453
  475MOL0     H62646   5.562  -0.332   2.612  0.5394 -2.5183  2.3287
  475MOL0     H62647   5.514  -0.247   2.381 -2.0128  0.1113  0.4797
  475MOL0     H62648   5.498  -0.418   2.326  0.6215  0.8795 -0.5954
  475MOL0     H62649   5.756  -0.265   2.387  0.1576 -1.2974  1.7230
  475MOL0     H62650   5.758  -0.430   2.359  1.4158  1.9493  1.6386
  475MOL0     H62651   5.624  -0.406   2.147 -0.2081 -1.1882  0.2273
  475MOL0     H62652   5.783  -0.324   2.136  0.0829  1.1860  0.6272
  475MOL0     H62653   5.682  -0.041   2.290  3.2758 -1.4903 -1.1663
  475MOL0     H62654   5.502   0.201   2.094 -1.4714 -0.1915  0.5211
  475MOL0     H62655   5.558   0.169   2.260 -1.8327  0.9550  2.6963
  475MOL0     H62656   5.300   0.074   2.281 -2.7984  0.7843 -0.6075
  475MOL0     H62657   5.268   0.135   2.122 -3.9654 -0.8935  2.3413
  475MOL0     H62658   5.381   0.285   2.363  2.7438 -0.1448 -1.1973
  475MOL0     H62659   5.322   0.365   2.210  1.3593 -1.1351 -1.3513
  475MOL0     H62660   5.162   0.395   2.386  0.2778 -1.2569  1.8546
  475MOL0     H62661   5.150   0.231   2.424 -1.5180  0.0288  0.0971
  475MOL0     H62662   4.958   0.466   2.364  0.8860 -1.7754 -0.7094
  475MOL0     H62663   4.858   0.674   2.269 -0.2689 -0.7481  0.9906
  475MOL0     H62664   5.036   0.959   2.016 -0.1756 -0.7633  2.1317
  475MOL0     H62665   5.075   1.183   2.035 -0.1239 -3.0783 -2.4241
  475MOL0     H62666   4.897   1.343   2.281  0.7878  0.3553 -0.2464
  475MOL0     H62667   4.766   1.441   2.216  0.4401 -2.3517  1.0566
  475MOL0     H62668   4.940   1.586   2.307 -1.9078  0.5932 -0.8567
  475MOL0     H62669   4.953   1.593   2.128 -1.9639 -1.2314 -0.6056
  475MOL0     H62670   5.115   1.419   2.129 -1.8393  2.2660 -0.9569
  475MOL0     H62671   5.100   1.388   2.300  0.4895 -2.1057 -2.6071
  475MOL0     H62672   5.182   1.655   2.188 -0.6946 -0.4671 -0.6052
  475MOL0     H62673   5.168   1.620   2.357 -0.4746 -0.4387  0.0634
  475MOL0     H62674   5.369   1.444   2.202  1.7567  0.5209 -0.3735
  475MOL0     H62675   5.350   1.493   2.371 -1.9371  2.0779  0.1061
  475MOL0     H62676   5.448   1.719   2.313  3.3475  1.1591 -0.9273
  475MOL0     H62677   5.447   1.702   2.153 -1.9652  1.6379  1.8720
  475MOL0     H62678   5.611   1.479   2.234 -0.8244 -0.2323  0.9350
  475MOL0     H62679   5.670   1.621   2.166 -0.4485  0.0746 -0.5418
  475MOL0     H62680   5.641   1.572   2.476 -2.3870 -0.4044 -0.8394
  475MOL0     H62681   5.657   1.723   2.397 -2.8200 -0.0985  1.1484
  475MOL0     H62682   4.657   1.267   2.081  2.1240  1.9540  1.2328
  475MOL0     H62683   4.612   1.021   2.081  0.2675 -0.4091 -1.7931
  475MOL0     H62684   4.968   0.535   1.870 -2.1717  0.7056 -0.2905
  475MOL0     H62685   5.039   0.321   1.980  0.9348 -1.2372  3.8020
  475MOL0     H62686   4.911  -0.174   2.326 -1.5844  0.4059  0.0885
  475MOL0     H62687   4.749  -0.003   2.218 -0.6645 -0.0303 -1.2534
  475MOL0     H62688   4.673   0.469   2.195 -1.9484 -0.7621 -2.4239
  475MOL0     H62689   4.542   0.682   2.142 -1.0285  1.2761 -1.2927
  475MOL0     H62690   4.299   0.952   2.268  1.8499  0.7981  1.5253
  475MOL0     H62691   4.449   0.863   2.245 -1.6645 -0.4409 -3.2326
  475MOL0     H62692   4.233   0.892   2.474  0.6822  1.0203 -0.5120
  475MOL0     H62693   4.358   0.765   2.494  0.9705  2.5934  5.2596
  475MOL0     H62694   4.403   1.054   2.436 -1.4614 -2.7680 -2.0588
  475MOL0     H62695   4.529   0.953   2.499 -0.6579 -2.6592  0.8667
  475MOL0     H62696   4.344   1.096   2.651  0.5908 -0.5816 -0.4653
  475MOL0     H62697   4.313   0.927   2.688  0.2299 -0.8190  1.3911
  475MOL0     H62698   4.683   0.991   2.882  1.8490  0.2819 -1.9473
  475MOL0     H62699   4.244   0.580   2.398  0.3831 -0.5629  0.3520
  475MOL0     H62700   4.343   0.346   2.451 -0.1591  0.5548  0.2927
  476MOL0     O62701   2.970  10.010   7.444  0.3761 -0.3469 -0.6874
  476MOL0     C62702   3.016  10.067   7.542 -0.5241 -0.0370 -0.2047
  476MOL0     O62703   3.061  10.200   7.548  0.1970  0.8417 -1.0945
  476MOL0     C62704   3.111  10.249   7.437 -0.8948 -0.3583  0.6227
  476MOL0     C62705   3.161  10.186   7.327  0.6067  0.7274  0.6723
  476MOL0     C62706   3.232  10.256   7.224 -0.1949  0.9092 -1.3807
  476MOL0     C62707   3.250  10.393   7.221 -0.4433 -0.1473 -0.4168
  476MOL0     O62708   3.323  10.456   7.120  0.2875  0.1248 -0.5841
  476MOL0     C62709   3.255  10.561   7.036  0.0823  0.0761 -0.0179
  476MOL0     C62710   3.227  10.501   6.893  0.7192  0.7274 -0.1314
  476MOL0     C62711   3.130  10.380   6.904 -0.4857  0.1935  0.2142
  476MOL0     C62712   3.091  10.314   6.768  0.1682  0.6652 -0.2504
  476MOL0     C62713   3.106  10.161   6.752 -0.1369  0.1076 -0.5399
  476MOL0     C62714   3.039  10.090   6.864 -0.5630  0.3445 -0.5063
  476MOL0     C62715   3.017   9.939   6.841  0.6308  0.2154 -0.1957
  476MOL0     C62716   3.100   9.842   6.934  0.4669  1.0084  0.1889
  476MOL0     N62717   3.045   9.703   6.921 -0.1050 -0.2548  0.0473
  476MOL0     C62718   3.099   9.586   6.963  0.5446 -0.1784  0.3444
  476MOL0     C62719   3.013   9.489   6.927  0.1575  0.3156 -0.3359
  476MOL0     C62720   3.036   9.345   6.965 -0.9218 -0.9253  0.6697
  476MOL0     C62721   2.936   9.248   6.898  0.0879 -0.4567 -0.3880
  476MOL0     C62722   2.909   9.117   6.982  0.7885  0.3219  0.0206
  476MOL0     C62723   2.795   9.035   6.907  0.2242 -0.0230 -0.1659
  476MOL0     O62724   2.833   8.984   6.780  0.7790  0.3755 -0.1504
  476MOL0     C62725   2.924   8.883   6.780  0.6769 -0.1964  0.2910
  476MOL0     C62726   2.960   8.867   6.650  0.3680  0.2572 -0.1646
  476MOL0     C62727   3.065   8.781   6.613  0.8203 -0.4625 -0.0890
  476MOL0     C62728   3.133   8.705   6.714  1.2749 -0.4301  0.0777
  476MOL0     C62729   3.251   8.622   6.686  0.1622 -0.5232 -0.1974
  476MOL0     O62730   3.324   8.557   6.783 -0.7333 -0.5402 -0.5898
  476MOL0     C62731   3.430   8.480   6.747 -0.2301 -1.6651 -0.3586
  476MOL0     C62732   3.534   8.528   6.662  0.8516  0.5044 -0.7141
  476MOL0     C62733   3.631   8.438   6.624 -0.4927 -0.2672 -0.2901
  476MOL0     C62734   3.621   8.304   6.661 -0.2104  0.3640 -0.1272
  476MOL0     O62735   3.710   8.204   6.610 -1.3383 -0.3025 -0.3602
  476MOL0     C62736   3.838   8.231   6.555 -0.1540 -0.6882 -0.3555
  476MOL0     C62737   3.931   8.276   6.666 -1.4283 -0.6761 -0.4060
  476MOL0     C62738   3.914   8.193   6.785  0.7850 -0.5340 -0.6604
  476MOL0     C62739   4.049   8.180   6.853 -1.1948 -0.6824  0.0077
  476MOL0     C62740   4.059   8.087   6.973 -0.7131  0.4983  0.9314
  476MOL0     C62741   3.968   8.128   7.092 -0.3869  0.8324 -0.3675
  476MOL0     C62742   3.973   8.056   7.227  0.4483  0.5523 -0.5703
  476MOL0     C62743   3.973   7.894   7.235 -0.7930 -0.3437  0.9803
  476MOL0    Cl62744   4.015   7.846   7.404 -0.1604  0.4249  0.0662
  476MOL0     C62745   3.522   8.263   6.749 -0.3466 -0.3108  1.3917
  476MOL0     C62746   3.419   8.341   6.786 -0.3365 -0.1060 -0.4667
  476MOL0     O62747   3.266   8.608   6.567  0.3410  0.4348 -0.2285
  476MOL0     C62748   3.087   8.709   6.855 -0.0689  0.3801  0.4740
  476MOL0     C62749   2.992   8.810   6.881 -0.2231  0.0856 -0.3695
  476MOL0     N62750   2.891   9.550   6.885 -0.3502  0.1316  0.5763
  476MOL0     N62751   2.919   9.677   6.878  0.7205 -0.0721 -0.8293
  476MOL0     C62752   3.202  10.463   7.330  0.1678  0.2015  0.0770
  476MOL0     C62753   3.133  10.396   7.432 -0.6519  0.3896 -0.1842
  476MOL0     C62754   2.991   9.992   7.674 -0.0205 -0.3830  0.3177
  476MOL0     C62755   3.029  10.028   7.805 -0.6658  0.1446  0.9066
  476MOL0     C62756   2.994   9.955   7.918  0.0317  0.2514 -1.3852
  476MOL0     C62757   2.924   9.835   7.906  0.6609 -0.1068 -0.2367
  476MOL0     O62758   2.926   9.755   8.018  0.5051 -0.2658 -0.2892
  476MOL0     C62759   2.819   9.749   8.111  1.1005 -0.1000 -0.2008
  476MOL0     C62760   2.723   9.632   8.079  0.6963 -0.2701 -0.8592
  476MOL0     C62761   2.801   9.505   8.079 -0.0380 -0.2573  0.0006
  476MOL0     C62762   2.723   9.411   7.988 -0.0675 -0.5027  0.0713
  476MOL0     C62763   2.792   9.281   7.976 -0.3933 -0.1380 -0.1335
  476MOL0     C62764   2.850   9.176   7.962  0.1223  0.1479 -0.3954
  476MOL0     C62765   2.874   9.790   7.781 -0.1272 -0.6264  0.3774
  476MOL0     C62766   2.910   9.869   7.664 -0.4758 -0.6821 -0.2583
  476MOL0     H62767   3.168  10.077   7.324  3.5765  0.8004  1.8545
  476MOL0     H62768   3.277  10.188   7.151 -0.1697 -0.1204 -0.4317
  476MOL0     H62769   3.329  10.641   7.036 -0.3495  0.5065 -1.7579
  476MOL0     H62770   3.167  10.604   7.085  0.9001  1.5162  0.2358
  476MOL0     H62771   3.313  10.451   6.849 -1.2444 -0.8665 -2.4981
  476MOL0     H62772   3.191  10.582   6.828 -0.7990  0.6254  0.5258
  476MOL0     H62773   3.035  10.405   6.952  0.2320 -0.3930  2.0104
  476MOL0     H62774   3.186  10.309   6.964  0.4650  0.3883 -0.4189
  476MOL0     H62775   2.988  10.344   6.746  0.3877  1.8423  0.2631
  476MOL0     H62776   3.152  10.360   6.691 -1.4026  1.5033 -1.0541
  476MOL0     H62777   3.214  10.145   6.759  0.1172  2.0949  1.1812
  476MOL0     H62778   3.063  10.126   6.658 -1.3375  0.2581 -0.0604
  476MOL0     H62779   2.943  10.137   6.883  0.6106  2.6595  0.0077
  476MOL0     H62780   3.102  10.095   6.953  0.1579 -1.2583 -0.8656
  476MOL0     H62781   2.911   9.922   6.860  1.0136 -1.1623  0.8458
  476MOL0     H62782   3.038   9.917   6.736 -0.5900 -0.6442 -0.2804
  476MOL0     H62783   3.074   9.859   7.039  3.8765  1.3047  1.1314
  476MOL0     H62784   3.208   9.858   6.922  0.6044  0.0946  0.1640
  476MOL0     H62785   3.192   9.577   7.018 -0.0515  1.2299  1.6356
  476MOL0     H62786   3.035   9.334   7.074  3.2098 -1.6541  0.7900
  476MOL0     H62787   3.140   9.326   6.937 -0.5615  4.0726 -2.5338
  476MOL0     H62788   2.952   9.229   6.792 -1.2941  3.0014 -1.3513
  476MOL0     H62789   2.837   9.292   6.908 -0.2558 -1.1908 -0.5234
  476MOL0     H62790   2.999   9.056   6.967 -0.2621 -2.0415  2.4980
  476MOL0     H62791   2.884   9.125   7.088 -2.3431 -6.2153  0.2532
  476MOL0     H62792   2.703   9.091   6.891  0.3112  1.3805  3.3212
  476MOL0     H62793   2.768   8.951   6.972  0.7346  0.9026  1.3003
  476MOL0     H62794   2.909   8.918   6.568  0.8748 -0.6792 -1.0891
  476MOL0     H62795   3.079   8.771   6.506  0.1862  0.0688 -0.2302
  476MOL0     H62796   3.528   8.629   6.623 -2.0384 -0.1914 -2.4245
  476MOL0     H62797   3.715   8.483   6.573  0.1686  1.1672  1.9078
  476MOL0     H62798   3.827   8.321   6.494 -2.6115  0.2503  1.3325
  476MOL0     H62799   3.876   8.159   6.482 -1.9656  2.8104 -5.3195
  476MOL0     H62800   3.900   8.377   6.696 -2.0345 -1.3043  1.2047
  476MOL0     H62801   4.034   8.282   6.628 -0.9038  0.3703  1.0606
  476MOL0     H62802   3.878   8.092   6.763  0.2595 -0.1423 -1.6179
  476MOL0     H62803   3.840   8.233   6.855  1.4920  3.4021 -1.9376
  476MOL0     H62804   4.118   8.142   6.778 -0.2628  1.4664 -0.3010
  476MOL0     H62805   4.094   8.279   6.869 -1.5430 -0.6282  0.7145
  476MOL0     H62806   4.161   8.071   7.009 -0.3516  2.2805  0.7579
  476MOL0     H62807   4.019   7.990   6.941  3.5231 -1.2698  0.4631
  476MOL0     H62808   3.861   8.113   7.071 -0.6072 -1.9748  2.1731
  476MOL0     H62809   3.992   8.232   7.118  2.1889  0.6665 -1.7456
  476MOL0     H62810   4.067   8.081   7.278 -0.2362  1.7970  0.1243
  476MOL0     H62811   3.894   8.091   7.294  1.9153  0.3027  1.4120
  476MOL0     H62812   4.056   7.865   7.170  0.6219 -1.1812  3.0662
  476MOL0     H62813   3.885   7.856   7.183  2.8975 -5.5057 -2.4845
  476MOL0     H62814   3.524   8.156   6.765  2.4546 -0.3957  1.0723
  476MOL0     H62815   3.336   8.312   6.849  1.3407 -2.4425  0.8140
  476MOL0     H62816   3.129   8.648   6.934  1.2176  1.5097  0.6993
  476MOL0     H62817   2.956   8.810   6.983 -0.5582  3.0574 -0.4048
  476MOL0     H62818   3.197  10.571   7.320 -2.8825 -0.0589 -3.2232
  476MOL0     H62819   3.095  10.460   7.511 -1.1247 -0.1929  0.0681
  476MOL0     H62820   3.092  10.117   7.811  1.1542 -1.1038  1.2675
  476MOL0     H62821   3.030   9.994   8.013  1.7255  1.3935 -2.4357
  476MOL0     H62822   2.755   9.837   8.112  0.0732 -0.8281  0.5798
  476MOL0     H62823   2.861   9.745   8.212 -1.3115 -1.6895  0.8371
  476MOL0     H62824   2.644   9.622   8.153  0.7278 -0.2218 -0.8189
  476MOL0     H62825   2.678   9.650   7.981  0.1949  2.9964 -0.1458
  476MOL0     H62826   2.811   9.470   8.182 -1.2604  0.6374  0.4351
  476MOL0     H62827   2.900   9.508   8.032 -0.0612 -2.2535 -0.2653
  476MOL0     H62828   2.615   9.409   8.005 -0.1489  0.1182 -0.3470
  476MOL0     H62829   2.720   9.452   7.887  0.8135  0.7433  0.5283
  476MOL0     H62830   2.902   9.085   7.939  0.8626 -0.7594  3.9855
  476MOL0     H62831   2.836   9.689   7.768  3.2576 -1.9625 -0.3311
  476MOL0     H62832   2.860   9.836   7.574 -0.8749 -1.5474  0.2694
  477MOL0     O62833   4.406   3.507   3.178  0.8084  1.2518 -0.1822
  477MOL0     C62834   4.284   3.500   3.177  0.2315  0.3559  1.6113
  477MOL0     O62835   4.206   3.566   3.083  0.6681 -0.2093 -0.5869
  477MOL0     C62836   4.262   3.662   3.010  0.2978 -0.3342  0.3582
  477MOL0     C62837   4.361   3.632   2.916  0.8292  0.0022  0.8990
  477MOL0     C62838   4.384   3.735   2.819 -0.2095  0.3558  0.3310
  477MOL0     C62839   4.332   3.867   2.842  0.0688 -0.0985 -0.5909
  477MOL0     O62840   4.373   3.982   2.775  0.2313 -0.7643 -0.1153
  477MOL0     C62841   4.472   3.970   2.675  0.1277  0.7652 -0.6138
  477MOL0     C62842   4.487   4.102   2.592  0.3869  0.5437  1.0201
  477MOL0     C62843   4.610   4.187   2.612 -0.0654  0.7488  0.6086
  477MOL0     C62844   4.614   4.285   2.494 -0.8119 -0.5474  0.4236
  477MOL0     C62845   4.687   4.408   2.538 -0.2468  0.0606 -0.8299
  477MOL0     C62846   4.841   4.394   2.545 -1.3596 -0.0471 -0.1549
  477MOL0     C62847   4.917   4.506   2.606 -0.3347  0.1466  0.0630
  477MOL0     C62848   4.955   4.478   2.750  0.7058  0.4901  0.3324
  477MOL0     N62849   4.838   4.482   2.839  0.6090  0.5497  0.5979
  477MOL0     C62850   4.735   4.574   2.846 -0.3190  0.9778 -0.0919
  477MOL0     C62851   4.645   4.527   2.932  0.2477  0.4399  0.3128
  477MOL0     C62852   4.498   4.557   2.936 -0.7784  0.4632  0.0476
  477MOL0     C62853   4.434   4.518   2.807 -0.2726 -0.1481  0.4628
  477MOL0     C62854   4.423   4.638   2.706 -0.1195 -0.1946  0.1015
  477MOL0     C62855   4.386   4.606   2.561  0.5800  0.2833 -0.5495
  477MOL0     O62856   4.262   4.531   2.576  0.7186  1.0813 -0.1991
  477MOL0     C62857   4.239   4.446   2.470  0.2051  0.3745  0.2508
  477MOL0     C62858   4.166   4.334   2.495 -0.4841 -0.1960 -0.7302
  477MOL0     C62859   4.116   4.251   2.393 -1.4824  0.0358  0.5550
  477MOL0     C62860   4.141   4.276   2.256 -0.5746  0.5490  0.1383
  477MOL0     C62861   4.097   4.185   2.150 -0.4263  0.7268  1.0587
  477MOL0     O62862   4.034   4.065   2.197 -0.7911  1.1498  0.2744
  477MOL0     C62863   3.987   3.976   2.097  0.1505  0.0796 -1.7871
  477MOL0     C62864   3.911   3.871   2.152  0.6429 -0.2423  0.0856
  477MOL0     C62865   3.845   3.764   2.072 -0.6656  0.8130 -0.1223
  477MOL0     C62866   3.842   3.773   1.936 -0.4347 -0.8201 -0.3243
  477MOL0     O62867   3.782   3.671   1.861 -0.0087 -0.0129  0.2460
  477MOL0     C62868   3.822   3.669   1.718 -0.1087 -0.1373  0.7330
  477MOL0     C62869   3.727   3.560   1.660  0.0105  0.2386 -0.2599
  477MOL0     C62870   3.768   3.519   1.509  0.6984  0.5479 -1.5335
  477MOL0     C62871   3.920   3.495   1.487  0.1547  0.9373 -0.1109
  477MOL0     C62872   3.944   3.438   1.349 -0.5494 -0.5966  0.2564
  477MOL0     C62873   3.910   3.531   1.232 -0.0843 -0.1086  1.0482
  477MOL0     C62874   3.838   3.466   1.109 -0.8682  0.2583 -0.1809
  477MOL0     C62875   3.743   3.560   1.050 -0.4386  0.6162 -0.5018
  477MOL0    Cl62876   3.689   3.505   0.894  0.3024  0.0986  0.2504
  477MOL0     C62877   3.914   3.885   1.876  0.2782  0.3311 -0.6995
  477MOL0     C62878   3.987   3.976   1.955 -0.0069 -0.5199  0.1677
  477MOL0     O62879   4.105   4.227   2.031  0.1605  0.1025 -0.4613
  477MOL0     C62880   4.221   4.394   2.223  0.6141  0.9007 -0.7870
  477MOL0     C62881   4.253   4.476   2.332  0.6261  0.1934 -0.3503
  477MOL0     N62882   4.699   4.414   2.989 -0.2935 -0.3598 -1.1336
  477MOL0     N62883   4.813   4.390   2.938  1.1463 -0.4219  0.0631
  477MOL0     C62884   4.245   3.883   2.947  0.7671  0.2673  0.1817
  477MOL0     C62885   4.196   3.783   3.019  0.2407  0.5182 -0.1995
  477MOL0     C62886   4.214   3.419   3.284 -0.3027 -0.3613  0.9591
  477MOL0     C62887   4.297   3.343   3.373  0.2006  0.1334 -0.6326
  477MOL0     C62888   4.243   3.240   3.449 -0.0677 -0.6704  0.5738
  477MOL0     C62889   4.103   3.225   3.462 -0.7744 -0.5151 -0.5237
  477MOL0     O62890   4.036   3.135   3.539 -0.2076  0.1720  0.4096
  477MOL0     C62891   4.109   3.042   3.614  0.1449  0.2736 -0.6818
  477MOL0     C62892   4.004   2.968   3.701  0.5615 -1.1385  0.3473
  477MOL0     C62893   4.068   2.882   3.807  0.8070 -0.1264  0.9668
  477MOL0     C62894   3.979   2.869   3.929 -1.3197  0.4434  0.2380
  477MOL0     C62895   4.013   2.734   3.988  0.4393 -0.6577  0.5400
  477MOL0     C62896   4.027   2.624   4.035  0.0015  0.6195  0.2587
  477MOL0     C62897   4.024   3.314   3.380 -0.3491  0.5340 -0.1975
  477MOL0     C62898   4.076   3.402   3.295 -0.4875 -0.1934  1.0164
  477MOL0     H62899   4.397   3.533   2.888  1.3510  0.8842 -1.9005
  477MOL0     H62900   4.452   3.709   2.738 -0.6533 -0.7503  0.3099
  477MOL0     H62901   4.439   3.898   2.599 -2.0609  3.0581 -1.9832
  477MOL0     H62902   4.562   3.941   2.729 -0.3594  2.0586  0.9472
  477MOL0     H62903   4.386   4.144   2.590  0.2522  0.3304  2.5729
  477MOL0     H62904   4.494   4.063   2.489 -2.5080  0.2168  0.8521
  477MOL0     H62905   4.702   4.128   2.618  0.7615  2.1623  2.8218
  477MOL0     H62906   4.601   4.234   2.710 -0.3936  3.2002 -0.5206
  477MOL0     H62907   4.659   4.243   2.404  0.3498  1.2416  0.1294
  477MOL0     H62908   4.510   4.313   2.476 -1.4007 -1.1755  2.4744
  477MOL0     H62909   4.650   4.436   2.638 -0.5038  2.2986 -1.4912
  477MOL0     H62910   4.672   4.494   2.472  2.5603  0.2682 -1.2878
  477MOL0     H62911   4.881   4.371   2.446  1.0082  1.4097  0.3923
  477MOL0     H62912   4.871   4.308   2.607 -0.9124 -0.9381 -1.5465
  477MOL0     H62913   5.011   4.527   2.553 -0.0708  1.0904  0.8768
  477MOL0     H62914   4.867   4.603   2.603  1.1854  1.0442  1.7278
  477MOL0     H62915   5.010   4.558   2.800  0.3865 -0.4723  2.2945
  477MOL0     H62916   5.018   4.389   2.760 -1.8213 -1.6565 -1.3516
  477MOL0     H62917   4.724   4.666   2.788 -1.5058  0.1041 -1.3294
  477MOL0     H62918   4.497   4.666   2.941 -3.8921  0.5470 -0.4217
  477MOL0     H62919   4.455   4.501   3.020  0.9222 -2.9184 -1.1443
  477MOL0     H62920   4.332   4.494   2.837 -0.1460 -0.9030  0.2991
  477MOL0     H62921   4.460   4.425   2.756 -1.5688 -0.3037  0.0541
  477MOL0     H62922   4.338   4.686   2.756 -0.0358  0.0141  0.0491
  477MOL0     H62923   4.500   4.716   2.715 -1.7334  1.6319 -1.0420
  477MOL0     H62924   4.463   4.542   2.517 -0.3251 -1.2850  0.1090
  477MOL0     H62925   4.370   4.699   2.505 -0.5733  0.1379 -0.4903
  477MOL0     H62926   4.157   4.311   2.600  4.6556  0.0757  0.0215
  477MOL0     H62927   4.071   4.158   2.428 -1.7065 -0.1677 -0.2554
  477MOL0     H62928   3.893   3.869   2.259 -2.3955  4.5400 -0.0291
  477MOL0     H62929   3.794   3.682   2.121  0.2560  0.2564 -0.0622
  477MOL0     H62930   3.925   3.639   1.695 -0.3178  0.7344 -1.6519
  477MOL0     H62931   3.807   3.763   1.664 -1.5497 -1.0329 -0.4795
  477MOL0     H62932   3.620   3.580   1.670 -0.1226 -1.4840  3.1388
  477MOL0     H62933   3.748   3.472   1.721  0.1857  0.9955  0.8032
  477MOL0     H62934   3.733   3.593   1.436 -0.0353 -0.7944 -2.5755
  477MOL0     H62935   3.715   3.425   1.495 -0.2379  1.0075 -1.1807
  477MOL0     H62936   3.981   3.584   1.502  2.7489 -0.7317  0.0218
  477MOL0     H62937   3.963   3.431   1.565 -0.7357  0.9104  0.3743
  477MOL0     H62938   3.879   3.353   1.330  0.8642 -1.3128 -1.6119
  477MOL0     H62939   4.045   3.409   1.319 -0.8811  0.2624 -1.9300
  477MOL0     H62940   4.004   3.573   1.194  1.6209 -3.9816  0.4204
  477MOL0     H62941   3.857   3.616   1.274  3.6252  1.6299  2.6432
  477MOL0     H62942   3.911   3.433   1.034 -0.4087  2.4279 -0.7643
  477MOL0     H62943   3.795   3.372   1.145  0.2798 -0.6155 -0.9927
  477MOL0     H62944   3.780   3.661   1.036 -1.8022  1.2065 -0.0657
  477MOL0     H62945   3.652   3.580   1.107  0.7238  3.0159  0.6300
  477MOL0     H62946   3.913   3.917   1.772 -0.9561  1.2760 -0.4078
  477MOL0     H62947   4.035   4.060   1.905 -0.8079  0.2029  0.5943
  477MOL0     H62948   4.250   4.430   2.125  3.1261  1.2866  0.0280
  477MOL0     H62949   4.294   4.573   2.304 -0.7464  2.3125  3.9477
  477MOL0     H62950   4.194   3.978   2.958  0.1019  0.1018 -1.1604
  477MOL0     H62951   4.117   3.796   3.093  0.3755 -4.2270  1.1061
  477MOL0     H62952   4.404   3.353   3.357  0.4993  0.7876  1.5136
  477MOL0     H62953   4.313   3.182   3.509  3.4187  0.9544 -1.5945
  477MOL0     H62954   4.171   3.101   3.682 -2.1369  2.8499 -0.6645
  477MOL0     H62955   4.168   2.972   3.553 -0.9085 -0.8939 -0.3931
  477MOL0     H62956   3.953   3.053   3.746  1.8246  0.9178 -1.9078
  477MOL0     H62957   3.939   2.906   3.638  0.4568 -1.0519  0.3694
  477MOL0     H62958   4.153   2.935   3.851 -1.2064  1.3163  3.3511
  477MOL0     H62959   4.101   2.787   3.763 -0.4029  0.7641 -2.1667
  477MOL0     H62960   4.012   2.949   3.996 -2.4958  0.7178  0.5057
  477MOL0     H62961   3.870   2.875   3.922 -1.4469  4.7389  2.3917
  477MOL0     H62962   4.036   2.520   4.057  0.1677  0.5987  0.0984
  477MOL0     H62963   3.916   3.301   3.380 -0.5965  2.2529  1.1246
  477MOL0     H62964   4.017   3.460   3.225  0.2754  0.2631  0.7519
  478MOL0     O62965   8.380   6.856   1.750 -0.0490 -0.6765 -0.0833
  478MOL0     C62966   8.445   6.940   1.813 -0.3151  0.1074 -0.6099
  478MOL0     O62967   8.561   6.920   1.874  0.2955 -0.1643  0.5660
  478MOL0     C62968   8.609   6.790   1.886 -0.1856  0.3893  0.8581
  478MOL0     C62969   8.745   6.774   1.848  0.7376 -0.3136 -0.4141
  478MOL0     C62970   8.792   6.645   1.840 -0.2584  0.9136 -0.9770
  478MOL0     C62971   8.717   6.529   1.870  0.2989 -0.4908 -0.2556
  478MOL0     O62972   8.772   6.404   1.871 -0.3435  0.0238 -0.9682
  478MOL0     C62973   8.689   6.287   1.895  0.6068 -0.1213  1.3761
  478MOL0     C62974   8.751   6.184   1.804  0.3572  0.0047 -0.1094
  478MOL0     C62975   8.674   6.053   1.781  0.4049  0.3525  0.0899
  478MOL0     C62976   8.763   5.935   1.748  0.0002  0.7940 -0.5581
  478MOL0     C62977   8.692   5.811   1.701  0.1417 -1.1398 -0.4988
  478MOL0     C62978   8.579   5.761   1.786  0.1748  0.3353 -0.3720
  478MOL0     C62979   8.486   5.669   1.700  0.1868  0.0932  0.2966
  478MOL0     C62980   8.532   5.517   1.686  0.8359  0.0948  0.2349
  478MOL0     N62981   8.515   5.441   1.818 -0.3000 -0.1736  0.2432
  478MOL0     C62982   8.406   5.354   1.836 -0.0608 -0.2161 -0.0476
  478MOL0     C62983   8.459   5.266   1.926 -0.4099  0.1012  0.6760
  478MOL0     C62984   8.384   5.137   1.962 -0.5357 -0.1084 -0.1055
  478MOL0     C62985   8.242   5.144   2.015 -0.0650  0.4895  0.3508
  478MOL0     C62986   8.209   5.262   2.104  0.5982 -0.2231 -0.7471
  478MOL0     C62987   8.264   5.244   2.250  0.7531 -0.9833 -0.6573
  478MOL0     O62988   8.172   5.335   2.324 -1.2105 -0.1158  0.2788
  478MOL0     C62989   8.218   5.465   2.328  0.1773 -0.3795  0.1317
  478MOL0     C62990   8.329   5.514   2.254 -0.1559 -0.0620 -0.6462
  478MOL0     C62991   8.371   5.642   2.267  0.5050 -0.8004 -0.7377
  478MOL0     C62992   8.295   5.733   2.351  0.4236 -0.5108  0.2304
  478MOL0     C62993   8.330   5.878   2.352 -0.1421 -0.2658 -0.3945
  478MOL0     O62994   8.372   5.924   2.235  0.0795  0.0996 -0.4856
  478MOL0     C62995   8.432   6.053   2.245 -0.0458  0.1720  0.7250
  478MOL0     C62996   8.570   6.072   2.289 -0.7154  0.1447  0.0458
  478MOL0     C62997   8.636   6.195   2.287  0.2031  0.2359  0.6446
  478MOL0     C62998   8.567   6.311   2.243  0.6827 -0.4306 -0.4027
  478MOL0     O62999   8.640   6.429   2.258 -0.5279 -0.4687  0.1933
  478MOL0     C63000   8.575   6.558   2.264  1.0003 -0.2742  0.1271
  478MOL0     C63001   8.651   6.676   2.301  0.4756  0.1073  0.5057
  478MOL0     C63002   8.569   6.799   2.342 -0.7049 -0.4315  0.6889
  478MOL0     C63003   8.628   6.927   2.282  0.7439 -0.1129  0.4013
  478MOL0     C63004   8.592   7.047   2.365  0.4206  0.0110 -0.5669
  478MOL0     C63005   8.436   7.055   2.408  0.4124 -0.1891  0.7243
  478MOL0     C63006   8.430   7.190   2.469  0.4077  1.1004 -0.3331
  478MOL0     C63007   8.289   7.233   2.512  0.6232 -0.0683 -0.6189
  478MOL0    Cl63008   8.286   7.406   2.565  0.4361 -0.1358 -0.4525
  478MOL0     C63009   8.436   6.298   2.203  0.1502  0.4150  0.9569
  478MOL0     C63010   8.370   6.167   2.202  0.3569  0.4115  0.0462
  478MOL0     O63011   8.330   5.939   2.460 -0.4288 -0.3458  0.5355
  478MOL0     C63012   8.190   5.685   2.433 -0.2861 -0.8715  0.5929
  478MOL0     C63013   8.161   5.551   2.433  0.9115 -0.3301 -0.3027
  478MOL0     N63014   8.589   5.299   1.960 -0.8588  0.2072 -0.4101
  478MOL0     N63015   8.617   5.406   1.899  0.4726  1.2248 -0.5535
  478MOL0     C63016   8.585   6.551   1.904 -0.3241  0.0724 -0.1565
  478MOL0     C63017   8.530   6.672   1.910  0.4019  0.0666  0.0418
  478MOL0     C63018   8.399   7.085   1.820 -0.6110 -0.0342  0.5411
  478MOL0     C63019   8.275   7.118   1.764 -0.6444 -0.1451  0.2208
  478MOL0     C63020   8.237   7.255   1.766  0.4533  0.2138 -1.0089
  478MOL0     C63021   8.324   7.357   1.815  0.1694 -0.5189 -0.8494
  478MOL0     O63022   8.276   7.485   1.809 -0.5435 -0.5074 -0.4416
  478MOL0     C63023   8.277   7.556   1.935 -0.1357 -0.3810 -0.0229
  478MOL0     C63024   8.144   7.519   2.003  0.0264 -0.9004  0.4754
  478MOL0     C63025   8.017   7.567   1.926  0.1846  0.9881  0.9223
  478MOL0     C63026   7.966   7.707   1.920 -0.6606  0.8893  1.0135
  478MOL0     C63027   7.842   7.722   1.844  1.0091  0.5717  0.9497
  478MOL0     C63028   7.734   7.740   1.787  0.3795 -0.1559  0.4402
  478MOL0     C63029   8.444   7.321   1.870 -0.0683  0.1667  0.1153
  478MOL0     C63030   8.485   7.188   1.864  0.2125 -0.2470  0.2068
  478MOL0     H63031   8.794   6.861   1.808 -1.3651  2.1444  1.9783
  478MOL0     H63032   8.890   6.643   1.793  0.3558 -0.8804  0.2673
  478MOL0     H63033   8.590   6.292   1.849  0.2019  1.0154  2.3174
  478MOL0     H63034   8.671   6.266   2.000  0.0066  0.4809  1.4032
  478MOL0     H63035   8.849   6.158   1.844  1.0289 -0.0431 -1.7377
  478MOL0     H63036   8.761   6.235   1.709 -2.9509  2.1734  0.5282
  478MOL0     H63037   8.606   6.061   1.696  1.0104 -0.5427 -0.4974
  478MOL0     H63038   8.602   6.032   1.861 -0.5905 -0.2208 -0.9204
  478MOL0     H63039   8.839   5.961   1.673  1.5837 -3.9651 -0.9357
  478MOL0     H63040   8.815   5.903   1.839 -0.1492 -1.5307 -1.2298
  478MOL0     H63041   8.766   5.732   1.683 -0.1371 -0.8794 -3.3266
  478MOL0     H63042   8.664   5.838   1.599  0.2600 -2.7212 -0.9850
  478MOL0     H63043   8.516   5.842   1.823 -1.6356  0.2319 -2.9572
  478MOL0     H63044   8.615   5.710   1.876  0.0147 -0.7253 -0.8870
  478MOL0     H63045   8.385   5.680   1.740 -0.6451 -1.4489 -1.2207
  478MOL0     H63046   8.466   5.714   1.603 -3.0598 -1.7116 -0.0095
  478MOL0     H63047   8.640   5.514   1.668  0.4752  2.3177 -3.1943
  478MOL0     H63048   8.476   5.463   1.610  2.3567 -0.1128 -0.7916
  478MOL0     H63049   8.311   5.368   1.786  0.5513  1.1236 -0.9116
  478MOL0     H63050   8.448   5.093   2.038  0.5763  0.0998 -0.8946
  478MOL0     H63051   8.390   5.078   1.870  2.4481  0.8009 -0.5958
  478MOL0     H63052   8.215   5.048   2.061  1.3163 -0.0634  0.0479
  478MOL0     H63053   8.173   5.144   1.930  0.7899  1.8660 -0.3781
  478MOL0     H63054   8.253   5.352   2.059  3.0344 -1.8790 -1.8616
  478MOL0     H63055   8.101   5.276   2.105  0.7608  1.4761  1.9927
  478MOL0     H63056   8.370   5.271   2.258  0.2608  0.5884  1.1090
  478MOL0     H63057   8.237   5.145   2.287 -3.5822 -0.0139 -0.7834
  478MOL0     H63058   8.398   5.467   2.184  1.4556  2.3436 -0.7747
  478MOL0     H63059   8.455   5.681   2.211 -0.2316  0.7125 -0.8545
  478MOL0     H63060   8.622   5.980   2.313  2.5767  1.7909 -0.3171
  478MOL0     H63061   8.740   6.200   2.320  0.5343  1.2679 -0.4851
  478MOL0     H63062   8.496   6.548   2.340  1.3110  1.4114  0.7151
  478MOL0     H63063   8.523   6.582   2.171 -2.7995 -2.5156  1.4299
  478MOL0     H63064   8.705   6.705   2.211 -1.4436  1.5139 -0.2655
  478MOL0     H63065   8.724   6.650   2.379  1.0181 -0.1361 -0.0785
  478MOL0     H63066   8.584   6.787   2.450 -3.3391 -3.3908  0.8567
  478MOL0     H63067   8.463   6.792   2.318 -0.3026  0.4390 -1.5615
  478MOL0     H63068   8.737   6.929   2.273  0.7049 -0.8720 -0.4775
  478MOL0     H63069   8.609   6.942   2.175  0.6481  1.1339  0.5751
  478MOL0     H63070   8.635   7.137   2.318 -0.1893  1.0850  0.8550
  478MOL0     H63071   8.648   7.044   2.459  1.4270 -0.9365 -1.1741
  478MOL0     H63072   8.394   6.988   2.484 -1.5362  0.6149  0.4379
  478MOL0     H63073   8.382   7.044   2.314  1.1403 -0.9631  0.3850
  478MOL0     H63074   8.503   7.206   2.548  1.8363 -1.5867 -1.0100
  478MOL0     H63075   8.451   7.260   2.387  3.8690 -1.1258 -1.5344
  478MOL0     H63076   8.262   7.179   2.603 -0.9794  0.2273 -0.9026
  478MOL0     H63077   8.214   7.217   2.435 -2.1768  1.5001  1.6057
  478MOL0     H63078   8.382   6.381   2.158  1.9135  1.3618  0.4607
  478MOL0     H63079   8.268   6.156   2.166  1.2183  0.0803 -2.4492
  478MOL0     H63080   8.148   5.753   2.506 -1.6828 -3.5330  2.4524
  478MOL0     H63081   8.088   5.513   2.504 -2.8138  1.3042 -2.9015
  478MOL0     H63082   8.514   6.477   1.942 -1.5883  2.5875  2.8426
  478MOL0     H63083   8.422   6.666   1.924  0.6262 -1.7745  1.3713
  478MOL0     H63084   8.214   7.040   1.719  1.5324 -3.7989  3.0169
  478MOL0     H63085   8.141   7.267   1.718  1.0911  0.3846 -2.2710
  478MOL0     H63086   8.279   7.660   1.904 -0.6049 -0.7687 -1.4178
  478MOL0     H63087   8.359   7.515   1.994  1.1674  1.2790 -0.6204
  478MOL0     H63088   8.127   7.411   2.012  1.0042 -1.0280  0.9396
  478MOL0     H63089   8.151   7.565   2.102  1.1220 -0.1541  0.0589
  478MOL0     H63090   7.933   7.506   1.960 -0.0346  0.6818 -0.1201
  478MOL0     H63091   8.034   7.547   1.820 -5.0317  0.8822 -0.1688
  478MOL0     H63092   7.944   7.740   2.022  0.7239  1.8940  1.0191
  478MOL0     H63093   8.032   7.783   1.877 -1.1139  0.1417 -1.1344
  478MOL0     H63094   7.643   7.775   1.743 -1.4742 -1.0366  3.2968
  478MOL0     H63095   8.507   7.404   1.902 -0.9772  1.2852 -0.8750
  478MOL0     H63096   8.580   7.161   1.908  0.7891  0.6897 -0.4338
  479MOL0     O63097   2.722   7.259   7.183  0.6825 -0.3183  0.8750
  479MOL0     C63098   2.801   7.166   7.176  0.5113  0.6480 -0.1299
  479MOL0     O63099   2.784   7.041   7.232 -0.3661 -0.1391 -0.6428
  479MOL0     C63100   2.723   7.042   7.354  0.2926 -0.2105  0.4179
  479MOL0     C63101   2.593   6.998   7.352  0.4206  0.1456  0.5813
  479MOL0     C63102   2.509   7.005   7.462  0.3169  0.3448 -0.1356
  479MOL0     C63103   2.560   7.057   7.581 -0.8445 -0.3618  0.5484
  479MOL0     O63104   2.472   7.082   7.689  0.3726  0.8357  0.2834
  479MOL0     C63105   2.409   7.213   7.701  0.2769  0.2369  0.2391
  479MOL0     C63106   2.481   7.310   7.800 -0.5443  0.5673  0.0368
  479MOL0     C63107   2.478   7.268   7.951  0.2327 -1.0545  0.2838
  479MOL0     C63108   2.531   7.385   8.043  0.2343  0.2409  0.9702
  479MOL0     C63109   2.597   7.344   8.166  0.3355 -0.5596  0.4857
  479MOL0     C63110   2.506   7.291   8.270  0.1196  0.1336 -0.8206
  479MOL0     C63111   2.589   7.292   8.397 -0.3080  0.0883 -0.1230
  479MOL0     C63112   2.495   7.278   8.522  0.0838 -0.4391  0.2636
  479MOL0     N63113   2.575   7.263   8.641  0.4179 -0.3571 -0.8508
  479MOL0     C63114   2.699   7.215   8.654 -1.1199  0.0344  0.4861
  479MOL0     C63115   2.758   7.273   8.766  0.2825 -0.6091 -1.0650
  479MOL0     C63116   2.907   7.266   8.809 -0.1179 -0.3865 -1.1640
  479MOL0     C63117   2.989   7.389   8.791 -0.0403  0.1010  0.9927
  479MOL0     C63118   2.957   7.501   8.886  0.3440  0.2652 -0.0066
  479MOL0     C63119   3.036   7.628   8.843  0.1942  1.0139 -0.1133
  479MOL0     O63120   3.170   7.633   8.902 -0.3030  0.4505 -0.7717
  479MOL0     C63121   3.230   7.762   8.887 -0.5846 -0.4892  0.6888
  479MOL0     C63122   3.188   7.855   8.791 -0.1255  0.4248  1.1798
  479MOL0     C63123   3.244   7.987   8.791 -0.4023  0.0639  0.2203
  479MOL0     C63124   3.345   8.021   8.881  0.2128  0.5556  1.0322
  479MOL0     C63125   3.399   8.161   8.880 -0.8279 -1.3332 -0.4428
  479MOL0     O63126   3.467   8.179   8.998  0.6194  0.6137 -0.4537
  479MOL0     C63127   3.557   8.289   9.014 -0.2113  0.5069  0.5229
  479MOL0     C63128   3.626   8.305   9.138  0.4557  0.0384 -0.4123
  479MOL0     C63129   3.732   8.401   9.155 -1.0264  0.5892  0.9667
  479MOL0     C63130   3.775   8.480   9.051  0.1541  0.3623  0.2122
  479MOL0     O63131   3.883   8.557   9.071  0.9786  0.1566 -0.2595
  479MOL0     C63132   3.962   8.615   8.981  0.2710  0.1161 -0.6188
  479MOL0     C63133   4.072   8.519   8.965  0.0514 -0.4988 -0.0734
  479MOL0     C63134   4.167   8.525   9.087 -0.3156  0.1218  0.2314
  479MOL0     C63135   4.289   8.617   9.069  0.2897 -0.6204 -0.1782
  479MOL0     C63136   4.409   8.596   9.152  0.0992  0.7631  0.0616
  479MOL0     C63137   4.511   8.705   9.145 -0.4125 -0.9047 -0.4205
  479MOL0     C63138   4.626   8.701   9.245  0.2312 -0.7220 -0.3108
  479MOL0     C63139   4.723   8.592   9.230  0.3521  0.6555 -0.1768
  479MOL0    Cl63140   4.827   8.609   9.086  0.5641  0.0072 -0.3857
  479MOL0     C63141   3.720   8.454   8.926  0.5629 -0.1712 -0.9077
  479MOL0     C63142   3.608   8.365   8.912 -0.1780  0.2326 -0.4971
  479MOL0     O63143   3.381   8.250   8.795  0.5904 -0.0886 -0.1472
  479MOL0     C63144   3.407   7.911   8.951  0.1344 -0.1209  0.0975
  479MOL0     C63145   3.350   7.785   8.956  1.1315  0.1114  0.0302
  479MOL0     N63146   2.659   7.356   8.818  0.5013 -0.0970 -0.5636
  479MOL0     N63147   2.556   7.356   8.739 -0.8464 -0.3059 -0.5382
  479MOL0     C63148   2.694   7.104   7.584  0.0953  1.2639 -0.8962
  479MOL0     C63149   2.780   7.089   7.479 -0.0810 -0.0501 -0.2316
  479MOL0     C63150   2.923   7.184   7.088  0.0455 -0.1964 -0.6300
  479MOL0     C63151   2.992   7.075   7.044 -0.2130 -0.1099  0.0463
  479MOL0     C63152   3.110   7.092   6.975  0.4546  0.1834  0.5391
  479MOL0     C63153   3.156   7.222   6.940 -0.0404 -0.3186  0.3843
  479MOL0     O63154   3.277   7.222   6.883 -0.3222 -0.4302 -0.2760
  479MOL0     C63155   3.316   7.344   6.828 -0.6221 -0.1102 -0.3230
  479MOL0     C63156   3.457   7.334   6.775 -0.5419  1.1926 -0.6894
  479MOL0     C63157   3.482   7.438   6.677 -0.8597 -0.3265  0.2921
  479MOL0     C63158   3.592   7.392   6.585 -0.8331  0.6427  0.1841
  479MOL0     C63159   3.609   7.471   6.468 -0.6168 -0.1670 -1.3010
  479MOL0     C63160   3.626   7.538   6.374 -0.2893  0.0754 -0.0348
  479MOL0     C63161   3.089   7.334   6.996 -0.0318  0.8672  0.1371
  479MOL0     C63162   2.966   7.310   7.055 -0.1085 -0.2469  0.6954
  479MOL0     H63163   2.563   6.959   7.255  3.7273  0.8195 -0.8407
  479MOL0     H63164   2.409   6.962   7.457 -0.4645  1.2209  4.0088
  479MOL0     H63165   2.307   7.184   7.727  1.4268 -3.0008  1.6738
  479MOL0     H63166   2.416   7.262   7.604  4.6648 -3.7771 -1.9263
  479MOL0     H63167   2.429   7.405   7.782  2.0351  2.0274 -0.0721
  479MOL0     H63168   2.581   7.326   7.759 -0.6054  2.2188  0.4411
  479MOL0     H63169   2.521   7.172   7.980 -1.6180 -2.9834 -2.7559
  479MOL0     H63170   2.373   7.260   7.982 -0.0551  1.9345  0.4351
  479MOL0     H63171   2.604   7.441   7.984 -0.9930 -1.1103 -2.0599
  479MOL0     H63172   2.453   7.458   8.062  0.7971  0.8561  0.9400
  479MOL0     H63173   2.642   7.437   8.199 -1.7768  1.2893 -1.5004
  479MOL0     H63174   2.681   7.279   8.138 -0.7356 -1.4495 -0.8114
  479MOL0     H63175   2.485   7.188   8.240  2.3857 -0.0278 -2.0773
  479MOL0     H63176   2.423   7.361   8.273  0.2692  0.2836  0.1046
  479MOL0     H63177   2.668   7.217   8.388 -1.6720 -1.1794 -2.4534
  479MOL0     H63178   2.641   7.387   8.413 -1.8056  0.9601 -0.3113
  479MOL0     H63179   2.424   7.196   8.508 -0.3934  0.3692 -2.8431
  479MOL0     H63180   2.433   7.368   8.527  0.2447 -0.3850  2.3568
  479MOL0     H63181   2.761   7.167   8.579 -0.0510  2.8637 -0.6119
  479MOL0     H63182   2.952   7.172   8.774  0.8576 -0.8899  1.2544
  479MOL0     H63183   2.902   7.257   8.917 -0.2538 -2.2803 -1.2937
  479MOL0     H63184   2.983   7.411   8.684 -0.7384 -3.1779  0.2211
  479MOL0     H63185   3.094   7.370   8.816 -0.7128 -0.0242  4.2195
  479MOL0     H63186   2.850   7.513   8.868  0.4920  1.1074 -0.3736
  479MOL0     H63187   2.976   7.466   8.988  0.2913 -0.1709 -0.1468
  479MOL0     H63188   2.982   7.714   8.883  2.7702  1.9440  1.6521
  479MOL0     H63189   3.061   7.625   8.737  2.8900  0.1772  0.4632
  479MOL0     H63190   3.103   7.836   8.727  0.3950 -0.0774  0.6355
  479MOL0     H63191   3.220   8.062   8.717  1.2650 -0.1613 -0.6035
  479MOL0     H63192   3.601   8.241   9.222 -0.8804  1.4591  0.3125
  479MOL0     H63193   3.791   8.403   9.246 -0.3704  0.1126  0.5592
  479MOL0     H63194   3.997   8.705   9.031  0.3935 -0.5415  0.5360
  479MOL0     H63195   3.909   8.651   8.893 -0.9200  2.8591  1.0751
  479MOL0     H63196   4.116   8.545   8.868  0.4685 -2.0646 -0.3363
  479MOL0     H63197   4.025   8.421   8.951  0.2468 -0.2917 -2.7167
  479MOL0     H63198   4.199   8.421   9.094  0.9291  0.5570  1.5281
  479MOL0     H63199   4.113   8.554   9.177  1.5829  1.0992  1.1185
  479MOL0     H63200   4.324   8.613   8.966 -0.0767 -1.7438 -0.2633
  479MOL0     H63201   4.256   8.720   9.087  1.8265 -0.4130  1.9899
  479MOL0     H63202   4.456   8.504   9.118 -2.4481 -0.6556  0.0642
  479MOL0     H63203   4.375   8.580   9.255  0.7051 -0.7193  0.0437
  479MOL0     H63204   4.472   8.806   9.163 -0.3697 -1.0753  0.7636
  479MOL0     H63205   4.562   8.694   9.050 -0.0416 -0.3933 -0.2868
  479MOL0     H63206   4.682   8.793   9.225 -0.5468  0.6001  2.9463
  479MOL0     H63207   4.602   8.708   9.352  0.6856 -0.3226 -0.2279
  479MOL0     H63208   4.681   8.492   9.241 -5.1656  2.5319 -1.1249
  479MOL0     H63209   4.790   8.595   9.316 -1.2014 -2.6590  1.3363
  479MOL0     H63210   3.754   8.511   8.840  0.7228 -0.6902 -1.1995
  479MOL0     H63211   3.589   8.335   8.809  0.1128 -2.1811  0.1198
  479MOL0     H63212   3.498   7.919   9.010  0.3482 -1.2469 -0.0483
  479MOL0     H63213   3.396   7.709   9.018  1.3919  1.7464  1.9524
  479MOL0     H63214   2.731   7.147   7.677  1.1574 -1.2748 -0.0542
  479MOL0     H63215   2.875   7.140   7.490  0.1763 -1.0872  5.6379
  479MOL0     H63216   2.963   6.972   7.062  2.6769 -0.4701  3.6415
  479MOL0     H63217   3.154   6.997   6.947 -4.7538 -2.7400  1.1218
  479MOL0     H63218   3.324   7.422   6.904 -1.3311 -0.3251 -0.0208
  479MOL0     H63219   3.255   7.364   6.739 -0.3641 -0.1319 -0.5052
  479MOL0     H63220   3.534   7.326   6.853 -0.0287  1.1107 -1.1975
  479MOL0     H63221   3.464   7.241   6.718  1.3070 -0.6417  2.2588
  479MOL0     H63222   3.500   7.534   6.726 -0.4306 -0.3783  0.2405
  479MOL0     H63223   3.389   7.461   6.624 -0.5828  0.2423  0.0508
  479MOL0     H63224   3.688   7.372   6.633  0.3787  0.8364 -2.0012
  479MOL0     H63225   3.555   7.305   6.528  1.8764  0.8700 -2.1567
  479MOL0     H63226   3.640   7.607   6.293 -3.4429  3.3949  1.9505
  479MOL0     H63227   3.141   7.430   6.997  0.5881  0.6038 -1.7519
  479MOL0     H63228   2.913   7.400   7.083  2.9038  1.2096  2.2504
  480MOL0     O63229   3.956   5.018   3.465  0.2847  0.2292 -0.8668
  480MOL0     C63230   3.967   5.025   3.597  0.0208  1.0281  0.3864
  480MOL0     O63231   3.915   5.116   3.677  0.3945 -0.0132 -0.2471
  480MOL0     C63232   3.853   5.214   3.610  0.3174  0.5989  0.2824
  480MOL0     C63233   3.719   5.195   3.558 -0.1749  0.4273  0.5991
  480MOL0     C63234   3.654   5.311   3.526 -0.4026  0.3834  0.5050
  480MOL0     C63235   3.713   5.435   3.536  0.2935 -0.8304  0.3454
  480MOL0     O63236   3.634   5.538   3.499 -0.5286  0.0946 -0.6034
  480MOL0     C63237   3.678   5.672   3.479 -0.6758 -0.5017 -0.1080
  480MOL0     C63238   3.772   5.683   3.362  0.2033  0.6726 -0.0066
  480MOL0     C63239   3.724   5.637   3.220  0.0731  0.1272  0.1355
  480MOL0     C63240   3.831   5.553   3.149 -0.1226  0.7880  0.4946
  480MOL0     C63241   3.854   5.410   3.185 -0.2110  0.0253 -0.1481
  480MOL0     C63242   3.728   5.331   3.175 -0.8947  0.4824 -0.5330
  480MOL0     C63243   3.738   5.172   3.197 -0.6505 -0.4466  0.2837
  480MOL0     C63244   3.821   5.111   3.078 -0.9361 -0.0440  0.0830
  480MOL0     N63245   3.789   4.971   3.074 -0.5577  0.2457 -1.1844
  480MOL0     C63246   3.815   4.870   3.174 -1.2472 -0.6259 -0.5948
  480MOL0     C63247   3.745   4.760   3.118  0.1916 -0.8011 -0.5859
  480MOL0     C63248   3.724   4.635   3.190 -0.1031  0.0114  0.7142
  480MOL0     C63249   3.730   4.507   3.099 -0.0090 -1.0300  0.1930
  480MOL0     C63250   3.600   4.486   3.022  0.0270 -0.4790 -0.0267
  480MOL0     C63251   3.480   4.472   3.113  0.2480 -0.3132  0.6429
  480MOL0     O63252   3.520   4.398   3.221  0.1640  0.0942  0.0434
  480MOL0     C63253   3.449   4.404   3.339 -0.7296 -0.4455  0.5249
  480MOL0     C63254   3.311   4.423   3.366  1.0302  0.0981  0.4068
  480MOL0     C63255   3.271   4.421   3.499  0.4452  0.0282  0.7984
  480MOL0     C63256   3.362   4.418   3.604 -0.0818  0.1186 -0.3276
  480MOL0     C63257   3.319   4.437   3.744  0.3070 -0.2665 -0.0319
  480MOL0     O63258   3.179   4.470   3.763  0.4387 -0.1368 -0.5976
  480MOL0     C63259   3.138   4.479   3.891  0.5021  0.1504 -0.6414
  480MOL0     C63260   3.054   4.384   3.941  0.7044  0.9599  0.2897
  480MOL0     C63261   3.002   4.412   4.067  0.5148 -0.7071 -0.6264
  480MOL0     C63262   3.018   4.531   4.137  0.1486  0.4056 -0.3716
  480MOL0     O63263   2.947   4.562   4.251 -0.2131 -0.4951 -0.6406
  480MOL0     C63264   2.865   4.684   4.246  0.0209 -0.9586  0.2777
  480MOL0     C63265   2.745   4.662   4.160 -0.2569  0.6986 -0.3854
  480MOL0     C63266   2.753   4.668   4.008 -0.4867 -0.4672  0.1113
  480MOL0     C63267   2.611   4.670   3.945  0.6658 -0.0460  0.2101
  480MOL0     C63268   2.604   4.611   3.808  0.2773 -0.0075  1.2633
  480MOL0     C63269   2.675   4.713   3.710 -0.5794  0.5828 -0.1428
  480MOL0     C63270   2.677   4.659   3.564  0.9195  0.2290 -0.4235
  480MOL0     C63271   2.760   4.529   3.570  0.6409 -0.0826  0.1024
  480MOL0    Cl63272   2.870   4.517   3.424  0.0333  0.0973 -0.7249
  480MOL0     C63273   3.101   4.618   4.082  0.3251 -0.5282  0.2490
  480MOL0     C63274   3.155   4.606   3.956 -0.3323  0.1948  0.3084
  480MOL0     O63275   3.407   4.437   3.830 -0.3291 -0.4463 -0.3219
  480MOL0     C63276   3.500   4.393   3.574 -0.9942 -0.2041  0.2804
  480MOL0     C63277   3.531   4.386   3.447  0.2321 -0.0596  0.5255
  480MOL0     N63278   3.680   4.793   3.002 -0.1763 -0.1551  0.1561
  480MOL0     N63279   3.692   4.922   2.989  0.3818 -0.1101  0.1973
  480MOL0     C63280   3.838   5.452   3.592  0.4747  0.2185 -0.1470
  480MOL0     C63281   3.908   5.347   3.629 -0.6017  0.4197 -0.2353
  480MOL0     C63282   4.050   4.916   3.656  0.6706  0.2931  0.7229
  480MOL0     C63283   4.030   4.895   3.793 -0.4125 -0.3674  1.5894
  480MOL0     C63284   4.092   4.782   3.847 -1.3275 -0.1411 -0.9314
  480MOL0     C63285   4.164   4.684   3.777 -0.1632 -0.8934 -0.9279
  480MOL0     O63286   4.199   4.569   3.838 -0.0060 -0.3420  0.2124
  480MOL0     C63287   4.231   4.457   3.764  0.0894  0.1924 -0.6667
  480MOL0     C63288   4.376   4.459   3.726 -0.4026  0.4191 -0.3659
  480MOL0     C63289   4.428   4.315   3.693  0.1024 -0.3426  0.5517
  480MOL0     C63290   4.583   4.318   3.688  0.5522 -0.6045  1.1492
  480MOL0     C63291   4.659   4.281   3.806  0.1528  0.4370 -1.0704
  480MOL0     C63292   4.717   4.246   3.912  0.0249  0.0422 -0.0119
  480MOL0     C63293   4.190   4.725   3.643 -0.4041  0.2342 -0.8346
  480MOL0     C63294   4.125   4.829   3.580 -0.3690 -0.3847 -0.0011
  480MOL0     H63295   3.675   5.096   3.558 -0.2647  0.4614  1.6550
  480MOL0     H63296   3.551   5.314   3.490 -0.3032  0.4708  0.2273
  480MOL0     H63297   3.726   5.721   3.564 -1.2355  0.9140 -0.5921
  480MOL0     H63298   3.598   5.746   3.469 -1.0453 -0.6149  1.6665
  480MOL0     H63299   3.862   5.625   3.385  0.8120  0.8387 -1.8396
  480MOL0     H63300   3.809   5.783   3.341 -0.6230  1.0283  0.1984
  480MOL0     H63301   3.704   5.726   3.159  0.9000  0.3604  0.1873
  480MOL0     H63302   3.626   5.590   3.228 -0.9531  1.7718 -1.8307
  480MOL0     H63303   3.805   5.546   3.043  1.7901 -0.9644  0.0891
  480MOL0     H63304   3.930   5.600   3.151  2.6715 -4.3655  0.0576
  480MOL0     H63305   3.896   5.403   3.285 -0.4781 -2.7295 -0.1530
  480MOL0     H63306   3.934   5.370   3.121 -1.0137 -0.9350 -0.5624
  480MOL0     H63307   3.686   5.348   3.076 -1.0899 -2.0533 -0.9401
  480MOL0     H63308   3.661   5.371   3.251  2.1170  0.7718  2.2067
  480MOL0     H63309   3.780   5.143   3.293  3.7562  1.5462 -0.7846
  480MOL0     H63310   3.633   5.143   3.188 -1.4157  1.8101  1.2944
  480MOL0     H63311   3.927   5.138   3.080 -1.0295  0.2967  0.4837
  480MOL0     H63312   3.785   5.165   2.991  0.5738  2.3525  0.8477
  480MOL0     H63313   3.863   4.880   3.270  0.8375 -3.7384 -1.1671
  480MOL0     H63314   3.628   4.644   3.241 -0.5911 -1.3934  0.0597
  480MOL0     H63315   3.795   4.625   3.273 -4.1879  0.8978  4.6838
  480MOL0     H63316   3.773   4.428   3.161  1.1688 -0.7587 -0.2459
  480MOL0     H63317   3.811   4.528   3.028 -0.8519 -3.6442 -1.6885
  480MOL0     H63318   3.588   4.560   2.942  4.8892 -1.3679 -1.8835
  480MOL0     H63319   3.612   4.398   2.959 -0.1733 -0.2267 -0.4234
  480MOL0     H63320   3.390   4.427   3.070 -0.1978  1.7521 -0.7103
  480MOL0     H63321   3.445   4.570   3.147 -2.0393 -1.1210  0.7427
  480MOL0     H63322   3.247   4.429   3.279 -0.1876 -3.0097  0.9646
  480MOL0     H63323   3.164   4.436   3.513 -0.3123 -2.6201 -1.2442
  480MOL0     H63324   3.034   4.292   3.888 -0.2146  1.0072  0.5357
  480MOL0     H63325   2.930   4.350   4.120  1.1707 -0.3020  0.8155
  480MOL0     H63326   2.916   4.767   4.197 -0.9757  0.9852  2.3529
  480MOL0     H63327   2.843   4.718   4.348 -1.1377  0.5075 -0.4302
  480MOL0     H63328   2.667   4.733   4.190  1.1921  3.3969 -2.5370
  480MOL0     H63329   2.703   4.565   4.188 -1.1576  0.0051 -3.6901
  480MOL0     H63330   2.796   4.571   3.980 -3.4531 -2.3447  1.5499
  480MOL0     H63331   2.811   4.755   3.977  0.5450 -0.2487  2.4417
  480MOL0     H63332   2.537   4.621   4.009  1.0324  1.2225  1.6776
  480MOL0     H63333   2.563   4.768   3.933 -1.2350 -1.1426 -2.1051
  480MOL0     H63334   2.498   4.594   3.785  0.6302 -1.9806  0.9719
  480MOL0     H63335   2.649   4.512   3.807 -0.2323 -0.2415  0.6784
  480MOL0     H63336   2.778   4.743   3.729 -0.6577  0.4693  0.4773
  480MOL0     H63337   2.620   4.808   3.707 -0.1534  1.1111  3.7468
  480MOL0     H63338   2.574   4.645   3.532  0.7713 -0.3024  0.2719
  480MOL0     H63339   2.722   4.734   3.498 -3.5692  2.3372 -1.4192
  480MOL0     H63340   2.691   4.445   3.570 -2.1277  2.0455  0.2734
  480MOL0     H63341   2.805   4.540   3.670 -1.2011 -1.4091  1.1431
  480MOL0     H63342   3.124   4.704   4.143  1.2002 -2.1425  2.3371
  480MOL0     H63343   3.209   4.690   3.914  0.6461  0.9661  2.9578
  480MOL0     H63344   3.576   4.394   3.651  0.8251 -0.7424 -1.4235
  480MOL0     H63345   3.635   4.359   3.433 -0.3925 -1.0952 -3.0215
  480MOL0     H63346   3.862   5.556   3.612 -0.0013  0.4671 -0.8283
  480MOL0     H63347   3.995   5.361   3.692  1.0246  0.0005 -2.2686
  480MOL0     H63348   3.972   4.964   3.853 -0.2502  1.9606 -0.7813
  480MOL0     H63349   4.056   4.764   3.948 -0.1782  4.5531  0.5725
  480MOL0     H63350   4.172   4.458   3.672  0.6698 -1.1130 -1.0755
  480MOL0     H63351   4.205   4.366   3.819 -3.3537  1.1588 -0.4487
  480MOL0     H63352   4.387   4.522   3.637 -1.9638 -0.6921 -1.4015
  480MOL0     H63353   4.437   4.513   3.800 -2.7243  1.8259  0.6585
  480MOL0     H63354   4.378   4.277   3.604  0.9193 -1.0288  0.3683
  480MOL0     H63355   4.411   4.248   3.778  1.5557 -1.6896 -0.1683
  480MOL0     H63356   4.622   4.265   3.601 -0.6696 -0.8919  0.7491
  480MOL0     H63357   4.603   4.425   3.675  0.6217 -0.8260 -0.8731
  480MOL0     H63358   4.769   4.218   4.002 -2.9867 -2.3142  1.1555
  480MOL0     H63359   4.246   4.673   3.566  0.2270  0.3891 -0.4862
  480MOL0     H63360   4.131   4.858   3.475  0.7874  0.2664  0.2192
  481MOL0     O63361  10.267   5.840   5.828  0.1247 -0.1857  0.0033
  481MOL0     C63362  10.281   5.826   5.702 -0.3258 -0.4054  0.1691
  481MOL0     O63363  10.202   5.868   5.599  0.2669 -0.0857 -0.9303
  481MOL0     C63364  10.069   5.910   5.614  0.0838 -0.3524 -0.2797
  481MOL0     C63365  10.015   6.011   5.524  0.9782  0.0303 -1.0915
  481MOL0     C63366   9.891   6.067   5.535 -0.5610 -1.1042 -0.4326
  481MOL0     C63367   9.818   6.041   5.646  0.8070  0.6780  0.8342
  481MOL0     O63368   9.689   6.098   5.655  0.1555  0.0298  0.9320
  481MOL0     C63369   9.584   6.009   5.684  0.7647  0.1275  0.4239
  481MOL0     C63370   9.449   6.084   5.674  0.4083  0.8263 -0.3861
  481MOL0     C63371   9.425   6.162   5.542  0.6193 -0.2272 -1.0367
  481MOL0     C63372   9.416   6.065   5.412 -0.7652 -0.1895 -1.0822
  481MOL0     C63373   9.394   6.169   5.296  0.6610  0.0204 -1.1643
  481MOL0     C63374   9.323   6.115   5.178  0.4548 -1.0076  0.6447
  481MOL0     C63375   9.396   6.002   5.111 -0.0561 -0.3739  0.2402
  481MOL0     C63376   9.324   5.870   5.135 -0.0811  0.6853  0.7155
  481MOL0     N63377   9.215   5.834   5.045  0.5748  0.6713 -0.1468
  481MOL0     C63378   9.221   5.800   4.910 -0.2867  1.3999  0.1023
  481MOL0     C63379   9.093   5.758   4.868  0.7644  0.4487  0.0025
  481MOL0     C63380   9.054   5.705   4.739 -0.1794  0.3842 -0.1331
  481MOL0     C63381   9.176   5.658   4.642  0.1182  0.3006 -0.1464
  481MOL0     C63382   9.244   5.522   4.678 -0.3180 -0.4568  0.4028
  481MOL0     C63383   9.355   5.494   4.577  0.6129  0.1220  0.0064
  481MOL0     O63384   9.465   5.589   4.588  1.0582 -0.0687  0.7429
  481MOL0     C63385   9.579   5.565   4.653  0.2024 -0.3309  0.7365
  481MOL0     C63386   9.619   5.447   4.722 -0.7080  0.7028  0.4022
  481MOL0     C63387   9.741   5.431   4.788 -0.2684  0.2365 -0.1256
  481MOL0     C63388   9.843   5.524   4.775 -0.0825 -0.5946 -1.0910
  481MOL0     C63389   9.963   5.520   4.858  0.0303  0.2588 -0.0838
  481MOL0     O63390  10.051   5.627   4.852 -0.5734  0.0575  0.7390
  481MOL0     C63391  10.180   5.628   4.894 -0.7198  1.0092 -0.7221
  481MOL0     C63392  10.262   5.514   4.908 -1.4418  0.6606  0.7995
  481MOL0     C63393  10.398   5.532   4.958 -0.3856  0.2372  0.0385
  481MOL0     C63394  10.447   5.650   4.996  1.1345 -0.2381  0.9077
  481MOL0     O63395  10.567   5.636   5.058 -0.3985  0.2993  0.2411
  481MOL0     C63396  10.645   5.751   5.072  0.0871 -0.6934 -0.3956
  481MOL0     C63397  10.621   5.809   5.212  0.6756  0.4916 -0.0931
  481MOL0     C63398  10.674   5.948   5.233  0.3723 -0.0973 -0.0768
  481MOL0     C63399  10.650   5.995   5.374  0.5828 -0.3419 -0.3708
  481MOL0     C63400  10.752   6.095   5.420 -0.7197 -0.8764 -0.0452
  481MOL0     C63401  10.899   6.046   5.425 -0.2412 -0.9900  0.0954
  481MOL0     C63402  10.976   6.138   5.520  0.1600  0.2545  0.5246
  481MOL0     C63403  11.113   6.089   5.551  0.3661  0.0439 -0.7484
  481MOL0    Cl63404  11.214   6.181   5.652 -0.1235  0.3493  0.1613
  481MOL0     C63405  10.357   5.764   4.995 -0.3700 -0.3335 -0.3921
  481MOL0     C63406  10.239   5.753   4.937 -0.1642  0.4870 -0.3808
  481MOL0     O63407   9.979   5.423   4.929  0.1498  0.2231  0.5356
  481MOL0     C63408   9.813   5.639   4.693 -0.1497  0.4717 -0.7156
  481MOL0     C63409   9.681   5.663   4.632 -0.5340  0.0025  0.1845
  481MOL0     N63410   9.007   5.798   4.973 -0.2126  0.8349  0.0456
  481MOL0     N63411   9.080   5.830   5.077 -0.2140 -0.0417  0.4148
  481MOL0     C63412   9.867   5.954   5.745  0.3787  0.5056 -0.3574
  481MOL0     C63413   9.987   5.888   5.725 -0.6391  0.6717 -0.7065
  481MOL0     C63414  10.407   5.750   5.659 -0.8019  1.1068  0.4574
  481MOL0     C63415  10.398   5.645   5.569 -0.6597 -1.2646 -1.3206
  481MOL0     C63416  10.514   5.578   5.515  0.8753 -0.5957 -0.9529
  481MOL0     C63417  10.641   5.617   5.552 -0.4021 -0.1671 -1.2107
  481MOL0     O63418  10.753   5.556   5.498 -0.2818 -0.7183  0.4761
  481MOL0     C63419  10.871   5.542   5.580  0.1740  0.2663 -1.1248
  481MOL0     C63420  10.980   5.483   5.494 -0.0219 -0.2391 -0.0575
  481MOL0     C63421  11.008   5.557   5.370 -0.8225  0.1820 -0.2290
  481MOL0     C63422  11.148   5.526   5.317  0.3824 -0.5578  0.6754
  481MOL0     C63423  11.166   5.643   5.231  0.1135  0.4919  0.8746
  481MOL0     C63424  11.187   5.755   5.174 -0.0634 -0.0299 -0.1942
  481MOL0     C63425  10.644   5.735   5.648  1.3774 -0.5128  0.5880
  481MOL0     C63426  10.534   5.787   5.705  0.0319 -0.2131 -0.0333
  481MOL0     H63427  10.069   6.039   5.434 -1.4972  0.4839 -2.5162
  481MOL0     H63428   9.853   6.141   5.465 -2.9041  1.7888  3.5027
  481MOL0     H63429   9.603   5.962   5.781 -0.8605 -1.1108  0.1920
  481MOL0     H63430   9.580   5.936   5.602 -0.2859  0.6953 -0.0495
  481MOL0     H63431   9.437   6.149   5.761  1.7187 -1.4974  1.6808
  481MOL0     H63432   9.373   6.007   5.689  0.5839  1.2367  3.9304
  481MOL0     H63433   9.505   6.234   5.524  0.3534  0.2987 -0.1713
  481MOL0     H63434   9.331   6.215   5.563 -0.5301 -2.7796  0.7805
  481MOL0     H63435   9.501   5.998   5.395 -0.9317 -0.1770 -1.9911
  481MOL0     H63436   9.332   5.999   5.438  0.4682 -0.3464  3.2485
  481MOL0     H63437   9.498   6.199   5.280  1.3299 -1.9696 -0.8447
  481MOL0     H63438   9.344   6.259   5.335 -0.9191 -0.4945 -1.9300
  481MOL0     H63439   9.301   6.196   5.108 -1.1320 -1.5486  0.4636
  481MOL0     H63440   9.220   6.082   5.199 -1.7513  3.8617 -0.9842
  481MOL0     H63441   9.398   6.017   5.002  4.2366  2.4158  0.5187
  481MOL0     H63442   9.503   6.005   5.132 -0.1665  0.1984  0.7368
  481MOL0     H63443   9.269   5.875   5.229  0.3172 -0.2523  1.0144
  481MOL0     H63444   9.395   5.787   5.142 -1.6859 -0.6747  1.8330
  481MOL0     H63445   9.317   5.775   4.866 -0.3501 -0.1294  0.7797
  481MOL0     H63446   8.999   5.791   4.699 -1.0767  1.3716  2.9598
  481MOL0     H63447   8.979   5.627   4.752 -0.8816  0.8450 -1.1996
  481MOL0     H63448   9.247   5.740   4.647  0.7322  0.2300 -4.3204
  481MOL0     H63449   9.156   5.653   4.535  1.0209 -3.3963 -0.2784
  481MOL0     H63450   9.295   5.525   4.774  2.0104  0.8568 -0.7999
  481MOL0     H63451   9.168   5.444   4.689 -0.2423 -0.6713 -0.4951
  481MOL0     H63452   9.301   5.506   4.483 -1.8729  1.2741  1.4761
  481MOL0     H63453   9.375   5.387   4.584 -3.2118 -0.8386 -1.1821
  481MOL0     H63454   9.545   5.368   4.734  2.2178 -2.0455  1.7034
  481MOL0     H63455   9.752   5.345   4.854  0.7145  0.9738  0.7274
  481MOL0     H63456  10.233   5.420   4.864  1.8575  0.8811 -2.2590
  481MOL0     H63457  10.460   5.443   4.971 -0.4738  0.1527 -0.1154
  481MOL0     H63458  10.624   5.831   4.999 -1.5938  2.7369  3.4369
  481MOL0     H63459  10.751   5.726   5.065  0.7122  0.7977  2.4851
  481MOL0     H63460  10.677   5.746   5.282  0.0211  0.0236  0.0282
  481MOL0     H63461  10.521   5.808   5.256  0.3983  2.5939 -0.5738
  481MOL0     H63462  10.637   6.028   5.168 -1.1445 -1.9041 -1.5289
  481MOL0     H63463  10.783   5.937   5.228  0.8331  1.1226  3.9491
  481MOL0     H63464  10.551   6.036   5.397  0.9983  0.6182 -0.2612
  481MOL0     H63465  10.673   5.909   5.437  1.3374  0.2058  0.1159
  481MOL0     H63466  10.718   6.113   5.522 -2.1876  0.2398 -0.7035
  481MOL0     H63467  10.745   6.180   5.352 -0.5851  0.2517  1.3301
  481MOL0     H63468  10.931   6.059   5.321 -1.0220  3.2229  0.2351
  481MOL0     H63469  10.888   5.940   5.452 -1.9212 -1.5260 -2.3242
  481MOL0     H63470  10.967   6.238   5.475 -4.0932  0.5004  1.5355
  481MOL0     H63471  10.916   6.144   5.612 -0.1326 -0.3243  0.3697
  481MOL0     H63472  11.159   6.073   5.453 -2.7611 -1.5775 -2.1148
  481MOL0     H63473  11.094   5.996   5.604 -1.1974  1.5818  1.5368
  481MOL0     H63474  10.386   5.864   5.025  0.4090 -0.2514 -1.3577
  481MOL0     H63475  10.186   5.848   4.932 -3.7356 -1.2662  0.7274
  481MOL0     H63476   9.880   5.722   4.673  1.9725 -1.8623 -4.6775
  481MOL0     H63477   9.649   5.739   4.561 -0.4516  0.5227  0.6984
  481MOL0     H63478   9.822   5.947   5.843  1.7219  0.4402  0.2698
  481MOL0     H63479  10.019   5.809   5.791 -1.6791 -1.3382 -2.4637
  481MOL0     H63480  10.298   5.617   5.537 -1.5082 -2.5186  2.0307
  481MOL0     H63481  10.489   5.504   5.439  2.2902 -0.3378 -1.6924
  481MOL0     H63482  10.858   5.480   5.669  1.1154 -0.8542 -1.7461
  481MOL0     H63483  10.910   5.640   5.610  0.6220 -1.0073  3.1428
  481MOL0     H63484  11.067   5.478   5.560 -0.5454 -5.0993  0.5893
  481MOL0     H63485  10.975   5.377   5.468 -2.4893 -0.9819  2.9261
  481MOL0     H63486  10.988   5.663   5.390  0.8970  0.3058  1.0076
  481MOL0     H63487  10.944   5.520   5.289 -1.4769  0.0456  0.3442
  481MOL0     H63488  11.221   5.513   5.397  0.1931 -0.1385  0.9215
  481MOL0     H63489  11.144   5.434   5.258 -0.1643  0.0587 -0.2747
  481MOL0     H63490  11.209   5.853   5.135 -1.4989  0.5265  0.2985
  481MOL0     H63491  10.736   5.783   5.680  0.3382  2.0074  0.0046
  481MOL0     H63492  10.535   5.862   5.783 -1.7236  1.4327 -1.4880
  482MOL0     O63493   6.301   5.799  10.361 -0.6233 -0.3779 -1.1728
  482MOL0     C63494   6.364   5.890  10.311 -0.0184 -0.0303 -0.3349
  482MOL0     O63495   6.366   6.009  10.359  0.5820  0.0823 -0.2561
  482MOL0     C63496   6.305   6.052  10.474  0.0747  0.7770 -0.5313
  482MOL0     C63497   6.184   6.127  10.466 -0.6220 -0.8762  0.1893
  482MOL0     C63498   6.114   6.175  10.580  0.5756 -0.4529  0.0029
  482MOL0     C63499   6.154   6.127  10.708 -0.2157  0.6809 -0.0076
  482MOL0     O63500   6.077   6.158  10.817 -0.8557  1.0384  0.3996
  482MOL0     C63501   6.153   6.194  10.937 -1.2280  0.3349  0.0385
  482MOL0     C63502   6.043   6.206  11.046  0.4967 -0.3326  0.5593
  482MOL0     C63503   5.985   6.069  11.092  0.9707 -0.2892 -0.2885
  482MOL0     C63504   5.871   6.095  11.195 -0.2908  0.2739 -0.2247
  482MOL0     C63505   5.792   5.968  11.239  0.7995  0.5396 -0.0762
  482MOL0     C63506   5.884   5.866  11.318 -0.8226 -0.3879  0.0104
  482MOL0     C63507   5.802   5.776  11.405  2.0404  0.5911  0.3123
  482MOL0     C63508   5.721   5.686  11.324 -0.9254 -0.0748  1.0866
  482MOL0     N63509   5.690   5.572  11.411  0.1454  0.4969 -0.2181
  482MOL0     C63510   5.751   5.454  11.401 -0.5521  0.1799  0.1251
  482MOL0     C63511   5.668   5.372  11.462 -0.1896 -1.1685 -0.4816
  482MOL0     C63512   5.697   5.231  11.475 -0.3450  0.0534 -0.6431
  482MOL0     C63513   5.676   5.177  11.618 -0.2704 -0.1057 -0.0390
  482MOL0     C63514   5.528   5.148  11.635  0.8961  0.5911 -0.0026
  482MOL0     C63515   5.500   5.134  11.783 -0.3981  0.0240  0.7516
  482MOL0     O63516   5.357   5.101  11.806  0.2888 -0.0654 -0.0179
  482MOL0     C63517   5.252   5.187  11.765 -0.1205  0.8009 -0.8268
  482MOL0     C63518   5.264   5.324  11.729 -0.3746 -0.4843 -1.5507
  482MOL0     C63519   5.150   5.394  11.696  0.4205  0.2510  0.7442
  482MOL0     C63520   5.024   5.337  11.689 -0.2464 -0.5750 -0.2293
  482MOL0     C63521   4.909   5.412  11.650 -0.1377 -0.1172 -0.0481
  482MOL0     O63522   4.936   5.540  11.603  0.3548 -0.4540 -0.6092
  482MOL0     C63523   4.830   5.622  11.576  1.2152 -0.1221  0.5407
  482MOL0     C63524   4.788   5.610  11.445 -0.0811  0.6263  0.6589
  482MOL0     C63525   4.689   5.680  11.398 -0.3085  0.2622 -0.8677
  482MOL0     C63526   4.619   5.778  11.472  0.0118  0.0209 -0.4163
  482MOL0     O63527   4.505   5.837  11.424  0.6726  0.2223  0.3372
  482MOL0     C63528   4.502   5.881  11.283 -0.4324 -1.5255 -0.3969
  482MOL0     C63529   4.594   6.004  11.256 -1.0388 -0.1227 -0.2086
  482MOL0     C63530   4.739   5.964  11.227  0.4013  0.1240 -0.1380
  482MOL0     C63531   4.821   6.093  11.208 -0.7440 -0.8109 -0.3772
  482MOL0     C63532   4.880   6.098  11.060  0.0502  0.0392 -0.2286
  482MOL0     C63533   4.950   6.226  11.063  0.1234  0.2025  0.3953
  482MOL0     C63534   4.990   6.266  10.917 -0.0193  0.1853  0.2157
  482MOL0     C63535   5.083   6.390  10.903  0.3797  0.0397 -0.3763
  482MOL0    Cl63536   5.242   6.363  10.981  0.1354 -0.6139 -0.0282
  482MOL0     C63537   4.662   5.796  11.605  0.5750 -0.3424  0.5254
  482MOL0     C63538   4.754   5.709  11.660 -0.2329  0.4547 -0.0886
  482MOL0     O63539   4.800   5.359  11.647 -0.0752  0.2409  0.9242
  482MOL0     C63540   5.012   5.203  11.722  0.6262 -1.2337  0.2474
  482MOL0     C63541   5.123   5.126  11.762  0.1338 -0.1942  0.7614
  482MOL0     N63542   5.573   5.445  11.531  0.1166  0.3142  0.3484
  482MOL0     N63543   5.580   5.566  11.488 -0.4059 -0.6482 -0.4239
  482MOL0     C63544   6.260   6.035  10.713 -0.2410 -0.4212 -0.0999
  482MOL0     C63545   6.344   6.014  10.602 -0.3340  0.5992  0.2160
  482MOL0     C63546   6.434   5.885  10.180 -0.2218 -0.0459  0.6048
  482MOL0     C63547   6.490   5.996  10.112 -0.3965 -0.4748  0.3368
  482MOL0     C63548   6.538   5.978   9.980 -0.9032  0.2904 -0.6835
  482MOL0     C63549   6.550   5.857   9.914  0.6500 -0.4734 -0.6224
  482MOL0     O63550   6.603   5.843   9.788  0.8371 -0.3113 -0.0993
  482MOL0     C63551   6.653   5.957   9.715  0.4089 -1.4515 -0.4458
  482MOL0     C63552   6.691   5.914   9.581  0.2915  1.2683  0.1112
  482MOL0     C63553   6.796   6.012   9.524 -0.2198  0.3557 -0.4601
  482MOL0     C63554   6.753   6.159   9.529  0.7981  0.7351  0.6621
  482MOL0     C63555   6.610   6.181   9.499  0.7882  0.1218 -0.1408
  482MOL0     C63556   6.491   6.201   9.482  0.1270  0.1433 -1.2713
  482MOL0     C63557   6.497   5.747   9.984  0.3938  0.0406 -1.4860
  482MOL0     C63558   6.444   5.760  10.115  0.2136 -1.1805  0.3338
  482MOL0     H63559   6.142   6.159  10.371  0.7164 -0.6059 -0.3445
  482MOL0     H63560   6.025   6.232  10.555 -0.5311 -2.6004 -1.2920
  482MOL0     H63561   6.194   6.292  10.915 -1.0725  0.6524  1.6219
  482MOL0     H63562   6.236   6.128  10.967 -0.4139  2.1183  1.9129
  482MOL0     H63563   5.968   6.275  11.006  0.2543 -0.3828  0.9240
  482MOL0     H63564   6.089   6.255  11.132 -0.2631 -0.1364  0.8602
  482MOL0     H63565   6.057   6.012  11.152  1.0393 -0.2581 -0.3413
  482MOL0     H63566   5.951   6.013  11.004 -1.1555  2.5225 -1.4197
  482MOL0     H63567   5.913   6.137  11.287 -3.1797  0.1410  1.2595
  482MOL0     H63568   5.793   6.156  11.150 -0.2306 -0.3846 -1.2699
  482MOL0     H63569   5.760   5.919  11.145  1.2981  0.0590 -0.0014
  482MOL0     H63570   5.702   5.990  11.296  1.1979 -2.4091  1.9022
  482MOL0     H63571   5.946   5.928  11.383  1.4945 -3.3132  0.7872
  482MOL0     H63572   5.943   5.812  11.243 -1.2260  0.0845 -0.6604
  482MOL0     H63573   5.875   5.728  11.470  0.8954 -0.6035  0.7707
  482MOL0     H63574   5.728   5.829  11.466  1.9928  4.1296 -2.4813
  482MOL0     H63575   5.772   5.650  11.234  0.0729 -0.1380  1.6648
  482MOL0     H63576   5.628   5.734  11.293 -0.4264  0.6651  0.7009
  482MOL0     H63577   5.848   5.440  11.353 -1.9349  0.6443 -3.0854
  482MOL0     H63578   5.803   5.216  11.453 -0.9363 -2.5695 -2.1218
  482MOL0     H63579   5.639   5.168  11.406 -1.9488  0.0317  0.6636
  482MOL0     H63580   5.696   5.257  11.690 -0.3595 -0.2076  0.1001
  482MOL0     H63581   5.740   5.091  11.640  0.8812  0.9948  1.0697
  482MOL0     H63582   5.462   5.229  11.602 -0.9336  0.3688  2.7343
  482MOL0     H63583   5.496   5.056  11.586 -3.0089  2.0874 -0.5990
  482MOL0     H63584   5.528   5.220  11.844 -3.0248 -0.5628  2.9791
  482MOL0     H63585   5.549   5.046  11.827 -0.3954  1.1747  3.1912
  482MOL0     H63586   5.358   5.378  11.733 -0.3990  0.0262 -4.9432
  482MOL0     H63587   5.179   5.496  11.672  0.4150  0.9499  3.4323
  482MOL0     H63588   4.849   5.541  11.387 -1.9542 -0.1133 -0.5598
  482MOL0     H63589   4.672   5.671  11.291  1.5904 -2.6071 -1.0737
  482MOL0     H63590   4.400   5.910  11.254 -0.4391 -1.2823 -0.1324
  482MOL0     H63591   4.526   5.795  11.220  0.7082 -1.1052 -0.5588
  482MOL0     H63592   4.599   6.074  11.340 -1.1156 -1.1610  0.6766
  482MOL0     H63593   4.557   6.062  11.171  1.0411  1.1352 -0.3197
  482MOL0     H63594   4.747   5.897  11.141  1.8473 -1.5893  1.2561
  482MOL0     H63595   4.782   5.913  11.314  0.3603  0.2200 -0.0623
  482MOL0     H63596   4.762   6.183  11.226  0.6230  0.0982 -0.3617
  482MOL0     H63597   4.907   6.100  11.274 -2.5841 -1.5828  2.2459
  482MOL0     H63598   4.799   6.104  10.986 -0.5265  1.6893  0.4858
  482MOL0     H63599   4.939   6.010  11.035  1.5970  0.4339  1.7663
  482MOL0     H63600   5.034   6.204  11.130 -1.3716  0.5580  2.4796
  482MOL0     H63601   4.900   6.315  11.101 -3.4142 -1.3130 -0.3348
  482MOL0     H63602   5.032   6.176  10.871 -1.5054 -0.4868  0.1155
  482MOL0     H63603   4.895   6.291  10.870  1.2674  2.8903 -1.1359
  482MOL0     H63604   5.029   6.474  10.948 -1.4379  0.0258 -2.3570
  482MOL0     H63605   5.096   6.409  10.796  0.4487  1.7180 -0.1037
  482MOL0     H63606   4.600   5.860  11.666  3.2434  3.4542 -0.4134
  482MOL0     H63607   4.771   5.720  11.767 -0.0020  1.0837 -0.1861
  482MOL0     H63608   4.915   5.155  11.711 -0.3078 -1.2939  5.6114
  482MOL0     H63609   5.107   5.020  11.778  0.1121 -0.8846 -2.8855
  482MOL0     H63610   6.278   5.991  10.810  0.2949 -0.7945 -0.3620
  482MOL0     H63611   6.429   5.946  10.601 -0.9292 -0.2258 -2.0455
  482MOL0     H63612   6.489   6.096  10.154 -4.3686  0.0599 -0.5624
  482MOL0     H63613   6.569   6.070   9.931  0.1828  0.1862 -0.2287
  482MOL0     H63614   6.742   5.996   9.765  1.2603 -0.6108 -2.5167
  482MOL0     H63615   6.573   6.031   9.706  1.8801  0.0144 -2.3136
  482MOL0     H63616   6.753   5.824   9.597 -2.8160 -0.7755  1.5928
  482MOL0     H63617   6.610   5.889   9.512  1.3291 -1.2803 -0.3251
  482MOL0     H63618   6.833   5.985   9.425  1.1417  1.7958 -0.3792
  482MOL0     H63619   6.885   6.003   9.587  0.5662 -2.0832 -1.7841
  482MOL0     H63620   6.773   6.201   9.628  0.3078 -0.4438  1.2762
  482MOL0     H63621   6.810   6.210   9.451 -0.8734 -0.8809 -1.7638
  482MOL0     H63622   6.386   6.213   9.465  0.1411  0.3855 -1.1910
  482MOL0     H63623   6.492   5.649   9.936  0.2991 -1.8158  1.9738
  482MOL0     H63624   6.406   5.669  10.161  2.7331 -1.3178  2.3916
  483MOL0     O63625   8.671   2.215   4.333 -0.5208  0.0246 -0.9262
  483MOL0     C63626   8.592   2.134   4.287 -0.5115 -0.2515 -0.0231
  483MOL0     O63627   8.621   2.049   4.177 -0.7025 -0.4019 -0.3589
  483MOL0     C63628   8.741   2.051   4.105  0.1216  0.2697  0.1399
  483MOL0     C63629   8.798   1.933   4.047 -0.3265  0.0972 -0.7158
  483MOL0     C63630   8.903   1.946   3.955  0.0134  0.0642 -0.8706
  483MOL0     C63631   8.972   2.072   3.926  0.3611  0.1031  0.2438
  483MOL0     O63632   9.088   2.089   3.854 -0.2263 -0.2129  0.5135
  483MOL0     C63633   9.126   1.972   3.782 -0.3472  0.3555 -0.1050
  483MOL0     C63634   9.215   1.895   3.874 -0.1009 -0.5962 -1.2468
  483MOL0     C63635   9.193   1.742   3.866  0.4068  0.5186 -0.1537
  483MOL0     C63636   9.266   1.662   3.980  0.0902  0.5931 -0.6178
  483MOL0     C63637   9.266   1.505   3.951 -0.5681 -0.9404  0.2223
  483MOL0     C63638   9.340   1.427   4.050 -1.1916 -0.0377 -0.2177
  483MOL0     C63639   9.369   1.283   4.014 -0.2711  0.8328  0.8783
  483MOL0     C63640   9.506   1.269   3.954  0.7230  0.3269  0.6099
  483MOL0     N63641   9.547   1.123   3.950  0.3156 -0.0211  0.8876
  483MOL0     C63642   9.523   1.030   3.843  0.0435 -0.6080  0.7887
  483MOL0     C63643   9.599   0.919   3.867 -0.0490  0.1429 -0.4041
  483MOL0     C63644   9.623   0.800   3.780 -0.6090  0.4755 -0.0813
  483MOL0     C63645   9.502   0.757   3.697 -0.2365 -0.3754 -0.0960
  483MOL0     C63646   9.502   0.607   3.687 -0.0938  0.4172  0.5106
  483MOL0     C63647   9.605   0.570   3.588 -0.6755  0.6540 -0.4117
  483MOL0     O63648   9.567   0.441   3.538 -0.5739  0.2494  0.2542
  483MOL0     C63649   9.646   0.413   3.427  0.8309 -0.2047  0.0388
  483MOL0     C63650   9.787   0.434   3.416 -0.0950  0.8720  0.3199
  483MOL0     C63651   9.855   0.397   3.298  0.9239 -1.3539  0.5743
  483MOL0     C63652   9.779   0.341   3.188  0.1778  0.1077  0.3122
  483MOL0     C63653   9.845   0.281   3.065 -0.1239 -0.9576  0.0209
  483MOL0     O63654   9.986   0.269   3.061 -0.1908 -0.7532 -0.4482
  483MOL0     C63655  10.043   0.196   2.958 -0.8990 -0.1057  0.6590
  483MOL0     C63656  10.109   0.073   2.983 -0.0078  0.3836  0.6072
  483MOL0     C63657  10.175   0.008   2.876 -0.6260  0.3870 -0.0638
  483MOL0     C63658  10.180   0.064   2.748 -0.6258 -0.2199 -0.2916
  483MOL0     O63659  10.278   0.012   2.661  0.0441  0.3267 -0.2684
  483MOL0     C63660  10.289  -0.134   2.663 -0.5978  0.9981  0.4407
  483MOL0     C63661  10.315  -0.192   2.519 -0.3111 -0.5999  0.5734
  483MOL0     C63662  10.409  -0.318   2.519 -0.3412  1.0166  0.3648
  483MOL0     C63663  10.398  -0.397   2.386  1.1596  0.5287  0.1444
  483MOL0     C63664  10.487  -0.330   2.279  0.6540 -0.0922 -0.5370
  483MOL0     C63665  10.495  -0.425   2.165 -0.0444  0.5369 -0.6227
  483MOL0     C63666  10.589  -0.385   2.051 -0.1564 -0.0624  0.3374
  483MOL0     C63667  10.700  -0.291   2.093  0.3824  0.9649  0.0872
  483MOL0    Cl63668  10.799  -0.236   1.952  0.1957 -0.2552 -0.2646
  483MOL0     C63669  10.116   0.180   2.722 -0.0335 -1.2669  0.1485
  483MOL0     C63670  10.045   0.244   2.821  1.1286  0.4178 -0.8216
  483MOL0     O63671   9.777   0.230   2.980  0.3923  0.0439  1.0340
  483MOL0     C63672   9.637   0.339   3.200  0.2106  0.5674 -0.3122
  483MOL0     C63673   9.577   0.371   3.320  0.4040 -0.2178 -0.1750
  483MOL0     N63674   9.666   0.945   3.983 -0.1517 -0.3156  0.8108
  483MOL0     N63675   9.635   1.061   4.036  1.0765 -0.3678  0.2922
  483MOL0     C63676   8.910   2.184   3.986  0.6701 -0.2741  0.8936
  483MOL0     C63677   8.801   2.174   4.067  0.6918 -0.3779  0.5486
  483MOL0     C63678   8.447   2.147   4.323 -0.6456  0.3020 -0.3181
  483MOL0     C63679   8.367   2.036   4.296 -0.6484  0.1802  0.4011
  483MOL0     C63680   8.250   2.028   4.362 -0.6505  0.0242  0.0206
  483MOL0     C63681   8.203   2.131   4.446  0.0342  0.3830 -0.1762
  483MOL0     O63682   8.085   2.111   4.498  0.0725 -1.2645 -0.3256
  483MOL0     C63683   7.980   2.190   4.423  0.1505  0.9408 -0.8107
  483MOL0     C63684   7.955   2.131   4.277  0.2599 -0.7713  0.5217
  483MOL0     C63685   7.861   2.226   4.200 -0.0301 -0.4447 -0.8014
  483MOL0     C63686   7.771   2.144   4.111  0.3879 -0.0745 -0.2512
  483MOL0     C63687   7.662   2.083   4.196 -0.2737 -0.0148  0.8013
  483MOL0     C63688   7.571   2.033   4.258 -0.5336 -0.7386 -0.4726
  483MOL0     C63689   8.283   2.240   4.472  1.1288  0.5333  0.7925
  483MOL0     C63690   8.404   2.251   4.411  0.3733 -0.6898  0.7700
  483MOL0     H63691   8.745   1.840   4.064 -0.5210  0.4753  0.9306
  483MOL0     H63692   8.947   1.855   3.915  3.6053  2.6049 -3.3172
  483MOL0     H63693   9.181   1.998   3.691 -1.7893 -2.6057 -1.9828
  483MOL0     H63694   9.038   1.924   3.737 -0.3379 -0.1112  0.3610
  483MOL0     H63695   9.195   1.923   3.978  0.5031  0.5228 -1.4186
  483MOL0     H63696   9.317   1.931   3.857 -0.3046 -0.4928 -2.3000
  483MOL0     H63697   9.226   1.702   3.769  1.8612  2.6821 -0.6147
  483MOL0     H63698   9.086   1.719   3.870  0.4721  0.1439 -0.4790
  483MOL0     H63699   9.368   1.703   3.986 -0.0321  1.1275 -1.9344
  483MOL0     H63700   9.212   1.677   4.074 -1.2126  0.1097 -1.2639
  483MOL0     H63701   9.300   1.479   3.851  1.8506  2.5225 -0.0141
  483MOL0     H63702   9.171   1.454   3.968 -0.4966 -0.8630  0.8992
  483MOL0     H63703   9.303   1.439   4.152 -0.7603 -0.1030 -0.0527
  483MOL0     H63704   9.438   1.473   4.063 -1.7108  1.0667 -0.1120
  483MOL0     H63705   9.356   1.232   4.110  1.2543  0.4944  0.9382
  483MOL0     H63706   9.306   1.251   3.931  3.7660 -0.5036 -1.9776
  483MOL0     H63707   9.575   1.321   4.021  1.0550  1.1564 -0.3421
  483MOL0     H63708   9.509   1.305   3.851 -0.6878 -1.4012 -0.0945
  483MOL0     H63709   9.460   1.063   3.761 -1.3983  2.2072  2.8427
  483MOL0     H63710   9.647   0.727   3.858 -1.5582 -0.0441 -0.2640
  483MOL0     H63711   9.713   0.805   3.718 -1.4697 -0.1175 -1.4199
  483MOL0     H63712   9.506   0.809   3.601  5.0553 -2.5029 -1.4188
  483MOL0     H63713   9.415   0.790   3.754  1.1921  2.0063  0.8866
  483MOL0     H63714   9.516   0.557   3.783 -3.2607  2.0548  2.0041
  483MOL0     H63715   9.406   0.581   3.642  0.8823 -1.2136 -0.7271
  483MOL0     H63716   9.703   0.565   3.636  0.7950 -2.1887 -3.2571
  483MOL0     H63717   9.607   0.635   3.500 -2.4229  1.4497  0.0916
  483MOL0     H63718   9.848   0.473   3.497  0.1560  4.5365 -1.4438
  483MOL0     H63719   9.962   0.410   3.293  0.6858  0.5895 -0.3386
  483MOL0     H63720  10.112   0.043   3.087 -1.7953  0.5068  0.7359
  483MOL0     H63721  10.238  -0.072   2.913 -1.4457  1.1775  3.3502
  483MOL0     H63722  10.207  -0.187   2.713 -0.0425  0.2777  0.6097
  483MOL0     H63723  10.376  -0.167   2.720  0.7764  0.5504 -1.8161
  483MOL0     H63724  10.355  -0.124   2.443 -0.8253 -3.2109 -2.2198
  483MOL0     H63725  10.212  -0.212   2.488 -0.5659  0.6702  0.5431
  483MOL0     H63726  10.383  -0.383   2.602 -1.4202  2.9455  1.6260
  483MOL0     H63727  10.515  -0.290   2.530 -0.0625 -0.2970  1.2069
  483MOL0     H63728  10.430  -0.500   2.405 -0.1043  0.1404  0.3028
  483MOL0     H63729  10.291  -0.397   2.362  0.5441  6.2414  1.5344
  483MOL0     H63730  10.590  -0.328   2.315 -0.0081 -1.0533  1.6229
  483MOL0     H63731  10.441  -0.237   2.244  0.6678  1.3407  2.8420
  483MOL0     H63732  10.398  -0.448   2.118  0.5807  0.3107 -1.8444
  483MOL0     H63733  10.530  -0.525   2.193 -1.4719  0.2173  0.1195
  483MOL0     H63734  10.629  -0.468   1.992  1.0790  1.3551 -0.9014
  483MOL0     H63735  10.517  -0.337   1.984  0.2270 -3.5032 -2.8779
  483MOL0     H63736  10.765  -0.342   2.165  1.7350 -1.2014 -2.5126
  483MOL0     H63737  10.655  -0.200   2.133 -3.0251 -0.4333 -0.2131
  483MOL0     H63738  10.136   0.214   2.621  4.1900 -0.1123  1.1646
  483MOL0     H63739   9.999   0.340   2.802  1.1528 -0.0401 -3.6277
  483MOL0     H63740   9.574   0.302   3.120  1.4846  0.1700 -1.1632
  483MOL0     H63741   9.471   0.353   3.329  0.7841 -1.6327  2.2465
  483MOL0     H63742   8.948   2.283   3.962 -0.1609 -0.1709 -0.0972
  483MOL0     H63743   8.740   2.259   4.096  0.4040  1.0710 -3.5181
  483MOL0     H63744   8.412   1.951   4.245 -0.4206  1.0681 -0.8996
  483MOL0     H63745   8.183   1.945   4.343 -1.4169  1.0854 -2.3500
  483MOL0     H63746   7.993   2.298   4.411  1.5665  0.6331 -2.4464
  483MOL0     H63747   7.883   2.181   4.473  1.6032  0.6829  2.1893
  483MOL0     H63748   8.045   2.119   4.216 -1.6653 -3.2648 -2.0686
  483MOL0     H63749   7.902   2.035   4.277 -2.2585  0.3332 -3.9995
  483MOL0     H63750   7.926   2.291   4.141  3.0180 -1.2434  1.3920
  483MOL0     H63751   7.814   2.288   4.277 -0.5085  2.3347 -3.2060
  483MOL0     H63752   7.720   2.200   4.032  4.9229  0.2030 -3.3543
  483MOL0     H63753   7.830   2.076   4.049 -1.3654 -2.8932  0.9845
  483MOL0     H63754   7.492   1.988   4.314  1.0910 -3.7141 -0.3742
  483MOL0     H63755   8.255   2.316   4.544  1.3237  2.3297 -0.9490
  483MOL0     H63756   8.479   2.325   4.438 -0.9283  0.2852  1.8693
  484MOL0     O63757   1.612   8.959   1.868 -0.1393 -0.2953  0.1795
  484MOL0     C63758   1.510   8.905   1.833  0.7095 -0.2606 -0.1713
  484MOL0     O63759   1.450   8.799   1.893  0.1009 -0.2513  0.5765
  484MOL0     C63760   1.498   8.736   2.003  0.5721 -0.0406  0.1645
  484MOL0     C63761   1.597   8.781   2.090 -0.0769 -0.0172 -0.5066
  484MOL0     C63762   1.611   8.723   2.213  0.5399  0.2960 -0.0652
  484MOL0     C63763   1.545   8.599   2.245  0.1732 -0.5421  0.5591
  484MOL0     O63764   1.584   8.556   2.365 -1.5462  0.4955 -0.6737
  484MOL0     C63765   1.568   8.415   2.386 -0.4493 -0.8379  0.0793
  484MOL0     C63766   1.633   8.388   2.513  0.0394  0.8481  0.2344
  484MOL0     C63767   1.647   8.237   2.529 -0.0256  0.1577  0.1587
  484MOL0     C63768   1.706   8.198   2.666  0.0009  0.1849  0.1295
  484MOL0     C63769   1.670   8.049   2.686 -0.0339 -0.2703 -0.7434
  484MOL0     C63770   1.798   7.981   2.733 -0.7276  0.2242 -0.1232
  484MOL0     C63771   1.787   7.834   2.756  0.4795 -1.0012 -0.3240
  484MOL0     C63772   1.754   7.759   2.628  0.5597 -0.6868 -0.5340
  484MOL0     N63773   1.770   7.615   2.625 -0.8017  0.3520 -0.8820
  484MOL0     C63774   1.722   7.518   2.708 -0.1933  1.1170 -0.6629
  484MOL0     C63775   1.801   7.408   2.682  0.3138 -0.2491  0.6623
  484MOL0     C63776   1.777   7.272   2.753 -0.4094  0.3000 -0.1831
  484MOL0     C63777   1.633   7.226   2.722  0.0488  0.0190  0.2671
  484MOL0     C63778   1.587   7.122   2.822  0.6892  0.3165 -0.6920
  484MOL0     C63779   1.645   6.985   2.805 -0.1235 -0.1879 -0.0316
  484MOL0     O63780   1.600   6.907   2.920  0.3114 -0.2673  0.5065
  484MOL0     C63781   1.690   6.863   3.012 -0.9576 -0.0271 -1.5211
  484MOL0     C63782   1.650   6.768   3.109  0.7141 -0.0329 -0.3444
  484MOL0     C63783   1.731   6.715   3.205  0.0322 -0.2324 -0.6101
  484MOL0     C63784   1.859   6.757   3.217  0.8444 -0.2311  0.5345
  484MOL0     C63785   1.951   6.697   3.315 -0.0762  0.3110  0.3092
  484MOL0     O63786   2.077   6.757   3.313 -0.3752  0.8193 -0.8386
  484MOL0     C63787   2.159   6.730   3.416 -0.4260 -0.2255  0.7220
  484MOL0     C63788   2.140   6.809   3.530  0.6227  0.2204  0.2255
  484MOL0     C63789   2.219   6.790   3.640 -0.4289 -0.4294  0.1020
  484MOL0     C63790   2.316   6.691   3.639  0.3980  0.4603 -0.4936
  484MOL0     O63791   2.400   6.651   3.741 -0.0111 -0.7323 -1.5066
  484MOL0     C63792   2.344   6.677   3.872  0.5384 -0.3280 -0.5613
  484MOL0     C63793   2.400   6.579   3.967  0.1687 -0.7314 -0.1869
  484MOL0     C63794   2.335   6.446   3.972  1.4090 -0.1886  0.4706
  484MOL0     C63795   2.408   6.358   4.067 -0.3188 -0.7598  0.4111
  484MOL0     C63796   2.336   6.228   4.104  0.1682  0.9119  0.7477
  484MOL0     C63797   2.360   6.125   4.002 -0.4627 -0.0736  0.2110
  484MOL0     C63798   2.276   6.002   4.027 -0.7138 -0.1543 -0.5116
  484MOL0     C63799   2.328   5.882   3.940  0.2277 -0.2932 -0.5849
  484MOL0    Cl63800   2.482   5.811   4.007  0.6526  0.2232 -0.0379
  484MOL0     C63801   2.346   6.622   3.525 -0.3796  0.3224  0.5100
  484MOL0     C63802   2.272   6.650   3.403 -1.4052  0.3865 -0.0592
  484MOL0     O63803   1.914   6.603   3.386 -0.0715 -0.5045 -0.2743
  484MOL0     C63804   1.906   6.854   3.131  0.8101 -0.8991 -0.3814
  484MOL0     C63805   1.827   6.903   3.026  0.3420 -0.2355  0.7616
  484MOL0     N63806   1.890   7.440   2.584  1.2903  0.4980 -1.2150
  484MOL0     N63807   1.874   7.562   2.557 -0.2891 -0.7472  0.3728
  484MOL0     C63808   1.452   8.545   2.154  0.0829 -0.3210  0.2233
  484MOL0     C63809   1.419   8.621   2.036 -0.6713 -0.2963  0.1615
  484MOL0     C63810   1.466   8.932   1.691 -0.3401  0.0696 -0.5568
  484MOL0     C63811   1.355   8.869   1.628  0.2020  0.2299  0.3107
  484MOL0     C63812   1.323   8.900   1.498 -0.3732  0.2913 -0.8979
  484MOL0     C63813   1.396   8.997   1.425  0.6298 -0.0715 -0.3811
  484MOL0     O63814   1.369   9.014   1.290  0.2735 -0.4166  0.3713
  484MOL0     C63815   1.428   9.118   1.208  1.0809 -0.2270  0.8949
  484MOL0     C63816   1.358   9.256   1.255 -0.3539  0.1555  0.6417
  484MOL0     C63817   1.418   9.358   1.166  0.7272 -0.6884  0.4270
  484MOL0     C63818   1.567   9.382   1.189  0.2648 -0.5392  0.0540
  484MOL0     C63819   1.601   9.389   1.333  0.7650 -0.4182  0.3436
  484MOL0     C63820   1.633   9.413   1.443  0.7447 -0.5204  0.1079
  484MOL0     C63821   1.511   9.052   1.482  0.7391  0.1490  0.2623
  484MOL0     C63822   1.534   9.029   1.614  0.5582 -1.1018  0.7209
  484MOL0     H63823   1.665   8.864   2.075 -0.4790  0.3148 -0.4932
  484MOL0     H63824   1.673   8.764   2.292 -1.3558  2.1098  0.5938
  484MOL0     H63825   1.604   8.358   2.300  0.7121  0.5203 -0.3637
  484MOL0     H63826   1.460   8.395   2.396 -0.7178 -1.2698 -2.7663
  484MOL0     H63827   1.565   8.428   2.589  4.0230  3.2287  2.8701
  484MOL0     H63828   1.733   8.426   2.534  0.1058  0.4674  0.6209
  484MOL0     H63829   1.713   8.204   2.449  2.1450 -0.4013  2.0833
  484MOL0     H63830   1.551   8.186   2.511  0.1115 -0.3515  0.7993
  484MOL0     H63831   1.812   8.224   2.670  0.3783 -1.1415 -0.6499
  484MOL0     H63832   1.666   8.249   2.754  1.8003 -0.0560  1.1391
  484MOL0     H63833   1.633   7.991   2.601 -0.1818 -2.7782  0.9157
  484MOL0     H63834   1.590   8.044   2.760  1.3678 -1.1907  0.8032
  484MOL0     H63835   1.829   8.028   2.827 -0.7490  2.0206 -0.9765
  484MOL0     H63836   1.868   7.994   2.650 -1.3238 -2.0067 -1.0538
  484MOL0     H63837   1.877   7.796   2.806  1.1219  2.7427  1.7580
  484MOL0     H63838   1.699   7.818   2.819 -0.4969  0.6459 -1.1913
  484MOL0     H63839   1.815   7.807   2.550  2.1599 -0.0302  1.0534
  484MOL0     H63840   1.648   7.780   2.613  0.7759  0.5923 -0.3675
  484MOL0     H63841   1.642   7.521   2.781  0.0289 -1.4862 -0.2187
  484MOL0     H63842   1.787   7.276   2.862 -0.5009  3.1258 -0.1946
  484MOL0     H63843   1.849   7.201   2.711  4.6435  3.6440  1.9122
  484MOL0     H63844   1.641   7.189   2.620 -2.6148  2.8324 -1.1118
  484MOL0     H63845   1.557   7.303   2.710  0.1636 -0.2119 -2.3524
  484MOL0     H63846   1.605   7.158   2.923 -1.2720 -1.3833  0.3514
  484MOL0     H63847   1.478   7.121   2.805 -0.4001  2.0323  4.5351
  484MOL0     H63848   1.754   6.981   2.802 -0.1139 -0.5890  0.5758
  484MOL0     H63849   1.623   6.938   2.709  4.0521 -3.4535  0.3613
  484MOL0     H63850   1.550   6.728   3.114 -0.1748  2.0885 -0.2143
  484MOL0     H63851   1.690   6.642   3.274 -0.6797  1.8817  1.2851
  484MOL0     H63852   2.055   6.878   3.534 -0.0113 -0.5824  2.5593
  484MOL0     H63853   2.199   6.852   3.726  2.1006 -1.5899  1.6348
  484MOL0     H63854   2.235   6.672   3.869  0.4046  1.8583 -1.0901
  484MOL0     H63855   2.358   6.778   3.912 -0.1905 -0.3238 -0.2965
  484MOL0     H63856   2.404   6.630   4.064  2.9373  1.0093 -1.0929
  484MOL0     H63857   2.505   6.568   3.938  0.4593 -1.4757  1.0820
  484MOL0     H63858   2.333   6.402   3.872 -1.7919  1.3581 -0.2534
  484MOL0     H63859   2.234   6.469   4.005  1.2965  0.5073 -0.3317
  484MOL0     H63860   2.507   6.340   4.023 -0.4090 -2.7225  0.9129
  484MOL0     H63861   2.411   6.415   4.160 -3.8292  2.0939 -0.9819
  484MOL0     H63862   2.230   6.247   4.121 -0.2240 -0.6622  0.1831
  484MOL0     H63863   2.375   6.185   4.197 -0.4916  1.4893  1.3060
  484MOL0     H63864   2.469   6.109   4.000 -0.4742 -0.0850 -0.4777
  484MOL0     H63865   2.333   6.160   3.902 -3.8090 -0.2368  0.9453
  484MOL0     H63866   2.275   5.969   4.131 -1.3603 -0.6927 -0.6821
  484MOL0     H63867   2.173   6.024   3.999 -1.1102 -1.4077 -0.0987
  484MOL0     H63868   2.345   5.921   3.840 -1.7452  0.2538 -0.7456
  484MOL0     H63869   2.250   5.807   3.922  0.5292 -0.3052 -1.9473
  484MOL0     H63870   2.429   6.554   3.517  0.4839  1.4827 -0.7312
  484MOL0     H63871   2.274   6.612   3.301 -4.3572 -0.5887  0.1719
  484MOL0     H63872   2.001   6.907   3.129 -0.4710  1.6730 -4.0445
  484MOL0     H63873   1.870   6.975   2.956 -0.1411  0.3200  1.0309
  484MOL0     H63874   1.402   8.450   2.173 -0.9817 -0.2552 -1.9530
  484MOL0     H63875   1.339   8.588   1.971 -0.8704 -1.3870  0.9465
  484MOL0     H63876   1.298   8.797   1.687  0.8604 -1.0136 -0.5357
  484MOL0     H63877   1.260   8.833   1.440  2.4677 -1.8224 -1.7299
  484MOL0     H63878   1.403   9.098   1.104 -2.7806  0.7525  1.4526
  484MOL0     H63879   1.536   9.135   1.211  0.6345  3.6056  1.0680
  484MOL0     H63880   1.251   9.250   1.233 -0.1421 -0.6639 -0.2791
  484MOL0     H63881   1.364   9.270   1.363  2.2124 -0.2240  0.6074
  484MOL0     H63882   1.373   9.456   1.186  1.5574  0.1376 -1.4810
  484MOL0     H63883   1.402   9.332   1.062 -0.7101 -1.3929  0.8055
  484MOL0     H63884   1.625   9.298   1.150  1.0863  0.2433 -0.4472
  484MOL0     H63885   1.591   9.476   1.139 -2.8329 -1.2317 -3.1016
  484MOL0     H63886   1.669   9.447   1.538 -0.2651 -1.4287  0.8362
  484MOL0     H63887   1.580   9.111   1.423 -0.8963 -1.9067 -4.1185
  484MOL0     H63888   1.624   9.068   1.660  1.3142  1.1482 -2.3149
  485MOL0     O63889   6.281   3.462   0.414  0.4121  0.1110 -0.2347
  485MOL0     C63890   6.274   3.413   0.525  0.0971  0.8843  0.5926
  485MOL0     O63891   6.275   3.483   0.631  0.1597 -0.7608 -0.3645
  485MOL0     C63892   6.276   3.628   0.631  0.8173  1.2064  0.1538
  485MOL0     C63893   6.350   3.700   0.730  0.4160 -0.1000 -0.6052
  485MOL0     C63894   6.349   3.842   0.718  0.4729 -0.1907 -0.4690
  485MOL0     C63895   6.258   3.915   0.634 -0.1664 -0.1385 -0.0372
  485MOL0     O63896   6.254   4.051   0.625 -0.3775 -0.3719 -0.9479
  485MOL0     C63897   6.336   4.128   0.719 -1.1846  1.0874  0.2950
  485MOL0     C63898   6.314   4.284   0.706  1.0854 -0.5257 -0.3558
  485MOL0     C63899   6.323   4.358   0.853  0.0523  0.5180  0.9739
  485MOL0     C63900   6.303   4.502   0.832 -0.3236  0.2315 -0.1268
  485MOL0     C63901   6.256   4.570   0.957 -0.1533 -0.2483  0.8335
  485MOL0     C63902   6.116   4.525   0.992 -0.4248  1.2131 -0.1224
  485MOL0     C63903   6.042   4.622   1.074 -0.0780 -0.8398 -0.3784
  485MOL0     C63904   6.003   4.762   1.024 -0.6023  0.0005  0.3128
  485MOL0     N63905   5.929   4.750   0.895 -0.0875  0.6151 -0.8445
  485MOL0     C63906   5.811   4.683   0.887  0.4602  1.0327  0.8207
  485MOL0     C63907   5.779   4.700   0.754  0.1338 -1.0500  0.6102
  485MOL0     C63908   5.640   4.677   0.686  0.2990  0.5212 -0.2906
  485MOL0     C63909   5.545   4.786   0.718  0.1791 -0.2402  0.1304
  485MOL0     C63910   5.396   4.753   0.677 -0.1698 -0.1229 -0.0848
  485MOL0     C63911   5.369   4.721   0.527  0.9913  0.1120 -1.1429
  485MOL0     O63912   5.395   4.579   0.516 -0.0772  0.4335 -0.5104
  485MOL0     C63913   5.315   4.480   0.557  0.5554 -0.3441 -0.4220
  485MOL0     C63914   5.373   4.352   0.538 -0.7739 -0.0806  0.4219
  485MOL0     C63915   5.300   4.236   0.558  0.6224  0.5023 -0.8591
  485MOL0     C63916   5.163   4.244   0.595  0.0343 -0.2126  1.2840
  485MOL0     C63917   5.094   4.118   0.609  1.1425 -1.3925 -0.2329
  485MOL0     O63918   5.161   4.018   0.659 -0.1086  0.0978  0.2080
  485MOL0     C63919   5.089   3.910   0.703 -0.1162 -0.1286  0.3151
  485MOL0     C63920   5.140   3.787   0.674 -0.1409  0.8083 -0.4606
  485MOL0     C63921   5.092   3.664   0.716 -0.0662  0.2087  0.3533
  485MOL0     C63922   4.986   3.659   0.802  0.7861 -0.2938  0.6797
  485MOL0     O63923   4.935   3.538   0.845  0.6505 -0.0390 -0.2068
  485MOL0     C63924   4.823   3.543   0.938 -0.0002  0.7265 -0.4384
  485MOL0     C63925   4.796   3.411   1.003  0.4544  0.0029 -0.5428
  485MOL0     C63926   4.773   3.288   0.912  0.0011  0.1739 -0.2654
  485MOL0     C63927   4.703   3.187   0.997  0.1946 -0.0859 -0.3368
  485MOL0     C63928   4.633   3.077   0.921 -0.3544 -0.8356 -0.3498
  485MOL0     C63929   4.731   3.006   0.830  0.8433 -0.7313  0.2511
  485MOL0     C63930   4.667   2.877   0.794  0.6945  0.3759  0.9015
  485MOL0     C63931   4.735   2.815   0.663 -0.4322 -0.7098  0.9036
  485MOL0    Cl63932   4.629   2.791   0.531 -0.4755  0.2956  0.3079
  485MOL0     C63933   4.921   3.778   0.820  0.3188 -1.0628 -0.1183
  485MOL0     C63934   4.965   3.906   0.779  0.2511  0.6553 -0.0317
  485MOL0     O63935   4.972   4.121   0.580  0.2740 -0.6362  0.2394
  485MOL0     C63936   5.105   4.371   0.616 -0.2357  0.0323  0.8889
  485MOL0     C63937   5.183   4.487   0.593 -0.2346 -0.5419 -0.9599
  485MOL0     N63938   5.881   4.778   0.693  0.1457 -0.0332 -0.0345
  485MOL0     N63939   5.977   4.794   0.779  0.0156 -0.2235 -0.0679
  485MOL0     C63940   6.185   3.841   0.543 -0.5047  0.3580  0.1422
  485MOL0     C63941   6.195   3.700   0.543  0.3018 -0.2299 -0.0913
  485MOL0     C63942   6.268   3.266   0.544  0.2833 -0.3562 -0.8122
  485MOL0     C63943   6.331   3.171   0.467 -0.3212  0.0145  0.0300
  485MOL0     C63944   6.327   3.039   0.504  0.4135  0.0283 -0.2928
  485MOL0     C63945   6.265   2.991   0.621  0.1459  1.1881  0.3174
  485MOL0     O63946   6.261   2.853   0.645 -0.0760 -0.5413  0.1585
  485MOL0     C63947   6.369   2.768   0.591 -0.8269  0.7511 -0.4998
  485MOL0     C63948   6.319   2.635   0.517  0.8327  0.6101 -0.2123
  485MOL0     C63949   6.223   2.561   0.610 -0.1599 -0.0206 -0.1797
  485MOL0     C63950   6.191   2.418   0.562  0.2452 -0.5291 -0.3654
  485MOL0     C63951   6.131   2.333   0.654  0.1807 -0.2930 -0.3671
  485MOL0     C63952   6.079   2.259   0.732  0.1408  0.5130  0.9013
  485MOL0     C63953   6.186   3.088   0.688  0.3674 -0.2093  0.3621
  485MOL0     C63954   6.202   3.226   0.669 -0.0035 -0.4107  0.8081
  485MOL0     H63955   6.408   3.650   0.807  0.8954  3.1191  1.2620
  485MOL0     H63956   6.426   3.893   0.776  1.8155  0.4393 -2.6584
  485MOL0     H63957   6.444   4.111   0.718 -1.1712  1.0027  1.4561
  485MOL0     H63958   6.306   4.097   0.819 -0.5697 -1.1372 -0.1530
  485MOL0     H63959   6.214   4.297   0.663  0.5489 -0.8431  0.7473
  485MOL0     H63960   6.386   4.327   0.636  2.1625 -1.2545  0.2716
  485MOL0     H63961   6.426   4.344   0.889  0.3772  2.0950  0.7386
  485MOL0     H63962   6.261   4.303   0.924  0.3705 -1.4084 -0.1755
  485MOL0     H63963   6.406   4.530   0.807  0.2857 -2.1601 -0.5959
  485MOL0     H63964   6.228   4.526   0.757 -0.4047 -0.2801 -0.2120
  485MOL0     H63965   6.250   4.678   0.940  2.0803  0.1958  2.5059
  485MOL0     H63966   6.323   4.560   1.043 -0.0150  2.1155  1.0810
  485MOL0     H63967   6.126   4.430   1.045  0.2095  0.9155 -0.7609
  485MOL0     H63968   6.071   4.504   0.894  0.8076  0.1638 -0.4926
  485MOL0     H63969   5.944   4.578   1.094 -1.7211  2.6528 -0.0903
  485MOL0     H63970   6.093   4.631   1.170  1.5512 -0.8073 -1.2198
  485MOL0     H63971   6.090   4.825   1.009  0.8044 -0.8910  3.6825
  485MOL0     H63972   5.935   4.806   1.098 -1.2676 -0.0458 -0.2594
  485MOL0     H63973   5.754   4.639   0.969  2.1899 -1.0582  0.9863
  485MOL0     H63974   5.590   4.587   0.724 -0.0584 -0.1255 -2.1861
  485MOL0     H63975   5.664   4.669   0.580  4.4075  1.0358  0.4712
  485MOL0     H63976   5.581   4.874   0.664  0.1007 -0.1435  0.2337
  485MOL0     H63977   5.545   4.808   0.826 -0.7676  0.4680  0.0035
  485MOL0     H63978   5.365   4.675   0.748 -0.7800 -0.5261 -0.7864
  485MOL0     H63979   5.340   4.843   0.708  1.8695  0.2151  3.0935
  485MOL0     H63980   5.432   4.783   0.464 -0.0760  2.1580 -0.2867
  485MOL0     H63981   5.267   4.748   0.498 -1.1522 -0.8915  4.1127
  485MOL0     H63982   5.471   4.361   0.491 -1.4026 -0.7681 -1.0925
  485MOL0     H63983   5.342   4.138   0.538  0.5763  0.9625 -3.5428
  485MOL0     H63984   5.244   3.785   0.643  0.4239 -2.4523  1.1727
  485MOL0     H63985   5.152   3.573   0.707  1.4637  1.2300 -0.3280
  485MOL0     H63986   4.736   3.561   0.875  1.1389  0.9331 -2.0087
  485MOL0     H63987   4.843   3.612   1.020  2.6399  1.3812 -1.5432
  485MOL0     H63988   4.713   3.429   1.072  0.7041 -1.2460  0.1113
  485MOL0     H63989   4.874   3.386   1.075 -1.1457 -0.1550  1.1955
  485MOL0     H63990   4.870   3.252   0.875  0.3266  0.2823  0.4652
  485MOL0     H63991   4.705   3.305   0.828  1.1512  1.1946 -1.0368
  485MOL0     H63992   4.772   3.140   1.068  1.9652 -1.7189 -2.9539
  485MOL0     H63993   4.628   3.236   1.059  1.2834 -0.9177  1.7425
  485MOL0     H63994   4.552   3.126   0.868  0.4520  2.1750  0.9808
  485MOL0     H63995   4.585   3.011   0.994  0.0990  0.5662  1.2990
  485MOL0     H63996   4.825   2.993   0.885 -0.0869  0.0796  2.1255
  485MOL0     H63997   4.759   3.072   0.749  1.3814 -0.3138  0.7667
  485MOL0     H63998   4.685   2.813   0.881 -0.3432  0.3045  1.0839
  485MOL0     H63999   4.560   2.887   0.774  0.4479 -0.1137  1.9122
  485MOL0     H64000   4.775   2.717   0.691  0.4219 -0.9060 -0.8581
  485MOL0     H64001   4.816   2.880   0.627 -0.2759 -0.1350  2.2312
  485MOL0     H64002   4.833   3.780   0.884  0.6062  0.9040  0.2904
  485MOL0     H64003   4.915   4.001   0.794  2.2647  1.5139  1.7268
  485MOL0     H64004   4.997   4.371   0.623 -0.7182  3.1250 -2.9195
  485MOL0     H64005   5.136   4.585   0.597  1.0860  0.0679  0.3898
  485MOL0     H64006   6.112   3.894   0.483  0.6922  1.3408 -0.4932
  485MOL0     H64007   6.142   3.663   0.456 -1.3603  2.5552 -0.3812
  485MOL0     H64008   6.385   3.193   0.376 -2.2839 -1.1832 -1.5243
  485MOL0     H64009   6.362   2.974   0.424  1.3938  0.6186 -0.3514
  485MOL0     H64010   6.434   2.738   0.674  0.2152  0.1674 -1.4929
  485MOL0     H64011   6.433   2.817   0.518  3.5197 -0.5179  2.0519
  485MOL0     H64012   6.266   2.662   0.425 -0.1254 -1.6886 -0.4035
  485MOL0     H64013   6.403   2.575   0.484 -0.6796 -0.2961 -2.6913
  485MOL0     H64014   6.138   2.628   0.622 -0.5550 -1.0384  4.2408
  485MOL0     H64015   6.276   2.557   0.706 -2.4460  0.1073  1.1510
  485MOL0     H64016   6.121   2.423   0.478 -1.0799  3.0021  0.7681
  485MOL0     H64017   6.280   2.367   0.525  0.7918  1.6394 -2.2575
  485MOL0     H64018   6.021   2.188   0.787  0.7180  1.9321  3.4794
  485MOL0     H64019   6.113   3.069   0.766  0.6499  0.8649  0.9090
  485MOL0     H64020   6.143   3.301   0.721  2.5824  3.5697 -1.4414
  486MOL0     O64021   7.831   0.890   2.266 -1.0793 -0.3585  0.2175
  486MOL0     C64022   7.832   0.973   2.355 -0.4412  0.6239 -0.3871
  486MOL0     O64023   7.917   0.973   2.467 -0.7363 -0.1994 -0.0513
  486MOL0     C64024   8.011   0.868   2.490 -0.3702 -1.4903  0.5018
  486MOL0     C64025   8.002   0.733   2.434 -0.2542  0.5996 -0.8314
  486MOL0     C64026   8.123   0.642   2.436  1.2750 -0.8690  0.0144
  486MOL0     C64027   8.234   0.687   2.503 -0.1654  0.0317  0.2514
  486MOL0     O64028   8.342   0.607   2.515 -0.3328 -0.3928 -0.5648
  486MOL0     C64029   8.392   0.587   2.647 -0.5003 -0.3243 -0.7385
  486MOL0     C64030   8.423   0.442   2.681 -0.7214 -0.5004  0.4430
  486MOL0     C64031   8.298   0.359   2.705 -0.2391  0.3541 -0.8242
  486MOL0     C64032   8.346   0.217   2.755  0.9236  1.2785 -0.3250
  486MOL0     C64033   8.225   0.139   2.828  0.1511 -0.2599  0.4523
  486MOL0     C64034   8.258  -0.013   2.815  0.2233 -1.0163  0.1135
  486MOL0     C64035   8.160  -0.089   2.913  0.1393 -0.3973 -1.0094
  486MOL0     C64036   8.167  -0.241   2.896 -0.0809 -1.6892 -0.1405
  486MOL0     N64037   8.280  -0.306   2.964 -0.1885  0.1140  0.4870
  486MOL0     C64038   8.401  -0.326   2.917 -1.7876 -0.2636  0.1091
  486MOL0     C64039   8.472  -0.393   3.010 -0.3975 -0.0723  0.5495
  486MOL0     C64040   8.621  -0.405   3.004 -0.4864 -0.3476 -0.4102
  486MOL0     C64041   8.668  -0.504   2.892  0.7609 -0.1688  0.3648
  486MOL0     C64042   8.744  -0.432   2.783 -1.4255  1.0363  0.1939
  486MOL0     C64043   8.879  -0.395   2.835  0.1524 -0.2984  0.5153
  486MOL0     O64044   8.955  -0.360   2.716  0.1326  0.2358 -0.0871
  486MOL0     C64045   9.088  -0.396   2.731  0.0248  0.2380 -0.1612
  486MOL0     C64046   9.167  -0.307   2.791 -1.2564  0.0268  0.0541
  486MOL0     C64047   9.302  -0.344   2.818 -0.2594 -0.0320 -0.4184
  486MOL0     C64048   9.361  -0.469   2.771 -0.4127 -0.8806  0.3644
  486MOL0     C64049   9.493  -0.515   2.816  0.0567 -0.1209  1.7803
  486MOL0     O64050   9.533  -0.642   2.773 -0.3021 -0.3071  0.2128
  486MOL0     C64051   9.658  -0.699   2.809 -0.2002 -0.2648  0.5438
  486MOL0     C64052   9.775  -0.621   2.808 -0.0306  0.6861 -0.2224
  486MOL0     C64053   9.900  -0.675   2.846  1.8269  0.2687  0.3982
  486MOL0     C64054   9.911  -0.807   2.884  0.8191 -0.1764 -1.3079
  486MOL0     O64055  10.032  -0.860   2.916 -0.2331 -0.2973  0.0958
  486MOL0     C64056  10.038  -0.985   2.986 -0.2712  0.8526  0.2379
  486MOL0     C64057  10.188  -1.013   3.014 -1.2394 -0.1007  0.3608
  486MOL0     C64058  10.256  -1.074   2.897 -0.4400 -0.1993 -0.1331
  486MOL0     C64059  10.407  -1.087   2.915  0.1644  0.8604  0.2948
  486MOL0     C64060  10.449  -1.207   2.989 -0.9675  0.1349 -0.1140
  486MOL0     C64061  10.466  -1.231   3.139  0.4907 -0.4248 -0.4017
  486MOL0     C64062  10.492  -1.376   3.178  0.3309 -0.2423  1.2388
  486MOL0     C64063  10.508  -1.397   3.329 -0.4999  0.4737 -0.5756
  486MOL0    Cl64064  10.346  -1.402   3.408  0.3824 -0.1727 -0.3921
  486MOL0     C64065   9.786  -0.880   2.898  0.5102 -0.0756  0.1868
  486MOL0     C64066   9.661  -0.821   2.857 -0.2482  0.0882 -0.3644
  486MOL0     O64067   9.563  -0.438   2.885  0.5844 -0.5532  0.4761
  486MOL0     C64068   9.281  -0.555   2.699  0.8178  0.3035  0.5718
  486MOL0     C64069   9.137  -0.520   2.697 -0.5230  0.2707 -0.4312
  486MOL0     N64070   8.394  -0.427   3.111  0.0108  0.2501 -0.1062
  486MOL0     N64071   8.281  -0.380   3.085 -0.4002 -0.9501 -0.9053
  486MOL0     C64072   8.229   0.816   2.569 -1.1217 -0.1903  0.5598
  486MOL0     C64073   8.122   0.897   2.568  1.1767  0.1845  0.2348
  486MOL0     C64074   7.732   1.076   2.336  0.8725 -0.2485 -0.0980
  486MOL0     C64075   7.680   1.104   2.221  0.9520 -0.3663  0.2634
  486MOL0     C64076   7.591   1.218   2.211 -0.4059 -0.7493 -0.6007
  486MOL0     C64077   7.536   1.275   2.328  0.6520 -0.5833  0.9780
  486MOL0     O64078   7.440   1.370   2.344 -0.3234 -0.0629  1.0921
  486MOL0     C64079   7.366   1.421   2.238 -0.7180 -0.9248  0.9314
  486MOL0     C64080   7.406   1.571   2.241  0.4734  0.1891  0.0530
  486MOL0     C64081   7.336   1.653   2.125 -0.1855 -0.4856 -0.9280
  486MOL0     C64082   7.184   1.636   2.122  0.1601 -0.3215  0.5250
  486MOL0     C64083   7.117   1.746   2.059  0.5394 -1.1437  0.7906
  486MOL0     C64084   7.079   1.855   2.013 -0.2978  0.2661 -0.4824
  486MOL0     C64085   7.590   1.235   2.455  0.7740 -0.9548 -0.7970
  486MOL0     C64086   7.694   1.147   2.457  0.0060  0.3926  0.4885
  486MOL0     H64087   7.923   0.698   2.368  0.5281 -0.2714 -1.3397
  486MOL0     H64088   8.113   0.549   2.382  0.3466 -2.0397  2.0876
  486MOL0     H64089   8.317   0.623   2.717  0.7765  3.9983 -1.2775
  486MOL0     H64090   8.483   0.645   2.664 -0.2824 -0.7266 -0.5217
  486MOL0     H64091   8.466   0.448   2.781 -1.2494  0.9388  0.6027
  486MOL0     H64092   8.485   0.395   2.603 -0.6765  0.6751 -0.2611
  486MOL0     H64093   8.239   0.336   2.616  0.5289  0.4108 -1.3557
  486MOL0     H64094   8.221   0.409   2.764 -1.3849  0.0510 -2.0125
  486MOL0     H64095   8.375   0.167   2.662  1.5832  0.2008  0.4284
  486MOL0     H64096   8.432   0.208   2.823  1.0460 -2.2753 -0.7671
  486MOL0     H64097   8.130   0.174   2.786  0.6776  2.1584  1.1293
  486MOL0     H64098   8.231   0.163   2.934  3.2893 -0.9747  0.5272
  486MOL0     H64099   8.361  -0.029   2.850  0.5938 -0.6453 -0.7893
  486MOL0     H64100   8.249  -0.040   2.710  0.1521  1.8998 -0.7101
  486MOL0     H64101   8.174  -0.051   3.014  1.4714 -2.2835 -0.4252
  486MOL0     H64102   8.061  -0.051   2.885  0.2124  0.7743  0.2438
  486MOL0     H64103   8.193  -0.263   2.792 -0.6179  0.0159 -0.6695
  486MOL0     H64104   8.075  -0.289   2.931 -2.3642  1.9087 -0.6508
  486MOL0     H64105   8.454  -0.303   2.825 -0.3615 -2.5416  0.2891
  486MOL0     H64106   8.661  -0.435   3.101 -1.0212  2.9506  0.9839
  486MOL0     H64107   8.664  -0.307   2.979 -0.3772 -0.6928 -1.6101
  486MOL0     H64108   8.580  -0.548   2.846  0.2372  0.4865  0.7261
  486MOL0     H64109   8.727  -0.585   2.937 -1.5500 -1.6659  0.8276
  486MOL0     H64110   8.751  -0.493   2.692  2.5320  2.4062 -0.6139
  486MOL0     H64111   8.690  -0.338   2.769  0.0910  2.3069  2.3451
  486MOL0     H64112   8.920  -0.489   2.872  3.3398  0.7322 -0.0801
  486MOL0     H64113   8.883  -0.317   2.912 -4.7590 -0.8257  1.6263
  486MOL0     H64114   9.114  -0.220   2.828 -2.9254  0.3716 -2.8156
  486MOL0     H64115   9.361  -0.287   2.888  0.7632  1.0061 -2.0467
  486MOL0     H64116   9.783  -0.513   2.795  1.3013  0.8252  1.4602
  486MOL0     H64117   9.990  -0.614   2.842  1.9060  0.1186 -0.2060
  486MOL0     H64118   9.990  -1.064   2.928  0.3858 -0.1579  1.0321
  486MOL0     H64119   9.985  -0.978   3.082  1.1366  1.0009  1.0381
  486MOL0     H64120  10.193  -1.082   3.099  0.1110  0.6230  0.9057
  486MOL0     H64121  10.240  -0.921   3.041  1.0891 -1.3715  0.4931
  486MOL0     H64122  10.234  -1.013   2.809  0.3907 -1.4997 -1.2847
  486MOL0     H64123  10.220  -1.173   2.867 -0.1007 -0.0709 -0.9916
  486MOL0     H64124  10.441  -1.105   2.813  1.2223 -0.5347  0.8644
  486MOL0     H64125  10.446  -0.989   2.944  2.0410 -0.4231  2.4081
  486MOL0     H64126  10.554  -1.213   2.960 -1.1670  3.0202 -1.7885
  486MOL0     H64127  10.389  -1.290   2.950 -1.9791  2.2240 -3.4419
  486MOL0     H64128  10.376  -1.204   3.195  0.8764 -1.2607  0.6551
  486MOL0     H64129  10.536  -1.163   3.189 -2.5930  1.1002  2.2558
  486MOL0     H64130  10.399  -1.424   3.146  0.6029  1.9960 -3.7791
  486MOL0     H64131  10.566  -1.425   3.114 -1.3298 -3.1578  1.3683
  486MOL0     H64132  10.579  -1.327   3.374  2.4462 -1.4529 -1.9305
  486MOL0     H64133  10.554  -1.495   3.349  3.7596  2.1743 -1.1052
  486MOL0     H64134   9.783  -0.978   2.944  1.0154 -0.6642 -0.9862
  486MOL0     H64135   9.568  -0.875   2.845 -1.5834  2.0405  0.6058
  486MOL0     H64136   9.321  -0.648   2.660  0.6602 -0.6137  2.4727
  486MOL0     H64137   9.083  -0.597   2.643  0.4731 -2.1519  1.7729
  486MOL0     H64138   8.316   0.866   2.611  1.4800 -0.1371 -4.2765
  486MOL0     H64139   8.132   1.000   2.601  0.6062 -0.8333  4.0543
  486MOL0     H64140   7.720   1.062   2.129  1.3510  0.1164  0.2186
  486MOL0     H64141   7.553   1.242   2.112  1.3752  0.5090 -1.0332
  486MOL0     H64142   7.258   1.417   2.252 -1.2029 -1.1401 -2.1878
  486MOL0     H64143   7.391   1.372   2.143 -0.0322 -0.2092  0.7286
  486MOL0     H64144   7.385   1.605   2.343  0.3248  0.7205 -0.1475
  486MOL0     H64145   7.515   1.579   2.233  0.6525 -2.0214 -0.4121
  486MOL0     H64146   7.381   1.628   2.028  0.8121  2.1068 -1.2102
  486MOL0     H64147   7.359   1.758   2.145  1.3524 -1.1100  0.8550
  486MOL0     H64148   7.152   1.541   2.079  1.0669  1.0621 -3.6902
  486MOL0     H64149   7.151   1.644   2.226  2.3189 -1.9828  1.4024
  486MOL0     H64150   7.044   1.954   1.996 -1.1667 -0.0460 -0.5437
  486MOL0     H64151   7.548   1.283   2.543  0.2042 -0.3875 -1.3711
  486MOL0     H64152   7.731   1.116   2.554  0.5478  1.8431  0.7645
  487MOL0     O64153   3.408   1.013   3.920  0.0445  0.1221 -0.1727
  487MOL0     C64154   3.430   0.886   3.927 -0.6600  0.1310  0.5378
  487MOL0     O64155   3.527   0.823   3.998 -0.8307  0.6986 -0.2487
  487MOL0     C64156   3.627   0.907   4.051 -0.0764  0.6019  0.5421
  487MOL0     C64157   3.645   0.939   4.188 -0.0765 -0.7440 -0.4070
  487MOL0     C64158   3.751   1.019   4.230  0.4385  0.6281  0.0599
  487MOL0     C64159   3.851   1.063   4.146 -0.4708  0.8794  0.7043
  487MOL0     O64160   3.954   1.144   4.182  0.3142 -0.1795 -0.3619
  487MOL0     C64161   3.957   1.223   4.292 -0.3634  0.2843 -0.4489
  487MOL0     C64162   3.893   1.361   4.261  0.4356  0.8340  0.0040
  487MOL0     C64163   3.903   1.452   4.375  1.0796  0.3962 -0.0768
  487MOL0     C64164   4.046   1.507   4.383 -0.4414  0.7073 -0.2734
  487MOL0     C64165   4.100   1.552   4.524 -0.7139 -0.4561 -0.2605
  487MOL0     C64166   4.058   1.464   4.644 -0.0377  0.1124  0.1108
  487MOL0     C64167   4.135   1.509   4.774  0.5689  0.3690 -0.7408
  487MOL0     C64168   4.106   1.413   4.892  0.3384 -0.1113 -0.1069
  487MOL0     N64169   4.046   1.498   5.002  0.6447 -0.1383  1.0118
  487MOL0     C64170   3.908   1.523   5.012 -0.3819 -0.2112  0.4261
  487MOL0     C64171   3.902   1.608   5.124  0.3537  0.7266  0.5432
  487MOL0     C64172   3.770   1.658   5.189  0.8345 -0.0977  0.3642
  487MOL0     C64173   3.801   1.763   5.297  0.0055  0.6323 -0.1935
  487MOL0     C64174   3.803   1.678   5.429  0.2438 -0.0133 -0.7839
  487MOL0     C64175   3.831   1.774   5.555 -0.8244 -0.0805 -0.5915
  487MOL0     O64176   3.728   1.880   5.553 -0.2814  0.1599  0.0781
  487MOL0     C64177   3.591   1.861   5.578 -1.6530 -0.0534  0.5607
  487MOL0     C64178   3.498   1.953   5.529  0.3471 -0.9907 -1.1894
  487MOL0     C64179   3.361   1.951   5.572  0.1384  0.2052  0.4811
  487MOL0     C64180   3.321   1.848   5.661 -0.6146  1.5426 -1.0507
  487MOL0     C64181   3.188   1.849   5.706  1.2437 -1.5930 -1.0644
  487MOL0     O64182   3.150   1.965   5.765  0.1226 -0.3142 -0.1084
  487MOL0     C64183   3.040   1.952   5.853 -0.2455  0.1573  0.2655
  487MOL0     C64184   3.056   1.936   5.987  1.2593  0.1641 -0.8778
  487MOL0     C64185   2.944   1.910   6.071 -0.2410  0.0885  0.9601
  487MOL0     C64186   2.820   1.918   6.022 -0.3207  0.0330 -0.9475
  487MOL0     O64187   2.713   1.904   6.111 -0.6453  0.4267 -0.3592
  487MOL0     C64188   2.605   1.813   6.080 -0.1179 -0.5176 -1.2284
  487MOL0     C64189   2.474   1.884   6.037 -0.8608  0.1933  0.2568
  487MOL0     C64190   2.379   1.773   5.987  0.1607 -0.6613 -1.1661
  487MOL0     C64191   2.370   1.659   6.085 -0.1417  0.2862 -0.9661
  487MOL0     C64192   2.244   1.570   6.064 -0.9704 -0.5640 -0.7639
  487MOL0     C64193   2.218   1.483   6.180  0.2655  0.1294 -0.3538
  487MOL0     C64194   2.117   1.382   6.128 -0.3330 -0.2918 -0.5364
  487MOL0     C64195   2.186   1.263   6.063  0.4259 -0.2132  0.4438
  487MOL0    Cl64196   2.072   1.157   5.977 -0.9925 -0.1382  0.5427
  487MOL0     C64197   2.801   1.957   5.890 -0.1549  0.1761  0.3997
  487MOL0     C64198   2.910   1.964   5.804  0.2438  0.8933  0.0550
  487MOL0     O64199   3.112   1.756   5.701 -0.3574 -0.6730 -0.1000
  487MOL0     C64200   3.424   1.763   5.725 -0.7846 -0.1713 -0.5714
  487MOL0     C64201   3.558   1.761   5.666  0.3466  0.6287 -0.5245
  487MOL0     N64202   4.030   1.633   5.165  0.1186 -0.8787 -0.9517
  487MOL0     N64203   4.118   1.577   5.086  1.2433 -0.3408 -0.3449
  487MOL0     C64204   3.840   1.020   4.021 -0.4780 -0.2924 -0.3040
  487MOL0     C64205   3.732   0.945   3.966  0.6724 -0.3314 -0.2353
  487MOL0     C64206   3.324   0.803   3.870 -0.2833  0.6585  0.8125
  487MOL0     C64207   3.343   0.670   3.838 -0.2569  0.7914 -0.8117
  487MOL0     C64208   3.233   0.597   3.796 -0.1160 -0.6757  0.2199
  487MOL0     C64209   3.103   0.643   3.763 -0.1122  0.9004  0.0711
  487MOL0     O64210   3.004   0.572   3.699 -0.4251 -0.0115  0.5015
  487MOL0     C64211   3.030   0.428   3.682 -1.1168 -0.0220 -0.2988
  487MOL0     C64212   2.894   0.346   3.669 -0.2085 -0.6639  0.1853
  487MOL0     C64213   2.831   0.392   3.533  0.3122 -0.3209 -0.2793
  487MOL0     C64214   2.712   0.307   3.489 -0.4984  0.0523  0.0250
  487MOL0     C64215   2.751   0.175   3.431  0.2991 -1.1279  0.9000
  487MOL0     C64216   2.785   0.081   3.368  0.2436 -0.3265 -0.2378
  487MOL0     C64217   3.087   0.780   3.789 -0.6374  0.0121  0.1302
  487MOL0     C64218   3.199   0.864   3.833  0.1095  0.2389 -0.4127
  487MOL0     H64219   3.578   0.881   4.250 -0.1649  0.6550  0.8699
  487MOL0     H64220   3.759   1.029   4.338 -1.1020  2.1733  0.0727
  487MOL0     H64221   4.064   1.236   4.313  0.0513 -1.5919 -1.1843
  487MOL0     H64222   3.904   1.179   4.377 -3.6308  3.5775 -0.5365
  487MOL0     H64223   3.785   1.353   4.245  0.1339  0.9924  1.7837
  487MOL0     H64224   3.937   1.405   4.171  0.4199 -0.1123 -0.4747
  487MOL0     H64225   3.882   1.409   4.474 -0.6229  4.0395  1.3497
  487MOL0     H64226   3.827   1.530   4.371 -0.0919 -0.7376 -1.0441
  487MOL0     H64227   4.127   1.446   4.342  0.9787  1.5247  1.2248
  487MOL0     H64228   4.045   1.589   4.310  0.2051  0.3229 -0.7249
  487MOL0     H64229   4.057   1.651   4.540  1.9934  0.3454  3.4252
  487MOL0     H64230   4.208   1.572   4.521 -1.3363  3.7676 -2.7865
  487MOL0     H64231   4.088   1.362   4.617 -1.3858 -0.3868  0.4649
  487MOL0     H64232   3.951   1.461   4.664  0.0533 -1.3776  0.5203
  487MOL0     H64233   4.243   1.507   4.762  1.0477 -3.1495  2.4017
  487MOL0     H64234   4.088   1.606   4.793 -1.1766 -0.5891  0.1155
  487MOL0     H64235   4.206   1.381   4.924 -0.1140 -1.6161 -0.1096
  487MOL0     H64236   4.059   1.319   4.860  2.6439 -0.8334 -1.6419
  487MOL0     H64237   3.832   1.490   4.943  0.6678  0.2074 -0.9900
  487MOL0     H64238   3.712   1.575   5.229  2.9089 -2.6354 -1.5346
  487MOL0     H64239   3.704   1.708   5.117  0.3401  2.2829  2.3403
  487MOL0     H64240   3.720   1.836   5.293 -0.8429 -0.2646  0.0641
  487MOL0     H64241   3.895   1.812   5.273  0.3677 -1.0317 -2.5445
  487MOL0     H64242   3.709   1.625   5.443 -1.5806  3.5033  2.0981
  487MOL0     H64243   3.878   1.599   5.423 -1.9969 -2.2408 -0.8857
  487MOL0     H64244   3.929   1.820   5.569 -0.7069 -0.2396 -0.8897
  487MOL0     H64245   3.833   1.715   5.647  6.6737  2.6484  1.7651
  487MOL0     H64246   3.524   2.050   5.489 -0.9214  0.0195  0.3203
  487MOL0     H64247   3.291   2.030   5.544 -3.4198 -2.4550  1.0739
  487MOL0     H64248   3.156   1.911   6.020  1.1628  0.6311 -0.2201
  487MOL0     H64249   2.963   1.886   6.175  1.4087  0.5955  0.8025
  487MOL0     H64250   2.590   1.754   6.171  1.6892  2.1951  1.0123
  487MOL0     H64251   2.637   1.746   6.000  0.9055 -0.1862 -1.1141
  487MOL0     H64252   2.491   1.951   5.952 -0.2492  0.4335  0.5652
  487MOL0     H64253   2.433   1.938   6.122 -4.4570  2.2503 -2.5081
  487MOL0     H64254   2.412   1.739   5.889 -2.0641  0.2570 -2.3034
  487MOL0     H64255   2.281   1.821   5.978  1.8312  3.0348 -1.2328
  487MOL0     H64256   2.455   1.593   6.068 -0.8965 -0.9854 -0.0220
  487MOL0     H64257   2.369   1.702   6.185  4.1474 -0.4105 -0.4332
  487MOL0     H64258   2.244   1.509   5.973  0.2783  1.6412 -2.3297
  487MOL0     H64259   2.163   1.643   6.054 -0.7420 -0.3585 -1.1415
  487MOL0     H64260   2.181   1.536   6.268  0.6868  0.8672 -0.6158
  487MOL0     H64261   2.304   1.426   6.218 -0.7032  0.7287  3.0592
  487MOL0     H64262   2.060   1.345   6.213  0.0202 -1.3264 -0.7352
  487MOL0     H64263   2.043   1.426   6.061 -1.1107  2.1628  1.7625
  487MOL0     H64264   2.245   1.208   6.137  2.2907 -0.2864 -1.0285
  487MOL0     H64265   2.265   1.295   5.994 -1.1108 -0.8500 -1.7378
  487MOL0     H64266   2.701   1.983   5.859 -1.7325 -1.8491  3.2929
  487MOL0     H64267   2.897   1.992   5.700 -1.4645 -0.2834 -0.0888
  487MOL0     H64268   3.391   1.706   5.811 -0.7468 -2.5631 -2.0236
  487MOL0     H64269   3.631   1.693   5.710  1.2099  1.8908  0.0518
  487MOL0     H64270   3.929   1.044   3.963  0.5241 -1.5240  0.6692
  487MOL0     H64271   3.729   0.917   3.862  0.5923  3.5356 -1.4007
  487MOL0     H64272   3.443   0.628   3.845 -0.4314  0.5402  0.2305
  487MOL0     H64273   3.257   0.493   3.775  0.5485 -0.9633  2.1976
  487MOL0     H64274   3.092   0.381   3.759  1.4651  1.6821 -1.2293
  487MOL0     H64275   3.084   0.422   3.587 -4.5505 -2.9461 -2.3363
  487MOL0     H64276   2.906   0.237   3.670  1.3165 -0.5304 -0.1505
  487MOL0     H64277   2.847   0.358   3.767  0.4572  1.7033  0.2768
  487MOL0     H64278   2.909   0.396   3.457  1.1920 -0.6150  0.5799
  487MOL0     H64279   2.787   0.491   3.547 -3.4302 -1.5993 -1.7882
  487MOL0     H64280   2.657   0.305   3.584 -0.7867  3.4543  0.0625
  487MOL0     H64281   2.661   0.363   3.410  1.2399  1.2775 -0.2959
  487MOL0     H64282   2.836   0.017   3.299 -0.1551  1.5187 -2.3803
  487MOL0     H64283   2.996   0.821   3.746  0.9064  2.8988 -0.6385
  487MOL0     H64284   3.189   0.972   3.839  2.2148  0.5711  6.7056
  488MOL0     O64285   2.410   7.172   6.560  0.4055  0.4595 -0.2064
  488MOL0     C64286   2.310   7.155   6.494 -0.1337  0.2508  0.3491
  488MOL0     O64287   2.287   7.045   6.413 -0.3573  0.0428 -0.2818
  488MOL0     C64288   2.383   6.954   6.384  0.1102  0.1692 -0.4488
  488MOL0     C64289   2.461   6.886   6.481 -0.1282  0.1493  0.3093
  488MOL0     C64290   2.531   6.776   6.440  1.5510  0.9082  0.0787
  488MOL0     C64291   2.524   6.726   6.307 -0.1561 -1.0351 -0.0426
  488MOL0     O64292   2.592   6.615   6.258  0.9039  0.9383 -0.3238
  488MOL0     C64293   2.719   6.578   6.323 -0.3571  0.5584  0.8236
  488MOL0     C64294   2.753   6.427   6.311  0.2738  0.3380 -0.6276
  488MOL0     C64295   2.892   6.404   6.363 -0.3439 -1.1316 -0.0909
  488MOL0     C64296   2.991   6.433   6.243  0.4645  0.2357  0.1224
  488MOL0     C64297   3.131   6.365   6.232  0.4292  0.1601  0.3194
  488MOL0     C64298   3.113   6.209   6.241 -0.0970  0.6296  0.0033
  488MOL0     C64299   3.246   6.150   6.206 -0.2641 -0.1513 -0.3307
  488MOL0     C64300   3.252   6.157   6.046 -0.9219  0.8603 -0.6702
  488MOL0     N64301   3.368   6.084   5.989 -1.0893 -0.4617 -0.3136
  488MOL0     C64302   3.497   6.112   6.024  0.3439  0.7546  0.3380
  488MOL0     C64303   3.566   6.004   5.985  0.8638  0.2166 -0.2358
  488MOL0     C64304   3.713   5.974   6.005 -0.4313  0.5366  0.2403
  488MOL0     C64305   3.802   6.093   5.978  0.4673 -0.2088 -0.8383
  488MOL0     C64306   3.945   6.048   6.015  0.1009 -0.4082 -0.7194
  488MOL0     C64307   4.033   6.166   6.051 -0.0696 -0.5642  0.1647
  488MOL0     O64308   3.999   6.229   6.180 -1.0343  0.1800 -0.1971
  488MOL0     C64309   4.108   6.296   6.238 -0.7566  0.1933  0.2866
  488MOL0     C64310   4.192   6.391   6.168 -0.3952  0.6551  0.0334
  488MOL0     C64311   4.295   6.466   6.240  0.6472  0.8204 -0.5080
  488MOL0     C64312   4.314   6.445   6.376 -0.4772  0.6054 -0.7972
  488MOL0     C64313   4.417   6.529   6.458  0.1796  0.0060  0.4251
  488MOL0     O64314   4.415   6.503   6.595  0.4302  0.2092  0.0508
  488MOL0     C64315   4.501   6.566   6.677 -0.6122 -0.0420  0.2612
  488MOL0     C64316   4.607   6.499   6.734  0.3685  0.6445  0.7162
  488MOL0     C64317   4.696   6.566   6.816  0.6259  0.9103 -0.1426
  488MOL0     C64318   4.680   6.698   6.832 -0.1777 -0.6322 -0.1979
  488MOL0     O64319   4.778   6.773   6.900  0.1390 -0.1762  0.4766
  488MOL0     C64320   4.903   6.816   6.828  0.2613 -0.2761  0.0129
  488MOL0     C64321   4.989   6.855   6.944  0.2763 -0.6037  0.9055
  488MOL0     C64322   5.131   6.878   6.901  0.5866  0.6879 -0.4567
  488MOL0     C64323   5.160   6.957   6.771 -0.0901 -0.2056 -0.4679
  488MOL0     C64324   5.302   7.000   6.754  0.3972  0.2219 -0.8380
  488MOL0     C64325   5.325   7.115   6.665  0.1858  0.6958 -0.2805
  488MOL0     C64326   5.468   7.145   6.616  0.2351  0.1419  0.4731
  488MOL0     C64327   5.562   7.179   6.732 -1.3820 -0.1294  0.4361
  488MOL0    Cl64328   5.505   7.305   6.835  0.4458  0.0723 -0.0110
  488MOL0     C64329   4.583   6.773   6.765 -0.2353 -0.5054 -0.9623
  488MOL0     C64330   4.488   6.705   6.698 -0.3380 -0.3461  0.4375
  488MOL0     O64331   4.504   6.588   6.396  0.0787 -0.5044 -0.1424
  488MOL0     C64332   4.238   6.348   6.447  0.2633  0.0019  0.6212
  488MOL0     C64333   4.142   6.273   6.375  0.3887 -0.1468 -0.8639
  488MOL0     N64334   3.480   5.903   5.934  0.2546  0.5425 -0.5414
  488MOL0     N64335   3.367   5.958   5.929  0.1230 -0.2476 -0.7738
  488MOL0     C64336   2.436   6.790   6.210 -0.3943 -0.2944 -0.9279
  488MOL0     C64337   2.374   6.910   6.250 -0.7233 -0.5708 -0.0104
  488MOL0     C64338   2.194   7.247   6.508  0.2465 -0.5914 -0.2811
  488MOL0     C64339   2.105   7.273   6.394 -0.1413  0.5984 -0.5570
  488MOL0     C64340   1.982   7.332   6.411  0.4412 -0.9516  0.4806
  488MOL0     C64341   1.943   7.383   6.538  0.2089 -0.3660 -0.4210
  488MOL0     O64342   1.825   7.450   6.552  0.5667 -0.1511  0.0436
  488MOL0     C64343   1.780   7.494   6.682  0.3487  0.0562  0.1470
  488MOL0     C64344   1.632   7.543   6.691 -0.2824 -0.2179  0.6751
  488MOL0     C64345   1.608   7.668   6.623 -0.3016 -0.2645  0.3175
  488MOL0     C64346   1.476   7.739   6.666  1.0023 -0.0131  0.7485
  488MOL0     C64347   1.474   7.883   6.632 -0.1408 -0.2594  0.0842
  488MOL0     C64348   1.474   8.003   6.603  0.4769  0.1893  0.3905
  488MOL0     C64349   2.036   7.364   6.640  0.1063  0.2067  0.1738
  488MOL0     C64350   2.160   7.304   6.625 -0.1228  0.8151  0.3264
  488MOL0     H64351   2.473   6.914   6.585  1.1826 -0.6116  0.3897
  488MOL0     H64352   2.593   6.728   6.515  0.8183 -1.0105 -0.4905
  488MOL0     H64353   2.722   6.609   6.428 -4.8869 -1.3676  1.7362
  488MOL0     H64354   2.794   6.612   6.250  0.2222 -0.5904  0.8689
  488MOL0     H64355   2.733   6.378   6.215  1.1619 -1.9941  0.2889
  488MOL0     H64356   2.682   6.375   6.376  0.3487 -1.3866 -1.8442
  488MOL0     H64357   2.910   6.300   6.392 -1.3266 -0.9943  1.1137
  488MOL0     H64358   2.928   6.452   6.454  2.2419 -1.3625 -0.8995
  488MOL0     H64359   2.941   6.393   6.155  0.2730  1.5319 -0.3858
  488MOL0     H64360   3.004   6.542   6.237 -3.0021  0.6967 -1.8807
  488MOL0     H64361   3.207   6.398   6.303  0.1577  0.3341  0.5330
  488MOL0     H64362   3.154   6.408   6.134 -1.8183 -0.1628 -0.4185
  488MOL0     H64363   3.035   6.180   6.170 -0.2735  2.1280 -0.4406
  488MOL0     H64364   3.078   6.181   6.340 -0.9822  3.2315  0.4776
  488MOL0     H64365   3.321   6.202   6.265 -0.4814  1.3716 -1.3349
  488MOL0     H64366   3.255   6.049   6.248 -1.7007 -0.6643 -1.1680
  488MOL0     H64367   3.246   6.261   6.014 -1.0637  0.9844 -0.2420
  488MOL0     H64368   3.162   6.101   6.015 -0.2320 -1.2430  0.8952
  488MOL0     H64369   3.540   6.202   6.065  4.9112 -0.2188 -1.6545
  488MOL0     H64370   3.744   5.903   5.927  1.1182  2.8641 -1.3958
  488MOL0     H64371   3.745   5.936   6.103  0.0907  0.2365 -0.0404
  488MOL0     H64372   3.773   6.183   6.033  1.4964 -0.2780 -0.1570
  488MOL0     H64373   3.800   6.130   5.875  2.7604 -2.3416 -1.7656
  488MOL0     H64374   3.947   5.983   6.103 -0.7717  0.0278 -0.3599
  488MOL0     H64375   3.975   6.002   5.921 -0.1440  0.2145 -1.1058
  488MOL0     H64376   4.027   6.237   5.969  2.3365  0.6782  0.9664
  488MOL0     H64377   4.134   6.124   6.056 -0.4939 -1.5003  2.7562
  488MOL0     H64378   4.178   6.415   6.064  1.4481  0.7784 -0.2115
  488MOL0     H64379   4.357   6.536   6.185  4.3156 -2.9690 -1.6799
  488MOL0     H64380   4.630   6.394   6.717  1.3163  0.9520 -0.0232
  488MOL0     H64381   4.790   6.521   6.846  0.2173  0.0332 -0.1703
  488MOL0     H64382   4.877   6.907   6.774 -0.8558  2.0035  3.9544
  488MOL0     H64383   4.940   6.734   6.767  1.0449 -0.4399  0.6883
  488MOL0     H64384   4.984   6.768   7.011  0.1518 -0.6765  0.8032
  488MOL0     H64385   4.946   6.941   6.995 -5.7729 -0.5244 -3.2108
  488MOL0     H64386   5.189   6.787   6.885 -0.4151  0.3687 -2.5353
  488MOL0     H64387   5.174   6.939   6.982  0.8702 -0.1100  0.0080
  488MOL0     H64388   5.110   6.911   6.685 -0.6990 -1.7430  0.6561
  488MOL0     H64389   5.112   7.054   6.786  0.5908  0.2420 -1.1513
  488MOL0     H64390   5.356   6.916   6.711  0.9134 -0.2662  0.7203
  488MOL0     H64391   5.343   7.023   6.853 -1.1490 -0.5120  0.0051
  488MOL0     H64392   5.279   7.200   6.717 -4.4887  1.6013 -5.0395
  488MOL0     H64393   5.269   7.084   6.576  0.0705 -1.5206  0.5094
  488MOL0     H64394   5.505   7.051   6.573 -1.8396 -1.5583  2.1610
  488MOL0     H64395   5.472   7.227   6.545 -4.6522  2.6343  2.6082
  488MOL0     H64396   5.661   7.205   6.692 -1.0186 -1.9062  0.0930
  488MOL0     H64397   5.583   7.091   6.792 -0.5832  1.1385  2.0910
  488MOL0     H64398   4.572   6.880   6.778  1.3166 -0.5749  1.4581
  488MOL0     H64399   4.410   6.759   6.646 -0.0086 -0.3872 -0.0980
  488MOL0     H64400   4.259   6.331   6.552 -2.3260  1.2884  1.4313
  488MOL0     H64401   4.081   6.204   6.432 -0.2390  0.3423 -0.9369
  488MOL0     H64402   2.442   6.748   6.110  1.3869 -1.4007 -0.4057
  488MOL0     H64403   2.307   6.961   6.182  0.7217 -0.3501 -1.3253
  488MOL0     H64404   2.153   7.227   6.308  0.6002  0.8623 -0.2984
  488MOL0     H64405   1.913   7.326   6.327 -0.3532 -0.9547  1.1192
  488MOL0     H64406   1.844   7.577   6.714 -0.2219 -0.5039  3.0113
  488MOL0     H64407   1.795   7.416   6.758 -1.5669 -1.2765 -0.7628
  488MOL0     H64408   1.560   7.465   6.665 -2.6833  2.2650 -0.7644
  488MOL0     H64409   1.596   7.564   6.792 -0.6238  3.7946 -0.1223
  488MOL0     H64410   1.602   7.649   6.515 -1.2782  0.8535  0.1594
  488MOL0     H64411   1.698   7.720   6.657  0.1718 -1.8667  1.6589
  488MOL0     H64412   1.389   7.685   6.627  1.4377 -0.0578 -0.1700
  488MOL0     H64413   1.471   7.736   6.775  0.5552 -1.0767  0.7103
  488MOL0     H64414   1.475   8.110   6.590  0.0818  0.6167  3.1164
  488MOL0     H64415   2.014   7.410   6.737  0.3574 -0.0967  0.3765
  488MOL0     H64416   2.223   7.296   6.713  0.9026  0.6249 -0.4163
  489MOL0     O64417   3.143   6.073   4.417  0.0829  0.7591  0.4642
  489MOL0     C64418   3.167   6.181   4.374  0.5440 -0.5717  0.3399
  489MOL0     O64419   3.130   6.291   4.442 -0.3060 -0.5327 -0.6709
  489MOL0     C64420   3.123   6.287   4.572  0.4004 -0.4222 -0.1396
  489MOL0     C64421   3.208   6.235   4.668  0.1323  0.0518  0.8752
  489MOL0     C64422   3.185   6.254   4.807  0.5964 -0.0682 -0.6123
  489MOL0     C64423   3.067   6.325   4.848  0.2313  0.0771  0.0203
  489MOL0     O64424   3.060   6.349   4.990  0.8057 -0.0397 -0.1995
  489MOL0     C64425   2.970   6.448   5.039 -0.6723  0.1862  0.1774
  489MOL0     C64426   2.991   6.485   5.187 -0.0463  0.2785  0.4809
  489MOL0     C64427   3.139   6.546   5.207 -0.2327 -0.0963  0.3208
  489MOL0     C64428   3.185   6.532   5.359  0.1520  0.1195  0.9139
  489MOL0     C64429   3.338   6.530   5.399 -0.5329  0.4897  0.2785
  489MOL0     C64430   3.431   6.650   5.356  0.4800 -0.0208 -0.3471
  489MOL0     C64431   3.573   6.612   5.405  1.0801  0.5084 -0.0269
  489MOL0     C64432   3.634   6.498   5.327 -1.2829 -0.2656  0.1488
  489MOL0     N64433   3.775   6.500   5.352 -0.0836  0.2842 -0.0480
  489MOL0     C64434   3.875   6.525   5.263  0.2283  0.4961  0.1182
  489MOL0     C64435   3.990   6.525   5.340  0.4733  0.3383 -0.5460
  489MOL0     C64436   4.124   6.558   5.288 -0.1467  0.1402  0.4312
  489MOL0     C64437   4.130   6.540   5.131 -0.8631  0.3391 -0.0950
  489MOL0     C64438   4.086   6.669   5.054  0.0345  0.2877 -1.6057
  489MOL0     C64439   4.208   6.752   5.021 -0.1966  0.1941 -0.1087
  489MOL0     O64440   4.181   6.886   4.986  0.0848 -0.1135  0.2000
  489MOL0     C64441   4.222   6.921   4.857 -0.2102 -0.0341 -0.9665
  489MOL0     C64442   4.305   7.027   4.836  0.0231  0.1019  1.0119
  489MOL0     C64443   4.367   7.049   4.715 -0.2557 -0.4928 -0.0854
  489MOL0     C64444   4.329   6.978   4.600  0.3310 -0.0903  0.0898
  489MOL0     C64445   4.393   7.015   4.470  0.5921 -0.6928  0.1011
  489MOL0     O64446   4.372   6.925   4.374  0.3089  0.4646 -0.8910
  489MOL0     C64447   4.414   6.952   4.242  0.2570  0.4340  0.5236
  489MOL0     C64448   4.342   7.055   4.179  0.2269 -0.3794 -0.6307
  489MOL0     C64449   4.377   7.097   4.045  1.2013  0.8317  0.3619
  489MOL0     C64450   4.473   7.031   3.973 -0.0525 -0.9403 -0.0588
  489MOL0     O64451   4.488   7.044   3.838  0.9804  0.6210  0.1764
  489MOL0     C64452   4.617   7.068   3.773  0.4079  0.2491 -1.1449
  489MOL0     C64453   4.606   7.117   3.634  0.6651  0.0949  0.2704
  489MOL0     C64454   4.750   7.111   3.580 -0.0449  0.4489  0.4831
  489MOL0     C64455   4.741   7.165   3.429 -0.8267  0.4691 -0.4039
  489MOL0     C64456   4.654   7.103   3.325 -1.4533  0.9415 -0.1025
  489MOL0     C64457   4.653   6.949   3.338  0.6261  0.7177  1.2563
  489MOL0     C64458   4.546   6.877   3.240 -0.6177  0.1842  0.3030
  489MOL0     C64459   4.495   6.749   3.299 -0.0275 -0.6748 -0.2144
  489MOL0    Cl64460   4.638   6.640   3.342 -0.0177 -0.2386 -0.0530
  489MOL0     C64461   4.539   6.921   4.035 -0.2671 -0.3696  0.2284
  489MOL0     C64462   4.511   6.881   4.167 -0.0503  0.0367  0.3526
  489MOL0     O64463   4.461   7.116   4.460  0.2154  0.1424 -0.9062
  489MOL0     C64464   4.217   6.885   4.616 -1.2032  1.4691  0.3665
  489MOL0     C64465   4.163   6.861   4.745  0.0443 -0.8253 -0.1553
  489MOL0     N64466   3.958   6.487   5.470  0.8453 -0.2042 -0.0211
  489MOL0     N64467   3.830   6.470   5.471  0.7920  0.3358  0.4996
  489MOL0     C64468   2.973   6.370   4.746 -0.3835  0.1748  0.2690
  489MOL0     C64469   2.999   6.350   4.606 -0.7900  0.4746 -0.6381
  489MOL0     C64470   3.213   6.205   4.239  0.3656  0.8993  1.1757
  489MOL0     C64471   3.164   6.125   4.133  0.2141 -0.5311  0.0918
  489MOL0     C64472   3.197   6.156   3.992  1.2676 -0.1081  0.7528
  489MOL0     C64473   3.285   6.257   3.966  1.1446 -0.1162  0.9035
  489MOL0     O64474   3.301   6.277   3.835  0.6274  0.1980 -0.6010
  489MOL0     C64475   3.310   6.416   3.800 -1.4546  0.5251  0.4209
  489MOL0     C64476   3.236   6.444   3.665  0.5598  0.1687 -0.1865
  489MOL0     C64477   3.276   6.346   3.551  0.2344 -0.3894  0.2263
  489MOL0     C64478   3.168   6.249   3.508  0.3767  0.0264  0.2276
  489MOL0     C64479   3.072   6.312   3.417 -0.2340 -0.5457  0.6835
  489MOL0     C64480   2.991   6.348   3.326  0.6733  0.5415  0.9512
  489MOL0     C64481   3.337   6.343   4.064  0.7064 -0.1449  0.2130
  489MOL0     C64482   3.303   6.313   4.197  0.3301  0.2113 -0.5769
  489MOL0     H64483   3.302   6.184   4.646 -0.2043 -1.0052  1.8145
  489MOL0     H64484   3.246   6.211   4.887 -0.8391  0.1213  0.6357
  489MOL0     H64485   2.865   6.432   5.013  0.0606 -1.3117 -2.1564
  489MOL0     H64486   2.992   6.544   4.991 -2.6006  0.4338 -0.2847
  489MOL0     H64487   2.986   6.390   5.241 -1.9312 -1.1491 -2.0021
  489MOL0     H64488   2.921   6.560   5.227 -0.5646  0.9936 -1.6374
  489MOL0     H64489   3.120   6.650   5.179 -5.9537 -1.0805 -0.6502
  489MOL0     H64490   3.219   6.510   5.142 -0.6866 -2.9555  1.2247
  489MOL0     H64491   3.131   6.616   5.401 -3.0591 -1.8800  1.1050
  489MOL0     H64492   3.142   6.436   5.390 -0.7955 -1.8960 -5.2035
  489MOL0     H64493   3.373   6.444   5.342 -3.5171 -0.5586 -0.1619
  489MOL0     H64494   3.348   6.507   5.505 -1.0325  1.9687  0.6734
  489MOL0     H64495   3.400   6.737   5.414  0.6332  0.3701 -0.8384
  489MOL0     H64496   3.437   6.666   5.248  0.1953 -4.5776 -1.2340
  489MOL0     H64497   3.629   6.705   5.409  0.1787  1.0807 -0.5056
  489MOL0     H64498   3.557   6.579   5.508 -0.9492  1.1335 -0.0917
  489MOL0     H64499   3.629   6.502   5.218  0.8383 -1.7341 -0.0670
  489MOL0     H64500   3.587   6.405   5.360 -0.8452 -0.6920 -0.4140
  489MOL0     H64501   3.866   6.548   5.158 -3.1825  0.0433  0.2151
  489MOL0     H64502   4.205   6.502   5.335 -2.1614 -0.2629  3.7819
  489MOL0     H64503   4.149   6.658   5.326  0.5737 -1.0570  3.3430
  489MOL0     H64504   4.068   6.454   5.105  2.9430 -2.4083 -1.0603
  489MOL0     H64505   4.232   6.518   5.096 -1.9720  0.6251 -3.9549
  489MOL0     H64506   4.030   6.632   4.968 -1.1614 -2.1870  0.1140
  489MOL0     H64507   4.024   6.722   5.127  0.1530 -2.4087  0.6246
  489MOL0     H64508   4.264   6.703   4.942 -3.3733 -3.2384 -0.5102
  489MOL0     H64509   4.264   6.761   5.114  0.2132  0.8991 -0.4171
  489MOL0     H64510   4.322   7.099   4.916 -1.7589  0.0584  1.4700
  489MOL0     H64511   4.451   7.117   4.711  2.1819 -3.1550  1.9201
  489MOL0     H64512   4.283   7.101   4.258 -1.6193 -3.9725  0.2956
  489MOL0     H64513   4.325   7.185   4.006 -0.6278 -0.8898 -1.2908
  489MOL0     H64514   4.674   6.974   3.776 -1.2897 -0.8581  2.3173
  489MOL0     H64515   4.666   7.142   3.836  0.7266 -1.3712  0.6178
  489MOL0     H64516   4.556   7.214   3.629 -2.6476 -1.3679  1.9483
  489MOL0     H64517   4.534   7.056   3.579 -1.8311  4.0019 -1.2100
  489MOL0     H64518   4.781   7.006   3.576 -3.7761 -0.8254 -3.8106
  489MOL0     H64519   4.817   7.167   3.645 -0.6182  0.4247  1.0989
  489MOL0     H64520   4.720   7.272   3.435  1.8727  1.0344 -0.0604
  489MOL0     H64521   4.840   7.151   3.385 -0.8215 -1.8508  0.2042
  489MOL0     H64522   4.685   7.123   3.222 -1.2588  0.6425 -0.1050
  489MOL0     H64523   4.552   7.142   3.326 -1.2538  1.4628  1.3037
  489MOL0     H64524   4.630   6.913   3.438 -4.3123  0.8081  0.4044
  489MOL0     H64525   4.752   6.915   3.307 -0.1964  0.5312 -1.4318
  489MOL0     H64526   4.460   6.942   3.222 -0.6670  0.3715  1.1632
  489MOL0     H64527   4.585   6.852   3.141  1.4546 -2.3597  1.6137
  489MOL0     H64528   4.427   6.696   3.232  0.9471 -0.8216 -1.1116
  489MOL0     H64529   4.439   6.763   3.392 -1.6492 -2.4858 -0.8521
  489MOL0     H64530   4.613   6.868   3.976 -0.2502  0.5560 -0.6006
  489MOL0     H64531   4.568   6.798   4.208 -1.2192 -1.1429 -0.3371
  489MOL0     H64532   4.190   6.823   4.530 -0.9193  4.6662 -2.2316
  489MOL0     H64533   4.087   6.794   4.783 -1.4551  2.3392  3.0132
  489MOL0     H64534   2.900   6.438   4.789  0.9456  0.2985  2.4790
  489MOL0     H64535   2.933   6.394   4.532 -1.2168  1.3474  0.2442
  489MOL0     H64536   3.086   6.052   4.153  2.1886 -2.6946  0.3736
  489MOL0     H64537   3.149   6.107   3.908 -2.1381  2.6627  0.8633
  489MOL0     H64538   3.413   6.443   3.777 -1.4154 -1.1051 -1.6385
  489MOL0     H64539   3.269   6.485   3.874 -5.3761 -1.2211  0.1422
  489MOL0     H64540   3.128   6.431   3.676  0.3431 -3.4428 -3.9744
  489MOL0     H64541   3.254   6.546   3.631 -3.6976  2.1183  2.4722
  489MOL0     H64542   3.360   6.284   3.584  0.0271 -0.4830  0.5867
  489MOL0     H64543   3.295   6.410   3.464 -1.7273  1.7712  1.2676
  489MOL0     H64544   3.213   6.158   3.466  1.8682 -0.4143  2.5847
  489MOL0     H64545   3.105   6.224   3.593 -2.9793  2.0003 -1.4706
  489MOL0     H64546   2.907   6.381   3.269  0.4175  0.2006  1.1360
  489MOL0     H64547   3.383   6.438   4.037 -3.4661  1.4065 -2.3180
  489MOL0     H64548   3.345   6.377   4.274 -0.8871 -1.2376  1.4210
  490MOL0     O64549   8.333   9.877  10.206 -0.7557 -0.4982 -0.2781
  490MOL0     C64550   8.460   9.878  10.204  0.1834  0.2934 -0.2064
  490MOL0     O64551   8.537   9.986  10.195 -0.3415  0.3350 -0.5286
  490MOL0     C64552   8.488  10.118  10.188 -0.3800 -0.0128  0.9150
  490MOL0     C64553   8.592  10.208  10.214 -0.0339  0.0120  0.4589
  490MOL0     C64554   8.569  10.347  10.211  0.4065 -0.2422 -0.3531
  490MOL0     C64555   8.437  10.397  10.191 -0.1074  0.6430  0.2141
  490MOL0     O64556   8.392  10.524  10.189  0.2165  0.4389  0.2636
  490MOL0     C64557   8.406  10.583  10.314 -0.5026 -0.4620  0.6134
  490MOL0     C64558   8.300  10.546  10.406 -0.0415  1.0290 -0.2761
  490MOL0     C64559   8.360  10.552  10.547  0.8666 -0.8967  0.8013
  490MOL0     C64560   8.248  10.517  10.647  0.2619  0.1375  0.1752
  490MOL0     C64561   8.179  10.385  10.631  0.7065  0.0637  0.1106
  490MOL0     C64562   8.270  10.265  10.605  0.6017 -0.6855 -0.7931
  490MOL0     C64563   8.195  10.133  10.589 -1.1754  0.4993 -0.0280
  490MOL0     C64564   8.292  10.012  10.600  0.3475 -0.1910 -0.4133
  490MOL0     N64565   8.211   9.892  10.599 -0.2709  1.3279  0.6000
  490MOL0     C64566   8.163   9.826  10.490 -0.6992  0.3762 -0.0957
  490MOL0     C64567   8.108   9.711  10.546  0.6875  0.3251  0.5634
  490MOL0     C64568   8.050   9.583  10.493 -0.6531 -0.5619 -0.0389
  490MOL0     C64569   7.911   9.573  10.552  0.8012  0.1496 -1.2029
  490MOL0     C64570   7.817   9.658  10.470 -0.0454  0.3327  1.6622
  490MOL0     C64571   7.760   9.619  10.323  0.3175 -0.5009  0.1240
  490MOL0     O64572   7.619   9.611  10.321 -0.6849 -0.3339 -0.2746
  490MOL0     C64573   7.562   9.611  10.192 -0.4278 -0.4115 -0.7792
  490MOL0     C64574   7.426   9.594  10.194  0.0169  0.5829  0.5067
  490MOL0     C64575   7.348   9.587  10.079  1.2896  0.8926 -0.4184
  490MOL0     C64576   7.415   9.610   9.952  0.9281  0.6669  0.5735
  490MOL0     C64577   7.353   9.581   9.822 -1.3273 -0.1949 -0.4964
  490MOL0     O64578   7.226   9.523   9.838  0.2565 -0.0986 -0.2464
  490MOL0     C64579   7.138   9.521   9.732  0.9952  0.6208  0.4041
  490MOL0     C64580   7.050   9.408   9.735  0.7291  0.3589 -0.5156
  490MOL0     C64581   6.951   9.392   9.637  0.2838 -0.6124 -0.7313
  490MOL0     C64582   6.922   9.494   9.544 -0.1873 -0.0746  0.0501
  490MOL0     O64583   6.821   9.470   9.461  0.8718  0.0135  0.6170
  490MOL0     C64584   6.840   9.472   9.314  0.0039  1.0779 -0.2571
  490MOL0     C64585   6.724   9.395   9.248  0.6388  0.5947  0.7563
  490MOL0     C64586   6.718   9.247   9.297 -0.3276 -0.7332  0.2467
  490MOL0     C64587   6.627   9.175   9.185 -0.1230 -1.0258 -1.0453
  490MOL0     C64588   6.586   9.033   9.222 -0.1475  0.3870  0.4638
  490MOL0     C64589   6.491   8.978   9.115  0.2593 -0.0540 -0.0001
  490MOL0     C64590   6.473   8.821   9.137  0.9751 -0.7221  0.0829
  490MOL0     C64591   6.363   8.783   9.243 -1.3192  0.5929  0.0963
  490MOL0    Cl64592   6.199   8.836   9.179 -0.0677  0.0563 -0.2037
  490MOL0     C64593   7.007   9.612   9.542 -0.4251  0.2675 -0.7388
  490MOL0     C64594   7.110   9.620   9.644  0.9601  0.7587  1.1328
  490MOL0     O64595   7.419   9.584   9.719  0.6764 -0.1586  1.1127
  490MOL0     C64596   7.550   9.628   9.956  0.8609 -0.6432  0.3559
  490MOL0     C64597   7.625   9.625  10.070 -0.7197  0.1992  0.5952
  490MOL0     N64598   8.133   9.712  10.681 -0.6099  0.7580  0.2998
  490MOL0     N64599   8.204   9.816  10.704  0.0553  0.3489  0.2000
  490MOL0     C64600   8.338  10.299  10.160 -0.0104  0.0241  0.0566
  490MOL0     C64601   8.360  10.166  10.161 -0.2033  0.3523 -0.1654
  490MOL0     C64602   8.519   9.738  10.204  0.3099 -0.8193  0.1175
  490MOL0     C64603   8.657   9.730  10.194  0.2064 -0.3093 -1.0907
  490MOL0     C64604   8.720   9.603  10.182 -0.3051 -0.2672  0.1086
  490MOL0     C64605   8.637   9.489  10.177 -0.7636  0.1924 -1.3249
  490MOL0     O64606   8.679   9.362  10.159 -0.7799  0.3993  0.1373
  490MOL0     C64607   8.792   9.317  10.233  0.0302 -0.4643 -0.5711
  490MOL0     C64608   8.780   9.164  10.252  0.6694  1.0067  0.6689
  490MOL0     C64609   8.671   9.122  10.359 -0.6228  0.2410  0.2986
  490MOL0     C64610   8.583   9.000  10.304 -0.9098  0.4675  0.4947
  490MOL0     C64611   8.502   9.034  10.194  0.5397  0.4514  0.3728
  490MOL0     C64612   8.445   9.079  10.098 -0.0860  0.0537  0.1817
  490MOL0     C64613   8.501   9.501  10.193  0.2509 -0.1992 -0.0477
  490MOL0     C64614   8.439   9.627  10.214  0.5475  0.1686 -0.4033
  490MOL0     H64615   8.692  10.170  10.232 -0.5995 -0.7090  2.3352
  490MOL0     H64616   8.639  10.430  10.219 -1.2939  1.3180 -0.8357
  490MOL0     H64617   8.409  10.692  10.304  0.0177 -0.5780 -0.7183
  490MOL0     H64618   8.504  10.566  10.358 -0.2386  0.7805  0.5480
  490MOL0     H64619   8.264  10.446  10.381  1.1536 -0.1348  2.2556
  490MOL0     H64620   8.213  10.609  10.389 -1.1206  0.0454  1.2783
  490MOL0     H64621   8.400  10.653  10.555 -2.1428  0.6029 -1.2890
  490MOL0     H64622   8.442  10.479  10.553  1.0861 -0.9284 -1.4201
  490MOL0     H64623   8.290  10.517  10.749  0.8697  1.6098 -0.0370
  490MOL0     H64624   8.177  10.600  10.653  0.9089  0.6903  0.4736
  490MOL0     H64625   8.108  10.385  10.548  0.2896 -3.2437  0.3267
  490MOL0     H64626   8.127  10.367  10.726 -1.4110  0.9871 -0.8290
  490MOL0     H64627   8.333  10.249  10.693 -2.1921  0.1239  1.5340
  490MOL0     H64628   8.328  10.290  10.516  2.5903  1.5303  0.9832
  490MOL0     H64629   8.111  10.134  10.659 -1.8504 -1.2317 -0.7731
  490MOL0     H64630   8.157  10.133  10.487 -0.5149 -1.2234 -0.3017
  490MOL0     H64631   8.342  10.020  10.697 -0.5507  0.3792  0.0231
  490MOL0     H64632   8.354  10.018  10.510  0.1912 -1.8870 -0.6704
  490MOL0     H64633   8.175   9.840  10.383  0.9690 -1.1515 -0.1730
  490MOL0     H64634   8.112   9.497  10.521  1.1722  0.9895  0.9608
  490MOL0     H64635   8.037   9.593  10.385 -0.2226  1.7005  0.0598
  490MOL0     H64636   7.910   9.609  10.656  3.5476  0.0082 -1.0316
  490MOL0     H64637   7.884   9.468  10.560 -0.4529  0.5675  0.7039
  490MOL0     H64638   7.728   9.678  10.530 -2.0151 -2.7943  0.0380
  490MOL0     H64639   7.863   9.756  10.454 -3.0156  1.3118 -2.8987
  490MOL0     H64640   7.790   9.521  10.285 -4.1885 -1.3433 -2.0080
  490MOL0     H64641   7.800   9.702  10.264  1.1013 -1.1079 -0.2088
  490MOL0     H64642   7.385   9.572  10.292  0.1256  2.1500  0.9321
  490MOL0     H64643   7.242   9.565  10.088  1.4345  0.1277 -0.5543
  490MOL0     H64644   7.068   9.331   9.810 -1.4775  1.5459  1.3470
  490MOL0     H64645   6.888   9.304   9.637  0.6285 -1.1135  3.6418
  490MOL0     H64646   6.930   9.414   9.294 -0.3058  0.1946  0.8123
  490MOL0     H64647   6.846   9.572   9.271  1.1005  0.4715 -1.5660
  490MOL0     H64648   6.742   9.393   9.140 -0.1207  1.6011  0.5969
  490MOL0     H64649   6.631   9.448   9.269  1.3645  2.0180  0.5013
  490MOL0     H64650   6.674   9.233   9.396 -1.1946 -1.6276 -0.2463
  490MOL0     H64651   6.811   9.190   9.306  1.2862  1.9559  2.4154
  490MOL0     H64652   6.545   9.241   9.157  1.1157  0.8658 -0.4046
  490MOL0     H64653   6.678   9.170   9.089  0.7140 -0.0544 -0.6688
  490MOL0     H64654   6.541   9.044   9.322  2.6773  2.8286  1.6175
  490MOL0     H64655   6.671   8.969   9.245  0.1768  0.5727 -0.1975
  490MOL0     H64656   6.539   8.989   9.017  0.9182 -0.7844  0.2302
  490MOL0     H64657   6.392   9.023   9.104 -0.3215 -1.4279 -0.7547
  490MOL0     H64658   6.445   8.778   9.040 -1.9802 -0.4761  0.7572
  490MOL0     H64659   6.566   8.771   9.167 -0.3955 -1.7366  3.0079
  490MOL0     H64660   6.392   8.817   9.343 -0.8960 -3.0459  1.3502
  490MOL0     H64661   6.366   8.674   9.250 -0.2825  0.5228 -1.2176
  490MOL0     H64662   7.005   9.689   9.466 -2.3047 -3.0814 -4.4776
  490MOL0     H64663   7.182   9.701   9.644  3.8775 -1.6135  2.1059
  490MOL0     H64664   7.599   9.653   9.863 -2.1310  2.1993 -0.6258
  490MOL0     H64665   7.727   9.660  10.060 -0.7150 -0.2702 -1.3570
  490MOL0     H64666   8.236  10.331  10.142 -0.9722  0.4031  4.7360
  490MOL0     H64667   8.277  10.101  10.135 -1.2342  0.8647  1.6164
  490MOL0     H64668   8.711   9.824  10.204  0.2356 -0.5691  3.5360
  490MOL0     H64669   8.826   9.599  10.158 -0.5259  1.2250 -1.2925
  490MOL0     H64670   8.790   9.371  10.328  0.2597  4.0269 -2.8525
  490MOL0     H64671   8.883   9.338  10.177  0.0804  0.7306 -0.0738
  490MOL0     H64672   8.760   9.104  10.162  3.7214 -1.2973  1.3214
  490MOL0     H64673   8.875   9.120  10.284 -0.0342  0.2681  1.8342
  490MOL0     H64674   8.602   9.199  10.396 -1.4289 -0.2245 -0.1919
  490MOL0     H64675   8.716   9.088  10.453 -1.7406  0.9905  1.1332
  490MOL0     H64676   8.657   8.928  10.266 -1.4676 -0.0826  0.4206
  490MOL0     H64677   8.517   8.961  10.383  0.6481  0.0721  1.6624
  490MOL0     H64678   8.381   9.117  10.020  2.1273  0.1793 -1.6617
  490MOL0     H64679   8.441   9.413  10.178 -0.7282  0.6572 -1.3703
  490MOL0     H64680   8.332   9.635  10.226  0.3614 -2.4743  0.4141
  491MOL0     O64681   8.009   0.247   6.703 -1.2775  0.2642  0.8423
  491MOL0     C64682   7.925   0.333   6.712  0.5817 -0.8781 -0.7126
  491MOL0     O64683   7.939   0.469   6.676  0.7949 -1.0058 -0.1318
  491MOL0     C64684   8.046   0.526   6.603  1.3196 -0.5239  1.1429
  491MOL0     C64685   8.066   0.658   6.636  0.3844  1.2320 -0.0261
  491MOL0     C64686   8.163   0.728   6.567 -0.3119 -0.3642 -0.1938
  491MOL0     C64687   8.256   0.657   6.484 -0.7720 -0.4318 -0.1860
  491MOL0     O64688   8.365   0.725   6.424  0.6197 -0.6477 -0.4430
  491MOL0     C64689   8.486   0.723   6.503  0.1261  0.3901  0.3169
  491MOL0     C64690   8.575   0.838   6.461  0.1783 -0.3733  0.0009
  491MOL0     C64691   8.529   0.974   6.520  0.3548 -0.1036  0.7170
  491MOL0     C64692   8.640   1.065   6.500 -0.0626 -0.0613  1.1411
  491MOL0     C64693   8.616   1.199   6.546  0.7631 -1.5991 -0.7675
  491MOL0     C64694   8.701   1.318   6.480  0.8093 -0.0520 -0.8054
  491MOL0     C64695   8.647   1.459   6.518 -0.3154 -0.1254 -1.0363
  491MOL0     C64696   8.505   1.492   6.488 -0.0810  0.9989  0.1123
  491MOL0     N64697   8.482   1.519   6.344 -0.9197 -0.3743 -0.4829
  491MOL0     C64698   8.500   1.637   6.282 -0.1574  0.2714  1.6624
  491MOL0     C64699   8.487   1.597   6.149  0.4293  0.3865  0.1817
  491MOL0     C64700   8.497   1.685   6.026  0.0245 -0.2309  0.4058
  491MOL0     C64701   8.650   1.682   5.988  0.3425 -0.1651  0.3948
  491MOL0     C64702   8.696   1.807   5.925 -0.9622 -0.7503 -0.3484
  491MOL0     C64703   8.706   1.937   6.017  0.4336  0.8520 -1.4236
  491MOL0     O64704   8.809   1.929   6.122 -0.8046  0.1397 -0.0821
  491MOL0     C64705   8.937   1.983   6.108 -0.0800  0.0837 -0.2672
  491MOL0     C64706   8.963   2.091   6.025 -0.2160  0.6746 -0.4193
  491MOL0     C64707   9.090   2.138   6.009 -0.4105  1.2083 -0.0909
  491MOL0     C64708   9.200   2.089   6.090 -0.3796  0.0115  0.4434
  491MOL0     C64709   9.336   2.146   6.066 -0.0153 -0.6081 -0.2759
  491MOL0     O64710   9.434   2.101   6.150  0.1608  0.6130  0.5260
  491MOL0     C64711   9.561   2.155   6.149 -0.0231 -0.5564  0.1169
  491MOL0     C64712   9.590   2.276   6.203 -0.5932 -0.9801  0.2542
  491MOL0     C64713   9.723   2.323   6.197 -0.1171 -0.6579 -0.0379
  491MOL0     C64714   9.825   2.256   6.132 -0.3480  0.5486 -0.2204
  491MOL0     O64715   9.955   2.303   6.121 -1.2907  0.2790  0.1723
  491MOL0     C64716   9.986   2.443   6.115 -0.6582 -0.0397 -0.6154
  491MOL0     C64717  10.134   2.463   6.077  0.6519  0.3717 -0.0548
  491MOL0     C64718  10.240   2.404   6.171  0.0661  0.3935 -0.3049
  491MOL0     C64719  10.386   2.417   6.112  0.4981 -0.0198 -0.4522
  491MOL0     C64720  10.484   2.344   6.206  0.1578  0.1775 -0.3517
  491MOL0     C64721  10.634   2.358   6.178  0.1798 -0.0028  0.9198
  491MOL0     C64722  10.723   2.237   6.228  0.0271 -0.2012 -0.2403
  491MOL0     C64723  10.871   2.269   6.194  1.0994  0.4530 -0.4782
  491MOL0    Cl64724  10.940   2.394   6.305 -0.0919 -0.1157  0.2625
  491MOL0     C64725   9.801   2.136   6.068  0.3360 -0.1172 -0.0762
  491MOL0     C64726   9.668   2.082   6.079 -0.3343 -0.2614  0.3269
  491MOL0     O64727   9.343   2.225   5.976 -0.1449 -0.1365  0.0424
  491MOL0     C64728   9.173   1.981   6.167  0.3572 -0.6081 -1.0002
  491MOL0     C64729   9.044   1.936   6.179 -0.7076 -0.0852 -0.0668
  491MOL0     N64730   8.457   1.466   6.142 -0.5451 -0.1009  0.8268
  491MOL0     N64731   8.438   1.424   6.259  0.1744  1.3491 -0.0124
  491MOL0     C64732   8.240   0.523   6.456 -0.4148 -0.3550 -0.7920
  491MOL0     C64733   8.129   0.464   6.514  0.4491  0.0273  0.0295
  491MOL0     C64734   7.786   0.294   6.743 -0.2561 -0.6848  0.7498
  491MOL0     C64735   7.756   0.186   6.827 -0.1381 -0.0782  0.1931
  491MOL0     C64736   7.626   0.170   6.873  0.0329 -1.2042  0.0051
  491MOL0     C64737   7.519   0.244   6.829 -1.2706  0.2770  0.1587
  491MOL0     O64738   7.395   0.200   6.867 -0.1971 -0.4865  0.5987
  491MOL0     C64739   7.279   0.242   6.795 -0.1402 -0.0528 -0.3777
  491MOL0     C64740   7.277   0.189   6.655 -0.0451 -0.2294 -0.3926
  491MOL0     C64741   7.143   0.209   6.584 -0.0730 -1.0097  0.3129
  491MOL0     C64742   7.088   0.349   6.563 -0.1201 -0.4449  0.3864
  491MOL0     C64743   7.198   0.438   6.525  0.4225  0.3516  0.1958
  491MOL0     C64744   7.298   0.517   6.517 -0.0588  0.2393 -0.0893
  491MOL0     C64745   7.548   0.349   6.739 -0.5418  0.1344  0.3183
  491MOL0     C64746   7.680   0.368   6.696 -0.1570 -0.5164 -0.8567
  491MOL0     H64747   7.992   0.706   6.699 -3.4426 -3.1527 -0.6552
  491MOL0     H64748   8.182   0.834   6.580  1.3271 -0.9407  3.5036
  491MOL0     H64749   8.542   0.630   6.489 -0.4464  0.3491 -2.1956
  491MOL0     H64750   8.466   0.734   6.609  0.2626  4.0067  0.0969
  491MOL0     H64751   8.571   0.846   6.352  1.3251 -3.2699 -0.3147
  491MOL0     H64752   8.676   0.811   6.493  2.1592  1.1967 -4.1747
  491MOL0     H64753   8.505   0.958   6.625 -1.2194 -0.8056  0.2804
  491MOL0     H64754   8.431   1.011   6.489 -0.5466 -0.6512  2.7892
  491MOL0     H64755   8.722   1.019   6.556 -0.1229  2.3657  3.4125
  491MOL0     H64756   8.649   1.077   6.391 -0.3128  0.4137  1.1745
  491MOL0     H64757   8.646   1.199   6.651  0.4590 -1.5997 -0.6796
  491MOL0     H64758   8.512   1.231   6.541  1.0417 -0.4260  0.3178
  491MOL0     H64759   8.700   1.312   6.370 -0.5842  1.5019 -0.9260
  491MOL0     H64760   8.798   1.293   6.524 -0.4490 -3.6292  0.2254
  491MOL0     H64761   8.665   1.465   6.626 -2.0249  0.6612 -0.7673
  491MOL0     H64762   8.708   1.540   6.477 -1.0625  2.9566  3.3044
  491MOL0     H64763   8.476   1.582   6.543  1.0167  0.8621  0.9301
  491MOL0     H64764   8.436   1.414   6.521  1.4623 -1.0354 -1.2506
  491MOL0     H64765   8.544   1.722   6.333  0.9616  0.2438  0.8062
  491MOL0     H64766   8.450   1.776   6.063 -0.3130 -0.7528  1.2963
  491MOL0     H64767   8.438   1.670   5.935  1.3073  2.0796 -0.9111
  491MOL0     H64768   8.664   1.611   5.905  0.4106 -1.4989  1.5127
  491MOL0     H64769   8.714   1.670   6.075  2.2267  1.3149 -0.7103
  491MOL0     H64770   8.796   1.799   5.882 -0.2426  2.6829  0.3700
  491MOL0     H64771   8.618   1.829   5.851  1.0059  2.2328 -1.7512
  491MOL0     H64772   8.614   1.942   6.077 -0.3304  2.1557 -2.6443
  491MOL0     H64773   8.702   2.021   5.947 -2.3030  2.9457  0.9577
  491MOL0     H64774   8.884   2.132   5.963  0.0126  0.4434 -0.8629
  491MOL0     H64775   9.102   2.214   5.932 -1.0974  2.8204  1.3415
  491MOL0     H64776   9.502   2.330   6.238 -2.8619 -2.3645 -2.8009
  491MOL0     H64777   9.725   2.420   6.245 -1.9727  0.8695 -2.7554
  491MOL0     H64778   9.978   2.491   6.213 -0.0882  0.1663 -0.6687
  491MOL0     H64779   9.923   2.505   6.050  0.9160  2.9097  0.4708
  491MOL0     H64780  10.153   2.568   6.051 -2.0839  1.3202  1.3716
  491MOL0     H64781  10.147   2.398   5.990 -3.5662 -0.4912 -0.2659
  491MOL0     H64782  10.202   2.302   6.184 -0.4134  0.6362  0.2798
  491MOL0     H64783  10.228   2.446   6.271 -1.5397 -3.2927  1.2057
  491MOL0     H64784  10.401   2.373   6.013  1.7852 -0.3312 -0.1396
  491MOL0     H64785  10.424   2.517   6.089 -1.2483  0.4725 -1.3656
  491MOL0     H64786  10.465   2.237   6.197  1.8657 -0.2973  1.0632
  491MOL0     H64787  10.460   2.380   6.307 -2.6845 -0.6308 -0.6378
  491MOL0     H64788  10.679   2.452   6.211 -0.0880 -0.5043  2.8120
  491MOL0     H64789  10.630   2.359   6.069 -3.4070  1.2001  0.9381
  491MOL0     H64790  10.726   2.230   6.337  0.0894  3.7041  0.1268
  491MOL0     H64791  10.693   2.147   6.173 -0.4080  0.9152 -1.9092
  491MOL0     H64792  10.893   2.290   6.089  2.0207  0.7676 -0.2334
  491MOL0     H64793  10.920   2.172   6.208  3.1145  1.5236  0.3975
  491MOL0     H64794   9.884   2.090   6.016  2.4382  4.4079 -1.2104
  491MOL0     H64795   9.628   1.989   6.041 -2.7003 -0.1367  2.3136
  491MOL0     H64796   9.246   1.923   6.222  0.3346 -0.8701 -1.2448
  491MOL0     H64797   9.016   1.857   6.247  5.5912 -2.7635  0.0549
  491MOL0     H64798   8.312   0.466   6.397 -2.6006 -1.7928 -2.2342
  491MOL0     H64799   8.103   0.361   6.493 -1.5760  0.8549 -1.8351
  491MOL0     H64800   7.834   0.129   6.877  0.6068  2.0281  1.5828
  491MOL0     H64801   7.611   0.078   6.928  0.5374  0.9619  4.1384
  491MOL0     H64802   7.293   0.350   6.805  4.4099 -0.3239 -1.6473
  491MOL0     H64803   7.190   0.209   6.851 -0.6768  1.3472 -0.3648
  491MOL0     H64804   7.362   0.228   6.598  1.2767 -0.5523  1.2782
  491MOL0     H64805   7.309   0.084   6.657  1.4548  0.2155  0.1091
  491MOL0     H64806   7.067   0.149   6.635 -1.1892  2.2467  2.8958
  491MOL0     H64807   7.163   0.161   6.488 -0.7910 -2.0307  0.6535
  491MOL0     H64808   7.000   0.351   6.497 -2.1399  1.0161  2.9176
  491MOL0     H64809   7.059   0.389   6.660  1.1385  0.6679  0.3405
  491MOL0     H64810   7.362   0.598   6.492 -0.3225 -0.0008 -1.6542
  491MOL0     H64811   7.464   0.411   6.707 -1.8695 -0.2481  2.8808
  491MOL0     H64812   7.710   0.451   6.632  1.5983 -0.3336  0.1335
  492MOL0     O64813   7.892   9.467   6.088  0.3201 -0.1041 -0.2611
  492MOL0     C64814   7.979   9.387   6.045  0.8354  1.0167 -0.1986
  492MOL0     O64815   7.984   9.347   5.920 -0.5525 -0.2409 -0.3980
  492MOL0     C64816   7.911   9.413   5.823  0.2430  0.4551  0.5819
  492MOL0     C64817   7.855   9.338   5.709 -0.0000 -0.9010 -0.2483
  492MOL0     C64818   7.817   9.402   5.594  1.1763 -0.0375  0.3734
  492MOL0     C64819   7.796   9.540   5.594  0.0780  0.2128  0.1248
  492MOL0     O64820   7.756   9.593   5.478 -0.2788 -0.1008  0.5971
  492MOL0     C64821   7.611   9.573   5.459 -1.1922 -0.1977 -0.7116
  492MOL0     C64822   7.539   9.678   5.384  0.1137 -1.0619 -0.6685
  492MOL0     C64823   7.548   9.801   5.478  0.5545 -1.0045 -0.3695
  492MOL0     C64824   7.445   9.908   5.440 -0.7100  0.0792 -0.5116
  492MOL0     C64825   7.479  10.053   5.479 -1.3297  0.1963 -0.9370
  492MOL0     C64826   7.474  10.081   5.634  0.1167  0.5888 -0.9491
  492MOL0     C64827   7.474  10.231   5.656  0.3969  0.1383 -0.6493
  492MOL0     C64828   7.449  10.274   5.809 -0.7602  0.1853  0.5807
  492MOL0     N64829   7.449  10.422   5.823 -0.0884 -0.2280  0.3240
  492MOL0     C64830   7.366  10.509   5.750  0.4209  0.2884  0.1463
  492MOL0     C64831   7.416  10.634   5.777 -0.9985 -0.7713 -1.1293
  492MOL0     C64832   7.373  10.771   5.722  0.3669 -0.7573 -0.2116
  492MOL0     C64833   7.482  10.816   5.627 -1.0211  0.1252  0.4006
  492MOL0     C64834   7.483  10.740   5.492  0.9153 -0.3824  0.2944
  492MOL0     C64835   7.612  10.789   5.415  0.1654 -0.3254  0.4687
  492MOL0     O64836   7.629  10.703   5.305  0.0673 -0.8287  0.2229
  492MOL0     C64837   7.720  10.606   5.323 -0.5369  0.3295  1.1337
  492MOL0     C64838   7.855  10.642   5.300  0.9750  0.3020  1.3089
  492MOL0     C64839   7.955  10.544   5.319  0.2432 -1.2431  0.2410
  492MOL0     C64840   7.928  10.415   5.347 -0.1437 -0.1889 -0.3559
  492MOL0     C64841   8.039  10.320   5.350 -0.5072  0.6596 -1.2620
  492MOL0     O64842   8.011  10.182   5.392 -0.2169  0.3602  0.3161
  492MOL0     C64843   8.090  10.070   5.393  0.3033  0.8737  1.0420
  492MOL0     C64844   8.220  10.061   5.342  0.9810 -0.3574 -0.9206
  492MOL0     C64845   8.289   9.945   5.347 -0.0871  0.9388  0.5106
  492MOL0     C64846   8.242   9.823   5.410 -0.7939 -0.2307 -0.0469
  492MOL0     O64847   8.322   9.706   5.403 -0.1809  0.7375  0.1925
  492MOL0     C64848   8.442   9.699   5.329 -0.7142  0.1399  0.5229
  492MOL0     C64849   8.515   9.569   5.363  0.2169 -0.2464 -0.5974
  492MOL0     C64850   8.663   9.578   5.317 -0.6020  0.1709 -0.1916
  492MOL0     C64851   8.746   9.658   5.423  0.8447  0.5481  0.0460
  492MOL0     C64852   8.888   9.645   5.399 -0.2623  0.9476  0.3971
  492MOL0     C64853   8.962   9.680   5.261  0.5614  0.5260 -0.3928
  492MOL0     C64854   9.113   9.639   5.245  0.2442  0.3159  0.1788
  492MOL0     C64855   9.198   9.737   5.170  0.5019  0.1337 -0.2345
  492MOL0    Cl64856   9.370   9.702   5.150  0.0026  0.1069 -0.1711
  492MOL0     C64857   8.112   9.829   5.458 -0.5890 -0.3337  0.3002
  492MOL0     C64858   8.042   9.959   5.455  0.3580 -0.2028 -1.2612
  492MOL0     O64859   8.149  10.370   5.317 -0.1708  0.8848  0.0449
  492MOL0     C64860   7.797  10.379   5.357  0.5704  0.0895  0.0257
  492MOL0     C64861   7.690  10.472   5.345 -0.1346  1.0464 -0.3172
  492MOL0     N64862   7.521  10.617   5.866  0.6395 -0.4315 -0.3163
  492MOL0     N64863   7.535  10.495   5.895 -1.4216  0.1761  0.2101
  492MOL0     C64864   7.848   9.616   5.699  0.1658 -0.1322  0.2061
  492MOL0     C64865   7.913   9.553   5.804 -0.1595  0.9140 -0.2010
  492MOL0     C64866   8.080   9.324   6.141 -0.4661  0.9776  0.8249
  492MOL0     C64867   8.198   9.254   6.096  1.0800  0.6183  0.9124
  492MOL0     C64868   8.300   9.212   6.185  0.4743  0.1300 -0.0558
  492MOL0     C64869   8.282   9.233   6.326 -1.6409 -0.6462  0.8777
  492MOL0     O64870   8.366   9.186   6.414 -0.3043 -0.0709 -0.5675
  492MOL0     C64871   8.463   9.279   6.457 -1.0963  0.6177 -0.0414
  492MOL0     C64872   8.420   9.383   6.562 -0.3202 -0.7184  0.5715
  492MOL0     C64873   8.414   9.518   6.495 -0.6120 -1.1162 -0.3705
  492MOL0     C64874   8.356   9.625   6.599 -0.3086 -0.2755  0.7937
  492MOL0     C64875   8.206   9.625   6.586 -0.6024  0.4136 -0.1574
  492MOL0     C64876   8.087   9.610   6.576  0.6339  0.3945 -0.0556
  492MOL0     C64877   8.174   9.307   6.366 -0.4407  0.0573 -0.1006
  492MOL0     C64878   8.073   9.344   6.276 -0.0001 -0.7819  0.0354
  492MOL0     H64879   7.859   9.230   5.720 -0.1282 -1.0841 -1.7772
  492MOL0     H64880   7.785   9.355   5.501 -2.6711  2.9340 -0.0530
  492MOL0     H64881   7.566   9.560   5.558  2.3578  0.9023  1.2223
  492MOL0     H64882   7.587   9.483   5.402 -3.5906 -1.6863  2.3664
  492MOL0     H64883   7.436   9.646   5.362  0.2198 -0.5011 -2.1690
  492MOL0     H64884   7.581   9.700   5.285 -1.6283 -0.4003 -1.3150
  492MOL0     H64885   7.648   9.843   5.462 -0.3346  0.6386 -2.0107
  492MOL0     H64886   7.544   9.765   5.581 -0.0932  0.9145  0.3187
  492MOL0     H64887   7.437   9.911   5.331  0.2068  4.0954 -0.6231
  492MOL0     H64888   7.349   9.885   5.487 -0.5039  1.4134  0.6595
  492MOL0     H64889   7.393  10.106   5.438  0.1076  1.3614 -2.5720
  492MOL0     H64890   7.573  10.094   5.442 -1.1986  0.0730 -0.7454
  492MOL0     H64891   7.562  10.039   5.683 -2.2303 -1.4134  1.8785
  492MOL0     H64892   7.387  10.029   5.676  1.6839 -0.8634  0.6563
  492MOL0     H64893   7.569  10.275   5.626 -0.6874  3.7404  0.7416
  492MOL0     H64894   7.389  10.273   5.600  0.2940  0.4168 -0.2872
  492MOL0     H64895   7.526  10.226   5.871  2.7854  1.2222 -2.6142
  492MOL0     H64896   7.355  10.221   5.824 -0.4856 -1.4924 -2.6423
  492MOL0     H64897   7.279  10.489   5.688  0.4018  1.8106 -0.3523
  492MOL0     H64898   7.351  10.845   5.800 -1.9435 -0.9882 -0.5603
  492MOL0     H64899   7.287  10.763   5.655 -0.2754 -0.9992  0.6256
  492MOL0     H64900   7.572  10.784   5.681  1.2435  0.7183 -2.7339
  492MOL0     H64901   7.482  10.925   5.629  2.5708  0.2386 -0.1660
  492MOL0     H64902   7.471  10.635   5.518 -3.1831  0.0280  0.7854
  492MOL0     H64903   7.395  10.749   5.428  0.1206  0.6415  1.4836
  492MOL0     H64904   7.707  10.778   5.469  3.0475 -0.2687 -4.0559
  492MOL0     H64905   7.606  10.894   5.385 -0.0810 -0.4890 -0.0683
  492MOL0     H64906   7.885  10.741   5.266  2.1850 -0.6817 -0.6236
  492MOL0     H64907   8.058  10.579   5.310  0.9998 -3.1166  1.1990
  492MOL0     H64908   8.279  10.144   5.302 -0.0831  0.2864 -1.1909
  492MOL0     H64909   8.389   9.942   5.303  0.3027 -0.6949  1.4325
  492MOL0     H64910   8.500   9.785   5.363 -0.0459 -0.5939  1.2904
  492MOL0     H64911   8.418   9.717   5.224 -0.3125  2.4549  0.7714
  492MOL0     H64912   8.463   9.486   5.313  0.8509 -1.1215  0.1669
  492MOL0     H64913   8.520   9.554   5.472  2.8731 -0.2338 -0.6716
  492MOL0     H64914   8.675   9.631   5.222  2.6767  5.8202  2.8197
  492MOL0     H64915   8.704   9.476   5.314  1.0463  0.8229 -1.0215
  492MOL0     H64916   8.702   9.759   5.427 -0.5323 -0.0642  2.2844
  492MOL0     H64917   8.722   9.604   5.515 -2.6715 -0.5343 -1.3337
  492MOL0     H64918   8.931   9.545   5.408  1.0550  1.5443  1.0099
  492MOL0     H64919   8.941   9.700   5.477 -0.4093  0.3041  0.9707
  492MOL0     H64920   8.948   9.786   5.240 -2.8257  0.2671 -0.0439
  492MOL0     H64921   8.898   9.632   5.186 -1.6594  3.7757 -0.7609
  492MOL0     H64922   9.162   9.631   5.342  0.7962 -1.1756 -0.1937
  492MOL0     H64923   9.119   9.541   5.196  0.3404  1.7715 -3.0099
  492MOL0     H64924   9.208   9.831   5.224  2.3117  0.2358 -0.6669
  492MOL0     H64925   9.152   9.766   5.075 -1.7302 -3.3808 -0.4222
  492MOL0     H64926   8.063   9.743   5.503 -0.6938 -0.8654 -0.7837
  492MOL0     H64927   7.936   9.957   5.477  0.1289 -3.1030 -2.2165
  492MOL0     H64928   7.766  10.277   5.377  0.4762 -0.0275 -0.6827
  492MOL0     H64929   7.590  10.433   5.364  0.9976 -1.1505  1.6760
  492MOL0     H64930   7.841   9.724   5.697  0.9883 -0.0910 -0.8063
  492MOL0     H64931   7.974   9.611   5.872 -1.0432  3.0326 -1.1153
  492MOL0     H64932   8.213   9.232   5.991 -0.7845 -1.0120  0.9266
  492MOL0     H64933   8.391   9.165   6.149  1.9164  1.0995  2.1035
  492MOL0     H64934   8.501   9.331   6.368  1.1392  1.5061  1.3200
  492MOL0     H64935   8.553   9.231   6.497 -1.7789 -0.3923  0.3003
  492MOL0     H64936   8.333   9.352   6.619 -1.1011 -0.7817 -0.6173
  492MOL0     H64937   8.504   9.390   6.631 -0.7505 -0.3989  1.0704
  492MOL0     H64938   8.340   9.526   6.415  1.2110  3.0900 -1.9254
  492MOL0     H64939   8.512   9.550   6.457 -2.4186  2.5401 -2.5115
  492MOL0     H64940   8.375   9.580   6.697  4.2373 -1.2426 -0.3130
  492MOL0     H64941   8.400   9.725   6.589 -1.4242  0.3878  2.1576
  492MOL0     H64942   7.980   9.597   6.573  0.6367  0.5922 -2.7490
  492MOL0     H64943   8.139   9.314   6.468 -3.6787 -5.8960 -0.3143
  492MOL0     H64944   7.984   9.396   6.313  0.6160  1.5555 -1.5787
  493MOL0     O64945   9.327   1.830   5.735  0.6914  0.0263 -0.8929
  493MOL0     C64946   9.397   1.796   5.830 -0.8408  0.6484  0.3356
  493MOL0     O64947   9.530   1.816   5.829 -0.4694 -0.0801 -0.0351
  493MOL0     C64948   9.600   1.844   5.718  0.2107 -0.1777 -0.8299
  493MOL0     C64949   9.726   1.898   5.745 -0.6082 -0.3091 -0.7961
  493MOL0     C64950   9.821   1.908   5.640 -0.5697 -0.7672 -0.1517
  493MOL0     C64951   9.793   1.858   5.518 -0.4528  0.1884 -0.4367
  493MOL0     O64952   9.901   1.895   5.428  0.4250  0.4051  0.1426
  493MOL0     C64953   9.880   1.841   5.293 -0.7464 -0.4350  0.2197
  493MOL0     C64954  10.002   1.882   5.204  0.8464 -0.5694  0.3068
  493MOL0     C64955  10.144   1.873   5.268  0.2361  0.5957  0.1466
  493MOL0     C64956  10.172   1.743   5.341 -0.2542  0.1152 -0.4838
  493MOL0     C64957  10.310   1.753   5.414  0.2677  0.2431  0.4738
  493MOL0     C64958  10.427   1.749   5.320 -0.6945  0.5738 -0.1926
  493MOL0     C64959  10.558   1.793   5.383 -0.2967 -0.2101 -0.2084
  493MOL0     C64960  10.597   1.702   5.501  0.3816  1.4329 -0.1253
  493MOL0     N64961  10.738   1.733   5.532 -0.6954  0.5338 -0.0480
  493MOL0     C64962  10.847   1.657   5.485 -0.5783 -0.5600  0.4226
  493MOL0     C64963  10.951   1.737   5.525  0.0968  0.7046 -0.7005
  493MOL0     C64964  11.086   1.675   5.480  0.7440  0.4744 -0.0639
  493MOL0     C64965  11.183   1.696   5.593 -0.1795 -1.3117  0.3241
  493MOL0     C64966  11.274   1.820   5.570  0.7431  0.1977 -0.3499
  493MOL0     C64967  11.373   1.805   5.461  0.0594  0.3691  0.1681
  493MOL0     O64968  11.357   1.687   5.377  0.5534 -0.0325  0.4733
  493MOL0     C64969  11.476   1.632   5.319 -0.0978 -0.1324 -0.0509
  493MOL0     C64970  11.592   1.704   5.287 -0.0405  1.3320 -0.4209
  493MOL0     C64971  11.696   1.645   5.229  0.1462  0.4404 -0.8004
  493MOL0     C64972  11.698   1.507   5.201 -0.4658 -0.8096  0.0893
  493MOL0     C64973  11.817   1.455   5.138 -0.8100 -0.5060  0.7588
  493MOL0     O64974  11.898   1.542   5.073  0.4455  0.3356 -0.2330
  493MOL0     C64975  12.001   1.485   5.005 -0.0936 -0.9261 -0.2792
  493MOL0     C64976  12.131   1.532   5.025  0.2049 -0.1553 -0.4099
  493MOL0     C64977  12.245   1.461   4.972 -0.7971 -0.5484  0.6209
  493MOL0     C64978  12.227   1.359   4.876 -0.4277 -0.7123  1.0812
  493MOL0     O64979  12.338   1.300   4.815  0.0913  0.2072  0.2407
  493MOL0     C64980  12.392   1.188   4.882 -0.7541 -0.5152  0.4483
  493MOL0     C64981  12.542   1.162   4.842 -0.1450  0.0314  0.2837
  493MOL0     C64982  12.649   1.237   4.918  0.8036 -0.5286 -0.3958
  493MOL0     C64983  12.791   1.230   4.869  0.0585 -0.2470 -0.1341
  493MOL0     C64984  12.848   1.088   4.847  0.2797 -0.1159 -0.6427
  493MOL0     C64985  12.839   1.006   4.976  0.7991  0.1159  0.3260
  493MOL0     C64986  12.936   0.887   4.980  0.2116 -0.9222  0.5749
  493MOL0     C64987  12.888   0.779   5.070 -0.3653  0.5165  0.2654
  493MOL0    Cl64988  12.919   0.841   5.239  0.0179 -0.2154 -0.3682
  493MOL0     C64989  12.097   1.337   4.821  0.8165 -0.8263 -0.4899
  493MOL0     C64990  11.987   1.397   4.892  0.3325 -1.2191  0.1100
  493MOL0     O64991  11.840   1.334   5.153 -0.2372  0.3495 -1.1008
  493MOL0     C64992  11.582   1.433   5.217 -0.2484  1.0463  0.2649
  493MOL0     C64993  11.474   1.497   5.275 -0.7040 -0.2677  0.2461
  493MOL0     N64994  10.915   1.844   5.592 -0.2401 -1.6767  0.6303
  493MOL0     N64995  10.789   1.840   5.599 -0.2737  1.4136 -0.6444
  493MOL0     C64996   9.666   1.802   5.484 -0.5736  0.0586 -0.1725
  493MOL0     C64997   9.582   1.784   5.590 -0.5803 -0.3321  0.2201
  493MOL0     C64998   9.332   1.746   5.950  0.7582 -0.5075 -0.1118
  493MOL0     C64999   9.193   1.712   5.956 -0.9183 -0.6377  0.0296
  493MOL0     C65000   9.135   1.651   6.068 -0.3981  0.5435 -0.3103
  493MOL0     C65001   9.207   1.619   6.185  0.2393  0.6889  0.2759
  493MOL0     O65002   9.134   1.560   6.291 -0.8502 -0.1768  0.0344
  493MOL0     C65003   9.181   1.565   6.431  0.0805 -0.3381 -0.5098
  493MOL0     C65004   9.075   1.474   6.506 -0.0690  1.3330  0.1792
  493MOL0     C65005   9.098   1.435   6.651 -0.5322 -0.3269 -0.3775
  493MOL0     C65006   9.120   1.554   6.748  0.6735 -0.5650  0.7786
  493MOL0     C65007   9.211   1.522   6.865 -0.8150  0.1703  0.6534
  493MOL0     C65008   9.274   1.497   6.967 -0.5846 -0.8012  0.4644
  493MOL0     C65009   9.340   1.661   6.178  0.3643  0.4122  0.6178
  493MOL0     C65010   9.398   1.711   6.065 -0.3080 -0.9016  0.2552
  493MOL0     H65011   9.739   1.929   5.848 -2.0524  1.5746 -1.1344
  493MOL0     H65012   9.919   1.949   5.662 -1.1042  1.0779 -0.9859
  493MOL0     H65013   9.787   1.883   5.254  0.1459 -0.6515 -2.3391
  493MOL0     H65014   9.880   1.731   5.290  5.0663 -0.8056  0.8064
  493MOL0     H65015   9.979   1.985   5.174 -0.5294 -0.7528  0.7086
  493MOL0     H65016   9.995   1.810   5.122 -2.2859  0.5547 -0.5534
  493MOL0     H65017  10.168   1.970   5.314  0.4868 -0.0847  1.5135
  493MOL0     H65018  10.205   1.878   5.177 -1.3603  2.9173 -0.9045
  493MOL0     H65019  10.092   1.722   5.412 -3.3692  2.0862 -3.1453
  493MOL0     H65020  10.184   1.656   5.276  0.8898 -0.5201  0.5332
  493MOL0     H65021  10.325   1.662   5.473 -0.0138 -0.6971 -0.8612
  493MOL0     H65022  10.318   1.849   5.466  0.0057 -0.5151  1.9768
  493MOL0     H65023  10.408   1.819   5.237 -2.7784  1.2866  0.8118
  493MOL0     H65024  10.450   1.650   5.282 -0.0350  0.8486 -0.5295
  493MOL0     H65025  10.638   1.768   5.312  0.6853 -0.8505  1.0814
  493MOL0     H65026  10.572   1.897   5.415  0.7650 -0.5220  0.4002
  493MOL0     H65027  10.582   1.600   5.464  0.8079  1.9965 -2.0138
  493MOL0     H65028  10.536   1.729   5.587  0.1697 -1.7197  0.8505
  493MOL0     H65029  10.852   1.567   5.424  1.0219 -0.4302  0.3294
  493MOL0     H65030  11.098   1.738   5.392 -1.6830 -1.1080 -1.6440
  493MOL0     H65031  11.078   1.568   5.457  1.7763  0.2636  0.5032
  493MOL0     H65032  11.248   1.609   5.605  0.7009 -0.6702  0.3155
  493MOL0     H65033  11.126   1.701   5.686 -0.0624  0.9565  0.3451
  493MOL0     H65034  11.207   1.906   5.556 -3.1133 -2.6744 -1.1773
  493MOL0     H65035  11.335   1.821   5.661  1.6100 -4.0544 -0.6733
  493MOL0     H65036  11.472   1.810   5.508  0.0635  1.2307  0.0859
  493MOL0     H65037  11.376   1.886   5.388 -1.9062 -1.5758 -2.2380
  493MOL0     H65038  11.614   1.802   5.328  0.1651  1.5062 -0.9412
  493MOL0     H65039  11.788   1.703   5.229  0.0900  0.6043  1.1832
  493MOL0     H65040  12.159   1.613   5.091  2.0354 -0.1448 -1.1280
  493MOL0     H65041  12.346   1.493   4.994 -0.0705 -0.0357 -2.9164
  493MOL0     H65042  12.329   1.103   4.855  0.1916 -0.3778 -2.5991
  493MOL0     H65043  12.399   1.197   4.991  2.3668 -3.0296  0.5938
  493MOL0     H65044  12.548   1.182   4.735  0.6723 -0.8496  0.1393
  493MOL0     H65045  12.554   1.053   4.852 -0.0715 -0.4997 -3.8174
  493MOL0     H65046  12.634   1.193   5.017  2.8909  0.7921  0.5643
  493MOL0     H65047  12.619   1.342   4.925 -0.7492 -0.7706 -2.2780
  493MOL0     H65048  12.794   1.283   4.773 -0.9424 -0.6793 -0.4264
  493MOL0     H65049  12.860   1.283   4.934 -1.1787  0.6680  0.4897
  493MOL0     H65050  12.950   1.099   4.810  0.3447  2.1860  0.0317
  493MOL0     H65051  12.784   1.045   4.770 -0.7375  0.4871 -0.1605
  493MOL0     H65052  12.739   0.962   4.980  0.9897 -0.2803  0.7982
  493MOL0     H65053  12.853   1.070   5.063 -1.4221  2.0873 -0.6486
  493MOL0     H65054  12.945   0.846   4.879  1.1290 -1.9803  1.0577
  493MOL0     H65055  13.036   0.928   4.994 -0.5040  0.9866  0.3180
  493MOL0     H65056  12.972   0.710   5.057  0.3810  1.6787 -1.5136
  493MOL0     H65057  12.786   0.742   5.056 -0.1862 -0.5209  1.5513
  493MOL0     H65058  12.094   1.258   4.748 -0.6200  0.3121 -1.7292
  493MOL0     H65059  11.884   1.381   4.865  0.7235 -1.2065 -1.4860
  493MOL0     H65060  11.582   1.326   5.198 -2.1579  1.1214 -0.3667
  493MOL0     H65061  11.388   1.443   5.313 -0.3530 -0.1820  1.2058
  493MOL0     H65062   9.656   1.763   5.383  0.4113  1.2596 -0.7684
  493MOL0     H65063   9.490   1.730   5.573  0.6836 -2.7221  0.4350
  493MOL0     H65064   9.131   1.751   5.876  0.8309  1.4058 -0.4296
  493MOL0     H65065   9.032   1.616   6.069  0.9356 -4.1021  1.1251
  493MOL0     H65066   9.188   1.669   6.463  4.6673 -1.5821  3.9793
  493MOL0     H65067   9.277   1.512   6.438  1.5702  2.3840  2.2888
  493MOL0     H65068   8.976   1.521   6.505  0.0152  1.4983 -0.4722
  493MOL0     H65069   9.070   1.374   6.462 -2.1954  0.4818  2.1363
  493MOL0     H65070   9.187   1.371   6.654  1.2747  2.0137  3.1082
  493MOL0     H65071   9.012   1.372   6.678 -1.3889 -0.3347 -2.8157
  493MOL0     H65072   9.152   1.643   6.692 -1.3667  0.7959  1.6463
  493MOL0     H65073   9.021   1.580   6.787  0.8624 -1.4754  1.9137
  493MOL0     H65074   9.328   1.482   7.059  2.2893 -1.6239 -1.2415
  493MOL0     H65075   9.405   1.636   6.261  1.1136  2.1256  0.5773
  493MOL0     H65076   9.507   1.713   6.073  0.2604 -1.8367 -4.3807
  494MOL0     O65077   5.380   2.459   3.000 -0.9854 -0.3546 -0.1233
  494MOL0     C65078   5.315   2.546   3.060 -0.0191  0.4930  1.4114
  494MOL0     O65079   5.309   2.677   3.014  0.1015 -0.4319 -0.5233
  494MOL0     C65080   5.368   2.713   2.894  1.0875 -0.3251  0.9608
  494MOL0     C65081   5.295   2.782   2.799  0.5143 -0.3165  0.9122
  494MOL0     C65082   5.343   2.815   2.665  0.1601  0.6002 -0.7609
  494MOL0     C65083   5.479   2.775   2.634 -0.1282 -0.7095  1.2758
  494MOL0     O65084   5.563   2.800   2.519 -0.5651 -0.0971  0.7977
  494MOL0     C65085   5.490   2.828   2.393 -0.8089  0.1754  0.4046
  494MOL0     C65086   5.594   2.810   2.280 -1.1333 -0.9916 -0.0428
  494MOL0     C65087   5.628   2.662   2.230  0.6897  0.9488 -0.4043
  494MOL0     C65088   5.724   2.663   2.112 -0.1759  0.2434 -0.5096
  494MOL0     C65089   5.728   2.541   2.023 -0.8526  1.4697  1.1797
  494MOL0     C65090   5.841   2.561   1.916 -0.1455 -0.5571 -0.9638
  494MOL0     C65091   5.812   2.689   1.826  0.3844 -0.2494 -0.2321
  494MOL0     C65092   5.895   2.691   1.693  0.7125  0.7830  0.6140
  494MOL0     N65093   5.835   2.626   1.584  0.3754  0.1544  0.5778
  494MOL0     C65094   5.876   2.504   1.519  0.1837  0.2744  0.2688
  494MOL0     C65095   5.778   2.476   1.435  0.2526  0.0624 -0.8223
  494MOL0     C65096   5.776   2.352   1.353  0.6461 -0.0535  0.3857
  494MOL0     C65097   5.877   2.354   1.236 -0.2186  0.6610  1.0387
  494MOL0     C65098   5.893   2.475   1.149  0.3303  0.4133  0.7894
  494MOL0     C65099   5.933   2.437   1.003  0.1734 -0.4344 -0.3219
  494MOL0     O65100   5.986   2.558   0.943  0.5460 -0.8285 -0.4295
  494MOL0     C65101   5.890   2.647   0.880 -0.2458 -0.5220 -0.1440
  494MOL0     C65102   5.916   2.784   0.906  0.7158  0.2875  0.6536
  494MOL0     C65103   5.831   2.872   0.857  0.3088  0.2672  0.2135
  494MOL0     C65104   5.726   2.846   0.768 -0.0906  0.6048  0.0344
  494MOL0     C65105   5.635   2.955   0.710  0.5797 -0.5476  0.2173
  494MOL0     O65106   5.573   2.941   0.592  0.0036  0.3901  0.0420
  494MOL0     C65107   5.493   3.042   0.551 -0.7373 -0.0798 -0.4472
  494MOL0     C65108   5.364   3.060   0.597 -0.6082  0.5998  0.1419
  494MOL0     C65109   5.285   3.161   0.556  0.5466  0.2402  0.5767
  494MOL0     C65110   5.320   3.240   0.447  1.1804  0.3233  0.4839
  494MOL0     O65111   5.219   3.323   0.401  0.3461 -0.1636 -0.6020
  494MOL0     C65112   5.241   3.443   0.323  0.0290 -1.0494  0.0002
  494MOL0     C65113   5.268   3.420   0.167 -0.6013 -0.8750  0.2815
  494MOL0     C65114   5.154   3.386   0.067  0.4739 -0.4121  0.6504
  494MOL0     C65115   5.025   3.467   0.088  0.8432 -0.4193  0.5072
  494MOL0     C65116   4.941   3.417  -0.029 -0.0734  0.8357 -0.0219
  494MOL0     C65117   4.804   3.490  -0.021 -0.2986  0.0618  0.3628
  494MOL0     C65118   4.803   3.651  -0.056 -0.5934  0.5306 -0.5558
  494MOL0     C65119   4.660   3.693  -0.093  0.1778  0.0104 -0.4918
  494MOL0    Cl65120   4.607   3.613  -0.243 -0.3646  0.2673  0.0591
  494MOL0     C65121   5.446   3.218   0.395 -0.0076  0.0654  0.1366
  494MOL0     C65122   5.534   3.118   0.440 -0.5819 -0.8227 -0.0693
  494MOL0     O65123   5.626   3.054   0.781 -0.1066  0.0622  0.3719
  494MOL0     C65124   5.708   2.712   0.734  0.1430  0.0012 -0.6496
  494MOL0     C65125   5.780   2.615   0.799  0.3125  0.4264  0.5660
  494MOL0     N65126   5.683   2.575   1.436 -0.6962 -0.1637 -0.1404
  494MOL0     N65127   5.722   2.672   1.524 -0.3485  0.9544  0.6278
  494MOL0     C65128   5.553   2.724   2.740  0.0932 -0.0384 -0.5269
  494MOL0     C65129   5.495   2.703   2.864 -0.4262 -0.1516  1.1289
  494MOL0     C65130   5.284   2.512   3.196 -0.3451  0.5687 -0.4244
  494MOL0     C65131   5.275   2.608   3.300  1.2483  0.6248  0.2492
  494MOL0     C65132   5.232   2.574   3.435  0.7273  0.3993  0.2690
  494MOL0     C65133   5.202   2.443   3.456 -0.1371 -0.0088  0.0346
  494MOL0     O65134   5.142   2.394   3.572  0.0458  0.9564  0.1610
  494MOL0     C65135   5.151   2.463   3.691  0.5219  0.1461 -0.0677
  494MOL0     C65136   5.029   2.552   3.703  0.1678  0.5625 -0.3475
  494MOL0     C65137   5.043   2.661   3.811  0.1274 -0.2268  0.2253
  494MOL0     C65138   4.908   2.673   3.892 -0.4596  0.7365 -0.5486
  494MOL0     C65139   4.885   2.559   3.995  1.0734 -0.8082  1.0355
  494MOL0     C65140   4.845   2.478   4.078 -0.3234  0.4592 -0.9751
  494MOL0     C65141   5.216   2.345   3.351  0.3715  0.3209 -0.4446
  494MOL0     C65142   5.265   2.376   3.228 -0.6088  0.1030  0.4099
  494MOL0     H65143   5.193   2.807   2.828  0.1395  1.3909 -1.5660
  494MOL0     H65144   5.275   2.857   2.592 -0.1172  2.2351  0.3631
  494MOL0     H65145   5.450   2.929   2.389  1.2194  1.0802  1.6124
  494MOL0     H65146   5.400   2.768   2.378 -0.6064 -0.3742  1.2567
  494MOL0     H65147   5.682   2.865   2.312 -2.0367  0.0503  0.7033
  494MOL0     H65148   5.560   2.865   2.192 -0.2109 -0.2132  0.0760
  494MOL0     H65149   5.537   2.607   2.203  3.0802 -3.0271 -1.0458
  494MOL0     H65150   5.674   2.609   2.314 -0.8684  1.4229  0.8243
  494MOL0     H65151   5.689   2.744   2.048  1.4512  1.5054  0.1121
  494MOL0     H65152   5.826   2.687   2.144 -0.5842 -0.6364  1.6886
  494MOL0     H65153   5.635   2.513   1.972  0.2207 -0.8661  0.3310
  494MOL0     H65154   5.745   2.449   2.080  0.7225 -0.1381 -1.6397
  494MOL0     H65155   5.843   2.476   1.849 -1.0397  0.1627 -1.9413
  494MOL0     H65156   5.938   2.575   1.966  0.1671 -1.6722 -1.2337
  494MOL0     H65157   5.706   2.697   1.800  0.5950 -0.8050 -1.3119
  494MOL0     H65158   5.833   2.776   1.889 -1.9803 -0.4008  0.8746
  494MOL0     H65159   5.998   2.661   1.713  1.1292 -1.7764 -4.0448
  494MOL0     H65160   5.910   2.796   1.668  2.1414  0.2702 -0.8751
  494MOL0     H65161   5.957   2.441   1.555 -1.6116 -2.2727  0.0648
  494MOL0     H65162   5.678   2.344   1.305  0.0474 -2.0929  1.7853
  494MOL0     H65163   5.792   2.260   1.409 -0.5964 -2.2000 -2.5314
  494MOL0     H65164   5.870   2.262   1.177  2.3939  0.6756  0.6096
  494MOL0     H65165   5.979   2.342   1.274  0.5544 -2.3909 -1.5189
  494MOL0     H65166   5.811   2.548   1.140 -0.4313 -0.0771  3.1210
  494MOL0     H65167   5.976   2.532   1.191  0.0254 -1.2176  3.8704
  494MOL0     H65168   5.852   2.397   0.942 -1.0332  2.1361 -0.5518
  494MOL0     H65169   6.022   2.374   1.012  1.9340  2.1276  2.0686
  494MOL0     H65170   6.003   2.794   0.970  0.5091 -0.0646  0.9878
  494MOL0     H65171   5.835   2.969   0.904  3.7222 -0.3349  1.4111
  494MOL0     H65172   5.327   2.997   0.678  2.0683 -0.1559  0.8677
  494MOL0     H65173   5.185   3.153   0.597 -0.2359 -1.8018 -1.5164
  494MOL0     H65174   5.318   3.512   0.359 -0.1259  0.4173 -2.2997
  494MOL0     H65175   5.148   3.499   0.334 -0.0955 -0.1936 -3.9959
  494MOL0     H65176   5.349   3.348   0.151  1.9731  2.2565 -2.0896
  494MOL0     H65177   5.306   3.518   0.137  1.7031 -1.8777 -0.2380
  494MOL0     H65178   5.133   3.279   0.060  0.4094 -0.2944 -3.4329
  494MOL0     H65179   5.183   3.423  -0.032 -2.4281  0.4676  0.0327
  494MOL0     H65180   4.974   3.447   0.183  0.2328  1.3026  0.5739
  494MOL0     H65181   5.052   3.573   0.083  1.8050 -0.6723 -0.0980
  494MOL0     H65182   4.941   3.308  -0.024 -0.0647  0.7604 -1.3076
  494MOL0     H65183   4.994   3.445  -0.120 -0.9962  3.8847  0.2752
  494MOL0     H65184   4.758   3.459   0.073  0.5049  2.6598  1.7156
  494MOL0     H65185   4.749   3.448  -0.106 -1.4461  2.9652 -0.4782
  494MOL0     H65186   4.838   3.702   0.034  2.8573  0.0712 -1.4950
  494MOL0     H65187   4.875   3.683  -0.131  1.0952  4.1850  2.3369
  494MOL0     H65188   4.649   3.801  -0.096  0.8174  0.0754 -0.6781
  494MOL0     H65189   4.591   3.670  -0.011 -1.8672 -1.6052 -2.5101
  494MOL0     H65190   5.482   3.282   0.315  0.3812 -0.1846  0.1119
  494MOL0     H65191   5.631   3.107   0.393 -0.6230 -0.6666 -0.1883
  494MOL0     H65192   5.631   2.686   0.661  0.1563  1.0307 -1.0589
  494MOL0     H65193   5.775   2.512   0.764 -1.7970  0.7611 -0.2610
  494MOL0     H65194   5.650   2.682   2.713 -0.8494 -0.2806 -4.1781
  494MOL0     H65195   5.561   2.667   2.942  1.0352  1.5045  0.7058
  494MOL0     H65196   5.310   2.708   3.276  3.0325  0.5989  2.4021
  494MOL0     H65197   5.219   2.645   3.517 -0.3020  2.4810 -1.5893
  494MOL0     H65198   5.243   2.522   3.688 -0.1220  1.2008  0.4400
  494MOL0     H65199   5.169   2.403   3.781  0.6732  2.4365  1.5069
  494MOL0     H65200   5.018   2.605   3.608 -1.2553  1.4906  0.2898
  494MOL0     H65201   4.947   2.487   3.736  0.3805 -0.8688 -2.4372
  494MOL0     H65202   5.062   2.758   3.764  1.1704 -0.4721  0.1115
  494MOL0     H65203   5.129   2.641   3.876  0.6382 -0.4814 -0.5259
  494MOL0     H65204   4.914   2.763   3.953  1.1183  0.9444 -0.9551
  494MOL0     H65205   4.831   2.689   3.817 -1.1973  0.2350  0.0801
  494MOL0     H65206   4.829   2.396   4.146  1.4721  1.7919  1.1928
  494MOL0     H65207   5.186   2.241   3.362  0.3660  0.2530 -1.0625
  494MOL0     H65208   5.279   2.300   3.152 -1.2990  0.3477  0.0220
  495MOL0     O65209   8.460   7.545   7.297 -0.5777 -0.1037  0.2772
  495MOL0     C65210   8.380   7.547   7.389 -0.2812  0.0890  0.5056
  495MOL0     O65211   8.396   7.610   7.512 -0.7615 -0.1097  0.3725
  495MOL0     C65212   8.523   7.666   7.542  0.7326 -0.5840 -0.0179
  495MOL0     C65213   8.529   7.802   7.583  0.3543 -0.3747 -0.5766
  495MOL0     C65214   8.655   7.856   7.622 -0.0397 -0.2124  0.0729
  495MOL0     C65215   8.766   7.770   7.636  0.3463  0.8839  0.2298
  495MOL0     O65216   8.887   7.820   7.664  0.2890 -0.9667 -0.1297
  495MOL0     C65217   8.966   7.850   7.554  0.7525  0.5914 -0.1780
  495MOL0     C65218   9.024   7.983   7.558 -0.4117 -0.1509  0.1001
  495MOL0     C65219   9.146   8.002   7.465 -0.7419  0.5331  0.5737
  495MOL0     C65220   9.094   7.988   7.311 -0.6065 -0.1247 -0.3007
  495MOL0     C65221   9.214   7.980   7.221 -0.1984 -0.4431  0.7058
  495MOL0     C65222   9.288   8.119   7.210  0.8989 -0.1801  0.5530
  495MOL0     C65223   9.392   8.106   7.094  0.3362  0.3574 -0.2225
  495MOL0     C65224   9.511   8.025   7.141  0.9238 -0.0295  0.1769
  495MOL0     N65225   9.629   8.063   7.080  0.2885  0.1645  0.2380
  495MOL0     C65226   9.657   8.043   6.951  0.3043 -0.0738  0.1886
  495MOL0     C65227   9.778   8.095   6.943 -0.4663 -0.3710 -0.1711
  495MOL0     C65228   9.860   8.093   6.813  0.6251  0.8350 -0.2861
  495MOL0     C65229   9.886   7.957   6.748  0.1665  0.1325  0.8703
  495MOL0     C65230   9.962   7.981   6.620  0.0731  0.7204 -0.3987
  495MOL0     C65231   9.918   7.896   6.497  1.0979  0.4497 -0.4005
  495MOL0     O65232   9.781   7.928   6.470 -0.3142 -0.0828  0.8124
  495MOL0     C65233   9.742   7.922   6.334  0.1937 -1.1267  0.2306
  495MOL0     C65234   9.658   8.020   6.284 -0.0572 -0.2505 -0.5915
  495MOL0     C65235   9.629   8.026   6.149  1.0416  0.0060 -0.3990
  495MOL0     C65236   9.677   7.937   6.054  0.2870  0.2981 -0.0106
  495MOL0     C65237   9.648   7.958   5.916  0.3318  0.2314 -0.4012
  495MOL0     O65238   9.633   8.093   5.877 -0.5378  0.0397 -0.1361
  495MOL0     C65239   9.573   8.125   5.761 -0.8722  0.2740  0.4270
  495MOL0     C65240   9.483   8.044   5.686  0.6348 -0.0240 -0.2751
  495MOL0     C65241   9.422   8.095   5.568  0.6101 -0.0850  0.1141
  495MOL0     C65242   9.447   8.230   5.525  0.3366 -0.7510  0.2217
  495MOL0     O65243   9.385   8.290   5.420 -0.8486  1.1445 -0.0371
  495MOL0     C65244   9.413   8.214   5.297 -0.6669  0.4019  0.6117
  495MOL0     C65245   9.298   8.165   5.230 -0.3995  0.2794  0.2358
  495MOL0     C65246   9.260   8.275   5.129  0.6632  0.3597 -1.3373
  495MOL0     C65247   9.140   8.227   5.056  0.7191 -0.1390 -0.1876
  495MOL0     C65248   9.081   8.330   4.962  0.2492 -0.2283 -0.0321
  495MOL0     C65249   8.969   8.287   4.877 -0.1541  0.0086 -0.0541
  495MOL0     C65250   8.898   8.401   4.795 -0.2170 -0.4478  0.4304
  495MOL0     C65251   8.825   8.512   4.879 -0.9419 -0.0199  0.5448
  495MOL0    Cl65252   8.713   8.626   4.777  0.0996  0.2257  0.0808
  495MOL0     C65253   9.533   8.302   5.611 -0.6442 -0.2234  0.8076
  495MOL0     C65254   9.595   8.257   5.727  0.6676 -0.2712  0.0256
  495MOL0     O65255   9.669   7.863   5.840 -0.5095 -0.0419  0.4903
  495MOL0     C65256   9.753   7.831   6.105  0.0659  0.0994  0.6614
  495MOL0     C65257   9.791   7.828   6.243  0.5922  1.0855  0.0008
  495MOL0     N65258   9.820   8.150   7.068 -0.1849  0.4103  0.6642
  495MOL0     N65259   9.724   8.140   7.146 -0.2464  0.6490 -0.5672
  495MOL0     C65260   8.748   7.637   7.610  0.8112  0.0922 -0.6290
  495MOL0     C65261   8.629   7.580   7.563 -0.4156  0.4239 -0.2725
  495MOL0     C65262   8.245   7.496   7.356  0.5945  0.0632  0.1378
  495MOL0     C65263   8.221   7.429   7.224  0.1646  0.4461  0.3498
  495MOL0     C65264   8.102   7.369   7.210  0.3425  0.9621 -0.2753
  495MOL0     C65265   7.993   7.359   7.305 -0.8972 -0.6576  0.4225
  495MOL0     O65266   7.872   7.292   7.297 -0.1331 -1.1573  0.4375
  495MOL0     C65267   7.832   7.246   7.168  0.0696  0.6703  0.5388
  495MOL0     C65268   7.673   7.230   7.173 -0.0921 -0.3813 -0.5708
  495MOL0     C65269   7.605   7.184   7.035 -0.2001  0.7165 -0.3199
  495MOL0     C65270   7.644   7.044   6.990  0.0213  0.3847  0.4026
  495MOL0     C65271   7.568   7.016   6.873 -0.3221  0.4339  1.5293
  495MOL0     C65272   7.504   6.988   6.777  0.2441 -0.4352 -0.0690
  495MOL0     C65273   8.023   7.428   7.420 -0.8605 -0.1083  0.4835
  495MOL0     C65274   8.142   7.486   7.449  0.4682  0.1232 -0.7559
  495MOL0     H65275   8.433   7.852   7.573  0.8323  0.7147  0.1169
  495MOL0     H65276   8.694   7.956   7.639  2.3054 -1.3882  2.2450
  495MOL0     H65277   8.908   7.840   7.462  1.0800  2.2155 -0.5915
  495MOL0     H65278   9.035   7.765   7.547 -1.0316 -0.7853 -2.5019
  495MOL0     H65279   9.058   8.001   7.660 -1.8518  2.9780  0.1186
  495MOL0     H65280   8.951   8.062   7.539 -0.8064 -0.9869 -2.1979
  495MOL0     H65281   9.223   7.928   7.489 -2.2976 -1.3860 -0.0260
  495MOL0     H65282   9.205   8.094   7.470  2.2920 -1.2191 -0.4651
  495MOL0     H65283   9.043   7.893   7.293 -0.6901  0.3968 -3.4782
  495MOL0     H65284   9.023   8.069   7.293 -0.5897  0.4077  1.7441
  495MOL0     H65285   9.165   7.962   7.125 -3.1463  1.7722  1.6281
  495MOL0     H65286   9.280   7.896   7.243 -0.0409 -0.9269 -1.4535
  495MOL0     H65287   9.335   8.141   7.306  1.5604 -0.5781  0.3349
  495MOL0     H65288   9.218   8.199   7.187 -2.6532 -3.2312 -0.3740
  495MOL0     H65289   9.345   8.070   7.003  3.4413 -1.4047 -1.2832
  495MOL0     H65290   9.431   8.207   7.075 -0.7321  1.0652  1.1404
  495MOL0     H65291   9.508   7.916   7.128 -0.9056 -0.1175  1.0238
  495MOL0     H65292   9.519   8.037   7.249  2.5059  0.3691  0.0411
  495MOL0     H65293   9.595   8.005   6.872  0.1958  0.6871 -0.1053
  495MOL0     H65294   9.960   8.134   6.830  0.3551  2.6831 -2.6923
  495MOL0     H65295   9.794   8.151   6.748 -5.5176 -5.1638 -0.5019
  495MOL0     H65296   9.789   7.916   6.718 -0.2121  1.2723  0.4678
  495MOL0     H65297   9.936   7.886   6.815  0.0085 -0.8959 -0.0718
  495MOL0     H65298   9.959   8.087   6.593 -1.6953  0.1416 -2.8224
  495MOL0     H65299  10.064   7.958   6.652 -0.9269 -0.5108  2.1849
  495MOL0     H65300   9.925   7.788   6.509  1.7325  0.6035  0.6998
  495MOL0     H65301   9.976   7.931   6.412  1.8929 -1.3314 -0.6314
  495MOL0     H65302   9.605   8.087   6.350 -0.4388 -0.7274 -0.4134
  495MOL0     H65303   9.566   8.109   6.121 -0.7622 -1.0656  0.3252
  495MOL0     H65304   9.465   7.949   5.735 -0.4225  0.3919  0.1688
  495MOL0     H65305   9.342   8.047   5.513 -1.2447  1.0185  1.7243
  495MOL0     H65306   9.479   8.129   5.318  1.6934  1.9010 -0.3531
  495MOL0     H65307   9.472   8.271   5.226 -0.2096  0.9245  1.3966
  495MOL0     H65308   9.214   8.142   5.297 -0.4174 -1.5657 -0.3702
  495MOL0     H65309   9.330   8.073   5.180 -1.9512 -0.7773  1.0658
  495MOL0     H65310   9.343   8.299   5.062 -0.4494  0.3435 -2.7749
  495MOL0     H65311   9.223   8.357   5.190 -1.5862  0.8059 -3.1465
  495MOL0     H65312   9.152   8.141   4.990  0.1275  0.0518 -0.5483
  495MOL0     H65313   9.063   8.208   5.132  0.3487 -1.2463 -0.8241
  495MOL0     H65314   9.162   8.377   4.906 -0.0622  0.8665  0.4070
  495MOL0     H65315   9.039   8.412   5.021  0.4283  2.0719 -2.8550
  495MOL0     H65316   8.881   8.257   4.934  1.3280 -1.7881  1.4439
  495MOL0     H65317   8.993   8.211   4.802 -0.7176 -1.8098  1.5233
  495MOL0     H65318   8.974   8.457   4.738  1.1819  1.2409  3.6704
  495MOL0     H65319   8.827   8.361   4.722  1.3638 -0.5845 -1.0991
  495MOL0     H65320   8.908   8.572   4.916  0.1019  0.8766 -2.9039
  495MOL0     H65321   8.773   8.456   4.957  1.6623 -1.2665  1.5300
  495MOL0     H65322   9.559   8.401   5.575 -2.4542  0.1908  0.5164
  495MOL0     H65323   9.669   8.318   5.778  0.1960  0.5278 -0.2334
  495MOL0     H65324   9.787   7.751   6.041  1.5265  0.5590  0.8086
  495MOL0     H65325   9.839   7.741   6.286 -1.2275 -0.0933 -0.2656
  495MOL0     H65326   8.838   7.579   7.626  1.4071  0.8854 -1.0323
  495MOL0     H65327   8.636   7.473   7.545  4.1948  0.6753 -1.2668
  495MOL0     H65328   8.296   7.439   7.146  1.9757  2.1195  2.1555
  495MOL0     H65329   8.081   7.325   7.113  1.4364  1.5826 -0.8087
  495MOL0     H65330   7.884   7.150   7.155  0.0785  0.4367  2.0366
  495MOL0     H65331   7.859   7.306   7.081 -1.5205 -0.7689 -1.0528
  495MOL0     H65332   7.643   7.162   7.253 -0.7580 -0.3271 -0.7677
  495MOL0     H65333   7.632   7.328   7.200  1.7926  0.1294  0.6136
  495MOL0     H65334   7.618   7.266   6.963 -0.6847  2.2555  1.2810
  495MOL0     H65335   7.497   7.181   7.056  0.3580  2.5841  3.6230
  495MOL0     H65336   7.750   7.056   6.963  1.1202 -1.1585  3.5009
  495MOL0     H65337   7.650   6.964   7.064  0.9224  0.3945  0.3550
  495MOL0     H65338   7.435   6.976   6.695  0.2963 -2.1939  0.0931
  495MOL0     H65339   7.951   7.443   7.501  2.2227  3.0365  2.9647
  495MOL0     H65340   8.153   7.542   7.542  2.1604 -1.6385  0.1756
  496MOL0     O65341   7.472   8.997   5.806 -1.3436  0.1157 -0.4066
  496MOL0     C65342   7.443   8.933   5.910  0.0589 -0.2612  1.0568
  496MOL0     O65343   7.325   8.862   5.930 -0.1825 -0.0515  0.4197
  496MOL0     C65344   7.234   8.850   5.828 -0.1103  0.1532 -0.5500
  496MOL0     C65345   7.275   8.822   5.695 -0.5544 -0.2969  1.2665
  496MOL0     C65346   7.188   8.799   5.594  0.2979 -0.4012  0.2554
  496MOL0     C65347   7.048   8.795   5.623  0.0055  0.6471  0.0071
  496MOL0     O65348   6.966   8.776   5.514  0.2809 -0.4398 -0.4418
  496MOL0     C65349   6.822   8.780   5.542  0.5797  0.0989  0.4090
  496MOL0     C65350   6.759   8.749   5.407  1.5983 -0.3697  0.3714
  496MOL0     C65351   6.602   8.729   5.402 -0.2862 -0.4479  0.6157
  496MOL0     C65352   6.553   8.717   5.254  0.0876 -0.3872 -0.2980
  496MOL0     C65353   6.398   8.705   5.234 -0.0490 -0.2349  0.0826
  496MOL0     C65354   6.336   8.568   5.270  0.0326  0.1051  0.6551
  496MOL0     C65355   6.187   8.555   5.235 -0.7739  0.2963  0.0495
  496MOL0     C65356   6.134   8.425   5.289 -0.4801  1.3867 -0.0404
  496MOL0     N65357   6.025   8.370   5.202  0.1963 -0.7887 -0.2752
  496MOL0     C65358   6.035   8.339   5.066  0.5159  0.5248  0.1796
  496MOL0     C65359   5.911   8.290   5.032  0.2286  0.7808  0.5067
  496MOL0     C65360   5.865   8.218   4.913  0.4738 -0.2255 -0.5271
  496MOL0     C65361   5.810   8.312   4.818 -0.0869  0.2153 -0.2566
  496MOL0     C65362   5.740   8.231   4.710  0.5101 -0.0255  0.7963
  496MOL0     C65363   5.707   8.313   4.582 -0.1501 -0.0604  0.0128
  496MOL0     O65364   5.653   8.215   4.483 -0.6308  0.0782  0.8366
  496MOL0     C65365   5.614   8.252   4.356 -0.8936 -0.5807 -0.9456
  496MOL0     C65366   5.594   8.391   4.321  0.2858 -0.8672 -0.5965
  496MOL0     C65367   5.569   8.419   4.189 -0.3009 -0.4296 -0.0690
  496MOL0     C65368   5.573   8.312   4.089 -0.0191  0.2304  0.0036
  496MOL0     C65369   5.551   8.363   3.948 -1.2518  0.8077  1.5706
  496MOL0     O65370   5.464   8.299   3.861  0.7169 -0.2890  0.1200
  496MOL0     C65371   5.426   8.351   3.738  0.1659  0.9150 -0.1151
  496MOL0     C65372   5.470   8.468   3.676  0.3051  0.4798 -0.3500
  496MOL0     C65373   5.423   8.493   3.545 -0.1045 -0.4811  0.0036
  496MOL0     C65374   5.334   8.406   3.472 -0.7830 -0.0759  0.2442
  496MOL0     O65375   5.296   8.454   3.342 -0.7590  0.1864  0.2120
  496MOL0     C65376   5.240   8.353   3.253 -1.2457  0.5946 -0.2657
  496MOL0     C65377   5.082   8.356   3.262  0.6930 -0.4344 -0.1456
  496MOL0     C65378   5.006   8.249   3.176 -0.4690 -0.3165  0.2215
  496MOL0     C65379   4.863   8.279   3.157  0.2117 -0.0897  0.2094
  496MOL0     C65380   4.788   8.184   3.067  1.0526  0.1494 -0.0726
  496MOL0     C65381   4.842   8.177   2.921 -1.4043 -0.1247 -0.2311
  496MOL0     C65382   4.742   8.106   2.842 -0.8707  0.1613  0.3779
  496MOL0     C65383   4.686   8.195   2.727  0.3831  0.7573  0.5601
  496MOL0    Cl65384   4.546   8.117   2.629 -0.2746  0.3024  0.4916
  496MOL0     C65385   5.288   8.294   3.539 -0.4735  1.3981 -0.2769
  496MOL0     C65386   5.331   8.269   3.671 -1.1707  0.3040  0.9402
  496MOL0     O65387   5.623   8.462   3.915 -0.1070  0.7975 -0.0781
  496MOL0     C65388   5.571   8.181   4.125 -0.7364  1.1157  0.0783
  496MOL0     C65389   5.597   8.156   4.262 -0.5145 -0.4596  0.0245
  496MOL0     N65390   5.822   8.300   5.142 -0.7106 -0.0259 -0.1100
  496MOL0     N65391   5.898   8.349   5.246  0.4676 -0.1263  0.4776
  496MOL0     C65392   7.014   8.818   5.757  1.5120 -0.0909  0.1839
  496MOL0     C65393   7.103   8.843   5.855  0.5573  0.5476 -0.7796
  496MOL0     C65394   7.536   8.948   6.025  0.2166 -0.9678  0.0146
  496MOL0     C65395   7.654   9.027   6.019  0.0649 -0.4435  0.1087
  496MOL0     C65396   7.738   9.040   6.131 -0.2192 -0.5161 -0.7799
  496MOL0     C65397   7.710   8.985   6.256  0.7043 -0.6699  0.6545
  496MOL0     O65398   7.795   9.015   6.352  0.1683 -0.6739 -0.0856
  496MOL0     C65399   7.791   8.954   6.478 -0.3212  0.1503  0.4942
  496MOL0     C65400   7.933   8.950   6.538 -0.3218  0.4028  0.1587
  496MOL0     C65401   7.910   9.026   6.673 -0.3296  0.4105  0.0675
  496MOL0     C65402   7.891   9.178   6.643 -0.0009  0.7683  0.9746
  496MOL0     C65403   7.949   9.257   6.745  0.1852 -0.8594 -0.6249
  496MOL0     C65404   8.001   9.337   6.827  0.2845 -0.0211 -0.3704
  496MOL0     C65405   7.596   8.908   6.266  0.7660 -0.0465  0.0940
  496MOL0     C65406   7.512   8.900   6.157  0.0602  0.0168  0.1957
  496MOL0     H65407   7.379   8.796   5.676 -1.1697 -2.0073 -0.1158
  496MOL0     H65408   7.234   8.789   5.496 -3.1833 -2.5765 -1.3538
  496MOL0     H65409   6.787   8.876   5.581 -0.5693  0.3528 -1.1392
  496MOL0     H65410   6.799   8.709   5.621  0.6796  0.4388  0.7468
  496MOL0     H65411   6.808   8.664   5.358  3.0989  1.0331 -0.6794
  496MOL0     H65412   6.772   8.840   5.346 -3.0545  2.3863  2.9274
  496MOL0     H65413   6.558   8.808   5.463  2.6108 -0.8742  3.6036
  496MOL0     H65414   6.590   8.637   5.461 -1.2986  0.4431  1.8534
  496MOL0     H65415   6.591   8.803   5.198 -1.0987  0.6676  0.4849
  496MOL0     H65416   6.602   8.636   5.200  2.2770  2.3219 -2.7073
  496MOL0     H65417   6.364   8.727   5.132  0.7182  0.3882 -0.0382
  496MOL0     H65418   6.337   8.765   5.301  0.5985  0.1872  0.2979
  496MOL0     H65419   6.350   8.534   5.373  1.0325 -0.5074  0.3358
  496MOL0     H65420   6.394   8.501   5.204 -0.4015  0.4845 -0.1212
  496MOL0     H65421   6.134   8.635   5.287  0.1708  0.7979  0.2616
  496MOL0     H65422   6.182   8.549   5.126  1.3379 -5.3364 -0.0665
  496MOL0     H65423   6.090   8.438   5.388 -3.8697 -1.8170 -0.8861
  496MOL0     H65424   6.221   8.359   5.300 -0.4549  1.0283 -1.9918
  496MOL0     H65425   6.122   8.345   5.002  0.5693 -1.9098 -0.0583
  496MOL0     H65426   5.790   8.141   4.936  1.1417 -0.9861 -0.8268
  496MOL0     H65427   5.950   8.161   4.874 -0.6157 -0.1755 -3.1636
  496MOL0     H65428   5.897   8.364   4.776  0.0080  0.9592  0.8099
  496MOL0     H65429   5.743   8.381   4.871 -0.5472 -1.1621  1.0311
  496MOL0     H65430   5.809   8.150   4.683 -0.4756 -1.2578  1.8517
  496MOL0     H65431   5.647   8.188   4.750 -0.8268  2.2040  0.2646
  496MOL0     H65432   5.797   8.363   4.546 -1.2591 -0.1018 -3.0973
  496MOL0     H65433   5.634   8.387   4.614 -2.2881 -2.8193  2.0173
  496MOL0     H65434   5.588   8.470   4.396 -0.3915  0.6601 -2.1884
  496MOL0     H65435   5.561   8.526   4.173  0.0010 -0.1485  1.5118
  496MOL0     H65436   5.550   8.537   3.703 -0.6146  0.8544  1.6104
  496MOL0     H65437   5.465   8.566   3.477  1.1957 -2.2935 -1.2073
  496MOL0     H65438   5.268   8.250   3.273  1.2740  0.5494 -3.3275
  496MOL0     H65439   5.268   8.371   3.149 -2.3016 -2.1360 -1.1123
  496MOL0     H65440   5.050   8.459   3.243  0.3734 -0.3388  0.8255
  496MOL0     H65441   5.046   8.324   3.360  1.4693 -0.8985 -0.0092
  496MOL0     H65442   5.018   8.151   3.221  0.0827 -1.3236 -1.9710
  496MOL0     H65443   5.059   8.232   3.082  2.9081  2.0846  1.4793
  496MOL0     H65444   4.823   8.285   3.258  1.3429  1.8847  0.5806
  496MOL0     H65445   4.848   8.381   3.120 -0.8411 -1.1147 -2.5194
  496MOL0     H65446   4.682   8.212   3.067  1.0070  0.0167 -0.7970
  496MOL0     H65447   4.803   8.080   3.098  1.3743  0.0851 -0.4353
  496MOL0     H65448   4.939   8.126   2.926 -3.1277 -3.5721  1.2260
  496MOL0     H65449   4.861   8.274   2.875  1.0113 -0.7293 -0.6469
  496MOL0     H65450   4.802   8.032   2.788 -2.0402  1.1598 -2.4934
  496MOL0     H65451   4.660   8.060   2.899  0.6890 -3.8460 -0.2499
  496MOL0     H65452   4.774   8.220   2.666  0.2930  0.5682  0.3516
  496MOL0     H65453   4.637   8.285   2.765  0.0685  1.4366 -1.3336
  496MOL0     H65454   5.220   8.225   3.492 -0.1874 -0.1729  1.4747
  496MOL0     H65455   5.274   8.190   3.721 -2.6233  0.3550 -0.5466
  496MOL0     H65456   5.566   8.100   4.053 -1.0388 -0.0459  1.3504
  496MOL0     H65457   5.605   8.052   4.293  0.9624 -0.6223 -0.8119
  496MOL0     H65458   6.910   8.811   5.785  2.4118 -0.3886  3.9633
  496MOL0     H65459   7.082   8.858   5.961  0.7874 -3.2776 -0.0615
  496MOL0     H65460   7.673   9.077   5.925  1.5874  1.9238  1.5807
  496MOL0     H65461   7.828   9.100   6.127  0.1935 -1.1877 -1.7591
  496MOL0     H65462   7.759   8.851   6.459 -0.2198  0.0747  0.7368
  496MOL0     H65463   7.719   9.005   6.543  0.4056  0.2227  1.2648
  496MOL0     H65464   7.960   8.846   6.556 -1.2951  0.4170  1.9406
  496MOL0     H65465   8.012   8.995   6.477  0.0256 -0.9760 -0.4527
  496MOL0     H65466   8.007   9.012   6.721 -0.7164  0.5337  0.8935
  496MOL0     H65467   7.832   8.991   6.741  1.5635 -0.0439  2.1126
  496MOL0     H65468   7.915   9.210   6.542 -4.1015  0.1439 -0.4105
  496MOL0     H65469   7.785   9.202   6.657 -0.6739 -2.3056  1.8148
  496MOL0     H65470   8.066   9.401   6.883 -3.0521  2.4917  0.9605
  496MOL0     H65471   7.563   8.862   6.359  2.2802 -1.6243 -0.0942
  496MOL0     H65472   7.422   8.845   6.182 -0.5628  0.8095 -0.2689
  497MOL0     O65473  10.152   4.433  10.045  0.3606 -0.7163  0.4163
  497MOL0     C65474  10.191   4.390  10.157  0.3099 -0.2644 -0.4806
  497MOL0     O65475  10.171   4.455  10.274  0.1597  1.1435  0.3540
  497MOL0     C65476  10.084   4.552  10.288  0.4282 -0.8044 -0.0968
  497MOL0     C65477  10.131   4.682  10.333  0.4503  0.6106 -0.1592
  497MOL0     C65478  10.039   4.785  10.338  0.1565  0.8215 -0.4967
  497MOL0     C65479   9.903   4.760  10.313 -0.2446  0.9152 -0.3875
  497MOL0     O65480   9.809   4.862  10.311  0.1704  0.7693 -0.0355
  497MOL0     C65481   9.857   4.994  10.332  0.9257 -0.5492  0.2613
  497MOL0     C65482   9.751   5.095  10.345  0.1217  0.0490  0.0786
  497MOL0     C65483   9.777   5.239  10.299 -0.0244 -0.2125 -0.7243
  497MOL0     C65484   9.765   5.282  10.150  0.2707  0.2725  0.8149
  497MOL0     C65485   9.810   5.421  10.125 -0.7229 -0.0771 -0.3196
  497MOL0     C65486   9.854   5.426   9.980 -0.1126  0.0686 -0.1804
  497MOL0     C65487   9.731   5.427   9.888  0.4037 -0.6503  0.5351
  497MOL0     C65488   9.762   5.471   9.747 -0.8876 -0.2785  0.5586
  497MOL0     N65489   9.647   5.469   9.656  0.2622 -0.4316 -0.2617
  497MOL0     C65490   9.558   5.373   9.622  0.5889  0.7256 -0.1865
  497MOL0     C65491   9.484   5.426   9.519  0.5343  0.7109 -0.5717
  497MOL0     C65492   9.382   5.353   9.447  0.5700  0.1261  0.4405
  497MOL0     C65493   9.431   5.340   9.303  0.8207 -0.0010  0.0716
  497MOL0     C65494   9.315   5.280   9.213  0.4509 -0.0850 -0.6759
  497MOL0     C65495   9.252   5.134   9.266  0.2620  0.5257  0.3508
  497MOL0     O65496   9.360   5.049   9.315 -0.5779 -0.0229 -0.0251
  497MOL0     C65497   9.483   5.042   9.250 -0.0703 -1.1347 -0.1425
  497MOL0     C65498   9.600   5.037   9.327 -0.0817  0.1831 -0.1740
  497MOL0     C65499   9.721   5.016   9.273 -1.3760 -0.3946  0.5043
  497MOL0     C65500   9.732   5.006   9.131 -1.1058 -0.0180  0.9500
  497MOL0     C65501   9.868   4.984   9.072 -0.5202 -0.6023  0.0873
  497MOL0     O65502   9.875   4.988   8.936  0.0056  0.2816  0.4164
  497MOL0     C65503   9.990   4.974   8.867  0.0360 -0.2076  0.0174
  497MOL0     C65504  10.092   4.880   8.884 -0.7274  0.1998 -0.6709
  497MOL0     C65505  10.198   4.865   8.795  0.3151  0.6612  1.0188
  497MOL0     C65506  10.232   4.963   8.694 -0.4275 -0.4492  0.3914
  497MOL0     O65507  10.358   4.957   8.629 -0.5273  0.6186  0.3558
  497MOL0     C65508  10.394   5.063   8.544 -0.9492 -0.9150 -0.5185
  497MOL0     C65509  10.378   5.033   8.396 -0.4261  0.1096  0.4820
  497MOL0     C65510  10.466   4.916   8.350  0.6342  0.2779 -0.3925
  497MOL0     C65511  10.375   4.789   8.345 -0.3265 -0.0218 -0.8577
  497MOL0     C65512  10.459   4.665   8.311 -0.6389 -0.1202 -0.4566
  497MOL0     C65513  10.560   4.627   8.421 -0.0080  0.7786  0.8707
  497MOL0     C65514  10.629   4.496   8.414  0.1370  0.1348  0.6112
  497MOL0     C65515  10.716   4.463   8.288 -0.0368  0.9456 -0.0448
  497MOL0    Cl65516  10.869   4.397   8.331 -0.2266 -0.1109 -0.4896
  497MOL0     C65517  10.121   5.054   8.671 -0.4329  0.0356  0.2507
  497MOL0     C65518  10.015   5.074   8.763 -0.9169  0.9207 -1.4241
  497MOL0     O65519   9.963   4.962   9.142  0.4428  0.2120  0.0550
  497MOL0     C65520   9.621   5.020   9.054  0.2278  0.3594 -0.4658
  497MOL0     C65521   9.490   5.032   9.111  0.3952 -1.1151  0.3672
  497MOL0     N65522   9.525   5.554   9.495  0.3427 -0.1824 -0.7233
  497MOL0     N65523   9.612   5.579   9.582 -0.1980 -0.3121 -0.8231
  497MOL0     C65524   9.861   4.629  10.288  0.7543  0.1611  0.7688
  497MOL0     C65525   9.943   4.525  10.263  0.1638 -0.7858 -0.5506
  497MOL0     C65526  10.286   4.283  10.149  0.7791  0.3932 -0.3193
  497MOL0     C65527  10.346   4.232  10.263 -0.2813  0.0503 -0.5752
  497MOL0     C65528  10.448   4.138  10.253  0.7780  0.7020 -0.3663
  497MOL0     C65529  10.487   4.086  10.132 -0.7385 -0.2225 -0.3402
  497MOL0     O65530  10.592   4.002  10.133 -0.2478  0.2365 -0.1743
  497MOL0     C65531  10.607   3.902  10.033 -0.1979 -0.5770 -0.7136
  497MOL0     C65532  10.696   3.951   9.915  0.1306  0.8414  0.9873
  497MOL0     C65533  10.726   3.836   9.822  0.6859  0.9771 -0.4149
  497MOL0     C65534  10.868   3.772   9.848 -0.0499 -0.7323  0.4253
  497MOL0     C65535  10.885   3.683   9.964  0.6456 -0.3868 -0.0371
  497MOL0     C65536  10.884   3.610  10.062  0.1861  0.4440  0.0307
  497MOL0     C65537  10.424   4.128  10.015  0.0818  0.5270 -0.0871
  497MOL0     C65538  10.324   4.223  10.027  0.6130 -0.2368  0.7260
  497MOL0     H65539  10.237   4.699  10.349  0.5008 -0.5940  0.8911
  497MOL0     H65540  10.073   4.887  10.359 -0.8456  0.5177  3.5163
  497MOL0     H65541   9.931   5.020  10.255 -0.4671  0.6471 -0.7138
  497MOL0     H65542   9.917   5.020  10.420 -1.3903  2.5048  1.1189
  497MOL0     H65543   9.714   5.096  10.447 -2.2330 -0.3622 -0.7151
  497MOL0     H65544   9.664   5.058  10.290 -1.3677  0.9994  1.7068
  497MOL0     H65545   9.878   5.260  10.334  0.0391 -2.6193  0.7939
  497MOL0     H65546   9.702   5.301  10.350 -1.5757  1.3930 -4.5726
  497MOL0     H65547   9.813   5.210  10.083 -0.9764  0.2419 -0.0890
  497MOL0     H65548   9.658   5.275  10.130  0.1681  1.1404  0.9896
  497MOL0     H65549   9.908   5.436  10.171 -0.6265  0.6419 -0.7552
  497MOL0     H65550   9.740   5.503  10.141 -1.8685 -0.9684 -0.5626
  497MOL0     H65551   9.919   5.340   9.959  1.1341  1.0458 -0.4244
  497MOL0     H65552   9.921   5.512   9.972  0.4431 -0.2454  0.8698
  497MOL0     H65553   9.709   5.321   9.877  2.4810 -0.9792 -1.2322
  497MOL0     H65554   9.639   5.477   9.921 -0.1563 -1.5846  0.4123
  497MOL0     H65555   9.835   5.408   9.695 -0.6778  0.2208  0.2381
  497MOL0     H65556   9.818   5.565   9.748 -0.1070 -0.6841  3.0485
  497MOL0     H65557   9.560   5.274   9.666 -0.9921  0.8064  0.1437
  497MOL0     H65558   9.290   5.413   9.448  0.8254  0.7043 -2.4757
  497MOL0     H65559   9.361   5.259   9.498  0.8552  0.2873  0.8524
  497MOL0     H65560   9.523   5.282   9.294  0.1882 -0.9905 -0.0739
  497MOL0     H65561   9.443   5.441   9.261  3.4281  0.5897  2.0093
  497MOL0     H65562   9.233   5.352   9.213 -0.3202 -0.9231  0.3251
  497MOL0     H65563   9.367   5.279   9.117  1.5653 -1.9575 -0.1195
  497MOL0     H65564   9.198   5.094   9.179  1.4055  3.8605 -2.0957
  497MOL0     H65565   9.174   5.167   9.335 -0.5120  0.5060 -0.4863
  497MOL0     H65566   9.578   5.057   9.431 -0.8146 -0.1004 -0.2651
  497MOL0     H65567   9.811   5.007   9.334 -1.2742  1.8587  0.7580
  497MOL0     H65568  10.082   4.806   8.962 -1.4947 -0.5354 -1.4411
  497MOL0     H65569  10.281   4.798   8.815  0.6214  1.0978  1.2246
  497MOL0     H65570  10.499   5.084   8.563 -1.3299  2.2807 -1.2753
  497MOL0     H65571  10.346   5.156   8.578  1.6838  0.9522 -1.5246
  497MOL0     H65572  10.399   5.129   8.347 -0.5471  1.5191  2.9935
  497MOL0     H65573  10.271   5.012   8.387  0.1415 -3.3599  0.6333
  497MOL0     H65574  10.552   4.905   8.417 -1.2345  0.1653  2.1152
  497MOL0     H65575  10.506   4.947   8.252 -0.4048  0.1715 -0.8559
  497MOL0     H65576  10.309   4.782   8.431 -0.3715  1.5160 -0.7283
  497MOL0     H65577  10.300   4.787   8.265 -1.5127  0.6539  0.2078
  497MOL0     H65578  10.510   4.669   8.214  1.8115 -2.4761  0.6055
  497MOL0     H65579  10.381   4.590   8.294 -2.4977  1.4849  0.6221
  497MOL0     H65580  10.499   4.622   8.512  0.0679  0.1878  0.8956
  497MOL0     H65581  10.634   4.705   8.441 -0.7012  1.1272  2.1787
  497MOL0     H65582  10.689   4.502   8.506  0.3124 -0.7714  0.5604
  497MOL0     H65583  10.556   4.415   8.425  2.6186 -2.1437  1.3429
  497MOL0     H65584  10.732   4.553   8.228 -0.2262  1.0570  0.0716
  497MOL0     H65585  10.661   4.385   8.234  0.3342  0.5785  0.1056
  497MOL0     H65586  10.127   5.134   8.598  2.4801  2.5717  2.9535
  497MOL0     H65587   9.935   5.148   8.765 -1.1185  0.7555  1.6873
  497MOL0     H65588   9.625   5.010   8.946  3.8526  0.3714 -0.4657
  497MOL0     H65589   9.399   5.026   9.052  0.2621 -2.3749  0.6740
  497MOL0     H65590   9.760   4.614  10.252  1.1115 -0.8392  0.1548
  497MOL0     H65591   9.909   4.430  10.222 -1.7860  0.1918 -1.3328
  497MOL0     H65592  10.308   4.271  10.357 -0.2846 -0.5727 -0.3160
  497MOL0     H65593  10.486   4.105  10.349 -0.3795  0.8449  0.1516
  497MOL0     H65594  10.515   3.876   9.979 -0.8266  0.5878 -0.2486
  497MOL0     H65595  10.657   3.818  10.082  1.8880  1.4267  0.8006
  497MOL0     H65596  10.641   4.030   9.864  1.5685  0.3502 -1.4476
  497MOL0     H65597  10.794   3.991   9.942  0.0482 -0.2887  3.2792
  497MOL0     H65598  10.716   3.863   9.716  4.3598  4.3798 -0.1564
  497MOL0     H65599  10.647   3.763   9.836  1.0047  0.6015 -0.5503
  497MOL0     H65600  10.885   3.704   9.764 -0.6224 -3.8429  2.6282
  497MOL0     H65601  10.950   3.844   9.850 -2.1201  1.7451  1.0454
  497MOL0     H65602  10.883   3.547  10.149 -5.4796 -1.9219 -1.3173
  497MOL0     H65603  10.443   4.086   9.917 -6.0392 -4.7487  0.2827
  497MOL0     H65604  10.278   4.241   9.930  0.0538 -1.7828  0.6738
  498MOL0     O65605   2.934   1.457   0.048  0.0298  0.4709 -0.0713
  498MOL0     C65606   2.823   1.436   0.099 -1.4362 -0.3019 -0.1299
  498MOL0     O65607   2.747   1.540   0.141 -0.0760  1.0329  0.0501
  498MOL0     C65608   2.760   1.668   0.112 -0.4488  0.3694 -0.6495
  498MOL0     C65609   2.708   1.759   0.202 -0.1673 -0.5678  0.4707
  498MOL0     C65610   2.733   1.900   0.197  0.3501  0.2660 -1.5577
  498MOL0     C65611   2.806   1.943   0.090  0.2182 -0.6321 -0.0314
  498MOL0     O65612   2.808   2.079   0.057 -0.2147 -0.0605 -0.0867
  498MOL0     C65613   2.792   2.177   0.159 -0.1046 -0.2218  0.1719
  498MOL0     C65614   2.653   2.227   0.174 -0.0730 -0.0036 -0.9873
  498MOL0     C65615   2.642   2.330   0.292  0.1928 -0.5732  0.2405
  498MOL0     C65616   2.494   2.363   0.313 -1.5722 -0.6417 -0.8294
  498MOL0     C65617   2.477   2.494   0.393  1.4022 -0.6311 -0.5410
  498MOL0     C65618   2.572   2.519   0.513  0.1558 -0.8010  1.0928
  498MOL0     C65619   2.548   2.648   0.589 -1.3297 -0.5991  0.4923
  498MOL0     C65620   2.665   2.670   0.694 -0.7709 -0.5400  1.8948
  498MOL0     N65621   2.617   2.682   0.835  0.7991 -0.6423  0.9219
  498MOL0     C65622   2.532   2.774   0.882 -0.1316  0.4606  0.3604
  498MOL0     C65623   2.524   2.757   1.016  0.5841  0.2679 -0.5308
  498MOL0     C65624   2.462   2.860   1.109 -0.1389  0.2001 -0.2008
  498MOL0     C65625   2.463   2.817   1.257 -0.0195 -0.2958  0.4123
  498MOL0     C65626   2.398   2.913   1.337  0.2860 -0.1600 -0.4080
  498MOL0     C65627   2.345   2.846   1.474  0.2302 -1.0487 -0.1302
  498MOL0     O65628   2.256   2.935   1.537 -0.1040 -0.0184 -0.6556
  498MOL0     C65629   2.270   2.956   1.676 -0.7828 -0.1552 -0.1392
  498MOL0     C65630   2.264   3.089   1.709  0.2888 -0.8826 -0.3061
  498MOL0     C65631   2.290   3.133   1.841  0.3151  0.1265  0.1980
  498MOL0     C65632   2.307   3.036   1.939  0.6978 -0.1696 -0.5056
  498MOL0     C65633   2.340   3.079   2.085  0.9720 -0.7740 -0.3168
  498MOL0     O65634   2.283   3.200   2.124 -0.8555 -0.7032  0.3105
  498MOL0     C65635   2.289   3.263   2.249  0.6798  0.8097 -0.2574
  498MOL0     C65636   2.380   3.375   2.257 -0.0639  0.6149  0.1053
  498MOL0     C65637   2.383   3.446   2.373 -0.7714  0.1879 -0.0234
  498MOL0     C65638   2.312   3.400   2.484  0.6912  0.5056 -0.1749
  498MOL0     O65639   2.341   3.459   2.603  0.0363 -0.4395  0.5834
  498MOL0     C65640   2.269   3.430   2.725  0.7062 -0.3381 -0.3079
  498MOL0     C65641   2.329   3.527   2.827  0.4291  0.3899 -0.5585
  498MOL0     C65642   2.335   3.675   2.781 -0.1137 -1.5210  0.0173
  498MOL0     C65643   2.208   3.749   2.775 -0.1887 -0.4971  0.2019
  498MOL0     C65644   2.237   3.901   2.732 -0.2174 -1.1733  0.1222
  498MOL0     C65645   2.105   3.969   2.709  0.1901 -0.1158  0.1215
  498MOL0     C65646   2.031   3.984   2.852  0.2450  0.0925 -0.1919
  498MOL0     C65647   1.887   3.949   2.837 -0.0286 -0.0881 -0.8057
  498MOL0    Cl65648   1.767   3.983   2.986  0.6119 -0.2689  0.2352
  498MOL0     C65649   2.237   3.281   2.475  0.3798 -0.2348  0.0360
  498MOL0     C65650   2.213   3.219   2.352 -0.2611  0.4704 -0.7947
  498MOL0     O65651   2.414   3.010   2.150  0.3299 -0.9025  0.0025
  498MOL0     C65652   2.318   2.904   1.907 -0.3317  0.1898  0.0218
  498MOL0     C65653   2.305   2.855   1.777 -0.1965 -0.7131  0.3736
  498MOL0     N65654   2.600   2.647   1.050  0.2715  0.1216  1.2001
  498MOL0     N65655   2.645   2.603   0.933  0.2266  1.0308  0.4080
  498MOL0     C65656   2.846   1.856  -0.016 -0.5099 -0.2471  0.6782
  498MOL0     C65657   2.826   1.713   0.006 -1.0010  0.0757 -0.2416
  498MOL0     C65658   2.784   1.298   0.150  0.5496  0.8954 -0.4134
  498MOL0     C65659   2.650   1.280   0.188  0.7522  0.3108  0.1165
  498MOL0     C65660   2.613   1.152   0.234 -1.1363 -0.3604  0.0268
  498MOL0     C65661   2.700   1.046   0.246  1.0540  0.6594  0.0581
  498MOL0     O65662   2.655   0.913   0.271 -0.4148 -0.2063 -0.6694
  498MOL0     C65663   2.720   0.853   0.391 -0.4897  0.1303 -0.0780
  498MOL0     C65664   2.628   0.755   0.474  1.1016  0.3824 -0.1423
  498MOL0     C65665   2.500   0.816   0.520  0.5854  0.4223  0.3627
  498MOL0     C65666   2.418   0.723   0.621  0.3419  0.6762  0.7746
  498MOL0     C65667   2.494   0.706   0.742  0.2866 -0.0205 -0.2341
  498MOL0     C65668   2.550   0.695   0.847  0.2907 -1.4970 -0.3014
  498MOL0     C65669   2.832   1.068   0.222  0.2019 -0.3064 -0.2533
  498MOL0     C65670   2.875   1.192   0.167 -1.2278 -0.1006  0.9014
  498MOL0     H65671   2.645   1.708   0.274 -1.0702 -2.0403 -1.2499
  498MOL0     H65672   2.687   1.961   0.274  0.0672 -1.5193 -0.2755
  498MOL0     H65673   2.848   2.265   0.127 -2.2892  1.7998  1.5258
  498MOL0     H65674   2.832   2.135   0.252 -1.1112  1.0475  1.2143
  498MOL0     H65675   2.576   2.151   0.190 -1.7212  1.8835  0.4215
  498MOL0     H65676   2.611   2.269   0.083 -1.6375 -0.0850 -0.3355
  498MOL0     H65677   2.702   2.420   0.278 -0.0150 -0.3306  0.8925
  498MOL0     H65678   2.673   2.283   0.386 -1.0589 -1.4279  0.2529
  498MOL0     H65679   2.446   2.377   0.216 -2.7780  3.0580  0.1252
  498MOL0     H65680   2.451   2.273   0.358  2.2654 -0.7041  3.5593
  498MOL0     H65681   2.378   2.517   0.433  2.4181  0.4700  1.4892
  498MOL0     H65682   2.490   2.580   0.326 -1.4943  0.1486 -0.2558
  498MOL0     H65683   2.675   2.527   0.476 -0.7100  2.8878 -1.0098
  498MOL0     H65684   2.578   2.433   0.581  2.2434 -1.1424  0.5485
  498MOL0     H65685   2.540   2.730   0.517 -1.1354 -2.2252 -1.4726
  498MOL0     H65686   2.450   2.646   0.638 -1.3535  3.5244  0.9274
  498MOL0     H65687   2.722   2.760   0.672  0.9920 -2.2763 -1.4718
  498MOL0     H65688   2.740   2.590   0.687  1.0865  1.2197  0.8494
  498MOL0     H65689   2.479   2.857   0.837  0.2981  0.8939  0.6358
  498MOL0     H65690   2.364   2.895   1.075  0.4219  2.1595  0.0507
  498MOL0     H65691   2.519   2.953   1.111  1.2364 -0.6160 -0.1598
  498MOL0     H65692   2.561   2.816   1.305  0.5707  3.2101 -0.4408
  498MOL0     H65693   2.424   2.715   1.265  0.0005 -0.4040 -0.7549
  498MOL0     H65694   2.454   3.006   1.352  2.1046 -0.2398 -5.0057
  498MOL0     H65695   2.306   2.936   1.283 -0.1090 -2.0657 -0.5995
  498MOL0     H65696   2.430   2.821   1.539  1.5202 -1.8079 -2.0286
  498MOL0     H65697   2.298   2.751   1.447 -0.9010  0.0090 -2.1524
  498MOL0     H65698   2.245   3.164   1.633  1.6957 -2.1855 -2.0398
  498MOL0     H65699   2.286   3.238   1.869 -2.9538  0.6629 -1.7621
  498MOL0     H65700   2.435   3.408   2.170  0.9013  1.5247  1.0239
  498MOL0     H65701   2.444   3.536   2.367  2.8035 -1.6587  3.6828
  498MOL0     H65702   2.291   3.326   2.750  0.8844 -1.2378 -3.7803
  498MOL0     H65703   2.163   3.447   2.701  0.3676  1.4151  2.0061
  498MOL0     H65704   2.433   3.496   2.840  0.5458  1.0332  0.2047
  498MOL0     H65705   2.279   3.516   2.924  2.2914 -0.5408  0.3524
  498MOL0     H65706   2.388   3.690   2.686  4.4465  0.5605  2.5645
  498MOL0     H65707   2.395   3.727   2.856  1.3454  1.3593 -2.9092
  498MOL0     H65708   2.146   3.692   2.705  0.5234 -0.5961 -0.3600
  498MOL0     H65709   2.147   3.749   2.866  1.1265  1.3003  1.1333
  498MOL0     H65710   2.281   3.906   2.632  0.7072 -1.3152  0.5103
  498MOL0     H65711   2.301   3.960   2.798 -1.1159 -0.3498  0.2637
  498MOL0     H65712   2.039   3.915   2.640  0.4246  1.2820 -1.2425
  498MOL0     H65713   2.116   4.065   2.659  3.8783 -1.5050 -2.1461
  498MOL0     H65714   2.062   3.916   2.931 -0.8717 -1.6135 -1.1628
  498MOL0     H65715   2.034   4.086   2.893  0.3189  0.0109  0.0069
  498MOL0     H65716   1.879   3.840   2.835  2.5873 -0.7287  4.9482
  498MOL0     H65717   1.839   4.003   2.754  2.0862  1.8897 -0.8309
  498MOL0     H65718   2.193   3.243   2.566 -3.7153  1.1192 -1.1675
  498MOL0     H65719   2.154   3.129   2.340 -0.3138  0.0035  2.1947
  498MOL0     H65720   2.353   2.836   1.984  0.1046 -1.5177 -1.6008
  498MOL0     H65721   2.317   2.752   1.746 -0.6557 -0.4022 -0.9019
  498MOL0     H65722   2.898   1.886  -0.107  0.8717 -1.2968  1.0902
  498MOL0     H65723   2.856   1.636  -0.064  0.7714 -0.2538  0.8323
  498MOL0     H65724   2.574   1.354   0.165  1.4909  0.4640 -2.0807
  498MOL0     H65725   2.516   1.123   0.273 -0.5717 -0.8747  1.0966
  498MOL0     H65726   2.753   0.945   0.440  2.7995  1.1820 -3.7289
  498MOL0     H65727   2.805   0.798   0.350  0.0307  1.4279 -0.7886
  498MOL0     H65728   2.600   0.662   0.424 -4.0805 -0.2568  3.1626
  498MOL0     H65729   2.688   0.726   0.561  0.3974 -1.0595 -0.1148
  498MOL0     H65730   2.436   0.840   0.435  0.1896  0.4030  0.6549
  498MOL0     H65731   2.515   0.913   0.569 -4.7868  0.9527  1.6012
  498MOL0     H65732   2.324   0.774   0.648 -0.3288 -0.8177  1.4054
  498MOL0     H65733   2.402   0.633   0.560 -2.7690  0.6512  1.4518
  498MOL0     H65734   2.599   0.704   0.942 -3.3328  0.1199  1.6160
  498MOL0     H65735   2.901   0.986   0.240  1.7848  1.5622  3.1477
  498MOL0     H65736   2.982   1.198   0.152 -1.1224 -0.6334  1.4124
  499MOL0     O65737  10.901   2.089   8.590 -0.0645 -0.5487 -0.1789
  499MOL0     C65738  10.979   2.162   8.525  0.0213  0.1996  0.0804
  499MOL0     O65739  11.034   2.283   8.568  0.1289  0.3338  0.1360
  499MOL0     C65740  10.995   2.351   8.682 -0.7076  0.0268 -0.8917
  499MOL0     C65741  10.882   2.315   8.765 -0.3301  0.7920  0.2159
  499MOL0     C65742  10.863   2.377   8.883 -0.4130  0.2640 -0.7596
  499MOL0     C65743  10.935   2.485   8.925 -0.3219 -1.5399 -0.8407
  499MOL0     O65744  10.904   2.540   9.050 -0.1618 -0.3890  0.5612
  499MOL0     C65745  11.017   2.564   9.132 -0.8582  0.2896  0.2946
  499MOL0     C65746  10.996   2.528   9.281  0.8210 -0.1716  0.2839
  499MOL0     C65747  10.901   2.612   9.365 -0.2152 -0.4856  0.3169
  499MOL0     C65748  10.910   2.610   9.523 -0.3906  0.7635  0.9888
  499MOL0     C65749  10.843   2.721   9.585  0.5586 -0.2613  0.6053
  499MOL0     C65750  10.922   2.854   9.595  0.3326 -0.4383 -0.0638
  499MOL0     C65751  10.836   2.979   9.591  0.4667 -1.3028 -0.6250
  499MOL0     C65752  10.711   2.970   9.690  0.2203 -0.2937  0.5072
  499MOL0     N65753  10.664   3.106   9.726  0.1648 -0.5551 -0.3602
  499MOL0     C65754  10.594   3.183   9.638 -0.2829 -0.5604 -0.0749
  499MOL0     C65755  10.607   3.315   9.681 -0.3459 -0.0627 -0.1940
  499MOL0     C65756  10.545   3.439   9.612  0.4160  0.6933 -0.0284
  499MOL0     C65757  10.400   3.425   9.600  0.2564 -0.3210 -0.3175
  499MOL0     C65758  10.334   3.558   9.624 -0.4982  0.0529  0.1284
  499MOL0     C65759  10.185   3.560   9.568  0.0065  0.5087 -0.2283
  499MOL0     O65760  10.118   3.449   9.642 -0.6082 -0.6670  0.8418
  499MOL0     C65761   9.979   3.444   9.628  0.5435 -0.1231  0.1288
  499MOL0     C65762   9.900   3.336   9.680  1.0197 -0.4781  0.1485
  499MOL0     C65763   9.763   3.342   9.659 -0.6627 -0.1332  0.2501
  499MOL0     C65764   9.696   3.437   9.574  0.8075 -0.3191  0.4381
  499MOL0     C65765   9.552   3.432   9.560  0.8672  0.1431 -0.1403
  499MOL0     O65766   9.484   3.314   9.577 -0.1706  0.1709  0.1967
  499MOL0     C65767   9.347   3.307   9.568 -0.3373 -0.0765 -0.5615
  499MOL0     C65768   9.261   3.392   9.494 -0.8340  0.2442  0.0481
  499MOL0     C65769   9.127   3.363   9.467 -0.5238  0.6843  0.1125
  499MOL0     C65770   9.065   3.251   9.512 -0.0090 -0.7429  0.2906
  499MOL0     O65771   8.938   3.227   9.489  0.4738 -1.0536  0.1157
  499MOL0     C65772   8.861   3.121   9.556  0.4141  0.1589 -0.5647
  499MOL0     C65773   8.807   3.173   9.687  1.0047 -0.3833 -0.5768
  499MOL0     C65774   8.704   3.070   9.739 -1.1038 -0.7849  0.0926
  499MOL0     C65775   8.760   2.932   9.768 -0.3239 -0.4469  0.6279
  499MOL0     C65776   8.677   2.850   9.865  0.1870 -0.5192 -0.3344
  499MOL0     C65777   8.523   2.871   9.837 -0.1654  0.2236 -1.2475
  499MOL0     C65778   8.477   2.832   9.696  0.9270 -0.2488 -0.9957
  499MOL0     C65779   8.352   2.745   9.709 -1.1956  0.3271 -0.0444
  499MOL0    Cl65780   8.301   2.676   9.555  0.2206  0.6641 -0.6673
  499MOL0     C65781   9.149   3.166   9.588  0.3146 -0.2136  0.4455
  499MOL0     C65782   9.284   3.192   9.620  0.6257  0.2565  0.0006
  499MOL0     O65783   9.502   3.541   9.558  1.2013 -0.4753 -0.2932
  499MOL0     C65784   9.777   3.534   9.514 -0.0966 -0.1492  0.1082
  499MOL0     C65785   9.909   3.542   9.554 -0.5980  0.4751  0.2843
  499MOL0     N65786  10.706   3.314   9.781  0.1850  0.0769  0.0346
  499MOL0     N65787  10.724   3.188   9.816  1.2889 -0.1248  0.1603
  499MOL0     C65788  11.043   2.534   8.848  0.3121 -0.0090  0.2543
  499MOL0     C65789  11.077   2.465   8.729 -0.3098  0.4295 -0.3360
  499MOL0     C65790  11.029   2.107   8.394  0.8747 -0.9745  0.0932
  499MOL0     C65791  11.100   2.191   8.306  0.2885  0.1110  0.5636
  499MOL0     C65792  11.136   2.134   8.183 -0.6803  0.0597  0.6358
  499MOL0     C65793  11.096   2.010   8.139  0.6681 -0.5732 -0.0684
  499MOL0     O65794  11.142   1.965   8.015  0.4003 -0.7268  0.3497
  499MOL0     C65795  11.204   1.838   8.012 -0.6863 -0.3166  0.6594
  499MOL0     C65796  11.363   1.848   8.034  0.0840  0.1031  0.0204
  499MOL0     C65797  11.447   1.836   7.907  0.1118  0.3185  1.1056
  499MOL0     C65798  11.595   1.818   7.933  0.6669 -1.0661  1.3637
  499MOL0     C65799  11.674   1.900   8.017  0.6861  0.0870  0.1828
  499MOL0     C65800  11.733   1.967   8.094  0.2722  0.4518 -0.7964
  499MOL0     C65801  11.030   1.921   8.227 -0.3960 -0.0486  0.0667
  499MOL0     C65802  10.996   1.977   8.352 -0.4157  0.1890 -0.0417
  499MOL0     H65803  10.816   2.231   8.743 -3.0347  3.0162 -0.8568
  499MOL0     H65804  10.789   2.340   8.953  0.7773 -0.0153  0.4066
  499MOL0     H65805  11.061   2.662   9.110  1.7442 -0.7529  0.5021
  499MOL0     H65806  11.102   2.498   9.111 -0.5777 -0.0624  2.3583
  499MOL0     H65807  11.092   2.547   9.330  0.6179 -0.0298  0.6313
  499MOL0     H65808  10.969   2.425   9.307  0.0150 -0.2622 -0.8432
  499MOL0     H65809  10.801   2.587   9.329 -0.5244  3.7219 -2.4235
  499MOL0     H65810  10.938   2.713   9.343  1.6506 -1.1376  0.3242
  499MOL0     H65811  10.863   2.515   9.552  1.6051 -1.0716 -1.2788
  499MOL0     H65812  11.011   2.594   9.560 -1.0581 -4.7468  1.2939
  499MOL0     H65813  10.821   2.695   9.689  0.5024 -2.2732  0.1264
  499MOL0     H65814  10.744   2.734   9.541 -0.0867 -4.4547  0.4973
  499MOL0     H65815  10.991   2.862   9.511 -0.9992 -0.1713 -1.1613
  499MOL0     H65816  10.981   2.867   9.686  0.5584 -0.7927 -0.1570
  499MOL0     H65817  10.906   3.058   9.618  0.6547 -0.8316 -2.3552
  499MOL0     H65818  10.800   3.001   9.490  1.5925  0.5947 -0.6470
  499MOL0     H65819  10.743   2.927   9.785  1.3943  0.3210  0.4065
  499MOL0     H65820  10.630   2.915   9.641 -1.8701  0.2771  3.0775
  499MOL0     H65821  10.544   3.152   9.548  1.7378 -2.5109 -0.6127
  499MOL0     H65822  10.602   3.458   9.521  1.9411  0.1545  0.7903
  499MOL0     H65823  10.562   3.523   9.679 -0.1732  1.1622 -0.4554
  499MOL0     H65824  10.359   3.344   9.660  1.1356  1.2126  2.5295
  499MOL0     H65825  10.384   3.399   9.495  1.0971  2.7205 -1.3040
  499MOL0     H65826  10.345   3.586   9.729  0.6202  2.4465 -0.5400
  499MOL0     H65827  10.397   3.617   9.557 -0.3087 -0.5428 -0.2220
  499MOL0     H65828  10.184   3.567   9.459  0.3573  0.2054 -0.2527
  499MOL0     H65829  10.143   3.654   9.603 -1.9199  0.0429 -1.1658
  499MOL0     H65830   9.944   3.262   9.746  0.6055 -0.8289  0.0374
  499MOL0     H65831   9.720   3.248   9.693  1.9694 -1.9090 -0.9987
  499MOL0     H65832   9.296   3.484   9.449 -3.5322  1.4517  0.2516
  499MOL0     H65833   9.063   3.432   9.413 -2.5680 -0.9541  0.2932
  499MOL0     H65834   8.911   3.024   9.561  1.1613  0.2822 -3.6139
  499MOL0     H65835   8.773   3.093   9.498 -1.6310 -2.6480  3.4183
  499MOL0     H65836   8.741   3.259   9.672  0.1321 -0.5683  1.7179
  499MOL0     H65837   8.892   3.195   9.754  2.4504 -0.0852 -2.4344
  499MOL0     H65838   8.621   3.068   9.668 -0.2672 -1.4502 -0.8859
  499MOL0     H65839   8.670   3.112   9.834  1.2629 -1.1768  1.2025
  499MOL0     H65840   8.777   2.894   9.667  1.6544 -0.5922  0.9632
  499MOL0     H65841   8.864   2.942   9.802  0.0865 -0.9598 -0.4367
  499MOL0     H65842   8.693   2.872   9.971  0.0411  2.6547 -0.8834
  499MOL0     H65843   8.699   2.743   9.858  4.6075  0.2862 -2.6318
  499MOL0     H65844   8.501   2.977   9.854 -2.1903  0.3830 -4.1741
  499MOL0     H65845   8.464   2.813   9.909  0.0380  1.9940  0.4286
  499MOL0     H65846   8.464   2.916   9.626  0.5225 -0.1766 -0.8382
  499MOL0     H65847   8.542   2.763   9.642 -2.5608 -3.4217 -1.5469
  499MOL0     H65848   8.267   2.798   9.752 -2.0819  1.5582 -3.0893
  499MOL0     H65849   8.369   2.660   9.776 -0.2973 -0.8172 -1.6496
  499MOL0     H65850   9.105   3.069   9.608 -2.9848  0.9681 -0.4100
  499MOL0     H65851   9.351   3.119   9.664 -0.7912 -1.3562 -0.3990
  499MOL0     H65852   9.732   3.598   9.440 -1.4919 -4.0216 -2.6828
  499MOL0     H65853   9.960   3.621   9.500  1.9183 -3.2057 -3.2629
  499MOL0     H65854  11.098   2.624   8.873 -0.7223  0.8717 -0.5602
  499MOL0     H65855  11.165   2.495   8.674  0.2965  0.5220  0.6654
  499MOL0     H65856  11.130   2.294   8.324  2.2706 -0.4258  0.5910
  499MOL0     H65857  11.193   2.185   8.106  0.7169  0.3957  1.8381
  499MOL0     H65858  11.176   1.805   7.912  1.9023  0.4810 -0.3924
  499MOL0     H65859  11.154   1.756   8.064 -3.0005 -0.4235 -1.5577
  499MOL0     H65860  11.376   1.947   8.079 -0.2116  0.0874  0.1362
  499MOL0     H65861  11.387   1.777   8.113  0.9406  0.8156  0.4183
  499MOL0     H65862  11.443   1.927   7.847  0.5533  0.1989  0.8876
  499MOL0     H65863  11.414   1.756   7.840 -2.0028  1.6242  0.4843
  499MOL0     H65864  11.608   1.713   7.961 -2.5848 -2.3713 -1.3290
  499MOL0     H65865  11.638   1.817   7.832 -0.8044 -1.2138  0.7091
  499MOL0     H65866  11.800   2.019   8.158 -1.0840  0.3067  0.8097
  499MOL0     H65867  11.010   1.820   8.193 -0.5918 -0.1140  0.3784
  499MOL0     H65868  10.929   1.920   8.415 -1.6809  0.3220 -1.2325
  500MOL0     O65869   5.031   6.258   8.752 -0.1894  0.4068 -0.0321
  500MOL0     C65870   4.980   6.155   8.788  0.5242 -0.1481  0.0114
  500MOL0     O65871   4.865   6.099   8.755 -0.0418  0.3026  0.2796
  500MOL0     C65872   4.797   6.135   8.644  0.6466 -0.6996  0.0380
  500MOL0     C65873   4.660   6.099   8.642 -1.2716 -1.0280  0.2156
  500MOL0     C65874   4.573   6.119   8.534  0.0283  0.0659  0.3602
  500MOL0     C65875   4.627   6.166   8.415 -0.6328 -0.1134 -0.5635
  500MOL0     O65876   4.567   6.191   8.294  0.5007  0.1564  0.0163
  500MOL0     C65877   4.421   6.195   8.279 -0.4805 -0.7230  0.0378
  500MOL0     C65878   4.387   6.254   8.153  0.3160 -0.4116  0.2589
  500MOL0     C65879   4.397   6.152   8.047 -0.2510  0.3491  0.4808
  500MOL0     C65880   4.329   6.186   7.907  0.6834 -0.2979 -0.0939
  500MOL0     C65881   4.277   6.070   7.825 -0.3438  0.8836 -0.5442
  500MOL0     C65882   4.375   6.013   7.720  0.5622  0.0938 -0.2839
  500MOL0     C65883   4.302   5.953   7.597  0.7679  0.5440  0.7374
  500MOL0     C65884   4.252   5.818   7.617  0.1462 -0.6307  0.2467
  500MOL0     N65885   4.184   5.780   7.486 -0.6167  0.0637 -0.4923
  500MOL0     C65886   4.054   5.793   7.459  0.1057  0.8556  0.1658
  500MOL0     C65887   4.036   5.734   7.338 -0.5535  0.6624  0.4182
  500MOL0     C65888   3.905   5.717   7.271 -0.1345  0.9650 -0.1210
  500MOL0     C65889   3.797   5.646   7.349  0.2491 -0.1721  0.0546
  500MOL0     C65890   3.842   5.513   7.418  1.3806 -0.8221 -0.4894
  500MOL0     C65891   3.722   5.470   7.508 -0.1569 -0.2687  0.2883
  500MOL0     O65892   3.718   5.334   7.554  0.7239  0.3965 -0.8367
  500MOL0     C65893   3.675   5.314   7.686 -0.3574  0.4805  0.5229
  500MOL0     C65894   3.729   5.195   7.733 -0.9263  0.2077 -0.0759
  500MOL0     C65895   3.716   5.155   7.867 -0.8326 -0.6111  0.0093
  500MOL0     C65896   3.623   5.216   7.947 -0.0286 -0.3707 -0.2053
  500MOL0     C65897   3.583   5.153   8.076 -0.6998  0.4464 -0.4404
  500MOL0     O65898   3.531   5.238   8.179  0.3498  0.0628 -0.2608
  500MOL0     C65899   3.508   5.182   8.302  0.1373 -0.0187 -0.3716
  500MOL0     C65900   3.623   5.165   8.381 -0.3533  1.5178  0.7513
  500MOL0     C65901   3.607   5.086   8.500  0.4372  0.0488 -0.4463
  500MOL0     C65902   3.479   5.048   8.549  0.1714  0.0585  0.0917
  500MOL0     O65903   3.461   4.990   8.670  0.2490 -1.0380 -1.0112
  500MOL0     C65904   3.540   5.031   8.781  0.1104  0.4602  0.0746
  500MOL0     C65905   3.638   4.920   8.810 -0.2158 -0.4799 -0.2752
  500MOL0     C65906   3.722   4.950   8.930  0.5555 -0.1413 -0.3442
  500MOL0     C65907   3.632   4.980   9.056 -0.4230 -0.2398 -0.1202
  500MOL0     C65908   3.713   4.985   9.186 -0.0713 -0.4271  0.3336
  500MOL0     C65909   3.789   4.867   9.236  0.1446  0.3536 -0.6815
  500MOL0     C65910   3.818   4.878   9.386  0.6760 -0.8316  0.1735
  500MOL0     C65911   3.822   4.747   9.456  0.2010 -0.0182 -0.3791
  500MOL0    Cl65912   3.925   4.631   9.366  0.0123  0.1527  0.0922
  500MOL0     C65913   3.369   5.062   8.469 -0.0393  0.6522  0.6888
  500MOL0     C65914   3.388   5.120   8.340 -0.2731  0.4627 -1.2150
  500MOL0     O65915   3.602   5.028   8.092  0.0425 -0.0023 -0.8100
  500MOL0     C65916   3.553   5.329   7.891 -0.1050 -0.2858 -0.2177
  500MOL0     C65917   3.587   5.385   7.768 -0.6739  0.0884 -0.4325
  500MOL0     N65918   4.163   5.709   7.284 -0.0590  0.0919 -0.5395
  500MOL0     N65919   4.246   5.739   7.375  0.1050  0.0687 -0.5370
  500MOL0     C65920   4.758   6.205   8.407  0.1878  0.0731 -0.5308
  500MOL0     C65921   4.844   6.195   8.518  0.1518  0.4814  0.3828
  500MOL0     C65922   5.046   6.080   8.893 -0.1094  0.8997  0.4630
  500MOL0     C65923   4.992   5.954   8.941 -1.0761 -0.3396  0.8018
  500MOL0     C65924   5.055   5.883   9.040 -0.2551  0.3530  0.1109
  500MOL0     C65925   5.169   5.928   9.110 -0.0780  0.3307  0.2492
  500MOL0     O65926   5.203   5.851   9.218 -0.3510 -0.4395  0.0790
  500MOL0     C65927   5.279   5.920   9.320  0.4388  0.8624  0.1277
  500MOL0     C65928   5.312   5.851   9.442 -0.3142  0.0586 -0.3765
  500MOL0     C65929   5.205   5.750   9.484 -0.9408 -0.2755 -0.2285
  500MOL0     C65930   5.231   5.680   9.615 -0.6512 -0.4179 -0.4941
  500MOL0     C65931   5.217   5.761   9.737 -0.3644 -0.3691 -0.2440
  500MOL0     C65932   5.214   5.821   9.844  0.3761  0.1802  0.4478
  500MOL0     C65933   5.230   6.045   9.065 -0.6831  0.4086 -0.8152
  500MOL0     C65934   5.172   6.115   8.951 -0.4055 -0.2613  0.5209
  500MOL0     H65935   4.630   6.068   8.742  0.9737  1.3480  1.7328
  500MOL0     H65936   4.470   6.086   8.541  0.3008 -1.1279 -0.7806
  500MOL0     H65937   4.376   6.262   8.352 -3.3154 -1.8609 -0.5552
  500MOL0     H65938   4.391   6.091   8.291 -0.7689 -0.5588  0.8029
  500MOL0     H65939   4.462   6.330   8.129  0.5641 -0.9172 -0.6237
  500MOL0     H65940   4.283   6.287   8.154  0.3192  0.0284 -2.7147
  500MOL0     H65941   4.350   6.060   8.083  4.1104 -1.9971  0.8251
  500MOL0     H65942   4.499   6.117   8.030 -0.8820 -2.4930  2.0083
  500MOL0     H65943   4.239   6.245   7.928 -0.6168 -1.5724 -1.8680
  500MOL0     H65944   4.395   6.247   7.844  0.4836 -0.4765 -0.4736
  500MOL0     H65945   4.192   6.117   7.775  0.9739  2.9977 -0.9223
  500MOL0     H65946   4.250   5.984   7.886  2.9059 -1.1168 -1.6372
  500MOL0     H65947   4.427   5.929   7.768 -0.8396 -1.3099 -1.1418
  500MOL0     H65948   4.441   6.094   7.689 -2.7110  2.1533 -2.3978
  500MOL0     H65949   4.221   6.021   7.569 -0.1894 -0.8899 -0.0869
  500MOL0     H65950   4.381   5.954   7.521 -2.5963 -0.1762 -3.1125
  500MOL0     H65951   4.186   5.821   7.704 -0.0924 -2.3978  0.1656
  500MOL0     H65952   4.339   5.752   7.630  1.4938  1.2729  1.4629
  500MOL0     H65953   3.981   5.838   7.526 -3.3598 -1.9388 -1.3766
  500MOL0     H65954   3.929   5.657   7.183  2.1106  0.5395  0.7162
  500MOL0     H65955   3.863   5.812   7.237  1.3695  1.3903 -0.8977
  500MOL0     H65956   3.710   5.642   7.283  0.6637  1.3620 -0.6149
  500MOL0     H65957   3.781   5.725   7.423  0.8973  0.7348 -0.7489
  500MOL0     H65958   3.872   5.439   7.344 -1.3401 -0.1720 -2.3627
  500MOL0     H65959   3.922   5.538   7.488 -1.1382 -2.2065  3.1836
  500MOL0     H65960   3.632   5.469   7.446  0.6298  0.7418 -0.9095
  500MOL0     H65961   3.716   5.541   7.590  0.2806  0.4544 -0.2939
  500MOL0     H65962   3.782   5.141   7.656  1.4370 -0.0564  1.6395
  500MOL0     H65963   3.769   5.067   7.902  0.8258  0.9218  1.5187
  500MOL0     H65964   3.722   5.202   8.355 -0.2716  0.3062 -0.8089
  500MOL0     H65965   3.689   5.052   8.562 -2.4463 -2.6456  2.2280
  500MOL0     H65966   3.484   5.037   8.875  1.3891 -2.9362  1.2076
  500MOL0     H65967   3.602   5.120   8.763 -0.0746  0.6486  0.3687
  500MOL0     H65968   3.694   4.908   8.717 -0.5786  2.6375 -0.9982
  500MOL0     H65969   3.573   4.833   8.828  0.0563 -0.4677  0.8530
  500MOL0     H65970   3.801   5.024   8.913 -0.4665  0.2730 -4.1677
  500MOL0     H65971   3.776   4.859   8.959  1.9697  0.4891 -0.9023
  500MOL0     H65972   3.567   5.068   9.061 -2.2295 -1.5575  0.3926
  500MOL0     H65973   3.568   4.894   9.076 -0.3235 -0.1486  0.6209
  500MOL0     H65974   3.639   5.000   9.265 -1.0855 -1.9846 -0.2678
  500MOL0     H65975   3.779   5.072   9.185 -2.0724  1.1897 -0.5787
  500MOL0     H65976   3.881   4.848   9.180 -0.8333 -0.0458 -2.2231
  500MOL0     H65977   3.728   4.777   9.221  1.6424 -1.3682  2.4053
  500MOL0     H65978   3.916   4.918   9.410  0.2854 -0.3971  1.0983
  500MOL0     H65979   3.739   4.929   9.442  0.2584 -1.3045  0.0293
  500MOL0     H65980   3.722   4.704   9.467  1.5467 -3.2223  0.4179
  500MOL0     H65981   3.863   4.762   9.556  0.3218  3.5221 -0.8276
  500MOL0     H65982   3.271   5.032   8.506 -0.4814 -1.5075 -1.9200
  500MOL0     H65983   3.304   5.137   8.273 -0.0980 -0.9451 -1.8312
  500MOL0     H65984   3.468   5.373   7.942  0.5912 -0.1054  0.8311
  500MOL0     H65985   3.526   5.470   7.739 -0.3910  1.0747  1.7106
  500MOL0     H65986   4.788   6.243   8.309 -1.5194  1.9942 -0.3757
  500MOL0     H65987   4.949   6.183   8.495 -0.0111  1.2196 -0.8797
  500MOL0     H65988   4.904   5.910   8.896 -1.3658  1.1808 -0.2128
  500MOL0     H65989   4.989   5.802   9.069  0.5717  0.6242  3.0803
  500MOL0     H65990   5.220   6.008   9.346 -0.3851  0.6446 -0.8873
  500MOL0     H65991   5.370   5.962   9.277  0.3831  0.8929  0.0386
  500MOL0     H65992   5.399   5.786   9.425  0.3962 -1.2095  5.7065
  500MOL0     H65993   5.327   5.930   9.516 -3.4826 -1.0223  1.6358
  500MOL0     H65994   5.209   5.666   9.415  1.9371 -3.2669  3.1673
  500MOL0     H65995   5.103   5.791   9.490 -0.3035  1.2628  0.9305
  500MOL0     H65996   5.161   5.604   9.652  3.1620 -2.3400  3.7655
  500MOL0     H65997   5.324   5.624   9.605 -0.4867  0.0829 -1.9860
  500MOL0     H65998   5.199   5.886   9.928  0.9151  1.3482 -0.3321
  500MOL0     H65999   5.328   6.064   9.109  0.7674 -2.2930 -2.5531
  500MOL0     H66000   5.226   6.201   8.913  0.4887 -0.7953  0.5605
  501MOL0     O66001  10.087   8.965   1.101 -0.5924  0.6218  0.8621
  501MOL0     C66002   9.989   9.040   1.093 -0.7647  0.1929  0.2198
  501MOL0     O66003   9.864   9.006   1.052 -0.1842  0.4511 -0.3806
  501MOL0     C66004   9.839   8.880   1.024  0.3018  1.0920 -0.3846
  501MOL0     C66005   9.849   8.841   0.891  0.0903 -0.7911 -0.5505
  501MOL0     C66006   9.833   8.712   0.846 -0.3700 -0.3548  0.4983
  501MOL0     C66007   9.798   8.609   0.943 -0.8481  0.1906  1.4226
  501MOL0     O66008   9.783   8.476   0.912 -0.5612 -0.6077 -0.7829
  501MOL0     C66009   9.748   8.447   0.779  0.5064 -0.4493  0.5368
  501MOL0     C66010   9.690   8.314   0.757  0.1725  0.1699  0.2449
  501MOL0     C66011   9.553   8.293   0.823 -1.0844  0.2251  0.5954
  501MOL0     C66012   9.454   8.409   0.798 -0.4572 -0.0176  0.4102
  501MOL0     C66013   9.314   8.384   0.827  0.0741  0.3588 -0.5963
  501MOL0     C66014   9.228   8.311   0.721  0.6528  0.7275 -0.7286
  501MOL0     C66015   9.091   8.286   0.780 -0.2346  0.4614 -0.0274
  501MOL0     C66016   9.013   8.414   0.798  0.0174  0.5683  0.3121
  501MOL0     N66017   8.875   8.370   0.829  0.2952  0.2174 -0.7577
  501MOL0     C66018   8.775   8.323   0.747  0.3298 -0.1195  0.3679
  501MOL0     C66019   8.663   8.321   0.828  0.5649 -0.5915  0.7383
  501MOL0     C66020   8.536   8.251   0.769  0.3650  0.1883  0.0876
  501MOL0     C66021   8.411   8.336   0.796 -0.4461 -0.5250 -0.5838
  501MOL0     C66022   8.419   8.464   0.708 -0.1197  0.1318 -0.0144
  501MOL0     C66023   8.314   8.560   0.757  0.0298  0.7872  0.0883
  501MOL0     O66024   8.347   8.648   0.867  0.9280 -0.0303  1.1054
  501MOL0     C66025   8.275   8.770   0.867 -0.1881 -1.2912  1.0452
  501MOL0     C66026   8.137   8.783   0.848 -0.6010  0.5028  0.4316
  501MOL0     C66027   8.071   8.908   0.862 -0.2315  0.4381  1.2472
  501MOL0     C66028   8.142   9.026   0.873 -0.1109 -0.2364  0.3041
  501MOL0     C66029   8.072   9.162   0.888 -0.1359 -0.1137 -1.2198
  501MOL0     O66030   7.940   9.162   0.863  0.2316  0.0357 -0.1449
  501MOL0     C66031   7.881   9.282   0.838 -0.2858 -1.7586 -0.1747
  501MOL0     C66032   7.788   9.318   0.937  0.2391  0.1702 -0.7836
  501MOL0     C66033   7.706   9.424   0.919 -0.0710 -0.1118 -0.2603
  501MOL0     C66034   7.713   9.508   0.805 -0.5177 -0.4989 -0.3444
  501MOL0     O66035   7.622   9.614   0.809 -0.2859  0.1215  0.0838
  501MOL0     C66036   7.610   9.704   0.698  0.1556  0.1700  0.5392
  501MOL0     C66037   7.512   9.819   0.747  0.3928  1.2266 -0.3486
  501MOL0     C66038   7.482   9.926   0.650 -0.4943 -0.4574 -1.1071
  501MOL0     C66039   7.393   9.892   0.530 -0.3895  0.4752 -0.0824
  501MOL0     C66040   7.341  10.015   0.448 -0.3529  0.7903 -0.0055
  501MOL0     C66041   7.243   9.966   0.338  0.3323 -0.6311  0.9331
  501MOL0     C66042   7.178  10.082   0.250  0.7052 -0.1878  0.7172
  501MOL0     C66043   7.052  10.021   0.186 -0.3101 -0.2417  0.2267
  501MOL0    Cl66044   7.098   9.921   0.045  0.0230 -0.3219 -0.0577
  501MOL0     C66045   7.806   9.479   0.704  0.1700 -0.3295 -0.4848
  501MOL0     C66046   7.884   9.359   0.717 -0.3730 -0.9271  0.1474
  501MOL0     O66047   8.141   9.261   0.923  0.9310  0.7601 -1.0388
  501MOL0     C66048   8.282   9.013   0.883  0.6585 -0.9406  0.8312
  501MOL0     C66049   8.349   8.888   0.887  0.1073 -1.7694 -0.9701
  501MOL0     N66050   8.703   8.339   0.959  0.2405 -0.0842 -1.2163
  501MOL0     N66051   8.827   8.371   0.954 -0.6374  0.2726 -0.4141
  501MOL0     C66052   9.784   8.644   1.080 -0.6932  0.2334  0.2547
  501MOL0     C66053   9.813   8.778   1.117 -0.0243  0.4839 -0.7154
  501MOL0     C66054  10.029   9.179   1.113  0.4862  0.2215 -0.2153
  501MOL0     C66055  10.132   9.229   1.198  0.3511  0.0168  0.6085
  501MOL0     C66056  10.149   9.365   1.216 -0.4788 -0.3036 -0.5583
  501MOL0     C66057  10.072   9.459   1.152  0.4942  0.6835 -0.5362
  501MOL0     O66058  10.112   9.595   1.146 -0.5114 -0.0411  0.7851
  501MOL0     C66059  10.174   9.664   1.260  0.2136  0.2696  0.5433
  501MOL0     C66060  10.328   9.681   1.217 -0.8199 -0.1734 -0.4877
  501MOL0     C66061  10.343   9.808   1.130  0.8055  0.3983  0.7472
  501MOL0     C66062  10.478   9.856   1.128 -0.0955 -0.5153  0.0203
  501MOL0     C66063  10.509   9.939   1.245 -0.0568  1.2308 -0.2821
  501MOL0     C66064  10.548  10.004   1.342 -0.1717 -0.5812 -0.6405
  501MOL0     C66065   9.968   9.413   1.060 -1.2061 -0.3508 -0.0321
  501MOL0     C66066   9.954   9.276   1.040  0.1695  0.0589 -0.4899
  501MOL0     H66067   9.880   8.917   0.820  3.0360  2.2135  3.4801
  501MOL0     H66068   9.852   8.684   0.743  0.5230  0.1014  0.5370
  501MOL0     H66069   9.842   8.453   0.724  0.6310  1.1977  0.8930
  501MOL0     H66070   9.681   8.519   0.732  2.1208  1.7342  1.4455
  501MOL0     H66071   9.757   8.238   0.799 -0.3462  0.0600  0.9010
  501MOL0     H66072   9.685   8.294   0.650 -1.6800 -0.6554  0.4392
  501MOL0     H66073   9.545   8.264   0.929 -0.8855 -0.3347  0.4612
  501MOL0     H66074   9.521   8.199   0.777 -0.7146  1.4929 -2.5057
  501MOL0     H66075   9.497   8.491   0.856  2.8638 -1.5993  0.4697
  501MOL0     H66076   9.459   8.431   0.691 -0.8669  0.9253  0.5760
  501MOL0     H66077   9.266   8.482   0.841 -1.4321 -0.2124 -1.5841
  501MOL0     H66078   9.303   8.340   0.927  0.5395  1.4572 -0.0374
  501MOL0     H66079   9.260   8.206   0.712 -3.0487 -0.4630 -1.3559
  501MOL0     H66080   9.221   8.366   0.627 -1.5432 -0.6449 -1.4333
  501MOL0     H66081   9.040   8.221   0.709  0.1202 -0.7192  0.7660
  501MOL0     H66082   9.092   8.234   0.876 -0.6295 -4.1346 -2.2355
  501MOL0     H66083   9.012   8.474   0.706 -4.0128  0.2351 -0.0563
  501MOL0     H66084   9.059   8.472   0.878  1.3988 -0.8690  0.6133
  501MOL0     H66085   8.776   8.301   0.641  0.4953 -2.8543  0.8552
  501MOL0     H66086   8.531   8.153   0.817  0.9060  0.3542  0.4859
  501MOL0     H66087   8.539   8.233   0.661  0.0219 -2.8543  0.5050
  501MOL0     H66088   8.394   8.366   0.900  0.4509 -0.1403 -0.5355
  501MOL0     H66089   8.319   8.281   0.777 -0.5069 -0.5487 -0.2277
  501MOL0     H66090   8.518   8.509   0.700  0.1600 -0.2578  1.0065
  501MOL0     H66091   8.394   8.428   0.608  2.3105 -0.6355 -0.3996
  501MOL0     H66092   8.239   8.491   0.796 -0.8212 -0.0726 -2.8735
  501MOL0     H66093   8.269   8.616   0.675 -0.3828  0.5999  0.1832
  501MOL0     H66094   8.079   8.694   0.827 -1.0845  0.9638 -0.2173
  501MOL0     H66095   7.963   8.911   0.874  0.0254  1.5832  4.2364
  501MOL0     H66096   7.781   9.261   1.029 -1.1199  2.3740  0.5751
  501MOL0     H66097   7.645   9.456   1.003 -0.6325 -3.3625  0.7225
  501MOL0     H66098   7.573   9.667   0.602 -1.1513  2.2264  0.1723
  501MOL0     H66099   7.708   9.749   0.680  1.2618 -2.7780 -1.6056
  501MOL0     H66100   7.544   9.863   0.842  2.6744 -3.8157  1.5338
  501MOL0     H66101   7.421   9.766   0.776 -0.2397  2.3164 -0.2508
  501MOL0     H66102   7.578   9.964   0.613 -1.4330  2.8556 -0.5323
  501MOL0     H66103   7.431  10.007   0.704 -0.9689 -1.9576  0.8027
  501MOL0     H66104   7.449   9.820   0.469  0.2356  2.0920 -1.4953
  501MOL0     H66105   7.300   9.838   0.551  0.2119 -0.9910 -0.9721
  501MOL0     H66106   7.428  10.070   0.413 -0.1259  0.2201 -0.3552
  501MOL0     H66107   7.288  10.074   0.524 -0.3826  0.3287  0.3401
  501MOL0     H66108   7.162   9.907   0.382  1.5425 -1.5284  2.0451
  501MOL0     H66109   7.290   9.899   0.266  1.5389  1.7451 -0.6154
  501MOL0     H66110   7.146  10.156   0.325  0.3207  1.5220 -1.0567
  501MOL0     H66111   7.251  10.134   0.186  0.1736  0.6160  0.7502
  501MOL0     H66112   6.989  10.105   0.155  1.4602 -0.3255 -4.5135
  501MOL0     H66113   6.997   9.967   0.263 -1.9249 -0.2039 -0.8491
  501MOL0     H66114   7.801   9.539   0.614 -1.7731  2.3911  1.2588
  501MOL0     H66115   7.947   9.323   0.637  2.0045 -1.4962  2.1469
  501MOL0     H66116   8.341   9.101   0.905 -0.1363  0.0220 -0.6851
  501MOL0     H66117   8.458   8.887   0.888  0.1312 -0.6651 -0.6760
  501MOL0     H66118   9.744   8.568   1.147 -0.5498 -1.8374 -1.8528
  501MOL0     H66119   9.774   8.826   1.205  1.1214 -1.8542  1.1840
  501MOL0     H66120  10.203   9.162   1.244  0.9135 -0.0519 -0.3524
  501MOL0     H66121  10.214   9.397   1.297 -0.6056  0.5212 -0.7729
  501MOL0     H66122  10.166   9.598   1.348 -2.7450 -0.4102 -0.1126
  501MOL0     H66123  10.123   9.755   1.293  1.5920  1.3090 -0.0964
  501MOL0     H66124  10.374   9.687   1.316 -3.0643  0.5162  0.5987
  501MOL0     H66125  10.359   9.599   1.151 -1.8989 -0.5976 -0.4914
  501MOL0     H66126  10.275   9.884   1.170  1.2403 -1.1686  4.9211
  501MOL0     H66127  10.313   9.775   1.030 -0.5189 -0.8165  1.5061
  501MOL0     H66128  10.565   9.793   1.108  0.0102 -0.4772  0.3526
  501MOL0     H66129  10.481   9.918   1.038 -0.9497 -2.7862 -1.6723
  501MOL0     H66130  10.551  10.061   1.432 -2.7450 -1.3765  0.0198
  501MOL0     H66131   9.909   9.478   0.996 -0.8374  0.6800  0.6622
  501MOL0     H66132   9.883   9.241   0.967 -1.8035 -0.5489  1.6163
  502MOL0     O66133   3.992   8.770   0.949  0.1798  0.6344  0.2423
  502MOL0     C66134   3.932   8.876   0.945  0.2264 -0.5273  0.0926
  502MOL0     O66135   3.973   8.991   1.005 -0.2373 -0.1331 -0.0468
  502MOL0     C66136   4.090   9.004   1.086 -1.3612 -0.3165 -1.0328
  502MOL0     C66137   4.204   8.919   1.078  0.4980 -0.0009 -0.3831
  502MOL0     C66138   4.308   8.919   1.174  0.9391  0.6229 -0.4105
  502MOL0     C66139   4.308   9.018   1.273 -1.4710 -0.4836  0.5433
  502MOL0     O66140   4.419   9.022   1.355  0.1883  0.0415 -0.4278
  502MOL0     C66141   4.398   9.071   1.487 -0.1532 -0.3008  0.2156
  502MOL0     C66142   4.534   9.120   1.537 -0.0587 -0.1587  0.4126
  502MOL0     C66143   4.521   9.139   1.687  0.8057 -0.1848  1.0050
  502MOL0     C66144   4.644   9.212   1.729  0.5198 -0.1091 -0.2443
  502MOL0     C66145   4.635   9.216   1.884  0.5884  0.5171  1.2470
  502MOL0     C66146   4.758   9.261   1.958 -0.6888  0.0676 -0.4317
  502MOL0     C66147   4.772   9.266   2.110 -0.6548  0.3695  0.5465
  502MOL0     C66148   4.653   9.345   2.183 -0.5331  1.5102 -0.4478
  502MOL0     N66149   4.638   9.480   2.134 -0.6847 -0.0386  0.4319
  502MOL0     C66150   4.535   9.521   2.067 -0.7455  0.0894  0.1265
  502MOL0     C66151   4.561   9.649   2.036  0.6213  0.1613 -0.4340
  502MOL0     C66152   4.467   9.728   1.961 -0.6800 -0.6125 -0.5163
  502MOL0     C66153   4.510   9.722   1.813 -0.1146 -0.0009 -0.1699
  502MOL0     C66154   4.510   9.578   1.756  0.8570 -0.0919 -0.5073
  502MOL0     C66155   4.371   9.547   1.683  0.2234 -0.2888 -0.3124
  502MOL0     O66156   4.377   9.448   1.578  1.0207  0.0470  0.8244
  502MOL0     C66157   4.333   9.489   1.452 -0.1122 -0.1875 -0.5802
  502MOL0     C66158   4.202   9.534   1.432  0.1946  0.1559  0.7133
  502MOL0     C66159   4.172   9.585   1.296  1.0015  1.0178 -0.5157
  502MOL0     C66160   4.268   9.592   1.194  0.0124  0.1899 -0.5749
  502MOL0     C66161   4.228   9.643   1.068  0.0981 -0.2639 -0.3739
  502MOL0     O66162   4.095   9.651   1.037 -0.7489  0.2611  0.5387
  502MOL0     C66163   4.043   9.715   0.926  0.0940  0.0336 -0.7191
  502MOL0     C66164   3.901   9.709   0.912  0.6588  1.2218 -0.2628
  502MOL0     C66165   3.835   9.760   0.805 -0.4849  0.4360  0.5440
  502MOL0     C66166   3.900   9.826   0.702  1.1034 -1.4156  0.2368
  502MOL0     O66167   3.843   9.864   0.573 -0.4640  0.0871  0.4037
  502MOL0     C66168   3.731   9.790   0.510  0.2278 -0.6881  0.4080
  502MOL0     C66169   3.770   9.647   0.488 -0.2412  0.8961 -0.7383
  502MOL0     C66170   3.665   9.581   0.389 -0.0462  0.8023  0.2883
  502MOL0     C66171   3.732   9.460   0.315 -0.0541  1.1751 -0.5768
  502MOL0     C66172   3.859   9.488   0.233  0.5067 -1.0769 -0.1578
  502MOL0     C66173   3.913   9.357   0.178 -0.5907  0.3628 -0.3089
  502MOL0     C66174   4.014   9.375   0.064 -0.3881 -1.1048 -0.2496
  502MOL0     C66175   4.063   9.242   0.005  0.3786  1.0525 -0.2166
  502MOL0    Cl66176   4.182   9.274  -0.121 -0.5588  0.2992 -0.0668
  502MOL0     C66177   4.042   9.832   0.718  0.1222 -1.1433 -0.0708
  502MOL0     C66178   4.110   9.783   0.829 -0.1389 -0.6198 -0.3366
  502MOL0     O66179   4.322   9.672   0.993  0.1928  0.2835 -0.0432
  502MOL0     C66180   4.394   9.541   1.221 -1.1899  0.7034 -0.6352
  502MOL0     C66181   4.432   9.493   1.349  0.0008  0.3376  0.1105
  502MOL0     N66182   4.671   9.683   2.106  0.6430  0.1463 -0.3957
  502MOL0     N66183   4.714   9.585   2.170 -0.2914  0.3252 -0.7034
  502MOL0     C66184   4.208   9.119   1.265 -0.7615  0.4623 -0.9184
  502MOL0     C66185   4.093   9.105   1.187 -0.0887  0.5751  0.7452
  502MOL0     C66186   3.812   8.883   0.863  0.5322 -0.7196  0.1971
  502MOL0     C66187   3.758   8.772   0.803 -0.3372  0.1476  0.7345
  502MOL0     C66188   3.633   8.785   0.743  0.3926 -0.4373  0.6226
  502MOL0     C66189   3.572   8.908   0.730 -0.7317  0.3989 -0.5025
  502MOL0     O66190   3.446   8.932   0.698 -0.3718  0.4024  0.5681
  502MOL0     C66191   3.397   8.877   0.572  0.2253 -0.4880  0.6919
  502MOL0     C66192   3.248   8.843   0.572  0.1999  0.0422 -0.4714
  502MOL0     C66193   3.208   8.778   0.448 -0.7578  1.1608  0.1680
  502MOL0     C66194   3.070   8.726   0.457  0.5063 -0.3094  0.2262
  502MOL0     C66195   3.051   8.594   0.398 -0.2083 -0.3466  0.7035
  502MOL0     C66196   3.063   8.481   0.372  0.3790  0.2371 -0.5148
  502MOL0     C66197   3.638   9.028   0.782  0.7368 -0.3827  0.0764
  502MOL0     C66198   3.754   9.007   0.851 -0.9659 -0.3747  0.2272
  502MOL0     H66199   4.198   8.859   0.987 -3.4450  0.2155 -0.4490
  502MOL0     H66200   4.382   8.840   1.170  1.6051  1.2962 -1.8488
  502MOL0     H66201   4.351   8.994   1.549 -1.4352  0.2509 -0.0485
  502MOL0     H66202   4.332   9.158   1.488 -0.2537 -0.3569 -0.6576
  502MOL0     H66203   4.562   9.213   1.487 -1.6299 -0.9781 -2.1874
  502MOL0     H66204   4.609   9.047   1.507 -0.5793  0.0939 -1.6774
  502MOL0     H66205   4.529   9.038   1.729  0.3430 -1.1469 -1.0768
  502MOL0     H66206   4.424   9.166   1.730  0.4252 -0.3582  0.2718
  502MOL0     H66207   4.739   9.164   1.702  0.7121  0.3053 -0.3102
  502MOL0     H66208   4.651   9.311   1.684 -1.3105 -1.1121 -2.9967
  502MOL0     H66209   4.602   9.116   1.916 -0.1575  0.1441 -0.5522
  502MOL0     H66210   4.547   9.276   1.908 -1.8135 -2.5817  0.9501
  502MOL0     H66211   4.778   9.362   1.921  0.2518  0.3982  0.9029
  502MOL0     H66212   4.837   9.195   1.921 -0.5494 -0.2439  0.4070
  502MOL0     H66213   4.764   9.166   2.153 -1.2579 -0.2104 -0.8812
  502MOL0     H66214   4.870   9.312   2.131  0.7474 -0.2857 -3.6035
  502MOL0     H66215   4.658   9.359   2.292 -1.1420  0.2843 -0.2425
  502MOL0     H66216   4.564   9.285   2.161 -1.0324  1.5277  1.3739
  502MOL0     H66217   4.446   9.466   2.041 -0.7674  0.5624 -0.8621
  502MOL0     H66218   4.484   9.830   1.996  1.2387 -1.1276  0.1683
  502MOL0     H66219   4.361   9.702   1.974 -1.2774  1.9716  0.1826
  502MOL0     H66220   4.611   9.760   1.799  0.2805 -0.8088  0.3975
  502MOL0     H66221   4.445   9.790   1.757  0.2751  0.7915  0.3366
  502MOL0     H66222   4.578   9.586   1.670  0.9084 -1.3065 -0.6075
  502MOL0     H66223   4.540   9.491   1.816  4.2316  0.5418 -1.0652
  502MOL0     H66224   4.325   9.636   1.640  2.1969 -0.4524 -3.0556
  502MOL0     H66225   4.288   9.514   1.747 -1.0748 -1.8677 -2.6733
  502MOL0     H66226   4.119   9.532   1.501 -2.4706 -0.9070 -2.2525
  502MOL0     H66227   4.070   9.618   1.279  0.6944 -0.9026 -2.9327
  502MOL0     H66228   3.833   9.654   0.977 -2.0658  2.7298 -1.6200
  502MOL0     H66229   3.728   9.743   0.811 -0.6536  0.5966 -1.5257
  502MOL0     H66230   3.702   9.834   0.414  1.3916 -1.4724 -0.3322
  502MOL0     H66231   3.644   9.791   0.576 -1.0741  0.3536 -1.2369
  502MOL0     H66232   3.776   9.590   0.581  2.4626  0.0612 -1.3276
  502MOL0     H66233   3.873   9.641   0.450 -0.8392 -2.6465 -2.1395
  502MOL0     H66234   3.644   9.654   0.310  0.3537 -0.1528 -0.7327
  502MOL0     H66235   3.581   9.557   0.455 -0.1190  2.6120  0.8966
  502MOL0     H66236   3.759   9.392   0.396 -2.1077 -0.4177 -1.1320
  502MOL0     H66237   3.664   9.403   0.251  0.5955  1.3743 -1.4651
  502MOL0     H66238   3.936   9.529   0.300  0.4445 -0.4051 -0.4817
  502MOL0     H66239   3.844   9.559   0.151 -2.2366  0.4446  1.5062
  502MOL0     H66240   3.828   9.301   0.139  0.7115  0.0411 -2.9043
  502MOL0     H66241   3.957   9.309   0.265 -2.0225 -0.3402  0.0463
  502MOL0     H66242   3.953   9.426  -0.011 -0.4186 -0.2320  0.3586
  502MOL0     H66243   4.099   9.438   0.092 -0.2078  0.7110 -4.2041
  502MOL0     H66244   3.981   9.186  -0.041  2.7614 -2.7396 -0.2760
  502MOL0     H66245   4.117   9.182   0.078  1.2571  3.3471  1.1199
  502MOL0     H66246   4.096   9.886   0.640 -1.4119  1.9235  0.8351
  502MOL0     H66247   4.218   9.784   0.825  0.1427 -1.2434  3.2938
  502MOL0     H66248   4.477   9.544   1.151  0.0501  1.7640  0.8110
  502MOL0     H66249   4.530   9.449   1.360 -0.1568 -1.3808 -3.7121
  502MOL0     H66250   4.219   9.207   1.329  0.8071 -0.7227  0.5582
  502MOL0     H66251   4.015   9.179   1.183 -0.1991  0.4437  0.4746
  502MOL0     H66252   3.805   8.674   0.807  2.4918  1.3462 -0.5047
  502MOL0     H66253   3.580   8.697   0.711 -0.7835  1.3226 -2.7098
  502MOL0     H66254   3.437   8.782   0.534 -1.1310  0.2807 -3.1315
  502MOL0     H66255   3.422   8.947   0.492  2.3583 -2.6474 -0.6780
  502MOL0     H66256   3.240   8.773   0.655  4.3841  0.7521  0.7588
  502MOL0     H66257   3.192   8.933   0.599  3.4731  2.1288 -0.1467
  502MOL0     H66258   3.283   8.698   0.435  0.2736  1.6727  2.4750
  502MOL0     H66259   3.218   8.839   0.358 -0.4365 -0.4058 -0.9167
  502MOL0     H66260   3.035   8.715   0.560  1.0800 -1.1667  0.3390
  502MOL0     H66261   3.005   8.799   0.408 -1.2269 -0.1373  2.6029
  502MOL0     H66262   3.061   8.374   0.366 -0.7028  0.2305 -0.3666
  502MOL0     H66263   3.586   9.123   0.783  2.9361  0.8546  0.6913
  502MOL0     H66264   3.799   9.095   0.897 -0.2458 -0.9010  0.5594
  503MOL0     O66265   7.185   7.098   4.392  0.2684  0.8833  0.4746
  503MOL0     C66266   7.206   6.991   4.441 -0.6321  0.7847  0.4316
  503MOL0     O66267   7.208   6.972   4.577  0.1409 -0.8871 -0.2629
  503MOL0     C66268   7.196   7.079   4.673 -0.4223  0.1369  0.9769
  503MOL0     C66269   7.260   7.202   4.651  0.6790 -0.1183  0.3988
  503MOL0     C66270   7.271   7.292   4.763  0.0580 -0.1313 -0.2497
  503MOL0     C66271   7.206   7.262   4.884 -0.7936  0.4300 -0.5534
  503MOL0     O66272   7.182   7.355   4.981  0.1881  0.0614 -0.4666
  503MOL0     C66273   7.155   7.495   4.968  0.6873 -1.1239  0.6695
  503MOL0     C66274   7.244   7.581   5.069 -0.0025 -0.4011  0.0071
  503MOL0     C66275   7.186   7.726   5.079 -0.2307  0.3246  0.0669
  503MOL0     C66276   7.170   7.799   4.948  0.1053 -0.3524  0.4866
  503MOL0     C66277   7.090   7.935   4.967 -0.3960  0.2896  0.2201
  503MOL0     C66278   7.009   7.977   4.837  0.0906  0.7132 -0.0202
  503MOL0     C66279   6.894   8.082   4.853  0.0698 -0.4619 -0.2853
  503MOL0     C66280   6.805   8.091   4.722  0.0503  0.1727  0.8059
  503MOL0     N66281   6.695   8.185   4.755  0.2338  0.6537  0.3224
  503MOL0     C66282   6.631   8.264   4.662  0.2862 -0.2444  0.2688
  503MOL0     C66283   6.525   8.307   4.729  0.0585 -0.8733 -0.9001
  503MOL0     C66284   6.417   8.387   4.668 -0.5011 -1.1732 -0.0615
  503MOL0     C66285   6.463   8.531   4.682  0.2609 -0.3035  0.0572
  503MOL0     C66286   6.465   8.609   4.809  0.8107 -0.9999 -0.2080
  503MOL0     C66287   6.329   8.580   4.883 -0.1188 -0.6978  0.4791
  503MOL0     O66288   6.219   8.559   4.792 -0.1200  0.2538 -0.3737
  503MOL0     C66289   6.134   8.657   4.744  0.7900 -0.5468  0.1713
  503MOL0     C66290   6.168   8.798   4.760 -0.8671  0.0971  0.1249
  503MOL0     C66291   6.069   8.892   4.734 -0.9695  0.6780 -0.4401
  503MOL0     C66292   5.954   8.861   4.663 -0.1026 -0.2005 -0.1169
  503MOL0     C66293   5.851   8.969   4.628 -0.2568 -0.3834  0.0533
  503MOL0     O66294   5.755   8.947   4.542 -0.1421  0.2418  0.3524
  503MOL0     C66295   5.683   9.052   4.488 -0.0325 -0.4013 -0.1592
  503MOL0     C66296   5.735   9.119   4.382  0.8838 -0.7468  0.6799
  503MOL0     C66297   5.678   9.225   4.325 -0.0834 -0.0460  0.6072
  503MOL0     C66298   5.554   9.262   4.365 -0.7280  0.4703 -0.2198
  503MOL0     O66299   5.515   9.378   4.307  0.4854 -0.0877  0.2748
  503MOL0     C66300   5.380   9.396   4.261 -0.2896  0.0198  0.1458
  503MOL0     C66301   5.382   9.449   4.117 -0.2091 -0.2651  0.5416
  503MOL0     C66302   5.371   9.340   4.005 -0.2481 -0.4436 -1.3086
  503MOL0     C66303   5.240   9.271   3.993  0.4454  1.1258 -0.0980
  503MOL0     C66304   5.206   9.192   3.862  0.3313 -0.0421 -0.3460
  503MOL0     C66305   5.309   9.087   3.844 -0.4600 -0.1051  0.6285
  503MOL0     C66306   5.294   8.972   3.937  0.1232  0.0269 -0.5659
  503MOL0     C66307   5.383   8.858   3.895  0.1724  0.0546 -0.3717
  503MOL0    Cl66308   5.420   8.762   4.051 -0.4496 -0.1741  0.6896
  503MOL0     C66309   5.480   9.191   4.460 -0.0163  0.5977 -0.0885
  503MOL0     C66310   5.556   9.090   4.525  1.1850  0.1596  0.1530
  503MOL0     O66311   5.871   9.085   4.677  0.0950  0.1113 -0.5066
  503MOL0     C66312   5.923   8.720   4.635 -0.0862  0.0980  0.1995
  503MOL0     C66313   6.013   8.623   4.679 -0.3409 -0.9047 -0.3673
  503MOL0     N66314   6.531   8.268   4.858 -0.6272  0.8649 -0.3852
  503MOL0     N66315   6.634   8.194   4.879 -0.0246 -0.1051  0.5238
  503MOL0     C66316   7.151   7.134   4.899  0.1747 -0.0156  0.2675
  503MOL0     C66317   7.158   7.039   4.797  0.2720 -0.4619  0.1374
  503MOL0     C66318   7.235   6.870   4.359 -0.3054  0.2198  0.6172
  503MOL0     C66319   7.265   6.872   4.223  0.4269  0.4947  0.5423
  503MOL0     C66320   7.303   6.760   4.143 -0.5655 -0.4243 -0.9820
  503MOL0     C66321   7.311   6.642   4.209  0.0401  0.2025 -0.6485
  503MOL0     O66322   7.359   6.522   4.145  0.7447 -1.2126  0.0085
  503MOL0     C66323   7.392   6.534   4.008  0.1372 -0.5311 -1.4377
  503MOL0     C66324   7.438   6.396   3.950 -0.6851  0.2373 -0.2706
  503MOL0     C66325   7.590   6.396   3.901 -0.2222 -0.1782 -0.1931
  503MOL0     C66326   7.652   6.257   3.892  0.7022  0.7773  0.2747
  503MOL0     C66327   7.571   6.176   3.799 -0.0785 -0.7876 -0.0618
  503MOL0     C66328   7.509   6.119   3.710  0.2882  0.0581 -0.0297
  503MOL0     C66329   7.283   6.629   4.347  0.2540  0.5271  0.2904
  503MOL0     C66330   7.243   6.743   4.416  0.1324  0.3501  0.2575
  503MOL0     H66331   7.304   7.225   4.555  1.3987  1.2871  1.0360
  503MOL0     H66332   7.322   7.388   4.759  1.7286 -0.9963 -0.8145
  503MOL0     H66333   7.054   7.526   4.995  1.0140  0.9654 -0.2810
  503MOL0     H66334   7.182   7.535   4.869  1.3656  1.0584  1.6802
  503MOL0     H66335   7.344   7.587   5.025 -1.0388  1.2569 -2.3294
  503MOL0     H66336   7.250   7.524   5.162  3.1146 -1.6110 -0.8061
  503MOL0     H66337   7.250   7.789   5.142  1.2049 -0.8543 -0.1819
  503MOL0     H66338   7.085   7.729   5.121 -1.2614 -0.3702 -2.1731
  503MOL0     H66339   7.267   7.815   4.899  0.7135 -5.4801 -0.5507
  503MOL0     H66340   7.112   7.741   4.876 -0.8478  0.7718  0.3318
  503MOL0     H66341   7.165   8.009   4.996  0.0083 -0.4542  1.1231
  503MOL0     H66342   7.022   7.918   5.051 -2.6680 -1.8971 -1.8663
  503MOL0     H66343   6.966   7.883   4.803  1.5131  0.2615 -0.6577
  503MOL0     H66344   7.074   7.999   4.752 -2.4767  2.6873 -1.6337
  503MOL0     H66345   6.830   8.059   4.938 -1.2530  1.4157 -0.7156
  503MOL0     H66346   6.938   8.178   4.881 -1.7865  0.3263  0.1016
  503MOL0     H66347   6.754   7.998   4.697 -0.5256  0.4500  0.9500
  503MOL0     H66348   6.861   8.121   4.633 -1.2489 -3.5275 -1.4593
  503MOL0     H66349   6.654   8.273   4.556  0.1172 -1.0031  0.1628
  503MOL0     H66350   6.327   8.368   4.727  0.0866  2.1670  2.2011
  503MOL0     H66351   6.396   8.368   4.562 -0.6140 -1.7755  0.0632
  503MOL0     H66352   6.408   8.590   4.608  1.4840  0.6250 -0.1376
  503MOL0     H66353   6.560   8.530   4.632  0.2221 -0.8268 -0.0175
  503MOL0     H66354   6.542   8.570   4.876  0.2084 -3.5042 -0.8993
  503MOL0     H66355   6.497   8.714   4.799  2.0373 -1.1020  1.9736
  503MOL0     H66356   6.310   8.665   4.948 -2.5120 -0.2209 -0.7551
  503MOL0     H66357   6.348   8.495   4.950 -2.0336 -1.9658 -0.5012
  503MOL0     H66358   6.260   8.836   4.802 -1.4412  0.0629  1.4750
  503MOL0     H66359   6.087   8.995   4.763 -2.4576  0.4008  1.6911
  503MOL0     H66360   5.833   9.087   4.346  1.7206  1.6040  0.7047
  503MOL0     H66361   5.717   9.281   4.240  0.2922 -0.8749  0.2186
  503MOL0     H66362   5.314   9.444   4.334  0.0219 -2.1351  1.9397
  503MOL0     H66363   5.340   9.296   4.245  0.0400 -0.2613  1.0047
  503MOL0     H66364   5.480   9.492   4.095 -0.8082  0.7287 -0.2666
  503MOL0     H66365   5.292   9.511   4.113 -0.7761 -1.1360 -0.6681
  503MOL0     H66366   5.449   9.266   4.028 -1.3363 -0.5406  2.8483
  503MOL0     H66367   5.391   9.389   3.909  1.9988  2.5066  0.4659
  503MOL0     H66368   5.213   9.206   4.077  0.0268  0.3589 -0.8074
  503MOL0     H66369   5.169   9.354   3.995  0.6455  1.4080 -2.2684
  503MOL0     H66370   5.194   9.244   3.767 -2.4714  1.5431  0.7348
  503MOL0     H66371   5.100   9.165   3.860  0.0707  0.9146  0.1471
  503MOL0     H66372   5.411   9.123   3.853 -0.2038 -1.1111  2.0313
  503MOL0     H66373   5.290   9.041   3.746 -1.3436 -3.8492  2.3420
  503MOL0     H66374   5.336   9.016   4.027  0.8564 -2.1039  0.1962
  503MOL0     H66375   5.190   8.936   3.936  0.6458 -1.7369  1.1640
  503MOL0     H66376   5.480   8.899   3.865  2.1183 -3.6225  0.2223
  503MOL0     H66377   5.343   8.794   3.816 -0.8917  0.3757 -0.1041
  503MOL0     H66378   5.390   9.222   4.512  0.3429  0.4370  0.6546
  503MOL0     H66379   5.513   9.034   4.607 -1.5181  0.9746 -0.6337
  503MOL0     H66380   5.845   8.670   4.579  2.0865 -0.4019 -2.5934
  503MOL0     H66381   5.987   8.520   4.659  1.1318 -1.4154  0.2655
  503MOL0     H66382   7.116   7.104   4.997  2.5495  0.0477  1.2184
  503MOL0     H66383   7.117   6.940   4.817 -0.7881  0.0216  0.4438
  503MOL0     H66384   7.251   6.970   4.177 -3.6249 -0.0354  0.2913
  503MOL0     H66385   7.332   6.766   4.039  2.7700  1.1482 -0.1096
  503MOL0     H66386   7.472   6.606   3.989 -2.0919  2.3373 -0.5084
  503MOL0     H66387   7.307   6.568   3.948 -0.5261 -0.4693 -0.4806
  503MOL0     H66388   7.418   6.325   4.031 -3.5730 -0.6626 -1.6328
  503MOL0     H66389   7.370   6.377   3.866 -0.1444  2.9034 -1.4386
  503MOL0     H66390   7.640   6.438   3.990  2.4802 -2.2347 -0.6105
  503MOL0     H66391   7.607   6.461   3.815  1.1432 -1.3481 -0.8324
  503MOL0     H66392   7.756   6.263   3.860  0.5509 -1.5634 -0.8229
  503MOL0     H66393   7.651   6.208   3.990 -0.0223 -0.5373 -0.3657
  503MOL0     H66394   7.483   6.060   3.625 -1.5923 -0.8803  1.1332
  503MOL0     H66395   7.307   6.541   4.405  1.5224  2.6727  3.2776
  503MOL0     H66396   7.213   6.733   4.520  0.2530  0.5043  0.3088
  504MOL0     O66397   6.662   8.079   2.596  0.0654 -0.6303 -0.2740
  504MOL0     C66398   6.734   8.119   2.498  1.2087  0.4557 -0.5324
  504MOL0     O66399   6.729   8.063   2.372  0.1635  0.1281 -0.4951
  504MOL0     C66400   6.661   7.944   2.359  0.3731  0.0735 -0.8704
  504MOL0     C66401   6.691   7.825   2.435  0.8557 -0.4727  0.1021
  504MOL0     C66402   6.617   7.705   2.403 -0.1599  0.4539  1.0862
  504MOL0     C66403   6.513   7.713   2.303  0.8477 -0.4226  0.6356
  504MOL0     O66404   6.440   7.601   2.276  0.2149 -0.5399  1.4074
  504MOL0     C66405   6.434   7.487   2.366 -0.5777 -0.5730  0.1885
  504MOL0     C66406   6.338   7.372   2.319 -0.6488 -0.5926 -0.6533
  504MOL0     C66407   6.188   7.404   2.348  0.2617 -0.1671 -0.6905
  504MOL0     C66408   6.090   7.300   2.294 -0.7439  0.9229 -0.3369
  504MOL0     C66409   5.945   7.345   2.304  0.7591 -0.1635 -0.3129
  504MOL0     C66410   5.844   7.245   2.246 -0.9206  0.1341  0.0909
  504MOL0     C66411   5.705   7.308   2.237  0.6045 -1.4968 -0.4315
  504MOL0     C66412   5.607   7.206   2.175  0.1690 -1.2442  0.7348
  504MOL0     N66413   5.603   7.079   2.255 -0.0579 -0.0661  0.6836
  504MOL0     C66414   5.557   7.079   2.383 -0.3731 -0.1957  0.1453
  504MOL0     C66415   5.606   6.961   2.435  0.1366 -0.5417 -0.6716
  504MOL0     C66416   5.585   6.917   2.577  0.6531  0.4438  0.0881
  504MOL0     C66417   5.456   6.835   2.575 -0.1362 -0.4348  0.3609
  504MOL0     C66418   5.366   6.883   2.693  0.3246 -0.4124 -0.2035
  504MOL0     C66419   5.219   6.858   2.649  0.3612  0.1264 -0.2754
  504MOL0     O66420   5.203   6.721   2.604 -0.4337  0.2914  0.8271
  504MOL0     C66421   5.080   6.686   2.542 -0.7549  0.4129 -0.6022
  504MOL0     C66422   5.085   6.575   2.458  0.2997 -0.1255  0.0975
  504MOL0     C66423   4.960   6.512   2.421  0.2096 -0.4040 -0.5532
  504MOL0     C66424   4.837   6.571   2.451  0.0571 -0.1807  0.3941
  504MOL0     C66425   4.708   6.516   2.402 -0.1021  0.0651  0.6626
  504MOL0     O66426   4.725   6.396   2.338  0.6018 -0.6889 -0.3599
  504MOL0     C66427   4.615   6.331   2.287  0.0712  0.4830  0.2217
  504MOL0     C66428   4.614   6.196   2.283 -0.4323 -0.0053 -0.3412
  504MOL0     C66429   4.502   6.121   2.255 -0.0701  0.2390  0.3502
  504MOL0     C66430   4.386   6.175   2.209 -0.1204 -0.1524 -0.8716
  504MOL0     O66431   4.272   6.106   2.181  0.6639  0.3514 -0.3152
  504MOL0     C66432   4.198   6.156   2.073 -0.0433 -0.2867 -0.3452
  504MOL0     C66433   4.139   6.023   2.004  0.3237 -0.8094  0.1523
  504MOL0     C66434   4.042   5.951   2.102 -0.2632  0.0766 -1.2524
  504MOL0     C66435   3.904   6.012   2.105 -0.2026  0.6428  0.3320
  504MOL0     C66436   3.831   5.984   2.231 -0.7972  0.2431 -0.1705
  504MOL0     C66437   3.714   6.074   2.231  0.1025 -0.8169 -1.2839
  504MOL0     C66438   3.613   6.031   2.132  0.0205  0.1706 -0.6360
  504MOL0     C66439   3.509   6.138   2.119  0.0992 -1.1286  0.5147
  504MOL0    Cl66440   3.403   6.109   1.979  0.3228  0.2054  0.1065
  504MOL0     C66441   4.384   6.316   2.213  1.3244 -0.7664  0.0875
  504MOL0     C66442   4.494   6.391   2.251  0.7204  0.3512  0.3892
  504MOL0     O66443   4.598   6.559   2.435 -0.5617  0.1438 -0.5448
  504MOL0     C66444   4.835   6.678   2.546  0.1636 -0.3554 -0.6622
  504MOL0     C66445   4.960   6.732   2.589  0.7308  0.0439 -0.9083
  504MOL0     N66446   5.679   6.897   2.339  0.7724  0.1896 -0.2004
  504MOL0     N66447   5.678   6.968   2.230 -0.3492 -0.2533  0.3590
  504MOL0     C66448   6.486   7.828   2.231 -0.2078  0.9238  0.4936
  504MOL0     C66449   6.568   7.943   2.259 -0.2816  0.0561  1.0893
  504MOL0     C66450   6.815   8.237   2.529  0.2083  1.1979  0.2469
  504MOL0     C66451   6.794   8.337   2.628 -0.3358  0.1534 -0.6245
  504MOL0     C66452   6.872   8.451   2.634  0.0886 -0.2743 -0.0125
  504MOL0     C66453   6.981   8.469   2.548 -0.7933 -0.5658 -1.1427
  504MOL0     O66454   7.059   8.583   2.572  0.2367 -0.4726  0.9719
  504MOL0     C66455   7.177   8.596   2.497  0.2041  0.1373 -0.0849
  504MOL0     C66456   7.271   8.676   2.587 -1.2503 -0.2425 -0.0690
  504MOL0     C66457   7.320   8.605   2.712 -0.5649 -0.3745 -0.2353
  504MOL0     C66458   7.374   8.457   2.707 -0.2482 -0.4953 -0.1456
  504MOL0     C66459   7.367   8.388   2.839  1.0295 -0.2287  0.0801
  504MOL0     C66460   7.349   8.354   2.958 -0.3612  0.0789  0.7166
  504MOL0     C66461   6.993   8.378   2.444 -0.3555  0.5481  0.5601
  504MOL0     C66462   6.916   8.260   2.438 -0.2809 -1.0040  0.0873
  504MOL0     H66463   6.760   7.825   2.519 -0.1046 -1.4103  0.9159
  504MOL0     H66464   6.618   7.622   2.473  1.0562 -1.6769 -1.2701
  504MOL0     H66465   6.414   7.516   2.470 -1.1392  0.9339 -0.3121
  504MOL0     H66466   6.538   7.454   2.367  0.4232  2.2353 -0.8886
  504MOL0     H66467   6.359   7.274   2.364  3.2601 -0.4296 -1.7734
  504MOL0     H66468   6.346   7.363   2.210  1.1162  2.1702 -0.8302
  504MOL0     H66469   6.175   7.504   2.305 -2.6769  0.0574  0.5253
  504MOL0     H66470   6.177   7.408   2.456 -1.9935 -2.4377 -0.7616
  504MOL0     H66471   6.110   7.277   2.189 -0.0986 -0.3556  0.0531
  504MOL0     H66472   6.110   7.212   2.355 -1.4338  0.6655 -0.4656
  504MOL0     H66473   5.938   7.430   2.235  0.8142  0.2249  0.1604
  504MOL0     H66474   5.917   7.359   2.408 -0.5735  2.5790 -0.9576
  504MOL0     H66475   5.837   7.148   2.297  0.7518  0.0650  0.2622
  504MOL0     H66476   5.878   7.225   2.144 -3.6152 -2.4448 -0.4552
  504MOL0     H66477   5.671   7.339   2.336  2.2909  2.7808 -0.9654
  504MOL0     H66478   5.709   7.392   2.167 -2.5296 -1.3331 -0.5739
  504MOL0     H66479   5.651   7.188   2.077  0.0985 -0.5302  0.5656
  504MOL0     H66480   5.508   7.251   2.165 -0.2184 -1.5481  2.7137
  504MOL0     H66481   5.489   7.149   2.430  0.5964  2.4576 -2.1293
  504MOL0     H66482   5.583   7.001   2.647 -0.2227 -1.0455  1.9388
  504MOL0     H66483   5.669   6.854   2.605 -0.2057 -0.2577  1.1589
  504MOL0     H66484   5.483   6.729   2.576  1.2607 -0.1377 -1.1743
  504MOL0     H66485   5.401   6.849   2.482  1.9600 -0.1771 -0.9109
  504MOL0     H66486   5.391   6.834   2.788 -1.8235  0.5620  0.9232
  504MOL0     H66487   5.373   6.991   2.708 -1.1234 -0.2886 -0.2635
  504MOL0     H66488   5.185   6.910   2.559 -0.2679 -3.8922 -2.6341
  504MOL0     H66489   5.170   6.868   2.746 -0.1485 -1.8457 -0.2869
  504MOL0     H66490   5.184   6.539   2.432  0.5205 -0.8480  1.8045
  504MOL0     H66491   4.968   6.421   2.362 -1.8184 -0.1833 -1.2332
  504MOL0     H66492   4.705   6.148   2.317 -0.2597  0.9062  0.5125
  504MOL0     H66493   4.503   6.013   2.262 -1.2692  0.0245 -1.8441
  504MOL0     H66494   4.253   6.201   1.990 -0.4055  0.5475 -0.1493
  504MOL0     H66495   4.120   6.229   2.097 -0.4280 -0.8703  0.1827
  504MOL0     H66496   4.220   5.960   1.967  1.7683 -0.3100  2.2808
  504MOL0     H66497   4.081   6.058   1.918  1.6158  2.2076  0.3713
  504MOL0     H66498   4.083   5.948   2.204  0.0248 -2.2727 -1.3685
  504MOL0     H66499   4.050   5.845   2.076  1.7015 -0.6447  1.7269
  504MOL0     H66500   3.914   6.121   2.096 -0.0017  0.4423 -3.8376
  504MOL0     H66501   3.855   5.965   2.019  1.1130  0.0210 -0.1141
  504MOL0     H66502   3.893   6.001   2.320 -1.5462  4.4291 -0.2752
  504MOL0     H66503   3.803   5.878   2.229 -0.3273 -0.0275  2.7879
  504MOL0     H66504   3.736   6.175   2.195  0.3778 -0.6808 -0.7516
  504MOL0     H66505   3.686   6.078   2.337 -0.6703  0.6458 -1.5217
  504MOL0     H66506   3.657   6.017   2.033  0.4849  0.7847 -0.5221
  504MOL0     H66507   3.564   5.939   2.165 -2.8018  1.6285 -0.4648
  504MOL0     H66508   3.561   6.233   2.105 -3.7001  0.8855 -1.5931
  504MOL0     H66509   3.441   6.146   2.204 -2.0132  0.1385 -1.1914
  504MOL0     H66510   4.289   6.360   2.186  0.4586 -1.5132  1.7070
  504MOL0     H66511   4.474   6.496   2.235 -0.7319 -0.2479 -2.3050
  504MOL0     H66512   4.743   6.721   2.583  0.3235 -2.7405  2.9955
  504MOL0     H66513   4.951   6.815   2.659 -2.5978 -1.0404  0.1661
  504MOL0     H66514   6.412   7.817   2.152 -0.6448 -0.6171  1.0986
  504MOL0     H66515   6.553   8.028   2.193  0.7787 -3.5776 -4.4411
  504MOL0     H66516   6.728   8.335   2.715  1.4076 -0.9194  0.7392
  504MOL0     H66517   6.853   8.524   2.711 -1.4300  0.4157 -0.9972
  504MOL0     H66518   7.156   8.634   2.396 -1.0007 -0.3814 -0.0492
  504MOL0     H66519   7.222   8.499   2.474 -0.4287 -0.5165  1.3478
  504MOL0     H66520   7.366   8.687   2.533  1.4131 -0.8613  4.0343
  504MOL0     H66521   7.243   8.781   2.603 -1.9883 -0.2615 -1.1159
  504MOL0     H66522   7.238   8.619   2.782 -1.4094  2.1544 -1.6002
  504MOL0     H66523   7.399   8.669   2.752 -0.5884 -1.1381  1.0718
  504MOL0     H66524   7.302   8.404   2.644 -1.0848 -2.2173  2.1161
  504MOL0     H66525   7.476   8.453   2.670 -0.6578 -2.0591 -1.2148
  504MOL0     H66526   7.357   8.316   3.058 -0.9164 -2.9297 -0.2608
  504MOL0     H66527   7.073   8.391   2.371 -0.3046 -4.6941 -0.7020
  504MOL0     H66528   6.938   8.185   2.362  0.6726 -0.5893 -0.0654
  505MOL0     O66529   7.355   3.792   2.325 -0.2651 -0.3563  0.0328
  505MOL0     C66530   7.296   3.681   2.331  0.2599 -1.0841  0.7439
  505MOL0     O66531   7.286   3.588   2.232 -0.0053  0.2663 -0.6251
  505MOL0     C66532   7.356   3.592   2.114  0.4630  0.2637  0.5302
  505MOL0     C66533   7.470   3.671   2.087  0.7824  0.4199  0.4331
  505MOL0     C66534   7.529   3.655   1.964 -0.0849 -0.2672  0.0469
  505MOL0     C66535   7.477   3.577   1.859 -1.2064 -0.1191  0.2665
  505MOL0     O66536   7.556   3.561   1.747  0.3477  0.1661  0.0537
  505MOL0     C66537   7.550   3.433   1.676 -0.3711 -0.5690 -1.1571
  505MOL0     C66538   7.688   3.368   1.642 -0.5675  0.1789 -0.3602
  505MOL0     C66539   7.749   3.330   1.774 -0.2944 -0.1728  0.8263
  505MOL0     C66540   7.863   3.231   1.770  0.9281 -0.0550 -0.4829
  505MOL0     C66541   7.820   3.085   1.743 -0.1540 -0.7819 -0.2571
  505MOL0     C66542   7.923   2.996   1.668  0.1948 -0.4244 -0.1019
  505MOL0     C66543   8.052   2.980   1.755  0.7824 -1.0165  0.3532
  505MOL0     C66544   8.170   2.913   1.683  0.0673 -0.0357  0.2213
  505MOL0     N66545   8.155   2.765   1.643 -0.0850  0.0252 -0.0286
  505MOL0     C66546   8.233   2.684   1.565  0.7777  0.5342 -0.9883
  505MOL0     C66547   8.162   2.570   1.554 -0.6223  0.5509  0.2027
  505MOL0     C66548   8.195   2.438   1.483 -0.5235  0.9106 -0.6524
  505MOL0     C66549   8.200   2.439   1.336 -0.2561  0.1688 -0.1044
  505MOL0     C66550   8.340   2.493   1.294  0.7365 -0.1545  0.7602
  505MOL0     C66551   8.346   2.478   1.141 -0.5062 -0.3167  0.3159
  505MOL0     O66552   8.372   2.336   1.109 -1.3025  0.7983  0.2903
  505MOL0     C66553   8.507   2.286   1.119  0.5778 -0.8446  0.9417
  505MOL0     C66554   8.517   2.156   1.087  1.1242 -0.1556 -0.7840
  505MOL0     C66555   8.634   2.090   1.103 -0.2767  0.3057  0.3966
  505MOL0     C66556   8.751   2.145   1.161 -0.0958  0.8328 -0.3108
  505MOL0     C66557   8.881   2.082   1.179  0.0350 -0.1815 -0.1326
  505MOL0     O66558   8.991   2.167   1.206  1.1583  0.2171  0.5068
  505MOL0     C66559   9.122   2.130   1.182 -0.7215  0.5516  0.2355
  505MOL0     C66560   9.210   2.197   1.266 -0.5235 -0.1647 -0.8193
  505MOL0     C66561   9.347   2.168   1.260  0.0763 -0.5813  0.1325
  505MOL0     C66562   9.397   2.085   1.160  0.7594  0.1651 -1.4695
  505MOL0     O66563   9.522   2.046   1.150  0.6646  0.0505  0.5074
  505MOL0     C66564   9.595   1.977   1.262  0.0343  0.6950 -0.4405
  505MOL0     C66565   9.732   1.926   1.228  0.6880  0.4114  0.2488
  505MOL0     C66566   9.755   1.875   1.086 -0.2326  0.0349 -0.1477
  505MOL0     C66567   9.665   1.760   1.041  0.7392  0.1799  1.1945
  505MOL0     C66568   9.693   1.723   0.897 -0.6411 -0.0220  0.1422
  505MOL0     C66569   9.572   1.667   0.821  0.1887  0.3173  0.2106
  505MOL0     C66570   9.595   1.609   0.686 -0.0068  0.2723  0.0328
  505MOL0     C66571   9.483   1.540   0.616 -0.4635  0.1344  0.8985
  505MOL0    Cl66572   9.525   1.546   0.428 -0.1942 -0.1553 -0.0431
  505MOL0     C66573   9.310   2.022   1.071 -0.2668  0.2091  1.1415
  505MOL0     C66574   9.171   2.050   1.083 -0.4890 -0.3718  0.9280
  505MOL0     O66575   8.897   1.961   1.158 -0.0083  0.2349  0.0615
  505MOL0     C66576   8.742   2.278   1.190 -0.0102 -0.3577  0.3681
  505MOL0     C66577   8.624   2.351   1.171  0.0443  0.2138 -0.0044
  505MOL0     N66578   8.036   2.591   1.614  0.4144 -0.1507  0.3256
  505MOL0     N66579   8.039   2.697   1.685  0.3368  0.3228  1.1926
  505MOL0     C66580   7.363   3.500   1.885 -0.0641  0.2199  0.4964
  505MOL0     C66581   7.307   3.512   2.010  1.4514  0.0619  0.1220
  505MOL0     C66582   7.252   3.635   2.463 -0.4528 -0.5511 -0.3526
  505MOL0     C66583   7.229   3.502   2.495  0.9451  0.7711  0.1268
  505MOL0     C66584   7.172   3.469   2.619  0.2310  0.9565  0.1225
  505MOL0     C66585   7.163   3.571   2.710 -0.3168  0.1872  0.2617
  505MOL0     O66586   7.117   3.544   2.828  0.3988  0.1203 -0.1815
  505MOL0     C66587   7.215   3.548   2.930 -0.3835  0.9057 -0.5506
  505MOL0     C66588   7.216   3.427   2.999 -0.6544 -1.0224 -1.1291
  505MOL0     C66589   7.294   3.439   3.137 -0.5815 -0.8167 -0.4704
  505MOL0     C66590   7.301   3.303   3.207  0.7366  0.3391  0.0834
  505MOL0     C66591   7.160   3.269   3.243  0.5954 -0.0450  0.1465
  505MOL0     C66592   7.038   3.259   3.276  0.0530 -0.2045  0.0711
  505MOL0     C66593   7.185   3.702   2.683  0.8053  1.1973  0.6821
  505MOL0     C66594   7.236   3.737   2.562 -0.9952 -0.1072 -0.0521
  505MOL0     H66595   7.519   3.728   2.166  3.1211 -0.0215 -0.6279
  505MOL0     H66596   7.618   3.711   1.934  1.1012 -0.6939  2.4965
  505MOL0     H66597   7.491   3.440   1.584 -2.4621 -3.4257 -0.1916
  505MOL0     H66598   7.500   3.354   1.734 -0.1253  0.9544  1.2840
  505MOL0     H66599   7.751   3.425   1.573 -2.1010 -0.1642 -2.1347
  505MOL0     H66600   7.666   3.285   1.575  2.2080 -0.2996 -0.7927
  505MOL0     H66601   7.664   3.284   1.824 -1.5771 -1.7734 -2.5105
  505MOL0     H66602   7.769   3.427   1.821 -2.1707  0.3944  0.5482
  505MOL0     H66603   7.934   3.254   1.689  2.0058  4.0936  1.3577
  505MOL0     H66604   7.906   3.242   1.869 -1.5871 -0.4986  0.7361
  505MOL0     H66605   7.738   3.088   1.670  0.8564 -1.8309 -1.4877
  505MOL0     H66606   7.783   3.044   1.838  1.8543  0.4908  1.1524
  505MOL0     H66607   7.961   3.048   1.580  0.0820 -0.2976 -0.0749
  505MOL0     H66608   7.876   2.901   1.642 -1.1317 -0.1546  1.1441
  505MOL0     H66609   8.086   3.081   1.781  1.0216 -0.8613 -0.5286
  505MOL0     H66610   8.041   2.912   1.840  0.1150 -1.2994  0.0437
  505MOL0     H66611   8.255   2.903   1.751  0.3345  1.2224  0.0960
  505MOL0     H66612   8.198   2.973   1.596 -0.9913 -1.6887 -1.3339
  505MOL0     H66613   8.335   2.704   1.534  1.5616  1.6520  1.9604
  505MOL0     H66614   8.123   2.361   1.509 -2.7570  2.7014 -1.1910
  505MOL0     H66615   8.293   2.405   1.520 -1.1878  0.0639  0.4006
  505MOL0     H66616   8.124   2.485   1.273 -1.4601  0.9101  1.7769
  505MOL0     H66617   8.202   2.333   1.310 -1.0135 -0.3315  1.7175
  505MOL0     H66618   8.345   2.599   1.321  1.6469 -0.1534  0.6064
  505MOL0     H66619   8.427   2.442   1.335  3.1549 -0.1708 -3.7167
  505MOL0     H66620   8.426   2.537   1.095 -2.0597  0.0954 -2.0003
  505MOL0     H66621   8.247   2.510   1.108  1.3123  1.5202 -4.0955
  505MOL0     H66622   8.435   2.104   1.039  1.2404  1.0746 -2.4043
  505MOL0     H66623   8.626   1.989   1.063  0.1130  1.1354 -1.9683
  505MOL0     H66624   9.176   2.259   1.348 -0.5429 -2.3467  0.9139
  505MOL0     H66625   9.414   2.208   1.335  1.4747 -2.0760 -0.2533
  505MOL0     H66626   9.529   1.894   1.289 -2.1113  1.6642 -2.3511
  505MOL0     H66627   9.599   2.042   1.350 -1.1319 -1.2268  1.1070
  505MOL0     H66628   9.774   1.863   1.307  0.3741  1.7880  1.5611
  505MOL0     H66629   9.797   2.013   1.238  3.8302 -1.6589 -0.7254
  505MOL0     H66630   9.858   1.839   1.081 -0.1182  0.4706 -1.2516
  505MOL0     H66631   9.746   1.961   1.019  0.8307  0.8597  0.7427
  505MOL0     H66632   9.663   1.666   1.096  0.8396  0.1201  1.0955
  505MOL0     H66633   9.566   1.805   1.052  0.5270 -0.3051  1.2960
  505MOL0     H66634   9.783   1.661   0.896 -1.6513 -1.7199  2.5938
  505MOL0     H66635   9.725   1.803   0.830 -1.8192 -0.2871 -0.7710
  505MOL0     H66636   9.497   1.746   0.814  2.2108  2.1562 -2.7502
  505MOL0     H66637   9.547   1.580   0.882  1.9101 -1.4755 -1.4887
  505MOL0     H66638   9.620   1.702   0.634 -1.6561  2.1721  2.4289
  505MOL0     H66639   9.669   1.531   0.705 -0.5399  0.0136  1.1531
  505MOL0     H66640   9.391   1.599   0.626 -0.4854  0.0071  1.4679
  505MOL0     H66641   9.471   1.442   0.662 -3.1431 -0.3991 -0.6954
  505MOL0     H66642   9.338   1.966   0.982 -1.4348  0.5341  0.5438
  505MOL0     H66643   9.097   2.008   1.016  1.8130 -1.4104 -1.1128
  505MOL0     H66644   8.821   2.339   1.232 -0.3890  1.3439 -1.2801
  505MOL0     H66645   8.617   2.452   1.210 -0.9348 -0.6102  2.1117
  505MOL0     H66646   7.315   3.426   1.821 -0.4976  3.5432 -3.4665
  505MOL0     H66647   7.215   3.461   2.037  0.5006  1.3401 -0.5450
  505MOL0     H66648   7.238   3.424   2.419  2.0636 -1.6480  2.5843
  505MOL0     H66649   7.130   3.372   2.646  0.5049  0.7406 -0.2194
  505MOL0     H66650   7.189   3.628   3.001 -0.5897  1.1379 -0.8846
  505MOL0     H66651   7.319   3.567   2.900 -1.1015  1.1213 -3.0590
  505MOL0     H66652   7.112   3.412   3.031 -0.2099 -2.0054 -0.0695
  505MOL0     H66653   7.250   3.343   2.938 -1.4734 -0.9354 -1.7189
  505MOL0     H66654   7.237   3.500   3.207  1.3994  0.1490  0.3882
  505MOL0     H66655   7.392   3.484   3.117 -0.5727 -0.9451 -0.7117
  505MOL0     H66656   7.330   3.223   3.138 -0.9655 -0.6066  0.4156
  505MOL0     H66657   7.357   3.322   3.299  0.3169  2.7038 -0.0922
  505MOL0     H66658   6.941   3.246   3.320 -1.3368  2.2575 -2.0052
  505MOL0     H66659   7.154   3.790   2.739  0.1339  1.9338 -0.7832
  505MOL0     H66660   7.259   3.841   2.541 -1.5283  0.0378  0.0594
  506MOL0     O66661   7.659  10.560   8.114 -0.7826  0.2256  0.0502
  506MOL0     C66662   7.677  10.568   8.237 -0.6577 -0.0100 -0.1346
  506MOL0     O66663   7.786  10.528   8.306  0.4595 -0.1985 -0.7024
  506MOL0     C66664   7.907  10.481   8.251 -0.1491  0.0982  0.1356
  506MOL0     C66665   7.924  10.454   8.110  0.4405 -0.0884 -0.5982
  506MOL0     C66666   8.048  10.407   8.070  0.5832 -0.4796 -0.0758
  506MOL0     C66667   8.146  10.383   8.165  0.0242 -1.0291  0.3481
  506MOL0     O66668   8.263  10.346   8.102  0.2121  0.3672  0.3470
  506MOL0     C66669   8.373  10.331   8.189  0.4629  0.7126  0.5735
  506MOL0     C66670   8.494  10.303   8.094 -0.1431  0.3720 -0.8123
  506MOL0     C66671   8.625  10.307   8.166 -0.0971  0.3739  0.7487
  506MOL0     C66672   8.743  10.284   8.067 -0.0851 -0.4386  0.0426
  506MOL0     C66673   8.780  10.427   8.011  0.2126  0.3692  0.1452
  506MOL0     C66674   8.918  10.417   7.944  0.1114  0.5745 -0.2398
  506MOL0     C66675   8.983  10.551   7.927 -0.5784  0.6310  1.6865
  506MOL0     C66676   9.030  10.632   8.056 -0.2059  0.7316 -0.4310
  506MOL0     N66677   9.147  10.569   8.107  0.3824 -0.0491  0.1123
  506MOL0     C66678   9.279  10.618   8.101  0.0861 -1.7301 -0.1958
  506MOL0     C66679   9.345  10.555   8.212  0.4068 -0.0909  1.0956
  506MOL0     C66680   9.490  10.569   8.251 -0.3490 -0.5667  0.1496
  506MOL0     C66681   9.567  10.461   8.177 -0.3673 -0.1025 -0.8608
  506MOL0     C66682   9.717  10.475   8.212 -0.1082  0.1460 -0.3510
  506MOL0     C66683   9.807  10.367   8.132  0.2028 -0.5509  0.3797
  506MOL0     O66684   9.803  10.242   8.196 -0.6567 -1.0317 -0.4868
  506MOL0     C66685   9.914  10.211   8.275 -0.4084 -0.5453  0.3648
  506MOL0     C66686  10.052  10.252   8.258 -0.2234 -1.1301 -0.0189
  506MOL0     C66687  10.150  10.211   8.356  0.3845  0.0779 -0.5074
  506MOL0     C66688  10.109  10.123   8.463 -0.5704 -0.5728 -0.3542
  506MOL0     C66689  10.206  10.089   8.567  0.3672  0.8708  1.3503
  506MOL0     O66690  10.157  10.051   8.695 -0.6955 -0.3478 -0.0532
  506MOL0     C66691  10.225  10.075   8.816  0.1776  0.7770 -0.0995
  506MOL0     C66692  10.143  10.049   8.934 -0.2072 -1.5786  0.0073
  506MOL0     C66693  10.195  10.070   9.063 -0.6450  0.3892 -0.2246
  506MOL0     C66694  10.328  10.122   9.070 -0.8283 -0.1081  0.0576
  506MOL0     O66695  10.377  10.150   9.200  0.7994 -0.0911 -0.3472
  506MOL0     C66696  10.496  10.088   9.248 -0.6381 -0.1662  0.3910
  506MOL0     C66697  10.462   9.976   9.348  0.1501  1.4025 -0.2321
  506MOL0     C66698  10.372  10.023   9.468 -0.0883 -0.4382  0.0785
  506MOL0     C66699  10.323   9.916   9.557  0.5218 -0.1124 -0.9488
  506MOL0     C66700  10.426   9.855   9.644 -0.1593 -0.0677  0.0372
  506MOL0     C66701  10.383   9.732   9.726 -0.5156  0.2035 -0.1260
  506MOL0     C66702  10.323   9.609   9.645  0.0334 -0.6084  0.5489
  506MOL0     C66703  10.300   9.492   9.739  0.1895  0.4925 -0.7025
  506MOL0    Cl66704  10.189   9.543   9.882 -0.3556 -0.0175 -0.0052
  506MOL0     C66705  10.395  10.154   8.957  0.8683  0.5730 -1.0248
  506MOL0     C66706  10.347  10.129   8.834 -0.2232  0.1221  0.0062
  506MOL0     O66707  10.320  10.069   8.529 -0.1663  0.7432 -0.0128
  506MOL0     C66708   9.980  10.089   8.482  0.3937 -0.2265 -0.1943
  506MOL0     C66709   9.885  10.135   8.389 -0.2011 -0.1363  0.0072
  506MOL0     N66710   9.253  10.469   8.263 -0.0537  0.0663  0.2098
  506MOL0     N66711   9.145  10.469   8.201 -0.1528  0.0736 -0.1770
  506MOL0     C66712   8.131  10.413   8.300  0.8648 -0.1000 -0.3101
  506MOL0     C66713   8.008  10.458   8.341 -0.1626  0.3008  0.2661
  506MOL0     C66714   7.574  10.642   8.316  0.1439 -0.4700 -0.0014
  506MOL0     C66715   7.559  10.641   8.449 -0.6237  0.6429 -0.1560
  506MOL0     C66716   7.453  10.709   8.512 -0.1245 -0.2189  0.4736
  506MOL0     C66717   7.353  10.776   8.442  0.2145 -0.0877 -0.5997
  506MOL0     O66718   7.246  10.842   8.503 -0.0755 -0.4519  0.5573
  506MOL0     C66719   7.264  10.894   8.637  0.2783 -0.3784 -0.2896
  506MOL0     C66720   7.377  11.001   8.648 -0.5898 -0.2446 -0.1236
  506MOL0     C66721   7.404  11.032   8.793 -0.5446  0.5649  0.0443
  506MOL0     C66722   7.534  11.122   8.814 -1.1727  0.5893  0.2905
  506MOL0     C66723   7.525  11.198   8.942 -1.2551  0.3179  0.1928
  506MOL0     C66724   7.522  11.267   9.033  0.3948  0.1760  0.0223
  506MOL0     C66725   7.361  10.770   8.314 -0.0597 -0.4160 -0.2949
  506MOL0     C66726   7.470  10.704   8.246  0.6646 -0.5971  0.2431
  506MOL0     H66727   7.845  10.458   8.036 -0.0770 -0.4831 -0.0733
  506MOL0     H66728   8.078  10.387   7.967  2.1795  1.1509  0.0244
  506MOL0     H66729   8.360  10.242   8.251  1.4713  0.7087  0.8065
  506MOL0     H66730   8.393  10.419   8.250  2.2116 -0.5517  1.9372
  506MOL0     H66731   8.490  10.378   8.014 -0.3869 -0.1596 -1.3134
  506MOL0     H66732   8.486  10.205   8.045  0.1145 -1.2487  2.1779
  506MOL0     H66733   8.641  10.219   8.229  1.4927 -1.9445 -2.5435
  506MOL0     H66734   8.620  10.403   8.218 -0.4715 -1.1114  3.6614
  506MOL0     H66735   8.832  10.243   8.117  0.2598 -0.4639 -0.5825
  506MOL0     H66736   8.735  10.203   7.994 -0.3511 -0.3121 -0.0673
  506MOL0     H66737   8.785  10.496   8.095 -0.6614 -0.8519  1.2478
  506MOL0     H66738   8.701  10.454   7.940 -0.6664 -2.6813 -0.2167
  506MOL0     H66739   8.895  10.373   7.846  0.2867 -2.9076  1.1420
  506MOL0     H66740   8.989  10.351   7.995  0.9135  0.4215 -1.5037
  506MOL0     H66741   9.060  10.533   7.851 -2.0914 -3.1435  0.8238
  506MOL0     H66742   8.914  10.611   7.868  2.0476 -0.0257 -2.4938
  506MOL0     H66743   8.955  10.628   8.135  1.7526 -1.4897  1.4891
  506MOL0     H66744   9.069  10.732   8.031 -2.9590  1.7212 -1.1116
  506MOL0     H66745   9.320  10.687   8.027  0.1800 -3.5922 -1.9564
  506MOL0     H66746   9.491  10.557   8.359 -0.6614  3.4096  0.7527
  506MOL0     H66747   9.530  10.668   8.225  0.6600 -1.5307 -2.3679
  506MOL0     H66748   9.554  10.463   8.068  0.9615  2.5573 -1.0392
  506MOL0     H66749   9.522  10.368   8.213 -2.5867  1.2265 -0.0074
  506MOL0     H66750   9.746  10.577   8.185  0.6138  0.2148  0.6511
  506MOL0     H66751   9.732  10.464   8.320 -2.8593 -0.9623  0.0044
  506MOL0     H66752   9.902  10.414   8.105 -1.4065  2.0002 -1.3003
  506MOL0     H66753   9.777  10.360   8.027  2.1080  2.5154 -0.4903
  506MOL0     H66754  10.075  10.334   8.190  3.2656 -1.8264  0.1325
  506MOL0     H66755  10.253  10.241   8.344  1.1118 -1.7909  0.6195
  506MOL0     H66756  10.046  10.005   8.915  0.5188 -2.9213 -0.7450
  506MOL0     H66757  10.132  10.051   9.149 -2.5112 -0.4477 -1.7126
  506MOL0     H66758  10.546  10.169   9.302 -1.8390  1.1334 -0.3718
  506MOL0     H66759  10.569  10.061   9.171  1.1773 -3.1621  2.9217
  506MOL0     H66760  10.557   9.939   9.387 -1.7143 -0.2677  3.2799
  506MOL0     H66761  10.419   9.889   9.297  3.3572 -0.7579  0.4710
  506MOL0     H66762  10.278  10.063   9.428  0.2787  1.3909  0.9080
  506MOL0     H66763  10.432  10.097   9.523  0.3615  0.3156 -1.3876
  506MOL0     H66764  10.241   9.949   9.622  0.0256 -0.1740 -1.5377
  506MOL0     H66765  10.264   9.842   9.502 -2.5545 -0.0800  1.9592
  506MOL0     H66766  10.465   9.927   9.716 -0.9261 -2.2553  2.8222
  506MOL0     H66767  10.507   9.821   9.580 -2.5243 -2.2906 -1.9972
  506MOL0     H66768  10.305   9.765   9.794 -0.3729 -0.2770  0.2811
  506MOL0     H66769  10.467   9.696   9.786 -1.9799 -0.1390  1.8012
  506MOL0     H66770  10.237   9.631   9.581  4.1902  0.4643 -5.6507
  506MOL0     H66771  10.408   9.579   9.582  0.6975 -2.7308  2.3451
  506MOL0     H66772  10.390   9.452   9.786 -1.1845  1.9615  3.6125
  506MOL0     H66773  10.237   9.412   9.697  0.3830 -0.4906  0.8164
  506MOL0     H66774  10.493  10.200   8.963 -0.4459  3.4499  0.8164
  506MOL0     H66775  10.403  10.156   8.745  1.5904 -3.5002 -0.1373
  506MOL0     H66776   9.946  10.034   8.569 -3.4784  0.5768 -1.0317
  506MOL0     H66777   9.788  10.102   8.427 -2.5260  5.6031  0.0684
  506MOL0     H66778   8.212  10.410   8.374 -0.4652 -0.0969  1.2060
  506MOL0     H66779   7.982  10.463   8.446  3.0102  1.4301  1.1017
  506MOL0     H66780   7.631  10.590   8.512 -0.8519 -1.9036 -1.8281
  506MOL0     H66781   7.449  10.695   8.619 -0.5934 -4.2451  0.0909
  506MOL0     H66782   7.278  10.813   8.710  3.0688 -0.2773 -0.6180
  506MOL0     H66783   7.167  10.940   8.657 -1.0076 -1.5341 -3.3518
  506MOL0     H66784   7.469  10.963   8.603 -1.7615 -0.7722 -2.2094
  506MOL0     H66785   7.352  11.094   8.597  0.2944  0.4200  0.6280
  506MOL0     H66786   7.420  10.945   8.857  4.6125  1.6331  0.6112
  506MOL0     H66787   7.320  11.091   8.830 -1.2700 -1.5585  2.0679
  506MOL0     H66788   7.613  11.048   8.805 -0.5425  1.3678 -0.8307
  506MOL0     H66789   7.546  11.187   8.727  2.0923 -0.1169  0.0981
  506MOL0     H66790   7.533  11.325   9.122  0.7072  1.4669 -0.8317
  506MOL0     H66791   7.284  10.813   8.250 -3.7725 -0.5361  3.6666
  506MOL0     H66792   7.469  10.718   8.139 -3.5272 -0.1656  0.2016
  507MOL0     O66793   3.901   9.523   7.968 -0.5432  0.1835 -0.1383
  507MOL0     C66794   3.962   9.585   8.061  0.4712  0.8666  0.4682
  507MOL0     O66795   4.039   9.520   8.158  0.2346  0.0144 -0.1517
  507MOL0     C66796   4.044   9.380   8.159  0.4213 -0.3590  0.3889
  507MOL0     C66797   3.964   9.319   8.258 -0.2708 -0.2551  0.3428
  507MOL0     C66798   3.975   9.181   8.268 -0.3664  0.0785  0.4064
  507MOL0     C66799   4.067   9.104   8.188 -0.3181  0.4766  0.2497
  507MOL0     O66800   4.085   8.964   8.206 -0.0955 -0.7157 -0.5079
  507MOL0     C66801   3.972   8.874   8.203 -0.2584 -0.0805 -0.0837
  507MOL0     C66802   3.961   8.775   8.084  0.2798 -0.7981  0.2663
  507MOL0     C66803   3.923   8.835   7.940  0.5513 -0.0461 -0.3159
  507MOL0     C66804   3.763   8.849   7.938 -0.6039 -0.6171  0.3195
  507MOL0     C66805   3.703   8.936   7.825 -0.2639  0.3389 -0.4203
  507MOL0     C66806   3.753   9.086   7.833 -0.0546 -0.6861 -1.1148
  507MOL0     C66807   3.666   9.182   7.761  0.0700 -0.5423 -0.6785
  507MOL0     C66808   3.705   9.316   7.811  0.8399 -0.6509  0.1561
  507MOL0     N66809   3.639   9.431   7.737  0.0007  0.0265  0.1008
  507MOL0     C66810   3.693   9.556   7.731 -0.1277 -1.2398 -0.0989
  507MOL0     C66811   3.607   9.635   7.659  0.6236  0.0257  0.1436
  507MOL0     C66812   3.653   9.768   7.605 -0.0992  0.0865  0.4824
  507MOL0     C66813   3.561   9.882   7.661 -0.3014 -0.6210  0.2772
  507MOL0     C66814   3.605  10.025   7.614  0.1328 -0.6165 -0.4675
  507MOL0     C66815   3.573  10.037   7.459  0.6042  0.7059 -0.0951
  507MOL0     O66816   3.677  10.046   7.367 -0.1051 -0.1392 -0.7091
  507MOL0     C66817   3.640  10.048   7.230 -0.0978 -0.7376 -0.0810
  507MOL0     C66818   3.651  10.172   7.167 -0.3199  0.4311  0.1121
  507MOL0     C66819   3.635  10.187   7.030  0.0132 -0.6987  0.2497
  507MOL0     C66820   3.607  10.076   6.945  0.0979 -0.6752 -0.3148
  507MOL0     C66821   3.621  10.094   6.801 -0.6569 -1.3700  0.2560
  507MOL0     O66822   3.598   9.989   6.725  0.3299 -0.1561 -1.2408
  507MOL0     C66823   3.564   9.990   6.597 -1.0220 -0.1042  0.5464
  507MOL0     C66824   3.631   9.904   6.506 -0.3327 -0.2169 -0.1785
  507MOL0     C66825   3.594   9.914   6.367 -0.0868 -0.6312  0.2847
  507MOL0     C66826   3.496   9.994   6.316  0.5399  0.1661  0.3540
  507MOL0     O66827   3.470   9.985   6.182  0.2998  0.6435  0.8814
  507MOL0     C66828   3.408  10.091   6.111  0.0102 -0.1738 -0.7245
  507MOL0     C66829   3.434  10.080   5.968  0.0904 -0.2730 -0.3192
  507MOL0     C66830   3.393  10.219   5.907  0.3088 -0.2030  1.1562
  507MOL0     C66831   3.411  10.218   5.756  0.1723 -0.1382 -0.0052
  507MOL0     C66832   3.379  10.362   5.708  0.3464  0.8161  0.2138
  507MOL0     C66833   3.446  10.390   5.582 -1.3059 -0.0980 -0.3599
  507MOL0     C66834   3.424  10.524   5.512 -0.0026  1.1651 -0.5971
  507MOL0     C66835   3.504  10.532   5.382  0.5172 -0.0685 -0.1477
  507MOL0    Cl66836   3.677  10.582   5.401  0.3067  0.3978 -0.5437
  507MOL0     C66837   3.431  10.078   6.408 -0.9937  0.2892 -0.6708
  507MOL0     C66838   3.465  10.081   6.543  0.0153 -1.2013 -0.0108
  507MOL0     O66839   3.639  10.209   6.760  0.0603 -0.8484  0.2279
  507MOL0     C66840   3.575   9.956   7.007  0.1634  0.1253  0.2783
  507MOL0     C66841   3.596   9.941   7.147 -0.8983 -0.0319 -1.0106
  507MOL0     N66842   3.502   9.552   7.625 -0.0586  0.4542 -0.1847
  507MOL0     N66843   3.519   9.432   7.674  0.6501 -0.8259 -0.4539
  507MOL0     C66844   4.136   9.167   8.089  0.2692 -0.3648 -0.2966
  507MOL0     C66845   4.135   9.305   8.092  0.2330 -0.7463 -1.3401
  507MOL0     C66846   3.923   9.738   8.067 -0.0155 -0.0808  0.3397
  507MOL0     C66847   4.021   9.831   8.106  0.3734 -0.2376 -0.0567
  507MOL0     C66848   4.004   9.971   8.084  0.8153 -0.2329 -0.6873
  507MOL0     C66849   3.880  10.021   8.038 -0.1201  0.3208 -0.0230
  507MOL0     O66850   3.856  10.153   8.021  0.0471 -0.3195 -0.4250
  507MOL0     C66851   3.948  10.248   8.071 -0.2588 -0.2537  0.0759
  507MOL0     C66852   3.925  10.365   7.972  0.2006 -0.2426 -0.7751
  507MOL0     C66853   3.790  10.440   8.011 -0.7551  0.2547 -0.4212
  507MOL0     C66854   3.738  10.539   7.907 -1.3616 -0.6395 -0.1596
  507MOL0     C66855   3.831  10.646   7.875 -0.2916 -0.4717 -0.3786
  507MOL0     C66856   3.916  10.727   7.847 -0.2492  0.0687 -0.0686
  507MOL0     C66857   3.776   9.926   8.010 -0.8546 -0.0755 -0.3842
  507MOL0     C66858   3.799   9.785   8.016 -1.2916 -0.2043 -0.2224
  507MOL0     H66859   3.891   9.373   8.317  0.3431  0.6726  0.2732
  507MOL0     H66860   3.918   9.126   8.342  1.0340  1.9094  3.0086
  507MOL0     H66861   3.876   8.922   8.223 -0.3184 -1.1612  2.6641
  507MOL0     H66862   3.981   8.803   8.286 -1.3695 -3.6324 -2.7343
  507MOL0     H66863   3.893   8.695   8.115  1.5500 -2.0633 -0.0825
  507MOL0     H66864   4.061   8.735   8.067  0.9784  0.6739  0.7941
  507MOL0     H66865   3.961   8.771   7.859  0.3077 -0.0742 -0.4097
  507MOL0     H66866   3.976   8.930   7.929  0.2335  0.2377  0.5429
  507MOL0     H66867   3.709   8.753   7.936 -0.8348 -0.5532 -3.0481
  507MOL0     H66868   3.725   8.905   8.023 -0.0182 -1.4315  1.1365
  507MOL0     H66869   3.594   8.931   7.837 -0.1475  0.3429  0.7757
  507MOL0     H66870   3.728   8.890   7.729  1.8324  3.1638 -1.3542
  507MOL0     H66871   3.850   9.104   7.786  0.1265  1.7346  0.0406
  507MOL0     H66872   3.741   9.119   7.937 -0.6997 -0.5973 -1.2126
  507MOL0     H66873   3.713   9.179   7.662  0.0696 -3.1027 -0.6628
  507MOL0     H66874   3.559   9.161   7.768  0.2904 -1.0254  2.4032
  507MOL0     H66875   3.813   9.329   7.811  0.9662 -1.5814 -0.8465
  507MOL0     H66876   3.657   9.315   7.910 -1.1264 -1.2658 -0.7523
  507MOL0     H66877   3.789   9.592   7.766 -1.1120  0.0804  1.3389
  507MOL0     H66878   3.642   9.760   7.497 -1.2711 -2.5498  0.7126
  507MOL0     H66879   3.757   9.775   7.638 -0.2727 -3.8334  2.4439
  507MOL0     H66880   3.577   9.891   7.768 -1.0156  0.0828  0.3336
  507MOL0     H66881   3.455   9.862   7.640  0.0114 -0.9605 -1.0753
  507MOL0     H66882   3.553  10.101   7.673 -1.2030 -1.1609 -0.9104
  507MOL0     H66883   3.712  10.039   7.632 -0.5102  2.2378  1.7867
  507MOL0     H66884   3.508  10.126   7.456  0.7066  0.7865 -3.4430
  507MOL0     H66885   3.510   9.950   7.439 -3.6391  2.8151  2.5119
  507MOL0     H66886   3.683  10.255   7.229  0.7275 -0.2479  0.5161
  507MOL0     H66887   3.670  10.285   6.998  1.8010  0.0833  4.0773
  507MOL0     H66888   3.703   9.836   6.550  0.3116 -0.6842 -1.8788
  507MOL0     H66889   3.649   9.868   6.286  1.1388  1.0106  0.1261
  507MOL0     H66890   3.453  10.185   6.142 -0.6383 -0.0759 -0.0276
  507MOL0     H66891   3.303  10.100   6.142  0.2304 -1.0231  0.3276
  507MOL0     H66892   3.367  10.004   5.927  1.9292 -1.9025 -0.4212
  507MOL0     H66893   3.539  10.057   5.947  0.4192  1.4761 -0.7461
  507MOL0     H66894   3.450  10.293   5.964  1.7642 -0.2324 -0.1735
  507MOL0     H66895   3.291  10.253   5.926  0.7099  4.5955 -2.9397
  507MOL0     H66896   3.516  10.191   5.740  0.5931  1.1838  0.3811
  507MOL0     H66897   3.353  10.144   5.700  0.1818 -0.4373  0.3767
  507MOL0     H66898   3.402  10.441   5.781 -0.4526  1.4000 -0.1443
  507MOL0     H66899   3.272  10.377   5.687  0.2759 -1.2711 -1.2345
  507MOL0     H66900   3.420  10.311   5.510  1.3597  0.1471 -1.7221
  507MOL0     H66901   3.555  10.386   5.582 -1.2436 -0.5976 -2.8305
  507MOL0     H66902   3.319  10.524   5.480 -0.7225  1.4776  1.6287
  507MOL0     H66903   3.428  10.618   5.566 -0.9310  1.3905 -0.9023
  507MOL0     H66904   3.449  10.607   5.325 -0.7276 -0.6865  0.2096
  507MOL0     H66905   3.507  10.442   5.320 -0.1207 -2.5022  3.0997
  507MOL0     H66906   3.352  10.141   6.367 -1.1225  0.6769  0.1484
  507MOL0     H66907   3.409  10.149   6.605  0.5467  1.3342 -2.1508
  507MOL0     H66908   3.557   9.872   6.941 -0.7715  0.4181  0.1426
  507MOL0     H66909   3.592   9.844   7.196 -0.8629  0.8592  0.8394
  507MOL0     H66910   4.205   9.119   8.019 -0.1273 -1.2951 -0.0703
  507MOL0     H66911   4.198   9.366   8.029 -0.5990  1.1313 -0.4501
  507MOL0     H66912   4.117   9.800   8.146 -1.0450 -2.7046  1.7871
  507MOL0     H66913   4.080  10.038   8.124  1.4153 -0.9334 -0.6341
  507MOL0     H66914   4.053  10.232   8.046  1.1049  4.2222  1.9157
  507MOL0     H66915   3.926  10.281   8.173  2.5896 -0.5520  0.8666
  507MOL0     H66916   4.008  10.437   7.973  0.3552 -0.4222 -0.6882
  507MOL0     H66917   3.914  10.336   7.867 -0.0958 -0.7296 -0.6097
  507MOL0     H66918   3.800  10.500   8.102 -3.4002  0.1806 -0.0170
  507MOL0     H66919   3.709  10.370   8.035 -1.9125  1.3407 -1.0607
  507MOL0     H66920   3.721  10.488   7.811  2.6432  0.0725 -1.4536
  507MOL0     H66921   3.643  10.587   7.931 -0.5845  0.1950  1.3618
  507MOL0     H66922   3.992  10.795   7.815  1.1774 -1.5667 -0.3393
  507MOL0     H66923   3.677   9.961   7.980 -0.7593  0.6418  0.1177
  507MOL0     H66924   3.723   9.718   7.976 -2.1002 -2.0479  3.8518
  508MOL0     O66925  10.072   6.571   4.234 -0.1265 -0.1648  0.0848
  508MOL0     C66926  10.043   6.579   4.348  1.0280 -0.0902  0.2706
  508MOL0     O66927  10.131   6.585   4.451  0.0232 -0.0777  0.4981
  508MOL0     C66928  10.269   6.599   4.413 -0.3860 -0.5172 -0.6681
  508MOL0     C66929  10.336   6.493   4.354  0.3620 -0.3065 -0.9619
  508MOL0     C66930  10.470   6.484   4.347  0.1085 -0.4619  0.8706
  508MOL0     C66931  10.548   6.592   4.386  0.4984  0.0171  0.5289
  508MOL0     O66932  10.685   6.603   4.375 -0.6653 -0.1477 -0.1942
  508MOL0     C66933  10.746   6.579   4.247  0.0346 -0.2801  0.2497
  508MOL0     C66934  10.737   6.689   4.141 -0.4214 -0.4202  0.9377
  508MOL0     C66935  10.806   6.656   4.002  0.6068  0.0875 -0.2949
  508MOL0     C66936  10.947   6.592   4.033  0.5891 -0.3051 -0.0764
  508MOL0     C66937  11.023   6.584   3.913 -0.2949 -0.0071  0.3468
  508MOL0     C66938  11.160   6.508   3.943  0.0911 -0.2944  0.2137
  508MOL0     C66939  11.187   6.370   3.855 -0.7640  0.6252  0.5061
  508MOL0     C66940  11.307   6.375   3.761  1.0058  0.4524  0.3138
  508MOL0     N66941  11.426   6.411   3.841 -0.0543 -0.4460 -0.0947
  508MOL0     C66942  11.527   6.325   3.893  0.3827 -0.5491 -0.2055
  508MOL0     C66943  11.628   6.405   3.932  0.3523  0.2965  0.3612
  508MOL0     C66944  11.754   6.351   3.992 -0.7602 -0.0480  0.6017
  508MOL0     C66945  11.775   6.363   4.147 -0.6854  0.0667  0.3205
  508MOL0     C66946  11.861   6.484   4.191 -0.1358 -0.9985  0.8325
  508MOL0     C66947  11.892   6.480   4.338  0.1354 -0.3002 -0.1366
  508MOL0     O66948  11.973   6.593   4.372 -0.1838 -0.2702 -0.3051
  508MOL0     C66949  11.979   6.615   4.503 -0.3232 -0.2197  0.2749
  508MOL0     C66950  11.890   6.707   4.570  0.9530 -0.1341  1.1506
  508MOL0     C66951  11.899   6.731   4.703 -0.1755  0.3106 -0.3818
  508MOL0     C66952  12.003   6.677   4.780 -0.2855  0.7377 -0.2232
  508MOL0     C66953  12.025   6.711   4.922  0.4561  1.9324  0.0756
  508MOL0     O66954  11.921   6.771   4.973 -0.6722  0.2033  0.2105
  508MOL0     C66955  11.903   6.806   5.104  0.9916 -0.1161  0.8325
  508MOL0     C66956  11.801   6.744   5.171  0.0571 -0.0336  0.1181
  508MOL0     C66957  11.772   6.779   5.298  0.0870 -0.6696 -0.0067
  508MOL0     C66958  11.845   6.868   5.369  0.2949 -1.0375  0.5971
  508MOL0     O66959  11.805   6.899   5.499 -0.4347 -0.0750  0.6511
  508MOL0     C66960  11.849   7.021   5.563 -0.4622  0.2306 -0.0978
  508MOL0     C66961  11.971   6.991   5.644  0.0261  0.7050 -0.3157
  508MOL0     C66962  11.938   6.896   5.759  0.2616 -0.2633 -0.8446
  508MOL0     C66963  12.081   6.859   5.806  0.1073 -0.1063  0.2021
  508MOL0     C66964  12.078   6.759   5.924 -0.4176 -0.7165 -0.2267
  508MOL0     C66965  12.057   6.614   5.878  0.3181 -0.7942 -0.2823
  508MOL0     C66966  12.083   6.513   5.987 -0.1535  0.2003 -0.0325
  508MOL0     C66967  12.233   6.487   6.008  0.6471  0.0866  0.0316
  508MOL0    Cl66968  12.241   6.392   6.161 -0.3129  0.4697 -0.1465
  508MOL0     C66969  11.946   6.931   5.305  0.6947  0.1548 -0.4397
  508MOL0     C66970  11.976   6.909   5.168  0.0184 -0.3578 -0.5370
  508MOL0     O66971  12.117   6.678   4.991  0.2397 -0.6048 -0.3880
  508MOL0     C66972  12.105   6.602   4.708 -0.0434 -0.2367 -0.2801
  508MOL0     C66973  12.093   6.575   4.575  0.0742 -0.0283  0.0782
  508MOL0     N66974  11.582   6.533   3.924 -1.2195 -0.0510 -0.5414
  508MOL0     N66975  11.469   6.538   3.860 -0.6803 -0.2367  1.0779
  508MOL0     C66976  10.487   6.708   4.426 -0.4618 -0.2027  0.6181
  508MOL0     C66977  10.348   6.710   4.446  0.6890 -0.4281 -0.1333
  508MOL0     C66978   9.898   6.578   4.383 -0.0819  0.4184 -0.6891
  508MOL0     C66979   9.848   6.666   4.483 -0.1801 -0.0885  1.1708
  508MOL0     C66980   9.716   6.655   4.528 -0.4884 -0.8413 -0.6521
  508MOL0     C66981   9.633   6.568   4.463 -1.4000  0.2125 -0.8321
  508MOL0     O66982   9.490   6.559   4.468  0.1355  0.0736 -0.3601
  508MOL0     C66983   9.419   6.674   4.537  0.4641  0.0278  1.1399
  508MOL0     C66984   9.294   6.611   4.600  0.4512  0.3608 -0.4610
  508MOL0     C66985   9.170   6.652   4.519  0.2649 -1.1439 -0.5695
  508MOL0     C66986   9.139   6.572   4.391  0.4687  0.7161  0.6907
  508MOL0     C66987   9.199   6.628   4.273 -0.4032 -0.0111  0.7764
  508MOL0     C66988   9.256   6.680   4.180 -0.0321  0.8720 -0.6160
  508MOL0     C66989   9.678   6.487   4.356  0.4849  0.0566  0.5404
  508MOL0     C66990   9.812   6.496   4.313 -0.7474  0.0422  0.6126
  508MOL0     H66991  10.274   6.405   4.338 -0.8827  0.6295 -1.4966
  508MOL0     H66992  10.506   6.399   4.289  2.0188  2.0284 -1.8946
  508MOL0     H66993  10.721   6.479   4.212 -2.4266  0.6725 -0.9224
  508MOL0     H66994  10.853   6.570   4.268  0.0902  0.6086  0.4335
  508MOL0     H66995  10.780   6.784   4.173  0.3448 -0.1745 -0.7320
  508MOL0     H66996  10.631   6.709   4.123 -0.5893 -0.9764  1.2817
  508MOL0     H66997  10.811   6.747   3.941  1.0103  0.2184 -0.0669
  508MOL0     H66998  10.739   6.580   3.962 -0.3984  1.2423 -0.8996
  508MOL0     H66999  10.996   6.647   4.114 -1.2833 -0.9058  1.5286
  508MOL0     H67000  10.933   6.488   4.063  1.0375 -1.1492 -2.5508
  508MOL0     H67001  11.038   6.688   3.882  0.2930 -0.0386  0.5110
  508MOL0     H67002  10.979   6.525   3.832 -0.4834 -1.9453  1.7878
  508MOL0     H67003  11.182   6.485   4.047  2.3272 -0.7918 -0.3044
  508MOL0     H67004  11.237   6.580   3.915 -0.9194  0.0261 -1.9954
  508MOL0     H67005  11.216   6.293   3.927  0.1444 -2.0934 -2.5120
  508MOL0     H67006  11.096   6.330   3.809 -0.9525 -0.2660  1.6034
  508MOL0     H67007  11.267   6.449   3.691 -2.7606 -1.7433 -0.1349
  508MOL0     H67008  11.324   6.280   3.710 -2.8093 -0.0999 -0.2497
  508MOL0     H67009  11.529   6.217   3.894  2.0641 -0.5518 -0.8441
  508MOL0     H67010  11.833   6.406   3.939 -0.5050  0.0207  1.0454
  508MOL0     H67011  11.765   6.249   3.954  2.5519 -0.0085  1.1365
  508MOL0     H67012  11.823   6.277   4.194 -0.1849  0.9827  1.5614
  508MOL0     H67013  11.679   6.373   4.200 -1.0647  1.3055 -0.5564
  508MOL0     H67014  11.961   6.486   4.147 -1.0314 -0.7137 -1.3013
  508MOL0     H67015  11.807   6.576   4.168  2.3192 -0.2557 -2.9550
  508MOL0     H67016  11.962   6.399   4.362 -0.0386 -1.1194 -2.2025
  508MOL0     H67017  11.800   6.463   4.395 -0.1242 -0.9394 -0.7323
  508MOL0     H67018  11.791   6.725   4.529  1.4979  1.6583  0.5257
  508MOL0     H67019  11.820   6.779   4.761  1.0963  0.7440  1.0600
  508MOL0     H67020  11.766   6.653   5.124  3.0756 -1.6585  0.7476
  508MOL0     H67021  11.686   6.734   5.347 -0.5467  1.9590  1.4642
  508MOL0     H67022  11.777   7.065   5.633  1.4416  0.4445  1.8560
  508MOL0     H67023  11.866   7.096   5.486  4.3133  0.7183  1.1229
  508MOL0     H67024  12.012   7.084   5.686 -0.9828  0.4566  1.2871
  508MOL0     H67025  12.041   6.955   5.568  2.9761  0.6440  2.2105
  508MOL0     H67026  11.875   6.815   5.719 -0.1760  0.4051 -1.5398
  508MOL0     H67027  11.878   6.934   5.842  2.0688 -0.6502  0.7078
  508MOL0     H67028  12.135   6.825   5.717 -0.5467 -0.2391 -0.1480
  508MOL0     H67029  12.111   6.959   5.840 -1.4043  0.2555  0.5225
  508MOL0     H67030  12.010   6.793   6.002  0.4707  0.8095 -0.0785
  508MOL0     H67031  12.181   6.761   5.962 -0.1717  0.6936 -0.9143
  508MOL0     H67032  12.126   6.583   5.799  1.4085  0.4507  0.1464
  508MOL0     H67033  11.954   6.614   5.841  0.6949  1.2543 -1.4629
  508MOL0     H67034  12.035   6.535   6.083 -0.4737  1.3423 -0.4390
  508MOL0     H67035  12.036   6.427   5.938 -1.0731  1.4118 -1.3303
  508MOL0     H67036  12.299   6.572   6.022  0.3234  0.5355 -1.0409
  508MOL0     H67037  12.271   6.429   5.923 -0.8588 -1.3872  0.3049
  508MOL0     H67038  11.999   7.007   5.361  1.2195  1.2502 -2.3391
  508MOL0     H67039  12.047   6.965   5.109  1.5411 -0.4188  1.1446
  508MOL0     H67040  12.194   6.559   4.754  0.4686 -2.1072 -2.7415
  508MOL0     H67041  12.168   6.513   4.527  1.2494  0.4195  1.2702
  508MOL0     H67042  10.532   6.803   4.449 -0.8571  0.2124 -0.2765
  508MOL0     H67043  10.308   6.800   4.493  2.0710  0.7249 -1.0636
  508MOL0     H67044   9.916   6.730   4.537  0.4810 -0.8643  1.2641
  508MOL0     H67045   9.691   6.707   4.620 -0.0051  0.2151 -1.0949
  508MOL0     H67046   9.394   6.762   4.478  3.0040  1.1502  1.6021
  508MOL0     H67047   9.475   6.703   4.627  0.2127  1.1711  0.9418
  508MOL0     H67048   9.307   6.504   4.620 -4.3380  0.2504  4.3405
  508MOL0     H67049   9.305   6.654   4.700  1.3008 -3.8993  1.5195
  508MOL0     H67050   9.175   6.755   4.484 -2.5252 -1.5800 -2.6063
  508MOL0     H67051   9.083   6.648   4.585  1.0564 -2.7533  0.4520
  508MOL0     H67052   9.180   6.471   4.406 -0.0218  0.5781  1.1625
  508MOL0     H67053   9.030   6.566   4.384  0.5129 -0.8375  0.8154
  508MOL0     H67054   9.301   6.726   4.095 -1.4611  3.2221 -0.1922
  508MOL0     H67055   9.602   6.429   4.305 -0.4113  0.2946  1.5671
  508MOL0     H67056   9.845   6.430   4.234 -0.3479 -0.9265  1.5691
  509MOL0     O67057   5.576   0.753   8.258  0.2865  0.3758  0.2772
  509MOL0     C67058   5.523   0.791   8.156  1.0072  0.5422 -0.2902
  509MOL0     O67059   5.452   0.907   8.139  0.2654 -0.8828 -0.0399
  509MOL0     C67060   5.452   1.003   8.243  0.2860  0.2541 -0.5369
  509MOL0     C67061   5.554   1.103   8.241  0.2849  1.2398 -0.2828
  509MOL0     C67062   5.565   1.198   8.348 -1.3689  0.1440  0.9124
  509MOL0     C67063   5.468   1.213   8.440 -1.2214 -0.4236 -0.1968
  509MOL0     O67064   5.471   1.321   8.519 -0.5318  0.4860 -0.5860
  509MOL0     C67065   5.461   1.304   8.660  0.9707  0.5279 -0.1907
  509MOL0     C67066   5.563   1.389   8.719 -0.2428 -0.6396 -0.1213
  509MOL0     C67067   5.570   1.359   8.878  0.1318 -1.2355  0.3869
  509MOL0     C67068   5.444   1.400   8.947 -0.3384 -0.7032 -0.0965
  509MOL0     C67069   5.471   1.423   9.097  0.0663  0.6206 -0.0996
  509MOL0     C67070   5.529   1.287   9.162  0.9453 -0.7391 -0.6434
  509MOL0     C67071   5.506   1.277   9.311 -0.8143 -0.2385  0.6636
  509MOL0     C67072   5.595   1.382   9.391  0.0563  0.2600 -0.1316
  509MOL0     N67073   5.599   1.342   9.536 -0.0579 -0.8177  0.3441
  509MOL0     C67074   5.496   1.318   9.618 -0.0222  0.5775 -0.4831
  509MOL0     C67075   5.551   1.309   9.743 -0.8699  0.7134  0.0564
  509MOL0     C67076   5.477   1.264   9.872  0.3148  0.0556 -0.2971
  509MOL0     C67077   5.394   1.140   9.856 -0.3741 -1.1025 -0.6129
  509MOL0     C67078   5.465   1.017   9.792 -1.4066  0.4917  0.5755
  509MOL0     C67079   5.594   0.973   9.874  0.2523  0.0552  0.8248
  509MOL0     O67080   5.650   0.855   9.809 -0.3765 -0.0528  0.4933
  509MOL0     C67081   5.704   0.892   9.685  0.5791 -0.7338 -0.1427
  509MOL0     C67082   5.634   0.847   9.573  0.6210 -0.6186  0.3759
  509MOL0     C67083   5.673   0.887   9.447  0.0001  0.3044 -0.5539
  509MOL0     C67084   5.770   0.989   9.431 -0.0094 -0.4540  0.1161
  509MOL0     C67085   5.805   1.052   9.300  0.6594  0.1222 -0.2203
  509MOL0     O67086   5.912   1.142   9.299  0.5934  0.5445  0.6137
  509MOL0     C67087   5.936   1.208   9.188 -1.1089 -0.4676  0.1134
  509MOL0     C67088   5.932   1.345   9.202 -0.1926  0.3249  0.0069
  509MOL0     C67089   5.943   1.431   9.088 -0.1795  0.2795 -0.1276
  509MOL0     C67090   5.952   1.379   8.956  0.2831 -0.9918  0.2011
  509MOL0     O67091   5.977   1.454   8.841  0.5498  0.2976  0.0749
  509MOL0     C67092   5.902   1.574   8.835  0.6989 -0.2146 -0.0466
  509MOL0     C67093   5.850   1.592   8.692  0.2811  0.1408 -0.0800
  509MOL0     C67094   5.937   1.674   8.598 -0.3384 -0.2610 -0.8106
  509MOL0     C67095   5.866   1.662   8.464 -0.7833 -0.3241  0.2467
  509MOL0     C67096   5.962   1.686   8.347 -0.2408  0.1896 -0.1736
  509MOL0     C67097   5.874   1.674   8.219  0.2338 -0.3182  0.5768
  509MOL0     C67098   5.865   1.525   8.185 -0.0476 -0.5230  0.6691
  509MOL0     C67099   5.946   1.494   8.059 -0.4939  0.8884  0.1535
  509MOL0    Cl67100   5.933   1.311   8.032 -0.2576 -0.1136 -0.1624
  509MOL0     C67101   5.957   1.245   8.946 -1.1292  0.1983  0.0638
  509MOL0     C67102   5.948   1.164   9.059  1.5510  0.8695  0.4219
  509MOL0     O67103   5.743   1.000   9.204 -0.1424 -0.1825 -0.3879
  509MOL0     C67104   5.839   1.039   9.544 -0.1774  0.0072 -0.6217
  509MOL0     C67105   5.809   0.981   9.668 -0.2673 -0.6359  0.5542
  509MOL0     N67106   5.694   1.322   9.728 -0.3545  0.4131 -0.7169
  509MOL0     N67107   5.717   1.345   9.601 -0.0471  0.2029 -0.6957
  509MOL0     C67108   5.367   1.123   8.437 -0.4938  0.0727  0.6108
  509MOL0     C67109   5.353   1.015   8.347  0.3067 -0.2755 -0.2475
  509MOL0     C67110   5.508   0.707   8.039  0.2400  0.1566  0.0289
  509MOL0     C67111   5.609   0.626   8.001  0.1360  1.4318  0.2726
  509MOL0     C67112   5.598   0.540   7.891  0.2875  0.2329 -0.1471
  509MOL0     C67113   5.490   0.558   7.806 -1.3648  0.6034 -0.3133
  509MOL0     O67114   5.495   0.479   7.696 -0.6192  0.0113 -0.3401
  509MOL0     C67115   5.401   0.496   7.585 -0.4049  0.5286  0.7268
  509MOL0     C67116   5.276   0.409   7.585  0.9288 -0.8031 -0.8655
  509MOL0     C67117   5.311   0.273   7.661  0.5433  0.4688  0.6162
  509MOL0     C67118   5.401   0.191   7.566 -0.8302  0.3555 -0.1512
  509MOL0     C67119   5.437   0.063   7.631  0.0870  0.0612  0.0634
  509MOL0     C67120   5.452  -0.033   7.701  0.5489 -0.7491  0.1406
  509MOL0     C67121   5.387   0.644   7.833 -0.0393 -0.5386 -1.0141
  509MOL0     C67122   5.398   0.726   7.951  0.2508  0.4152  0.4072
  509MOL0     H67123   5.618   1.099   8.153 -0.9883 -0.5036 -1.1749
  509MOL0     H67124   5.649   1.266   8.341 -0.6748 -0.5636  1.9892
  509MOL0     H67125   5.482   1.202   8.692 -2.1316 -0.3513 -0.6220
  509MOL0     H67126   5.357   1.322   8.689  0.7233  1.0113 -1.3091
  509MOL0     H67127   5.541   1.495   8.704  0.7554  0.3251  3.9895
  509MOL0     H67128   5.656   1.373   8.664 -1.2420 -2.5849 -1.3476
  509MOL0     H67129   5.654   1.408   8.928 -1.0257 -0.9752  2.1280
  509MOL0     H67130   5.587   1.252   8.891 -0.2869 -1.5242 -1.1748
  509MOL0     H67131   5.406   1.497   8.913  1.5128 -0.7090 -2.4232
  509MOL0     H67132   5.369   1.322   8.931 -2.9915  1.3178  1.6021
  509MOL0     H67133   5.374   1.439   9.145  0.9810  0.7001  1.8158
  509MOL0     H67134   5.535   1.510   9.112  0.9685  0.1346 -1.0251
  509MOL0     H67135   5.636   1.280   9.142  1.6424  0.1068  2.3307
  509MOL0     H67136   5.480   1.204   9.109  0.5053 -0.2458 -1.0226
  509MOL0     H67137   5.401   1.277   9.340 -0.8153 -1.2520  0.7004
  509MOL0     H67138   5.543   1.177   9.337  1.6858  0.2629 -0.6613
  509MOL0     H67139   5.539   1.473   9.372  2.1306  0.9841 -3.9093
  509MOL0     H67140   5.697   1.399   9.354  0.4285 -3.4541 -1.2458
  509MOL0     H67141   5.389   1.323   9.603 -0.2196  2.2369  1.0539
  509MOL0     H67142   5.409   1.339   9.913  0.4041  0.9745 -1.7764
  509MOL0     H67143   5.557   1.249   9.946  1.7379  0.5528 -1.6889
  509MOL0     H67144   5.322   1.158   9.777  1.4171 -1.5427 -2.4292
  509MOL0     H67145   5.358   1.099   9.951  0.3748 -2.8927 -1.0623
  509MOL0     H67146   5.393   0.934   9.789 -2.4041  1.3008  1.5442
  509MOL0     H67147   5.494   1.030   9.687  0.8395 -0.2636  1.0330
  509MOL0     H67148   5.561   0.942   9.973 -3.5187  0.2121 -0.2297
  509MOL0     H67149   5.655   1.062   9.894 -3.5305  2.3777  3.4720
  509MOL0     H67150   5.559   0.772   9.597 -0.9373  1.3235  1.9468
  509MOL0     H67151   5.637   0.840   9.356  2.4322  0.3228 -1.5805
  509MOL0     H67152   5.908   1.388   9.298 -0.7689 -0.6108  0.2920
  509MOL0     H67153   5.957   1.537   9.100  2.9944 -0.2021  1.3425
  509MOL0     H67154   5.976   1.649   8.865 -0.7432 -0.3607  4.7546
  509MOL0     H67155   5.820   1.574   8.908  1.6179  3.0849  1.1488
  509MOL0     H67156   5.750   1.638   8.692 -1.9453 -4.1016  2.1733
  509MOL0     H67157   5.838   1.491   8.651  0.7962 -0.2554  0.7250
  509MOL0     H67158   6.037   1.633   8.582  0.3162 -1.7470  5.0781
  509MOL0     H67159   5.941   1.777   8.636  2.6416  1.3776 -4.7652
  509MOL0     H67160   5.827   1.561   8.447 -0.6208 -0.6193  1.5165
  509MOL0     H67161   5.794   1.742   8.448  1.4308  1.7695  0.1127
  509MOL0     H67162   6.045   1.615   8.340 -0.2221  0.0917  0.8126
  509MOL0     H67163   6.006   1.786   8.349  0.4488 -0.1136  0.1102
  509MOL0     H67164   5.917   1.732   8.137 -1.5098  0.3176  0.0706
  509MOL0     H67165   5.772   1.709   8.233  0.1918 -0.6267  1.0689
  509MOL0     H67166   5.882   1.455   8.268  0.6347 -1.5405 -0.2875
  509MOL0     H67167   5.761   1.508   8.157  0.1196 -3.1042  1.3220
  509MOL0     H67168   6.051   1.513   8.084 -0.8965 -0.0886  2.9629
  509MOL0     H67169   5.915   1.553   7.972  0.2998  0.0488 -0.7329
  509MOL0     H67170   5.970   1.207   8.845  1.1031  2.0454 -0.4285
  509MOL0     H67171   5.950   1.060   9.028  2.9703  1.0492 -0.1666
  509MOL0     H67172   5.910   1.121   9.547 -0.6828  0.4398  1.2464
  509MOL0     H67173   5.870   1.023   9.747 -0.3058  3.8177 -1.5078
  509MOL0     H67174   5.292   1.118   8.515 -2.9883  0.2679 -1.5985
  509MOL0     H67175   5.279   0.937   8.367  1.5174 -1.6550 -0.9400
  509MOL0     H67176   5.702   0.612   8.055 -0.4910 -0.0854  0.9962
  509MOL0     H67177   5.685   0.479   7.868  0.3872  0.5848 -0.7020
  509MOL0     H67178   5.463   0.475   7.497  0.8229 -0.7394  1.8504
  509MOL0     H67179   5.357   0.595   7.569 -2.3653 -0.7162 -2.8639
  509MOL0     H67180   5.191   0.452   7.639 -0.3601 -3.0376 -0.9650
  509MOL0     H67181   5.240   0.394   7.483 -1.1602  1.4698 -0.5498
  509MOL0     H67182   5.220   0.214   7.672  0.3834  0.4177 -0.8223
  509MOL0     H67183   5.364   0.293   7.755  0.8823 -0.6021  0.6599
  509MOL0     H67184   5.345   0.174   7.474  3.2168 -3.3452 -2.2878
  509MOL0     H67185   5.484   0.254   7.535  0.9353 -2.0963 -0.7062
  509MOL0     H67186   5.465  -0.114   7.770  0.7975 -3.2650 -2.6527
  509MOL0     H67187   5.297   0.650   7.773 -1.3873  1.5265  1.0722
  509MOL0     H67188   5.309   0.788   7.953 -1.0399 -1.1078 -3.0345
  510MOL0     O67189   7.738   2.776  10.292 -0.2629 -0.3706 -0.4961
  510MOL0     C67190   7.855   2.756  10.290 -0.7027 -0.1425  0.0220
  510MOL0     O67191   7.919   2.656  10.357  0.3967  0.7641  0.0825
  510MOL0     C67192   7.839   2.560  10.415  0.9138  0.9549 -0.2933
  510MOL0     C67193   7.760   2.465  10.342  0.2995  0.5114  0.2237
  510MOL0     C67194   7.688   2.359  10.401 -0.4983 -0.6354 -0.5594
  510MOL0     C67195   7.688   2.354  10.541 -0.2082 -0.5883 -0.0395
  510MOL0     O67196   7.634   2.255  10.621  0.7938 -0.9929  0.4154
  510MOL0     C67197   7.556   2.150  10.576  0.2586  0.5364  0.3624
  510MOL0     C67198   7.525   2.052  10.694  0.2890 -0.9104  0.1523
  510MOL0     C67199   7.458   2.106  10.813 -0.2525  0.0094 -0.0527
  510MOL0     C67200   7.421   1.992  10.921 -0.4679  1.0171  0.5441
  510MOL0     C67201   7.326   2.060  11.020 -0.6628 -0.2285  0.1266
  510MOL0     C67202   7.318   1.970  11.152 -0.1150 -0.7318 -0.2163
  510MOL0     C67203   7.207   2.017  11.246  0.1106  0.5826  0.8583
  510MOL0     C67204   7.238   2.141  11.326 -0.1009  0.0944 -0.6236
  510MOL0     N67205   7.157   2.140  11.454 -0.1639  0.9618 -0.2177
  510MOL0     C67206   7.207   2.069  11.566  0.2374  0.0117  0.4240
  510MOL0     C67207   7.122   2.114  11.663  0.0123  0.1052  0.1107
  510MOL0     C67208   7.144   2.059  11.801  0.4238  0.2533  0.1129
  510MOL0     C67209   7.251   2.145  11.871  1.2020 -0.0223  0.2080
  510MOL0     C67210   7.201   2.278  11.928 -0.7750 -0.2617 -0.2284
  510MOL0     C67211   7.316   2.376  11.935 -0.0577 -0.6223  0.3974
  510MOL0     O67212   7.267   2.513  11.926  0.1479 -0.3939 -0.1456
  510MOL0     C67213   7.188   2.577  12.020 -0.4276  1.3643  0.4346
  510MOL0     C67214   7.186   2.528  12.155 -0.0719 -0.1291 -0.2382
  510MOL0     C67215   7.114   2.610  12.253 -0.4400 -0.1735  0.6722
  510MOL0     C67216   7.079   2.744  12.216  0.2701 -0.5387  0.0866
  510MOL0     C67217   7.015   2.834  12.317 -0.1782  1.0476 -0.1619
  510MOL0     O67218   7.070   2.957  12.328  0.7188 -0.0810 -0.8077
  510MOL0     C67219   7.021   3.016  12.443 -0.1918 -0.3517  0.1694
  510MOL0     C67220   7.018   2.956  12.569 -0.6873  0.1538 -0.1026
  510MOL0     C67221   6.983   3.032  12.684 -0.0804 -0.1704 -0.4033
  510MOL0     C67222   6.946   3.172  12.674 -0.3793  0.7547  0.3193
  510MOL0     O67223   6.940   3.247  12.793  0.1823  0.3687  1.2952
  510MOL0     C67224   7.064   3.256  12.869 -0.0081 -0.5989  0.6758
  510MOL0     C67225   7.018   3.338  12.988 -0.0813 -0.9003 -0.6175
  510MOL0     C67226   6.983   3.485  12.941 -0.1187  0.4562  0.5903
  510MOL0     C67227   7.115   3.558  12.899  0.9461 -1.1152  0.1738
  510MOL0     C67228   7.095   3.706  12.845 -0.0056  0.0782 -0.6330
  510MOL0     C67229   7.213   3.803  12.887 -0.8726  0.2498  0.1859
  510MOL0     C67230   7.166   3.943  12.924 -0.1960 -0.0503 -0.6725
  510MOL0     C67231   7.142   4.047  12.799  0.6883 -0.4521  0.3613
  510MOL0    Cl67232   7.092   4.207  12.858 -0.2006  0.5971  0.2953
  510MOL0     C67233   6.932   3.219  12.545  1.0071 -0.3891  0.0015
  510MOL0     C67234   6.970   3.149  12.436 -0.4458 -0.3046 -0.2283
  510MOL0     O67235   6.912   2.786  12.369 -0.0402  0.4560 -0.7652
  510MOL0     C67236   7.104   2.793  12.089 -0.2378 -0.3562  0.7093
  510MOL0     C67237   7.149   2.706  11.991 -0.1154 -0.4563 -0.4705
  510MOL0     N67238   7.031   2.206  11.627  0.0018 -0.0373  0.6845
  510MOL0     N67239   7.067   2.225  11.498 -0.4878 -0.1954 -0.4928
  510MOL0     C67240   7.771   2.443  10.625 -0.7125 -0.1999  0.3919
  510MOL0     C67241   7.843   2.548  10.558 -0.1778 -0.1657  0.3766
  510MOL0     C67242   7.946   2.854  10.209  0.8021 -0.0804 -0.3574
  510MOL0     C67243   7.877   2.954  10.141  1.1385 -0.4188 -0.7387
  510MOL0     C67244   7.953   3.045  10.071  0.0836  0.5930 -0.0338
  510MOL0     C67245   8.089   3.040  10.059  0.0370 -0.0034 -0.3860
  510MOL0     O67246   8.160   3.138   9.997  0.0562  0.2298  0.3903
  510MOL0     C67247   8.099   3.225   9.903  0.5341  0.8527 -0.6890
  510MOL0     C67248   8.196   3.294   9.818  1.0397 -1.1437 -0.5830
  510MOL0     C67249   8.268   3.189   9.720  0.6308 -0.4711  0.0563
  510MOL0     C67250   8.378   3.272   9.635  0.4472 -0.3326 -0.3735
  510MOL0     C67251   8.313   3.351   9.533 -0.1486  0.5867 -0.4081
  510MOL0     C67252   8.243   3.415   9.456  0.1029  0.2897  0.5059
  510MOL0     C67253   8.158   2.940  10.130 -0.2157  0.5952 -0.3430
  510MOL0     C67254   8.083   2.839  10.196  1.0453 -0.8925 -0.4112
  510MOL0     H67255   7.755   2.483  10.235  0.7401  1.9391  0.4198
  510MOL0     H67256   7.643   2.273  10.352  0.7144 -0.9106 -1.2246
  510MOL0     H67257   7.604   2.102  10.490  0.3195  0.0121  0.6907
  510MOL0     H67258   7.469   2.195  10.526  1.5118  0.1022 -2.4430
  510MOL0     H67259   7.620   2.004  10.717  1.5840  0.5992 -1.7163
  510MOL0     H67260   7.468   1.967  10.656  1.4806 -1.9518  0.6344
  510MOL0     H67261   7.361   2.136  10.772 -0.8848 -1.1583  0.5295
  510MOL0     H67262   7.512   2.192  10.852 -0.5956  0.3688 -0.3692
  510MOL0     H67263   7.375   1.905  10.872 -1.0986 -0.7264  3.9540
  510MOL0     H67264   7.522   1.971  10.957 -0.1404  2.9943  0.8995
  510MOL0     H67265   7.238   2.082  10.959  0.7542  1.4500 -1.4585
  510MOL0     H67266   7.360   2.162  11.043 -1.9808  0.4836 -0.9252
  510MOL0     H67267   7.408   1.976  11.215  1.5563 -0.0335 -2.5179
  510MOL0     H67268   7.300   1.866  11.125 -1.7645 -0.6628  0.4791
  510MOL0     H67269   7.125   2.049  11.180  1.9943  0.6292 -1.5886
  510MOL0     H67270   7.164   1.945  11.316  0.3533  0.7963  1.2264
  510MOL0     H67271   7.215   2.229  11.266  1.4869 -0.3050 -1.8898
  510MOL0     H67272   7.343   2.143  11.356 -0.3801  2.3032  0.4758
  510MOL0     H67273   7.289   1.998  11.566 -0.6904 -1.0840  0.9141
  510MOL0     H67274   7.175   1.955  11.795  3.8972  1.0810  1.4616
  510MOL0     H67275   7.043   2.049  11.843 -0.9951  1.2400 -2.8137
  510MOL0     H67276   7.335   2.171  11.806  2.1130  3.0445  2.4051
  510MOL0     H67277   7.294   2.089  11.955 -1.3983  0.7121  2.1411
  510MOL0     H67278   7.141   2.327  11.850 -2.4780 -1.1939  0.4311
  510MOL0     H67279   7.142   2.257  12.018  0.5229 -2.4679  0.1762
  510MOL0     H67280   7.383   2.372  11.850  0.9720 -0.5262  1.1847
  510MOL0     H67281   7.376   2.360  12.026  1.7163  2.2308 -0.1557
  510MOL0     H67282   7.229   2.432  12.181 -1.8396 -0.4281  1.8927
  510MOL0     H67283   7.106   2.576  12.356  1.8306  1.2434  1.4053
  510MOL0     H67284   7.041   2.850  12.572 -0.2513  0.2583  0.2970
  510MOL0     H67285   7.003   2.982  12.779  2.1495  0.6224 -0.4035
  510MOL0     H67286   7.151   3.292  12.814  0.5758 -1.3995  1.0393
  510MOL0     H67287   7.099   3.156  12.898  1.0695 -0.4063  0.1010
  510MOL0     H67288   7.087   3.341  13.072 -1.8066 -1.0162  0.8745
  510MOL0     H67289   6.930   3.284  13.024 -0.3539  0.8710  1.6323
  510MOL0     H67290   6.941   3.531  13.031 -1.1687  0.3058  0.1890
  510MOL0     H67291   6.915   3.477  12.855  0.7258 -3.7148  0.0867
  510MOL0     H67292   7.195   3.554  12.972  0.1994  0.1377  1.1112
  510MOL0     H67293   7.160   3.500  12.818  0.7542 -0.9420 -0.0603
  510MOL0     H67294   7.003   3.749  12.886 -1.6358 -1.6631 -2.1753
  510MOL0     H67295   7.074   3.709  12.737  0.6549 -1.2688 -0.8205
  510MOL0     H67296   7.288   3.803  12.808 -1.0444 -1.2647  0.0018
  510MOL0     H67297   7.267   3.753  12.968  0.6993  1.4238 -0.0854
  510MOL0     H67298   7.069   3.946  12.974  0.7345  0.6959  1.1612
  510MOL0     H67299   7.229   3.992  12.998 -2.9649  1.9179  0.5439
  510MOL0     H67300   7.065   4.011  12.729  0.2331 -0.9771  1.1253
  510MOL0     H67301   7.235   4.069  12.745 -0.9038  5.3204 -0.7356
  510MOL0     H67302   6.904   3.324  12.534 -1.6806 -0.9372  0.9139
  510MOL0     H67303   6.994   3.206  12.346 -0.0633  1.8279  1.1500
  510MOL0     H67304   7.085   2.895  12.058 -1.5389 -0.3643  1.3805
  510MOL0     H67305   7.166   2.750  11.893  0.2499  2.3710  0.7775
  510MOL0     H67306   7.787   2.421  10.730 -2.7957 -3.4790  0.1576
  510MOL0     H67307   7.911   2.605  10.622  0.8468 -3.3300  2.3580
  510MOL0     H67308   7.770   2.971  10.156  1.6820  1.5945  1.4687
  510MOL0     H67309   7.894   3.128  10.032 -1.7643 -0.8928 -0.5193
  510MOL0     H67310   8.039   3.296   9.961 -4.1328 -0.3800 -3.4351
  510MOL0     H67311   8.027   3.175   9.837 -0.3133  2.6684 -1.2345
  510MOL0     H67312   8.130   3.369   9.774  0.8992 -1.9938 -1.8892
  510MOL0     H67313   8.265   3.357   9.875  0.7335  0.6901 -2.1666
  510MOL0     H67314   8.203   3.146   9.644  2.0987  1.5711 -2.5433
  510MOL0     H67315   8.312   3.106   9.775 -1.5684 -1.7092  0.0583
  510MOL0     H67316   8.428   3.337   9.707 -0.9659 -0.0884  0.4276
  510MOL0     H67317   8.446   3.207   9.578  0.0052  0.0535 -1.3580
  510MOL0     H67318   8.178   3.445   9.376  1.1655 -0.1254 -0.5464
  510MOL0     H67319   8.267   2.937  10.127 -0.0863  2.5978  0.8410
  510MOL0     H67320   8.141   2.764  10.249  0.7654 -0.9378 -0.1674
  511MOL0     O67321   8.606   7.000   8.318  0.5379 -0.4766  0.1641
  511MOL0     C67322   8.538   7.093   8.365 -0.5153 -1.2059 -0.1696
  511MOL0     O67323   8.577   7.206   8.429 -0.4164  0.6986  0.0931
  511MOL0     C67324   8.714   7.220   8.418  0.5808 -0.3043  1.3931
  511MOL0     C67325   8.775   7.269   8.302  0.6896 -0.2412 -0.5373
  511MOL0     C67326   8.918   7.266   8.290 -0.7958 -0.8600 -0.5340
  511MOL0     C67327   8.995   7.209   8.399 -0.0168  0.8357 -0.3386
  511MOL0     O67328   9.129   7.204   8.424  0.0540  0.2031  0.6682
  511MOL0     C67329   9.199   7.317   8.374  0.0933  0.0009  0.4916
  511MOL0     C67330   9.343   7.336   8.430  1.0428 -0.2645 -0.2907
  511MOL0     C67331   9.419   7.459   8.383  0.4430 -0.2955 -0.3170
  511MOL0     C67332   9.475   7.445   8.249  0.8005 -0.2341 -0.7852
  511MOL0     C67333   9.575   7.561   8.210  0.8153  0.8428 -0.3394
  511MOL0     C67334   9.521   7.707   8.220  0.2300  0.3201  0.2658
  511MOL0     C67335   9.582   7.791   8.110  0.4355 -0.1408 -0.4596
  511MOL0     C67336   9.739   7.809   8.135  0.3899  0.5795  0.1176
  511MOL0     N67337   9.804   7.864   8.022 -0.3426 -0.5863  0.1810
  511MOL0     C67338   9.808   7.998   7.990  0.2995  0.1752  0.2788
  511MOL0     C67339   9.898   8.004   7.893 -0.7144  0.6378  0.4925
  511MOL0     C67340   9.913   8.128   7.798 -0.1741 -0.6657  0.4408
  511MOL0     C67341  10.023   8.220   7.844  0.0045  0.0735  0.0780
  511MOL0     C67342   9.982   8.308   7.965  0.4686  0.1888 -0.5962
  511MOL0     C67343  10.083   8.411   7.987  0.0934  0.2947  1.1023
  511MOL0     O67344  10.025   8.511   8.073 -0.0829  0.5606  0.8596
  511MOL0     C67345  10.100   8.611   8.120 -0.4501  0.4053 -0.3944
  511MOL0     C67346  10.239   8.617   8.123  0.0959  1.0341 -0.1836
  511MOL0     C67347  10.304   8.730   8.175 -0.2751 -0.0252 -0.1513
  511MOL0     C67348  10.230   8.837   8.231  0.0309 -0.3712 -0.6525
  511MOL0     C67349  10.287   8.962   8.285 -0.6205  0.4187 -0.0835
  511MOL0     O67350  10.413   8.977   8.251  0.1955 -0.3867  0.4687
  511MOL0     C67351  10.485   9.086   8.302 -0.9324  0.9657  0.8052
  511MOL0     C67352  10.567   9.162   8.215 -0.3998 -0.6837 -0.2069
  511MOL0     C67353  10.653   9.257   8.265 -0.0691 -0.3828 -0.4329
  511MOL0     C67354  10.671   9.266   8.407 -0.5908 -0.4441  0.8464
  511MOL0     O67355  10.779   9.339   8.463  0.8127 -0.3340  0.0646
  511MOL0     C67356  10.857   9.410   8.380  0.3076  0.8157 -0.2586
  511MOL0     C67357  10.913   9.528   8.453  0.1874  0.3821 -0.6004
  511MOL0     C67358  10.979   9.510   8.586  0.6426  0.4627  0.4447
  511MOL0     C67359  11.023   9.645   8.636  0.0634  0.2566 -0.5036
  511MOL0     C67360  11.100   9.628   8.766 -0.1968  1.5306  0.2414
  511MOL0     C67361  11.017   9.608   8.897 -0.3821 -1.0049  0.4350
  511MOL0     C67362  11.100   9.568   9.019 -0.2938 -0.3949  0.0832
  511MOL0     C67363  11.058   9.622   9.153  0.1850  0.3611 -0.3837
  511MOL0    Cl67364  11.130   9.520   9.283 -0.2977  0.6947  0.3581
  511MOL0     C67365  10.578   9.208   8.486 -0.2471  0.7745 -0.2374
  511MOL0     C67366  10.488   9.115   8.438 -0.2006 -0.7811 -0.0707
  511MOL0     O67367  10.218   9.045   8.336  0.5949 -0.3674  0.2877
  511MOL0     C67368  10.089   8.817   8.245 -0.0066  0.0165  0.1032
  511MOL0     C67369  10.032   8.707   8.177 -0.6392 -0.6135  0.1687
  511MOL0     N67370   9.952   7.877   7.875 -0.3959 -0.3146  0.0306
  511MOL0     N67371   9.908   7.801   7.958 -0.0192 -0.0998  0.0969
  511MOL0     C67372   8.920   7.161   8.507  0.4099  1.0108  0.3999
  511MOL0     C67373   8.786   7.173   8.523  0.2786  0.4948  0.4623
  511MOL0     C67374   8.398   7.077   8.342 -0.6834  0.8896  0.9242
  511MOL0     C67375   8.334   6.946   8.335 -0.4743 -0.1607  0.6106
  511MOL0     C67376   8.190   6.948   8.320 -0.5709 -0.2208 -0.1440
  511MOL0     C67377   8.116   7.063   8.315  0.1669  0.0108  0.7652
  511MOL0     O67378   7.975   7.069   8.318 -0.1423 -0.4963  0.2643
  511MOL0     C67379   7.914   6.989   8.416 -0.4033  0.7249  0.4404
  511MOL0     C67380   7.764   7.015   8.418  0.6609 -0.7047 -0.0699
  511MOL0     C67381   7.695   6.955   8.297 -0.2622 -0.3357  0.1874
  511MOL0     C67382   7.716   6.799   8.305  0.2892  0.2443  0.5829
  511MOL0     C67383   7.654   6.722   8.206  1.3725 -0.8332  0.5733
  511MOL0     C67384   7.595   6.678   8.110 -0.7774 -0.4571  0.3010
  511MOL0     C67385   8.187   7.183   8.296 -0.6337  0.3941 -0.2677
  511MOL0     C67386   8.319   7.186   8.319  0.4011 -0.6033 -0.3187
  511MOL0     H67387   8.715   7.316   8.224  1.2226  0.1124 -0.7360
  511MOL0     H67388   8.964   7.314   8.204  1.1733  0.8173  1.3407
  511MOL0     H67389   9.142   7.409   8.388 -0.8788 -0.3847 -0.7415
  511MOL0     H67390   9.202   7.292   8.268  2.3854 -3.8510  1.2888
  511MOL0     H67391   9.408   7.248   8.421  0.9001 -0.4705  0.6116
  511MOL0     H67392   9.327   7.348   8.538 -1.9358 -2.7839 -0.3060
  511MOL0     H67393   9.500   7.488   8.450  0.5571 -0.4934 -0.3703
  511MOL0     H67394   9.347   7.542   8.381  1.4907  0.6374 -0.8779
  511MOL0     H67395   9.536   7.354   8.246 -0.2924 -0.9737 -1.0553
  511MOL0     H67396   9.393   7.446   8.176  0.8656  0.2368 -0.8582
  511MOL0     H67397   9.612   7.548   8.108  1.4485  1.1128 -0.1503
  511MOL0     H67398   9.660   7.537   8.275  0.6069 -0.6183 -0.5935
  511MOL0     H67399   9.546   7.753   8.317 -0.1041  0.5893  0.2263
  511MOL0     H67400   9.412   7.716   8.223 -0.1129 -1.4781 -3.0502
  511MOL0     H67401   9.556   7.750   8.013 -2.1472 -0.7565  0.4177
  511MOL0     H67402   9.545   7.894   8.111  2.3532  0.8028 -4.5041
  511MOL0     H67403   9.779   7.709   8.153 -0.5118  0.2960  0.5948
  511MOL0     H67404   9.756   7.868   8.226  0.5440  2.7204 -1.2181
  511MOL0     H67405   9.755   8.084   8.031 -2.1170 -0.8630 -0.4894
  511MOL0     H67406   9.824   8.189   7.782  2.0278  2.0051 -3.0217
  511MOL0     H67407   9.938   8.100   7.695  0.9840 -1.3384  0.8883
  511MOL0     H67408  10.043   8.292   7.765  0.6858 -1.9700 -1.7374
  511MOL0     H67409  10.119   8.167   7.858 -0.7156 -0.9701  1.3081
  511MOL0     H67410   9.882   8.352   7.952 -0.0220 -0.5821  0.4485
  511MOL0     H67411   9.969   8.249   8.056 -1.6551  0.0632 -0.9352
  511MOL0     H67412  10.103   8.449   7.886  0.1868 -0.2829  0.9018
  511MOL0     H67413  10.172   8.360   8.024 -0.3466 -0.3457  1.2804
  511MOL0     H67414  10.293   8.527   8.095 -0.5706 -0.1496  2.1669
  511MOL0     H67415  10.412   8.732   8.176 -0.2859  0.5104 -0.1196
  511MOL0     H67416  10.560   9.156   8.107  1.6548  2.0358 -0.5794
  511MOL0     H67417  10.709   9.312   8.190 -0.2659  0.1321 -0.2059
  511MOL0     H67418  10.815   9.441   8.284 -0.4568 -2.1909 -0.9742
  511MOL0     H67419  10.940   9.342   8.361 -0.0568  0.4786 -0.6629
  511MOL0     H67420  10.834   9.603   8.461 -0.8174 -0.7818  1.0832
  511MOL0     H67421  10.989   9.572   8.388  1.6502 -0.5870  0.3976
  511MOL0     H67422  11.067   9.446   8.575 -0.2027 -1.0310  1.7736
  511MOL0     H67423  10.913   9.463   8.660 -1.4214  1.8575 -0.4337
  511MOL0     H67424  11.108   9.669   8.572 -1.1154 -1.0015 -2.6896
  511MOL0     H67425  10.952   9.728   8.633  1.7462  1.7282 -1.8169
  511MOL0     H67426  11.165   9.716   8.777  2.5944 -0.2714 -0.6536
  511MOL0     H67427  11.163   9.539   8.756 -1.8917  0.2733  0.3940
  511MOL0     H67428  10.940   9.532   8.884 -1.4753 -0.5753  3.5690
  511MOL0     H67429  10.971   9.705   8.917  0.6342 -1.0018  3.3024
  511MOL0     H67430  11.093   9.459   9.016 -1.9457 -0.3042 -1.6045
  511MOL0     H67431  11.206   9.591   9.006  0.0675 -1.8437  0.2448
  511MOL0     H67432  10.949   9.621   9.155  0.1303  2.0309 -0.8988
  511MOL0     H67433  11.079   9.729   9.166 -0.8463  0.3120  2.1516
  511MOL0     H67434  10.600   9.214   8.592  1.2948  1.1151 -0.5384
  511MOL0     H67435  10.420   9.066   8.507  1.4123 -1.2614  1.2596
  511MOL0     H67436  10.028   8.894   8.293  0.0154 -1.4018  2.5811
  511MOL0     H67437   9.926   8.688   8.192  0.0150 -4.5523  0.7921
  511MOL0     H67438   8.964   7.110   8.592 -0.5218  0.3257  0.4842
  511MOL0     H67439   8.734   7.127   8.607 -0.9890 -0.9277 -1.0293
  511MOL0     H67440   8.391   6.855   8.348  1.9744  1.1732 -0.1488
  511MOL0     H67441   8.143   6.850   8.320  1.3559 -1.1907 -0.5634
  511MOL0     H67442   7.955   7.019   8.513  2.8944 -0.5399 -0.4528
  511MOL0     H67443   7.937   6.883   8.403 -1.7863  0.7255 -3.1558
  511MOL0     H67444   7.733   6.972   8.514  0.9883 -1.3835 -0.2607
  511MOL0     H67445   7.749   7.123   8.425  1.5676 -0.6307  1.0925
  511MOL0     H67446   7.754   6.985   8.210  0.3804 -0.9693  0.3985
  511MOL0     H67447   7.593   6.990   8.281  0.4043  0.4559 -3.2409
  511MOL0     H67448   7.816   6.754   8.306 -0.4129 -1.5265  3.3172
  511MOL0     H67449   7.666   6.762   8.395  3.5934 -1.0904  2.0400
  511MOL0     H67450   7.553   6.645   8.017  2.7036 -1.1853 -1.2016
  511MOL0     H67451   8.141   7.277   8.268 -2.8077  0.2427  2.3621
  511MOL0     H67452   8.362   7.284   8.302 -2.6045  0.8294 -0.2713
  512MOL0     O67453   6.724  10.170   7.517  0.1916  0.1578  0.2417
  512MOL0     C67454   6.710  10.111   7.623  0.4643  0.5674  1.4115
  512MOL0     O67455   6.612  10.136   7.711 -0.3456  0.0882 -0.0682
  512MOL0     C67456   6.515  10.218   7.672  0.0231 -0.3949  0.1250
  512MOL0     C67457   6.520  10.359   7.693  0.1913  0.0284  0.3523
  512MOL0     C67458   6.404  10.432   7.668 -0.3623  0.4591  0.1772
  512MOL0     C67459   6.289  10.378   7.620 -0.2946  0.0791 -0.2465
  512MOL0     O67460   6.188  10.465   7.599 -0.8862  1.4436 -0.6661
  512MOL0     C67461   6.059  10.423   7.645 -0.0230  0.0089  0.2899
  512MOL0     C67462   5.931  10.485   7.593  0.0790  0.0573  0.1094
  512MOL0     C67463   5.805  10.461   7.670 -0.3526  0.1520  0.2135
  512MOL0     C67464   5.674  10.507   7.590  0.4550  0.2718 -0.0621
  512MOL0     C67465   5.544  10.490   7.677  0.4673 -0.0206  0.4761
  512MOL0     C67466   5.420  10.518   7.592  0.2361  0.4835 -0.3920
  512MOL0     C67467   5.394  10.660   7.537  0.1824  0.7778 -0.6217
  512MOL0     C67468   5.362  10.755   7.642 -0.0050 -0.6895  0.8444
  512MOL0     N67469   5.320  10.882   7.588  0.3550  0.3814 -0.0567
  512MOL0     C67470   5.236  10.915   7.482  0.8329 -0.3162 -0.4578
  512MOL0     C67471   5.237  11.052   7.473  1.2103  0.1035  0.6109
  512MOL0     C67472   5.168  11.143   7.379 -0.3801 -0.0020 -0.0329
  512MOL0     C67473   5.033  11.200   7.430  0.5611 -1.1414  0.3374
  512MOL0     C67474   5.038  11.295   7.548  0.5341  0.3465  0.7950
  512MOL0     C67475   5.110  11.422   7.507  0.2343 -0.7512 -0.1276
  512MOL0     O67476   5.025  11.525   7.462 -0.1295 -0.0210 -0.4239
  512MOL0     C67477   4.957  11.605   7.557 -0.4924 -0.6184 -1.1694
  512MOL0     C67478   4.959  11.576   7.696  0.1164  0.0039 -0.0496
  512MOL0     C67479   4.882  11.658   7.783 -0.1062  0.7082  0.2437
  512MOL0     C67480   4.798  11.765   7.744  0.3501  0.3520  0.1527
  512MOL0     C67481   4.713  11.840   7.838 -0.0966  0.0118 -0.0784
  512MOL0     O67482   4.725  11.826   7.972 -1.3747  0.4739  0.5865
  512MOL0     C67483   4.639  11.874   8.069 -0.8251 -0.1786 -0.3133
  512MOL0     C67484   4.697  11.901   8.197 -0.0402 -0.3522  0.4946
  512MOL0     C67485   4.618  11.988   8.279 -0.7043  0.3427 -0.5457
  512MOL0     C67486   4.480  11.996   8.261 -0.0341  0.1376  0.3081
  512MOL0     O67487   4.385  12.069   8.337  0.3265  0.8136 -1.0055
  512MOL0     C67488   4.438  12.180   8.407 -0.3057  0.3401  0.0982
  512MOL0     C67489   4.467  12.143   8.554 -0.4418 -0.3888 -0.0072
  512MOL0     C67490   4.360  12.179   8.662  0.1490  0.6056 -0.2515
  512MOL0     C67491   4.261  12.058   8.681 -0.7010  0.1827  0.9272
  512MOL0     C67492   4.145  12.120   8.751 -0.7605 -0.3485  0.7159
  512MOL0     C67493   4.049  12.002   8.776  0.1875  0.0473  0.2923
  512MOL0     C67494   3.906  12.040   8.830 -1.4493  0.3936  0.5134
  512MOL0     C67495   3.894  12.112   8.959 -0.0044  0.6455 -0.2823
  512MOL0    Cl67496   4.013  12.055   9.093  0.2197 -0.6381  0.1592
  512MOL0     C67497   4.425  11.927   8.154  0.5271  0.1812 -0.3867
  512MOL0     C67498   4.506  11.877   8.051  0.3999  0.0034  0.0250
  512MOL0     O67499   4.638  11.916   7.784 -0.3489  0.6068 -0.1567
  512MOL0     C67500   4.797  11.778   7.602  0.0100 -0.1215 -0.1906
  512MOL0     C67501   4.874  11.706   7.516 -0.9488 -0.0266  0.4169
  512MOL0     N67502   5.314  11.098   7.576  0.4654  0.1833 -0.0913
  512MOL0     N67503   5.368  10.997   7.635  0.1504  0.5132  0.2463
  512MOL0     C67504   6.291  10.241   7.595 -0.1888 -0.5073  0.7127
  512MOL0     C67505   6.402  10.157   7.618 -0.0526 -0.4114  0.1227
  512MOL0     C67506   6.816  10.011   7.659 -0.5949 -0.3991  0.9324
  512MOL0     C67507   6.805   9.944   7.774 -0.4154  0.7690 -0.2482
  512MOL0     C67508   6.902   9.859   7.808 -0.0514  0.3118 -1.3013
  512MOL0     C67509   7.008   9.821   7.726 -0.6163 -0.9419  0.9855
  512MOL0     O67510   7.111   9.730   7.762  0.4031 -0.6992 -0.1630
  512MOL0     C67511   7.166   9.721   7.890 -0.4229 -0.1457 -0.5345
  512MOL0     C67512   7.235   9.845   7.920  0.2410 -0.0801  0.0094
  512MOL0     C67513   7.294   9.840   8.059 -0.3586  0.2317 -0.5017
  512MOL0     C67514   7.375   9.966   8.088 -0.6643 -0.6779  0.1999
  512MOL0     C67515   7.447   9.961   8.219 -1.1360  0.1789  0.4935
  512MOL0     C67516   7.515   9.939   8.322  0.6673  0.2397 -0.1967
  512MOL0     C67517   7.020   9.880   7.595  1.3717 -0.6382 -0.5292
  512MOL0     C67518   6.918   9.980   7.564 -0.1341  0.1369  0.2484
  512MOL0     H67519   6.607  10.405   7.738 -0.0878  1.3579 -0.4090
  512MOL0     H67520   6.403  10.539   7.685 -0.3397  0.4973 -0.0600
  512MOL0     H67521   6.038  10.425   7.753 -1.4842  4.6806  0.1466
  512MOL0     H67522   6.050  10.319   7.611  0.8276  0.0464 -0.0724
  512MOL0     H67523   5.931  10.450   7.489  1.6755 -3.6116  1.1903
  512MOL0     H67524   5.945  10.593   7.603  0.9258 -0.2186  2.6962
  512MOL0     H67525   5.811  10.514   7.766  0.7082 -1.2380  0.9494
  512MOL0     H67526   5.804  10.354   7.692  0.9941  0.0536 -0.1491
  512MOL0     H67527   5.678  10.612   7.561  0.2785  0.0677 -0.8626
  512MOL0     H67528   5.669  10.441   7.503 -1.7140 -2.0444  1.6498
  512MOL0     H67529   5.534  10.545   7.771 -2.7938  0.4281 -0.0269
  512MOL0     H67530   5.541  10.387   7.713 -0.1817 -0.7329 -1.5073
  512MOL0     H67531   5.334  10.504   7.658  1.7173  0.3819  1.5941
  512MOL0     H67532   5.420  10.445   7.510 -1.9120 -0.7188  0.5802
  512MOL0     H67533   5.481  10.701   7.484 -0.4648 -1.1806 -3.4205
  512MOL0     H67534   5.308  10.654   7.470 -1.7874 -1.3577  1.9216
  512MOL0     H67535   5.449  10.767   7.707  0.1602  2.0951  0.2385
  512MOL0     H67536   5.277  10.716   7.700  2.2898 -4.5296  1.9679
  512MOL0     H67537   5.168  10.851   7.427 -0.5560 -1.7183  2.6525
  512MOL0     H67538   5.150  11.086   7.287 -1.5987 -1.0619  0.8239
  512MOL0     H67539   5.234  11.225   7.348  1.5934 -0.5645  2.3711
  512MOL0     H67540   4.969  11.112   7.441  3.5183 -3.2406  1.6709
  512MOL0     H67541   4.985  11.241   7.340  1.4989 -2.8382 -1.0005
  512MOL0     H67542   4.932  11.322   7.560 -0.1175 -0.3809 -2.3564
  512MOL0     H67543   5.086  11.245   7.633  2.6545 -0.1949 -0.6582
  512MOL0     H67544   5.177  11.413   7.421 -1.4263 -1.8292 -1.3666
  512MOL0     H67545   5.155  11.475   7.591 -2.5272  1.5705  0.0436
  512MOL0     H67546   5.005  11.489   7.742 -1.8916 -1.2018 -0.2517
  512MOL0     H67547   4.885  11.639   7.890 -1.4054  1.2400  0.3972
  512MOL0     H67548   4.800  11.895   8.231  0.5572 -1.7871 -1.3843
  512MOL0     H67549   4.656  12.020   8.376 -1.1967 -2.0778  0.5350
  512MOL0     H67550   4.361  12.258   8.408 -2.0592 -1.2860 -0.2674
  512MOL0     H67551   4.525  12.224   8.357  0.2345 -0.2048  0.5509
  512MOL0     H67552   4.547  12.215   8.570 -0.8863  0.4427 -1.3519
  512MOL0     H67553   4.502  12.039   8.561  2.5334  0.4938 -0.4950
  512MOL0     H67554   4.308  12.274   8.644  0.0757  1.4400  3.5050
  512MOL0     H67555   4.413  12.203   8.755  1.1961 -0.1932 -0.6269
  512MOL0     H67556   4.243  12.021   8.579 -0.0189 -1.0789  1.2375
  512MOL0     H67557   4.312  11.979   8.737 -2.1361  1.1747  3.7675
  512MOL0     H67558   4.087  12.187   8.688 -2.6307 -3.1513 -0.7920
  512MOL0     H67559   4.184  12.170   8.840 -0.2054  0.7493 -0.1288
  512MOL0     H67560   4.085  11.921   8.841 -2.8498 -2.7324 -1.1528
  512MOL0     H67561   4.031  11.958   8.678  0.0219  0.6687  0.0428
  512MOL0     H67562   3.861  12.084   8.740 -0.6462  2.9818  1.2842
  512MOL0     H67563   3.852  11.946   8.843 -0.3586 -0.0432  2.1580
  512MOL0     H67564   3.790  12.109   8.990 -0.0483 -0.4323 -0.4960
  512MOL0     H67565   3.926  12.214   8.935  4.5997 -0.1514  1.4141
  512MOL0     H67566   4.318  11.935   8.140  0.5131 -1.5331 -1.4296
  512MOL0     H67567   4.463  11.843   7.958 -1.1328  2.4444 -0.2370
  512MOL0     H67568   4.732  11.842   7.543 -0.1879 -2.5771 -2.8841
  512MOL0     H67569   4.877  11.722   7.408 -0.6409  0.6812  0.5264
  512MOL0     H67570   6.199  10.210   7.547 -0.6438  2.0649 -0.2299
  512MOL0     H67571   6.399  10.052   7.591 -0.4874 -0.6249  0.9616
  512MOL0     H67572   6.731   9.972   7.848 -0.6562 -1.2006  0.3000
  512MOL0     H67573   6.911   9.832   7.913  0.9290  1.0247 -1.1926
  512MOL0     H67574   7.233   9.634   7.885 -2.2617 -1.9754  2.7993
  512MOL0     H67575   7.082   9.691   7.953 -0.7454 -0.4177 -1.0874
  512MOL0     H67576   7.312   9.858   7.844  1.9977 -0.9313  1.5786
  512MOL0     H67577   7.172   9.934   7.910  0.6904  0.3047  0.5197
  512MOL0     H67578   7.356   9.750   8.066  0.2772  0.4685 -2.3439
  512MOL0     H67579   7.207   9.832   8.125 -0.6026 -0.3474 -0.8759
  512MOL0     H67580   7.453   9.974   8.012  1.1601 -0.4373  2.0134
  512MOL0     H67581   7.310  10.055   8.080  0.0828 -0.1019  0.4198
  512MOL0     H67582   7.585   9.912   8.398  0.4129 -1.5124 -0.5400
  512MOL0     H67583   7.084   9.842   7.516 -0.6362  0.6324 -2.8878
  512MOL0     H67584   6.928  10.041   7.475  2.0601  0.0937  0.4041
  513MOL0     O67585   0.150   8.567  10.709 -0.3481  0.9923 -0.8229
  513MOL0     C67586   0.135   8.472  10.633 -0.5133  0.2526 -0.2545
  513MOL0     O67587   0.238   8.391  10.574 -0.0743 -0.1958 -0.1202
  513MOL0     C67588   0.370   8.419  10.616 -0.2973  0.5012  0.0057
  513MOL0     C67589   0.406   8.403  10.744  0.6836 -0.0944 -0.5999
  513MOL0     C67590   0.542   8.423  10.777 -0.0271 -0.1857 -0.2089
  513MOL0     C67591   0.646   8.447  10.685  0.2748  0.0300  0.8215
  513MOL0     O67592   0.771   8.449  10.735  0.0515  0.1098  0.0331
  513MOL0     C67593   0.891   8.423  10.650 -0.1942 -1.0959  0.5277
  513MOL0     C67594   1.014   8.415  10.735  0.2117 -0.1991 -0.6043
  513MOL0     C67595   0.996   8.305  10.836  0.3212  0.0321  0.4106
  513MOL0     C67596   1.109   8.311  10.935 -0.9735  0.1856  0.2898
  513MOL0     C67597   1.139   8.179  10.999  0.5002  0.6161 -0.1374
  513MOL0     C67598   1.236   8.095  10.918  0.4672  0.8129  0.3897
  513MOL0     C67599   1.308   7.993  11.007  0.3995 -0.1584 -0.4243
  513MOL0     C67600   1.214   7.893  11.074  0.4487  0.7447 -0.1115
  513MOL0     N67601   1.296   7.777  11.091  0.4362 -0.4217  0.0224
  513MOL0     C67602   1.299   7.652  11.024  0.2200 -0.4557  0.0146
  513MOL0     C67603   1.386   7.579  11.098  0.7556  0.1849  0.4120
  513MOL0     C67604   1.440   7.436  11.061  0.4200  0.3307 -0.0216
  513MOL0     C67605   1.338   7.328  11.076 -0.0724 -0.8773  0.3186
  513MOL0     C67606   1.301   7.305  11.227 -0.0108  0.5657 -0.6266
  513MOL0     C67607   1.186   7.211  11.229  0.5450 -0.3966  0.1635
  513MOL0     O67608   1.068   7.285  11.190 -0.6173  0.0136 -0.5831
  513MOL0     C67609   0.943   7.238  11.220  0.2707  0.2052 -0.8188
  513MOL0     C67610   0.916   7.107  11.264  0.3799 -0.4839 -0.4037
  513MOL0     C67611   0.785   7.082  11.302 -0.2431  1.1519 -1.3874
  513MOL0     C67612   0.677   7.174  11.280  0.3219 -1.0490  0.1576
  513MOL0     C67613   0.535   7.151  11.305 -0.2592 -0.7166  0.1325
  513MOL0     O67614   0.464   7.246  11.373  0.1994  0.9073 -0.0297
  513MOL0     C67615   0.342   7.209  11.433  0.6869 -0.6966 -0.9520
  513MOL0     C67616   0.250   7.316  11.455 -0.4270 -0.3932  0.1821
  513MOL0     C67617   0.133   7.295  11.524 -0.0642  0.3212 -1.4016
  513MOL0     C67618   0.100   7.165  11.572  0.3017  0.3675 -0.0577
  513MOL0     O67619  -0.010   7.145  11.659  0.7166  0.0122 -0.6797
  513MOL0     C67620  -0.108   7.045  11.607  0.8200 -0.0148 -0.0217
  513MOL0     C67621  -0.238   7.034  11.694 -0.5554 -0.3644 -0.8270
  513MOL0     C67622  -0.345   6.942  11.640  0.5026  0.4447 -1.0616
  513MOL0     C67623  -0.473   6.993  11.714  0.6941  0.6425  0.2964
  513MOL0     C67624  -0.583   6.890  11.698 -1.3190 -0.7705 -0.4061
  513MOL0     C67625  -0.705   6.931  11.792  0.1402  0.1651  0.4912
  513MOL0     C67626  -0.822   6.820  11.810  0.2126  0.5666  0.4366
  513MOL0     C67627  -0.883   6.780  11.674  0.2518  0.1040 -0.8632
  513MOL0    Cl67628  -1.057   6.762  11.710  0.4957 -0.1401 -0.0923
  513MOL0     C67629   0.185   7.063  11.549 -0.4628 -0.5261  0.5633
  513MOL0     C67630   0.312   7.087  11.489  0.1729 -0.7260 -0.9253
  513MOL0     O67631   0.490   7.049  11.252 -0.5547  0.3721 -0.0668
  513MOL0     C67632   0.714   7.300  11.241  0.3825  0.5992  1.2393
  513MOL0     C67633   0.843   7.329  11.213 -0.2939 -0.0912 -1.0581
  513MOL0     N67634   1.429   7.656  11.206 -0.8040  1.1439 -0.2576
  513MOL0     N67635   1.389   7.771  11.188  0.5882 -0.3428 -0.2467
  513MOL0     C67636   0.591   8.476  10.561 -1.1539  0.5410 -0.4250
  513MOL0     C67637   0.460   8.458  10.519  0.0070  0.4196 -0.8862
  513MOL0     C67638  -0.008   8.442  10.608  0.7411  0.2696 -0.0453
  513MOL0     C67639  -0.097   8.541  10.629  0.2643 -0.3106 -0.6523
  513MOL0     C67640  -0.234   8.519  10.611 -0.2527  1.2222 -0.9824
  513MOL0     C67641  -0.276   8.396  10.556 -0.6855  0.3308 -0.1347
  513MOL0     O67642  -0.410   8.354  10.556 -0.5206 -0.4123 -1.4141
  513MOL0     C67643  -0.513   8.458  10.521  0.1550  0.0185  0.1200
  513MOL0     C67644  -0.631   8.367  10.501  0.4936 -0.4325 -0.1756
  513MOL0     C67645  -0.628   8.292  10.370  0.2344  0.0901  0.7554
  513MOL0     C67646  -0.757   8.215  10.333 -0.1210  0.3461 -0.7106
  513MOL0     C67647  -0.757   8.086  10.404  0.0260 -0.7616 -0.2773
  513MOL0     C67648  -0.761   7.978  10.465  0.5125 -0.7599  0.4594
  513MOL0     C67649  -0.184   8.298  10.533  0.7010  0.3256  0.1307
  513MOL0     C67650  -0.048   8.320  10.541 -1.3766 -0.4602 -0.6238
  513MOL0     H67651   0.334   8.358  10.811 -1.8985 -2.2545 -4.4012
  513MOL0     H67652   0.574   8.427  10.881 -1.0137  1.0134  0.0663
  513MOL0     H67653   0.907   8.496  10.570  2.0008 -1.2416  0.7855
  513MOL0     H67654   0.851   8.333  10.602 -2.2238 -1.1577  2.1594
  513MOL0     H67655   1.036   8.508  10.789 -1.2838 -0.0313 -0.2430
  513MOL0     H67656   1.100   8.395  10.670  0.9570  0.3548  0.1840
  513MOL0     H67657   0.997   8.210  10.781  4.7321 -0.1266  0.3323
  513MOL0     H67658   0.904   8.328  10.889 -1.1746 -2.9646 -0.6479
  513MOL0     H67659   1.202   8.350  10.896  1.2526 -1.3459  3.5653
  513MOL0     H67660   1.076   8.387  11.007 -0.9110  2.0627 -1.5939
  513MOL0     H67661   1.046   8.129  11.028  1.2670 -1.1583 -0.5553
  513MOL0     H67662   1.183   8.199  11.097  0.4823  0.0059  0.0001
  513MOL0     H67663   1.317   8.160  10.883  1.0501 -0.5193 -0.8233
  513MOL0     H67664   1.187   8.051  10.831 -1.4105  0.3357  1.6324
  513MOL0     H67665   1.365   7.942  10.929 -1.3855  0.5464 -2.2864
  513MOL0     H67666   1.368   8.049  11.080 -0.6019 -0.2553  0.5015
  513MOL0     H67667   1.129   7.871  11.008  1.6108 -1.5747 -0.9671
  513MOL0     H67668   1.180   7.924  11.173 -2.0376 -3.1357  0.5112
  513MOL0     H67669   1.228   7.621  10.948 -0.5424  0.4352  0.3452
  513MOL0     H67670   1.525   7.416  11.127  1.6976  1.6137 -1.2061
  513MOL0     H67671   1.478   7.434  10.958 -2.5262 -2.0555 -1.2016
  513MOL0     H67672   1.370   7.235  11.029 -0.6828 -1.9041  1.8574
  513MOL0     H67673   1.248   7.344  11.015  1.5592 -1.2812 -2.3715
  513MOL0     H67674   1.388   7.276  11.287  0.2310  4.7424  1.4324
  513MOL0     H67675   1.266   7.405  11.255  1.1525  1.3990 -1.9851
  513MOL0     H67676   1.178   7.180  11.334 -0.8049  1.0062  0.5082
  513MOL0     H67677   1.197   7.118  11.174 -3.3822 -1.0232  0.1426
  513MOL0     H67678   0.984   7.023  11.258 -0.4302 -1.1328 -0.7806
  513MOL0     H67679   0.759   6.977  11.318  2.1222  0.4064 -2.0325
  513MOL0     H67680   0.284   7.416  11.431 -0.2652  0.4026  3.2510
  513MOL0     H67681   0.069   7.381  11.538  1.1454  1.6496 -3.4381
  513MOL0     H67682  -0.063   6.946  11.606 -2.9205 -1.9080 -2.2516
  513MOL0     H67683  -0.133   7.046  11.501 -0.5725 -0.9771  0.2683
  513MOL0     H67684  -0.274   7.137  11.693  3.1622  1.1475  1.3027
  513MOL0     H67685  -0.202   7.013  11.795 -1.5837  0.2210 -0.3270
  513MOL0     H67686  -0.326   6.835  11.649 -2.4792 -0.3628 -2.8730
  513MOL0     H67687  -0.372   6.961  11.536 -2.2303  1.0570 -0.3413
  513MOL0     H67688  -0.436   6.996  11.817  0.2249 -0.9143  0.5349
  513MOL0     H67689  -0.508   7.092  11.684  1.9456  1.5730  1.7750
  513MOL0     H67690  -0.537   6.794  11.724  0.5356  0.4618  1.1556
  513MOL0     H67691  -0.606   6.882  11.591 -0.6365  1.2489 -0.7492
  513MOL0     H67692  -0.744   7.026  11.755  1.9560  0.8353  0.2292
  513MOL0     H67693  -0.660   6.937  11.891 -2.7695 -2.8245  2.2085
  513MOL0     H67694  -0.782   6.729  11.855 -1.2247  0.5233  1.6985
  513MOL0     H67695  -0.895   6.870  11.875 -0.9851 -2.5350  1.6310
  513MOL0     H67696  -0.831   6.695  11.629 -2.1263 -2.1543  0.3558
  513MOL0     H67697  -0.882   6.856  11.596  1.6071  1.5268  0.4801
  513MOL0     H67698   0.178   6.965  11.595  0.9078 -0.4092  1.0612
  513MOL0     H67699   0.386   7.008  11.500 -2.9658 -3.6777  1.4837
  513MOL0     H67700   0.638   7.377  11.239  2.8081  3.1315 -0.2471
  513MOL0     H67701   0.879   7.429  11.190  1.0131 -0.9923 -3.2257
  513MOL0     H67702   0.663   8.513  10.489 -0.5158 -2.0102 -1.2084
  513MOL0     H67703   0.423   8.464  10.418  2.0016  3.0230 -1.5498
  513MOL0     H67704  -0.059   8.639  10.656 -1.9829 -0.5456  4.6528
  513MOL0     H67705  -0.315   8.588  10.632  0.5976  1.3921  2.2924
  513MOL0     H67706  -0.494   8.518  10.432 -1.0135  3.4180  1.9783
  513MOL0     H67707  -0.529   8.530  10.602 -1.8026  2.0521 -1.9133
  513MOL0     H67708  -0.640   8.295  10.583 -1.2241 -1.6771 -1.3972
  513MOL0     H67709  -0.721   8.429  10.500 -0.5088 -1.8375  0.6233
  513MOL0     H67710  -0.540   8.231  10.348 -1.2647 -1.7755 -0.4189
  513MOL0     H67711  -0.622   8.371  10.294  0.2684  1.1316  1.8103
  513MOL0     H67712  -0.844   8.275  10.362 -1.2463 -1.3974 -0.3687
  513MOL0     H67713  -0.756   8.204  10.224 -2.0013  0.8316 -0.8161
  513MOL0     H67714  -0.789   7.884  10.508  2.8197 -2.2463 -1.0407
  513MOL0     H67715  -0.230   8.203  10.508  0.6785  0.3912 -0.0711
  513MOL0     H67716   0.033   8.258  10.505 -1.0557  0.3988 -1.4101
  514MOL0     O67717   2.164   5.590   1.244 -0.5778 -0.0304  0.4241
  514MOL0     C67718   2.070   5.658   1.208  0.0087  0.3067 -0.4324
  514MOL0     O67719   1.941   5.640   1.242 -0.2936 -0.4997  0.2629
  514MOL0     C67720   1.917   5.541   1.330  0.0547  0.6645  0.4404
  514MOL0     C67721   1.869   5.420   1.278  0.3728  0.6787 -0.4029
  514MOL0     C67722   1.872   5.301   1.359  0.0705  0.2286 -0.3849
  514MOL0     C67723   1.895   5.303   1.499  0.2431  0.1093  0.9931
  514MOL0     O67724   1.886   5.179   1.552  0.5088  0.5729 -0.1332
  514MOL0     C67725   1.852   5.196   1.691  0.7464 -0.2042  0.3105
  514MOL0     C67726   1.831   5.062   1.760  0.6052 -0.7788 -0.0657
  514MOL0     C67727   1.774   5.056   1.911 -0.1614  0.1841  0.4919
  514MOL0     C67728   1.700   5.183   1.948 -1.3344  0.5078 -0.6415
  514MOL0     C67729   1.672   5.168   2.100 -0.8249 -0.8086 -0.3733
  514MOL0     C67730   1.635   5.301   2.161  0.5637  0.3261 -0.6488
  514MOL0     C67731   1.479   5.319   2.186  0.1717  0.2513 -0.2561
  514MOL0     C67732   1.420   5.222   2.289  0.3545 -0.1537  0.5592
  514MOL0     N67733   1.291   5.269   2.343 -0.3933 -0.8536  0.1442
  514MOL0     C67734   1.260   5.350   2.450  0.2053 -0.9445 -0.4135
  514MOL0     C67735   1.120   5.361   2.449 -1.0673  0.7132  0.3395
  514MOL0     C67736   1.019   5.429   2.525 -0.7688  1.3187  0.2025
  514MOL0     C67737   0.931   5.510   2.440  0.3105 -0.1222  0.3960
  514MOL0     C67738   0.795   5.437   2.416  0.7159 -0.4165  0.4554
  514MOL0     C67739   0.680   5.540   2.369  0.2105 -0.0093  0.6647
  514MOL0     O67740   0.706   5.584   2.233 -0.7874  0.1978 -0.5680
  514MOL0     C67741   0.653   5.702   2.188  0.5702 -0.7397 -0.4514
  514MOL0     C67742   0.557   5.784   2.266 -0.7534  0.7932  0.6962
  514MOL0     C67743   0.516   5.909   2.213 -1.0439  0.5716  0.0077
  514MOL0     C67744   0.567   5.950   2.087  0.3739 -0.5311  0.8124
  514MOL0     C67745   0.528   6.085   2.025  0.0878  0.6736  0.3763
  514MOL0     O67746   0.489   6.181   2.112 -0.0773  0.2327  0.3342
  514MOL0     C67747   0.493   6.309   2.056  0.6643  0.9004 -0.3856
  514MOL0     C67748   0.376   6.383   2.049  1.0097  1.3509 -0.4404
  514MOL0     C67749   0.372   6.513   2.001  0.1037 -0.1460 -1.3125
  514MOL0     C67750   0.493   6.589   1.984 -1.2036  0.0806 -0.0800
  514MOL0     O67751   0.485   6.721   1.953 -0.9792  0.4838  0.4600
  514MOL0     C67752   0.604   6.780   1.936  1.1755 -0.0618  0.0611
  514MOL0     C67753   0.570   6.933   1.925 -0.1982 -0.9366  0.1163
  514MOL0     C67754   0.697   7.019   1.912  0.6590  0.5049  0.0631
  514MOL0     C67755   0.786   6.976   1.789  0.6415  1.0549  0.6626
  514MOL0     C67756   0.910   7.071   1.774  0.0407  0.0216 -0.9723
  514MOL0     C67757   1.005   7.029   1.664  1.3003 -0.1854  0.7053
  514MOL0     C67758   1.138   7.102   1.676 -1.5810 -1.0807 -0.0360
  514MOL0     C67759   1.233   7.084   1.551  0.0262  0.3916  0.4829
  514MOL0    Cl67760   1.339   6.946   1.595  0.1835  0.2546 -0.2023
  514MOL0     C67761   0.616   6.511   1.993  0.6519 -0.0405  0.7475
  514MOL0     C67762   0.616   6.369   2.026  0.1788 -0.3467 -0.5023
  514MOL0     O67763   0.535   6.099   1.902  0.2930  0.3484  0.6713
  514MOL0     C67764   0.680   5.879   2.027  0.1331 -0.7407  0.6727
  514MOL0     C67765   0.719   5.763   2.086  0.3154  1.1056 -0.7381
  514MOL0     N67766   1.074   5.287   2.342  0.7897  0.0636  0.0487
  514MOL0     N67767   1.178   5.229   2.291  0.1850 -0.1015  0.2514
  514MOL0     C67768   1.943   5.425   1.545  0.1180 -0.7898 -0.0404
  514MOL0     C67769   1.963   5.535   1.467 -0.0063  0.0724  0.1009
  514MOL0     C67770   2.094   5.761   1.115 -0.4158  0.1619 -0.4872
  514MOL0     C67771   2.220   5.813   1.111 -0.0529 -0.7051  0.1109
  514MOL0     C67772   2.244   5.916   1.019 -0.8896 -0.1822  0.3327
  514MOL0     C67773   2.140   5.982   0.950 -0.3427  0.2287 -0.1139
  514MOL0     O67774   2.180   6.090   0.877 -0.0577 -0.3396  0.0801
  514MOL0     C67775   2.081   6.174   0.815 -0.1398 -0.2068  0.5244
  514MOL0     C67776   2.134   6.318   0.772  0.5832  0.4527 -0.5355
  514MOL0     C67777   2.240   6.302   0.660  0.0597  0.5491 -0.2342
  514MOL0     C67778   2.179   6.296   0.525  0.4176 -0.3981 -0.5382
  514MOL0     C67779   2.159   6.430   0.473 -0.4946 -0.1677 -0.8666
  514MOL0     C67780   2.160   6.535   0.408  0.4455 -0.7597 -0.0411
  514MOL0     C67781   2.006   5.932   0.965 -1.2860 -0.6538  0.9845
  514MOL0     C67782   1.987   5.815   1.035  0.0048  0.1371 -0.3932
  514MOL0     H67783   1.817   5.428   1.183 -0.6271 -0.3009  0.0439
  514MOL0     H67784   1.839   5.207   1.317 -4.2432  0.7115  1.4084
  514MOL0     H67785   1.763   5.259   1.692  1.7953  1.3432  1.0931
  514MOL0     H67786   1.915   5.262   1.751 -0.0387 -0.2779  1.2360
  514MOL0     H67787   1.925   5.007   1.762  1.1208  0.0160 -1.3986
  514MOL0     H67788   1.758   5.006   1.702  0.5807 -1.1029  0.2764
  514MOL0     H67789   1.870   5.045   1.963 -0.7251 -3.3515  1.0433
  514MOL0     H67790   1.721   4.966   1.945  0.1343 -1.3555 -2.7536
  514MOL0     H67791   1.769   5.268   1.941  0.5813 -0.8498  0.7827
  514MOL0     H67792   1.608   5.202   1.892  0.8579 -0.7961 -5.1796
  514MOL0     H67793   1.750   5.120   2.160 -0.8329 -0.4374 -0.0610
  514MOL0     H67794   1.587   5.099   2.111 -1.5380 -0.0801 -1.1521
  514MOL0     H67795   1.679   5.379   2.100  3.3222 -2.3813 -2.4259
  514MOL0     H67796   1.677   5.301   2.262  3.0100 -3.4939 -1.4459
  514MOL0     H67797   1.464   5.418   2.231 -3.1721 -0.9790  1.7035
  514MOL0     H67798   1.434   5.313   2.087  2.7297  0.0730 -1.4784
  514MOL0     H67799   1.478   5.220   2.382 -2.4983 -1.2563  2.4307
  514MOL0     H67800   1.408   5.129   2.233  3.5944  0.6341 -1.8020
  514MOL0     H67801   1.327   5.400   2.519  0.2090 -0.5040 -0.7305
  514MOL0     H67802   1.073   5.477   2.607  2.1879 -1.4261  0.0986
  514MOL0     H67803   0.959   5.348   2.568 -0.9053 -1.2522 -4.2110
  514MOL0     H67804   0.992   5.534   2.353  4.3260 -1.8090  2.4640
  514MOL0     H67805   0.909   5.606   2.486 -1.8266  0.3471 -1.4217
  514MOL0     H67806   0.805   5.376   2.325 -2.9145 -0.2791 -0.1731
  514MOL0     H67807   0.752   5.367   2.487 -0.6612  0.1686  0.2371
  514MOL0     H67808   0.667   5.618   2.444 -1.4930 -1.1286  1.5894
  514MOL0     H67809   0.588   5.480   2.362  0.7493 -0.8495  0.5425
  514MOL0     H67810   0.499   5.748   2.351 -0.3407 -0.4827  0.4541
  514MOL0     H67811   0.425   5.953   2.254 -0.7489  1.4087 -0.2091
  514MOL0     H67812   0.278   6.349   2.080  2.4969 -0.7804  2.4070
  514MOL0     H67813   0.274   6.557   1.988  0.5468  0.3023 -3.5874
  514MOL0     H67814   0.651   6.741   1.845  0.8441 -2.2286  0.7815
  514MOL0     H67815   0.680   6.768   2.014  1.3898 -0.7652 -0.2526
  514MOL0     H67816   0.515   6.969   2.012 -1.7898  1.0223 -1.5848
  514MOL0     H67817   0.508   6.957   1.838 -0.3766  1.4549  0.8459
  514MOL0     H67818   0.754   7.008   2.004 -1.1840 -3.7797  0.9397
  514MOL0     H67819   0.670   7.125   1.909  2.9228  1.4416  4.5426
  514MOL0     H67820   0.812   6.872   1.809  0.2040  0.4255 -1.6821
  514MOL0     H67821   0.729   6.985   1.696  1.8619 -2.6717 -0.6209
  514MOL0     H67822   0.957   7.079   1.872 -3.3157  0.5987  0.7341
  514MOL0     H67823   0.859   7.166   1.753 -3.8226 -1.4645  0.8483
  514MOL0     H67824   0.960   7.049   1.566  0.1604 -2.6951  0.6478
  514MOL0     H67825   1.018   6.922   1.678  3.2465 -0.2383 -1.1642
  514MOL0     H67826   1.107   7.207   1.675 -0.2863 -0.6861 -0.7734
  514MOL0     H67827   1.181   7.084   1.776 -1.0632 -2.6342 -0.5098
  514MOL0     H67828   1.285   7.180   1.546  0.3192  0.3144  1.6835
  514MOL0     H67829   1.172   7.056   1.464 -1.5074 -0.2649  1.7107
  514MOL0     H67830   0.713   6.555   1.974  1.0715 -1.8653 -1.8896
  514MOL0     H67831   0.713   6.325   2.046  2.9541  4.0526 -2.7183
  514MOL0     H67832   0.732   5.921   1.942 -0.9129 -0.9392 -0.0762
  514MOL0     H67833   0.807   5.719   2.039  0.4612 -0.9009  1.2352
  514MOL0     H67834   1.977   5.427   1.648  1.0959 -0.4507 -0.3618
  514MOL0     H67835   2.026   5.613   1.510 -3.0126  1.1879  2.8899
  514MOL0     H67836   2.303   5.770   1.167 -0.6343 -1.1247  0.6682
  514MOL0     H67837   2.348   5.942   1.004 -0.7822  0.1366  1.4669
  514MOL0     H67838   2.000   6.200   0.884 -0.5604 -1.0591  0.3725
  514MOL0     H67839   2.043   6.110   0.734  2.8769 -0.7777 -0.5945
  514MOL0     H67840   2.039   6.357   0.733  0.7400  1.9591  0.5017
  514MOL0     H67841   2.168   6.379   0.856  1.9483 -2.0640  0.8439
  514MOL0     H67842   2.284   6.203   0.676 -3.8373 -1.1606  0.9708
  514MOL0     H67843   2.313   6.383   0.672 -0.3985  0.7839  1.1486
  514MOL0     H67844   2.231   6.230   0.455  0.1921 -0.9860 -0.1610
  514MOL0     H67845   2.085   6.240   0.522 -1.0599  1.8558  0.3379
  514MOL0     H67846   2.164   6.630   0.360 -1.1626  0.2191  1.6297
  514MOL0     H67847   1.918   5.970   0.913  0.2225 -0.8394 -1.9072
  514MOL0     H67848   1.891   5.764   1.030  0.7303 -1.2706 -0.4807
  515MOL0     O67849   1.724   6.815   4.596  0.0430 -0.3040 -0.6250
  515MOL0     C67850   1.628   6.833   4.668  0.7381  0.1598 -0.0673
  515MOL0     O67851   1.604   6.762   4.776 -0.5089  0.2140  0.0479
  515MOL0     C67852   1.662   6.637   4.805  0.3977 -0.2658 -0.3309
  515MOL0     C67853   1.707   6.535   4.721  0.5719  0.7623 -0.8608
  515MOL0     C67854   1.760   6.413   4.771 -0.4134 -0.9939  0.1383
  515MOL0     C67855   1.766   6.390   4.908 -0.2185  0.4104  0.2265
  515MOL0     O67856   1.812   6.265   4.941 -0.0029 -0.3298  0.3655
  515MOL0     C67857   1.823   6.230   5.085 -0.7903 -0.0985  0.3649
  515MOL0     C67858   1.782   6.090   5.128 -0.1682 -0.4618 -0.7085
  515MOL0     C67859   1.877   5.983   5.068  0.8713  0.1209 -0.4416
  515MOL0     C67860   1.846   5.841   5.115  0.0516  0.2689 -0.2450
  515MOL0     C67861   1.959   5.747   5.117  0.1804 -0.0189  0.0783
  515MOL0     C67862   1.907   5.606   5.159 -0.0860  0.7838  1.0968
  515MOL0     C67863   2.010   5.514   5.226 -0.5421  0.7933  1.0626
  515MOL0     C67864   1.958   5.371   5.239 -0.2197 -0.0510 -0.7845
  515MOL0     N67865   1.941   5.291   5.115 -0.2888  0.4556  0.8502
  515MOL0     C67866   1.980   5.160   5.102 -0.5525 -0.0402  0.1420
  515MOL0     C67867   1.931   5.125   4.980  0.3537  0.4129  0.5380
  515MOL0     C67868   1.928   4.986   4.918 -0.5239  0.5510 -0.4393
  515MOL0     C67869   2.050   4.890   4.930 -0.5611 -0.7464  0.5171
  515MOL0     C67870   2.193   4.939   4.918  0.2933  1.2050 -0.3169
  515MOL0     C67871   2.224   5.006   4.787 -0.1113  0.1109 -0.4976
  515MOL0     O67872   2.129   5.101   4.742  0.5493 -0.7805 -0.3386
  515MOL0     C67873   2.134   5.138   4.608 -0.0247 -0.3354  0.0865
  515MOL0     C67874   2.022   5.221   4.571 -0.4668 -0.6204  0.2650
  515MOL0     C67875   2.003   5.238   4.437  0.0036  0.6280 -0.7960
  515MOL0     C67876   2.082   5.179   4.334  0.5419  0.1687 -0.1473
  515MOL0     C67877   2.066   5.208   4.189  0.1808 -0.1884 -1.0244
  515MOL0     O67878   2.150   5.140   4.098 -0.2378 -0.0334 -0.1179
  515MOL0     C67879   2.168   5.198   3.973  0.2107  0.3994  0.8989
  515MOL0     C67880   2.203   5.331   3.964 -0.6243 -0.3300  0.0733
  515MOL0     C67881   2.207   5.400   3.845 -0.5432 -0.5551 -0.6967
  515MOL0     C67882   2.179   5.328   3.725  0.4168 -0.5800  0.5399
  515MOL0     O67883   2.178   5.400   3.607 -0.7140 -1.5298  0.0565
  515MOL0     C67884   2.248   5.341   3.491  0.4869  0.1759 -0.0428
  515MOL0     C67885   2.384   5.266   3.527 -0.0639 -0.5186 -0.3840
  515MOL0     C67886   2.466   5.196   3.420  0.7223 -0.4305 -0.4243
  515MOL0     C67887   2.410   5.055   3.367 -1.0504 -0.4030  0.5180
  515MOL0     C67888   2.502   5.033   3.240 -0.2210  0.9174 -0.7684
  515MOL0     C67889   2.501   4.888   3.201  0.5294  0.1411  0.3970
  515MOL0     C67890   2.603   4.858   3.092  0.3722 -0.0005  0.5136
  515MOL0     C67891   2.629   4.716   3.065 -0.3017  0.0848  1.2266
  515MOL0    Cl67892   2.738   4.695   2.931  0.1237 -0.0233 -0.0072
  515MOL0     C67893   2.132   5.196   3.732  0.4814  0.3706  0.3177
  515MOL0     C67894   2.123   5.130   3.858  0.3837  1.0126  0.2449
  515MOL0     O67895   1.988   5.301   4.163 -0.2441 -0.0702  0.7455
  515MOL0     C67896   2.194   5.104   4.373  0.1916  0.3367  0.0282
  515MOL0     C67897   2.224   5.079   4.511 -1.0410 -0.1050 -0.3102
  515MOL0     N67898   1.853   5.232   4.931 -0.4345  0.6803  0.2700
  515MOL0     N67899   1.864   5.331   5.006  0.2194  0.1478 -0.4621
  515MOL0     C67900   1.731   6.492   4.990 -0.5103  1.4879  0.5855
  515MOL0     C67901   1.669   6.611   4.941  0.6578  0.2629 -0.3363
  515MOL0     C67902   1.545   6.949   4.652  0.1596 -0.9537  0.6379
  515MOL0     C67903   1.420   6.962   4.723  0.2248  0.0931  1.2472
  515MOL0     C67904   1.344   7.078   4.697 -0.6505 -0.5579 -0.2916
  515MOL0     C67905   1.382   7.174   4.598  0.1486 -0.4036  0.5237
  515MOL0     O67906   1.305   7.288   4.584  0.2238 -0.7645  0.0633
  515MOL0     C67907   1.253   7.360   4.701  0.4672 -0.0868  1.1566
  515MOL0     C67908   1.370   7.441   4.772  1.0377 -0.6869 -0.3844
  515MOL0     C67909   1.433   7.560   4.695 -0.3568  0.4153 -0.3411
  515MOL0     C67910   1.564   7.602   4.776  0.4528 -0.6790  0.8193
  515MOL0     C67911   1.529   7.648   4.904 -0.0806  0.4238  0.5027
  515MOL0     C67912   1.507   7.678   5.017  0.0991  0.0591  1.2182
  515MOL0     C67913   1.503   7.158   4.537  0.4994 -0.1992  0.5992
  515MOL0     C67914   1.579   7.047   4.551  0.0376  0.0050 -0.6990
  515MOL0     H67915   1.697   6.543   4.613  0.8258 -4.2410 -1.4805
  515MOL0     H67916   1.787   6.330   4.707  0.7118 -0.7549  0.2956
  515MOL0     H67917   1.750   6.292   5.138 -1.4801  0.5385 -1.2900
  515MOL0     H67918   1.925   6.236   5.126 -0.2555 -0.1187 -0.9347
  515MOL0     H67919   1.679   6.076   5.094  0.2092  0.1947 -2.2173
  515MOL0     H67920   1.784   6.076   5.236 -1.7078  1.2748 -0.4142
  515MOL0     H67921   1.979   6.001   5.102  1.7293 -0.8610 -2.3422
  515MOL0     H67922   1.869   5.976   4.959 -0.8804 -2.4499 -0.2306
  515MOL0     H67923   1.806   5.851   5.216  0.5099 -0.7442  0.0443
  515MOL0     H67924   1.761   5.811   5.053 -0.4126  0.1046  0.4551
  515MOL0     H67925   2.034   5.772   5.192  0.8447 -2.5512  0.3386
  515MOL0     H67926   2.000   5.752   5.016 -0.7303 -1.0574 -0.3649
  515MOL0     H67927   1.879   5.560   5.064 -0.9381  3.2644  0.0709
  515MOL0     H67928   1.819   5.605   5.223 -0.5579  0.4749  0.4549
  515MOL0     H67929   2.084   5.521   5.147 -0.7366  0.9186  0.8899
  515MOL0     H67930   2.058   5.551   5.318 -1.8630  2.5311  1.1085
  515MOL0     H67931   1.867   5.376   5.300  0.3551  1.4483  0.0150
  515MOL0     H67932   2.040   5.315   5.285  0.8231 -1.2817 -3.8834
  515MOL0     H67933   2.039   5.096   5.167  0.4819 -0.3123 -1.0143
  515MOL0     H67934   1.910   4.989   4.811 -2.0203 -2.3065 -0.3771
  515MOL0     H67935   1.857   4.916   4.964  2.4997 -0.8765  2.5338
  515MOL0     H67936   2.038   4.815   4.852 -1.1778  1.4657 -1.6151
  515MOL0     H67937   2.041   4.842   5.028  0.0663  0.6590  1.2880
  515MOL0     H67938   2.210   5.005   5.003  0.0865 -0.5496  1.1508
  515MOL0     H67939   2.261   4.854   4.927 -1.4750 -0.3985 -1.1302
  515MOL0     H67940   2.216   4.920   4.720 -0.8653 -0.0945 -0.1559
  515MOL0     H67941   2.322   5.053   4.788 -0.7184  1.4587 -0.7906
  515MOL0     H67942   1.951   5.265   4.640  1.2901 -1.4004  2.7229
  515MOL0     H67943   1.921   5.305   4.412 -1.5544 -1.3794 -1.3690
  515MOL0     H67944   2.225   5.375   4.061 -2.3048  1.3082 -0.2335
  515MOL0     H67945   2.237   5.503   3.832 -0.1376 -0.5817 -0.0104
  515MOL0     H67946   2.285   5.424   3.430  0.5743  0.8148  0.8740
  515MOL0     H67947   2.192   5.265   3.435  0.7203 -1.4481  1.8033
  515MOL0     H67948   2.374   5.182   3.595 -0.9160 -1.7970 -2.0132
  515MOL0     H67949   2.442   5.338   3.586 -1.6361  0.6068 -0.1226
  515MOL0     H67950   2.565   5.176   3.462  0.9453 -2.8656 -1.9422
  515MOL0     H67951   2.488   5.268   3.340  0.1456 -0.6381 -0.7742
  515MOL0     H67952   2.425   4.981   3.447  1.2834 -0.6858 -0.0917
  515MOL0     H67953   2.303   5.041   3.347 -0.9605 -2.6501  1.3063
  515MOL0     H67954   2.609   5.058   3.250  0.2972  0.2459 -3.7434
  515MOL0     H67955   2.466   5.084   3.150  0.5240  1.2557 -0.8838
  515MOL0     H67956   2.401   4.858   3.170  0.4914  0.3162  0.3438
  515MOL0     H67957   2.511   4.833   3.294  0.6749 -0.6386 -0.0765
  515MOL0     H67958   2.562   4.908   3.005 -0.7203 -0.1400  0.9264
  515MOL0     H67959   2.697   4.905   3.123 -0.3015  1.6287  0.1513
  515MOL0     H67960   2.534   4.663   3.049 -1.4895  1.8265  2.1297
  515MOL0     H67961   2.674   4.663   3.149  2.0462 -0.0278 -0.0348
  515MOL0     H67962   2.093   5.132   3.654  0.7140 -1.5347  1.6689
  515MOL0     H67963   2.083   5.030   3.869  3.6021 -0.3557  0.8379
  515MOL0     H67964   2.253   5.066   4.290 -0.1569  0.5119 -0.3082
  515MOL0     H67965   2.308   5.020   4.548 -1.1541  1.5043  2.8174
  515MOL0     H67966   1.759   6.485   5.095  1.6530 -3.5034 -0.0289
  515MOL0     H67967   1.636   6.676   5.021 -0.4626 -2.2449  1.3592
  515MOL0     H67968   1.368   6.890   4.785 -0.2619 -2.5257 -1.9240
  515MOL0     H67969   1.244   7.075   4.740 -1.1205  4.0044 -0.5384
  515MOL0     H67970   1.197   7.296   4.770 -1.8463 -1.1134 -1.4857
  515MOL0     H67971   1.176   7.428   4.663  1.5275 -0.9000 -2.8593
  515MOL0     H67972   1.335   7.480   4.868  1.7478  0.8482 -0.7238
  515MOL0     H67973   1.448   7.371   4.803  1.6231 -0.1729 -0.6753
  515MOL0     H67974   1.364   7.644   4.683  0.8831  1.4826 -0.1957
  515MOL0     H67975   1.461   7.527   4.595 -0.1698  0.5013 -0.3183
  515MOL0     H67976   1.636   7.519   4.775  1.5727  0.2235 -2.0610
  515MOL0     H67977   1.618   7.671   4.711  2.2618 -1.4029  1.4797
  515MOL0     H67978   1.481   7.705   5.117  1.3662 -3.1455  2.5399
  515MOL0     H67979   1.529   7.225   4.456 -0.4440 -1.1488 -0.5353
  515MOL0     H67980   1.668   7.046   4.489 -1.8615  0.6470 -3.6045
  516MOL0     O67981   9.565   6.521  11.450  0.1449 -0.0487  0.7245
  516MOL0     C67982   9.616   6.633  11.473  0.2294 -0.7345 -0.0872
  516MOL0     O67983   9.619   6.697  11.594 -0.2883 -0.8481 -0.7192
  516MOL0     C67984   9.579   6.640  11.713  0.0808 -0.7485 -0.0141
  516MOL0     C67985   9.608   6.507  11.743 -0.2175  0.7237 -0.6084
  516MOL0     C67986   9.565   6.449  11.870  0.0760  0.1603 -1.1623
  516MOL0     C67987   9.513   6.539  11.964  0.8554  0.2086  0.1328
  516MOL0     O67988   9.489   6.477  12.084  0.0732 -0.2012  0.0660
  516MOL0     C67989   9.434   6.554  12.184  0.2581 -0.0993  0.1286
  516MOL0     C67990   9.399   6.468  12.304 -0.6756  0.0778 -0.0493
  516MOL0     C67991   9.383   6.533  12.446  0.5916  0.5056  0.7377
  516MOL0     C67992   9.346   6.423  12.546 -0.7417 -0.1207 -1.5766
  516MOL0     C67993   9.381   6.465  12.692 -0.1698 -0.2198  1.0389
  516MOL0     C67994   9.321   6.599  12.733 -0.3511 -0.2757  0.6288
  516MOL0     C67995   9.341   6.633  12.885 -0.2749  0.4189 -0.3055
  516MOL0     C67996   9.245   6.551  12.981 -0.1161 -0.0235  0.0286
  516MOL0     N67997   9.110   6.582  12.966  0.2365  0.4124  0.6718
  516MOL0     C67998   9.008   6.502  12.929  1.3543 -0.2455  0.6777
  516MOL0     C67999   8.905   6.581  12.957 -1.1526 -0.0121  0.4004
  516MOL0     C68000   8.761   6.530  12.940 -1.1893 -0.0464 -0.3345
  516MOL0     C68001   8.660   6.639  12.901  0.4743 -0.4253  0.0916
  516MOL0     C68002   8.517   6.591  12.903  0.6386 -0.4614  0.0921
  516MOL0     C68003   8.450   6.519  13.021  0.1183 -0.0145 -0.0212
  516MOL0     O68004   8.463   6.376  13.000 -0.3791 -0.3375 -0.0866
  516MOL0     C68005   8.394   6.290  13.081 -0.4738 -0.6284  0.6991
  516MOL0     C68006   8.342   6.328  13.213  0.4213 -0.6530 -0.3333
  516MOL0     C68007   8.265   6.230  13.279  0.0273 -0.0015  0.8051
  516MOL0     C68008   8.243   6.106  13.223  0.0645  0.5770 -0.0934
  516MOL0     C68009   8.151   6.010  13.298  0.3081 -0.6658  0.7355
  516MOL0     O68010   8.137   5.885  13.240  0.9111  0.0090 -0.2108
  516MOL0     C68011   8.074   5.794  13.318 -0.6448 -0.6742  0.3495
  516MOL0     C68012   8.145   5.697  13.395  0.1652  0.1786  0.1200
  516MOL0     C68013   8.082   5.593  13.461  0.5276  0.7384  0.5641
  516MOL0     C68014   7.942   5.587  13.457  0.2710 -0.3180  0.4830
  516MOL0     O68015   7.867   5.499  13.528  0.0093 -0.2817 -0.1006
  516MOL0     C68016   7.890   5.511  13.667  0.2368 -0.1184 -0.5547
  516MOL0     C68017   7.761   5.503  13.751  0.6469 -0.0012  0.9029
  516MOL0     C68018   7.719   5.372  13.794 -0.0080  0.0724 -0.7772
  516MOL0     C68019   7.814   5.293  13.891  0.6367 -0.8664  0.1554
  516MOL0     C68020   7.765   5.152  13.918 -0.1507  0.6430  0.0264
  516MOL0     C68021   7.626   5.156  13.985 -0.0273 -0.5313  0.1733
  516MOL0     C68022   7.609   5.028  14.079 -1.3514 -0.1215  0.6863
  516MOL0     C68023   7.468   5.012  14.142  1.0710 -0.3918 -0.7893
  516MOL0    Cl68024   7.347   5.056  14.025 -0.0064  0.2083  0.2875
  516MOL0     C68025   7.871   5.678  13.377 -0.1583 -0.6770  1.3411
  516MOL0     C68026   7.936   5.778  13.303 -0.2059 -0.6602 -0.3624
  516MOL0     O68027   8.119   6.038  13.415  0.1646 -0.2653  0.7305
  516MOL0     C68028   8.278   6.078  13.086 -0.7220  0.6519 -0.0346
  516MOL0     C68029   8.365   6.171  13.021 -1.0887  0.9653 -1.6922
  516MOL0     N68030   8.944   6.692  13.021 -0.1650  0.3753  0.2470
  516MOL0     N68031   9.063   6.698  13.022 -0.7086 -0.6237 -0.8387
  516MOL0     C68032   9.474   6.671  11.935 -0.4867 -0.7678 -0.0138
  516MOL0     C68033   9.514   6.726  11.806 -0.1999 -0.9158  0.4528
  516MOL0     C68034   9.675   6.711  11.360 -0.1751  0.5375 -0.5998
  516MOL0     C68035   9.759   6.823  11.379  1.0756  0.3042 -0.0110
  516MOL0     C68036   9.798   6.901  11.273  0.2042 -0.0439 -0.0832
  516MOL0     C68037   9.754   6.869  11.146 -0.1003 -0.2834 -0.6851
  516MOL0     O68038   9.779   6.952  11.046  0.5452 -0.1348  0.4771
  516MOL0     C68039   9.904   6.961  10.989  0.5542  0.0023  0.0927
  516MOL0     C68040   9.953   6.834  10.910 -0.6724 -0.5588  0.6004
  516MOL0     C68041   9.912   6.833  10.764 -0.7469 -0.0728 -0.3807
  516MOL0     C68042   9.970   6.730  10.677  0.9971  0.9799  0.2781
  516MOL0     C68043   9.896   6.603  10.672 -1.5614 -0.9291 -0.6925
  516MOL0     C68044   9.846   6.489  10.665  0.2556  0.2272 -0.2369
  516MOL0     C68045   9.671   6.758  11.126 -0.6489  0.9541  0.2865
  516MOL0     C68046   9.640   6.667  11.233 -0.3125 -0.0745  0.6956
  516MOL0     H68047   9.657   6.446  11.669  0.9753  0.8339  0.0744
  516MOL0     H68048   9.579   6.345  11.901 -0.3871  0.7168  1.0999
  516MOL0     H68049   9.339   6.599  12.153  0.3742 -1.0133 -1.6492
  516MOL0     H68050   9.518   6.617  12.215  2.5308 -1.9974 -1.7513
  516MOL0     H68051   9.473   6.389  12.320 -1.6387 -1.2471 -1.7827
  516MOL0     H68052   9.299   6.424  12.290 -0.6808 -0.5227  1.6348
  516MOL0     H68053   9.308   6.613  12.439 -2.4498 -2.3096 -3.0292
  516MOL0     H68054   9.475   6.583  12.480  1.1817 -0.6422  0.8636
  516MOL0     H68055   9.239   6.411  12.531 -0.6094  0.0984 -2.7945
  516MOL0     H68056   9.409   6.335  12.526 -1.5006 -0.7504 -1.2412
  516MOL0     H68057   9.490   6.470  12.698  0.6864 -3.7295 -4.2291
  516MOL0     H68058   9.349   6.385  12.759  0.3669 -2.4936 -1.2706
  516MOL0     H68059   9.216   6.594  12.705  0.1670 -0.0934 -1.4891
  516MOL0     H68060   9.371   6.673  12.670 -2.9036 -0.8620 -2.3052
  516MOL0     H68061   9.442   6.595  12.903 -0.6116  0.4251  1.9092
  516MOL0     H68062   9.344   6.738  12.914 -0.8213  0.0886  1.0119
  516MOL0     H68063   9.283   6.551  13.083 -0.0733 -2.4936  0.0912
  516MOL0     H68064   9.257   6.445  12.956 -0.2586 -0.0627  0.1219
  516MOL0     H68065   9.009   6.408  12.874 -2.8801  0.6261 -1.2711
  516MOL0     H68066   8.725   6.489  13.035 -0.6870 -3.3335 -1.4060
  516MOL0     H68067   8.773   6.445  12.871  1.8291 -1.4721  1.7193
  516MOL0     H68068   8.683   6.674  12.800  1.5977  2.5792  1.2850
  516MOL0     H68069   8.669   6.725  12.968 -0.0649  0.8172 -1.3811
  516MOL0     H68070   8.458   6.678  12.874  0.3019  0.2310  2.6352
  516MOL0     H68071   8.511   6.525  12.815  2.1041  0.4295 -0.7209
  516MOL0     H68072   8.343   6.543  13.021  0.1250  0.0288 -0.5849
  516MOL0     H68073   8.503   6.552  13.111  1.3079  0.0358 -0.7276
  516MOL0     H68074   8.362   6.423  13.260 -2.6569  0.3750 -0.8925
  516MOL0     H68075   8.239   6.253  13.382 -0.1559  3.3435  0.0992
  516MOL0     H68076   8.252   5.709  13.399  0.3302 -1.4799  1.1331
  516MOL0     H68077   8.133   5.523  13.527  0.8408 -0.1244 -0.5716
  516MOL0     H68078   7.939   5.608  13.681 -0.4659  0.4896 -2.1026
  516MOL0     H68079   7.965   5.436  13.694  2.1403  0.6317 -3.3229
  516MOL0     H68080   7.673   5.541  13.697  0.2286  0.5509  1.9347
  516MOL0     H68081   7.771   5.570  13.837  2.1887 -0.0343  0.7727
  516MOL0     H68082   7.713   5.315  13.701  3.5515  1.9346 -2.3260
  516MOL0     H68083   7.627   5.384  13.852 -1.8125  2.9537 -3.8785
  516MOL0     H68084   7.915   5.284  13.851  0.4860 -0.3786 -0.3545
  516MOL0     H68085   7.821   5.338  13.990  1.5383 -2.3433  0.7988
  516MOL0     H68086   7.843   5.109  13.982  1.5598 -2.8624 -3.9933
  516MOL0     H68087   7.752   5.091  13.828 -0.4327  2.2735 -1.0869
  516MOL0     H68088   7.547   5.170  13.911  0.5073  0.5017 -0.2207
  516MOL0     H68089   7.612   5.244  14.049 -1.7678 -0.3574 -0.3839
  516MOL0     H68090   7.633   4.939  14.019  2.0203  1.0733  0.0332
  516MOL0     H68091   7.695   5.028  14.146  1.0186 -0.7744 -2.1116
  516MOL0     H68092   7.460   5.073  14.233  0.3280 -0.6668 -0.6644
  516MOL0     H68093   7.470   4.915  14.193 -1.5776  0.2484  0.7357
  516MOL0     H68094   7.767   5.666  13.347 -0.1594 -0.8544  1.4150
  516MOL0     H68095   7.874   5.849  13.248 -2.7723 -1.6645  1.0444
  516MOL0     H68096   8.254   5.988  13.031 -0.6706  1.5744 -1.6655
  516MOL0     H68097   8.407   6.131  12.929  0.3535 -0.1202 -0.6123
  516MOL0     H68098   9.436   6.742  12.008  5.6960  0.6541  2.4966
  516MOL0     H68099   9.492   6.827  11.772 -0.7257 -0.0371  3.1386
  516MOL0     H68100   9.758   6.867  11.478 -0.5414  0.7105 -0.1756
  516MOL0     H68101   9.849   6.995  11.295  0.2681 -0.8444  4.0408
  516MOL0     H68102   9.976   6.966  11.071  2.0468 -1.8678 -1.0483
  516MOL0     H68103   9.936   7.048  10.932 -1.3629  2.5012  2.5125
  516MOL0     H68104  10.061   6.821  10.917 -0.2389 -0.1331 -3.2722
  516MOL0     H68105   9.912   6.748  10.965 -2.0673 -0.0306  0.4473
  516MOL0     H68106   9.935   6.933  10.726  1.1978 -0.0308  0.7783
  516MOL0     H68107   9.804   6.815  10.768 -0.7199 -0.4437  3.6266
  516MOL0     H68108   9.963   6.769  10.576 -0.4837  0.4794  0.1637
  516MOL0     H68109  10.075   6.704  10.696  1.0217  0.4507 -0.5409
  516MOL0     H68110   9.813   6.387  10.667  1.8754 -0.3410 -0.8105
  516MOL0     H68111   9.645   6.726  11.026  3.9731 -0.6953 -0.6456
  516MOL0     H68112   9.588   6.577  11.201  0.4228  0.5232 -2.4876
  517MOL0     O68113   2.751   7.660   7.196 -0.1233  0.5293  0.4058
  517MOL0     C68114   2.650   7.615   7.136 -0.1297 -0.3499 -0.3304
  517MOL0     O68115   2.538   7.580   7.200 -0.4310 -0.0612  0.7334
  517MOL0     C68116   2.540   7.600   7.333  0.2360  0.6558 -0.1546
  517MOL0     C68117   2.591   7.492   7.407  0.5348  0.0432 -0.5440
  517MOL0     C68118   2.606   7.492   7.542 -0.4401  0.6453 -0.4547
  517MOL0     C68119   2.563   7.605   7.615 -0.1665  0.2760 -0.1209
  517MOL0     O68120   2.596   7.603   7.747  0.2839 -0.1021 -0.3744
  517MOL0     C68121   2.620   7.732   7.797  0.3662  0.1852  0.2442
  517MOL0     C68122   2.724   7.716   7.905  1.0344  0.2244 -0.0437
  517MOL0     C68123   2.847   7.637   7.858  0.0272  0.5700  0.3642
  517MOL0     C68124   2.974   7.648   7.939 -0.7464 -0.1175 -0.3784
  517MOL0     C68125   3.080   7.548   7.897 -0.6452  0.7149  0.9871
  517MOL0     C68126   3.206   7.575   7.972 -0.6697 -0.1790  0.5467
  517MOL0     C68127   3.304   7.453   7.951 -0.1235  0.3831 -0.2392
  517MOL0     C68128   3.445   7.480   8.018 -0.0158  0.2746 -1.2926
  517MOL0     N68129   3.497   7.371   8.101  0.5102  0.9169  0.6614
  517MOL0     C68130   3.575   7.266   8.057 -0.2059 -0.2614  0.2954
  517MOL0     C68131   3.621   7.211   8.169 -0.5445  0.0128  0.4054
  517MOL0     C68132   3.727   7.100   8.183 -0.3403 -0.7397  0.1420
  517MOL0     C68133   3.757   7.048   8.326  0.1754 -0.4071  0.3409
  517MOL0     C68134   3.654   6.939   8.366  0.1379 -0.4437  0.9247
  517MOL0     C68135   3.691   6.869   8.494 -0.6006  1.3522 -0.2271
  517MOL0     O68136   3.821   6.800   8.464  0.2402 -0.5611  0.2728
  517MOL0     C68137   3.892   6.784   8.579 -0.0108 -0.7685 -0.7297
  517MOL0     C68138   3.857   6.698   8.678 -0.0917 -0.3537  0.0695
  517MOL0     C68139   3.921   6.682   8.794 -1.4305 -0.4917 -0.0288
  517MOL0     C68140   4.033   6.766   8.823 -0.0747  0.3909 -0.3459
  517MOL0     C68141   4.109   6.744   8.953 -0.3869 -1.0560  0.1314
  517MOL0     O68142   4.185   6.839   8.998  0.1102  0.0861  0.4091
  517MOL0     C68143   4.214   6.851   9.130  0.0788  0.1348 -0.0771
  517MOL0     C68144   4.128   6.815   9.232  0.3120  1.1588  0.3773
  517MOL0     C68145   4.148   6.849   9.361 -0.8898  0.1933  0.3876
  517MOL0     C68146   4.274   6.912   9.400  0.3870  0.4541 -0.4653
  517MOL0     O68147   4.270   6.944   9.537 -0.5188  0.4028  0.2063
  517MOL0     C68148   4.364   7.045   9.585  0.2933  0.5849 -0.5234
  517MOL0     C68149   4.394   7.039   9.735 -0.0034 -0.4251 -0.3029
  517MOL0     C68150   4.462   7.171   9.776 -0.2481 -1.4919 -0.4872
  517MOL0     C68151   4.487   7.172   9.930  0.4729 -0.0010  0.7772
  517MOL0     C68152   4.638   7.188   9.953 -0.5621  0.2016 -0.3152
  517MOL0     C68153   4.695   7.050   9.928  0.0195 -0.2400  0.1426
  517MOL0     C68154   4.852   7.051   9.954  0.5520 -0.8367 -0.5772
  517MOL0     C68155   4.907   6.907   9.938 -0.5216  0.2504 -0.9276
  517MOL0    Cl68156   4.982   6.892   9.783 -0.1138 -0.4198  0.1454
  517MOL0     C68157   4.372   6.938   9.304  0.8809 -0.1441 -0.0638
  517MOL0     C68158   4.333   6.915   9.169 -0.9572 -0.3341 -0.5108
  517MOL0     O68159   4.106   6.636   9.010  0.6369  1.1177 -0.4293
  517MOL0     C68160   4.076   6.858   8.726  0.2974  0.0641 -0.3663
  517MOL0     C68161   4.003   6.862   8.600  0.0494  0.2703  0.1776
  517MOL0     N68162   3.574   7.286   8.275  0.2699 -0.5676  0.1607
  517MOL0     N68163   3.498   7.384   8.235  0.2105  0.3628  0.3655
  517MOL0     C68164   2.495   7.719   7.550 -0.4226  1.1560 -0.1743
  517MOL0     C68165   2.482   7.710   7.412  1.1716 -0.6211  0.0162
  517MOL0     C68166   2.672   7.581   6.995  0.8646  0.2338 -0.6100
  517MOL0     C68167   2.786   7.630   6.927  0.1681 -0.0483  0.7994
  517MOL0     C68168   2.806   7.599   6.787 -0.2749 -0.1241  0.1931
  517MOL0     C68169   2.712   7.516   6.722  0.1797 -0.0701  0.7188
  517MOL0     O68170   2.742   7.498   6.588 -0.5947 -0.2251  0.0766
  517MOL0     C68171   2.648   7.419   6.507 -0.9305 -0.2246  0.5785
  517MOL0     C68172   2.530   7.499   6.445 -1.5804 -0.2176  0.3774
  517MOL0     C68173   2.418   7.556   6.533 -0.2935  1.7285  0.2106
  517MOL0     C68174   2.288   7.606   6.448 -0.3232 -0.0768 -0.9130
  517MOL0     C68175   2.206   7.687   6.531 -0.1153 -1.1342 -0.5027
  517MOL0     C68176   2.127   7.738   6.607  0.2169  0.0707 -0.1427
  517MOL0     C68177   2.600   7.465   6.789  1.0872  0.0205 -0.3923
  517MOL0     C68178   2.578   7.495   6.929  0.2013 -0.3116 -0.0328
  517MOL0     H68179   2.617   7.403   7.351 -0.9406 -0.9810  0.3314
  517MOL0     H68180   2.661   7.405   7.576  0.8120  0.3566 -2.9657
  517MOL0     H68181   2.523   7.765   7.834  1.1294  1.3010  1.3257
  517MOL0     H68182   2.655   7.802   7.720  0.3904 -1.0042 -0.8427
  517MOL0     H68183   2.677   7.660   7.986  0.2313 -1.4618 -1.5825
  517MOL0     H68184   2.758   7.815   7.936 -1.2631  2.0644 -2.8742
  517MOL0     H68185   2.885   7.675   7.763  3.6899 -1.4497  0.8374
  517MOL0     H68186   2.820   7.532   7.848 -2.1825  1.0104  1.0410
  517MOL0     H68187   3.024   7.743   7.918  2.0752 -1.4076 -0.0055
  517MOL0     H68188   2.959   7.643   8.047  2.2233 -0.8805  0.0981
  517MOL0     H68189   3.090   7.561   7.789  2.2414  1.5292  1.2568
  517MOL0     H68190   3.037   7.449   7.915 -2.9078  1.0275 -1.9574
  517MOL0     H68191   3.178   7.579   8.078 -0.2565 -0.6723  0.6793
  517MOL0     H68192   3.245   7.669   7.933  0.4342 -2.1548 -3.7497
  517MOL0     H68193   3.259   7.366   7.998 -1.4252  0.7542 -0.7450
  517MOL0     H68194   3.315   7.427   7.845  0.0604 -3.5836  0.6306
  517MOL0     H68195   3.427   7.567   8.082  0.8100  0.5128 -1.3737
  517MOL0     H68196   3.515   7.513   7.940  3.2847 -1.0668  0.8860
  517MOL0     H68197   3.598   7.240   7.954 -0.4406  2.4900 -0.5373
  517MOL0     H68198   3.825   7.137   8.152  0.5944  1.2052  4.6423
  517MOL0     H68199   3.701   7.020   8.112 -3.5378  1.8963 -2.0160
  517MOL0     H68200   3.751   7.129   8.399  1.2497  1.8934 -1.9483
  517MOL0     H68201   3.858   7.007   8.319 -1.5199 -4.9921 -0.9097
  517MOL0     H68202   3.559   6.989   8.388  0.5696  2.6232 -2.9102
  517MOL0     H68203   3.652   6.872   8.280  1.2269  0.1591  0.3999
  517MOL0     H68204   3.617   6.795   8.524 -0.9877  1.6985 -0.3187
  517MOL0     H68205   3.696   6.937   8.580 -1.3052  2.4683 -1.0323
  517MOL0     H68206   3.769   6.636   8.668  1.6523 -2.9593  0.0373
  517MOL0     H68207   3.908   6.614   8.878  0.0247  3.5831  3.8738
  517MOL0     H68208   4.037   6.763   9.202  1.4533  0.8055 -2.9750
  517MOL0     H68209   4.079   6.832   9.444 -1.2446 -1.9931 -0.2746
  517MOL0     H68210   4.333   7.147   9.563  1.1453  1.5142  2.1747
  517MOL0     H68211   4.459   7.032   9.533  0.7500 -2.5514  0.8401
  517MOL0     H68212   4.466   6.960   9.757  1.4954  0.6777 -1.0264
  517MOL0     H68213   4.301   7.032   9.793  1.5314 -1.0435  2.2280
  517MOL0     H68214   4.388   7.250   9.761 -1.0963 -1.8746  1.4691
  517MOL0     H68215   4.553   7.191   9.719 -0.2812 -0.3580 -0.1562
  517MOL0     H68216   4.435   7.258   9.974 -3.2312 -2.3032  1.3856
  517MOL0     H68217   4.448   7.084   9.982  3.6346 -1.8213  0.3105
  517MOL0     H68218   4.651   7.219  10.057  0.4766  1.9074 -0.9155
  517MOL0     H68219   4.687   7.262   9.889 -2.9318  1.6303 -0.5801
  517MOL0     H68220   4.682   7.028   9.822  1.2842 -1.5683  0.2289
  517MOL0     H68221   4.640   6.978   9.989 -1.6505 -0.0941 -1.1361
  517MOL0     H68222   4.899   7.109   9.874 -0.5302 -0.1745 -0.7438
  517MOL0     H68223   4.860   7.101  10.052 -1.6081  1.9105 -1.6592
  517MOL0     H68224   4.826   6.834   9.950 -0.2481  0.3844  3.2395
  517MOL0     H68225   4.985   6.903  10.014 -3.4371  2.5326  2.5511
  517MOL0     H68226   4.470   6.977   9.331  0.2630  1.3717  0.1244
  517MOL0     H68227   4.405   6.950   9.096 -0.0401 -0.5754  0.2611
  517MOL0     H68228   4.174   6.900   8.750  0.8363 -2.4910  2.4332
  517MOL0     H68229   4.025   6.940   8.528 -2.5313  2.9290  2.0039
  517MOL0     H68230   2.470   7.806   7.611  2.9035  1.4594  0.9317
  517MOL0     H68231   2.425   7.787   7.361 -3.5051 -1.9872  2.6742
  517MOL0     H68232   2.858   7.686   6.988  3.3640 -0.5174 -2.2303
  517MOL0     H68233   2.894   7.638   6.738  0.5003 -2.8989 -0.7934
  517MOL0     H68234   2.620   7.322   6.550  3.0749 -2.7423 -1.7667
  517MOL0     H68235   2.716   7.375   6.433 -1.8915  0.0690 -0.5158
  517MOL0     H68236   2.565   7.584   6.386 -3.2123 -0.3944 -0.9212
  517MOL0     H68237   2.485   7.432   6.371 -2.4315  2.0316 -1.2630
  517MOL0     H68238   2.468   7.633   6.592 -2.2310  1.4481  2.3721
  517MOL0     H68239   2.390   7.491   6.617 -0.7665  4.0101  1.9230
  517MOL0     H68240   2.318   7.668   6.362 -0.6546  4.5123  1.9404
  517MOL0     H68241   2.236   7.519   6.407 -0.1852 -0.2959 -0.6255
  517MOL0     H68242   2.052   7.773   6.675 -1.6460 -0.3096 -1.8988
  517MOL0     H68243   2.519   7.402   6.754  1.8062 -2.3744  1.9013
  517MOL0     H68244   2.493   7.454   6.983  2.1923 -0.8549  2.9816
  518MOL0     O68245   9.428   1.225   7.508 -0.2885 -0.4971 -0.1028
  518MOL0     C68246   9.334   1.244   7.577 -0.6558  0.1727  0.4523
  518MOL0     O68247   9.298   1.367   7.633  0.7408 -0.5981 -0.3716
  518MOL0     C68248   9.374   1.482   7.601  0.9194  0.8437  0.1699
  518MOL0     C68249   9.420   1.530   7.472 -0.7793  0.2768 -0.5747
  518MOL0     C68250   9.494   1.648   7.462  0.5177  0.6158  0.0666
  518MOL0     C68251   9.510   1.723   7.575 -0.0564  1.0672 -0.0267
  518MOL0     O68252   9.576   1.843   7.561 -0.3419 -0.5122  0.6881
  518MOL0     C68253   9.693   1.870   7.640 -0.8655  0.2391 -0.1061
  518MOL0     C68254   9.793   1.963   7.583  0.6546 -0.8200 -0.2528
  518MOL0     C68255   9.872   1.885   7.486 -0.0843 -0.5292 -0.2367
  518MOL0     C68256   9.993   1.955   7.415 -0.0440  0.0502  0.3979
  518MOL0     C68257  10.095   2.012   7.517 -0.0294  0.7141 -0.8317
  518MOL0     C68258  10.198   2.093   7.438 -0.7567  0.4752  0.0100
  518MOL0     C68259  10.301   2.157   7.537  0.1880  0.0245  0.4262
  518MOL0     C68260  10.242   2.234   7.667  0.2104  0.1041  0.2263
  518MOL0     N68261  10.147   2.339   7.618  0.5869  0.1873 -0.1565
  518MOL0     C68262  10.186   2.466   7.564 -0.2677  0.5267 -0.1606
  518MOL0     C68263  10.069   2.526   7.535 -0.1781  0.0711 -0.3126
  518MOL0     C68264  10.052   2.654   7.462 -0.4345 -0.0570  0.6302
  518MOL0     C68265   9.930   2.735   7.502  0.2313 -1.0877  0.1542
  518MOL0     C68266   9.923   2.876   7.438 -0.2544  0.7384 -0.6491
  518MOL0     C68267   9.972   2.882   7.295 -0.0458  0.1681  0.2426
  518MOL0     O68268   9.853   2.867   7.222 -0.5272 -0.1346 -0.1788
  518MOL0     C68269   9.808   2.967   7.146 -0.5191  0.1186  0.1579
  518MOL0     C68270   9.846   3.096   7.141  0.2647 -1.0477 -0.4429
  518MOL0     C68271   9.797   3.198   7.053 -0.0497  0.4517 -1.3182
  518MOL0     C68272   9.686   3.168   6.973  0.8134  0.3245  0.2455
  518MOL0     C68273   9.612   3.278   6.908  0.2394 -1.0400 -0.0673
  518MOL0     O68274   9.626   3.398   6.973 -1.4943 -0.5333  0.0629
  518MOL0     C68275   9.615   3.518   6.908  0.9920  0.0413  0.1849
  518MOL0     C68276   9.679   3.627   6.969 -0.1382  0.8895 -0.4836
  518MOL0     C68277   9.668   3.751   6.909  0.3204  0.4543  0.7977
  518MOL0     C68278   9.599   3.784   6.794 -0.2523 -0.5850 -0.6233
  518MOL0     O68279   9.592   3.916   6.759  0.6081  0.4120  0.8874
  518MOL0     C68280   9.539   3.951   6.623 -0.0154  0.2808 -0.8645
  518MOL0     C68281   9.635   3.931   6.506  0.1256  0.2286 -0.3819
  518MOL0     C68282   9.762   4.009   6.535 -0.0896  0.1569  0.0478
  518MOL0     C68283   9.867   3.998   6.415  0.2123  0.1717  0.3629
  518MOL0     C68284   9.971   4.116   6.415  0.5783 -0.1293  0.4764
  518MOL0     C68285  10.046   4.138   6.541  0.5080  0.3810  0.9278
  518MOL0     C68286  10.120   4.005   6.591 -0.2395 -0.1265  0.8014
  518MOL0     C68287  10.218   4.039   6.701 -0.5277 -0.3004  0.3059
  518MOL0    Cl68288  10.317   3.895   6.722  0.2322  0.2419 -0.5668
  518MOL0     C68289   9.528   3.674   6.737 -0.7752  0.2953  0.3113
  518MOL0     C68290   9.538   3.540   6.791  0.1031 -0.1593 -0.4744
  518MOL0     O68291   9.526   3.254   6.824  0.0410 -0.1856 -0.6015
  518MOL0     C68292   9.642   3.034   6.975  0.4795 -0.4683 -0.2894
  518MOL0     C68293   9.701   2.940   7.056 -0.8613  0.0613  0.1317
  518MOL0     N68294   9.966   2.451   7.585 -0.0631  0.0415  0.8778
  518MOL0     N68295  10.009   2.339   7.620 -1.0912  0.0745 -0.2212
  518MOL0     C68296   9.473   1.686   7.696 -0.3561  0.4055  0.0251
  518MOL0     C68297   9.397   1.567   7.708  0.3082 -0.1923  0.2993
  518MOL0     C68298   9.242   1.135   7.618 -0.1652 -0.3231  0.3154
  518MOL0     C68299   9.147   1.154   7.716  0.5892  0.2298 -0.3929
  518MOL0     C68300   9.074   1.038   7.758 -0.4208 -0.4295 -0.1874
  518MOL0     C68301   9.098   0.919   7.693  0.1355 -0.2189  0.2154
  518MOL0     O68302   9.029   0.801   7.721 -0.0357 -0.0298 -0.2247
  518MOL0     C68303   8.920   0.792   7.820  0.0506  0.0404 -0.0560
  518MOL0     C68304   8.788   0.863   7.768  0.0572 -0.2905 -0.2966
  518MOL0     C68305   8.697   0.774   7.687  0.3944 -0.0485  0.4260
  518MOL0     C68306   8.550   0.817   7.695  0.1728  0.0673 -1.1394
  518MOL0     C68307   8.528   0.894   7.574  0.3209  1.0658 -0.2252
  518MOL0     C68308   8.520   0.973   7.477  0.6435  0.4693 -0.4762
  518MOL0     C68309   9.191   0.903   7.595 -0.2134  0.5502  0.4441
  518MOL0     C68310   9.261   1.013   7.552  0.2671 -0.1087 -1.1016
  518MOL0     H68311   9.403   1.489   7.373 -2.6159  1.4912 -0.8040
  518MOL0     H68312   9.544   1.673   7.369 -1.1337 -1.3723 -1.4666
  518MOL0     H68313   9.743   1.779   7.672 -0.3206 -0.1675 -2.0324
  518MOL0     H68314   9.673   1.929   7.730 -1.2667  0.9107 -0.6245
  518MOL0     H68315   9.852   1.999   7.668 -1.0073 -2.9009  1.9241
  518MOL0     H68316   9.747   2.049   7.533 -1.0726 -3.5190 -3.6959
  518MOL0     H68317   9.799   1.867   7.407 -1.8792  0.0030  1.2113
  518MOL0     H68318   9.905   1.790   7.528  2.1398  1.7378  3.7972
  518MOL0     H68319  10.054   1.885   7.357  0.5935  1.4226 -0.6497
  518MOL0     H68320   9.951   2.034   7.352 -0.5389 -1.3381 -1.0664
  518MOL0     H68321  10.140   1.936   7.581 -0.0556  2.2260  1.0641
  518MOL0     H68322  10.051   2.078   7.592  1.3877  0.7522  0.0121
  518MOL0     H68323  10.141   2.169   7.384 -1.4256  0.7099  1.0255
  518MOL0     H68324  10.252   2.021   7.376 -2.1829 -1.2983  0.7380
  518MOL0     H68325  10.385   2.093   7.564 -0.2853 -0.2019  1.4082
  518MOL0     H68326  10.336   2.242   7.478  0.2701  0.3529  0.9478
  518MOL0     H68327  10.325   2.280   7.721  0.9544 -1.5856  0.5858
  518MOL0     H68328  10.199   2.160   7.735  1.9208 -0.3468  0.8534
  518MOL0     H68329  10.285   2.497   7.531  0.6429 -0.7242  1.2806
  518MOL0     H68330  10.042   2.622   7.358 -0.2171 -4.2483  1.7100
  518MOL0     H68331  10.142   2.716   7.472  0.0128 -0.6254  0.1737
  518MOL0     H68332   9.924   2.752   7.610  3.5182  0.9677  0.1811
  518MOL0     H68333   9.837   2.696   7.461  1.0276  1.0000 -4.2311
  518MOL0     H68334   9.826   2.927   7.444 -1.5993 -1.3820 -2.6866
  518MOL0     H68335  10.003   2.934   7.486  1.1272 -1.6895  0.1505
  518MOL0     H68336  10.047   2.806   7.269  1.3725  0.4224  3.1074
  518MOL0     H68337  10.031   2.973   7.278 -0.3703  0.0285 -1.9724
  518MOL0     H68338   9.913   3.134   7.217 -3.4326  0.2026  2.4738
  518MOL0     H68339   9.836   3.297   7.074  0.4294  0.1176 -0.6026
  518MOL0     H68340   9.741   3.616   7.058  0.0428  1.1072 -0.5837
  518MOL0     H68341   9.718   3.829   6.965  1.3656  0.5168 -0.1875
  518MOL0     H68342   9.519   4.058   6.618 -0.1351  0.3839  1.0426
  518MOL0     H68343   9.452   3.893   6.594 -1.0710  2.0002 -1.2673
  518MOL0     H68344   9.600   3.958   6.406  1.1981 -0.0838 -0.8573
  518MOL0     H68345   9.649   3.824   6.492 -0.6880  0.0790 -0.1117
  518MOL0     H68346   9.805   3.970   6.628  3.4720  0.9763 -1.1267
  518MOL0     H68347   9.727   4.112   6.543 -1.4988 -0.4153  5.3808
  518MOL0     H68348   9.908   3.897   6.411 -2.0907 -0.8035 -0.3928
  518MOL0     H68349   9.817   3.998   6.317  1.5644 -0.7319 -0.3521
  518MOL0     H68350   9.921   4.212   6.397  0.0412 -0.4561  0.2149
  518MOL0     H68351  10.035   4.102   6.328 -3.7123  1.6155 -3.3363
  518MOL0     H68352   9.967   4.166   6.611 -1.9926 -1.4738 -0.9023
  518MOL0     H68353  10.115   4.221   6.525 -0.7833  1.0293 -2.0516
  518MOL0     H68354  10.044   3.941   6.636 -0.9507  1.1965  1.5469
  518MOL0     H68355  10.170   3.936   6.523  0.3948 -0.8948  2.0183
  518MOL0     H68356  10.163   4.053   6.795  1.7852  0.9132  1.5702
  518MOL0     H68357  10.271   4.129   6.669 -1.8256  0.2282 -0.3939
  518MOL0     H68358   9.470   3.684   6.645 -1.0178  1.4008  0.5666
  518MOL0     H68359   9.492   3.458   6.736  3.0075 -4.1620  2.4194
  518MOL0     H68360   9.560   3.006   6.908  1.2421  0.2987 -1.5777
  518MOL0     H68361   9.678   2.835   7.039  0.9891 -0.1037 -1.7249
  518MOL0     H68362   9.494   1.745   7.784 -0.5429 -0.8918  0.9687
  518MOL0     H68363   9.348   1.542   7.802  2.6573 -0.7822  1.4624
  518MOL0     H68364   9.136   1.240   7.781 -1.1936  0.4841 -0.9715
  518MOL0     H68365   9.016   1.046   7.849 -1.4691 -4.9104 -0.2387
  518MOL0     H68366   8.962   0.837   7.911 -1.3759 -1.5667  1.4607
  518MOL0     H68367   8.901   0.692   7.859 -0.2955  0.7638  1.7464
  518MOL0     H68368   8.731   0.905   7.852  0.2072  2.6454 -1.5375
  518MOL0     H68369   8.824   0.954   7.719 -2.1252  2.5634  2.9609
  518MOL0     H68370   8.689   0.669   7.716 -2.0025  0.3167  1.2752
  518MOL0     H68371   8.736   0.783   7.585 -1.0106  1.0430 -0.0366
  518MOL0     H68372   8.490   0.726   7.689 -0.0423  0.3021 -3.0623
  518MOL0     H68373   8.515   0.866   7.786 -1.7316  0.9434 -2.2743
  518MOL0     H68374   8.515   1.052   7.404  2.7827  0.7576 -0.3774
  518MOL0     H68375   9.209   0.813   7.537 -1.2468 -0.1019  1.1008
  518MOL0     H68376   9.331   0.994   7.472  3.5779  1.6892  1.1490
  519MOL0     O68377   7.256   1.664  11.276 -1.0600 -0.7553  0.1598
  519MOL0     C68378   7.271   1.546  11.257  0.1624 -0.8046 -1.1577
  519MOL0     O68379   7.369   1.493  11.197  0.3667 -0.1794  0.4778
  519MOL0     C68380   7.462   1.564  11.115 -0.4334 -1.2411 -1.1071
  519MOL0     C68381   7.524   1.695  11.150  0.1399  0.5633 -0.8465
  519MOL0     C68382   7.622   1.750  11.070 -0.3174  0.2254 -0.5214
  519MOL0     C68383   7.666   1.689  10.955  0.6029  0.8059 -0.0034
  519MOL0     O68384   7.760   1.729  10.861 -0.6580  0.2472 -0.4718
  519MOL0     C68385   7.839   1.851  10.890 -0.2071 -0.1354 -0.4351
  519MOL0     C68386   7.927   1.882  10.764  0.0982  0.1658  0.0805
  519MOL0     C68387   8.018   1.993  10.820  0.7588  0.6131 -0.1498
  519MOL0     C68388   8.089   2.072  10.709  0.6731 -1.1595 -0.7584
  519MOL0     C68389   7.994   2.183  10.643  0.0955  0.5698  0.0986
  519MOL0     C68390   8.064   2.267  10.538  0.0979 -0.3839 -0.3771
  519MOL0     C68391   8.176   2.361  10.581 -0.9637  0.7412 -0.6646
  519MOL0     C68392   8.208   2.474  10.484 -0.3236 -0.1207  0.4013
  519MOL0     N68393   8.325   2.561  10.519 -0.7534  0.6684  0.1010
  519MOL0     C68394   8.333   2.661  10.620  0.5473  0.6358 -0.0220
  519MOL0     C68395   8.465   2.703  10.615 -0.1157 -0.0306 -0.7008
  519MOL0     C68396   8.521   2.813  10.702  0.1302  0.1462 -0.3602
  519MOL0     C68397   8.431   2.945  10.673  0.8288  0.8111  0.6053
  519MOL0     C68398   8.431   2.987  10.523  0.3476  0.3791  0.8172
  519MOL0     C68399   8.577   3.017  10.479  0.4790 -0.3786 -0.6712
  519MOL0     O68400   8.634   3.129  10.565 -0.0940  0.1849 -1.2810
  519MOL0     C68401   8.762   3.171  10.524  0.1237  0.5712  0.1471
  519MOL0     C68402   8.859   3.107  10.449 -0.0150 -0.3944 -0.2157
  519MOL0     C68403   8.986   3.166  10.420  0.4531  0.2519  0.4726
  519MOL0     C68404   9.020   3.288  10.465  0.7883 -0.1589 -0.7070
  519MOL0     C68405   9.161   3.335  10.441  0.3494  0.7379 -0.1158
  519MOL0     O68406   9.233   3.262  10.354  0.1276  0.2985  0.2356
  519MOL0     C68407   9.348   3.307  10.294  0.2278 -0.9400 -0.1375
  519MOL0     C68408   9.339   3.312  10.160  0.2938  0.0910  0.1980
  519MOL0     C68409   9.447   3.374  10.089  0.2165 -0.0249 -0.2502
  519MOL0     C68410   9.563   3.423  10.158 -0.6459 -0.5210  0.1689
  519MOL0     O68411   9.657   3.500  10.089  0.2632  0.5296 -0.1464
  519MOL0     C68412   9.625   3.550   9.961 -0.9674 -0.5197 -0.8796
  519MOL0     C68413   9.727   3.663   9.922  0.0404 -0.0418 -0.7755
  519MOL0     C68414   9.876   3.622   9.939 -0.4141  0.4008 -1.0816
  519MOL0     C68415   9.978   3.705   9.866 -0.4221 -0.8895 -0.0538
  519MOL0     C68416  10.026   3.834   9.932  0.2019  0.6433  0.0484
  519MOL0     C68417  10.103   3.823  10.061 -0.0345 -0.1687  1.4983
  519MOL0     C68418  10.240   3.753  10.038 -0.6970 -0.2415  0.7048
  519MOL0     C68419  10.317   3.756  10.172 -0.5486 -0.8225  0.0048
  519MOL0    Cl68420  10.230   3.645  10.278  0.0030 -0.0928  0.0483
  519MOL0     C68421   9.578   3.407  10.295  0.2739  0.0883 -0.1381
  519MOL0     C68422   9.468   3.346  10.357  0.4618 -0.3881 -0.7581
  519MOL0     O68423   9.195   3.440  10.499  0.2396 -0.4788  1.2118
  519MOL0     C68424   8.927   3.365  10.543 -1.1300 -0.1952  1.1629
  519MOL0     C68425   8.808   3.296  10.568  0.6861 -0.6260 -0.3076
  519MOL0     N68426   8.531   2.638  10.516 -0.0927 -0.7660 -0.3972
  519MOL0     N68427   8.447   2.556  10.465  0.1669 -0.2732  0.0814
  519MOL0     C68428   7.597   1.566  10.919 -0.5704 -0.0527 -1.0042
  519MOL0     C68429   7.508   1.496  11.004  0.3796  0.2402  0.7787
  519MOL0     C68430   7.179   1.454  11.334 -0.3729 -0.1079 -0.3612
  519MOL0     C68431   7.194   1.312  11.312 -0.3141  0.3355  0.2873
  519MOL0     C68432   7.108   1.235  11.394 -0.5591 -0.5965  1.1348
  519MOL0     C68433   7.016   1.285  11.485 -0.6963  0.6284  0.2165
  519MOL0     O68434   6.950   1.185  11.552  0.4377 -0.1528  0.4899
  519MOL0     C68435   6.836   1.223  11.628  0.2423  0.6735 -0.2021
  519MOL0     C68436   6.789   1.095  11.706  0.8364  0.8878  1.4553
  519MOL0     C68437   6.899   1.039  11.799 -0.3957 -0.3480  0.3645
  519MOL0     C68438   6.859   0.903  11.861  1.0821  0.0335 -1.1411
  519MOL0     C68439   6.754   0.931  11.948 -0.6859 -0.1124 -0.6239
  519MOL0     C68440   6.670   0.953  12.026  0.6006  0.7174  0.7351
  519MOL0     C68441   6.995   1.421  11.496  0.1085  0.4875  0.8417
  519MOL0     C68442   7.083   1.500  11.429  0.7025 -0.5316  0.4048
  519MOL0     H68443   7.492   1.748  11.239  2.9350  0.2651  0.4625
  519MOL0     H68444   7.666   1.842  11.108 -0.5172 -0.5614  1.7307
  519MOL0     H68445   7.907   1.827  10.973 -0.9196 -1.5755 -0.2388
  519MOL0     H68446   7.781   1.939  10.919  0.9019  0.2187  0.8414
  519MOL0     H68447   7.874   1.919  10.677 -3.0203 -0.4833  1.5737
  519MOL0     H68448   7.984   1.793  10.739 -0.9512 -0.7643  0.9068
  519MOL0     H68449   8.103   1.942  10.869  1.0603  0.1321 -1.1458
  519MOL0     H68450   7.970   2.056  10.895  2.8252  1.2949  0.6992
  519MOL0     H68451   8.177   2.130  10.736 -0.3276 -0.8375  2.2034
  519MOL0     H68452   8.112   2.004  10.626 -2.7800 -0.1409 -2.7588
  519MOL0     H68453   7.954   2.237  10.730  1.3931 -1.9735  2.4238
  519MOL0     H68454   7.902   2.137  10.606 -1.2584  2.2519  1.1823
  519MOL0     H68455   7.990   2.328  10.485 -2.9216 -2.5164  1.1314
  519MOL0     H68456   8.091   2.197  10.459 -2.8465 -0.9177 -1.0083
  519MOL0     H68457   8.141   2.405  10.676 -3.3661  0.0763 -1.1665
  519MOL0     H68458   8.268   2.303  10.590 -1.1822  0.2668 -1.4078
  519MOL0     H68459   8.123   2.542  10.479 -0.1244  0.1969  1.1072
  519MOL0     H68460   8.225   2.433  10.384 -1.0355  0.5097  0.0206
  519MOL0     H68461   8.249   2.694  10.679 -1.0672 -1.8854 -0.7381
  519MOL0     H68462   8.627   2.829  10.681  0.5774  1.4091  2.3956
  519MOL0     H68463   8.526   2.789  10.809  0.7905  0.7487 -0.2541
  519MOL0     H68464   8.479   3.029  10.724  2.3652 -0.7801  1.9130
  519MOL0     H68465   8.328   2.928  10.705  0.6462  0.2037 -0.2707
  519MOL0     H68466   8.382   2.910  10.464  1.7060 -0.8408  1.2261
  519MOL0     H68467   8.372   3.079  10.520  2.2348  1.6355  0.0272
  519MOL0     H68468   8.568   3.056  10.377  0.3278  0.7126 -0.2565
  519MOL0     H68469   8.638   2.927  10.478 -0.7649 -1.2471 -1.4255
  519MOL0     H68470   8.841   3.005  10.416 -0.0426 -0.1969 -0.8249
  519MOL0     H68471   9.045   3.099  10.357 -0.1319  0.8036 -0.7043
  519MOL0     H68472   9.246   3.293  10.107  2.8031 -0.2382 -4.6982
  519MOL0     H68473   9.423   3.398   9.986 -1.2584 -0.1883  0.0282
  519MOL0     H68474   9.521   3.583   9.956 -1.7577 -2.2809  1.8722
  519MOL0     H68475   9.633   3.464   9.894  0.9068 -1.2564  0.2166
  519MOL0     H68476   9.687   3.740   9.988 -2.1993 -1.3262 -0.5079
  519MOL0     H68477   9.705   3.706   9.823 -3.8199  5.0825  1.8101
  519MOL0     H68478   9.891   3.515   9.920  1.0015  0.3387  0.2298
  519MOL0     H68479   9.903   3.630  10.045 -1.1135  3.8291 -1.0724
  519MOL0     H68480  10.059   3.640   9.831  0.3369  0.6303 -1.2476
  519MOL0     H68481   9.933   3.729   9.769 -3.6391 -0.2973  1.4564
  519MOL0     H68482   9.933   3.890   9.944 -1.2612 -1.3344 -1.5091
  519MOL0     H68483  10.091   3.897   9.870  0.3771  2.0969  1.6164
  519MOL0     H68484  10.047   3.765  10.136 -1.7415  1.0573  1.2493
  519MOL0     H68485  10.104   3.925  10.101 -2.6901  1.9491 -3.0692
  519MOL0     H68486  10.225   3.653   9.997 -1.8083  1.0877 -2.5262
  519MOL0     H68487  10.294   3.817   9.967  0.6630  0.6444  2.4587
  519MOL0     H68488  10.332   3.857  10.212 -1.8105 -0.1586 -1.1121
  519MOL0     H68489  10.411   3.704  10.149 -0.7913 -0.6958 -1.3403
  519MOL0     H68490   9.670   3.432  10.348  0.7529 -2.4087  0.3528
  519MOL0     H68491   9.482   3.336  10.464 -0.1797  1.7693 -0.4219
  519MOL0     H68492   8.961   3.467  10.560  1.6030 -0.6064 -1.0138
  519MOL0     H68493   8.720   3.347  10.608  0.2049 -0.3791 -1.6463
  519MOL0     H68494   7.621   1.514  10.827 -1.5497 -2.6342  0.1188
  519MOL0     H68495   7.478   1.400  10.964  2.1863  1.1348 -3.1877
  519MOL0     H68496   7.265   1.257  11.252 -3.5250 -2.5181 -1.2588
  519MOL0     H68497   7.113   1.127  11.393 -0.7486 -0.6121 -0.4742
  519MOL0     H68498   6.748   1.255  11.570  1.0128  1.4722 -0.9692
  519MOL0     H68499   6.857   1.303  11.699 -3.5506  0.4443  1.4250
  519MOL0     H68500   6.704   1.121  11.770  1.4688  0.9034  2.3084
  519MOL0     H68501   6.757   1.024  11.629 -0.1131  3.4945 -0.7155
  519MOL0     H68502   6.935   1.109  11.875 -1.4993  1.7686 -0.9650
  519MOL0     H68503   6.989   1.009  11.745 -0.6704 -0.2625 -0.1534
  519MOL0     H68504   6.841   0.819  11.794 -2.9564 -0.6459  0.5504
  519MOL0     H68505   6.945   0.872  11.921  1.2268  2.4462  0.0306
  519MOL0     H68506   6.596   0.996  12.090  0.7846  2.1072  0.0518
  519MOL0     H68507   6.916   1.457  11.562 -0.1340  1.4107  0.0656
  519MOL0     H68508   7.072   1.607  11.435 -2.6272 -0.5288 -2.3166
  520MOL0     O68509   7.270   7.249   6.669 -0.1515 -0.6311 -0.3812
  520MOL0     C68510   7.234   7.313   6.773 -0.8613 -0.3586 -0.8636
  520MOL0     O68511   7.121   7.282   6.846 -0.4417  0.1914 -0.1599
  520MOL0     C68512   7.065   7.164   6.829  0.5545  0.7207  0.3321
  520MOL0     C68513   7.077   7.066   6.930 -0.0979 -0.4538 -0.4962
  520MOL0     C68514   7.008   6.946   6.916  0.3008 -0.2655 -0.7135
  520MOL0     C68515   6.940   6.918   6.793 -1.2376 -0.3984 -0.1228
  520MOL0     O68516   6.865   6.806   6.762 -0.0568 -0.1190 -0.7356
  520MOL0     C68517   6.800   6.725   6.853  0.0564 -0.8952 -0.7465
  520MOL0     C68518   6.708   6.619   6.789 -0.7389  0.0475 -0.1620
  520MOL0     C68519   6.590   6.684   6.715  0.2220 -0.5625  0.1978
  520MOL0     C68520   6.521   6.579   6.626 -0.2105  0.0646 -0.0533
  520MOL0     C68521   6.381   6.611   6.597 -0.0823  0.1391  0.3920
  520MOL0     C68522   6.315   6.525   6.488  0.2025  0.1122  0.4892
  520MOL0     C68523   6.172   6.571   6.456 -0.2995  0.0422  0.0709
  520MOL0     C68524   6.082   6.458   6.410  0.3686  0.9528 -0.5742
  520MOL0     N68525   6.133   6.424   6.269  0.2512 -0.5475 -0.0627
  520MOL0     C68526   6.142   6.297   6.217  0.4864  0.0488 -0.1065
  520MOL0     C68527   6.170   6.307   6.080  0.7487 -0.3245 -1.4399
  520MOL0     C68528   6.171   6.209   5.970  0.2723  0.4101 -0.4098
  520MOL0     C68529   6.025   6.171   5.932  0.0778 -0.3284 -0.0422
  520MOL0     C68530   6.028   6.053   5.839 -0.5933 -0.5109 -0.8529
  520MOL0     C68531   6.034   5.923   5.917  0.0461  0.2184  0.7051
  520MOL0     O68532   6.036   5.822   5.818 -0.3954  0.7277 -0.8859
  520MOL0     C68533   6.036   5.690   5.869 -0.0659 -0.1454  0.5720
  520MOL0     C68534   6.083   5.651   5.996  0.8647  0.4042  0.7559
  520MOL0     C68535   6.100   5.510   6.018 -0.5240  0.1642  0.1677
  520MOL0     C68536   6.065   5.408   5.926  0.1826 -0.5364 -0.4179
  520MOL0     C68537   6.070   5.260   5.957 -0.1733 -0.7311 -0.0379
  520MOL0     O68538   6.084   5.235   6.090 -0.1330  0.2364 -1.1085
  520MOL0     C68539   6.100   5.107   6.129 -0.1728  1.2149  0.5854
  520MOL0     C68540   5.991   5.028   6.161  0.4079  0.1739 -0.2555
  520MOL0     C68541   6.015   4.893   6.193 -0.5154 -0.4700  0.2205
  520MOL0     C68542   6.143   4.842   6.198 -0.3615  0.8579  0.8587
  520MOL0     O68543   6.153   4.706   6.235  0.6692 -0.2782 -1.0583
  520MOL0     C68544   6.265   4.630   6.206 -1.1998  0.1055  0.1111
  520MOL0     C68545   6.256   4.502   6.290  0.9457 -0.9006  0.0290
  520MOL0     C68546   6.143   4.422   6.217  0.1400  0.3884 -0.3066
  520MOL0     C68547   6.125   4.290   6.281 -0.1770  1.0090  0.0026
  520MOL0     C68548   6.010   4.207   6.210 -0.1764  0.1085  0.7138
  520MOL0     C68549   6.054   4.056   6.214 -0.2261  0.2455 -0.4924
  520MOL0     C68550   5.944   3.960   6.155  0.6250 -0.5418  1.3399
  520MOL0     C68551   5.989   3.819   6.157 -1.0575 -0.4038 -0.5863
  520MOL0    Cl68552   5.876   3.729   6.071 -0.6697 -0.3585 -0.1116
  520MOL0     C68553   6.253   4.915   6.168  1.2840  0.1967  0.7053
  520MOL0     C68554   6.229   5.053   6.135  0.3018 -0.6740  0.9986
  520MOL0     O68555   6.072   5.176   5.868 -0.6129  0.3699  0.3699
  520MOL0     C68556   6.026   5.454   5.797  0.8176 -0.0907 -0.0500
  520MOL0     C68557   6.006   5.594   5.772  0.4230  1.1317  0.8808
  520MOL0     N68558   6.194   6.445   6.056 -0.2014 -0.6053  0.1460
  520MOL0     N68559   6.152   6.511   6.165 -0.4305 -0.0269 -1.0561
  520MOL0     C68560   6.927   7.018   6.700 -0.7337 -0.0858 -0.3061
  520MOL0     C68561   6.993   7.140   6.716  1.1605  0.4899  0.2897
  520MOL0     C68562   7.307   7.433   6.800 -0.2076 -0.0604  0.1445
  520MOL0     C68563   7.242   7.528   6.881 -0.1668 -0.0120 -0.8074
  520MOL0     C68564   7.310   7.643   6.922  0.0043 -0.9976  0.7319
  520MOL0     C68565   7.437   7.663   6.881  0.5304 -0.1703 -0.5169
  520MOL0     O68566   7.492   7.771   6.921 -0.7643  0.3291  0.2376
  520MOL0     C68567   7.558   7.848   6.826 -0.0615 -0.5484  0.0971
  520MOL0     C68568   7.537   8.003   6.860  0.0215  0.9242 -0.3287
  520MOL0     C68569   7.397   8.045   6.805 -0.0757  0.4187  0.9551
  520MOL0     C68570   7.391   8.200   6.796 -0.0499 -0.0488  1.2181
  520MOL0     C68571   7.382   8.268   6.927  0.3146 -0.0936 -0.1646
  520MOL0     C68572   7.369   8.305   7.044 -0.7525 -0.1562 -0.1205
  520MOL0     C68573   7.508   7.576   6.793 -0.5555  0.8957  0.3374
  520MOL0     C68574   7.446   7.456   6.759  1.2187  0.3001  0.2055
  520MOL0     H68575   7.124   7.095   7.023  1.2813  2.2408 -1.9042
  520MOL0     H68576   7.022   6.869   6.990  3.5367 -0.1013 -0.9913
  520MOL0     H68577   6.747   6.794   6.920  2.0666 -0.6281  0.6370
  520MOL0     H68578   6.882   6.673   6.902  1.0154  3.0528  2.3177
  520MOL0     H68579   6.667   6.555   6.868  0.4332  0.5207  0.8515
  520MOL0     H68580   6.774   6.563   6.722 -0.9198  0.7618 -0.9440
  520MOL0     H68581   6.620   6.764   6.647  1.2819 -1.5519 -0.5444
  520MOL0     H68582   6.514   6.737   6.773 -0.6975  0.0553 -1.5069
  520MOL0     H68583   6.571   6.550   6.534 -3.2871 -2.1279 -1.2344
  520MOL0     H68584   6.516   6.491   6.691 -2.9583  0.8846  0.9889
  520MOL0     H68585   6.379   6.717   6.571 -1.5540 -0.3061 -1.5446
  520MOL0     H68586   6.321   6.595   6.688  3.1722 -0.0287  2.6761
  520MOL0     H68587   6.322   6.422   6.524 -3.4622  0.3976  2.5688
  520MOL0     H68588   6.378   6.542   6.401  1.8684  0.7235  1.7570
  520MOL0     H68589   6.129   6.601   6.552 -2.0499 -0.5762 -0.4850
  520MOL0     H68590   6.151   6.659   6.394 -1.1586 -0.1204  0.1218
  520MOL0     H68591   5.981   6.500   6.414 -0.4013 -0.8908  0.6618
  520MOL0     H68592   6.077   6.376   6.482 -1.3910  0.7148 -0.9260
  520MOL0     H68593   6.102   6.211   6.270 -2.8513 -0.6842 -3.4346
  520MOL0     H68594   6.232   6.125   6.005  1.9011  2.3953  1.7980
  520MOL0     H68595   6.225   6.241   5.880  0.4930 -0.4013 -0.5761
  520MOL0     H68596   5.992   6.259   5.876  3.6153  0.9712 -0.3519
  520MOL0     H68597   5.956   6.169   6.016  0.1566  2.5592  0.1843
  520MOL0     H68598   5.933   6.051   5.785 -0.7506  0.0403 -0.6002
  520MOL0     H68599   6.117   6.060   5.776  1.9698 -1.9724  2.2771
  520MOL0     H68600   5.945   5.913   5.980 -0.1455  0.9277  0.5492
  520MOL0     H68601   6.129   5.913   5.970  0.8790  0.0601 -0.7582
  520MOL0     H68602   6.126   5.717   6.070  1.3973  1.0086 -0.0714
  520MOL0     H68603   6.138   5.461   6.107 -0.4051 -0.4522 -0.2122
  520MOL0     H68604   5.895   5.075   6.175  1.9483  2.5606  4.6079
  520MOL0     H68605   5.936   4.826   6.225  0.9856 -1.0088  3.1236
  520MOL0     H68606   6.359   4.678   6.233 -0.5145 -0.0502 -1.8176
  520MOL0     H68607   6.258   4.612   6.099 -2.0697  2.7224 -0.3429
  520MOL0     H68608   6.228   4.528   6.392  0.7847  1.4629 -0.5606
  520MOL0     H68609   6.339   4.431   6.296 -0.6404 -3.0575 -1.8248
  520MOL0     H68610   6.176   4.395   6.116  0.2631  2.1353 -0.7655
  520MOL0     H68611   6.056   4.485   6.195  1.8396  2.2267 -2.2428
  520MOL0     H68612   6.225   4.246   6.281 -0.4756  0.3229  0.6615
  520MOL0     H68613   6.102   4.306   6.386 -0.0944  1.6919 -0.0746
  520MOL0     H68614   5.995   4.235   6.105 -3.5582 -0.8173  0.8300
  520MOL0     H68615   5.911   4.232   6.251 -1.1880 -1.0611 -0.9018
  520MOL0     H68616   6.074   4.020   6.315  0.4319 -1.5812 -1.2249
  520MOL0     H68617   6.145   4.055   6.154 -1.4419  0.7373 -2.4472
  520MOL0     H68618   5.851   3.967   6.213 -0.5117 -0.3768 -0.4340
  520MOL0     H68619   5.909   3.987   6.055 -0.4314 -1.6152  1.3929
  520MOL0     H68620   5.992   3.779   6.259 -1.2250 -1.2946 -0.9171
  520MOL0     H68621   6.087   3.807   6.111 -1.0019 -0.1074 -0.5428
  520MOL0     H68622   6.347   4.872   6.200  0.3763 -1.9246  0.7225
  520MOL0     H68623   6.315   5.116   6.117 -1.0876  0.6743 -1.4076
  520MOL0     H68624   5.997   5.378   5.726 -0.3135  0.1000  0.1919
  520MOL0     H68625   5.976   5.625   5.672  2.0705  0.7246  0.2352
  520MOL0     H68626   6.869   7.003   6.609 -0.5502  1.3835 -0.6972
  520MOL0     H68627   6.973   7.220   6.645  2.8157  1.4379  0.8347
  520MOL0     H68628   7.143   7.494   6.913  0.7186 -4.6589 -2.1849
  520MOL0     H68629   7.256   7.726   6.967 -3.4770 -0.6004 -3.4407
  520MOL0     H68630   7.516   7.835   6.726 -0.4136  2.9647 -0.3459
  520MOL0     H68631   7.666   7.830   6.831 -0.1841 -1.6446 -0.8442
  520MOL0     H68632   7.550   8.006   6.968 -0.2684 -2.0407 -0.1192
  520MOL0     H68633   7.610   8.068   6.811 -0.6282  2.0241  0.1448
  520MOL0     H68634   7.320   7.998   6.868  0.3842 -3.3982 -1.0556
  520MOL0     H68635   7.380   8.012   6.702 -1.2619  0.8821  0.9837
  520MOL0     H68636   7.475   8.233   6.735  0.7855 -5.3378 -0.9842
  520MOL0     H68637   7.294   8.217   6.749  0.9690  0.7525 -0.7029
  520MOL0     H68638   7.342   8.337   7.142  2.9094 -0.6046  1.1920
  520MOL0     H68639   7.613   7.585   6.766  0.0044  1.3631  2.5019
  520MOL0     H68640   7.499   7.372   6.717  1.4380  0.4874  0.1049
  521MOL0     O68641   9.131   9.414   6.057 -0.2453  0.1601  0.1737
  521MOL0     C68642   9.145   9.412   5.937  1.0410 -0.3980  0.2947
  521MOL0     O68643   9.050   9.443   5.843 -0.4443  0.3084 -0.6168
  521MOL0     C68644   8.921   9.472   5.879 -0.2329 -0.2509  0.5023
  521MOL0     C68645   8.834   9.372   5.921  0.9024 -0.1507  0.2290
  521MOL0     C68646   8.695   9.395   5.931  0.8664  0.2345  0.9499
  521MOL0     C68647   8.639   9.518   5.897 -0.4585  0.8005  1.1246
  521MOL0     O68648   8.508   9.521   5.912  0.5432 -0.2062 -0.3858
  521MOL0     C68649   8.425   9.627   5.851  0.0873 -0.1607  0.4696
  521MOL0     C68650   8.277   9.604   5.888 -0.2548 -1.2514  0.6731
  521MOL0     C68651   8.219   9.706   5.994 -0.3562  0.4665 -0.9147
  521MOL0     C68652   8.256   9.657   6.130  0.8985 -0.0910  0.1084
  521MOL0     C68653   8.180   9.732   6.238 -0.4668 -0.5096  0.4057
  521MOL0     C68654   8.255   9.859   6.284  0.7546  0.6360 -0.1641
  521MOL0     C68655   8.170   9.951   6.372 -0.3604 -1.3031 -0.5494
  521MOL0     C68656   8.053  10.021   6.299 -0.5672 -0.2901  0.1326
  521MOL0     N68657   8.094  10.163   6.285  0.0014  0.8185  0.0463
  521MOL0     C68658   8.026  10.272   6.343  0.0601 -0.7375  0.5322
  521MOL0     C68659   8.067  10.381   6.271  0.7647  0.3446  0.1528
  521MOL0     C68660   8.008  10.514   6.290 -0.1342  0.3282 -0.2026
  521MOL0     C68661   8.052  10.618   6.186 -0.3639  1.0464  0.9705
  521MOL0     C68662   7.936  10.711   6.153  0.3734 -0.0659  0.7378
  521MOL0     C68663   7.981  10.823   6.067 -0.3778 -0.5801  0.2099
  521MOL0     O68664   7.874  10.921   6.067 -0.1959  0.1697  0.8350
  521MOL0     C68665   7.916  11.042   6.039 -0.6731 -0.9547 -1.4451
  521MOL0     C68666   7.897  11.150   6.124  0.2171 -0.4092 -0.5609
  521MOL0     C68667   7.936  11.284   6.102  0.1547  0.9122  0.5085
  521MOL0     C68668   8.001  11.314   5.980  0.5026  0.8811  0.2273
  521MOL0     C68669   8.069  11.438   5.965 -1.3172  0.7656 -0.4958
  521MOL0     O68670   8.052  11.522   6.079  0.5159 -0.6401  0.1149
  521MOL0     C68671   8.084  11.654   6.047 -0.8119 -0.4516 -0.2846
  521MOL0     C68672   8.215  11.709   6.029 -1.0005  0.5365  0.1708
  521MOL0     C68673   8.236  11.845   6.014  0.4525 -1.4109 -0.2680
  521MOL0     C68674   8.135  11.943   6.016 -0.0270 -0.1068  0.3642
  521MOL0     O68675   8.177  12.078   6.010 -0.3649  0.5648 -0.5729
  521MOL0     C68676   8.075  12.186   6.025 -1.0923  1.1730 -0.0148
  521MOL0     C68677   8.140  12.321   6.026 -0.6020  0.6414  0.4847
  521MOL0     C68678   8.242  12.338   6.139  0.0178 -0.6954 -0.2881
  521MOL0     C68679   8.347  12.448   6.117  0.9424  0.4954 -0.3688
  521MOL0     C68680   8.453  12.406   6.013  0.1288  0.0548 -0.2958
  521MOL0     C68681   8.585  12.494   6.016 -0.3743 -0.4988  0.1266
  521MOL0     C68682   8.549  12.644   5.977  0.5504  0.3337 -0.6090
  521MOL0     C68683   8.671  12.735   5.965  0.2294 -0.6719  0.2706
  521MOL0    Cl68684   8.763  12.675   5.832  0.2348 -0.1386  0.5752
  521MOL0     C68685   7.999  11.891   6.034 -0.5648  0.5699  0.1029
  521MOL0     C68686   7.978  11.753   6.050 -0.8223  0.3221 -0.2812
  521MOL0     O68687   8.127  11.465   5.856  0.1664  0.6321 -0.8083
  521MOL0     C68688   8.007  11.204   5.886 -0.7309 -0.4078  0.9401
  521MOL0     C68689   7.959  11.073   5.912 -0.3933 -0.9254  0.8415
  521MOL0     N68690   8.167  10.334   6.183 -0.7268  1.2512  0.7007
  521MOL0     N68691   8.177  10.209   6.187 -0.0945 -0.1149  0.7306
  521MOL0     C68692   8.724   9.626   5.855 -0.2572 -0.2357  0.5824
  521MOL0     C68693   8.868   9.601   5.846  0.0071  0.1491  0.7280
  521MOL0     C68694   9.275   9.346   5.885  0.5093 -0.8208  0.4766
  521MOL0     C68695   9.260   9.253   5.779  0.8721  0.0404 -0.6555
  521MOL0     C68696   9.370   9.187   5.731  0.0869  0.0312  0.2052
  521MOL0     C68697   9.488   9.213   5.793 -0.2398 -0.9029 -0.8187
  521MOL0     O68698   9.615   9.168   5.755 -0.1794 -0.6591  0.2363
  521MOL0     C68699   9.632   9.053   5.672 -0.0726 -0.7387  0.5068
  521MOL0     C68700   9.754   9.064   5.573  0.6591 -0.0696  0.1475
  521MOL0     C68701   9.883   9.052   5.653  0.2334 -0.0701 -0.0105
  521MOL0     C68702  10.011   9.097   5.584  0.0520  0.3128 -0.2838
  521MOL0     C68703  10.026   9.040   5.446 -0.2588 -0.1579 -0.0712
  521MOL0     C68704  10.022   8.995   5.336  0.1540  0.5046 -0.0054
  521MOL0     C68705   9.501   9.306   5.896  0.0182  0.7644 -0.3015
  521MOL0     C68706   9.392   9.369   5.952 -0.0891  0.0096  0.9372
  521MOL0     H68707   8.870   9.272   5.941 -1.4292 -0.7721  1.6476
  521MOL0     H68708   8.637   9.304   5.944  0.9429  0.2454  1.3864
  521MOL0     H68709   8.424   9.631   5.742 -1.7421  0.3280  0.4629
  521MOL0     H68710   8.454   9.727   5.886  0.1676  1.3248 -3.3845
  521MOL0     H68711   8.274   9.498   5.916  2.4127 -1.7246 -0.5814
  521MOL0     H68712   8.217   9.623   5.798  0.0417 -1.4703  0.4268
  521MOL0     H68713   8.110   9.701   5.987 -0.5055  2.1485 -0.2134
  521MOL0     H68714   8.257   9.808   5.984  1.6104  0.0831  1.7209
  521MOL0     H68715   8.228   9.552   6.138 -1.3134  0.4546  0.0815
  521MOL0     H68716   8.364   9.670   6.140  1.7606 -1.5551 -4.7214
  521MOL0     H68717   8.167   9.674   6.329 -2.5091  1.4828  1.5100
  521MOL0     H68718   8.082   9.770   6.205 -0.6541 -2.2886 -1.2488
  521MOL0     H68719   8.305   9.919   6.208 -0.6251 -1.2707 -2.7308
  521MOL0     H68720   8.333   9.817   6.348 -0.6326  0.5269  1.5112
  521MOL0     H68721   8.112   9.900   6.449  1.1296  0.0262  1.5729
  521MOL0     H68722   8.234  10.027   6.418 -3.2248  0.4575  0.7326
  521MOL0     H68723   7.964   9.998   6.358  1.1003 -1.7305  2.2464
  521MOL0     H68724   8.029   9.986   6.198  1.8710 -0.2791 -0.5034
  521MOL0     H68725   7.954  10.269   6.424 -1.6044 -1.3848 -0.9111
  521MOL0     H68726   8.029  10.549   6.392 -0.5237  0.1411 -0.0557
  521MOL0     H68727   7.902  10.493   6.274  0.3686 -6.6174  1.9209
  521MOL0     H68728   8.083  10.572   6.091 -1.0442 -0.8968  1.6414
  521MOL0     H68729   8.139  10.664   6.232  0.5195 -0.6675  1.0986
  521MOL0     H68730   7.855  10.653   6.108  1.4292 -0.7532 -0.3359
  521MOL0     H68731   7.905  10.763   6.244  2.7998  1.9767  0.5110
  521MOL0     H68732   7.985  10.793   5.962 -0.9284 -0.9751  0.2927
  521MOL0     H68733   8.076  10.872   6.089 -1.3003  1.2835  0.2225
  521MOL0     H68734   7.837  11.140   6.214 -0.5484 -0.1933 -1.0316
  521MOL0     H68735   7.908  11.356   6.178  1.8459  1.9931  0.1531
  521MOL0     H68736   8.302  11.643   6.028 -1.9406 -0.7348 -0.0714
  521MOL0     H68737   8.342  11.870   6.012  0.9129 -3.0902 -3.9947
  521MOL0     H68738   8.030  12.165   6.123 -0.5340  0.4855  0.1003
  521MOL0     H68739   8.002  12.179   5.944 -0.3675 -0.4792 -0.5733
  521MOL0     H68740   8.062  12.397   6.035 -0.8644  0.1469  3.0774
  521MOL0     H68741   8.181  12.341   5.926 -2.0446  0.6526 -0.1215
  521MOL0     H68742   8.299  12.245   6.152  3.3109  1.2074 -0.1032
  521MOL0     H68743   8.197  12.348   6.238 -0.9088  2.6652 -0.9408
  521MOL0     H68744   8.304  12.546   6.095  2.5401  1.3488  0.0974
  521MOL0     H68745   8.400  12.462   6.212  0.5916  1.5755 -0.3215
  521MOL0     H68746   8.420  12.403   5.909  1.2709 -0.6307 -0.6532
  521MOL0     H68747   8.479  12.306   6.047 -0.3679  0.4508  1.3616
  521MOL0     H68748   8.650  12.455   5.937 -2.1501 -0.7864 -1.2421
  521MOL0     H68749   8.625  12.478   6.117 -1.7542  3.5193  1.5072
  521MOL0     H68750   8.497  12.638   5.880 -0.3056 -2.3262 -0.0678
  521MOL0     H68751   8.482  12.683   6.054 -0.6373  2.4304 -2.5887
  521MOL0     H68752   8.724  12.723   6.061  0.0146  0.2433  0.5103
  521MOL0     H68753   8.635  12.835   5.941  0.6103 -0.9173 -1.4424
  521MOL0     H68754   7.921  11.961   6.061 -1.1612  0.2549 -0.7765
  521MOL0     H68755   7.883  11.724   6.093  0.3988 -3.3998  0.2404
  521MOL0     H68756   8.065  11.231   5.798 -0.4099 -0.1368  1.2343
  521MOL0     H68757   7.968  10.993   5.840 -1.4882  1.4721 -2.1814
  521MOL0     H68758   8.684   9.720   5.819  0.0111  0.9813  3.2626
  521MOL0     H68759   8.932   9.676   5.801 -0.4539  1.2822  1.8605
  521MOL0     H68760   9.161   9.226   5.743  0.6352 -1.2889  0.8571
  521MOL0     H68761   9.351   9.112   5.654 -0.6079  0.6342 -0.2221
  521MOL0     H68762   9.540   9.039   5.615 -1.1869  0.1687  2.0046
  521MOL0     H68763   9.653   8.964   5.732  2.5597 -0.8524 -0.4326
  521MOL0     H68764   9.740   8.991   5.493  0.6876 -1.6568  1.5171
  521MOL0     H68765   9.752   9.164   5.529 -0.8974 -0.7789 -1.5343
  521MOL0     H68766   9.889   8.950   5.692  1.5856  1.2062  3.6094
  521MOL0     H68767   9.882   9.124   5.735 -3.0305  1.0570 -0.8847
  521MOL0     H68768  10.023   9.205   5.582 -0.3129  0.6824  4.6979
  521MOL0     H68769  10.095   9.071   5.649 -1.0448  2.5060  2.2207
  521MOL0     H68770  10.039   8.947   5.242 -1.4425  0.5970 -0.3637
  521MOL0     H68771   9.597   9.326   5.943 -0.2311  3.1686 -0.6769
  521MOL0     H68772   9.405   9.442   6.031 -0.8209  0.7314  0.4078
  522MOL0     O68773   3.491   7.392   0.469  0.3107  0.1195 -0.4871
  522MOL0     C68774   3.445   7.330   0.566  0.3026  0.4916 -0.0681
  522MOL0     O68775   3.437   7.386   0.692 -0.5941 -0.4451 -0.0478
  522MOL0     C68776   3.469   7.520   0.721 -0.5880  0.8577 -0.2422
  522MOL0     C68777   3.377   7.618   0.692  0.0221 -0.7686 -0.6554
  522MOL0     C68778   3.402   7.748   0.738  0.1993  0.1601 -0.7449
  522MOL0     C68779   3.513   7.780   0.819 -0.8013  0.1866  1.1834
  522MOL0     O68780   3.519   7.912   0.859  0.9080  0.4702 -0.2684
  522MOL0     C68781   3.563   7.932   0.990 -0.2340  0.4029  0.1022
  522MOL0     C68782   3.475   7.902   1.112  0.9162  0.0519 -0.0588
  522MOL0     C68783   3.378   8.023   1.145 -0.6358 -0.0558 -0.0221
  522MOL0     C68784   3.295   7.974   1.261  0.0908 -0.1766 -0.9752
  522MOL0     C68785   3.197   8.074   1.323  0.1672 -0.0200 -0.0288
  522MOL0     C68786   3.138   8.036   1.458  0.0189 -0.5096  0.1125
  522MOL0     C68787   3.249   8.034   1.564 -0.5471 -0.5476 -0.4372
  522MOL0     C68788   3.198   8.042   1.716  0.4435  0.4788  0.5770
  522MOL0     N68789   3.092   7.952   1.757  0.1938 -0.0795 -0.0247
  522MOL0     C68790   3.114   7.830   1.822 -0.9104 -0.9871  0.2448
  522MOL0     C68791   2.999   7.808   1.885  0.1320 -1.1708  0.0989
  522MOL0     C68792   2.961   7.712   1.993 -0.1761 -0.0938  0.0540
  522MOL0     C68793   3.002   7.577   1.938 -0.6355 -0.1618  0.4618
  522MOL0     C68794   2.943   7.465   2.023 -0.6938 -0.0950  0.4421
  522MOL0     C68795   2.952   7.327   1.955 -0.0681  0.2459 -0.7403
  522MOL0     O68796   3.084   7.274   1.953 -0.0498  0.5686 -0.6515
  522MOL0     C68797   3.094   7.137   1.929  0.6083 -0.6146  0.4207
  522MOL0     C68798   2.984   7.046   1.938 -0.5873  0.9421 -0.6918
  522MOL0     C68799   3.008   6.909   1.917 -0.1411  0.6274 -0.2880
  522MOL0     C68800   3.129   6.854   1.875 -0.7404  0.5109  0.3641
  522MOL0     C68801   3.135   6.708   1.870 -0.8141  0.7948 -0.5971
  522MOL0     O68802   3.029   6.627   1.888 -0.3586  0.7852 -0.1850
  522MOL0     C68803   3.047   6.495   1.905 -0.4759  0.8186  0.4058
  522MOL0     C68804   3.044   6.414   1.780 -0.4002  0.3920  0.5400
  522MOL0     C68805   3.051   6.273   1.787  0.5274  0.2949  0.2034
  522MOL0     C68806   3.053   6.216   1.915  0.5593 -0.1243  0.3042
  522MOL0     O68807   3.047   6.079   1.933  0.3612  0.2402 -0.5113
  522MOL0     C68808   3.106   5.993   1.834  0.1764 -0.4227 -0.3102
  522MOL0     C68809   3.159   5.876   1.901 -0.1346 -0.7503 -0.4702
  522MOL0     C68810   3.259   5.793   1.818  0.5346  0.4205  0.6738
  522MOL0     C68811   3.387   5.765   1.893 -0.2891  0.0987 -0.0321
  522MOL0     C68812   3.475   5.682   1.798  0.6982  0.3912 -1.0724
  522MOL0     C68813   3.625   5.707   1.845 -0.4101  0.5194 -1.6411
  522MOL0     C68814   3.646   5.610   1.972 -0.1100  0.2457  0.8985
  522MOL0     C68815   3.792   5.617   2.021 -0.5554  0.7704  0.6332
  522MOL0    Cl68816   3.907   5.543   1.909 -0.2055  0.6075  0.3108
  522MOL0     C68817   3.044   6.298   2.035 -0.7836  0.9983  0.1993
  522MOL0     C68818   3.051   6.440   2.027  0.0072  0.0203  0.5094
  522MOL0     O68819   3.249   6.666   1.841  0.5522 -0.4301 -0.0922
  522MOL0     C68820   3.242   6.946   1.866 -0.4383  0.2439  0.1352
  522MOL0     C68821   3.219   7.084   1.893  0.3685 -0.2444  0.0452
  522MOL0     N68822   2.902   7.899   1.848  0.7028 -0.0704  0.0395
  522MOL0     N68823   2.960   7.984   1.773  0.2793  1.0022 -0.1148
  522MOL0     C68824   3.608   7.679   0.835 -0.0116  0.8470 -1.1421
  522MOL0     C68825   3.587   7.551   0.794 -0.0058 -0.7850 -0.4348
  522MOL0     C68826   3.399   7.186   0.543 -0.3411 -0.8138 -0.3928
  522MOL0     C68827   3.366   7.133   0.419 -0.3463 -0.6876  0.2456
  522MOL0     C68828   3.347   6.996   0.416 -1.2598  0.6244  0.5253
  522MOL0     C68829   3.346   6.913   0.533 -0.0589  0.9602 -0.0075
  522MOL0     O68830   3.302   6.780   0.535 -0.8329 -0.1005  0.5140
  522MOL0     C68831   3.298   6.716   0.405  0.1884 -0.0734 -0.1302
  522MOL0     C68832   3.447   6.683   0.365 -0.1569 -1.0946 -0.0635
  522MOL0     C68833   3.523   6.616   0.480  0.9467  0.6038  1.0145
  522MOL0     C68834   3.456   6.483   0.516  0.0768  0.1915 -0.8503
  522MOL0     C68835   3.562   6.392   0.566 -0.6081  0.1557 -0.6230
  522MOL0     C68836   3.629   6.296   0.595  0.7884 -0.4350 -0.1189
  522MOL0     C68837   3.373   6.968   0.660 -0.6373 -0.3188 -0.3025
  522MOL0     C68838   3.411   7.104   0.656  0.0413 -1.6492  0.0487
  522MOL0     H68839   3.279   7.594   0.653 -2.0082  2.4648  1.8469
  522MOL0     H68840   3.328   7.824   0.716 -1.0348 -0.5251  0.8017
  522MOL0     H68841   3.607   8.032   0.992 -1.2575  0.8759 -0.3556
  522MOL0     H68842   3.648   7.863   0.991 -0.4621  0.0924 -0.9848
  522MOL0     H68843   3.536   7.882   1.200 -1.0808 -1.5994  1.0492
  522MOL0     H68844   3.422   7.807   1.096  1.3222  0.0055 -1.2747
  522MOL0     H68845   3.309   8.031   1.060 -0.4435 -1.3025 -0.3221
  522MOL0     H68846   3.426   8.117   1.172 -0.4852 -0.4104  0.9916
  522MOL0     H68847   3.239   7.886   1.228 -0.6067 -0.3526  0.5716
  522MOL0     H68848   3.368   7.940   1.334 -0.2684 -1.0603 -1.0157
  522MOL0     H68849   3.112   8.087   1.256 -1.3635 -1.1383  1.6071
  522MOL0     H68850   3.238   8.174   1.338 -1.7431  0.4736  2.3969
  522MOL0     H68851   3.085   7.940   1.453  0.0948 -0.7038  2.3464
  522MOL0     H68852   3.069   8.116   1.485 -0.9326 -1.0399 -0.6764
  522MOL0     H68853   3.314   7.949   1.544 -0.9824 -1.0674  0.3274
  522MOL0     H68854   3.320   8.118   1.556  3.3239 -3.6789 -2.1384
  522MOL0     H68855   3.155   8.142   1.724  0.9640  0.5768  2.7720
  522MOL0     H68856   3.287   8.036   1.780  0.1647 -0.3458  0.8977
  522MOL0     H68857   3.207   7.785   1.856 -0.1058  0.3459 -0.0931
  522MOL0     H68858   2.854   7.726   2.012 -0.1713  1.6873 -1.1271
  522MOL0     H68859   3.017   7.735   2.085  1.6293  0.4156 -1.1211
  522MOL0     H68860   3.110   7.564   1.929 -0.4324 -0.1321  2.4777
  522MOL0     H68861   2.968   7.570   1.834 -1.8543  1.6652  0.6839
  522MOL0     H68862   3.002   7.471   2.115 -2.3883  2.9056  1.4765
  522MOL0     H68863   2.840   7.496   2.043  0.2895  2.0072  2.7620
  522MOL0     H68864   2.926   7.331   1.849 -0.7902 -3.6959 -0.8680
  522MOL0     H68865   2.882   7.265   2.013 -1.9256  0.7891 -2.2928
  522MOL0     H68866   2.881   7.073   1.959  0.1464  2.3001  1.5011
  522MOL0     H68867   2.924   6.854   1.958  0.9467 -1.7404 -1.0542
  522MOL0     H68868   3.032   6.466   1.686 -2.4564  1.1994  1.1846
  522MOL0     H68869   3.043   6.214   1.696 -1.2077  0.4647  0.2027
  522MOL0     H68870   3.179   6.050   1.776 -3.4071  3.7816 -1.2589
  522MOL0     H68871   3.028   5.958   1.767  1.5764 -0.2472 -2.1188
  522MOL0     H68872   3.075   5.812   1.931  1.1635 -2.9673 -1.3290
  522MOL0     H68873   3.203   5.911   1.995 -1.4977  6.3866 -1.8910
  522MOL0     H68874   3.280   5.846   1.725 -2.2920 -0.9340 -0.8596
  522MOL0     H68875   3.210   5.697   1.796  1.4647  0.6853 -3.2922
  522MOL0     H68876   3.433   5.859   1.925 -0.1551 -0.1490  0.5190
  522MOL0     H68877   3.357   5.712   1.984  1.1433 -0.1396  0.3184
  522MOL0     H68878   3.472   5.720   1.696 -2.3141 -0.7322 -1.5012
  522MOL0     H68879   3.438   5.579   1.803 -2.5196  1.4984  0.1203
  522MOL0     H68880   3.635   5.813   1.869 -2.7131  0.7115 -1.2272
  522MOL0     H68881   3.703   5.687   1.771  0.7544 -2.8263  0.2973
  522MOL0     H68882   3.575   5.643   2.048 -0.8685 -1.7863  1.1228
  522MOL0     H68883   3.634   5.509   1.932  1.5290  1.0643 -1.9400
  522MOL0     H68884   3.808   5.555   2.110  0.0094  1.2147  0.8534
  522MOL0     H68885   3.839   5.714   2.043  0.8739 -0.1158  1.6643
  522MOL0     H68886   3.047   6.251   2.133 -3.4187  2.0578  0.8914
  522MOL0     H68887   3.061   6.510   2.109  2.2355 -0.7206  0.9234
  522MOL0     H68888   3.337   6.901   1.836 -1.6240 -1.3932 -1.3582
  522MOL0     H68889   3.296   7.160   1.883  0.4309 -0.3254 -0.0918
  522MOL0     H68890   3.701   7.686   0.890  0.8667 -2.8999 -1.8918
  522MOL0     H68891   3.669   7.485   0.820  2.3453  1.9103 -0.5069
  522MOL0     H68892   3.353   7.188   0.327  1.4108  0.8941  0.8798
  522MOL0     H68893   3.315   6.963   0.318  2.3330  0.8793 -0.9083
  522MOL0     H68894   3.247   6.782   0.335  0.0655 -1.3637 -1.3006
  522MOL0     H68895   3.237   6.625   0.405 -0.3902  0.1124 -4.8726
  522MOL0     H68896   3.434   6.638   0.266 -0.0123 -2.0453  0.3406
  522MOL0     H68897   3.502   6.776   0.344 -1.0643 -1.3378 -4.6567
  522MOL0     H68898   3.534   6.689   0.562 -1.6118  2.6741 -0.3313
  522MOL0     H68899   3.616   6.589   0.430 -0.4608 -0.4378 -1.1882
  522MOL0     H68900   3.376   6.512   0.585 -1.5420 -1.7004 -1.8157
  522MOL0     H68901   3.420   6.426   0.429 -2.4524 -4.5260  2.7646
  522MOL0     H68902   3.683   6.207   0.622 -1.4526 -1.7333  0.3253
  522MOL0     H68903   3.365   6.917   0.755 -0.6426  1.8465  0.9355
  522MOL0     H68904   3.442   7.158   0.744  0.5754 -2.3597  0.3050
  523MOL0     O68905   9.300   9.332   8.041 -0.2562  0.8985 -0.2825
  523MOL0     C68906   9.189   9.292   8.069 -0.8625  0.6105 -0.0866
  523MOL0     O68907   9.082   9.375   8.097 -0.1594 -0.7960  0.4454
  523MOL0     C68908   9.094   9.499   8.045 -0.3327 -0.1514 -0.1022
  523MOL0     C68909   9.144   9.608   8.125 -0.0640 -0.7490  0.9427
  523MOL0     C68910   9.163   9.736   8.051  0.6182  0.2694 -0.3856
  523MOL0     C68911   9.139   9.751   7.918 -0.1625 -0.2858  0.8054
  523MOL0     O68912   9.172   9.864   7.835 -0.2842  0.4026  0.2065
  523MOL0     C68913   9.201   9.987   7.907 -0.7486  0.2796 -0.3032
  523MOL0     C68914   9.263  10.072   7.803 -0.5514  0.0788  0.7274
  523MOL0     C68915   9.309  10.199   7.872  0.5338 -0.3867 -0.6737
  523MOL0     C68916   9.330  10.300   7.763 -0.4702 -0.0179 -0.3246
  523MOL0     C68917   9.339  10.450   7.790  0.5900 -0.5086  1.2805
  523MOL0     C68918   9.346  10.544   7.653 -0.6726  0.5554 -0.4168
  523MOL0     C68919   9.442  10.492   7.547 -0.6227  0.5432  0.3763
  523MOL0     C68920   9.485  10.598   7.446 -0.2681 -0.5801 -0.1144
  523MOL0     N68921   9.590  10.543   7.370 -1.1748 -0.3408  0.0683
  523MOL0     C68922   9.581  10.478   7.247  0.2333 -0.2161  0.0126
  523MOL0     C68923   9.706  10.442   7.223 -0.1655 -0.1922 -0.7067
  523MOL0     C68924   9.707  10.373   7.087 -0.6283 -0.6921  0.4887
  523MOL0     C68925   9.660  10.226   7.074  0.7303 -0.1311 -1.2495
  523MOL0     C68926   9.745  10.143   6.970 -0.4703  0.8473  0.4707
  523MOL0     C68927   9.730  10.189   6.820 -0.2597  0.7853  0.7580
  523MOL0     O68928   9.767  10.329   6.802  0.0229 -0.3200  0.3325
  523MOL0     C68929   9.817  10.368   6.683 -0.2056  0.5370  0.5055
  523MOL0     C68930   9.917  10.470   6.680 -0.1143  0.0951 -1.1722
  523MOL0     C68931   9.971  10.514   6.560 -0.5656 -0.0265 -0.2866
  523MOL0     C68932   9.941  10.435   6.443 -0.2811  0.5334  1.0428
  523MOL0     C68933  10.006  10.466   6.305 -0.4468  0.4723 -0.3067
  523MOL0     O68934  10.027  10.597   6.271  0.0247 -0.5806 -0.0650
  523MOL0     C68935  10.032  10.615   6.140 -0.3956 -0.9519  0.1067
  523MOL0     C68936  10.153  10.637   6.075 -0.1342  0.0952 -0.9854
  523MOL0     C68937  10.167  10.672   5.935  0.6222 -0.6810 -0.2446
  523MOL0     C68938  10.044  10.693   5.864  0.4381  0.8331  0.1514
  523MOL0     O68939  10.037  10.722   5.732 -0.6527 -0.1636 -0.5253
  523MOL0     C68940  10.150  10.762   5.660  0.2544  0.7988  0.4143
  523MOL0     C68941  10.121  10.764   5.509  0.4290  0.4109 -0.7436
  523MOL0     C68942  10.004  10.849   5.480  1.0877  0.2120  0.1926
  523MOL0     C68943   9.972  10.822   5.333  0.4270  1.3667 -0.2710
  523MOL0     C68944   9.890  10.927   5.266  0.0953  0.1172 -0.0931
  523MOL0     C68945   9.834  10.894   5.130  0.1997  0.3383  0.6460
  523MOL0     C68946   9.918  10.944   5.008  0.5750 -0.3279  0.6230
  523MOL0     C68947   9.859  10.887   4.874 -0.7444 -0.2229 -0.0957
  523MOL0    Cl68948   9.955  10.942   4.724  0.1699  0.0587  0.1553
  523MOL0     C68949   9.923  10.677   5.926 -0.1423  0.6230 -0.0800
  523MOL0     C68950   9.919  10.642   6.065  0.6429  0.2316  0.8817
  523MOL0     O68951  10.033  10.364   6.231 -0.1128 -0.2710 -0.5141
  523MOL0     C68952   9.859  10.327   6.441 -0.3077  0.0166  0.0651
  523MOL0     C68953   9.793  10.305   6.560  0.1601 -0.3230 -0.3754
  523MOL0     N68954   9.786  10.471   7.334  0.0078 -0.3418 -0.5021
  523MOL0     N68955   9.720  10.539   7.420 -0.6443  0.1743  0.6710
  523MOL0     C68956   9.083   9.644   7.849 -0.3995 -0.7927  0.6032
  523MOL0     C68957   9.053   9.528   7.916 -0.4013 -0.7515 -0.1721
  523MOL0     C68958   9.175   9.142   8.082 -0.5906  0.2634  0.6674
  523MOL0     C68959   9.262   9.046   8.035 -0.4124  0.2586  0.6181
  523MOL0     C68960   9.231   8.908   8.050 -0.4021 -0.3600 -0.4378
  523MOL0     C68961   9.105   8.862   8.079 -0.0157  0.3506  0.2976
  523MOL0     O68962   9.091   8.719   8.076 -0.3569 -0.8871  1.1190
  523MOL0     C68963   8.968   8.676   8.137 -0.6339  0.3680 -0.8266
  523MOL0     C68964   8.974   8.668   8.285  0.0208 -0.5393 -1.0025
  523MOL0     C68965   9.010   8.528   8.345  0.4819 -0.3306 -0.4643
  523MOL0     C68966   9.047   8.544   8.500 -0.0190 -0.8695  0.5644
  523MOL0     C68967   9.171   8.615   8.522 -0.0804  1.0599  0.4305
  523MOL0     C68968   9.290   8.646   8.555  0.1828  0.5485  0.5110
  523MOL0     C68969   9.023   8.956   8.140 -0.0108 -0.5457 -0.4636
  523MOL0     C68970   9.054   9.101   8.136 -0.0553  0.1981 -0.0262
  523MOL0     H68971   9.157   9.600   8.232 -1.9605 -2.7169  1.1118
  523MOL0     H68972   9.211   9.811   8.112  0.5190  1.5057 -1.7767
  523MOL0     H68973   9.275   9.966   7.984 -1.2651 -0.0638  0.1024
  523MOL0     H68974   9.117  10.035   7.959  0.5700  1.6963  0.6053
  523MOL0     H68975   9.195  10.085   7.718  0.6429  0.0740 -0.2544
  523MOL0     H68976   9.345  10.012   7.764  0.0096  1.6099 -0.5251
  523MOL0     H68977   9.395  10.171   7.932 -0.5604 -1.9079  0.2434
  523MOL0     H68978   9.241  10.245   7.945  0.2920 -1.2005 -0.3771
  523MOL0     H68979   9.421  10.274   7.709  0.1446  0.0634  0.6547
  523MOL0     H68980   9.254  10.295   7.684  0.2440 -1.4649 -0.9495
  523MOL0     H68981   9.428  10.480   7.847 -1.5498  0.7912  4.1902
  523MOL0     H68982   9.259  10.474   7.860  1.6052 -0.4088  2.4380
  523MOL0     H68983   9.370  10.643   7.693 -0.9025  0.9517 -1.2626
  523MOL0     H68984   9.251  10.538   7.600  0.8699 -1.7174 -3.1641
  523MOL0     H68985   9.532  10.439   7.578 -1.2731 -1.0043 -0.2742
  523MOL0     H68986   9.389  10.417   7.488 -1.5111  0.6054  1.0736
  523MOL0     H68987   9.521  10.687   7.498  1.9895  1.8165 -5.1087
  523MOL0     H68988   9.403  10.623   7.379 -0.6372 -0.5689  0.3335
  523MOL0     H68989   9.502  10.475   7.172  2.4015  0.1316 -2.4501
  523MOL0     H68990   9.814  10.363   7.068 -0.8644  1.0838 -2.3882
  523MOL0     H68991   9.673  10.439   7.007 -0.0418 -3.4377 -2.2144
  523MOL0     H68992   9.554  10.235   7.052  0.6089  2.6418  0.0040
  523MOL0     H68993   9.664  10.177   7.172 -1.8591 -2.8090 -2.3509
  523MOL0     H68994   9.846  10.127   7.010  0.8671  0.9195 -2.6202
  523MOL0     H68995   9.701  10.044   6.958  3.6083 -0.9185 -2.3350
  523MOL0     H68996   9.627  10.168   6.793  0.7158 -1.9966 -1.2329
  523MOL0     H68997   9.797  10.124   6.763 -1.3983 -0.7352  1.0914
  523MOL0     H68998   9.947  10.517   6.774 -1.2316  1.0403 -1.2676
  523MOL0     H68999  10.045  10.593   6.563  0.0935 -0.5728  3.4427
  523MOL0     H69000  10.231  10.628   6.150 -3.0995 -0.8919  2.2423
  523MOL0     H69001  10.263  10.694   5.890 -0.3982  3.3886 -0.9007
  523MOL0     H69002  10.237  10.703   5.688 -0.1847  1.0526  2.4804
  523MOL0     H69003  10.181  10.863   5.687 -2.0939  1.3543  1.2626
  523MOL0     H69004  10.119  10.667   5.458  2.0297  0.3213 -0.6727
  523MOL0     H69005  10.209  10.810   5.463 -0.8426  1.1421 -2.5418
  523MOL0     H69006  10.022  10.956   5.491  2.2085  0.1234 -0.5814
  523MOL0     H69007   9.911  10.830   5.536 -0.4052 -1.1884 -2.5341
  523MOL0     H69008  10.054  10.810   5.261 -0.6718  0.9111 -1.4757
  523MOL0     H69009   9.911  10.731   5.338 -0.4728  1.9393 -0.5966
  523MOL0     H69010   9.942  11.023   5.266 -1.7310  1.1821 -1.5011
  523MOL0     H69011   9.800  10.945   5.325 -0.2526  0.1269 -0.6207
  523MOL0     H69012   9.733  10.934   5.118  0.6847  1.0912 -1.3937
  523MOL0     H69013   9.822  10.787   5.111  0.2501  0.5916 -0.9372
  523MOL0     H69014   9.921  11.053   4.998  2.1030 -0.4780 -1.0126
  523MOL0     H69015  10.022  10.912   5.024  0.9873  1.4984  1.8383
  523MOL0     H69016   9.757  10.928   4.873 -1.1237 -1.1026  0.9840
  523MOL0     H69017   9.850  10.778   4.881 -0.2189 -0.1711  2.5810
  523MOL0     H69018   9.836  10.709   5.870 -0.0856 -0.5589 -0.8744
  523MOL0     H69019   9.823  10.656   6.114  0.2568 -2.0439  0.8779
  523MOL0     H69020   9.823  10.275   6.352 -2.8783  1.0654  0.4019
  523MOL0     H69021   9.710  10.235   6.562  1.1769 -1.5509  0.1606
  523MOL0     H69022   9.065   9.646   7.741  3.2046 -0.1304 -0.1080
  523MOL0     H69023   9.029   9.441   7.857  1.2492 -0.9429 -0.6188
  523MOL0     H69024   9.362   9.067   7.999  0.0653 -0.9989  1.1213
  523MOL0     H69025   9.310   8.838   8.025  0.5242  0.0642  1.1814
  523MOL0     H69026   8.927   8.584   8.095 -0.2788  0.6319 -1.7888
  523MOL0     H69027   8.892   8.749   8.107  0.2910  1.1107 -1.4224
  523MOL0     H69028   9.040   8.749   8.320 -2.4794  1.4071 -0.5255
  523MOL0     H69029   8.873   8.687   8.321 -1.2515 -3.4569 -2.7318
  523MOL0     H69030   9.092   8.479   8.292  1.2898  1.2423 -0.7284
  523MOL0     H69031   8.920   8.465   8.341  0.5166 -0.4027 -0.1267
  523MOL0     H69032   8.962   8.586   8.555  0.2526 -2.5799  2.4355
  523MOL0     H69033   9.033   8.443   8.541 -3.4247 -0.8834 -0.3342
  523MOL0     H69034   9.393   8.654   8.584 -0.5431  1.9547  2.9882
  523MOL0     H69035   8.926   8.935   8.185 -0.8845  0.1238 -1.9766
  523MOL0     H69036   8.979   9.167   8.180 -1.7943 -1.2016 -0.7627
  524MOL0     O69037  10.899   7.910   3.466  0.9601  0.4107  0.1097
  524MOL0     C69038  10.885   7.887   3.346 -0.3416  0.4811  0.0342
  524MOL0     O69039  10.954   7.799   3.273 -0.1123  0.0996  0.7308
  524MOL0     C69040  11.038   7.717   3.341  0.1912 -0.5641 -0.0017
  524MOL0     C69041  10.994   7.636   3.449  0.4902  0.1657  0.2081
  524MOL0     C69042  11.082   7.557   3.521  0.5349  0.2340 -0.3904
  524MOL0     C69043  11.225   7.559   3.496  0.3139 -0.0362  0.2179
  524MOL0     O69044  11.312   7.497   3.575 -0.4205 -0.4458 -0.0648
  524MOL0     C69045  11.399   7.571   3.658 -0.7149  1.1686 -0.4219
  524MOL0     C69046  11.476   7.470   3.761 -0.6321 -0.1365 -0.3310
  524MOL0     C69047  11.367   7.426   3.858 -0.9494  0.1152  0.7708
  524MOL0     C69048  11.431   7.362   3.982 -0.8281  0.2528 -1.2883
  524MOL0     C69049  11.423   7.213   3.962  0.1595  0.1233  0.1310
  524MOL0     C69050  11.279   7.157   3.971 -0.9296  0.9097 -0.0709
  524MOL0     C69051  11.279   7.000   3.932 -0.4928 -0.4794  0.2063
  524MOL0     C69052  11.181   6.910   4.008  0.5047 -0.4110  0.0695
  524MOL0     N69053  11.040   6.962   4.016 -0.9367 -0.2362 -0.2455
  524MOL0     C69054  10.974   6.999   3.904  0.0877 -0.4427  0.0120
  524MOL0     C69055  10.872   7.070   3.941 -0.3636  0.0106 -0.4000
  524MOL0     C69056  10.783   7.165   3.856  0.2163 -0.4455 -0.8429
  524MOL0     C69057  10.657   7.092   3.801 -0.3073  0.7485  0.7097
  524MOL0     C69058  10.558   7.044   3.899 -0.5210 -0.5060  0.5292
  524MOL0     C69059  10.425   6.996   3.829 -0.6007  0.2263 -0.2550
  524MOL0     O69060  10.450   6.877   3.756  0.0191  0.5970  0.2397
  524MOL0     C69061  10.432   6.750   3.808  0.0215 -0.2312 -0.4161
  524MOL0     C69062  10.448   6.637   3.724 -0.5289 -0.1647  1.5151
  524MOL0     C69063  10.431   6.511   3.768  0.2189  1.3963 -0.3864
  524MOL0     C69064  10.405   6.484   3.901 -0.2992 -0.5713 -0.7847
  524MOL0     C69065  10.381   6.348   3.951 -0.1588 -0.8424  0.0300
  524MOL0     O69066  10.345   6.260   3.860  0.1077  0.1418 -0.0423
  524MOL0     C69067  10.281   6.145   3.900 -0.3456  0.5731 -0.8259
  524MOL0     C69068  10.191   6.127   4.011 -0.2016  0.2300  0.8428
  524MOL0     C69069  10.127   6.004   4.044  0.0865  1.3608  0.2619
  524MOL0     C69070  10.157   5.884   3.967  0.4014 -1.5972  0.6442
  524MOL0     O69071  10.094   5.765   3.984 -0.7767 -0.1226  0.0880
  524MOL0     C69072   9.968   5.751   4.049 -0.1301 -1.1410 -0.2503
  524MOL0     C69073   9.841   5.791   3.967  0.1765 -0.5609  0.7544
  524MOL0     C69074   9.840   5.946   3.927  0.1743 -0.1017  0.0491
  524MOL0     C69075   9.696   5.987   3.898 -0.5490  0.9833  0.4191
  524MOL0     C69076   9.698   6.138   3.846 -0.2500 -0.0007 -0.2585
  524MOL0     C69077   9.679   6.237   3.954  0.5006  0.0046 -1.1534
  524MOL0     C69078   9.701   6.385   3.898 -0.5078  0.1209 -0.4698
  524MOL0     C69079   9.599   6.472   3.967  0.6148 -0.4724 -0.0831
  524MOL0    Cl69080   9.585   6.631   3.874  0.2682  0.6694  0.0170
  524MOL0     C69081  10.250   5.902   3.859  1.0836  1.0075 -0.6113
  524MOL0     C69082  10.302   6.026   3.824 -0.2700 -0.5489  0.2110
  524MOL0     O69083  10.419   6.318   4.065 -0.0377  0.4872 -0.1705
  524MOL0     C69084  10.398   6.588   3.992  0.1184 -0.4825 -0.4973
  524MOL0     C69085  10.408   6.721   3.947  0.4826 -0.5236 -0.2204
  524MOL0     N69086  10.876   7.087   4.077 -0.6955  0.9335 -0.3785
  524MOL0     N69087  10.976   7.019   4.126 -0.4025  0.0557  0.0690
  524MOL0     C69088  11.265   7.647   3.393 -0.1622  0.3073 -0.6090
  524MOL0     C69089  11.168   7.720   3.314  0.1629  0.1895 -0.2189
  524MOL0     C69090  10.765   7.954   3.288 -0.3918 -0.2916 -1.6414
  524MOL0     C69091  10.701   8.055   3.375 -0.4691 -0.0468 -0.1248
  524MOL0     C69092  10.597   8.134   3.319  0.3687 -0.5102 -0.2207
  524MOL0     C69093  10.558   8.120   3.192  0.0042 -0.1352 -0.0241
  524MOL0     O69094  10.452   8.189   3.143 -0.0287 -0.0365 -0.4575
  524MOL0     C69095  10.389   8.293   3.222  0.4603  0.8041 -0.7849
  524MOL0     C69096  10.281   8.235   3.321 -0.7339 -0.1027  0.3442
  524MOL0     C69097  10.175   8.337   3.367 -0.6211 -0.2141 -0.1975
  524MOL0     C69098  10.061   8.354   3.267 -0.0689  0.5162 -0.6824
  524MOL0     C69099   9.995   8.478   3.275 -0.0150 -0.7978  0.7904
  524MOL0     C69100   9.936   8.589   3.291 -0.2695  0.3771 -0.0203
  524MOL0     C69101  10.620   8.029   3.113  0.7653  0.2530  0.0864
  524MOL0     C69102  10.727   7.951   3.157 -0.1604  0.4885 -0.7841
  524MOL0     H69103  10.894   7.638   3.492  0.3079 -0.8112 -0.1338
  524MOL0     H69104  11.037   7.504   3.604 -2.6481  5.1358  1.5087
  524MOL0     H69105  11.340   7.645   3.713  0.3788  3.4362 -2.0943
  524MOL0     H69106  11.474   7.625   3.599  2.4747 -0.8545  1.5093
  524MOL0     H69107  11.562   7.498   3.823 -2.7447  2.2346  1.7539
  524MOL0     H69108  11.509   7.379   3.711  2.8139  0.5743  0.4042
  524MOL0     H69109  11.291   7.367   3.805 -1.7685  0.3470  1.6663
  524MOL0     H69110  11.319   7.522   3.879 -0.7932  0.2560  0.4939
  524MOL0     H69111  11.533   7.398   3.996 -0.7971  0.7997 -2.7467
  524MOL0     H69112  11.373   7.387   4.072 -0.3937  0.0717 -0.9524
  524MOL0     H69113  11.484   7.154   4.030  2.5570  1.4368 -0.7439
  524MOL0     H69114  11.456   7.187   3.861  0.9126 -5.7541  1.5347
  524MOL0     H69115  11.206   7.214   3.913 -0.7247  0.9886 -0.2530
  524MOL0     H69116  11.233   7.165   4.070 -0.5288  0.1722  0.1800
  524MOL0     H69117  11.264   7.008   3.824  3.8914  3.7729 -0.4579
  524MOL0     H69118  11.382   6.965   3.945 -0.2080  0.7067  1.2888
  524MOL0     H69119  11.209   6.913   4.114  3.0713 -2.0277 -0.4507
  524MOL0     H69120  11.187   6.807   3.971  3.0707  0.0796 -1.0542
  524MOL0     H69121  11.001   6.974   3.802  1.3722 -3.5863  0.9943
  524MOL0     H69122  10.826   7.218   3.771 -4.0173 -2.5708 -4.7059
  524MOL0     H69123  10.758   7.250   3.921 -0.4893  0.1173 -1.8344
  524MOL0     H69124  10.685   7.018   3.725 -4.0632 -0.5345  0.4018
  524MOL0     H69125  10.598   7.162   3.742 -2.7036 -0.2834  1.7782
  524MOL0     H69126  10.608   6.969   3.961  1.6032 -1.9897 -2.6608
  524MOL0     H69127  10.534   7.128   3.965  2.4182 -0.4689  1.6991
  524MOL0     H69128  10.370   7.073   3.774  1.4838  1.3226 -0.9544
  524MOL0     H69129  10.354   6.983   3.910 -0.6103 -0.3408 -0.3454
  524MOL0     H69130  10.487   6.666   3.627  0.6277  0.6349  2.2103
  524MOL0     H69131  10.437   6.437   3.689  1.8505  2.2852 -1.1284
  524MOL0     H69132  10.164   6.204   4.082 -1.2314  0.4421  0.2525
  524MOL0     H69133  10.063   5.994   4.131 -1.1585 -5.2420 -0.8081
  524MOL0     H69134   9.969   5.807   4.143  1.1483  2.1199 -2.0660
  524MOL0     H69135   9.959   5.645   4.077  0.1236 -0.7474  1.4409
  524MOL0     H69136   9.748   5.761   4.016 -1.3867  0.1115 -1.6358
  524MOL0     H69137   9.844   5.722   3.881  1.5508 -0.8097  0.9832
  524MOL0     H69138   9.913   5.977   3.851  1.5899  1.9315  2.0948
  524MOL0     H69139   9.877   6.005   4.012  0.4874 -0.1162 -0.0749
  524MOL0     H69140   9.667   5.930   3.810 -1.4025  1.8981  0.0929
  524MOL0     H69141   9.642   5.966   3.991  1.9337 -1.2947  1.5001
  524MOL0     H69142   9.618   6.151   3.772  0.7183  2.9536 -0.9300
  524MOL0     H69143   9.785   6.170   3.787  0.3302  0.3564  0.7738
  524MOL0     H69144   9.757   6.216   4.028  0.2458  1.1210 -0.5355
  524MOL0     H69145   9.585   6.214   4.005  0.4627  0.1835 -1.1405
  524MOL0     H69146   9.797   6.422   3.934 -1.8609  2.0590  1.4340
  524MOL0     H69147   9.706   6.400   3.790 -3.2718  1.2435 -0.5252
  524MOL0     H69148   9.604   6.490   4.075  2.9176  1.5483 -0.4226
  524MOL0     H69149   9.501   6.425   3.954  0.7900 -0.1888 -2.9441
  524MOL0     H69150  10.262   5.814   3.796  1.9396  0.4613  0.2683
  524MOL0     H69151  10.361   6.029   3.733 -1.3583  0.7081 -0.4992
  524MOL0     H69152  10.381   6.580   4.099 -0.7040  0.3543 -0.5569
  524MOL0     H69153  10.393   6.795   4.025 -2.7362 -3.4566  2.2574
  524MOL0     H69154  11.370   7.654   3.369 -0.0071  0.6667  0.1501
  524MOL0     H69155  11.208   7.789   3.240  0.3500  1.4092  0.9770
  524MOL0     H69156  10.739   8.075   3.475  1.0037  0.2870 -0.7199
  524MOL0     H69157  10.545   8.204   3.383  2.1387  0.0815  0.6497
  524MOL0     H69158  10.351   8.370   3.155  3.5871  3.2817  0.0278
  524MOL0     H69159  10.455   8.350   3.289  1.4530 -0.5108 -0.5897
  524MOL0     H69160  10.238   8.155   3.258  1.3616 -0.8574 -0.2279
  524MOL0     H69161  10.331   8.186   3.405  0.1470 -1.5810 -0.9703
  524MOL0     H69162  10.228   8.433   3.373 -1.8857  0.6009 -1.4149
  524MOL0     H69163  10.134   8.329   3.468 -0.8191 -1.2281 -0.3426
  524MOL0     H69164  10.111   8.352   3.169  1.0564  2.2520 -0.1860
  524MOL0     H69165   9.990   8.271   3.270  0.4308  0.1159  1.0884
  524MOL0     H69166   9.884   8.676   3.326 -0.8724 -0.4881  1.3293
  524MOL0     H69167  10.585   8.012   3.012 -0.5266  3.0252 -0.0116
  524MOL0     H69168  10.785   7.879   3.100  1.9363  0.6358  0.9882
  525MOL0     O69169   2.692   5.359   8.128  0.0107  0.3704 -0.5623
  525MOL0     C69170   2.617   5.421   8.208 -0.5311  0.5324  0.4324
  525MOL0     O69171   2.604   5.553   8.220 -0.3235 -0.5119  0.3729
  525MOL0     C69172   2.667   5.636   8.131  0.0746 -0.5515 -0.3141
  525MOL0     C69173   2.798   5.617   8.071  0.1875  0.5173  0.3705
  525MOL0     C69174   2.839   5.700   7.965 -0.5304  0.4371  0.1757
  525MOL0     C69175   2.769   5.819   7.935  0.5595  0.3519 -0.4579
  525MOL0     O69176   2.809   5.901   7.840 -0.9787 -0.3327  0.3218
  525MOL0     C69177   2.855   5.843   7.722 -1.0623 -0.8238  0.5171
  525MOL0     C69178   2.749   5.759   7.650 -0.8607  0.2103  0.0272
  525MOL0     C69179   2.795   5.683   7.521  0.2022  0.3649  0.1135
  525MOL0     C69180   2.908   5.580   7.525 -0.3892  0.3701 -0.7215
  525MOL0     C69181   2.960   5.526   7.389 -0.3539 -0.0839 -0.6271
  525MOL0     C69182   3.048   5.635   7.320 -0.2241 -0.6811  0.2738
  525MOL0     C69183   3.095   5.623   7.177 -1.3546 -0.7404 -0.1935
  525MOL0     C69184   3.188   5.746   7.150  0.2276 -0.1353  0.0904
  525MOL0     N69185   3.225   5.742   7.009  0.0555  0.2866  0.0530
  525MOL0     C69186   3.153   5.796   6.914 -0.0948 -0.0084  0.4913
  525MOL0     C69187   3.234   5.791   6.805  0.2208  0.8935 -0.0936
  525MOL0     C69188   3.188   5.810   6.662 -1.1407  0.2946  0.2728
  525MOL0     C69189   3.147   5.683   6.592 -0.4248  0.4058 -0.1928
  525MOL0     C69190   3.275   5.601   6.560  0.1873  0.0511 -0.3988
  525MOL0     C69191   3.238   5.490   6.459  0.3556 -0.6016  0.7461
  525MOL0     O69192   3.340   5.399   6.439 -0.6489  1.1886 -0.6902
  525MOL0     C69193   3.446   5.420   6.353 -0.1956 -0.6911 -0.1242
  525MOL0     C69194   3.546   5.319   6.351  0.2871  0.2684 -0.0343
  525MOL0     C69195   3.652   5.340   6.258 -0.7198  0.2050  0.9389
  525MOL0     C69196   3.670   5.455   6.176 -0.6413 -0.3046  0.1283
  525MOL0     C69197   3.775   5.469   6.085  0.4677 -0.4928 -0.1563
  525MOL0     O69198   3.859   5.369   6.073  0.2646  0.6364 -0.1168
  525MOL0     C69199   3.947   5.357   5.974  0.0630  1.2770 -0.3632
  525MOL0     C69200   3.980   5.224   5.938  0.9579 -0.7094 -0.3333
  525MOL0     C69201   4.067   5.199   5.826 -0.1314 -0.4239 -0.6114
  525MOL0     C69202   4.121   5.308   5.757  0.1325  0.5105  0.0887
  525MOL0     O69203   4.210   5.273   5.655 -0.5591  0.0824  0.4693
  525MOL0     C69204   4.294   5.380   5.589 -0.2078 -0.7804 -1.4618
  525MOL0     C69205   4.363   5.326   5.472 -0.4865  0.4030  0.3546
  525MOL0     C69206   4.485   5.394   5.404  0.0046 -0.6023  0.3688
  525MOL0     C69207   4.500   5.341   5.259  0.9631 -0.2249  0.0676
  525MOL0     C69208   4.586   5.409   5.159 -0.3833 -0.2606  0.1153
  525MOL0     C69209   4.734   5.411   5.186  0.1016  0.0426 -0.5507
  525MOL0     C69210   4.784   5.280   5.237  0.3294  0.0756 -0.8423
  525MOL0     C69211   4.783   5.162   5.146 -0.0789 -0.7756  0.1206
  525MOL0    Cl69212   4.924   5.060   5.178 -0.3870  0.1851 -0.4224
  525MOL0     C69213   4.096   5.440   5.799 -0.0142  0.4859 -0.7595
  525MOL0     C69214   4.010   5.462   5.911 -0.4937 -0.0370  0.4349
  525MOL0     O69215   3.780   5.579   6.031 -0.6029 -0.2644 -0.6142
  525MOL0     C69216   3.579   5.554   6.196  0.3762  0.1334 -0.0220
  525MOL0     C69217   3.473   5.541   6.286  0.6359  0.1225 -0.1366
  525MOL0     N69218   3.357   5.729   6.837 -0.4725 -0.3514 -0.2062
  525MOL0     N69219   3.348   5.698   6.962 -0.6394  0.0130 -0.3483
  525MOL0     C69220   2.647   5.836   7.999  0.6992  0.0573  0.6205
  525MOL0     C69221   2.599   5.741   8.086  0.9091 -1.1603  0.7741
  525MOL0     C69222   2.556   5.343   8.315 -0.5826  0.2844  0.0041
  525MOL0     C69223   2.452   5.398   8.387 -0.0441 -0.6694  0.2735
  525MOL0     C69224   2.390   5.327   8.491 -0.8278  0.0978 -0.4098
  525MOL0     C69225   2.435   5.195   8.530 -0.1491  0.1837  0.2358
  525MOL0     O69226   2.360   5.118   8.621 -0.1978 -0.3087 -0.1056
  525MOL0     C69227   2.393   4.979   8.646  0.5342  0.1068 -0.3877
  525MOL0     C69228   2.285   4.920   8.731 -1.3732  0.7313  0.0064
  525MOL0     C69229   2.317   4.789   8.800 -0.2844 -1.2546  0.1695
  525MOL0     C69230   2.428   4.792   8.898 -0.3234  0.9578  0.9402
  525MOL0     C69231   2.452   4.663   8.976  0.1049 -0.1537 -0.3924
  525MOL0     C69232   2.491   4.557   9.025  0.1389  0.0143  0.1746
  525MOL0     C69233   2.546   5.141   8.460  0.1288 -0.1257  0.6700
  525MOL0     C69234   2.603   5.216   8.352  0.5524  0.3301 -0.0051
  525MOL0     H69235   2.862   5.530   8.081  2.0678  1.5859 -1.6013
  525MOL0     H69236   2.928   5.667   7.912 -1.6424 -1.8443 -0.3757
  525MOL0     H69237   2.941   5.780   7.745 -1.9939 -2.3604 -0.0547
  525MOL0     H69238   2.881   5.921   7.649 -1.1084 -0.3062  1.0494
  525MOL0     H69239   2.666   5.810   7.601  0.1997 -1.3618 -3.7456
  525MOL0     H69240   2.731   5.673   7.715  0.5341 -1.0203 -1.1461
  525MOL0     H69241   2.830   5.747   7.439  3.2455  1.8613  2.4102
  525MOL0     H69242   2.706   5.632   7.483  0.6830 -1.5238  1.3776
  525MOL0     H69243   2.984   5.625   7.590 -3.5267  1.9339  2.1883
  525MOL0     H69244   2.880   5.495   7.587 -1.4112  0.9631 -0.3388
  525MOL0     H69245   2.873   5.504   7.327  0.0217 -3.7014 -0.0608
  525MOL0     H69246   3.019   5.436   7.406  2.2727  1.5258 -0.6406
  525MOL0     H69247   3.135   5.660   7.381 -0.7796 -1.1301  1.2709
  525MOL0     H69248   2.994   5.730   7.321  0.1507 -0.2149 -4.1584
  525MOL0     H69249   3.146   5.526   7.166 -1.4610 -0.7694 -0.4410
  525MOL0     H69250   3.013   5.628   7.105 -0.2544  0.7864 -1.4007
  525MOL0     H69251   3.277   5.743   7.213  0.4367  1.3114 -0.1099
  525MOL0     H69252   3.126   5.834   7.169 -5.2152 -3.0878 -1.9170
  525MOL0     H69253   3.048   5.825   6.919 -0.1138 -0.1703  1.0916
  525MOL0     H69254   3.271   5.861   6.612 -1.8580  0.3243 -0.9253
  525MOL0     H69255   3.104   5.880   6.662 -3.5688 -2.4245  0.7048
  525MOL0     H69256   3.102   5.709   6.495  1.7006 -1.4689 -1.8082
  525MOL0     H69257   3.075   5.633   6.658 -2.9961  2.9452 -0.8522
  525MOL0     H69258   3.352   5.667   6.518  0.9200 -1.9536 -2.4021
  525MOL0     H69259   3.305   5.549   6.651 -0.0815  1.6091  0.6212
  525MOL0     H69260   3.207   5.534   6.363  1.3073 -2.1340 -0.3089
  525MOL0     H69261   3.145   5.439   6.488 -1.0958 -0.0152 -2.3678
  525MOL0     H69262   3.531   5.234   6.416 -3.5985  0.0839 -0.9552
  525MOL0     H69263   3.717   5.256   6.238 -3.7087 -1.7749 -1.4201
  525MOL0     H69264   3.927   5.139   5.980 -1.3524  1.7319  2.0181
  525MOL0     H69265   4.094   5.102   5.786 -1.0912 -0.8255 -0.3290
  525MOL0     H69266   4.368   5.423   5.657  1.1885 -4.0503 -0.6926
  525MOL0     H69267   4.227   5.461   5.559 -2.9392 -2.0869  0.6441
  525MOL0     H69268   4.283   5.300   5.402 -1.1731  0.4588  1.1172
  525MOL0     H69269   4.405   5.229   5.500 -1.1634 -0.2016 -0.6592
  525MOL0     H69270   4.580   5.374   5.454  0.8035 -0.3232 -0.9865
  525MOL0     H69271   4.470   5.502   5.407 -0.6721 -0.4945 -2.9219
  525MOL0     H69272   4.532   5.236   5.256 -1.2883 -0.9452 -2.0257
  525MOL0     H69273   4.395   5.341   5.228  0.7329  1.5850  0.7536
  525MOL0     H69274   4.554   5.513   5.149  4.7321  1.4916 -1.0398
  525MOL0     H69275   4.574   5.383   5.053  1.0321  0.1139 -0.1502
  525MOL0     H69276   4.748   5.495   5.255 -1.6635 -1.4582  1.7516
  525MOL0     H69277   4.800   5.444   5.105  1.5566  0.7193  0.8418
  525MOL0     H69278   4.883   5.310   5.274 -0.7194  2.7584  0.0210
  525MOL0     H69279   4.743   5.242   5.331 -1.0649  0.9475 -1.0843
  525MOL0     H69280   4.797   5.196   5.042  0.6713  3.6677  1.4445
  525MOL0     H69281   4.685   5.114   5.142 -1.8300  2.5318 -2.9533
  525MOL0     H69282   4.136   5.526   5.746 -1.4838  2.3982  1.0551
  525MOL0     H69283   3.986   5.565   5.935 -0.8217 -0.3601  1.5335
  525MOL0     H69284   3.580   5.644   6.136 -0.1201 -0.0524 -0.3172
  525MOL0     H69285   3.396   5.618   6.285  0.7520  0.3430 -3.4532
  525MOL0     H69286   2.589   5.919   7.960 -1.5806 -0.4906  2.5786
  525MOL0     H69287   2.498   5.729   8.124 -0.0928 -5.1605 -2.4736
  525MOL0     H69288   2.415   5.499   8.372 -0.3657 -0.7486  0.5148
  525MOL0     H69289   2.304   5.370   8.542 -1.1292  1.1586 -1.7494
  525MOL0     H69290   2.486   4.973   8.703  0.8882  1.4730 -0.7827
  525MOL0     H69291   2.401   4.933   8.547 -2.0780  0.7107 -0.9572
  525MOL0     H69292   2.259   4.997   8.805  0.1196  0.9068  0.3786
  525MOL0     H69293   2.195   4.909   8.670 -1.1195 -4.4207  0.1022
  525MOL0     H69294   2.351   4.723   8.720 -0.3614 -1.5934  0.4139
  525MOL0     H69295   2.227   4.748   8.846 -1.7128  3.1505  1.8427
  525MOL0     H69296   2.526   4.800   8.850 -1.0235 -0.1612 -0.7707
  525MOL0     H69297   2.409   4.880   8.960 -0.0809  0.5861  1.5435
  525MOL0     H69298   2.518   4.464   9.072  1.8436  0.3106 -0.1730
  525MOL0     H69299   2.580   5.041   8.484  2.5870  0.1519 -1.3791
  525MOL0     H69300   2.689   5.176   8.300 -1.5801  0.1416 -3.8317
  526MOL0     O69301   2.816   2.321   5.885  0.3343 -0.1356 -0.7060
  526MOL0     C69302   2.836   2.323   6.013 -0.7014 -1.0387 -0.4953
  526MOL0     O69303   2.744   2.359   6.111  0.4210 -0.3826 -0.1347
  526MOL0     C69304   2.627   2.397   6.062 -0.8809  0.8731  0.7685
  526MOL0     C69305   2.595   2.534   6.036 -0.8300 -0.1594  0.2923
  526MOL0     C69306   2.480   2.573   5.973  0.1299 -0.4131  0.2723
  526MOL0     C69307   2.389   2.472   5.933  0.1735  0.6516 -0.9236
  526MOL0     O69308   2.264   2.486   5.875  0.1113  0.1324 -0.8961
  526MOL0     C69309   2.231   2.615   5.825  0.0582 -0.6246 -1.0948
  526MOL0     C69310   2.148   2.692   5.920  0.7625 -0.0824  0.1848
  526MOL0     C69311   2.018   2.625   5.968 -0.3519 -0.2910  0.7784
  526MOL0     C69312   1.952   2.727   6.066 -1.2789 -0.9398 -0.6019
  526MOL0     C69313   1.893   2.853   6.002  0.4714 -0.0501 -1.0947
  526MOL0     C69314   1.776   2.914   6.084  0.4637  0.3837  0.2651
  526MOL0     C69315   1.713   3.050   6.055  0.0862  0.1708 -0.1207
  526MOL0     C69316   1.666   3.066   5.911  0.1828  0.5369  1.0734
  526MOL0     N69317   1.585   3.186   5.911  0.2233 -0.5462  0.1433
  526MOL0     C69318   1.444   3.199   5.925  0.0727  0.4823 -0.8449
  526MOL0     C69319   1.415   3.326   5.893  0.3426 -0.9189 -0.2156
  526MOL0     C69320   1.270   3.380   5.906  0.5555 -0.7985 -0.5171
  526MOL0     C69321   1.175   3.345   5.787 -0.1864 -0.3236 -0.1360
  526MOL0     C69322   1.033   3.384   5.786  0.1574 -0.2258  0.7570
  526MOL0     C69323   0.961   3.326   5.906  1.0794  0.1273 -0.7574
  526MOL0     O69324   0.841   3.386   5.908  0.5148 -0.5536  0.3025
  526MOL0     C69325   0.739   3.315   5.963  0.4778  0.1009  0.1397
  526MOL0     C69326   0.739   3.193   6.040  0.1943 -0.3813  0.0737
  526MOL0     C69327   0.630   3.126   6.074  0.0393 -0.4866 -0.0294
  526MOL0     C69328   0.507   3.184   6.047  0.6076  1.4985 -0.5426
  526MOL0     C69329   0.385   3.101   6.066  0.2172 -0.5132  1.1927
  526MOL0     O69330   0.367   3.020   6.174 -1.1063 -0.0118 -0.7547
  526MOL0     C69331   0.244   2.956   6.195 -0.0588 -0.2888 -0.4644
  526MOL0     C69332   0.197   2.862   6.113  0.6826  0.7679 -0.3131
  526MOL0     C69333   0.080   2.797   6.132  0.0049 -0.2803  0.8350
  526MOL0     C69334   0.001   2.838   6.242 -0.9977  0.1432 -0.0918
  526MOL0     O69335  -0.125   2.781   6.285 -0.6403  0.8438  0.4511
  526MOL0     C69336  -0.182   2.684   6.200  0.5341  0.4702  0.0882
  526MOL0     C69337  -0.333   2.661   6.222 -0.0095 -0.3164 -0.8670
  526MOL0     C69338  -0.429   2.777   6.212 -0.8572 -0.1278  0.0943
  526MOL0     C69339  -0.562   2.754   6.289  0.4174 -0.0029  0.0619
  526MOL0     C69340  -0.662   2.875   6.263 -0.8293 -0.4031  0.8560
  526MOL0     C69341  -0.799   2.880   6.328 -0.1794 -0.0871 -0.3818
  526MOL0     C69342  -0.889   2.760   6.296  0.1329  0.5693 -0.2627
  526MOL0     C69343  -1.029   2.775   6.345  0.2291  0.6639  0.6826
  526MOL0    Cl69344  -1.125   2.897   6.240 -0.0552  0.3319 -0.6985
  526MOL0     C69345   0.046   2.937   6.332 -0.4751 -0.3836  0.7153
  526MOL0     C69346   0.165   3.001   6.304  0.4889 -0.6049 -0.7024
  526MOL0     O69347   0.301   3.111   5.969  0.9691 -1.0102  0.3738
  526MOL0     C69348   0.503   3.304   5.982  0.2264 -0.2348 -0.0566
  526MOL0     C69349   0.614   3.375   5.944 -0.9470  0.2375  0.3092
  526MOL0     N69350   1.533   3.381   5.843 -0.4090  0.6368  0.3535
  526MOL0     N69351   1.629   3.295   5.849 -0.0022 -0.2537  0.5030
  526MOL0     C69352   2.412   2.338   5.969  1.5021 -0.8553  0.0368
  526MOL0     C69353   2.534   2.307   6.021 -0.1483 -0.2748 -0.4734
  526MOL0     C69354   2.967   2.278   6.074 -0.1419 -1.0319  0.1888
  526MOL0     C69355   3.079   2.292   5.999  0.3253 -0.1828  0.5296
  526MOL0     C69356   3.207   2.259   6.040 -0.8400 -0.9658  0.5714
  526MOL0     C69357   3.233   2.221   6.172 -0.2852 -0.1458  0.3274
  526MOL0     O69358   3.356   2.195   6.228 -0.0959 -0.3747 -0.0146
  526MOL0     C69359   3.479   2.232   6.161 -0.3512  0.4229 -0.2854
  526MOL0     C69360   3.589   2.129   6.197 -0.5328 -0.0691 -0.3491
  526MOL0     C69361   3.550   1.980   6.144  1.0327  0.4375  0.5359
  526MOL0     C69362   3.544   1.958   5.995 -0.3574  0.0645  1.1556
  526MOL0     C69363   3.674   1.968   5.931 -0.4136 -0.1204 -0.4135
  526MOL0     C69364   3.776   1.978   5.864  0.5518  0.9704 -0.1992
  526MOL0     C69365   3.115   2.215   6.251  0.0565  0.3784 -0.5598
  526MOL0     C69366   2.982   2.240   6.205 -0.8512  0.1550 -0.1923
  526MOL0     H69367   2.660   2.611   6.076 -0.1037 -1.0770  0.8865
  526MOL0     H69368   2.462   2.678   5.952 -2.2407 -1.0744 -1.3629
  526MOL0     H69369   2.176   2.604   5.731 -2.7394 -2.9008  0.6143
  526MOL0     H69370   2.319   2.675   5.801 -0.2325  0.8284  1.1889
  526MOL0     H69371   2.150   2.797   5.891  0.5194  0.3048  1.5012
  526MOL0     H69372   2.208   2.702   6.010 -1.0492  2.5925  1.2294
  526MOL0     H69373   2.045   2.526   6.007  2.8724 -1.2565 -3.2222
  526MOL0     H69374   1.959   2.602   5.879  0.8947 -2.1522  0.3619
  526MOL0     H69375   1.879   2.666   6.121 -0.4025  1.7087  4.0482
  526MOL0     H69376   2.010   2.767   6.150 -1.5088 -0.1119 -0.8220
  526MOL0     H69377   1.853   2.812   5.909 -2.2815  0.4404 -0.2312
  526MOL0     H69378   1.974   2.927   6.000 -0.7094  1.2930 -1.7681
  526MOL0     H69379   1.808   2.903   6.188  1.8732  0.3371 -0.1462
  526MOL0     H69380   1.699   2.838   6.070  1.7939 -0.4435 -4.0904
  526MOL0     H69381   1.634   3.053   6.131 -1.9804 -5.5631 -1.5765
  526MOL0     H69382   1.773   3.136   6.088  1.6883 -0.7834 -0.4911
  526MOL0     H69383   1.606   2.979   5.881 -0.7421  1.0313  1.4458
  526MOL0     H69384   1.751   3.082   5.844  2.2942  3.3141  4.0923
  526MOL0     H69385   1.378   3.123   5.967  0.9627 -0.6362 -1.4020
  526MOL0     H69386   1.280   3.489   5.902 -0.9244 -0.6431 -0.6049
  526MOL0     H69387   1.230   3.352   6.004 -2.1105  0.4679 -1.1433
  526MOL0     H69388   1.183   3.238   5.768  4.3736 -0.3549  0.7401
  526MOL0     H69389   1.219   3.370   5.690 -1.5207 -1.1547 -0.9768
  526MOL0     H69390   1.037   3.493   5.794  1.3756 -0.2069  0.1381
  526MOL0     H69391   0.997   3.351   5.687  2.1933 -2.9967  0.8152
  526MOL0     H69392   1.014   3.359   5.996  0.7575  0.3320 -0.6414
  526MOL0     H69393   0.965   3.217   5.914  4.9228  0.2791  2.6894
  526MOL0     H69394   0.833   3.145   6.067  0.6898  1.9908  3.2180
  526MOL0     H69395   0.650   3.027   6.113  0.7757 -0.4765 -0.3586
  526MOL0     H69396   0.259   2.830   6.029 -0.1807  0.7670 -0.9641
  526MOL0     H69397   0.055   2.717   6.063  1.2024  0.3100 -0.3124
  526MOL0     H69398  -0.134   2.588   6.221 -0.8841 -0.7778 -2.0162
  526MOL0     H69399  -0.160   2.727   6.101  1.2093 -2.4723 -1.1568
  526MOL0     H69400  -0.335   2.623   6.325 -0.0603  0.3688 -0.6146
  526MOL0     H69401  -0.371   2.584   6.153 -2.2461  1.9181 -2.2881
  526MOL0     H69402  -0.452   2.800   6.108 -0.4095 -0.8225 -0.1721
  526MOL0     H69403  -0.378   2.863   6.255 -1.2901  0.3407 -0.3299
  526MOL0     H69404  -0.615   2.670   6.242  0.8319  1.1655 -2.6891
  526MOL0     H69405  -0.545   2.733   6.395 -0.8898  1.6841  0.6481
  526MOL0     H69406  -0.682   2.865   6.156 -2.7355  2.1061  0.8827
  526MOL0     H69407  -0.610   2.969   6.285  0.3801 -0.7022 -0.5814
  526MOL0     H69408  -0.858   2.964   6.292 -1.4736 -0.3799  0.9561
  526MOL0     H69409  -0.791   2.894   6.436 -0.1293  0.2573 -0.4274
  526MOL0     H69410  -0.880   2.730   6.191  0.8667 -0.6965  0.1342
  526MOL0     H69411  -0.854   2.675   6.355  2.6051  1.3513 -0.4908
  526MOL0     H69412  -1.028   2.817   6.446  1.8996 -0.9178  1.3844
  526MOL0     H69413  -1.075   2.676   6.339 -0.2257  0.9394 -0.5768
  526MOL0     H69414  -0.007   2.967   6.422 -2.4089 -1.7580  0.1160
  526MOL0     H69415   0.209   3.078   6.365  1.7417 -1.4499 -0.5016
  526MOL0     H69416   0.420   3.343   5.923  1.4040 -0.9510 -2.2962
  526MOL0     H69417   0.607   3.468   5.889 -1.2797 -0.5288 -0.9902
  526MOL0     H69418   2.335   2.262   5.959 -0.2465  0.6317  1.4241
  526MOL0     H69419   2.548   2.203   6.047 -1.3922  0.1083  2.0396
  526MOL0     H69420   3.068   2.340   5.902  3.1622 -1.1566 -0.3635
  526MOL0     H69421   3.276   2.271   5.957 -0.9827 -1.4878  0.3782
  526MOL0     H69422   3.501   2.336   6.185  0.9660  0.2291 -0.5772
  526MOL0     H69423   3.485   2.224   6.052  1.0491  2.2048 -0.3780
  526MOL0     H69424   3.684   2.157   6.150 -1.1012 -0.4428 -1.7758
  526MOL0     H69425   3.617   2.128   6.303  1.8979  0.9002 -0.9327
  526MOL0     H69426   3.447   1.969   6.178  0.0575  0.6780 -2.1040
  526MOL0     H69427   3.618   1.909   6.191  0.6781 -1.7319 -1.9609
  526MOL0     H69428   3.510   1.855   5.981  0.6562 -0.4627  2.3347
  526MOL0     H69429   3.479   2.031   5.946  0.1005 -1.6307 -2.3194
  526MOL0     H69430   3.873   1.991   5.822  0.3486 -0.3249 -1.1428
  526MOL0     H69431   3.132   2.163   6.345 -3.2771 -1.3440 -0.7429
  526MOL0     H69432   2.902   2.234   6.279 -0.2164 -1.9689  0.3902
  527MOL0     O69433   4.825   3.902   2.522 -0.1328  0.2582 -0.0403
  527MOL0     C69434   4.884   3.788   2.519 -0.0714  0.1106  1.0254
  527MOL0     O69435   5.017   3.773   2.562  0.4276 -0.1092  0.0996
  527MOL0     C69436   5.096   3.883   2.598  0.4997 -0.2092 -0.1865
  527MOL0     C69437   5.229   3.904   2.561 -0.3469 -0.0750  0.6298
  527MOL0     C69438   5.304   4.016   2.612  0.5397 -0.5176  0.1875
  527MOL0     C69439   5.245   4.114   2.699 -0.0500  0.2669 -0.5463
  527MOL0     O69440   5.312   4.204   2.780 -0.1195 -1.1062 -0.3084
  527MOL0     C69441   5.440   4.184   2.843 -0.7482 -0.5781  0.2957
  527MOL0     C69442   5.546   4.262   2.769 -1.2483  0.6840  0.9738
  527MOL0     C69443   5.534   4.420   2.764 -0.8027 -0.6362  0.0016
  527MOL0     C69444   5.452   4.474   2.649  0.1752  0.3434  0.0712
  527MOL0     C69445   5.459   4.628   2.645  1.0323 -0.6948  0.0095
  527MOL0     C69446   5.381   4.686   2.528 -0.1996 -0.3603 -0.3587
  527MOL0     C69447   5.388   4.833   2.530 -0.0930 -0.4077 -0.0554
  527MOL0     C69448   5.328   4.903   2.410  0.7466 -0.2315  0.3842
  527MOL0     N69449   5.419   4.874   2.298 -0.2021  0.0885  0.1250
  527MOL0     C69450   5.504   4.962   2.257  0.0493 -1.2838 -0.3328
  527MOL0     C69451   5.566   4.900   2.150  0.0236 -0.3992 -0.5030
  527MOL0     C69452   5.694   4.954   2.090  0.6450 -0.1478  0.6232
  527MOL0     C69453   5.670   4.971   1.940 -0.1541  0.7170 -0.3182
  527MOL0     C69454   5.794   4.942   1.854 -0.9231 -0.8734 -0.2761
  527MOL0     C69455   5.883   5.074   1.868 -0.6993  1.0231  0.1063
  527MOL0     O69456   5.819   5.174   1.787 -0.0013  0.0972  0.0226
  527MOL0     C69457   5.859   5.304   1.785  0.5408  0.8551  0.4440
  527MOL0     C69458   5.979   5.348   1.721  0.8431 -0.6092  0.0189
  527MOL0     C69459   6.033   5.478   1.745  0.4592  0.0241  0.5500
  527MOL0     C69460   5.936   5.570   1.805  0.1210  0.0368  0.2787
  527MOL0     C69461   5.975   5.719   1.820 -0.8972 -1.1141  0.0121
  527MOL0     O69462   5.875   5.800   1.864  0.0777  0.0296  0.3954
  527MOL0     C69463   5.880   5.931   1.886 -0.0223  0.5560 -0.8374
  527MOL0     C69464   5.971   6.010   1.821 -0.2657 -0.2648 -0.2249
  527MOL0     C69465   5.990   6.143   1.869 -0.5305  0.1880  0.1558
  527MOL0     C69466   5.922   6.192   1.976  0.1727 -0.3660  0.6034
  527MOL0     O69467   5.956   6.325   2.006 -0.0107 -0.1481 -0.0147
  527MOL0     C69468   5.844   6.404   2.038  0.3549 -0.3654 -0.8545
  527MOL0     C69469   5.864   6.559   2.059  0.1529  0.1973  0.2571
  527MOL0     C69470   5.900   6.631   1.925 -0.4801  0.1685  0.8730
  527MOL0     C69471   5.880   6.786   1.928 -0.4421  0.4478  0.3791
  527MOL0     C69472   6.011   6.859   1.862 -0.0481  0.6329 -0.7599
  527MOL0     C69473   5.974   7.000   1.826 -0.0603  0.3587  0.1340
  527MOL0     C69474   5.864   6.994   1.714  0.2013 -0.7957 -0.0744
  527MOL0     C69475   5.858   7.135   1.664  0.1766  0.3441  0.1509
  527MOL0    Cl69476   5.985   7.144   1.555 -0.2725  0.5895  0.7334
  527MOL0     C69477   5.823   6.124   2.038  0.9749  0.4271 -1.0322
  527MOL0     C69478   5.809   5.987   2.003 -0.5265 -0.3829  0.2905
  527MOL0     O69479   6.085   5.753   1.784 -0.2956 -0.3068 -0.3809
  527MOL0     C69480   5.816   5.525   1.854 -0.4429 -0.0634 -0.0370
  527MOL0     C69481   5.779   5.397   1.847 -0.1878  0.2822  0.5967
  527MOL0     N69482   5.512   4.775   2.130  0.6201 -1.5310  0.2771
  527MOL0     N69483   5.424   4.761   2.222  0.1952  0.0600  0.3529
  527MOL0     C69484   5.112   4.084   2.739 -0.0030 -0.0592 -0.1149
  527MOL0     C69485   5.047   3.975   2.689 -0.6065 -0.6990 -0.7697
  527MOL0     C69486   4.816   3.669   2.494 -0.4067 -0.1650 -0.3166
  527MOL0     C69487   4.872   3.538   2.529 -1.1837  0.3365  0.0786
  527MOL0     C69488   4.798   3.417   2.517 -0.4326 -0.5297  0.3695
  527MOL0     C69489   4.663   3.429   2.476 -0.7041  0.4702 -0.0759
  527MOL0     O69490   4.607   3.298   2.461  0.0583  1.1314  0.3052
  527MOL0     C69491   4.471   3.291   2.501 -0.5516 -0.1967  0.3754
  527MOL0     C69492   4.463   3.298   2.656 -0.1029  0.1779 -0.3581
  527MOL0     C69493   4.322   3.268   2.722 -1.3930 -0.4141 -0.3671
  527MOL0     C69494   4.331   3.244   2.877  1.0570  0.8832  0.5542
  527MOL0     C69495   4.205   3.231   2.940  0.0209  0.7879 -0.8279
  527MOL0     C69496   4.094   3.236   2.986 -0.6773  0.1228 -0.3539
  527MOL0     C69497   4.599   3.554   2.449 -0.4668 -0.7908  0.0634
  527MOL0     C69498   4.674   3.676   2.456  0.1898 -0.1418 -0.7410
  527MOL0     H69499   5.278   3.834   2.495 -1.8098 -0.1849 -0.3959
  527MOL0     H69500   5.410   4.004   2.591  0.7738  2.4029 -0.6789
  527MOL0     H69501   5.460   4.076   2.842 -0.3958 -0.5145  0.3649
  527MOL0     H69502   5.435   4.229   2.943 -1.4781  1.4003 -0.5762
  527MOL0     H69503   5.553   4.225   2.666 -0.3270 -0.1731  1.3321
  527MOL0     H69504   5.639   4.237   2.820  0.0732  0.1885 -1.5294
  527MOL0     H69505   5.640   4.447   2.757 -0.4359 -1.3397  2.2504
  527MOL0     H69506   5.502   4.460   2.860  0.0048  1.0002 -0.3590
  527MOL0     H69507   5.495   4.440   2.555  0.6041  0.3845  0.2475
  527MOL0     H69508   5.348   4.440   2.649 -0.3470  1.5716 -3.1204
  527MOL0     H69509   5.560   4.669   2.643 -0.2252  2.6836  0.2076
  527MOL0     H69510   5.418   4.671   2.737 -1.5085 -1.9623 -0.4335
  527MOL0     H69511   5.274   4.667   2.545  0.0523 -0.4876  1.2107
  527MOL0     H69512   5.424   4.637   2.440 -2.7275 -0.0223 -1.9069
  527MOL0     H69513   5.335   4.872   2.618 -3.4902 -0.4868 -1.9073
  527MOL0     H69514   5.494   4.861   2.533  0.6363 -2.5139 -2.8048
  527MOL0     H69515   5.319   5.012   2.417  1.2595  0.0629 -2.2324
  527MOL0     H69516   5.229   4.872   2.377  1.0363  0.4358 -1.2013
  527MOL0     H69517   5.531   5.053   2.312 -0.4009 -1.6017  0.4354
  527MOL0     H69518   5.761   4.868   2.097 -0.4694 -0.9470  2.0503
  527MOL0     H69519   5.722   5.050   2.134 -1.2132  0.8242 -0.1974
  527MOL0     H69520   5.622   5.067   1.919 -2.0624 -0.3240 -1.0682
  527MOL0     H69521   5.597   4.895   1.908 -0.7682  0.3359  1.8362
  527MOL0     H69522   5.837   4.844   1.873  0.1735 -0.5285 -0.9094
  527MOL0     H69523   5.752   4.934   1.753 -3.3292  2.0255  0.3481
  527MOL0     H69524   5.984   5.054   1.833 -0.8038 -1.9797  1.2126
  527MOL0     H69525   5.885   5.112   1.971  0.0951  1.0012  0.0989
  527MOL0     H69526   6.027   5.277   1.655 -0.7604 -0.0504 -1.8252
  527MOL0     H69527   6.124   5.515   1.701 -0.7239  1.5844 -0.6923
  527MOL0     H69528   6.022   5.978   1.730  3.1662 -3.8871  2.5788
  527MOL0     H69529   6.062   6.210   1.822 -0.4859 -0.8087 -1.2804
  527MOL0     H69530   5.787   6.374   2.126  0.0934  2.1666 -0.0833
  527MOL0     H69531   5.767   6.392   1.961 -2.4569 -0.3407  1.7642
  527MOL0     H69532   5.937   6.565   2.139 -1.9240 -1.0994  2.3912
  527MOL0     H69533   5.772   6.607   2.095 -1.2625 -0.1723 -2.5424
  527MOL0     H69534   5.856   6.573   1.844  0.4575 -1.9172  1.7665
  527MOL0     H69535   6.007   6.616   1.907 -0.3572 -0.9737  2.3373
  527MOL0     H69536   5.791   6.813   1.871 -0.3171 -3.4320 -2.0049
  527MOL0     H69537   5.871   6.815   2.033  1.6424  1.6770  0.2836
  527MOL0     H69538   6.040   6.806   1.772  0.5466 -0.5176  0.0863
  527MOL0     H69539   6.097   6.853   1.929 -1.0437 -0.1359  0.4906
  527MOL0     H69540   6.054   7.058   1.779 -0.9502  2.2719  0.8875
  527MOL0     H69541   5.945   7.069   1.905  2.5133  1.1378  0.4980
  527MOL0     H69542   5.877   6.915   1.640  0.7683 -0.3431 -0.4639
  527MOL0     H69543   5.762   6.982   1.754  0.2301  0.2635  0.3453
  527MOL0     H69544   5.855   7.213   1.740 -0.7392 -1.0569  1.6360
  527MOL0     H69545   5.763   7.151   1.612  0.3707  1.2984  0.0835
  527MOL0     H69546   5.769   6.161   2.125 -0.5708 -4.0444  0.1705
  527MOL0     H69547   5.741   5.921   2.055 -1.3959  0.9347  0.8699
  527MOL0     H69548   5.749   5.600   1.894  0.1755  0.9268 -0.7976
  527MOL0     H69549   5.680   5.364   1.877 -0.0157 -0.8359 -0.0025
  527MOL0     H69550   5.065   4.144   2.816  0.3989  0.9212 -0.6121
  527MOL0     H69551   4.949   3.960   2.734  0.5450  0.5355  2.4043
  527MOL0     H69552   4.971   3.527   2.571 -0.6184  0.1802 -1.2593
  527MOL0     H69553   4.839   3.318   2.536 -2.9495 -1.5852  0.6091
  527MOL0     H69554   4.433   3.195   2.464 -2.7498  1.6789 -2.7910
  527MOL0     H69555   4.405   3.363   2.452 -1.3821 -2.3489 -1.8996
  527MOL0     H69556   4.526   3.219   2.699 -0.7943 -0.4075 -0.4121
  527MOL0     H69557   4.491   3.396   2.696 -0.6228 -0.5550  1.9517
  527MOL0     H69558   4.262   3.184   2.684  0.3161 -2.1458  0.6096
  527MOL0     H69559   4.264   3.359   2.701 -1.3147 -0.1638  0.4790
  527MOL0     H69560   4.383   3.147   2.885 -0.1094 -0.0635 -2.0535
  527MOL0     H69561   4.388   3.323   2.926  0.7563  1.3934  0.0909
  527MOL0     H69562   4.004   3.268   3.035  0.7247  0.7083  1.9706
  527MOL0     H69563   4.491   3.556   2.435 -0.3062 -0.8642 -1.2913
  527MOL0     H69564   4.626   3.772   2.441  1.4057  0.7389  0.7107
  528MOL0     O69565   8.034   1.340   7.588  0.5115  1.0534 -0.1932
  528MOL0     C69566   8.152   1.326   7.625 -0.2658  1.1419  0.0647
  528MOL0     O69567   8.195   1.315   7.761 -0.2106 -0.6208  0.4339
  528MOL0     C69568   8.109   1.359   7.858 -0.4914  0.0591  0.1534
  528MOL0     C69569   8.023   1.468   7.855 -0.4205 -0.4804 -0.2002
  528MOL0     C69570   7.959   1.517   7.971  0.3413  0.3402  1.2074
  528MOL0     C69571   7.961   1.450   8.092  0.1255  0.5178  0.2390
  528MOL0     O69572   7.894   1.491   8.208  0.5352  0.4510  0.5319
  528MOL0     C69573   7.760   1.539   8.169  0.2604  0.1682 -0.9805
  528MOL0     C69574   7.691   1.591   8.304 -0.2913 -0.4628 -0.0133
  528MOL0     C69575   7.755   1.724   8.343 -0.1691 -0.1712 -0.5937
  528MOL0     C69576   7.697   1.839   8.256 -0.2038  0.1971 -0.4505
  528MOL0     C69577   7.741   1.979   8.301 -0.8746  0.2898  0.2983
  528MOL0     C69578   7.891   2.004   8.277  0.1004 -0.6242 -0.8292
  528MOL0     C69579   7.949   2.152   8.282  0.3853  0.3703 -0.0374
  528MOL0     C69580   7.894   2.234   8.412 -0.1252  0.6897 -0.5295
  528MOL0     N69581   7.964   2.365   8.441 -0.0898  0.4077 -0.6842
  528MOL0     C69582   8.085   2.365   8.512  0.2627  0.0338  0.0151
  528MOL0     C69583   8.095   2.500   8.530 -0.6491  0.6634 -0.0986
  528MOL0     C69584   8.207   2.558   8.613  0.2471  0.2420 -0.5441
  528MOL0     C69585   8.315   2.595   8.519  0.6052 -0.7346 -1.2277
  528MOL0     C69586   8.455   2.534   8.533  0.9665  0.2158 -0.4756
  528MOL0     C69587   8.480   2.395   8.466  0.3718  0.0895 -0.6534
  528MOL0     O69588   8.431   2.385   8.335  0.7110  0.4895 -1.1038
  528MOL0     C69589   8.496   2.449   8.232  0.8463  0.6660 -0.3971
  528MOL0     C69590   8.431   2.441   8.107 -0.4061 -0.5457  0.0088
  528MOL0     C69591   8.488   2.483   7.992  0.0043 -0.1872 -0.0364
  528MOL0     C69592   8.623   2.536   7.993 -0.4459  0.0231 -0.0135
  528MOL0     C69593   8.682   2.572   7.860  0.1994 -0.4294 -0.2350
  528MOL0     O69594   8.817   2.573   7.869  0.6442  0.3493  0.7773
  528MOL0     C69595   8.887   2.518   7.764 -0.6598  0.2926  0.1629
  528MOL0     C69596   9.014   2.582   7.751  0.4643  0.0787 -0.3024
  528MOL0     C69597   9.099   2.527   7.651  0.7001  0.4879 -0.9488
  528MOL0     C69598   9.072   2.412   7.583  0.2239  0.3110  0.0569
  528MOL0     O69599   9.175   2.374   7.499  0.3714  0.1007  0.4306
  528MOL0     C69600   9.216   2.464   7.389  0.0478  0.2169  0.2914
  528MOL0     C69601   9.347   2.413   7.333 -0.2834  0.2711 -1.3253
  528MOL0     C69602   9.464   2.483   7.412  0.4673  0.2675 -0.8132
  528MOL0     C69603   9.612   2.441   7.384 -0.6640 -0.5650  0.7867
  528MOL0     C69604   9.640   2.467   7.235  0.4865 -0.0294 -0.2748
  528MOL0     C69605   9.779   2.445   7.191 -0.2549  0.3188  0.8076
  528MOL0     C69606   9.827   2.300   7.195 -0.3075  0.4747  0.1403
  528MOL0     C69607   9.953   2.277   7.108 -0.5004 -0.1599  0.9839
  528MOL0    Cl69608   9.933   2.346   6.938 -0.0567 -0.1558  0.2124
  528MOL0     C69609   8.953   2.341   7.616 -0.8830  0.4556  0.8242
  528MOL0     C69610   8.854   2.397   7.697 -0.0419  0.3105  0.0869
  528MOL0     O69611   8.612   2.565   7.759 -0.8042 -0.4585  0.0484
  528MOL0     C69612   8.691   2.554   8.115  0.4943  0.6539 -0.2102
  528MOL0     C69613   8.623   2.516   8.231 -0.1206 -0.4138 -1.2926
  528MOL0     N69614   7.998   2.568   8.468 -0.0627 -0.3034 -0.1264
  528MOL0     N69615   7.919   2.482   8.415  1.1433 -0.0411 -0.0370
  528MOL0     C69616   8.040   1.333   8.103  0.7125 -0.4767  0.6998
  528MOL0     C69617   8.103   1.285   7.983 -0.1337 -0.6253  0.4213
  528MOL0     C69618   8.241   1.306   7.507 -0.0552 -0.9684 -0.3812
  528MOL0     C69619   8.204   1.245   7.380 -0.3300 -1.2247 -0.4492
  528MOL0     C69620   8.298   1.225   7.283  0.0508  0.2717 -0.3629
  528MOL0     C69621   8.426   1.288   7.301  0.1793  0.4038  0.2216
  528MOL0     O69622   8.521   1.303   7.210  0.8085 -0.0702 -1.3198
  528MOL0     C69623   8.557   1.183   7.138  0.3790 -0.2855 -0.5981
  528MOL0     C69624   8.702   1.197   7.092 -0.0524  0.0915  0.3878
  528MOL0     C69625   8.716   1.312   6.994  0.7167  0.0911 -0.4341
  528MOL0     C69626   8.857   1.325   6.928  1.0252 -0.0319 -0.2242
  528MOL0     C69627   8.878   1.207   6.841 -0.0175  0.0429 -1.0054
  528MOL0     C69628   8.896   1.137   6.751  0.8597 -0.2580  0.7650
  528MOL0     C69629   8.459   1.343   7.425 -0.4570 -0.0340 -0.1244
  528MOL0     C69630   8.372   1.350   7.531  0.0531  0.5574 -0.5479
  528MOL0     H69631   8.021   1.534   7.768 -2.8678  1.2447  1.0746
  528MOL0     H69632   7.914   1.616   7.971  1.4000  0.8485 -0.0522
  528MOL0     H69633   7.699   1.457   8.129  0.8128 -0.6935 -0.0760
  528MOL0     H69634   7.748   1.618   8.094  0.0928  0.9603 -0.1379
  528MOL0     H69635   7.699   1.522   8.389  1.4589  2.8052  2.7024
  528MOL0     H69636   7.582   1.602   8.304 -0.3237 -0.5772  1.6265
  528MOL0     H69637   7.864   1.716   8.344  0.0028  1.6019  0.5557
  528MOL0     H69638   7.730   1.743   8.448  1.9482  0.8475 -0.2228
  528MOL0     H69639   7.740   1.818   8.158 -4.6201 -0.5954 -2.4746
  528MOL0     H69640   7.589   1.836   8.236 -0.1332 -0.1892 -0.7937
  528MOL0     H69641   7.710   2.002   8.404 -0.8919  1.6581  0.0035
  528MOL0     H69642   7.689   2.059   8.248  1.6761  1.2182 -0.9911
  528MOL0     H69643   7.921   1.963   8.180  1.0050  1.3541 -1.4514
  528MOL0     H69644   7.941   1.957   8.363  0.7125  5.0786  2.4778
  528MOL0     H69645   8.058   2.153   8.271  0.6599  2.4450  2.1143
  528MOL0     H69646   7.926   2.203   8.188 -0.0962  1.3134  0.5730
  528MOL0     H69647   7.915   2.184   8.507  0.6353 -0.2596 -1.1796
  528MOL0     H69648   7.785   2.241   8.404 -0.1425  2.0419  0.5489
  528MOL0     H69649   8.138   2.280   8.555 -1.5872 -1.9213 -1.3611
  528MOL0     H69650   8.242   2.492   8.693 -2.5197 -0.7215  0.0040
  528MOL0     H69651   8.165   2.649   8.657 -1.1520 -0.3298 -0.6287
  528MOL0     H69652   8.326   2.704   8.519 -2.2795 -0.3232  1.3993
  528MOL0     H69653   8.283   2.566   8.418 -5.3840 -0.3117  0.2241
  528MOL0     H69654   8.519   2.610   8.486  0.6041  0.5613 -0.4101
  528MOL0     H69655   8.482   2.531   8.639  2.8538 -1.1496 -0.9401
  528MOL0     H69656   8.426   2.316   8.518 -0.0668 -1.0202 -2.6789
  528MOL0     H69657   8.586   2.373   8.482  0.0514 -1.0796 -0.0702
  528MOL0     H69658   8.343   2.380   8.092 -1.2942  0.9268 -1.0688
  528MOL0     H69659   8.431   2.474   7.900 -0.2584  0.8714  0.0124
  528MOL0     H69660   9.046   2.660   7.819  2.4765 -1.3728  0.5166
  528MOL0     H69661   9.192   2.584   7.654  2.8882 -2.8344  1.2368
  528MOL0     H69662   9.215   2.569   7.421  2.8747 -0.1875  1.9611
  528MOL0     H69663   9.147   2.443   7.307  0.0738  0.1120  0.2967
  528MOL0     H69664   9.353   2.450   7.230 -0.3883  3.6924 -0.2454
  528MOL0     H69665   9.358   2.305   7.319  1.3625  0.3251 -0.6658
  528MOL0     H69666   9.446   2.474   7.519  1.3949 -2.8153 -0.8211
  528MOL0     H69667   9.468   2.591   7.398 -0.4154  0.3414 -0.5152
  528MOL0     H69668   9.685   2.476   7.457 -0.4271 -1.9284  1.2277
  528MOL0     H69669   9.633   2.334   7.392  1.0580 -0.3338 -0.0873
  528MOL0     H69670   9.612   2.571   7.220  2.9970  1.0796  1.9741
  528MOL0     H69671   9.574   2.413   7.167  2.8993 -1.1871 -1.8779
  528MOL0     H69672   9.849   2.510   7.244  0.5695  1.0928 -1.1116
  528MOL0     H69673   9.764   2.488   7.091  0.4657  0.9722  0.9708
  528MOL0     H69674   9.859   2.277   7.297  0.5471  3.4267  0.6384
  528MOL0     H69675   9.746   2.238   7.156  0.1443  0.3335 -0.5785
  528MOL0     H69676   9.975   2.170   7.099  1.3436  0.3565 -3.5006
  528MOL0     H69677  10.039   2.321   7.158  2.6163 -2.9177 -1.4911
  528MOL0     H69678   8.932   2.255   7.552 -3.0585 -1.4817  3.8343
  528MOL0     H69679   8.755   2.354   7.712  0.9938 -2.4245 -0.2715
  528MOL0     H69680   8.786   2.603   8.136 -0.6663  2.3437  1.4151
  528MOL0     H69681   8.680   2.515   8.324 -0.3395 -0.9480 -1.1581
  528MOL0     H69682   8.038   1.274   8.195  1.4706 -1.4103  0.1392
  528MOL0     H69683   8.159   1.193   7.991  0.1621 -0.9621 -3.4120
  528MOL0     H69684   8.105   1.199   7.381 -1.0978  0.3707  1.1679
  528MOL0     H69685   8.269   1.163   7.198  0.6984 -5.0047  2.8611
  528MOL0     H69686   8.500   1.168   7.046  0.8693  2.0164 -1.3571
  528MOL0     H69687   8.543   1.094   7.200  0.8024  1.1960  1.7514
  528MOL0     H69688   8.771   1.216   7.176 -1.9173  3.1354  1.3968
  528MOL0     H69689   8.733   1.106   7.040 -3.0168  0.0505 -1.4942
  528MOL0     H69690   8.697   1.409   7.042  1.9833  0.1757 -0.0723
  528MOL0     H69691   8.641   1.290   6.917  1.0500  0.3561 -0.8442
  528MOL0     H69692   8.854   1.414   6.863  1.0343 -0.5649 -0.9690
  528MOL0     H69693   8.937   1.334   7.002  0.7250  0.1596  0.0791
  528MOL0     H69694   8.903   1.070   6.668  1.0965 -0.0308  0.6014
  528MOL0     H69695   8.559   1.370   7.457 -1.2231 -0.4499  2.8948
  528MOL0     H69696   8.405   1.392   7.626 -3.5013 -2.4415  2.2928
  529MOL0     O69697   0.458   9.276   8.647 -0.4921 -0.2942 -0.1684
  529MOL0     C69698   0.421   9.248   8.537  0.2834 -0.4261 -0.2719
  529MOL0     O69699   0.470   9.300   8.419  0.1433 -0.4203 -0.7072
  529MOL0     C69700   0.546   9.409   8.420  0.5943  0.3336  0.1223
  529MOL0     C69701   0.551   9.478   8.303  0.2838  0.0093  1.0696
  529MOL0     C69702   0.624   9.591   8.283 -0.8578 -0.8579  0.8828
  529MOL0     C69703   0.703   9.638   8.384  0.2207 -0.2525  0.3368
  529MOL0     O69704   0.767   9.764   8.371 -0.6607  0.1001 -1.0801
  529MOL0     C69705   0.840   9.802   8.256  0.6633  0.4371 -0.3509
  529MOL0     C69706   0.947   9.910   8.275  0.7671 -0.3177  0.3392
  529MOL0     C69707   0.907  10.020   8.376 -0.3057  0.9603  0.1394
  529MOL0     C69708   0.805  10.118   8.331 -0.2624 -0.3863 -0.3774
  529MOL0     C69709   0.763  10.220   8.433  0.8501 -0.6266  0.1760
  529MOL0     C69710   0.674  10.161   8.546  0.5425  0.0619 -0.1776
  529MOL0     C69711   0.653  10.258   8.654  0.1907  0.3212  0.5817
  529MOL0     C69712   0.571  10.194   8.770 -0.7006  0.9837 -0.0716
  529MOL0     N69713   0.591  10.245   8.897  0.2099  0.4570 -0.9684
  529MOL0     C69714   0.544  10.366   8.940  0.0052 -0.8785 -0.2769
  529MOL0     C69715   0.576  10.361   9.075 -0.1549  0.8606 -0.4021
  529MOL0     C69716   0.552  10.468   9.176 -0.1848  0.4512 -0.1524
  529MOL0     C69717   0.407  10.525   9.185 -0.5502  0.7109  0.2217
  529MOL0     C69718   0.319  10.402   9.187  0.8930 -0.8850  0.0390
  529MOL0     C69719   0.175  10.432   9.225  0.3591  0.1496 -0.6282
  529MOL0     O69720   0.106  10.518   9.131 -0.5606  0.7733  0.0573
  529MOL0     C69721  -0.001  10.590   9.171 -0.0383 -0.5638 -0.6639
  529MOL0     C69722  -0.070  10.566   9.288 -0.5704 -0.7598 -1.3859
  529MOL0     C69723  -0.186  10.634   9.323 -0.6378 -1.0733 -0.6364
  529MOL0     C69724  -0.230  10.744   9.234 -0.1016  0.6924  0.8563
  529MOL0     C69725  -0.365  10.803   9.262 -0.0361 -0.2060  0.3544
  529MOL0     O69726  -0.390  10.839   9.391 -0.2299 -0.1543 -0.3395
  529MOL0     C69727  -0.483  10.940   9.420  0.9564 -0.7303 -0.3582
  529MOL0     C69728  -0.620  10.909   9.431  0.3726  1.2268  0.0904
  529MOL0     C69729  -0.723  10.998   9.454 -0.1990  1.0513 -0.6866
  529MOL0     C69730  -0.681  11.129   9.481 -0.3068  0.0921 -0.0247
  529MOL0     O69731  -0.774  11.225   9.508  0.1406  0.6674  0.3334
  529MOL0     C69732  -0.781  11.284   9.642 -0.0645  0.2781 -0.4528
  529MOL0     C69733  -0.925  11.335   9.672 -0.2581  0.4293  0.4370
  529MOL0     C69734  -0.950  11.482   9.647 -0.8424  0.1696 -0.7346
  529MOL0     C69735  -1.088  11.532   9.705 -0.5036  0.4550 -0.6311
  529MOL0     C69736  -1.133  11.672   9.666 -0.3349 -0.0411 -0.5522
  529MOL0     C69737  -1.100  11.709   9.526  0.1526 -0.1790  0.1717
  529MOL0     C69738  -1.097  11.858   9.504  1.0621 -0.0256 -0.1614
  529MOL0     C69739  -1.112  11.899   9.356  0.3035 -0.1925  0.6220
  529MOL0    Cl69740  -0.944  11.886   9.276 -0.0224 -0.1695  0.0577
  529MOL0     C69741  -0.545  11.177   9.494  0.1776  1.0169  0.1628
  529MOL0     C69742  -0.447  11.073   9.456  0.6939  0.4428 -0.3372
  529MOL0     O69743  -0.428  10.842   9.169  0.0767 -0.1916 -0.1230
  529MOL0     C69744  -0.141  10.786   9.126  0.5794 -0.3742  0.2905
  529MOL0     C69745  -0.029  10.707   9.097 -0.0511 -0.1008 -1.2969
  529MOL0     N69746   0.643  10.246   9.101  1.2661 -0.9198 -0.5175
  529MOL0     N69747   0.657  10.177   8.994  0.7407  0.0119 -0.1277
  529MOL0     C69748   0.705   9.574   8.507  0.7481 -0.3410  0.1334
  529MOL0     C69749   0.631   9.460   8.524  0.6335  0.5406 -0.5465
  529MOL0     C69750   0.321   9.141   8.531 -1.5283  0.0262  0.3574
  529MOL0     C69751   0.294   9.085   8.402  0.2022 -0.6950 -0.8805
  529MOL0     C69752   0.205   8.983   8.389  0.0015  0.6520 -0.0189
  529MOL0     C69753   0.126   8.933   8.499 -0.0536 -0.9473  0.5773
  529MOL0     O69754   0.049   8.823   8.499  0.5083 -0.3849 -0.7559
  529MOL0     C69755   0.082   8.725   8.398  0.1301  0.1577 -0.5694
  529MOL0     C69756  -0.049   8.692   8.329 -0.3621  0.1359 -0.3011
  529MOL0     C69757  -0.026   8.636   8.190 -0.0190  0.5274 -0.6309
  529MOL0     C69758  -0.165   8.613   8.126  0.4337  0.8343  0.1001
  529MOL0     C69759  -0.239   8.733   8.084  0.1308  0.0959 -0.3614
  529MOL0     C69760  -0.296   8.825   8.026  0.0410 -1.4274 -0.5367
  529MOL0     C69761   0.165   8.987   8.624 -0.1528 -0.4128 -0.0489
  529MOL0     C69762   0.264   9.083   8.646 -0.0387 -0.6117  0.5897
  529MOL0     H69763   0.491   9.443   8.219  4.1269  0.4277 -2.1180
  529MOL0     H69764   0.615   9.623   8.180 -1.9066 -2.4093  0.4653
  529MOL0     H69765   0.767   9.839   8.183 -0.9650 -1.4164  0.2497
  529MOL0     H69766   0.892   9.716   8.213  1.1838  1.4475 -1.8381
  529MOL0     H69767   0.964   9.944   8.172 -0.0942  0.1840  0.3546
  529MOL0     H69768   1.037   9.861   8.314  1.6661 -1.8136 -3.1497
  529MOL0     H69769   0.992  10.087   8.394  0.8772  0.5316 -3.1857
  529MOL0     H69770   0.866   9.975   8.467 -1.0436  0.9064 -0.2180
  529MOL0     H69771   0.842  10.188   8.256  3.0746 -2.1085 -0.5373
  529MOL0     H69772   0.720  10.062   8.291 -0.1987 -1.5726  1.0530
  529MOL0     H69773   0.715  10.305   8.384  2.1183 -0.5926 -1.0607
  529MOL0     H69774   0.852  10.264   8.480  0.1168  0.1842  0.8429
  529MOL0     H69775   0.710  10.065   8.583  5.6400  1.3554 -1.0923
  529MOL0     H69776   0.583  10.141   8.488  0.7776  0.5640 -0.7233
  529MOL0     H69777   0.754  10.280   8.689  0.7649  0.3884 -1.0347
  529MOL0     H69778   0.614  10.358   8.633  0.3435  0.9200  2.8084
  529MOL0     H69779   0.609  10.092   8.771 -0.2203  1.1353  1.5415
  529MOL0     H69780   0.467  10.198   8.737 -1.0945 -0.4068  0.9367
  529MOL0     H69781   0.500  10.451   8.888 -0.7453 -1.1929 -0.1676
  529MOL0     H69782   0.622  10.550   9.155  1.1175 -0.5191  0.3092
  529MOL0     H69783   0.576  10.426   9.274 -0.1075  0.8816  0.0173
  529MOL0     H69784   0.393  10.596   9.103  2.8705 -0.8846 -2.0018
  529MOL0     H69785   0.408  10.579   9.280  3.3787 -1.2608  1.5376
  529MOL0     H69786   0.321  10.366   9.083  1.7499  2.2613 -1.1650
  529MOL0     H69787   0.350  10.317   9.249 -0.1372  0.1950  2.0830
  529MOL0     H69788   0.169  10.489   9.318  2.8765  0.7370 -0.7382
  529MOL0     H69789   0.119  10.339   9.236  2.1116 -0.8093  0.7519
  529MOL0     H69790  -0.054  10.483   9.355 -4.8067 -0.5068  0.2663
  529MOL0     H69791  -0.246  10.597   9.406  1.0086 -0.8706  0.7022
  529MOL0     H69792  -0.635  10.802   9.422  4.6832  0.4279  0.1081
  529MOL0     H69793  -0.827  10.968   9.455 -0.6819  2.6830 -0.2673
  529MOL0     H69794  -0.722  11.374   9.661 -0.5852  0.1510  2.1174
  529MOL0     H69795  -0.750  11.204   9.710 -1.4051 -1.4154 -1.7191
  529MOL0     H69796  -0.942  11.321   9.779 -0.9957  1.7062  0.5023
  529MOL0     H69797  -0.998  11.280   9.612 -0.3049  0.2126  0.6888
  529MOL0     H69798  -0.951  11.493   9.538 -1.1786 -0.5305 -0.8092
  529MOL0     H69799  -0.870  11.545   9.686  0.4797 -1.2686 -1.0468
  529MOL0     H69800  -1.157  11.449   9.687  1.2833 -0.8703 -1.6502
  529MOL0     H69801  -1.082  11.518   9.813  0.8483 -0.0877 -0.7508
  529MOL0     H69802  -1.089  11.739   9.741 -1.9149  0.3754  0.0515
  529MOL0     H69803  -1.240  11.684   9.682 -0.3780 -0.7281 -0.2580
  529MOL0     H69804  -1.169  11.668   9.451 -1.0575 -1.6951  2.0049
  529MOL0     H69805  -1.006  11.676   9.482  0.7659  1.6744  0.0198
  529MOL0     H69806  -1.185  11.888   9.561  1.1750  0.2319 -0.1234
  529MOL0     H69807  -1.003  11.898   9.541  0.7106  0.4115  0.2805
  529MOL0     H69808  -1.140  12.005   9.360  2.9987  0.6604 -0.5536
  529MOL0     H69809  -1.186  11.827   9.320 -1.4005  1.1433  1.3616
  529MOL0     H69810  -0.522  11.280   9.519  1.1687  0.9474 -0.4025
  529MOL0     H69811  -0.340  11.088   9.451  0.8113 -0.4123 -0.5667
  529MOL0     H69812  -0.165  10.863   9.053  1.8757 -0.3341 -0.1236
  529MOL0     H69813   0.029  10.730   9.008  3.6468  0.2928  0.9707
  529MOL0     H69814   0.778   9.620   8.572  4.7179 -3.1195 -1.9087
  529MOL0     H69815   0.642   9.414   8.622  1.5018  2.1129  0.1292
  529MOL0     H69816   0.340   9.124   8.311 -0.4729  2.0788 -0.1488
  529MOL0     H69817   0.195   8.953   8.285  3.0517  1.1996 -0.5882
  529MOL0     H69818   0.136   8.639   8.440  1.0502 -0.4211 -2.7875
  529MOL0     H69819   0.150   8.764   8.323  3.6320  0.9742  2.7527
  529MOL0     H69820  -0.113   8.624   8.385  0.8489 -1.5004 -0.8188
  529MOL0     H69821  -0.114   8.779   8.316 -1.7484 -0.8692 -0.3382
  529MOL0     H69822   0.031   8.544   8.204  2.7028  2.3319  1.2311
  529MOL0     H69823   0.030   8.708   8.130 -1.9653  3.8196  1.2163
  529MOL0     H69824  -0.146   8.551   8.038 -2.0620 -3.6006  2.3190
  529MOL0     H69825  -0.229   8.551   8.189  1.1742 -1.9667 -1.6895
  529MOL0     H69826  -0.338   8.906   7.970  1.8458  0.1582  0.3209
  529MOL0     H69827   0.093   8.949   8.696  0.9730 -2.5349  0.0481
  529MOL0     H69828   0.299   9.121   8.742 -0.1021  1.9795 -0.3222
  530MOL0     O69829   3.357   7.861   9.422 -0.2482  0.7393 -0.2274
  530MOL0     C69830   3.337   7.982   9.444 -0.3070 -0.0544 -0.0199
  530MOL0     O69831   3.217   8.041   9.433  0.6828 -0.4813  0.4357
  530MOL0     C69832   3.107   7.979   9.373  1.5388 -0.4123 -0.4311
  530MOL0     C69833   3.102   7.913   9.248  0.3843 -0.4875 -0.6998
  530MOL0     C69834   2.991   7.854   9.187 -0.5383  0.3900 -0.2467
  530MOL0     C69835   2.870   7.863   9.244  0.8931 -1.2830 -0.0465
  530MOL0     O69836   2.754   7.817   9.189  0.3542  0.5686  0.3048
  530MOL0     C69837   2.753   7.741   9.063 -0.1491  0.1146  0.4441
  530MOL0     C69838   2.618   7.683   9.028  0.2013 -0.5559  0.7252
  530MOL0     C69839   2.535   7.776   8.931 -0.9404 -0.8384  0.0942
  530MOL0     C69840   2.409   7.697   8.891  0.3673  0.1122 -1.2025
  530MOL0     C69841   2.287   7.777   8.818 -0.2631 -1.3265 -0.0451
  530MOL0     C69842   2.167   7.692   8.794  0.1562  0.2679  0.0069
  530MOL0     C69843   2.204   7.561   8.715  0.6021  0.4309  0.5355
  530MOL0     C69844   2.069   7.488   8.681 -0.4290 -0.3811 -0.6081
  530MOL0     N69845   2.084   7.415   8.557  1.3264 -0.2375  0.8602
  530MOL0     C69846   2.031   7.447   8.437  0.2727  0.0087 -0.4402
  530MOL0     C69847   2.053   7.342   8.350 -0.0480 -0.5202 -0.5083
  530MOL0     C69848   2.040   7.367   8.199  0.2609  0.0301 -0.7907
  530MOL0     C69849   2.089   7.503   8.128 -0.0185  0.1501 -0.5675
  530MOL0     C69850   2.123   7.481   7.976 -0.2524 -0.0615 -0.0628
  530MOL0     C69851   2.196   7.608   7.928  0.0821  0.3244 -0.0468
  530MOL0     O69852   2.114   7.722   7.927  0.3761 -0.1951 -0.0034
  530MOL0     C69853   2.152   7.831   7.850 -0.0647  1.1361 -0.0759
  530MOL0     C69854   2.093   7.851   7.725  0.3506  0.0716  0.5574
  530MOL0     C69855   2.139   7.946   7.632 -0.1313 -0.1333  0.1759
  530MOL0     C69856   2.244   8.035   7.671 -0.1325  0.4563 -1.0781
  530MOL0     C69857   2.307   8.133   7.578 -0.3397 -0.6711  0.0257
  530MOL0     O69858   2.289   8.122   7.441  0.0743 -0.4912  0.5530
  530MOL0     C69859   2.294   8.234   7.359  0.0838 -0.3558 -1.2315
  530MOL0     C69860   2.348   8.219   7.227 -0.4112 -0.0981 -1.2380
  530MOL0     C69861   2.360   8.324   7.135  0.4495  0.9270  1.4716
  530MOL0     C69862   2.308   8.447   7.172  0.2862 -0.7461 -0.5325
  530MOL0     O69863   2.308   8.561   7.094  0.6273 -0.0698 -0.2301
  530MOL0     C69864   2.296   8.559   6.951 -0.0280  0.3461  0.6036
  530MOL0     C69865   2.156   8.597   6.906  0.3484  0.5158 -0.9412
  530MOL0     C69866   2.120   8.748   6.912  0.6756  0.4125 -0.3232
  530MOL0     C69867   1.972   8.768   6.869 -0.0953  0.1372  0.2720
  530MOL0     C69868   1.939   8.913   6.863  0.6268 -0.8368 -0.0591
  530MOL0     C69869   1.782   8.930   6.862 -0.1630  0.7569 -0.4839
  530MOL0     C69870   1.735   9.071   6.880 -0.0807 -0.3674 -0.5184
  530MOL0     C69871   1.774   9.160   6.757  0.7013  0.7137 -0.3505
  530MOL0    Cl69872   1.688   9.307   6.783  0.0184 -0.2938  0.1487
  530MOL0     C69873   2.244   8.457   7.297 -0.3171 -0.5703  0.0408
  530MOL0     C69874   2.242   8.358   7.392  0.7522  0.0476 -1.0905
  530MOL0     O69875   2.355   8.231   7.634 -0.5996 -0.2856 -0.3759
  530MOL0     C69876   2.313   8.020   7.799  0.2350  1.3498 -0.3663
  530MOL0     C69877   2.259   7.922   7.890  0.0470 -0.2728  0.2838
  530MOL0     N69878   2.134   7.252   8.423  1.3634 -0.5337  0.3571
  530MOL0     N69879   2.149   7.301   8.543 -0.0544  0.2969 -0.6908
  530MOL0     C69880   2.863   7.930   9.370  0.3058  0.1835 -0.0095
  530MOL0     C69881   2.979   7.979   9.431 -0.3212  0.1642 -0.0299
  530MOL0     C69882   3.451   8.065   9.491 -0.0021  0.3497 -0.1708
  530MOL0     C69883   3.437   8.198   9.495 -0.1266  0.7619  1.3627
  530MOL0     C69884   3.532   8.285   9.546 -0.6412 -0.2745 -0.1025
  530MOL0     C69885   3.657   8.239   9.586 -0.3008  0.1959  0.0792
  530MOL0     O69886   3.745   8.330   9.622  0.0333  0.3420 -0.3289
  530MOL0     C69887   3.864   8.277   9.683  0.3627 -0.8026 -0.0636
  530MOL0     C69888   3.937   8.408   9.727 -0.1781 -0.0815  1.0264
  530MOL0     C69889   4.083   8.391   9.781  0.3081 -0.5819 -0.3896
  530MOL0     C69890   4.145   8.516   9.832  0.0306 -0.0922 -0.4161
  530MOL0     C69891   4.179   8.609   9.719  1.1193  0.1703  0.5577
  530MOL0     C69892   4.211   8.670   9.621 -0.5421 -0.9461  0.3593
  530MOL0     C69893   3.685   8.098   9.570 -0.2383  0.4090  1.3827
  530MOL0     C69894   3.577   8.011   9.533 -0.9181 -0.1939 -0.1018
  530MOL0     H69895   3.199   7.918   9.199 -0.6304  1.5482 -2.6944
  530MOL0     H69896   2.996   7.807   9.090  0.1949  1.3450 -0.6829
  530MOL0     H69897   2.824   7.660   9.086 -0.8449 -0.8582 -0.7457
  530MOL0     H69898   2.793   7.802   8.982 -0.8505 -1.4957 -1.1656
  530MOL0     H69899   2.567   7.655   9.121  0.0702 -2.3840  0.1451
  530MOL0     H69900   2.639   7.591   8.972  3.9624  0.0541  0.9220
  530MOL0     H69901   2.588   7.792   8.837 -2.6110  1.8098 -0.4972
  530MOL0     H69902   2.505   7.863   8.989 -3.3307 -3.1138  2.5769
  530MOL0     H69903   2.428   7.610   8.828 -3.9372 -0.7111 -1.6696
  530MOL0     H69904   2.367   7.657   8.984  0.4202  3.5691  0.4470
  530MOL0     H69905   2.329   7.811   8.723 -3.5028 -1.9277 -1.8194
  530MOL0     H69906   2.260   7.858   8.887 -0.1267  2.1575 -3.7149
  530MOL0     H69907   2.081   7.743   8.750 -0.3599 -1.8876 -1.6885
  530MOL0     H69908   2.126   7.666   8.893  2.0365  2.9191  1.5933
  530MOL0     H69909   2.258   7.574   8.621  1.3704 -0.0064  0.9109
  530MOL0     H69910   2.265   7.506   8.787  2.8370  1.7122 -0.3062
  530MOL0     H69911   1.982   7.548   8.655 -1.0544 -2.1542 -2.9699
  530MOL0     H69912   2.047   7.426   8.768  4.3083  0.2962  1.4136
  530MOL0     H69913   1.997   7.546   8.406 -1.0212 -0.0953  0.5776
  530MOL0     H69914   1.939   7.342   8.166  0.4979 -1.1900 -0.6499
  530MOL0     H69915   2.106   7.287   8.165  2.2611  0.7764  1.1079
  530MOL0     H69916   2.182   7.529   8.179  1.2188 -0.6217 -2.3417
  530MOL0     H69917   2.008   7.573   8.153 -0.9639 -1.7137  2.0807
  530MOL0     H69918   2.192   7.397   7.971  1.2675  1.0514  1.2093
  530MOL0     H69919   2.029   7.475   7.919  0.7808  1.3215 -2.0405
  530MOL0     H69920   2.246   7.590   7.833  2.5417  4.2770  0.2420
  530MOL0     H69921   2.282   7.626   7.994 -0.1556  1.0202  0.0865
  530MOL0     H69922   2.017   7.776   7.708  0.2438  0.8227 -3.0682
  530MOL0     H69923   2.096   7.956   7.533 -1.2697  0.0998  0.6729
  530MOL0     H69924   2.399   8.125   7.209  1.9358  1.1711 -1.7608
  530MOL0     H69925   2.403   8.310   7.036 -2.6185 -2.5368  0.3710
  530MOL0     H69926   2.331   8.465   6.908 -1.5318 -1.6091  3.3631
  530MOL0     H69927   2.365   8.634   6.911  0.4957  0.5095  1.7595
  530MOL0     H69928   2.087   8.542   6.971  0.5914 -0.3571 -1.4056
  530MOL0     H69929   2.135   8.571   6.801  0.8539  2.0654 -1.4499
  530MOL0     H69930   2.190   8.810   6.854  1.0849  2.1464  1.8720
  530MOL0     H69931   2.125   8.791   7.012 -1.5518 -1.9404  0.9221
  530MOL0     H69932   1.957   8.729   6.768 -0.1979  0.3661  0.1986
  530MOL0     H69933   1.910   8.725   6.948 -1.6458  2.9447  0.7037
  530MOL0     H69934   1.985   8.963   6.777  0.5507 -0.4729  0.1071
  530MOL0     H69935   1.969   8.964   6.955 -2.9171  2.6762 -0.5713
  530MOL0     H69936   1.753   8.870   6.949  0.8726  1.5034  0.4028
  530MOL0     H69937   1.733   8.891   6.772  1.8765 -1.8046 -0.6011
  530MOL0     H69938   1.627   9.072   6.893 -0.4320 -0.8784 -2.8906
  530MOL0     H69939   1.781   9.125   6.963 -0.9912 -1.3977  0.6932
  530MOL0     H69940   1.754   9.115   6.659  2.2607  1.1533 -0.9135
  530MOL0     H69941   1.883   9.169   6.766  0.6706  1.4287 -0.5952
  530MOL0     H69942   2.199   8.553   7.323 -0.6295 -0.8134  0.3964
  530MOL0     H69943   2.180   8.363   7.480  1.4958  3.0420 -0.6244
  530MOL0     H69944   2.396   8.084   7.828  0.5669  0.1689  1.4502
  530MOL0     H69945   2.303   7.897   7.986 -2.0174  1.7068  1.8789
  530MOL0     H69946   2.765   7.937   9.418  1.8682  1.9631  3.2563
  530MOL0     H69947   2.962   8.028   9.526 -2.1102  0.4920 -0.5001
  530MOL0     H69948   3.340   8.242   9.477  0.7892  2.5633  0.4778
  530MOL0     H69949   3.518   8.392   9.555 -1.3602 -0.2134 -1.6481
  530MOL0     H69950   3.923   8.215   9.615  1.0533 -0.0360 -0.1793
  530MOL0     H69951   3.832   8.211   9.764  2.2536 -2.3659 -0.5191
  530MOL0     H69952   3.934   8.485   9.648 -2.8831  1.8978  2.8457
  530MOL0     H69953   3.885   8.459   9.808 -0.6172  1.9169 -0.4208
  530MOL0     H69954   4.147   8.332   9.716  2.8177 -0.1086  1.5129
  530MOL0     H69955   4.071   8.327   9.869 -0.1723 -0.4966 -0.3882
  530MOL0     H69956   4.070   8.568   9.893  0.0269 -0.3981 -0.1594
  530MOL0     H69957   4.230   8.492   9.896  0.3335 -0.0272 -0.7913
  530MOL0     H69958   4.240   8.738   9.544  1.5933 -0.2593  1.6805
  530MOL0     H69959   3.773   8.037   9.592  1.4859  1.9760 -0.7100
  530MOL0     H69960   3.587   7.904   9.518  2.8218 -0.3363  2.3182
  531MOL0     O69961  11.207  10.816   5.967 -0.6636  0.2619  0.3419
  531MOL0     C69962  11.182  10.895   5.873  0.7999  0.1340  0.6690
  531MOL0     O69963  11.078  10.879   5.783 -0.3656  0.4311 -0.0215
  531MOL0     C69964  10.991  10.779   5.807  0.0636  0.8586 -0.4114
  531MOL0     C69965  10.994  10.672   5.716  0.6634 -0.1628  0.3275
  531MOL0     C69966  10.906  10.556   5.720 -0.2341 -0.0258 -0.5445
  531MOL0     C69967  10.811  10.558   5.837  0.5555  0.9186  1.3042
  531MOL0     O69968  10.736  10.452   5.872  0.2039 -0.2280  0.6684
  531MOL0     C69969  10.680  10.380   5.760  0.3829  0.4585 -0.9725
  531MOL0     C69970  10.562  10.302   5.812 -0.0286 -0.2820 -0.2330
  531MOL0     C69971  10.463  10.401   5.874  0.5963  0.0131  0.3892
  531MOL0     C69972  10.365  10.330   5.967 -0.1441  0.6961  0.0564
  531MOL0     C69973  10.277  10.222   5.900  0.1598  0.2765 -0.6376
  531MOL0     C69974  10.182  10.288   5.804  0.5361 -0.5684  0.2829
  531MOL0     C69975  10.045  10.232   5.807 -0.1760 -0.2717  0.1090
  531MOL0     C69976   9.977  10.286   5.936  0.4985  0.0631 -0.1776
  531MOL0     N69977   9.831  10.254   5.924 -0.8396 -0.6316 -0.0725
  531MOL0     C69978   9.743  10.322   5.850  1.0414 -0.6172 -0.4022
  531MOL0     C69979   9.629  10.244   5.858 -0.4627 -0.5932  0.0807
  531MOL0     C69980   9.499  10.256   5.771 -0.8299  0.0350  0.6787
  531MOL0     C69981   9.444  10.120   5.733 -0.2376 -0.1963  0.1773
  531MOL0     C69982   9.496  10.059   5.602  0.0118  0.4554 -0.5883
  531MOL0     C69983   9.649  10.055   5.589 -0.2487 -0.8557 -0.1925
  531MOL0     O69984   9.693  10.028   5.457  0.0813 -0.4121  0.5614
  531MOL0     C69985   9.824   9.997   5.430 -0.5673 -0.0626  0.1592
  531MOL0     C69986   9.938  10.015   5.520  0.1504 -0.1240  0.1475
  531MOL0     C69987  10.067   9.992   5.469  0.0890  0.3097  0.1011
  531MOL0     C69988  10.091   9.960   5.338 -1.2059 -0.2842 -0.7708
  531MOL0     C69989  10.225   9.940   5.286  0.5836 -1.6906 -0.1846
  531MOL0     O69990  10.314  10.034   5.315 -0.1934  1.1850 -0.3967
  531MOL0     C69991  10.442  10.009   5.272 -1.0858 -0.6891  0.3463
  531MOL0     C69992  10.530   9.948   5.356  0.3915  0.2143  0.4959
  531MOL0     C69993  10.659   9.910   5.307  0.3222  0.5616 -0.9134
  531MOL0     C69994  10.714   9.955   5.186  0.3540  0.1763 -0.1724
  531MOL0     O69995  10.827   9.899   5.133  0.5064  0.2886  0.3198
  531MOL0     C69996  10.866   9.937   5.000 -0.1956  1.1085  0.3787
  531MOL0     C69997  11.004   9.902   4.960  0.9545  0.3939 -0.0003
  531MOL0     C69998  11.107   9.996   5.023 -0.5938 -0.6363  0.0560
  531MOL0     C69999  11.251   9.952   4.993  0.4514 -0.2008  0.2634
  531MOL0     C70000  11.364  10.055   4.988  0.9664 -0.1231 -1.4792
  531MOL0     C70001  11.496  10.006   5.037  0.4297  0.4360 -0.3963
  531MOL0     C70002  11.626  10.095   5.040 -0.2344 -0.0300 -0.1154
  531MOL0     C70003  11.724  10.045   4.931  0.6594 -0.1341  0.1345
  531MOL0    Cl70004  11.652  10.090   4.789 -0.2431  0.0029 -0.0248
  531MOL0     C70005  10.620  10.027   5.106 -0.0785  0.2015 -0.5190
  531MOL0     C70006  10.493  10.046   5.145  0.5440 -0.5270 -0.2645
  531MOL0     O70007  10.242   9.866   5.192 -0.7222  0.8174 -0.9323
  531MOL0     C70008   9.981   9.939   5.255 -0.0385  0.1740  0.1585
  531MOL0     C70009   9.848   9.964   5.298 -0.9231 -0.1301  0.4531
  531MOL0     N70010   9.653  10.146   5.952 -0.2080  0.5149 -0.1493
  531MOL0     N70011   9.777  10.141   5.985  0.4615 -0.4479  0.6819
  531MOL0     C70012  10.799  10.672   5.926 -0.9738  0.4604  0.4231
  531MOL0     C70013  10.891  10.775   5.909 -0.1760 -0.5168  0.0831
  531MOL0     C70014  11.288  11.002   5.867  0.4902  0.1381  0.4738
  531MOL0     C70015  11.290  11.085   5.754  0.4332  0.1279 -0.5558
  531MOL0     C70016  11.386  11.187   5.725 -0.4051  0.2878  0.6081
  531MOL0     C70017  11.490  11.208   5.815  0.6119 -0.8408  0.2813
  531MOL0     O70018  11.594  11.304   5.804 -0.1327 -0.2212  0.0404
  531MOL0     C70019  11.576  11.408   5.719  0.4599 -1.1592  0.4285
  531MOL0     C70020  11.623  11.387   5.573  1.0944  0.2693 -0.1932
  531MOL0     C70021  11.620  11.526   5.503 -0.2027  0.3065 -0.2044
  531MOL0     C70022  11.679  11.521   5.364  0.2383 -1.0235 -0.0119
  531MOL0     C70023  11.627  11.621   5.266 -0.5541 -0.0956 -0.5542
  531MOL0     C70024  11.562  11.692   5.194 -1.1603  0.7225 -0.5033
  531MOL0     C70025  11.496  11.124   5.930 -0.4820 -1.0727 -0.6114
  531MOL0     C70026  11.398  11.020   5.949  0.7033  0.7817 -0.5750
  531MOL0     H70027  11.073  10.682   5.641  0.5253  2.7751  0.4742
  531MOL0     H70028  10.911  10.493   5.632  1.7918  1.4237 -1.5499
  531MOL0     H70029  10.760  10.311   5.731 -0.2751 -1.3677  1.2652
  531MOL0     H70030  10.640  10.440   5.678  2.0414  3.3699  0.1908
  531MOL0     H70031  10.596  10.233   5.889  0.8615  1.5212  1.0707
  531MOL0     H70032  10.519  10.249   5.727  3.8741 -1.3360 -1.7924
  531MOL0     H70033  10.409  10.451   5.793  1.6692 -0.9410 -0.9854
  531MOL0     H70034  10.513  10.485   5.923  0.0649  1.4108 -1.3290
  531MOL0     H70035  10.434  10.280   6.037 -0.3892  1.4366  0.8379
  531MOL0     H70036  10.288  10.394   6.012 -0.5682  0.7362 -0.7178
  531MOL0     H70037  10.211  10.170   5.970 -0.7139  4.0162  1.5700
  531MOL0     H70038  10.326  10.140   5.846  0.5439 -1.9103  2.7318
  531MOL0     H70039  10.224  10.291   5.703  1.6437 -0.4060  0.7327
  531MOL0     H70040  10.177  10.395   5.827  0.2852  0.4216 -3.5993
  531MOL0     H70041   9.989  10.262   5.718  0.7922 -0.0180 -0.4329
  531MOL0     H70042  10.055  10.123   5.799 -1.1482 -0.8463  4.3461
  531MOL0     H70043   9.975  10.395   5.943 -1.4149 -0.0409  1.9541
  531MOL0     H70044  10.014  10.231   6.022  0.7591 -2.3700 -1.7337
  531MOL0     H70045   9.757  10.405   5.781  1.3597 -3.0581 -3.5142
  531MOL0     H70046   9.511  10.320   5.683 -3.1811 -1.5139 -0.8673
  531MOL0     H70047   9.425  10.312   5.830 -1.3956  2.4034 -2.0671
  531MOL0     H70048   9.336  10.134   5.719 -0.1893 -0.4480 -0.4935
  531MOL0     H70049   9.465  10.051   5.816  2.2765  1.7810  1.3052
  531MOL0     H70050   9.460   9.958   5.579  3.4198 -0.6480 -1.5765
  531MOL0     H70051   9.458  10.132   5.530 -2.2117  0.6972  0.7099
  531MOL0     H70052   9.687   9.977   5.656  3.3450 -0.3908 -1.5031
  531MOL0     H70053   9.692  10.153   5.612 -2.4097  0.5143 -1.6422
  531MOL0     H70054   9.928  10.041   5.625  3.2789 -0.8502  0.7182
  531MOL0     H70055  10.155  10.021   5.525 -0.1293  1.3520 -0.0688
  531MOL0     H70056  10.496   9.925   5.457  0.9879  3.0470  1.4612
  531MOL0     H70057  10.735   9.872   5.374  0.1912  1.9712  0.0782
  531MOL0     H70058  10.846  10.045   4.993 -4.8101  0.5076  1.5888
  531MOL0     H70059  10.796   9.882   4.937  1.5972 -0.5478 -0.3018
  531MOL0     H70060  10.997   9.920   4.853 -1.3206 -0.4592 -0.0551
  531MOL0     H70061  11.018   9.796   4.982  0.3926  0.1902 -0.5832
  531MOL0     H70062  11.101  10.008   5.132  0.8893 -2.2906  0.3704
  531MOL0     H70063  11.097  10.101   4.993  1.4314  0.1102  1.7356
  531MOL0     H70064  11.273   9.870   5.063  0.8444  1.2985  1.9693
  531MOL0     H70065  11.245   9.918   4.889 -0.6954  2.3516 -0.5842
  531MOL0     H70066  11.328  10.127   5.063  1.6877 -0.2676 -0.9930
  531MOL0     H70067  11.371  10.101   4.889  0.8823  3.1078 -0.1118
  531MOL0     H70068  11.512   9.918   4.975  0.0721  0.4773 -0.5478
  531MOL0     H70069  11.481   9.982   5.143  3.2688  2.6210  0.6414
  531MOL0     H70070  11.602  10.199   5.015 -0.3122  0.1111  0.5147
  531MOL0     H70071  11.669  10.095   5.141 -1.9180 -1.8137  0.6650
  531MOL0     H70072  11.738   9.937   4.934  0.0147 -0.2362 -0.3208
  531MOL0     H70073  11.826  10.084   4.938  1.5240 -2.2718  0.0702
  531MOL0     H70074  10.635  10.059   5.003  1.2431 -1.1835 -0.7822
  531MOL0     H70075  10.429  10.105   5.080  0.8014 -2.6550 -2.6041
  531MOL0     H70076   9.998   9.905   5.154 -0.7858  0.8463 -0.2028
  531MOL0     H70077   9.761   9.947   5.235  0.5579 -2.2140 -1.1947
  531MOL0     H70078  10.730  10.670   6.009  0.8141 -4.9533  2.1573
  531MOL0     H70079  10.889  10.860   5.976  2.0978  0.9216 -1.4977
  531MOL0     H70080  11.210  11.078   5.681  0.7723  1.3948 -1.0872
  531MOL0     H70081  11.365  11.259   5.647  0.5001  0.5705  0.6122
  531MOL0     H70082  11.642  11.488   5.753 -0.5254  0.8159 -1.9464
  531MOL0     H70083  11.476  11.453   5.729  0.8222 -0.0807 -0.5973
  531MOL0     H70084  11.725  11.348   5.566  0.7258 -0.9257  0.7851
  531MOL0     H70085  11.554  11.318   5.523  0.2885  0.3667  0.7650
  531MOL0     H70086  11.679  11.596   5.563  0.8207  0.9214 -1.8771
  531MOL0     H70087  11.514  11.553   5.493 -0.4418 -1.1096 -1.8350
  531MOL0     H70088  11.787  11.537   5.371 -0.2901  3.0199  1.3511
  531MOL0     H70089  11.662  11.422   5.321 -0.0932 -0.2082 -1.8218
  531MOL0     H70090  11.526  11.769   5.129  1.4697  2.1712 -0.4012
  531MOL0     H70091  11.589  11.135   5.985 -0.9277 -1.9813  0.3722
  531MOL0     H70092  11.418  10.959   6.037 -3.4207 -0.7218 -0.4950
  532MOL0     O70093   2.016   0.533   4.698  0.0895 -0.5387  0.2840
  532MOL0     C70094   2.020   0.654   4.691  0.0473 -0.9840  0.6327
  532MOL0     O70095   1.941   0.732   4.618 -0.6225  0.2782 -0.2903
  532MOL0     C70096   1.822   0.675   4.590 -0.4069 -0.5442  0.8571
  532MOL0     C70097   1.786   0.646   4.464  0.1151 -1.2053  0.0613
  532MOL0     C70098   1.655   0.604   4.433  0.8109  0.2523  0.6972
  532MOL0     C70099   1.563   0.585   4.534  0.8645  0.5016 -0.5786
  532MOL0     O70100   1.433   0.535   4.495 -0.2947 -0.4918 -0.9961
  532MOL0     C70101   1.359   0.443   4.579 -0.1536  0.4885  0.8670
  532MOL0     C70102   1.342   0.315   4.507 -0.2004 -0.9989  0.5524
  532MOL0     C70103   1.470   0.241   4.481 -0.7454 -0.0991  0.2918
  532MOL0     C70104   1.442   0.091   4.492  0.1348  0.0667 -0.5822
  532MOL0     C70105   1.555   0.001   4.440 -0.8874 -0.4371  0.4017
  532MOL0     C70106   1.495  -0.136   4.446  0.3610  0.1907 -0.7384
  532MOL0     C70107   1.595  -0.247   4.411  0.6859  0.0330  0.9745
  532MOL0     C70108   1.653  -0.284   4.545  0.2664  0.7385  0.7379
  532MOL0     N70109   1.750  -0.401   4.524  0.2682 -0.3479  0.6676
  532MOL0     C70110   1.759  -0.525   4.588  0.3384  0.4671 -0.5273
  532MOL0     C70111   1.871  -0.593   4.537  0.9565 -0.7379 -1.3650
  532MOL0     C70112   1.922  -0.732   4.568 -0.0081  0.2682 -0.1697
  532MOL0     C70113   1.845  -0.858   4.503 -0.1084 -0.6233 -0.2056
  532MOL0     C70114   1.912  -0.986   4.565  0.9393 -1.9099 -0.4837
  532MOL0     C70115   1.863  -1.112   4.501 -0.7885 -1.0026  0.2217
  532MOL0     O70116   1.903  -1.119   4.366  0.1923 -0.4569  0.0220
  532MOL0     C70117   1.843  -1.211   4.288  0.8478  0.3031  0.9804
  532MOL0     C70118   1.796  -1.342   4.324  0.6957 -0.8190  0.6299
  532MOL0     C70119   1.741  -1.438   4.229 -0.1641 -0.3855 -0.6016
  532MOL0     C70120   1.722  -1.395   4.100  0.1331  1.0421  0.5276
  532MOL0     C70121   1.650  -1.475   4.001 -0.2591  0.5990 -0.0668
  532MOL0     O70122   1.656  -1.423   3.877  0.1588 -0.2805  0.0021
  532MOL0     C70123   1.588  -1.481   3.772 -0.6133 -0.4855  0.2864
  532MOL0     C70124   1.459  -1.454   3.740 -0.9565  0.3689 -1.0302
  532MOL0     C70125   1.402  -1.532   3.636  0.0350 -0.2092  0.2345
  532MOL0     C70126   1.462  -1.642   3.577 -0.4861 -0.5747 -0.0350
  532MOL0     O70127   1.386  -1.702   3.484 -0.4386 -0.4132 -0.4248
  532MOL0     C70128   1.373  -1.846   3.503 -0.1239 -0.1478 -0.7882
  532MOL0     C70129   1.432  -1.922   3.375  0.3885  0.0779 -0.0944
  532MOL0     C70130   1.361  -1.892   3.242 -0.7533  0.5119  0.0266
  532MOL0     C70131   1.214  -1.935   3.236 -0.3206  0.3855 -0.4169
  532MOL0     C70132   1.158  -1.931   3.084  0.6502 -0.3389 -0.9622
  532MOL0     C70133   1.010  -1.990   3.098 -0.5617  0.0998 -0.0652
  532MOL0     C70134   0.996  -2.137   3.097 -0.2986  0.4636 -0.4793
  532MOL0     C70135   0.901  -2.189   3.207 -0.4781 -0.0473  0.6983
  532MOL0    Cl70136   0.917  -2.363   3.203 -0.3431  0.2269  0.0310
  532MOL0     C70137   1.595  -1.675   3.625  0.0565 -0.1928 -0.4507
  532MOL0     C70138   1.660  -1.587   3.717  0.9927 -0.2884  0.7641
  532MOL0     O70139   1.591  -1.571   4.035  0.1975  0.0893  0.7160
  532MOL0     C70140   1.768  -1.266   4.059 -0.4332  0.4192 -0.5251
  532MOL0     C70141   1.827  -1.183   4.155 -1.1023  0.1099 -0.1966
  532MOL0     N70142   1.918  -0.517   4.433 -1.2618 -0.6517  0.2609
  532MOL0     N70143   1.847  -0.411   4.429  0.1046 -0.6027 -0.0855
  532MOL0     C70144   1.595   0.627   4.672  0.2699 -0.0821  0.4833
  532MOL0     C70145   1.727   0.664   4.697  0.0806 -0.6912 -1.2508
  532MOL0     C70146   2.124   0.739   4.759  1.0979  0.3626  0.1412
  532MOL0     C70147   2.136   0.882   4.734 -0.2669  0.1698  0.2454
  532MOL0     C70148   2.223   0.952   4.813 -0.5670  0.3349 -0.7931
  532MOL0     C70149   2.297   0.894   4.911 -0.2436  0.7690  0.5258
  532MOL0     O70150   2.375   0.983   4.990  0.7398 -0.3082 -0.9455
  532MOL0     C70151   2.489   0.927   5.054 -0.8987  0.4086 -0.4211
  532MOL0     C70152   2.583   1.046   5.098 -0.2602  0.1786  0.0622
  532MOL0     C70153   2.659   1.126   4.991 -0.7985  0.1766 -0.0123
  532MOL0     C70154   2.763   1.219   5.045  0.0947  0.2021 -0.7067
  532MOL0     C70155   2.706   1.340   5.102  0.8675  0.6079  1.8575
  532MOL0     C70156   2.649   1.435   5.148 -0.4616 -0.3316  0.4190
  532MOL0     C70157   2.293   0.758   4.926  0.2663  0.1531 -0.5173
  532MOL0     C70158   2.202   0.679   4.857 -0.1595 -0.5594 -0.5721
  532MOL0     H70159   1.856   0.671   4.385  2.0828 -0.5635  1.9298
  532MOL0     H70160   1.632   0.585   4.328  1.9719  3.2899 -0.1910
  532MOL0     H70161   1.257   0.479   4.594 -1.1135 -1.1979 -1.0692
  532MOL0     H70162   1.403   0.431   4.678  1.4120 -1.2989  0.0432
  532MOL0     H70163   1.297   0.347   4.413  2.1507 -0.0219 -0.3308
  532MOL0     H70164   1.273   0.239   4.546 -1.5776 -0.1995 -0.2756
  532MOL0     H70165   1.545   0.277   4.553  0.2321  2.0788 -1.6777
  532MOL0     H70166   1.503   0.272   4.382  0.9213  0.8800  1.1108
  532MOL0     H70167   1.419   0.060   4.594 -1.7539 -0.9445 -1.2761
  532MOL0     H70168   1.347   0.068   4.444 -2.2569  1.2031  3.1655
  532MOL0     H70169   1.649   0.034   4.487 -2.7074  3.3920  1.7828
  532MOL0     H70170   1.561   0.023   4.333 -2.1503  0.3365  0.4783
  532MOL0     H70171   1.409  -0.129   4.379 -2.0494  0.2240  2.1489
  532MOL0     H70172   1.453  -0.149   4.546  0.3901  1.3429 -0.5580
  532MOL0     H70173   1.533  -0.334   4.387 -0.9639  1.4664 -0.2375
  532MOL0     H70174   1.669  -0.226   4.334  2.2473  0.4227  2.5277
  532MOL0     H70175   1.576  -0.323   4.611  1.3677 -3.4833 -0.1791
  532MOL0     H70176   1.693  -0.207   4.612 -1.9935  1.0870  1.7816
  532MOL0     H70177   1.683  -0.555   4.660 -1.1185 -1.1309 -2.5875
  532MOL0     H70178   1.930  -0.736   4.677  2.6844  1.1345 -0.2801
  532MOL0     H70179   2.025  -0.741   4.535  0.4963 -0.6490  1.5811
  532MOL0     H70180   1.847  -0.866   4.394  0.1820  1.8339 -0.4290
  532MOL0     H70181   1.739  -0.847   4.526 -0.2511 -0.0988 -1.0928
  532MOL0     H70182   2.019  -0.987   4.545  1.3295 -3.3584  1.4372
  532MOL0     H70183   1.904  -0.976   4.674  2.6510 -1.3227 -0.3916
  532MOL0     H70184   1.754  -1.104   4.506 -0.7454  0.2744 -0.4140
  532MOL0     H70185   1.878  -1.199   4.565  0.7136 -2.3005 -1.8009
  532MOL0     H70186   1.800  -1.376   4.427  1.5072 -1.9261  0.2508
  532MOL0     H70187   1.704  -1.535   4.261 -3.9745  1.3798  1.0931
  532MOL0     H70188   1.424  -1.366   3.794 -1.5090 -0.2659 -0.3476
  532MOL0     H70189   1.302  -1.498   3.612 -0.1153  0.0615  1.1933
  532MOL0     H70190   1.267  -1.872   3.505 -0.5759  1.5697 -0.5038
  532MOL0     H70191   1.414  -1.876   3.600 -3.2348  1.6205  1.2722
  532MOL0     H70192   1.429  -2.030   3.390  0.1203  0.4023  2.5487
  532MOL0     H70193   1.540  -1.909   3.365  0.5837 -2.8227 -5.3284
  532MOL0     H70194   1.431  -1.950   3.181  2.1085  0.8208  2.7802
  532MOL0     H70195   1.382  -1.786   3.223 -0.3452  0.6162  0.9945
  532MOL0     H70196   1.181  -2.029   3.281  1.5484 -0.1305 -0.0703
  532MOL0     H70197   1.156  -1.852   3.278 -2.8158  0.4960 -3.6825
  532MOL0     H70198   1.223  -1.998   3.028 -1.2253 -1.7477 -1.5852
  532MOL0     H70199   1.158  -1.826   3.053 -3.9417  0.1998  0.1160
  532MOL0     H70200   0.950  -1.947   3.016 -2.8287  3.2836  2.9465
  532MOL0     H70201   0.965  -1.941   3.185  1.0618 -0.9096  1.4030
  532MOL0     H70202   0.957  -2.174   3.002 -0.2775  0.3495 -0.4434
  532MOL0     H70203   1.095  -2.181   3.113 -1.0297 -1.7122 -1.6625
  532MOL0     H70204   0.801  -2.162   3.170  0.2150 -1.4634 -2.5226
  532MOL0     H70205   0.918  -2.152   3.309 -2.7747  0.3233  1.0209
  532MOL0     H70206   1.628  -1.771   3.587  2.6190 -0.7834  2.7937
  532MOL0     H70207   1.761  -1.609   3.749  1.8040 -2.0156 -2.5530
  532MOL0     H70208   1.759  -1.234   3.956  3.6284 -0.2402 -1.2575
  532MOL0     H70209   1.858  -1.089   4.109 -0.7047 -0.1954 -0.5684
  532MOL0     H70210   1.512   0.633   4.742 -1.2427  1.4231 -1.3287
  532MOL0     H70211   1.760   0.688   4.798 -0.7933 -1.6235 -0.7385
  532MOL0     H70212   2.068   0.929   4.663  0.4925  1.6760  0.4626
  532MOL0     H70213   2.223   1.060   4.808 -1.1594  0.4013  0.2902
  532MOL0     H70214   2.550   0.868   4.984  0.9092  1.6210  0.0654
  532MOL0     H70215   2.468   0.863   5.140 -0.7979  1.5376  0.4513
  532MOL0     H70216   2.514   1.106   5.158 -0.0410 -2.1828  2.8650
  532MOL0     H70217   2.648   1.008   5.177 -2.1174  0.1343  1.6213
  532MOL0     H70218   2.591   1.173   4.919 -2.2818  0.2057  1.3712
  532MOL0     H70219   2.720   1.043   4.952  0.4914  0.4736  1.2777
  532MOL0     H70220   2.818   1.176   5.129 -3.2047  0.4526  1.8102
  532MOL0     H70221   2.833   1.262   4.973  2.9205 -1.5579  0.7945
  532MOL0     H70222   2.591   1.514   5.192 -0.2765 -0.4716  0.9165
  532MOL0     H70223   2.360   0.714   4.998  1.0547 -0.8077 -1.7910
  532MOL0     H70224   2.202   0.571   4.866  1.1335 -0.7787 -2.7376
  533MOL0     O70225   5.986   4.332   1.341 -0.6332 -0.5112 -0.0145
  533MOL0     C70226   6.036   4.265   1.427  0.0218  0.2993 -0.4265
  533MOL0     O70227   6.063   4.305   1.553 -0.2764 -0.4729 -0.2672
  533MOL0     C70228   6.056   4.443   1.578 -0.0368  0.3312  0.1117
  533MOL0     C70229   6.164   4.524   1.547  1.0683 -0.3138 -0.8236
  533MOL0     C70230   6.152   4.665   1.572  0.1545  0.2755  0.3125
  533MOL0     C70231   6.043   4.720   1.629 -0.8504 -0.6323 -0.5813
  533MOL0     O70232   6.040   4.855   1.665  0.1972  0.0752 -0.8326
  533MOL0     C70233   6.148   4.945   1.609 -0.1291  0.8665 -0.0964
  533MOL0     C70234   6.267   4.959   1.703  0.0499 -0.4080 -0.7141
  533MOL0     C70235   6.387   5.031   1.636  0.4412  0.1771 -0.4764
  533MOL0     C70236   6.510   5.036   1.729  0.2422  0.3662 -0.9124
  533MOL0     C70237   6.476   5.057   1.887  0.7922  0.4314 -0.2709
  533MOL0     C70238   6.584   5.120   1.975 -0.1515 -0.5960 -0.0761
  533MOL0     C70239   6.555   5.111   2.128 -0.2860 -1.4058 -0.2556
  533MOL0     C70240   6.429   5.173   2.184  0.2360 -0.5384 -0.4021
  533MOL0     N70241   6.303   5.106   2.156  0.4121 -0.4172  0.4383
  533MOL0     C70242   6.276   4.979   2.223 -0.0915 -0.1580  0.4502
  533MOL0     C70243   6.162   4.941   2.173  0.3464 -0.8802 -1.0717
  533MOL0     C70244   6.081   4.827   2.237  0.0142  0.0388  0.5082
  533MOL0     C70245   6.150   4.693   2.199 -0.1509  0.1324  0.8211
  533MOL0     C70246   6.099   4.581   2.285 -0.9440 -0.4135  0.8845
  533MOL0     C70247   6.135   4.448   2.213 -0.2003 -0.6841 -0.8085
  533MOL0     O70248   6.270   4.439   2.173 -0.0750 -0.1860 -0.0860
  533MOL0     C70249   6.285   4.343   2.080  0.3274  0.4287 -0.3337
  533MOL0     C70250   6.242   4.341   1.949  0.8303 -0.3839 -0.3674
  533MOL0     C70251   6.240   4.225   1.873  0.3919 -0.3022  0.7309
  533MOL0     C70252   6.304   4.111   1.927  1.1286  0.2893  1.0371
  533MOL0     C70253   6.320   3.991   1.839  0.4383  0.5594  0.4274
  533MOL0     O70254   6.427   3.920   1.843 -0.5782 -0.2974  0.2916
  533MOL0     C70255   6.453   3.812   1.754  0.9849 -0.6976 -0.2355
  533MOL0     C70256   6.366   3.708   1.735  0.4848  0.8884 -0.2008
  533MOL0     C70257   6.407   3.592   1.655  0.4068 -0.8176 -0.1760
  533MOL0     C70258   6.537   3.598   1.605 -1.5079 -0.1164  0.1888
  533MOL0     O70259   6.577   3.512   1.502 -0.4436  0.5637 -0.0491
  533MOL0     C70260   6.623   3.379   1.543  1.1344  0.1187 -0.6155
  533MOL0     C70261   6.594   3.268   1.439 -0.3895  0.1966 -0.3691
  533MOL0     C70262   6.577   3.132   1.506  0.2729  0.0172 -0.1091
  533MOL0     C70263   6.687   3.104   1.601 -0.3881  0.6416  0.2133
  533MOL0     C70264   6.658   2.977   1.666 -0.5258  0.0002 -0.3644
  533MOL0     C70265   6.772   2.927   1.764  0.4892  0.2197 -0.2706
  533MOL0     C70266   6.784   3.019   1.880 -0.8654  0.2400 -0.2277
  533MOL0     C70267   6.847   2.934   1.997  0.2509  1.2877 -0.4507
  533MOL0    Cl70268   6.858   3.048   2.130 -0.4525  0.0833 -0.3820
  533MOL0     C70269   6.620   3.713   1.614  0.6147 -0.4629  1.0403
  533MOL0     C70270   6.578   3.815   1.690 -0.6822 -0.2311 -1.0074
  533MOL0     O70271   6.223   3.967   1.766 -0.8079 -0.3546  0.4215
  533MOL0     C70272   6.338   4.108   2.057  0.8090 -0.7180  0.2013
  533MOL0     C70273   6.336   4.221   2.134  1.4022 -0.7100  0.6343
  533MOL0     N70274   6.110   5.046   2.093 -0.2145 -0.0709  0.0786
  533MOL0     N70275   6.202   5.134   2.065 -1.1433 -0.6794 -0.2265
  533MOL0     C70276   5.932   4.635   1.644 -0.1338 -0.3001  0.9027
  533MOL0     C70277   5.940   4.501   1.618  0.3676  0.2209  0.7531
  533MOL0     C70278   6.065   4.122   1.383 -0.7511 -0.6117 -0.4212
  533MOL0     C70279   6.159   4.054   1.466  0.7789 -0.8477 -0.0842
  533MOL0     C70280   6.220   3.944   1.409  0.2821 -0.3115  0.3366
  533MOL0     C70281   6.179   3.899   1.281  0.1164  0.2997 -0.7196
  533MOL0     O70282   6.218   3.780   1.223 -0.8704 -0.2951 -0.2637
  533MOL0     C70283   6.190   3.664   1.309  0.5575  0.4232 -1.4588
  533MOL0     C70284   6.299   3.554   1.278 -0.1499 -0.8132  0.6607
  533MOL0     C70285   6.333   3.514   1.129  0.3817  0.2729  0.4819
  533MOL0     C70286   6.221   3.438   1.053  0.4292 -0.1715 -0.0720
  533MOL0     C70287   6.181   3.320   1.134 -0.8384 -0.4348 -0.0755
  533MOL0     C70288   6.132   3.222   1.180 -0.2235  0.4929  0.2027
  533MOL0     C70289   6.086   3.972   1.209  0.7242  0.0456 -0.0261
  533MOL0     C70290   6.017   4.082   1.260 -0.5429  0.3590  0.0833
  533MOL0     H70291   6.256   4.472   1.521 -0.5623 -4.2276  0.5507
  533MOL0     H70292   6.243   4.717   1.546  3.3173 -4.0858  1.5497
  533MOL0     H70293   6.101   5.039   1.580  0.2001  0.2471 -2.8978
  533MOL0     H70294   6.172   4.909   1.509  0.0487 -0.4959  0.4204
  533MOL0     H70295   6.285   4.855   1.733 -1.1286 -0.5023 -0.2514
  533MOL0     H70296   6.239   5.012   1.795  1.4504 -0.6911 -0.1049
  533MOL0     H70297   6.365   5.133   1.604 -1.6305 -1.0751 -3.4141
  533MOL0     H70298   6.417   4.991   1.539  1.7207  0.9906 -0.4436
  533MOL0     H70299   6.554   4.937   1.715  1.9725  0.1224  4.0954
  533MOL0     H70300   6.580   5.114   1.699  0.7406  1.0930  1.8579
  533MOL0     H70301   6.466   4.956   1.926 -2.4257 -0.3001 -2.5482
  533MOL0     H70302   6.386   5.119   1.892  2.0797  2.5944 -2.0498
  533MOL0     H70303   6.586   5.224   1.939  0.4707 -1.0348 -1.3560
  533MOL0     H70304   6.678   5.090   1.930 -1.7263 -0.7966 -3.5782
  533MOL0     H70305   6.548   5.004   2.151  0.4754 -0.9700  2.3878
  533MOL0     H70306   6.638   5.150   2.188 -2.0559  1.8207  0.3422
  533MOL0     H70307   6.407   5.263   2.126 -0.7349  0.4791  1.4532
  533MOL0     H70308   6.444   5.197   2.290 -2.6231 -0.6956  0.1083
  533MOL0     H70309   6.339   4.935   2.300 -0.6775 -0.3820  0.8057
  533MOL0     H70310   5.981   4.841   2.196 -1.0995  1.6663  3.5014
  533MOL0     H70311   6.073   4.848   2.344 -3.9071 -1.4313  0.6378
  533MOL0     H70312   6.259   4.699   2.210 -0.1502 -0.4104  1.1902
  533MOL0     H70313   6.121   4.670   2.096 -3.6619  1.5350  1.3465
  533MOL0     H70314   6.135   4.603   2.385  0.9561  1.5769 -0.1458
  533MOL0     H70315   5.991   4.597   2.293 -0.9127  3.5848 -2.9049
  533MOL0     H70316   6.075   4.446   2.122  1.0777 -2.0500 -1.6556
  533MOL0     H70317   6.102   4.366   2.277  1.5598  2.0734  4.1912
  533MOL0     H70318   6.206   4.433   1.903  1.2977 -0.6631 -1.3171
  533MOL0     H70319   6.197   4.215   1.774 -1.4687 -0.9706  1.5739
  533MOL0     H70320   6.268   3.721   1.780  1.6978  2.6337  2.1663
  533MOL0     H70321   6.332   3.522   1.620 -0.4609  0.7349 -1.5714
  533MOL0     H70322   6.566   3.351   1.631  2.7219 -1.4251 -0.0207
  533MOL0     H70323   6.728   3.386   1.576  0.9217  0.4398  0.0033
  533MOL0     H70324   6.682   3.271   1.374 -0.1911  1.4497 -0.0760
  533MOL0     H70325   6.504   3.296   1.384 -0.1062  2.7772  0.3209
  533MOL0     H70326   6.552   3.058   1.430 -0.2808  0.6658 -0.5765
  533MOL0     H70327   6.487   3.144   1.568 -0.0218 -0.4963 -0.4366
  533MOL0     H70328   6.786   3.104   1.554 -0.2670  1.7515  0.4310
  533MOL0     H70329   6.686   3.178   1.682 -2.5126 -0.3915  1.2243
  533MOL0     H70330   6.638   2.909   1.583 -3.0167 -1.3234  1.2189
  533MOL0     H70331   6.566   3.000   1.719  1.0786  1.4563  2.0107
  533MOL0     H70332   6.864   2.929   1.705  0.7840 -0.0795  0.1694
  533MOL0     H70333   6.746   2.826   1.798  1.1304  0.6344  1.5363
  533MOL0     H70334   6.843   3.110   1.867  0.5700 -0.7665 -1.0393
  533MOL0     H70335   6.681   3.048   1.903 -1.1816 -0.9517 -0.1118
  533MOL0     H70336   6.949   2.907   1.966  1.8775  4.0195  2.0127
  533MOL0     H70337   6.781   2.858   2.041 -0.1706  1.8051 -0.1852
  533MOL0     H70338   6.704   3.733   1.548 -0.6371  3.0122  0.2700
  533MOL0     H70339   6.636   3.905   1.710 -0.8796  0.3005 -2.7120
  533MOL0     H70340   6.391   4.023   2.097 -2.6298 -1.7005  3.1977
  533MOL0     H70341   6.344   4.205   2.241  3.9906  0.8144  0.7461
  533MOL0     H70342   5.831   4.667   1.669 -0.0553  2.4707 -1.7415
  533MOL0     H70343   5.847   4.449   1.601  1.3753 -0.4132 -4.3555
  533MOL0     H70344   6.190   4.085   1.565 -0.0733 -1.1460  0.2862
  533MOL0     H70345   6.278   3.881   1.475 -0.3876  1.0959  2.3692
  533MOL0     H70346   6.090   3.625   1.292  0.4833  0.0364 -0.2446
  533MOL0     H70347   6.196   3.698   1.413  0.7545  0.4277 -1.4705
  533MOL0     H70348   6.393   3.583   1.326 -0.8327  2.7702  0.1351
  533MOL0     H70349   6.254   3.476   1.339  1.7018  0.5209  4.0374
  533MOL0     H70350   6.422   3.451   1.136 -0.4676 -0.9860  0.1579
  533MOL0     H70351   6.350   3.608   1.077  1.2539  1.6036  2.9703
  533MOL0     H70352   6.140   3.511   1.047 -1.0046 -1.6712  0.3392
  533MOL0     H70353   6.240   3.409   0.950  2.7773  0.7895  0.0334
  533MOL0     H70354   6.079   3.129   1.187  1.9312 -0.8324  0.1038
  533MOL0     H70355   6.059   3.925   1.114 -0.1441 -0.1760  0.3193
  533MOL0     H70356   5.952   4.143   1.198 -2.0668  1.2142  2.4063
  534MOL0     O70357   8.022  10.917  10.070  0.1377  0.7670  0.0207
  534MOL0     C70358   8.129  10.866  10.110  0.2987  0.0110 -0.1117
  534MOL0     O70359   8.135  10.757  10.189  0.3619  0.6550  0.6393
  534MOL0     C70360   8.019  10.715  10.240  0.4497  0.6354  0.0545
  534MOL0     C70361   7.995  10.577  10.214  0.4858  0.9089 -0.7000
  534MOL0     C70362   7.876  10.525  10.278 -0.7025 -0.6008  0.0629
  534MOL0     C70363   7.787  10.606  10.359 -0.1223  1.4186 -0.4638
  534MOL0     O70364   7.680  10.542  10.423 -0.1132 -0.1487 -0.4852
  534MOL0     C70365   7.602  10.437  10.365 -0.8006  0.7719 -0.2338
  534MOL0     C70366   7.509  10.466  10.251 -0.2036 -0.0351  0.4090
  534MOL0     C70367   7.428  10.334  10.218 -0.6506  1.5532 -0.2964
  534MOL0     C70368   7.332  10.279  10.323  0.0609 -0.1617 -0.6086
  534MOL0     C70369   7.245  10.393  10.376 -0.0286 -0.3893  0.3675
  534MOL0     C70370   7.105  10.338  10.430  0.3111 -0.1801  0.8692
  534MOL0     C70371   7.009  10.457  10.468 -0.4302  0.3738  0.2345
  534MOL0     C70372   7.075  10.573  10.549 -0.1022  0.1832 -0.2899
  534MOL0     N70373   6.982  10.670  10.607  0.0621  1.1982 -0.0511
  534MOL0     C70374   6.964  10.680  10.743 -0.0701 -0.7795  0.2146
  534MOL0     C70375   6.879  10.790  10.754  0.6379  0.0708  0.2534
  534MOL0     C70376   6.859  10.881  10.871  0.1931 -0.1200  0.3773
  534MOL0     C70377   6.876  10.810  11.002 -0.0648 -1.0591  1.0510
  534MOL0     C70378   6.886  10.917  11.105  0.3157 -0.2876 -0.0871
  534MOL0     C70379   6.846  10.851  11.241 -0.3565 -0.1181  0.5009
  534MOL0     O70380   6.859  10.931  11.354 -0.6113  0.4118 -0.8357
  534MOL0     C70381   6.845  10.862  11.473  0.0123  0.4417 -0.6219
  534MOL0     C70382   6.905  10.919  11.591  0.6751  0.2136  0.4424
  534MOL0     C70383   6.908  10.861  11.719  0.1378  0.3957  0.0219
  534MOL0     C70384   6.849  10.734  11.728 -0.4264 -0.4524 -1.1738
  534MOL0     C70385   6.853  10.671  11.864  0.7374 -0.4773 -0.2165
  534MOL0     O70386   6.797  10.549  11.864  0.3904 -0.8463  0.1261
  534MOL0     C70387   6.812  10.468  11.981 -0.5224  0.8244 -1.0393
  534MOL0     C70388   6.945  10.434  12.007  0.1896 -0.0895 -0.6209
  534MOL0     C70389   6.976  10.341  12.109  0.0342  0.7001 -0.3680
  534MOL0     C70390   6.878  10.269  12.184 -1.2738  0.3041  0.2375
  534MOL0     O70391   6.911  10.190  12.295 -0.3641  0.0627 -0.2565
  534MOL0     C70392   7.044  10.154  12.329 -0.1877  0.0532 -0.4650
  534MOL0     C70393   7.093  10.049  12.233 -0.5302  0.1508 -0.5037
  534MOL0     C70394   7.030   9.919  12.260 -0.0436  0.6167  0.3760
  534MOL0     C70395   7.057   9.849  12.384 -0.7304 -0.1196 -0.9460
  534MOL0     C70396   6.997   9.704  12.399 -0.0062 -0.3760 -0.0006
  534MOL0     C70397   7.105   9.594  12.425  0.6294  0.4442 -1.0622
  534MOL0     C70398   7.193   9.552  12.302  0.6894  0.8666 -0.3720
  534MOL0     C70399   7.308   9.454  12.340 -0.5821  0.7683  0.2217
  534MOL0    Cl70400   7.272   9.280  12.371  0.1716 -0.0483  0.2100
  534MOL0     C70401   6.745  10.303  12.157 -0.5054 -0.2848  0.0267
  534MOL0     C70402   6.707  10.406  12.062  0.3040 -0.0535 -0.3370
  534MOL0     O70403   6.913  10.727  11.955  0.0687  0.3825  0.2851
  534MOL0     C70404   6.791  10.674  11.618 -0.5320  1.0813  1.0987
  534MOL0     C70405   6.786  10.735  11.497 -0.4504  0.0580  1.3776
  534MOL0     N70406   6.835  10.823  10.625 -0.6134 -0.9650 -0.4754
  534MOL0     N70407   6.902  10.753  10.533  0.8557  0.0848 -1.3092
  534MOL0     C70408   7.824  10.738  10.377 -0.4029 -0.4859 -0.0571
  534MOL0     C70409   7.938  10.794  10.319  0.8311 -0.2521  0.1571
  534MOL0     C70410   8.256  10.934  10.066 -0.2715  0.1823 -0.0301
  534MOL0     C70411   8.372  10.858  10.087  0.2032 -0.8520  0.5558
  534MOL0     C70412   8.497  10.921  10.063 -1.1827 -0.2056  0.2452
  534MOL0     C70413   8.509  11.060  10.041  0.2396 -0.5900 -1.3969
  534MOL0     O70414   8.627  11.135  10.025  0.9116 -0.2443  0.0621
  534MOL0     C70415   8.734  11.062   9.979 -0.5443  0.1770  0.4863
  534MOL0     C70416   8.860  11.147   9.975  1.0280  0.3703 -0.3647
  534MOL0     C70417   8.982  11.069   9.926 -0.2830 -0.7215  0.2018
  534MOL0     C70418   9.097  11.172   9.877 -0.5918 -0.1676  0.0471
  534MOL0     C70419   9.133  11.172   9.737 -0.0231  0.0078  0.9225
  534MOL0     C70420   9.140  11.185   9.618 -1.1471  0.2215  0.3539
  534MOL0     C70421   8.386  11.138  10.043 -0.7372 -0.3762  0.0997
  534MOL0     C70422   8.262  11.072  10.050  0.7046  0.0245  0.1553
  534MOL0     H70423   8.061  10.523  10.146 -1.5379  0.2284 -2.2175
  534MOL0     H70424   7.860  10.422  10.247 -1.3887  0.0817 -1.9989
  534MOL0     H70425   7.543  10.396  10.447 -1.7660  3.8841  0.7454
  534MOL0     H70426   7.673  10.363  10.327  0.0577  0.7308  1.3605
  534MOL0     H70427   7.570  10.491  10.164 -0.7877 -0.6561 -0.1853
  534MOL0     H70428   7.460  10.557  10.288  0.7953  0.3180  0.9064
  534MOL0     H70429   7.497  10.257  10.181 -0.3069  1.6627  0.1085
  534MOL0     H70430   7.366  10.361  10.132  0.5915  1.0018 -1.4128
  534MOL0     H70431   7.269  10.199  10.282 -1.7355 -0.1907  1.9672
  534MOL0     H70432   7.396  10.241  10.403 -0.3120  0.4882  0.0057
  534MOL0     H70433   7.226  10.470  10.300 -0.9358 -0.3298  0.6445
  534MOL0     H70434   7.291  10.448  10.458 -1.0306  2.0383 -0.6010
  534MOL0     H70435   7.123  10.273  10.516  1.5797  0.9995  1.5450
  534MOL0     H70436   7.054  10.275  10.357  2.2685 -1.2290  0.3275
  534MOL0     H70437   6.968  10.501  10.376 -1.5098  0.8914  0.9519
  534MOL0     H70438   6.918  10.414  10.511  0.2621 -1.9354 -0.4483
  534MOL0     H70439   7.145  10.625  10.484  0.2867 -2.2648 -1.9432
  534MOL0     H70440   7.134  10.523  10.626 -0.1390  0.8512  0.1815
  534MOL0     H70441   7.031  10.636  10.815  0.3913 -1.1437 -0.4328
  534MOL0     H70442   6.758  10.923  10.864 -0.0722 -0.9036 -0.9243
  534MOL0     H70443   6.933  10.960  10.856 -0.1725  0.0760 -0.4487
  534MOL0     H70444   6.963  10.747  11.021  2.4580  1.2992 -1.6600
  534MOL0     H70445   6.782  10.754  11.007  0.8653 -2.7746  0.2046
  534MOL0     H70446   6.989  10.953  11.112 -0.8330  3.8360 -1.6561
  534MOL0     H70447   6.817  10.998  11.078 -2.2757 -1.2462  2.9526
  534MOL0     H70448   6.890  10.751  11.250  0.7738  0.4199  1.0612
  534MOL0     H70449   6.737  10.848  11.234 -0.2957  0.5406 -1.8377
  534MOL0     H70450   6.939  11.023  11.587  0.8356  0.1292 -0.7118
  534MOL0     H70451   6.952  10.920  11.799  0.2255 -1.1092  1.1204
  534MOL0     H70452   7.025  10.494  11.963  1.6311 -0.8269  0.8546
  534MOL0     H70453   7.080  10.327  12.138 -0.9942  1.5772  4.6411
  534MOL0     H70454   7.044  10.111  12.430 -1.6803  1.3806  0.1396
  534MOL0     H70455   7.098  10.248  12.336  1.6756 -0.9480 -0.6788
  534MOL0     H70456   7.202  10.047  12.243 -0.7283 -0.4792  2.7861
  534MOL0     H70457   7.072  10.068  12.127 -0.7692 -2.2816 -0.9558
  534MOL0     H70458   7.066   9.850  12.183 -0.9689  0.5353 -0.0006
  534MOL0     H70459   6.921   9.927  12.254 -0.2220 -1.1486  0.7027
  534MOL0     H70460   7.165   9.842  12.401 -0.8105 -1.7639 -0.9626
  534MOL0     H70461   7.014   9.900  12.471 -0.9641  0.4626 -1.3980
  534MOL0     H70462   6.946   9.682  12.305  3.1155  1.2801 -2.2590
  534MOL0     H70463   6.931   9.691  12.485  2.7991 -1.5866  2.1423
  534MOL0     H70464   7.065   9.497  12.455  1.8896  0.6435  1.5601
  534MOL0     H70465   7.161   9.632  12.511 -0.3338 -0.4978 -0.0021
  534MOL0     H70466   7.130   9.506  12.225 -0.1522 -0.0178  0.7900
  534MOL0     H70467   7.236   9.646  12.268 -1.0694  0.5645 -3.8024
  534MOL0     H70468   7.366   9.480  12.429  0.6749 -1.0664 -0.0078
  534MOL0     H70469   7.382   9.450  12.260  0.6904  0.6170  1.3858
  534MOL0     H70470   6.672  10.242  12.210 -1.2188  0.3540 -0.2106
  534MOL0     H70471   6.604  10.428  12.037  0.9318  1.7449 -1.5145
  534MOL0     H70472   6.763  10.569  11.622  1.0870  0.4414 -1.7835
  534MOL0     H70473   6.758  10.678  11.408  3.9199 -2.6464  1.4163
  534MOL0     H70474   7.759  10.805  10.432 -4.6375 -2.0480 -2.6394
  534MOL0     H70475   7.960  10.900  10.322  2.4206 -0.4732 -1.8070
  534MOL0     H70476   8.379  10.752  10.111  2.3533 -0.6407  1.1253
  534MOL0     H70477   8.588  10.863  10.068 -0.2194  1.3753  2.3220
  534MOL0     H70478   8.712  11.015   9.883  0.1066 -0.4909  0.6566
  534MOL0     H70479   8.769  10.991  10.055  3.1187  0.2179 -0.9406
  534MOL0     H70480   8.853  11.225   9.898  4.0032 -0.7107 -1.8583
  534MOL0     H70481   8.875  11.207  10.066  0.4228  1.8312 -1.2066
  534MOL0     H70482   8.952  11.002   9.846  2.3250 -0.0056 -1.4772
  534MOL0     H70483   9.023  11.016  10.013 -1.4578 -0.7872  0.7395
  534MOL0     H70484   9.067  11.276   9.892 -2.8408 -0.3687 -2.2618
  534MOL0     H70485   9.185  11.152   9.939 -0.2488  2.4200  0.4973
  534MOL0     H70486   9.163  11.217   9.518 -3.2322  3.7794  0.8031
  534MOL0     H70487   8.407  11.244  10.036  2.3729 -0.8348  1.1580
  534MOL0     H70488   8.164  11.120  10.046  1.3921  1.3714 -1.9262
  535MOL0     O70489   8.647   7.894   3.229  0.7951 -0.3041  0.8497
  535MOL0     C70490   8.599   7.806   3.164  0.1112  0.0988  0.2593
  535MOL0     O70491   8.626   7.675   3.183 -0.5033 -0.5452  0.7888
  535MOL0     C70492   8.694   7.625   3.291 -0.2473  0.5907 -0.7657
  535MOL0     C70493   8.635   7.533   3.378  0.0719  0.9220  0.3301
  535MOL0     C70494   8.701   7.487   3.494 -0.5378 -1.0068  0.1904
  535MOL0     C70495   8.828   7.530   3.521 -0.6340  0.3376 -0.5136
  535MOL0     O70496   8.876   7.488   3.651 -0.6216  0.4916  0.2516
  535MOL0     C70497   9.007   7.541   3.693  0.3290  0.4908 -0.2423
  535MOL0     C70498   9.008   7.501   3.840 -0.3323 -0.3682  0.5602
  535MOL0     C70499   9.151   7.535   3.892  0.0470  0.4122  0.0988
  535MOL0     C70500   9.167   7.483   4.037  0.6485 -0.0769  1.1349
  535MOL0     C70501   9.306   7.512   4.095  1.0858 -0.5345  0.9264
  535MOL0     C70502   9.323   7.498   4.247  0.5438  0.3700  1.0806
  535MOL0     C70503   9.452   7.558   4.288 -0.7722  0.2688 -0.3779
  535MOL0     C70504   9.472   7.550   4.440 -0.1396 -0.0386 -0.6518
  535MOL0     N70505   9.584   7.636   4.484  0.0640 -0.0336 -0.3583
  535MOL0     C70506   9.715   7.633   4.432  0.1544 -0.0870  0.4255
  535MOL0     C70507   9.792   7.721   4.505  0.6821 -0.1883  0.6932
  535MOL0     C70508   9.930   7.762   4.449  0.0640  0.0487  0.3241
  535MOL0     C70509  10.053   7.700   4.520  0.8604 -0.2287 -0.4396
  535MOL0     C70510  10.087   7.563   4.456  0.1299  0.2092 -0.1586
  535MOL0     C70511  10.196   7.495   4.557 -0.4412 -0.7442  0.4202
  535MOL0     O70512  10.325   7.575   4.529 -0.1637  0.8335  0.2850
  535MOL0     C70513  10.442   7.537   4.586  0.0316  0.1357  0.2274
  535MOL0     C70514  10.558   7.543   4.509  0.2733  0.6046  0.1759
  535MOL0     C70515  10.682   7.519   4.576  0.2638  0.5324 -0.1575
  535MOL0     C70516  10.685   7.482   4.718  0.0475  0.2937  0.5078
  535MOL0     C70517  10.812   7.459   4.784  0.4781  0.4975 -0.3643
  535MOL0     O70518  10.929   7.453   4.720 -0.0329 -0.7398  0.4979
  535MOL0     C70519  11.040   7.411   4.790  0.3191  0.1508  1.3123
  535MOL0     C70520  11.100   7.285   4.782  0.1146  0.5436 -0.7596
  535MOL0     C70521  11.215   7.254   4.857  1.0033  0.8356  0.2631
  535MOL0     C70522  11.279   7.352   4.930 -0.5676 -0.4104 -0.0791
  535MOL0     O70523  11.373   7.304   5.013 -0.7763 -0.5286  0.9166
  535MOL0     C70524  11.447   7.399   5.102  1.2226  0.0777  0.7103
  535MOL0     C70525  11.540   7.320   5.197 -0.3428 -0.2165 -0.5757
  535MOL0     C70526  11.460   7.234   5.296  0.5007  0.0393  0.3093
  535MOL0     C70527  11.556   7.157   5.377  0.2155 -0.1296 -0.2676
  535MOL0     C70528  11.483   7.066   5.489 -0.0830  0.6340  1.1339
  535MOL0     C70529  11.422   7.148   5.612  1.0047 -0.5323 -0.7216
  535MOL0     C70530  11.364   7.054   5.715  0.0648 -0.3772  0.5303
  535MOL0     C70531  11.303   7.126   5.837 -0.7556 -0.3769  0.4250
  535MOL0    Cl70532  11.436   7.176   5.937 -0.3208 -0.0147  0.0233
  535MOL0     C70533  11.223   7.484   4.932 -1.8223 -0.4380  0.7348
  535MOL0     C70534  11.107   7.511   4.864  0.0469  0.0154  0.6080
  535MOL0     O70535  10.805   7.448   4.904  0.2692  0.8036  0.3822
  535MOL0     C70536  10.567   7.480   4.787  0.4112 -0.8048  0.7088
  535MOL0     C70537  10.445   7.513   4.721  0.9843  0.5677  0.7815
  535MOL0     N70538   9.699   7.777   4.591 -0.6859  0.5287  0.6163
  535MOL0     N70539   9.582   7.723   4.582  0.4556 -0.1847  0.1411
  535MOL0     C70540   8.900   7.604   3.423  0.0837 -0.6329 -0.1578
  535MOL0     C70541   8.831   7.650   3.313  0.4373 -0.0938  0.8382
  535MOL0     C70542   8.519   7.835   3.054  0.7345 -0.1406  0.5988
  535MOL0     C70543   8.426   7.734   3.003  0.2020  0.5095 -0.1130
  535MOL0     C70544   8.348   7.759   2.887 -0.3136 -0.7888  0.2907
  535MOL0     C70545   8.355   7.885   2.826 -1.1695 -0.4834  0.5542
  535MOL0     O70546   8.282   7.913   2.717 -0.4740 -0.6004  0.5343
  535MOL0     C70547   8.207   8.037   2.733 -0.6901 -1.2480  0.9070
  535MOL0     C70548   8.072   8.026   2.658 -0.2987  0.0980 -0.2520
  535MOL0     C70549   7.965   7.956   2.735 -0.7186  0.3955 -0.1889
  535MOL0     C70550   7.880   7.858   2.650 -0.1552  0.5547 -0.6999
  535MOL0     C70551   7.944   7.728   2.641 -0.6138 -0.2322 -0.1279
  535MOL0     C70552   8.004   7.622   2.642 -0.7395 -0.1946 -0.8663
  535MOL0     C70553   8.447   7.984   2.875  0.2199 -0.5961 -0.0995
  535MOL0     C70554   8.527   7.959   2.986 -0.2345 -0.4973  0.7087
  535MOL0     H70555   8.531   7.503   3.364  0.2148  1.2151 -1.6419
  535MOL0     H70556   8.637   7.425   3.555 -0.0526 -2.0634 -0.3480
  535MOL0     H70557   9.006   7.650   3.692  2.2463  0.6388  2.4131
  535MOL0     H70558   9.097   7.507   3.641  0.0220 -1.7221  0.5339
  535MOL0     H70559   8.984   7.395   3.853  4.4005 -1.2782  4.9954
  535MOL0     H70560   8.945   7.557   3.909 -0.1512 -3.2206  3.2658
  535MOL0     H70561   9.161   7.643   3.898 -0.3741  0.4414  0.3315
  535MOL0     H70562   9.230   7.491   3.829 -0.5562  0.6718 -0.8671
  535MOL0     H70563   9.090   7.529   4.100 -0.5860 -0.1055 -0.3085
  535MOL0     H70564   9.148   7.376   4.027 -1.4163  0.4252 -1.3487
  535MOL0     H70565   9.327   7.616   4.067 -0.9011 -1.3328 -4.8717
  535MOL0     H70566   9.382   7.444   4.057 -0.0542 -2.4338  1.8938
  535MOL0     H70567   9.316   7.396   4.287 -0.2034  0.9221  2.4433
  535MOL0     H70568   9.243   7.554   4.295 -1.3716 -0.9174 -0.4688
  535MOL0     H70569   9.535   7.502   4.244 -0.0612  1.5971 -0.7995
  535MOL0     H70570   9.458   7.660   4.249  1.3546 -0.1889 -1.3727
  535MOL0     H70571   9.481   7.442   4.459 -1.0371 -0.2430 -1.3338
  535MOL0     H70572   9.379   7.574   4.493  0.6951 -0.3378  1.0318
  535MOL0     H70573   9.748   7.575   4.346  1.6522  0.1780  0.7813
  535MOL0     H70574   9.934   7.871   4.454 -0.3770  0.3213 -3.0487
  535MOL0     H70575   9.946   7.739   4.344  0.6405  0.3038  0.3540
  535MOL0     H70576  10.056   7.699   4.629  2.4722  1.4000 -0.4191
  535MOL0     H70577  10.129   7.774   4.494  0.7714  0.9177  2.2829
  535MOL0     H70578   9.996   7.503   4.464  0.5249 -0.2993  0.6844
  535MOL0     H70579  10.116   7.570   4.351  0.2789 -5.5921 -0.8282
  535MOL0     H70580  10.211   7.387   4.548  0.3070 -0.9693  3.4745
  535MOL0     H70581  10.174   7.517   4.661 -0.0413 -0.6825  0.4932
  535MOL0     H70582  10.549   7.556   4.402  1.9380 -1.4940 -0.2886
  535MOL0     H70583  10.780   7.543   4.537  2.1672 -0.1935  3.6423
  535MOL0     H70584  11.044   7.210   4.727 -1.2129  0.8268  0.1859
  535MOL0     H70585  11.252   7.153   4.850  3.9742  1.9425 -2.9775
  535MOL0     H70586  11.376   7.450   5.168 -1.5266 -1.9899 -0.4589
  535MOL0     H70587  11.501   7.479   5.049 -1.1247  1.7671  0.7121
  535MOL0     H70588  11.600   7.387   5.260 -0.3175 -1.2267  0.5153
  535MOL0     H70589  11.615   7.260   5.145 -1.2343 -1.9443  0.0650
  535MOL0     H70590  11.395   7.162   5.245  1.7176 -0.6879 -0.2642
  535MOL0     H70591  11.394   7.298   5.355  0.8376  1.1808 -0.5061
  535MOL0     H70592  11.606   7.092   5.303  0.4009 -0.2958  0.0005
  535MOL0     H70593  11.628   7.220   5.430  0.2751 -2.3807  2.5867
  535MOL0     H70594  11.572   7.010   5.518  2.7882  2.1474 -3.6687
  535MOL0     H70595  11.407   6.998   5.449  1.3849  1.0977 -2.9303
  535MOL0     H70596  11.351   7.225   5.582  2.6374  0.7372 -1.5294
  535MOL0     H70597  11.501   7.202   5.665  0.4356 -0.6426  0.2414
  535MOL0     H70598  11.281   7.006   5.662  0.4985  0.6509 -1.1354
  535MOL0     H70599  11.445   6.990   5.751  1.0476  1.1888  1.2249
  535MOL0     H70600  11.242   7.047   5.882 -2.8254 -1.1229 -3.2343
  535MOL0     H70601  11.243   7.213   5.808 -0.6536 -1.3513 -3.2304
  535MOL0     H70602  11.289   7.550   4.986 -1.5090 -2.1492  2.5553
  535MOL0     H70603  11.059   7.608   4.855  0.6846  0.1505 -2.6372
  535MOL0     H70604  10.557   7.483   4.895  1.1377  2.5535  0.8176
  535MOL0     H70605  10.360   7.516   4.789  2.0373  2.4050  2.0961
  535MOL0     H70606   9.001   7.638   3.440  0.9727 -2.1342 -2.0656
  535MOL0     H70607   8.886   7.722   3.253  0.7410  0.3081  1.5834
  535MOL0     H70608   8.406   7.644   3.060 -5.7960 -0.3825 -2.8864
  535MOL0     H70609   8.278   7.681   2.860 -1.1292 -1.3823  3.6939
  535MOL0     H70610   8.262   8.121   2.690 -1.9207 -1.7957 -1.9511
  535MOL0     H70611   8.171   8.070   2.831  0.8028  3.2069  0.1921
  535MOL0     H70612   8.027   8.125   2.645 -1.0948  0.0326  1.6436
  535MOL0     H70613   8.087   7.978   2.561 -0.5323 -0.2001 -0.1428
  535MOL0     H70614   7.899   8.026   2.786 -1.4933 -1.7942  2.0295
  535MOL0     H70615   8.017   7.883   2.799  2.9891  0.0878 -3.2093
  535MOL0     H70616   7.781   7.848   2.695  0.2322 -0.7003 -0.0934
  535MOL0     H70617   7.852   7.890   2.549 -0.5817 -0.6959 -0.9878
  535MOL0     H70618   8.049   7.525   2.633 -2.6573 -0.9970 -2.9495
  535MOL0     H70619   8.445   8.079   2.824 -0.3073  0.1462  1.2548
  535MOL0     H70620   8.591   8.031   3.035  2.2391 -2.1244  0.0451
  536MOL0     O70621   3.438  10.384   0.499  0.2654  0.0707  0.1048
  536MOL0     C70622   3.520  10.309   0.441 -0.7222  0.7110  0.1405
  536MOL0     O70623   3.583  10.198   0.498 -0.5205 -0.7576 -0.7564
  536MOL0     C70624   3.542  10.152   0.623  0.4950  0.0693  0.6317
  536MOL0     C70625   3.517  10.012   0.639 -0.3674 -0.8449 -0.7613
  536MOL0     C70626   3.488   9.954   0.770  1.2308 -0.2988  0.7103
  536MOL0     C70627   3.484  10.039   0.874 -0.4890  0.7146  1.2535
  536MOL0     O70628   3.463  10.009   1.007  0.3294 -0.6918  0.5253
  536MOL0     C70629   3.495   9.873   1.033  0.5406 -0.8719  0.1859
  536MOL0     C70630   3.488   9.875   1.188  0.4789  0.0708 -0.0269
  536MOL0     C70631   3.520   9.748   1.251  0.9204  1.2123 -0.3417
  536MOL0     C70632   3.527   9.760   1.400 -0.5039  0.2170  0.5091
  536MOL0     C70633   3.573   9.624   1.467  0.5864  0.4278 -0.4307
  536MOL0     C70634   3.531   9.656   1.611 -0.3223  0.3641  0.1207
  536MOL0     C70635   3.566   9.528   1.693 -0.3802 -1.1253  0.0620
  536MOL0     C70636   3.517   9.540   1.839  0.5290 -0.1059  0.6236
  536MOL0     N70637   3.562   9.438   1.941  0.1129 -0.7929 -0.0713
  536MOL0     C70638   3.547   9.446   2.078  0.1432  0.3785  0.8672
  536MOL0     C70639   3.592   9.323   2.117  0.8476  0.5954  0.5335
  536MOL0     C70640   3.571   9.272   2.255 -0.1066  0.3859  0.8466
  536MOL0     C70641   3.429   9.282   2.298  0.1446  0.0202 -0.5470
  536MOL0     C70642   3.333   9.175   2.231  0.3778  0.0973 -0.7136
  536MOL0     C70643   3.278   9.223   2.093  0.2045 -0.3347  0.7586
  536MOL0     O70644   3.165   9.139   2.053 -0.1057  0.0536 -0.5417
  536MOL0     C70645   3.078   9.201   1.963  0.8729  0.2186 -0.4205
  536MOL0     C70646   2.962   9.133   1.943  0.5078  0.2692  0.3417
  536MOL0     C70647   2.861   9.188   1.872  0.5217 -0.6050  0.8184
  536MOL0     C70648   2.872   9.311   1.802  0.0509 -0.2811  0.0715
  536MOL0     C70649   2.765   9.356   1.711  0.2928  0.5275  0.4770
  536MOL0     O70650   2.791   9.465   1.628  0.0763  0.2603  0.6209
  536MOL0     C70651   2.687   9.516   1.551 -0.0639 -0.3044 -0.2212
  536MOL0     C70652   2.602   9.606   1.619  0.3996 -0.0608 -0.8663
  536MOL0     C70653   2.503   9.686   1.549 -0.4421 -0.6867  0.3494
  536MOL0     C70654   2.496   9.677   1.406 -0.0290  1.3081 -0.3412
  536MOL0     O70655   2.424   9.765   1.338  0.2937 -0.1469 -0.3572
  536MOL0     C70656   2.425   9.765   1.194 -0.0972 -0.9311 -0.3955
  536MOL0     C70657   2.345   9.886   1.150 -0.4517  0.3095 -1.2776
  536MOL0     C70658   2.419  10.020   1.183  0.5017  0.4443 -0.0432
  536MOL0     C70659   2.339  10.144   1.127 -0.3618  0.7202  0.0560
  536MOL0     C70660   2.399  10.276   1.162  0.3725 -0.7694  0.3843
  536MOL0     C70661   2.390  10.315   1.310  0.2011  0.1691  0.6623
  536MOL0     C70662   2.403  10.458   1.338 -0.3937  0.2015  0.4195
  536MOL0     C70663   2.269  10.525   1.308 -0.8415 -0.5520  0.0670
  536MOL0    Cl70664   2.148  10.446   1.412  0.3819 -0.4648 -0.5505
  536MOL0     C70665   2.586   9.584   1.339  0.4229  0.1826  0.2934
  536MOL0     C70666   2.674   9.502   1.412 -0.1716 -1.3595 -0.7393
  536MOL0     O70667   2.668   9.285   1.705  0.5869  0.0867 -0.4779
  536MOL0     C70668   2.992   9.379   1.817  0.1338  0.9804 -0.8826
  536MOL0     C70669   3.092   9.313   1.890  0.2444 -0.4848  0.0337
  536MOL0     N70670   3.619   9.246   2.008  0.1212  0.3859 -0.4771
  536MOL0     N70671   3.614   9.318   1.900 -0.0546 -0.3580  0.0308
  536MOL0     C70672   3.512  10.176   0.855  1.4478 -0.2205  0.6419
  536MOL0     C70673   3.529  10.235   0.731  0.9693 -0.1407  0.2374
  536MOL0     C70674   3.568  10.337   0.305 -0.2362 -1.0246  0.2515
  536MOL0     C70675   3.658  10.249   0.240 -0.8211  0.3019 -0.7015
  536MOL0     C70676   3.712  10.277   0.114  0.1280 -0.1882  0.3338
  536MOL0     C70677   3.669  10.392   0.046 -0.1278 -0.8111  1.2368
  536MOL0     O70678   3.711  10.434  -0.074  0.0203  0.0788  0.5870
  536MOL0     C70679   3.851  10.458  -0.075  0.5264 -0.4994  0.3620
  536MOL0     C70680   3.869  10.596  -0.022  0.7214  0.4991  0.7568
  536MOL0     C70681   3.818  10.706  -0.111  0.5298  0.0815 -0.0748
  536MOL0     C70682   3.826  10.702  -0.265 -0.4609  0.7487  0.5368
  536MOL0     C70683   3.957  10.711  -0.320 -0.5307 -0.3114 -0.0290
  536MOL0     C70684   4.074  10.734  -0.337 -0.9166 -0.5530 -0.2027
  536MOL0     C70685   3.579  10.478   0.103 -0.5499  1.0921 -0.1674
  536MOL0     C70686   3.530  10.450   0.238  0.9164 -0.0930  0.6137
  536MOL0     H70687   3.530   9.942   0.557  0.5755 -2.1265  0.4396
  536MOL0     H70688   3.479   9.846   0.781  1.3423 -0.2748  1.0545
  536MOL0     H70689   3.592   9.837   0.998  0.1998  0.6557 -2.5454
  536MOL0     H70690   3.418   9.812   0.986 -0.3147 -0.4185  0.9752
  536MOL0     H70691   3.392   9.923   1.206  0.5097  0.6294 -1.2054
  536MOL0     H70692   3.569   9.941   1.223  1.6781 -1.7723  0.7998
  536MOL0     H70693   3.616   9.711   1.213 -0.7424 -2.9657 -0.9199
  536MOL0     H70694   3.438   9.681   1.225  1.9251  0.1351 -0.8085
  536MOL0     H70695   3.601   9.837   1.422 -0.8958  0.5430  0.7090
  536MOL0     H70696   3.431   9.798   1.437 -0.3455  0.4634  0.6721
  536MOL0     H70697   3.679   9.606   1.450  0.5899  1.2159 -1.3527
  536MOL0     H70698   3.503   9.550   1.426 -0.7453  0.6144  1.3738
  536MOL0     H70699   3.423   9.674   1.612 -0.0446  2.2456 -0.4330
  536MOL0     H70700   3.587   9.733   1.665  0.5794 -0.9607  1.1375
  536MOL0     H70701   3.509   9.448   1.646 -1.2296 -1.0769  0.9757
  536MOL0     H70702   3.673   9.505   1.686 -0.1890  0.0854 -1.8488
  536MOL0     H70703   3.409   9.526   1.833  0.7102 -1.7699  0.8704
  536MOL0     H70704   3.544   9.643   1.865 -0.4857  0.9634 -2.1225
  536MOL0     H70705   3.510   9.525   2.144  1.5335  1.0985  0.8209
  536MOL0     H70706   3.635   9.329   2.323  1.8765 -0.0094 -0.5908
  536MOL0     H70707   3.614   9.171   2.259 -1.8904 -0.5254 -1.0796
  536MOL0     H70708   3.391   9.384   2.305  3.7769  1.6635 -2.1226
  536MOL0     H70709   3.418   9.243   2.400 -0.2683 -1.2572 -1.0569
  536MOL0     H70710   3.383   9.079   2.219 -0.8135 -0.7001  0.4969
  536MOL0     H70711   3.250   9.164   2.302  0.0067 -1.9880 -1.4019
  536MOL0     H70712   3.346   9.222   2.007 -3.8293  0.1264 -2.7762
  536MOL0     H70713   3.243   9.325   2.112 -0.5794 -0.7361  1.5281
  536MOL0     H70714   2.940   9.035   1.984  0.7437  0.0571 -0.0331
  536MOL0     H70715   2.760   9.148   1.873  0.1546  0.2797 -0.2094
  536MOL0     H70716   2.621   9.617   1.725  0.8298 -3.1172 -0.5237
  536MOL0     H70717   2.432   9.754   1.595  1.8784  1.1490  1.4466
  536MOL0     H70718   2.377   9.680   1.145 -1.7478 -0.2027 -0.1227
  536MOL0     H70719   2.529   9.765   1.163 -0.0214 -2.9884 -0.3156
  536MOL0     H70720   2.250   9.890   1.203 -0.4799 -0.3281 -1.2812
  536MOL0     H70721   2.340   9.874   1.041 -1.9085  0.9863 -1.3191
  536MOL0     H70722   2.513  10.025   1.128 -0.0492 -3.4011 -1.6925
  536MOL0     H70723   2.427  10.037   1.291  0.6273 -0.2745  0.0653
  536MOL0     H70724   2.322  10.132   1.020  0.7990 -0.3577 -0.0319
  536MOL0     H70725   2.236  10.144   1.165 -0.2850 -0.7335  0.3092
  536MOL0     H70726   2.348  10.360   1.113  1.3540 -1.2515 -1.5366
  536MOL0     H70727   2.504  10.277   1.133 -0.2379  0.5650 -2.0822
  536MOL0     H70728   2.473  10.261   1.355  1.1665 -2.6435 -3.8584
  536MOL0     H70729   2.297  10.271   1.348 -2.0208  2.2433 -1.9802
  536MOL0     H70730   2.416  10.486   1.443 -4.0795  0.0576  1.0287
  536MOL0     H70731   2.488  10.504   1.287 -1.4320 -0.6053 -2.1828
  536MOL0     H70732   2.249  10.527   1.200 -1.9241 -0.9105  0.2407
  536MOL0     H70733   2.284  10.630   1.334  0.0458 -1.0331  1.6323
  536MOL0     H70734   2.585   9.577   1.231  0.6631 -0.4118  0.3251
  536MOL0     H70735   2.734   9.432   1.355  3.6246  2.4915 -2.0189
  536MOL0     H70736   3.005   9.475   1.768  0.5654  2.3311  1.6993
  536MOL0     H70737   3.191   9.358   1.895  0.6418 -1.4295  0.7966
  536MOL0     H70738   3.496  10.237   0.943  0.1193 -1.3621  1.2381
  536MOL0     H70739   3.547  10.341   0.725 -0.2130  0.1565  1.4648
  536MOL0     H70740   3.685  10.156   0.288 -1.5702 -1.1727 -2.9521
  536MOL0     H70741   3.787  10.207   0.078 -0.6447 -2.0972  2.2217
  536MOL0     H70742   3.879  10.450  -0.181 -0.2478 -0.3166  0.1346
  536MOL0     H70743   3.913  10.392  -0.013  3.0440  1.2245 -0.1877
  536MOL0     H70744   3.827  10.613   0.078 -0.8552  0.8932  0.0500
  536MOL0     H70745   3.978  10.598  -0.009  0.9918 -3.1945  0.0201
  536MOL0     H70746   3.868  10.796  -0.073  1.2849 -0.3457 -0.0298
  536MOL0     H70747   3.714  10.724  -0.082  0.1837 -1.7686 -0.0608
  536MOL0     H70748   3.785  10.618  -0.321  0.3859 -0.0452  1.0639
  536MOL0     H70749   3.769  10.790  -0.294  0.7493  1.9349  1.5718
  536MOL0     H70750   4.174  10.760  -0.367 -0.2865 -1.2759  1.1856
  536MOL0     H70751   3.543  10.565   0.050 -1.5032  0.0400 -1.2911
  536MOL0     H70752   3.485  10.539   0.280 -1.0089  0.4357 -2.2433
  537MOL0     O70753  10.062   4.721   6.111  0.1704 -0.1729 -0.7394
  537MOL0     C70754  10.117   4.621   6.165  0.5089 -0.9574 -0.1600
  537MOL0     O70755  10.103   4.492   6.127  0.2740  0.1843  0.0203
  537MOL0     C70756  10.024   4.470   6.019 -0.5568  0.5533 -0.2297
  537MOL0     C70757   9.879   4.460   6.042 -0.5695 -0.9729 -0.2183
  537MOL0     C70758   9.797   4.434   5.932 -0.9263 -0.4965  1.0828
  537MOL0     C70759   9.844   4.427   5.799 -0.7451  0.2410  0.6515
  537MOL0     O70760   9.760   4.407   5.693  0.4965  0.2312  0.1983
  537MOL0     C70761   9.618   4.422   5.717  0.6336 -0.5972 -0.4958
  537MOL0     C70762   9.543   4.396   5.581  0.5364 -0.9084 -1.1032
  537MOL0     C70763   9.572   4.496   5.476  0.0710  0.7294  1.5362
  537MOL0     C70764   9.480   4.618   5.476 -0.1316 -0.3223 -0.3501
  537MOL0     C70765   9.331   4.595   5.440  0.1159 -0.5401  0.5550
  537MOL0     C70766   9.315   4.520   5.316  0.1142  0.3283  0.3160
  537MOL0     C70767   9.175   4.541   5.248 -0.1245 -0.3512  0.0789
  537MOL0     C70768   9.173   4.536   5.101 -0.4060 -0.0645  0.0827
  537MOL0     N70769   9.200   4.667   5.036  0.0757  0.2411 -0.3485
  537MOL0     C70770   9.320   4.718   5.006 -0.5323 -0.0026 -0.0994
  537MOL0     C70771   9.298   4.822   4.922 -0.9715 -0.4746 -0.1371
  537MOL0     C70772   9.408   4.889   4.844  0.0794  0.3334  0.4915
  537MOL0     C70773   9.356   4.944   4.718 -0.5098 -0.2431 -0.7171
  537MOL0     C70774   9.474   5.005   4.636 -0.0307 -0.2554 -0.4120
  537MOL0     C70775   9.430   5.052   4.499  0.2942  0.4049  0.0920
  537MOL0     O70776   9.500   5.170   4.466 -0.6423 -0.4613 -0.0708
  537MOL0     C70777   9.487   5.230   4.339  0.8418  0.5539 -0.3122
  537MOL0     C70778   9.385   5.194   4.244  0.0803 -0.4054 -0.8407
  537MOL0     C70779   9.367   5.263   4.127 -0.4577  0.2656 -0.8180
  537MOL0     C70780   9.471   5.359   4.096  0.1545 -1.1657  0.4905
  537MOL0     C70781   9.462   5.434   3.964  0.7291  0.1802  0.4753
  537MOL0     O70782   9.349   5.401   3.887  0.2786 -0.0625 -0.4283
  537MOL0     C70783   9.309   5.480   3.779  0.7267  0.4416 -0.2467
  537MOL0     C70784   9.258   5.418   3.662  0.1607  0.8102 -0.5633
  537MOL0     C70785   9.235   5.482   3.544  0.8296  1.5039  0.2916
  537MOL0     C70786   9.259   5.616   3.531  0.1992 -0.7931  0.1120
  537MOL0     O70787   9.267   5.688   3.413 -0.7914  0.1965  0.0437
  537MOL0     C70788   9.171   5.674   3.301  0.2765  0.0555 -0.4840
  537MOL0     C70789   9.146   5.797   3.226 -0.0206  0.0669 -0.5840
  537MOL0     C70790   9.260   5.803   3.126  0.4201  0.0290  0.5922
  537MOL0     C70791   9.260   5.940   3.060  0.0782 -0.6313 -0.4804
  537MOL0     C70792   9.372   5.963   2.956 -0.8623  0.4451  0.0657
  537MOL0     C70793   9.511   6.005   3.011 -0.3878  0.1580 -1.0974
  537MOL0     C70794   9.622   5.909   2.969  0.4369  0.9565 -0.7359
  537MOL0     C70795   9.752   5.949   3.027 -0.3507 -0.2210  0.1669
  537MOL0    Cl70796   9.806   6.096   2.945 -0.1848 -0.0230  0.3238
  537MOL0     C70797   9.312   5.689   3.644 -0.2393 -0.4342 -0.6071
  537MOL0     C70798   9.338   5.623   3.768 -0.3180  0.1220  0.2262
  537MOL0     O70799   9.559   5.501   3.930  0.1448  0.0245  0.8038
  537MOL0     C70800   9.572   5.384   4.188 -0.4574 -0.3031 -0.3310
  537MOL0     C70801   9.582   5.323   4.304  0.3570  0.0456 -0.4650
  537MOL0     N70802   9.164   4.844   4.924 -0.5796  0.5291 -0.6511
  537MOL0     N70803   9.104   4.745   4.984 -0.2957  0.1125 -0.2785
  537MOL0     C70804   9.987   4.439   5.776  0.5670  0.2652 -0.2814
  537MOL0     C70805  10.069   4.454   5.892 -1.0519 -0.1603  0.7623
  537MOL0     C70806  10.207   4.655   6.287  0.6871  0.7223 -0.0042
  537MOL0     C70807  10.265   4.557   6.359 -0.3781  0.5906  1.0465
  537MOL0     C70808  10.333   4.589   6.476 -1.2165  0.5605  0.6587
  537MOL0     C70809  10.358   4.727   6.503  0.0417  0.2576 -0.4604
  537MOL0     O70810  10.423   4.767   6.619 -1.0001  0.5453 -0.3991
  537MOL0     C70811  10.454   4.678   6.729  0.4785 -0.2744  0.0018
  537MOL0     C70812  10.341   4.696   6.828  0.1158  0.0570  0.2793
  537MOL0     C70813  10.332   4.577   6.928  0.2087  0.4018  0.6799
  537MOL0     C70814  10.449   4.564   7.026 -0.5952  0.1357  0.6042
  537MOL0     C70815  10.456   4.679   7.113  0.7703 -0.0863 -1.5812
  537MOL0     C70816  10.463   4.781   7.179 -0.3631 -0.1574 -0.1962
  537MOL0     C70817  10.297   4.824   6.423  0.1585 -0.1955  0.2914
  537MOL0     C70818  10.217   4.799   6.318  0.5708  0.8874  0.8654
  537MOL0     H70819   9.836   4.476   6.140 -1.2769 -2.3153 -0.2953
  537MOL0     H70820   9.693   4.447   5.962  0.0060  1.9537  3.7131
  537MOL0     H70821   9.610   4.527   5.745 -2.0520 -1.1383  1.0753
  537MOL0     H70822   9.588   4.344   5.788  4.6396 -1.7119  0.2687
  537MOL0     H70823   9.435   4.393   5.601  0.1384 -0.3563 -2.9410
  537MOL0     H70824   9.574   4.298   5.541  1.5945 -0.1364 -2.2560
  537MOL0     H70825   9.551   4.450   5.379  2.9906  2.4173 -0.0218
  537MOL0     H70826   9.677   4.526   5.477  0.7075 -1.2665  0.5316
  537MOL0     H70827   9.499   4.668   5.572 -0.8983 -0.2008 -0.2568
  537MOL0     H70828   9.519   4.693   5.407  1.6980 -2.7333 -2.1407
  537MOL0     H70829   9.270   4.686   5.449 -0.6389 -1.0953  1.3247
  537MOL0     H70830   9.300   4.528   5.522 -0.3689 -0.1366  0.7055
  537MOL0     H70831   9.333   4.413   5.321 -1.3899 -0.0194 -0.8379
  537MOL0     H70832   9.393   4.555   5.249 -0.3051  2.4330  0.8559
  537MOL0     H70833   9.113   4.454   5.274 -0.2118 -0.1990  0.3858
  537MOL0     H70834   9.123   4.629   5.285  0.6645 -0.1741  0.7845
  537MOL0     H70835   9.077   4.489   5.079  0.6337 -2.7243  0.8637
  537MOL0     H70836   9.254   4.469   5.073  0.4494  0.6738  0.7104
  537MOL0     H70837   9.417   4.676   5.031  2.1993  3.9554 -2.8811
  537MOL0     H70838   9.487   4.816   4.823 -3.1220 -3.6687  1.1067
  537MOL0     H70839   9.443   4.978   4.898 -1.5994  3.0431 -2.5345
  537MOL0     H70840   9.289   5.025   4.747 -2.6201 -2.2457  0.3980
  537MOL0     H70841   9.321   4.862   4.653  0.1677 -0.1658 -1.1975
  537MOL0     H70842   9.521   5.089   4.687  1.0558 -0.9181 -0.2756
  537MOL0     H70843   9.547   4.927   4.610  0.7048  0.6665 -1.1958
  537MOL0     H70844   9.322   5.071   4.505  0.0509 -0.9699  0.4343
  537MOL0     H70845   9.458   4.981   4.420 -1.7275  0.7796 -1.0485
  537MOL0     H70846   9.301   5.133   4.273 -1.0851  1.4670 -0.0632
  537MOL0     H70847   9.279   5.238   4.069  0.1586  0.8727 -2.0476
  537MOL0     H70848   9.247   5.310   3.670  2.6807  0.4573 -1.0347
  537MOL0     H70849   9.217   5.423   3.455  2.0418 -0.7340  1.4469
  537MOL0     H70850   9.081   5.648   3.357  0.6988  1.2131  0.7973
  537MOL0     H70851   9.203   5.594   3.233 -0.1563  0.2090 -0.8719
  537MOL0     H70852   9.151   5.878   3.299  0.9377 -0.4887 -0.0145
  537MOL0     H70853   9.049   5.792   3.175  1.3595  0.1543 -3.4348
  537MOL0     H70854   9.253   5.730   3.045  1.3886  0.7074 -0.1278
  537MOL0     H70855   9.352   5.779   3.181 -0.0585 -1.0665  0.9337
  537MOL0     H70856   9.168   5.922   3.005 -0.2718 -2.3928  0.5716
  537MOL0     H70857   9.258   6.021   3.133  2.5635 -2.1293  1.4469
  537MOL0     H70858   9.329   6.037   2.888  0.5727  0.6072 -0.7221
  537MOL0     H70859   9.374   5.877   2.889  0.6584 -0.2789  0.9862
  537MOL0     H70860   9.510   6.018   3.119  0.7055 -1.0277 -0.9092
  537MOL0     H70861   9.535   6.107   2.979 -1.0449  1.4703  2.2472
  537MOL0     H70862   9.603   5.810   3.012  4.4251 -0.0027 -0.7654
  537MOL0     H70863   9.629   5.902   2.860 -1.0761  0.4103 -0.8226
  537MOL0     H70864   9.831   5.874   3.016  1.1435  1.2409  0.5559
  537MOL0     H70865   9.741   5.965   3.135 -1.0307 -2.0740  0.4146
  537MOL0     H70866   9.349   5.791   3.638 -4.0315  1.4370  2.8676
  537MOL0     H70867   9.388   5.679   3.847 -0.5479 -1.3410  1.4683
  537MOL0     H70868   9.657   5.440   4.149 -1.0670  0.1303 -1.0547
  537MOL0     H70869   9.660   5.328   4.379 -1.1062 -1.9156  1.3449
  537MOL0     H70870  10.018   4.428   5.673 -0.2923  1.3488 -0.6669
  537MOL0     H70871  10.176   4.443   5.874 -1.0494  3.0990 -2.1007
  537MOL0     H70872  10.266   4.450   6.337 -4.9677  0.9742 -2.8496
  537MOL0     H70873  10.377   4.505   6.528  3.6838  2.0168 -0.6326
  537MOL0     H70874  10.537   4.714   6.790 -1.1969  0.6447  1.8745
  537MOL0     H70875  10.470   4.573   6.704 -0.8639 -1.2325  2.7311
  537MOL0     H70876  10.351   4.794   6.876 -0.1080 -0.2162  0.8945
  537MOL0     H70877  10.246   4.697   6.773  0.4988  0.4492 -0.3947
  537MOL0     H70878  10.318   4.482   6.876  0.0412 -0.3093  1.9784
  537MOL0     H70879  10.238   4.574   6.984  0.8564 -0.5087  1.7644
  537MOL0     H70880  10.448   4.474   7.087  5.1803 -0.9273 -0.3395
  537MOL0     H70881  10.543   4.550   6.973 -1.0953 -3.0075  0.3930
  537MOL0     H70882  10.462   4.858   7.254 -0.0337 -0.3114 -0.0293
  537MOL0     H70883  10.320   4.929   6.443 -2.5176  0.1429  2.3203
  537MOL0     H70884  10.167   4.875   6.260 -1.7531 -0.0732  1.5052
  538MOL0     O70885   5.427   1.941   4.340  0.1907 -0.6944  0.6197
  538MOL0     C70886   5.491   1.924   4.444  0.3478  0.4319 -0.0509
  538MOL0     O70887   5.590   1.832   4.459 -0.1699  0.6093 -0.4378
  538MOL0     C70888   5.633   1.769   4.345  0.2394 -0.8024 -1.3030
  538MOL0     C70889   5.659   1.835   4.226 -1.1844 -0.5961 -0.0436
  538MOL0     C70890   5.682   1.764   4.108 -0.1855  0.1789 -0.6799
  538MOL0     C70891   5.693   1.624   4.112 -0.5913  0.4679 -0.7137
  538MOL0     O70892   5.733   1.541   4.011  0.5848  0.9264 -0.0707
  538MOL0     C70893   5.823   1.592   3.908  0.0907 -0.8329  0.2036
  538MOL0     C70894   5.866   1.471   3.831  0.1309  0.1369  0.2607
  538MOL0     C70895   5.977   1.491   3.734 -1.0364 -1.3473 -0.9667
  538MOL0     C70896   5.924   1.577   3.621  0.5290 -0.2983  0.7991
  538MOL0     C70897   5.965   1.526   3.484  0.0663  0.5476  0.4372
  538MOL0     C70898   5.895   1.386   3.458 -0.3666 -0.5659  0.1653
  538MOL0     C70899   5.958   1.329   3.324 -0.3991 -0.6470 -0.5991
  538MOL0     C70900   5.895   1.192   3.277 -0.6791  0.5407 -0.9124
  538MOL0     N70901   5.957   1.153   3.151  0.6112 -0.4435 -0.5215
  538MOL0     C70902   6.039   1.049   3.134 -1.2620  0.7067  0.3360
  538MOL0     C70903   6.068   1.042   3.005  0.6863 -0.2538  1.7505
  538MOL0     C70904   6.163   0.942   2.944 -0.2191  1.4402  1.7095
  538MOL0     C70905   6.302   1.006   2.965 -0.2671  0.1125 -0.0197
  538MOL0     C70906   6.408   0.908   2.892  0.1246  0.3702  0.5441
  538MOL0     C70907   6.555   0.947   2.912 -0.4813  0.3177 -0.4928
  538MOL0     O70908   6.605   0.966   3.042  0.0406  0.2172 -0.0988
  538MOL0     C70909   6.644   0.846   3.102  0.0643 -0.5296  0.2309
  538MOL0     C70910   6.631   0.715   3.056 -0.1848 -1.1073  0.1018
  538MOL0     C70911   6.686   0.607   3.123  0.0200  0.0163 -0.0351
  538MOL0     C70912   6.747   0.627   3.249  0.9732  0.1550 -0.3539
  538MOL0     C70913   6.789   0.508   3.333 -0.4881 -0.5297 -0.9931
  538MOL0     O70914   6.863   0.533   3.452 -0.3285 -0.1753  0.3229
  538MOL0     C70915   6.897   0.423   3.534 -0.1083  0.6328 -0.2979
  538MOL0     C70916   7.022   0.425   3.593  0.0723 -0.8411  0.5873
  538MOL0     C70917   7.069   0.331   3.681 -0.1896  0.3491 -0.8174
  538MOL0     C70918   6.987   0.220   3.709 -0.4611 -0.0668  0.0698
  538MOL0     O70919   7.037   0.120   3.788 -0.1768  0.0490  0.0196
  538MOL0     C70920   6.961   0.040   3.874 -0.0397  0.2770 -0.0391
  538MOL0     C70921   7.030  -0.095   3.900  0.0183 -0.0653  0.8092
  538MOL0     C70922   6.937  -0.166   4.010 -0.3786  0.1578 -0.4234
  538MOL0     C70923   7.024  -0.256   4.112 -0.2616 -0.6344  0.2612
  538MOL0     C70924   6.931  -0.312   4.209  0.1469  0.5478 -0.5006
  538MOL0     C70925   7.000  -0.358   4.345 -0.1832  0.5754 -0.7644
  538MOL0     C70926   6.898  -0.399   4.449  0.3465  1.1583  0.3008
  538MOL0     C70927   6.961  -0.492   4.549  0.5268  0.1568 -0.1301
  538MOL0    Cl70928   7.043  -0.640   4.494 -0.3503 -0.1845  0.1585
  538MOL0     C70929   6.858   0.209   3.643 -0.3157 -0.4557  0.0492
  538MOL0     C70930   6.811   0.309   3.557 -0.5031 -0.8742  0.1416
  538MOL0     O70931   6.773   0.400   3.277 -0.3549 -0.8104  0.1824
  538MOL0     C70932   6.760   0.750   3.305  0.1046  0.0042  0.9202
  538MOL0     C70933   6.706   0.857   3.232 -0.0272 -0.2078  0.2900
  538MOL0     N70934   6.019   1.159   2.945  1.3572 -0.0341  0.2374
  538MOL0     N70935   5.950   1.223   3.036 -0.2342 -0.2880  0.7324
  538MOL0     C70936   5.663   1.554   4.228  0.2271 -1.3729 -0.1917
  538MOL0     C70937   5.641   1.632   4.351 -0.4666  0.5963 -0.3731
  538MOL0     C70938   5.463   2.023   4.546  0.4262 -0.4741 -0.0402
  538MOL0     C70939   5.537   2.026   4.674 -1.1338 -0.4670  0.7905
  538MOL0     C70940   5.532   2.141   4.754 -0.8121 -0.3338 -0.2897
  538MOL0     C70941   5.433   2.238   4.734  0.0473 -0.6426 -0.1534
  538MOL0     O70942   5.400   2.346   4.800 -0.5900  0.6155  0.7399
  538MOL0     C70943   5.496   2.406   4.886  0.8333 -0.8160 -0.4331
  538MOL0     C70944   5.485   2.556   4.865  0.6805 -1.2218  0.1146
  538MOL0     C70945   5.349   2.614   4.887  0.1320 -0.7029  1.5556
  538MOL0     C70946   5.352   2.778   4.880 -0.0708 -0.3807  0.3781
  538MOL0     C70947   5.413   2.818   4.749  0.7167 -0.0972 -0.4104
  538MOL0     C70948   5.463   2.841   4.638 -0.5481 -1.0474 -0.9569
  538MOL0     C70949   5.351   2.227   4.615 -0.3879  0.5925 -0.7478
  538MOL0     C70950   5.369   2.131   4.521  0.3907  0.9725  0.5887
  538MOL0     H70951   5.696   1.937   4.222  5.2889 -2.4362  1.3272
  538MOL0     H70952   5.713   1.807   4.013  1.8042  1.3677  0.4397
  538MOL0     H70953   5.911   1.646   3.945  0.5559 -0.5167 -1.2921
  538MOL0     H70954   5.776   1.666   3.843  2.5035  1.1213  0.5168
  538MOL0     H70955   5.793   1.422   3.766 -0.0883  0.0114  0.5995
  538MOL0     H70956   5.909   1.400   3.903  3.3375 -0.1013 -1.6878
  538MOL0     H70957   6.005   1.389   3.706  0.2337 -0.3745 -3.5262
  538MOL0     H70958   6.062   1.540   3.783 -1.3111 -0.0165 -1.7664
  538MOL0     H70959   5.816   1.596   3.623  0.2855 -1.5882  0.9356
  538MOL0     H70960   5.967   1.677   3.619  0.0190 -0.0634 -1.5117
  538MOL0     H70961   6.074   1.517   3.484  0.1855  1.8311  1.2718
  538MOL0     H70962   5.941   1.606   3.414 -1.2364  0.0714  0.3103
  538MOL0     H70963   5.789   1.404   3.439  0.5200  3.4675 -2.0472
  538MOL0     H70964   5.915   1.317   3.541 -1.6626 -0.2454  0.7711
  538MOL0     H70965   5.933   1.403   3.248  0.1409  0.1413 -0.0296
  538MOL0     H70966   6.063   1.330   3.356 -0.7700 -0.3642  0.6824
  538MOL0     H70967   5.786   1.188   3.273 -0.7620 -0.3880  1.1683
  538MOL0     H70968   5.926   1.114   3.347 -4.1845 -1.0716 -0.9499
  538MOL0     H70969   6.076   0.983   3.211  4.1981  1.8881 -0.8608
  538MOL0     H70970   6.153   0.923   2.836  0.4570 -0.7333  1.9817
  538MOL0     H70971   6.141   0.847   2.992  0.6773 -0.8187 -1.9399
  538MOL0     H70972   6.326   1.005   3.072 -0.6697 -1.3356  0.0874
  538MOL0     H70973   6.308   1.113   2.943 -0.6589  0.7893  2.7557
  538MOL0     H70974   6.389   0.807   2.927  0.8844 -0.4621 -1.2646
  538MOL0     H70975   6.392   0.903   2.784  0.4662  0.5679  0.4818
  538MOL0     H70976   6.564   1.044   2.863 -3.6023  1.2116  0.4753
  538MOL0     H70977   6.619   0.881   2.853  0.3887  0.6469  0.0676
  538MOL0     H70978   6.572   0.686   2.970 -0.7534 -3.7662  1.2773
  538MOL0     H70979   6.669   0.510   3.077  0.9258 -0.6124  0.9248
  538MOL0     H70980   7.101   0.498   3.582  0.9092 -1.5876  1.5079
  538MOL0     H70981   7.170   0.342   3.717  0.0609  1.5155 -1.7941
  538MOL0     H70982   6.873   0.016   3.813  2.2422 -0.1475 -3.4315
  538MOL0     H70983   6.934   0.079   3.973  0.1136 -3.2740  1.5651
  538MOL0     H70984   7.118  -0.071   3.960 -2.2645 -0.4121  4.6178
  538MOL0     H70985   7.059  -0.160   3.818  1.2011  0.2932  0.9205
  538MOL0     H70986   6.855  -0.219   3.962 -0.9008  1.9981 -1.6583
  538MOL0     H70987   6.887  -0.095   4.077  1.5950  0.1383  1.1543
  538MOL0     H70988   7.090  -0.332   4.068  0.6790  0.9293 -1.1042
  538MOL0     H70989   7.089  -0.187   4.166 -0.1395  0.6798 -1.4872
  538MOL0     H70990   6.878  -0.396   4.163  0.0116 -0.8792  2.0327
  538MOL0     H70991   6.853  -0.242   4.238  1.2232  1.3004  0.6853
  538MOL0     H70992   7.062  -0.276   4.380  0.2386  1.4486 -3.3193
  538MOL0     H70993   7.069  -0.442   4.331 -3.1352 -1.8409 -2.0969
  538MOL0     H70994   6.860  -0.303   4.484 -0.4828  1.7948 -2.1529
  538MOL0     H70995   6.812  -0.454   4.409 -0.0804  1.2584  1.0647
  538MOL0     H70996   6.879  -0.521   4.615  0.9842  0.3607  0.5415
  538MOL0     H70997   7.021  -0.428   4.614 -1.7132  3.9454 -1.4642
  538MOL0     H70998   6.796   0.122   3.660 -1.6688  0.0281 -2.1156
  538MOL0     H70999   6.713   0.319   3.511 -0.3307 -0.7535 -0.1974
  538MOL0     H71000   6.823   0.762   3.393  0.9628  0.4416  0.2593
  538MOL0     H71001   6.715   0.959   3.267  0.0742 -0.3726  0.7396
  538MOL0     H71002   5.658   1.448   4.249 -2.7841 -1.2740  0.0712
  538MOL0     H71003   5.606   1.593   4.445 -1.0253  1.0688 -0.3783
  538MOL0     H71004   5.615   1.955   4.697  0.8611  1.2838 -0.2192
  538MOL0     H71005   5.592   2.142   4.844 -0.5792  1.8111 -0.4235
  538MOL0     H71006   5.597   2.366   4.871  1.5587  0.0867  1.6736
  538MOL0     H71007   5.470   2.386   4.990 -2.0259  3.8735  0.0194
  538MOL0     H71008   5.556   2.610   4.928 -0.8058 -1.2043  1.8553
  538MOL0     H71009   5.503   2.573   4.758  1.7669 -2.0308  0.1536
  538MOL0     H71010   5.308   2.591   4.986  1.5890 -1.1665  2.0932
  538MOL0     H71011   5.287   2.570   4.809  1.7417 -1.0662  0.4335
  538MOL0     H71012   5.246   2.804   4.876  0.3778  2.7087  3.2331
  538MOL0     H71013   5.401   2.830   4.963  0.6896 -1.9940  0.9896
  538MOL0     H71014   5.509   2.857   4.542  2.6480  0.1590  0.6617
  538MOL0     H71015   5.257   2.280   4.606  0.3145  2.6976  2.4846
  538MOL0     H71016   5.296   2.122   4.441 -1.2047  0.3594  2.0346
  539MOL0     O71017  10.369   8.220   3.857 -0.7824  0.2956  0.3565
  539MOL0     C71018  10.383   8.113   3.802 -0.1877 -0.1478  0.4027
  539MOL0     O71019  10.500   8.047   3.790  0.2583  0.0251 -0.6974
  539MOL0     C71020  10.598   8.111   3.871  0.4690 -0.1086  0.6356
  539MOL0     C71021  10.713   8.141   3.801 -0.1417 -0.1528  0.6406
  539MOL0     C71022  10.828   8.183   3.877 -0.0187 -0.2357 -1.0397
  539MOL0     C71023  10.825   8.188   4.015 -0.5449  0.0624 -0.5799
  539MOL0     O71024  10.946   8.211   4.091 -0.7120  0.0409  0.0914
  539MOL0     C71025  11.027   8.320   4.045 -0.4272 -0.5513 -0.3703
  539MOL0     C71026  11.144   8.364   4.135 -0.0213  0.1662 -0.2893
  539MOL0     C71027  11.253   8.251   4.161 -1.3285 -0.3362  0.4039
  539MOL0     C71028  11.207   8.150   4.266  0.0077  0.4835 -0.3675
  539MOL0     C71029  11.300   8.036   4.232  0.3344 -0.0193 -0.0647
  539MOL0     C71030  11.285   7.895   4.288 -0.1348  0.3125 -0.9511
  539MOL0     C71031  11.402   7.803   4.236  0.7184 -0.1036 -0.1728
  539MOL0     C71032  11.379   7.656   4.280 -0.3056  0.6402  0.0939
  539MOL0     N71033  11.501   7.618   4.350 -0.0376 -0.5490 -0.1467
  539MOL0     C71034  11.530   7.651   4.479 -0.6365 -0.0312 -0.4529
  539MOL0     C71035  11.654   7.597   4.501 -0.2004  0.4838 -0.9775
  539MOL0     C71036  11.718   7.635   4.633 -0.4961  0.2076 -0.0763
  539MOL0     C71037  11.796   7.515   4.690  0.4308  0.6755 -0.0851
  539MOL0     C71038  11.699   7.414   4.740  0.3344  0.6283  0.4456
  539MOL0     C71039  11.745   7.335   4.861  0.5330 -1.4429  0.5697
  539MOL0     O71040  11.744   7.420   4.980  0.5293 -0.5322  0.0380
  539MOL0     C71041  11.837   7.404   5.082  0.5998 -0.2269 -0.5072
  539MOL0     C71042  11.847   7.507   5.169 -0.6093  0.0560 -0.6141
  539MOL0     C71043  11.951   7.506   5.266 -0.3899 -0.1044 -0.1379
  539MOL0     C71044  12.028   7.389   5.293  0.4225  0.6185  0.3642
  539MOL0     C71045  12.129   7.380   5.397 -0.1087 -0.7767 -1.1039
  539MOL0     O71046  12.163   7.496   5.461 -0.5604 -0.7312 -0.4907
  539MOL0     C71047  12.252   7.493   5.570  1.2140  0.9666  0.2281
  539MOL0     C71048  12.357   7.400   5.584 -0.0223  0.5858  0.0076
  539MOL0     C71049  12.446   7.400   5.694 -0.2289 -0.0360 -0.1603
  539MOL0     C71050  12.436   7.500   5.788 -0.3973 -0.0278  0.1869
  539MOL0     O71051  12.524   7.524   5.890 -0.0004  0.4830  0.0347
  539MOL0     C71052  12.556   7.415   5.973  0.5925  0.2223  0.7770
  539MOL0     C71053  12.703   7.406   5.993  0.8418 -0.4461  0.5482
  539MOL0     C71054  12.744   7.260   5.996 -0.1631 -0.7689 -0.2150
  539MOL0     C71055  12.701   7.174   6.119  0.1018 -0.1996 -0.0752
  539MOL0     C71056  12.752   7.026   6.097 -0.0089 -0.1845  0.0821
  539MOL0     C71057  12.681   6.926   6.184 -0.1819 -0.3195 -0.4029
  539MOL0     C71058  12.743   6.785   6.183 -0.8023 -0.7929 -0.1232
  539MOL0     C71059  12.694   6.698   6.298  0.6973 -0.1774 -0.5247
  539MOL0    Cl71060  12.706   6.530   6.269 -0.0772  0.1074  0.2134
  539MOL0     C71061  12.335   7.592   5.784 -0.2253 -0.3070 -0.0441
  539MOL0     C71062  12.246   7.587   5.677 -0.0984 -0.3072  0.4869
  539MOL0     O71063  12.176   7.264   5.426  0.2463 -0.2662  0.1017
  539MOL0     C71064  12.014   7.289   5.195  0.3279  0.5204 -0.6084
  539MOL0     C71065  11.927   7.301   5.100  0.7024 -0.1309  0.4722
  539MOL0     N71066  11.697   7.529   4.384  0.7677 -0.0495 -1.0086
  539MOL0     N71067  11.598   7.538   4.303 -0.0900  0.5736 -0.7316
  539MOL0     C71068  10.711   8.134   4.084  0.1284  0.3136  0.2999
  539MOL0     C71069  10.595   8.107   4.009  0.6016  1.1771  0.3708
  539MOL0     C71070  10.252   8.072   3.751  0.1467 -0.1043 -0.0351
  539MOL0     C71071  10.133   8.134   3.756 -0.4594 -1.0352 -0.3139
  539MOL0     C71072  10.015   8.100   3.695  0.2664 -1.4863 -0.2265
  539MOL0     C71073  10.018   7.984   3.621  0.7907 -0.2949  0.1861
  539MOL0     O71074   9.907   7.939   3.551 -0.7585  0.1493  0.0695
  539MOL0     C71075   9.784   7.969   3.601  0.1418 -0.4832  0.5214
  539MOL0     C71076   9.677   7.864   3.576  0.3595 -0.2510  0.0300
  539MOL0     C71077   9.716   7.721   3.620  0.6947  1.4231  0.3964
  539MOL0     C71078   9.590   7.640   3.624  0.0131  1.0821 -0.4392
  539MOL0     C71079   9.633   7.497   3.636 -0.3126 -0.1297 -0.6099
  539MOL0     C71080   9.675   7.384   3.645  0.0675  0.0330  0.0572
  539MOL0     C71081  10.140   7.909   3.597 -0.6571 -0.4226 -0.0593
  539MOL0     C71082  10.256   7.957   3.662 -0.0176  0.3724 -0.0244
  539MOL0     H71083  10.707   8.126   3.693 -1.5126  1.5751  0.4360
  539MOL0     H71084  10.925   8.191   3.830  0.4208 -1.4880 -0.3941
  539MOL0     H71085  10.972   8.414   4.052  1.4520  0.9688 -3.6577
  539MOL0     H71086  11.074   8.301   3.948  2.9512  0.6711  0.9039
  539MOL0     H71087  11.108   8.405   4.230  2.3889  1.6735  0.0327
  539MOL0     H71088  11.191   8.446   4.080  0.3883  0.4759  0.5143
  539MOL0     H71089  11.348   8.288   4.199 -0.8379 -0.3521 -0.7564
  539MOL0     H71090  11.283   8.208   4.065  2.1620  3.3186 -0.4140
  539MOL0     H71091  11.231   8.189   4.365 -2.3936  1.9909 -0.3128
  539MOL0     H71092  11.101   8.124   4.261  0.3824 -1.2835  0.2616
  539MOL0     H71093  11.397   8.077   4.262 -0.1492  0.4124  0.9704
  539MOL0     H71094  11.304   8.017   4.124 -4.6705  5.0519 -1.6664
  539MOL0     H71095  11.187   7.852   4.264  0.0467  1.5161 -4.4650
  539MOL0     H71096  11.304   7.898   4.396 -3.1244 -0.0348 -0.3314
  539MOL0     H71097  11.412   7.821   4.128  3.3897  3.2079  0.4412
  539MOL0     H71098  11.497   7.843   4.272  2.8309 -1.6643 -3.5289
  539MOL0     H71099  11.359   7.609   4.183  1.1241 -0.6643  0.3912
  539MOL0     H71100  11.297   7.634   4.348  0.0972 -3.5595 -0.5665
  539MOL0     H71101  11.474   7.712   4.549  0.7246  0.8506 -0.0900
  539MOL0     H71102  11.645   7.678   4.702 -0.9584  0.5011 -0.7384
  539MOL0     H71103  11.786   7.721   4.631  0.3076 -0.3235  1.9832
  539MOL0     H71104  11.856   7.540   4.778  1.7806 -1.7100 -0.2560
  539MOL0     H71105  11.865   7.474   4.616 -0.5679  4.7315 -3.6421
  539MOL0     H71106  11.600   7.456   4.757  0.1332  0.8437 -1.0837
  539MOL0     H71107  11.673   7.349   4.655  1.7139  0.5236  0.0704
  539MOL0     H71108  11.844   7.295   4.841  0.4655 -0.3291 -2.4346
  539MOL0     H71109  11.675   7.251   4.858 -0.6200 -0.5783 -3.4373
  539MOL0     H71110  11.790   7.598   5.160 -0.9324  0.0882  1.2871
  539MOL0     H71111  11.961   7.596   5.325 -2.8405  0.9870 -1.2217
  539MOL0     H71112  12.370   7.328   5.504 -0.3633  0.6281 -0.0862
  539MOL0     H71113  12.530   7.332   5.688  0.2558  0.6846 -2.8775
  539MOL0     H71114  12.502   7.322   5.953 -1.9929  1.8241 -0.2121
  539MOL0     H71115  12.516   7.441   6.071 -3.6077  1.4135 -1.0365
  539MOL0     H71116  12.728   7.441   6.093  0.6025 -1.9040  1.1403
  539MOL0     H71117  12.757   7.451   5.909 -0.8680  0.5634 -0.0511
  539MOL0     H71118  12.853   7.265   5.990  0.1115 -1.6125  2.8386
  539MOL0     H71119  12.711   7.213   5.902 -0.0533 -2.2828  0.4699
  539MOL0     H71120  12.747   7.222   6.205  1.0675  1.8173 -1.6330
  539MOL0     H71121  12.592   7.174   6.134 -0.2175  1.6970 -1.8619
  539MOL0     H71122  12.856   7.018   6.129  0.1654 -0.3399 -0.5001
  539MOL0     H71123  12.743   6.989   5.994 -2.1421  0.0061  0.1501
  539MOL0     H71124  12.579   6.911   6.149 -0.7606 -2.2876  1.8693
  539MOL0     H71125  12.674   6.952   6.290 -2.4832  0.1329 -0.6075
  539MOL0     H71126  12.715   6.732   6.092  1.4598 -2.0282 -0.1597
  539MOL0     H71127  12.852   6.785   6.185 -0.7054  2.4956  0.2167
  539MOL0     H71128  12.589   6.719   6.321  1.4727  2.6008  1.0607
  539MOL0     H71129  12.745   6.719   6.393 -1.2184 -1.9807  0.9876
  539MOL0     H71130  12.324   7.668   5.860  0.3237  1.2044 -1.4108
  539MOL0     H71131  12.171   7.665   5.678  0.1401 -0.0253 -1.0072
  539MOL0     H71132  12.078   7.203   5.209 -0.0861  0.1668 -0.8572
  539MOL0     H71133  11.915   7.217   5.033 -1.7180 -0.4192  1.1318
  539MOL0     H71134  10.709   8.128   4.192 -1.9804 -1.4650  0.2421
  539MOL0     H71135  10.507   8.077   4.064  0.3200  5.0831  2.4031
  539MOL0     H71136  10.115   8.214   3.828  0.8239 -1.3839  0.4255
  539MOL0     H71137   9.931   8.163   3.723  0.8280 -1.5892  1.8790
  539MOL0     H71138   9.744   8.053   3.544 -2.0729 -3.6743 -3.0881
  539MOL0     H71139   9.789   7.992   3.708  0.7615  2.8717 -0.1031
  539MOL0     H71140   9.588   7.882   3.637  0.3212  1.4508 -0.4689
  539MOL0     H71141   9.647   7.875   3.471 -0.3703  4.8001  0.4959
  539MOL0     H71142   9.759   7.704   3.719 -1.5066 -0.2904  1.1317
  539MOL0     H71143   9.783   7.689   3.539  1.8639  1.7478  1.2060
  539MOL0     H71144   9.523   7.665   3.707  0.1523  1.7408 -0.5227
  539MOL0     H71145   9.524   7.650   3.537 -2.0018  1.2582  1.0351
  539MOL0     H71146   9.711   7.285   3.663 -0.4439 -0.2617 -0.4784
  539MOL0     H71147  10.134   7.816   3.540 -0.6977 -0.8113  0.5628
  539MOL0     H71148  10.341   7.890   3.648 -2.2366 -2.5228 -0.5793
  540MOL0     O71149   0.339   0.570   6.114  0.4259  0.2864  0.4504
  540MOL0     C71150   0.268   0.649   6.043 -0.3062  0.0679 -1.1945
  540MOL0     O71151   0.147   0.625   5.984  0.2419  0.5246  0.6257
  540MOL0     C71152   0.080   0.509   6.017  0.3095 -0.5008  0.0199
  540MOL0     C71153  -0.001   0.502   6.136  0.4386 -0.2559  0.4714
  540MOL0     C71154  -0.070   0.379   6.166  0.1034  0.3142 -0.3153
  540MOL0     C71155  -0.047   0.260   6.094 -0.4225 -0.8924  1.3100
  540MOL0     O71156  -0.114   0.147   6.121 -0.2118  0.4642  0.0167
  540MOL0     C71157  -0.064   0.024   6.084  0.4941  0.0325  0.5718
  540MOL0     C71158  -0.059  -0.072   6.198  0.0807  0.1215 -1.1132
  540MOL0     C71159   0.068  -0.066   6.294 -0.6351  0.0822 -0.3369
  540MOL0     C71160   0.099   0.085   6.348 -0.0043  0.8676  0.2304
  540MOL0     C71161   0.164   0.087   6.486 -0.1877 -0.0923  1.0835
  540MOL0     C71162   0.073   0.036   6.601  0.0603 -0.0655  0.1178
  540MOL0     C71163   0.138   0.074   6.736 -0.5958  0.1710 -0.3590
  540MOL0     C71164   0.258  -0.021   6.773  0.0097 -0.1811  0.2305
  540MOL0     N71165   0.370   0.061   6.822  0.4420  1.3386  0.0904
  540MOL0     C71166   0.356   0.173   6.907  0.6387  0.7888  0.3017
  540MOL0     C71167   0.483   0.216   6.922 -0.4761 -0.8724  0.0615
  540MOL0     C71168   0.507   0.352   6.990 -0.6142 -0.2106 -0.7499
  540MOL0     C71169   0.607   0.354   7.106 -0.5444  0.4234  0.3929
  540MOL0     C71170   0.758   0.323   7.090  0.0442 -0.0767 -0.7814
  540MOL0     C71171   0.826   0.375   6.958  0.0558 -0.0393 -0.2841
  540MOL0     O71172   0.812   0.512   6.957 -0.4692 -0.1508 -0.0723
  540MOL0     C71173   0.819   0.573   6.834  0.3227 -0.3807  0.0948
  540MOL0     C71174   0.917   0.556   6.738  0.0265  1.5983  0.0487
  540MOL0     C71175   0.919   0.624   6.610  0.4791  1.2632 -1.2665
  540MOL0     C71176   0.815   0.720   6.577 -0.3276 -0.6841  0.2063
  540MOL0     C71177   0.826   0.789   6.451 -1.2874 -0.5259  0.7058
  540MOL0     O71178   0.948   0.778   6.385  0.4576 -0.0695 -0.2844
  540MOL0     C71179   0.958   0.827   6.253 -0.0732 -0.1685 -0.9084
  540MOL0     C71180   0.877   0.782   6.146 -0.3011 -0.1738 -0.2487
  540MOL0     C71181   0.906   0.831   6.023 -0.1284  1.0684  0.0621
  540MOL0     C71182   1.012   0.926   5.997  0.1404  0.5880 -0.8734
  540MOL0     O71183   1.014   0.983   5.878 -0.1660 -0.2466  0.4321
  540MOL0     C71184   1.115   0.951   5.779  1.3485 -0.1958  1.2635
  540MOL0     C71185   1.261   0.972   5.835  0.0616 -0.1461 -0.2907
  540MOL0     C71186   1.366   0.901   5.744 -0.2399 -0.3597  0.2100
  540MOL0     C71187   1.498   0.918   5.815 -0.1848 -0.3812  0.2975
  540MOL0     C71188   1.606   0.881   5.707 -0.5262  1.1142 -0.6597
  540MOL0     C71189   1.672   1.001   5.643  0.6139  0.0183 -0.7357
  540MOL0     C71190   1.774   0.960   5.541  0.4304  0.5752  0.6583
  540MOL0     C71191   1.918   0.982   5.593 -0.6032  0.2574  0.5575
  540MOL0    Cl71192   1.954   1.157   5.619 -0.6987 -0.1624 -0.1145
  540MOL0     C71193   1.077   0.975   6.104  0.3946 -0.8422 -1.1092
  540MOL0     C71194   1.050   0.928   6.236 -0.0168  0.6476 -1.2216
  540MOL0     O71195   0.738   0.862   6.416  0.7228  0.4694 -0.7054
  540MOL0     C71196   0.709   0.735   6.667 -0.8118  0.0291 -0.2964
  540MOL0     C71197   0.709   0.654   6.790  0.0335 -0.0417  0.7309
  540MOL0     N71198   0.569   0.135   6.848  0.2181  1.5297  0.3092
  540MOL0     N71199   0.497   0.045   6.790  0.4690  0.1513  0.1143
  540MOL0     C71200   0.031   0.276   5.976  0.0741 -0.3797  0.1385
  540MOL0     C71201   0.094   0.391   5.940  0.2237  0.3218  0.2942
  540MOL0     C71202   0.336   0.783   6.010  0.1475  1.0431  0.8101
  540MOL0     C71203   0.443   0.825   6.086 -0.0777  0.8920  0.2230
  540MOL0     C71204   0.509   0.941   6.054 -0.0232  0.5605 -0.4175
  540MOL0     C71205   0.473   1.029   5.958 -0.1065 -0.6788 -0.1080
  540MOL0     O71206   0.535   1.142   5.930 -0.1767  0.0340  0.3186
  540MOL0     C71207   0.667   1.112   5.876 -0.1754 -0.3648  0.3236
  540MOL0     C71208   0.737   1.232   5.819  0.2257  1.4875  1.1479
  540MOL0     C71209   0.681   1.248   5.679  0.1797 -0.6158  0.1139
  540MOL0     C71210   0.686   1.393   5.631 -0.6379  0.0154  0.5483
  540MOL0     C71211   0.672   1.404   5.481 -0.0250  0.2472  0.2843
  540MOL0     C71212   0.656   1.399   5.365  0.4424 -0.5014 -0.0791
  540MOL0     C71213   0.364   0.992   5.880  0.6573 -0.5840 -0.2134
  540MOL0     C71214   0.304   0.872   5.905  0.6988  0.1767  0.5764
  540MOL0     H71215  -0.038   0.592   6.185 -5.7339 -1.1309 -1.7159
  540MOL0     H71216  -0.135   0.373   6.253 -0.2787  0.0666 -0.6172
  540MOL0     H71217   0.039   0.033   6.047  0.3567 -0.6297  0.0158
  540MOL0     H71218  -0.128  -0.027   6.013 -0.5329  2.9662 -0.7749
  540MOL0     H71219  -0.065  -0.178   6.172 -0.0974 -0.3634  0.7488
  540MOL0     H71220  -0.151  -0.063   6.257  0.4460  1.2278 -0.6950
  540MOL0     H71221   0.160  -0.085   6.238  0.8763  2.9254  0.9793
  540MOL0     H71222   0.058  -0.141   6.373  0.0895  0.8940  0.5528
  540MOL0     H71223   0.153   0.135   6.268 -0.7683 -0.8745 -1.4499
  540MOL0     H71224   0.009   0.147   6.351 -0.2356  0.6123 -0.9192
  540MOL0     H71225   0.190   0.189   6.517  1.1515 -0.1495  0.2425
  540MOL0     H71226   0.253   0.022   6.484  0.1219  0.3247 -0.8793
  540MOL0     H71227   0.071  -0.073   6.595  3.9807 -0.3012  0.6600
  540MOL0     H71228  -0.026   0.084   6.605 -1.0112 -2.1625  0.0198
  540MOL0     H71229   0.168   0.179   6.726 -1.7626  0.4381 -1.2287
  540MOL0     H71230   0.056   0.050   6.804  2.2153 -0.2965  3.2210
  540MOL0     H71231   0.290  -0.075   6.684 -0.2674 -1.8814  1.1133
  540MOL0     H71232   0.233  -0.104   6.841  0.2805 -3.1275 -2.9720
  540MOL0     H71233   0.265   0.222   6.941  0.4329  0.6542 -0.0428
  540MOL0     H71234   0.406   0.376   7.021 -0.4779 -0.4142 -0.1369
  540MOL0     H71235   0.554   0.424   6.921 -1.9113  1.1712 -0.2335
  540MOL0     H71236   0.562   0.292   7.184 -4.1434  1.7698 -0.4276
  540MOL0     H71237   0.598   0.455   7.148 -0.0071  0.6944 -0.1273
  540MOL0     H71238   0.809   0.366   7.177 -0.8675 -0.5026 -0.0345
  540MOL0     H71239   0.766   0.215   7.081 -0.8541 -0.0820 -1.6758
  540MOL0     H71240   0.783   0.336   6.865  1.7179  0.8024 -1.4504
  540MOL0     H71241   0.934   0.357   6.958 -0.0896 -1.3117  1.9148
  540MOL0     H71242   0.990   0.479   6.759 -2.5306 -0.4337  2.2712
  540MOL0     H71243   1.002   0.594   6.547  0.8971  2.4146 -1.2925
  540MOL0     H71244   0.814   0.701   6.184  1.2844 -1.7166 -0.7673
  540MOL0     H71245   0.861   0.802   5.929  1.5818  1.1468 -0.8239
  540MOL0     H71246   1.099   1.009   5.688  0.8818 -0.7040  1.0107
  540MOL0     H71247   1.100   0.849   5.742  3.4112 -0.6023  1.4607
  540MOL0     H71248   1.271   0.924   5.933  1.4650  2.2336  0.8041
  540MOL0     H71249   1.286   1.076   5.856 -0.7167  0.2586 -1.3049
  540MOL0     H71250   1.355   0.947   5.646  1.7120  0.7071  0.4471
  540MOL0     H71251   1.356   0.792   5.732  0.7742 -0.4289 -0.0936
  540MOL0     H71252   1.519   1.016   5.860 -0.9546  1.0183 -2.1374
  540MOL0     H71253   1.494   0.835   5.885 -1.1663 -1.2356 -0.7284
  540MOL0     H71254   1.558   0.831   5.623  2.4897  1.9289 -3.0494
  540MOL0     H71255   1.672   0.818   5.767 -3.6446  0.0030  1.8944
  540MOL0     H71256   1.698   1.074   5.720  4.2801  0.0823 -1.8727
  540MOL0     H71257   1.595   1.038   5.574  0.2396  0.8067  0.0889
  540MOL0     H71258   1.759   0.853   5.522 -2.4582  1.0703 -0.3590
  540MOL0     H71259   1.755   1.012   5.447 -1.8080 -2.0544 -0.4882
  540MOL0     H71260   1.995   0.950   5.523  1.9220  0.7844  2.9012
  540MOL0     H71261   1.948   0.927   5.683  0.7647 -0.6986 -0.4325
  540MOL0     H71262   1.150   1.055   6.104 -1.1061  0.6428  1.2085
  540MOL0     H71263   1.115   0.959   6.318 -0.2619  1.7374 -1.4322
  540MOL0     H71264   0.633   0.813   6.661 -0.2541  0.6485  0.4638
  540MOL0     H71265   0.631   0.662   6.864 -0.4021 -0.8958  0.3766
  540MOL0     H71266   0.053   0.185   5.922  0.8040 -1.8230  2.7115
  540MOL0     H71267   0.166   0.397   5.859 -0.3979  3.4829 -0.2001
  540MOL0     H71268   0.476   0.769   6.173 -0.0303 -0.9863 -0.9387
  540MOL0     H71269   0.606   0.959   6.100  0.4022 -0.0630 -1.0349
  540MOL0     H71270   0.657   1.037   5.797  0.1488  2.6827 -2.8402
  540MOL0     H71271   0.726   1.072   5.959 -3.1329  1.5804  3.6528
  540MOL0     H71272   0.718   1.314   5.888  1.2650  1.1446  1.8655
  540MOL0     H71273   0.844   1.208   5.821 -0.7714 -4.4557  0.7752
  540MOL0     H71274   0.575   1.222   5.672  0.4021 -1.6105  0.4012
  540MOL0     H71275   0.738   1.187   5.608 -2.1621 -0.5657 -1.9607
  540MOL0     H71276   0.604   1.452   5.673  0.0917  0.3018  1.6027
  540MOL0     H71277   0.779   1.433   5.670 -0.8358 -0.1061  1.1500
  540MOL0     H71278   0.630   1.395   5.261 -1.2897 -2.4703  0.3493
  540MOL0     H71279   0.339   1.045   5.788  0.8580  1.6959  0.9737
  540MOL0     H71280   0.227   0.841   5.834  1.7027  0.7508 -0.8099
  541MOL0     O71281  10.606   7.559   6.103 -0.5232 -0.4464 -0.6985
  541MOL0     C71282  10.503   7.506   6.150  0.0388  0.8918  0.7162
  541MOL0     O71283  10.462   7.519   6.283  0.0618 -0.1699  0.1386
  541MOL0     C71284  10.527   7.604   6.359 -0.5674 -0.3200 -0.9109
  541MOL0     C71285  10.570   7.551   6.481  1.3993  0.2225  1.4584
  541MOL0     C71286  10.626   7.630   6.580 -0.2218 -0.1815 -0.2270
  541MOL0     C71287  10.634   7.773   6.555 -0.0129  0.3339  0.3432
  541MOL0     O71288  10.688   7.867   6.640  0.4559 -0.0461 -0.1769
  541MOL0     C71289  10.745   7.822   6.768 -0.3126 -0.4214  0.5234
  541MOL0     C71290  10.823   7.939   6.825  0.4521  0.4871 -0.1229
  541MOL0     C71291  10.868   7.927   6.967 -0.7030  0.0116 -0.9536
  541MOL0     C71292  10.978   7.825   6.986  0.4124 -0.2827 -0.4040
  541MOL0     C71293  11.000   7.766   7.129  0.5765 -0.5887 -0.4789
  541MOL0     C71294  11.124   7.805   7.197 -0.2336  0.7881 -0.1052
  541MOL0     C71295  11.160   7.953   7.209 -0.1863  1.0387  0.5094
  541MOL0     C71296  11.092   8.021   7.329 -0.0248  0.3191 -0.7901
  541MOL0     N71297  10.943   8.014   7.336  0.4790 -0.3202  0.4142
  541MOL0     C71298  10.860   8.105   7.270 -0.7609  0.2435  1.0250
  541MOL0     C71299  10.741   8.060   7.318 -0.8440  0.6921 -0.8533
  541MOL0     C71300  10.605   8.102   7.279 -0.5143  0.9086  1.0367
  541MOL0     C71301  10.493   7.997   7.301 -0.3358 -0.2429  0.0634
  541MOL0     C71302  10.507   7.855   7.242  0.6873  0.6694  0.4760
  541MOL0     C71303  10.501   7.871   7.094  0.5255 -0.0035  0.4146
  541MOL0     O71304  10.364   7.859   7.050 -0.9393 -0.7873 -0.7465
  541MOL0     C71305  10.335   7.815   6.926  0.1161  0.2144  0.2327
  541MOL0     C71306  10.250   7.704   6.902 -0.2043 -0.1399  0.6294
  541MOL0     C71307  10.221   7.666   6.775  0.9617  0.6277  0.1269
  541MOL0     C71308  10.243   7.747   6.662  0.5289 -0.8641  0.4344
  541MOL0     C71309  10.183   7.714   6.530 -0.1900  0.3216  0.4606
  541MOL0     O71310  10.239   7.779   6.420  0.6638  0.2139  0.2464
  541MOL0     C71311  10.195   7.766   6.292 -0.0808 -0.1357  0.3950
  541MOL0     C71312  10.170   7.869   6.206 -0.1590 -0.4157 -0.2932
  541MOL0     C71313  10.125   7.853   6.073 -0.7922 -0.0896  0.1482
  541MOL0     C71314  10.081   7.730   6.032 -0.2736  0.4845  1.5846
  541MOL0     O71315  10.018   7.717   5.911  0.0851  0.5931 -0.2929
  541MOL0     C71316  10.032   7.812   5.803 -0.3237 -0.7565 -0.5534
  541MOL0     C71317  10.023   7.754   5.662 -0.2669  0.3420  0.4139
  541MOL0     C71318  10.034   7.879   5.575 -0.1415  0.2581  0.6034
  541MOL0     C71319   9.902   7.950   5.531  1.1761  0.0045 -0.8439
  541MOL0     C71320   9.914   8.053   5.429  0.2179 -0.4326 -0.7397
  541MOL0     C71321   9.774   8.085   5.380  0.1552  0.5575 -0.5320
  541MOL0     C71322   9.782   8.190   5.264  0.8527  0.6695  0.5981
  541MOL0     C71323   9.751   8.331   5.319 -0.5725  0.5945  0.4326
  541MOL0    Cl71324   9.779   8.436   5.185 -0.2817  0.5924 -0.0145
  541MOL0     C71325  10.094   7.625   6.119 -0.2507 -0.3817  0.2882
  541MOL0     C71326  10.157   7.637   6.238  0.5975 -0.6587 -0.8226
  541MOL0     O71327  10.099   7.621   6.528 -0.6415  0.1367  0.2109
  541MOL0     C71328  10.330   7.858   6.684  0.3407 -0.5878  1.1184
  541MOL0     C71329  10.371   7.885   6.817 -0.5908 -1.2310  0.0899
  541MOL0     N71330  10.752   7.961   7.404 -0.5008  0.9959 -0.4725
  541MOL0     N71331  10.873   7.932   7.421 -0.1455  0.2460  0.1871
  541MOL0     C71332  10.602   7.829   6.427  0.1920  0.3461 -0.1926
  541MOL0     C71333  10.557   7.739   6.325  0.9282  0.7238  0.0191
  541MOL0     C71334  10.413   7.429   6.055 -0.3370 -0.3721  0.2764
  541MOL0     C71335  10.316   7.342   6.104  0.3275 -0.2557 -0.1889
  541MOL0     C71336  10.234   7.281   6.009  0.4603 -0.4161  0.2968
  541MOL0     C71337  10.259   7.280   5.872 -0.3917  0.3596 -0.4300
  541MOL0     O71338  10.170   7.230   5.785 -0.6215 -0.2896 -0.1875
  541MOL0     C71339  10.089   7.339   5.732  0.4671  0.7536  0.3407
  541MOL0     C71340  10.029   7.269   5.613  0.4640 -0.8088 -0.6722
  541MOL0     C71341   9.943   7.370   5.543  0.8319  0.3396 -0.5571
  541MOL0     C71342   9.854   7.323   5.428  0.5579  0.7070  0.2705
  541MOL0     C71343   9.929   7.267   5.313  0.8024  0.9907  0.4562
  541MOL0     C71344   9.989   7.207   5.218 -0.3732 -0.0662 -0.7447
  541MOL0     C71345  10.352   7.373   5.824  0.1789  1.2813 -0.0621
  541MOL0     C71346  10.437   7.435   5.913  0.3562 -0.2422  0.6329
  541MOL0     H71347  10.548   7.445   6.494 -4.4306  0.8843 -0.5807
  541MOL0     H71348  10.659   7.587   6.674  1.3305  1.1018 -0.1307
  541MOL0     H71349  10.817   7.741   6.757  1.3993  0.9184  1.4938
  541MOL0     H71350  10.670   7.798   6.844  0.0680  3.4790  2.3648
  541MOL0     H71351  10.759   8.027   6.820  2.2454  1.7999 -0.8412
  541MOL0     H71352  10.911   7.951   6.762 -1.7161 -0.2151 -3.5696
  541MOL0     H71353  10.776   7.905   7.023 -1.8440 -0.8796 -3.0660
  541MOL0     H71354  10.905   8.022   7.007 -2.2718 -0.0040  0.6382
  541MOL0     H71355  10.993   7.743   6.915  2.9782  0.1011 -0.4246
  541MOL0     H71356  11.071   7.875   6.959  2.4751 -2.9096  1.2514
  541MOL0     H71357  11.012   7.658   7.125  3.8978 -0.3136 -1.0656
  541MOL0     H71358  10.917   7.788   7.197 -0.3269  1.3155 -2.0627
  541MOL0     H71359  11.210   7.757   7.148  2.4938  2.1294  2.9614
  541MOL0     H71360  11.125   7.756   7.294  1.8492  0.7709 -0.0748
  541MOL0     H71361  11.267   7.958   7.229 -0.5815 -0.6849  3.7159
  541MOL0     H71362  11.120   8.007   7.123 -3.1363  2.0751  2.3695
  541MOL0     H71363  11.119   8.127   7.340  3.0258 -0.4622 -0.0722
  541MOL0     H71364  11.129   7.979   7.423  0.2600  2.5284  0.1606
  541MOL0     H71365  10.874   8.187   7.200 -2.2116 -1.0166 -0.8383
  541MOL0     H71366  10.620   8.148   7.181 -0.1232  0.1916  0.7576
  541MOL0     H71367  10.565   8.181   7.344 -1.0489 -0.8938  3.0303
  541MOL0     H71368  10.398   8.048   7.285 -0.1835  0.5540  1.5254
  541MOL0     H71369  10.477   7.974   7.407  0.8592 -1.9422 -0.0741
  541MOL0     H71370  10.607   7.815   7.263 -0.8805 -3.9790  0.2198
  541MOL0     H71371  10.427   7.788   7.273 -1.8168  3.0421 -0.4258
  541MOL0     H71372  10.569   7.795   7.055  2.4945  0.4506  2.7230
  541MOL0     H71373  10.534   7.969   7.057  2.8915 -0.5527  0.9150
  541MOL0     H71374  10.211   7.643   6.983  0.6079 -1.6889 -0.0989
  541MOL0     H71375  10.152   7.583   6.762 -0.9859  1.7438  2.6122
  541MOL0     H71376  10.184   7.967   6.250  3.6789 -1.5166  1.3818
  541MOL0     H71377  10.107   7.944   6.017  2.9458  0.4344 -0.4527
  541MOL0     H71378  10.130   7.861   5.805  0.3847 -2.1435  0.1226
  541MOL0     H71379   9.959   7.894   5.807  2.5615  2.0328 -0.8068
  541MOL0     H71380   9.932   7.696   5.643  0.6460 -0.8047 -0.6825
  541MOL0     H71381  10.101   7.679   5.643 -0.5673  0.0972  0.1229
  541MOL0     H71382  10.064   7.829   5.482  0.1362  0.6018  0.5069
  541MOL0     H71383  10.102   7.960   5.601  0.6904  0.2239 -1.2544
  541MOL0     H71384   9.825   7.873   5.523 -0.8871  1.8726  0.0615
  541MOL0     H71385   9.848   7.998   5.614 -2.4410 -0.3277 -2.7924
  541MOL0     H71386   9.964   8.015   5.339  2.7675  1.6077 -0.3171
  541MOL0     H71387   9.975   8.138   5.462 -2.4818  1.3846 -0.1278
  541MOL0     H71388   9.706   8.109   5.463  0.5300  1.1589 -0.3923
  541MOL0     H71389   9.742   7.992   5.332  2.0778 -1.2767  1.5304
  541MOL0     H71390   9.878   8.182   5.212  0.4877 -0.3509  0.0420
  541MOL0     H71391   9.701   8.165   5.195  0.8137 -0.6860  1.1037
  541MOL0     H71392   9.821   8.338   5.403  2.1516 -1.1502 -1.5156
  541MOL0     H71393   9.652   8.349   5.362 -0.3750  3.5567 -0.1837
  541MOL0     H71394  10.059   7.528   6.086  1.3762 -0.6002 -0.8619
  541MOL0     H71395  10.160   7.551   6.305 -1.4158 -1.2443 -1.4187
  541MOL0     H71396  10.374   7.909   6.598 -0.6656  2.3804  2.2487
  541MOL0     H71397  10.428   7.976   6.833 -0.2668 -1.5265  0.6576
  541MOL0     H71398  10.619   7.934   6.405  1.3497  0.3984  0.8523
  541MOL0     H71399  10.532   7.782   6.229  0.6969  0.0085 -0.2517
  541MOL0     H71400  10.299   7.332   6.211  1.2915  0.4364  0.0440
  541MOL0     H71401  10.160   7.209   6.043  0.5100 -0.5922  0.0358
  541MOL0     H71402  10.140   7.430   5.697  0.9920  0.6261  0.7540
  541MOL0     H71403  10.013   7.365   5.806 -3.4844 -3.2767 -1.8256
  541MOL0     H71404  10.111   7.228   5.553  0.4139 -1.2055 -0.4740
  541MOL0     H71405   9.971   7.180   5.639 -2.2886 -0.0464 -3.5313
  541MOL0     H71406  10.010   7.448   5.505  1.3984  0.1542  0.0560
  541MOL0     H71407   9.866   7.412   5.608  0.3841  2.0181 -2.0761
  541MOL0     H71408   9.787   7.251   5.476  2.0146 -1.1689 -0.4089
  541MOL0     H71409   9.791   7.404   5.389 -0.1421 -0.5807 -1.3617
  541MOL0     H71410  10.035   7.146   5.142  1.9386  0.9175 -0.2311
  541MOL0     H71411  10.363   7.381   5.716 -2.9790  2.0059 -0.4134
  541MOL0     H71412  10.515   7.505   5.884  2.4225 -1.7040  2.3308
  542MOL0     O71413   1.283   7.314   5.400 -0.5624 -0.4934  0.1283
  542MOL0     C71414   1.306   7.433   5.397  0.2691 -0.2791 -1.4902
  542MOL0     O71415   1.403   7.489   5.482  0.0285 -0.1900  1.0527
  542MOL0     C71416   1.483   7.407   5.562 -0.0960 -0.8155  0.4489
  542MOL0     C71417   1.622   7.424   5.554 -0.0778  0.0716  0.1413
  542MOL0     C71418   1.699   7.326   5.624  1.0758 -0.3130 -0.4296
  542MOL0     C71419   1.646   7.232   5.713 -0.7536  0.2901 -0.4683
  542MOL0     O71420   1.734   7.144   5.784  0.2643 -0.0821 -0.0610
  542MOL0     C71421   1.686   7.087   5.909 -0.3035  0.9506 -0.2806
  542MOL0     C71422   1.793   6.989   5.962 -0.3310 -1.5894  0.5891
  542MOL0     C71423   1.763   6.899   6.076  0.1757 -0.6740 -0.2546
  542MOL0     C71424   1.890   6.821   6.124  0.7168  0.4664 -0.7320
  542MOL0     C71425   1.852   6.684   6.195  0.6993 -0.4169  0.6952
  542MOL0     C71426   1.817   6.563   6.100  0.4631 -0.2125  0.4067
  542MOL0     C71427   1.808   6.423   6.172  1.4777 -0.4288  0.1481
  542MOL0     C71428   1.954   6.361   6.186  0.4518 -0.6402  0.1710
  542MOL0     N71429   1.952   6.246   6.272  0.8320  1.3935 -0.0943
  542MOL0     C71430   1.941   6.240   6.413  0.5407  0.5090  0.0689
  542MOL0     C71431   1.927   6.107   6.441  1.0449 -0.2631 -1.2859
  542MOL0     C71432   1.906   6.053   6.579 -1.0926 -0.1495  1.1403
  542MOL0     C71433   1.754   6.025   6.611 -0.5683  0.3919  0.3054
  542MOL0     C71434   1.703   5.906   6.519  0.4245  0.0105  0.0322
  542MOL0     C71435   1.608   5.820   6.597 -0.2573 -0.3769 -0.3681
  542MOL0     O71436   1.482   5.899   6.628  0.6157  0.5906 -0.3045
  542MOL0     C71437   1.378   5.829   6.689 -0.7002  1.2224  0.0196
  542MOL0     C71438   1.397   5.707   6.756  0.2589 -0.0480  0.4097
  542MOL0     C71439   1.284   5.634   6.818  0.1158  0.9253 -1.1674
  542MOL0     C71440   1.159   5.685   6.808  0.5731 -0.0339 -0.8910
  542MOL0     C71441   1.043   5.610   6.857  0.1557 -0.3106  0.4954
  542MOL0     O71442   1.069   5.529   6.962  0.3628 -0.0189  0.0541
  542MOL0     C71443   0.974   5.444   7.012  0.4163  0.8170 -0.2469
  542MOL0     C71444   0.936   5.330   6.947  0.0926 -0.6942  1.8737
  542MOL0     C71445   0.831   5.250   7.002 -0.3160  0.4596  0.5547
  542MOL0     C71446   0.792   5.280   7.139 -0.0065 -0.2298  0.7696
  542MOL0     O71447   0.708   5.201   7.215 -0.1202 -0.0280  0.8671
  542MOL0     C71448   0.690   5.062   7.191  0.6607 -0.1919 -0.0877
  542MOL0     C71449   0.825   4.983   7.189 -0.1983 -2.2278  0.4680
  542MOL0     C71450   0.802   4.842   7.141 -0.5222 -0.2761 -0.5188
  542MOL0     C71451   0.928   4.750   7.168  0.0192 -1.2516 -0.1014
  542MOL0     C71452   0.918   4.618   7.109  0.4758  0.1146  0.5234
  542MOL0     C71453   1.007   4.521   7.184 -0.7035  0.2519 -0.1514
  542MOL0     C71454   1.073   4.426   7.092  0.5510  0.8179 -0.1651
  542MOL0     C71455   1.181   4.348   7.160  0.2623  0.2446  0.6207
  542MOL0    Cl71456   1.247   4.204   7.065 -0.1509  0.2385  0.7087
  542MOL0     C71457   0.834   5.393   7.205 -0.1875  0.5630 -0.0361
  542MOL0     C71458   0.926   5.477   7.142 -0.1494 -0.7104  0.9466
  542MOL0     O71459   0.934   5.629   6.809  0.3049  0.3030 -0.5053
  542MOL0     C71460   1.148   5.808   6.748  1.4957  0.0735 -0.2602
  542MOL0     C71461   1.249   5.878   6.688  0.6483  0.0776  1.0378
  542MOL0     N71462   1.935   6.035   6.326 -0.0187 -0.6994 -0.2312
  542MOL0     N71463   1.957   6.117   6.226 -0.3748 -0.4880  0.5983
  542MOL0     C71464   1.507   7.239   5.731 -0.0910  0.9643  0.0518
  542MOL0     C71465   1.428   7.323   5.653  0.2594  0.7674  0.5418
  542MOL0     C71466   1.237   7.515   5.302 -0.2133 -0.0566  0.2022
  542MOL0     C71467   1.273   7.657   5.301  0.0054  0.4573 -0.3104
  542MOL0     C71468   1.212   7.749   5.207  0.1838  0.5017 -0.8995
  542MOL0     C71469   1.126   7.692   5.111 -0.6251  1.3879 -0.5976
  542MOL0     O71470   1.068   7.773   5.009 -0.1788  0.2478  0.3353
  542MOL0     C71471   1.077   7.717   4.879 -0.8423  0.2283 -0.3759
  542MOL0     C71472   1.061   7.823   4.771 -0.2877 -0.6694 -0.4765
  542MOL0     C71473   1.117   7.965   4.794  0.2824 -0.2543 -0.3554
  542MOL0     C71474   1.265   7.982   4.823 -0.2683 -0.2839 -0.1754
  542MOL0     C71475   1.362   7.949   4.723 -0.0213 -0.3659  0.9514
  542MOL0     C71476   1.453   7.922   4.645 -0.2255  0.3658  0.4395
  542MOL0     C71477   1.082   7.559   5.117 -0.0908 -0.1082  0.3066
  542MOL0     C71478   1.134   7.473   5.213  0.0190  0.7432  0.5846
  542MOL0     H71479   1.661   7.500   5.487 -2.7245  0.9796 -0.5016
  542MOL0     H71480   1.807   7.334   5.621  1.1071 -0.1721  0.6697
  542MOL0     H71481   1.602   7.017   5.904  0.2189  0.3637 -1.0711
  542MOL0     H71482   1.654   7.163   5.982  0.8977 -0.8506  2.2598
  542MOL0     H71483   1.881   7.046   5.995 -0.4474 -0.7644 -0.4797
  542MOL0     H71484   1.823   6.936   5.871 -0.6155 -1.5234  0.4567
  542MOL0     H71485   1.684   6.830   6.045  0.5580 -0.1868 -2.5277
  542MOL0     H71486   1.739   6.951   6.169  2.3177 -2.1739  1.2192
  542MOL0     H71487   1.950   6.790   6.038 -1.4227 -1.6678 -1.5607
  542MOL0     H71488   1.938   6.885   6.198 -1.3633 -0.0223  1.1503
  542MOL0     H71489   1.759   6.702   6.250 -0.0513 -2.0035  0.0072
  542MOL0     H71490   1.938   6.670   6.262  1.5945 -2.7232 -0.8333
  542MOL0     H71491   1.886   6.559   6.016  0.3148  2.3418  0.0812
  542MOL0     H71492   1.721   6.585   6.053  1.5406 -0.0097 -1.8233
  542MOL0     H71493   1.763   6.450   6.268  4.0928  0.6102  1.1757
  542MOL0     H71494   1.741   6.355   6.119  1.2190 -2.6684  3.0637
  542MOL0     H71495   2.023   6.438   6.224 -2.7921  1.8900  1.4070
  542MOL0     H71496   1.998   6.338   6.088  0.1242  2.0769 -0.6982
  542MOL0     H71497   1.937   6.317   6.489 -1.2602 -1.3171  1.9603
  542MOL0     H71498   1.946   6.139   6.633  0.5806  0.6144 -1.1371
  542MOL0     H71499   1.962   5.962   6.604  2.5718  1.5483 -0.0728
  542MOL0     H71500   1.696   6.117   6.596 -2.9345 -0.4036  3.5137
  542MOL0     H71501   1.743   6.008   6.719 -3.5549  0.4946  0.0883
  542MOL0     H71502   1.656   5.956   6.434  1.3086  1.4130  0.3231
  542MOL0     H71503   1.780   5.836   6.484 -0.1400  0.0376 -1.3226
  542MOL0     H71504   1.661   5.770   6.678 -0.0864 -0.6735 -0.6638
  542MOL0     H71505   1.575   5.729   6.546 -0.4749 -0.9657  0.7871
  542MOL0     H71506   1.487   5.650   6.738  0.0201 -0.4764  0.5720
  542MOL0     H71507   1.294   5.532   6.854 -2.6696  0.5287 -1.2841
  542MOL0     H71508   0.972   5.305   6.848 -1.6217  1.6712  0.5702
  542MOL0     H71509   0.808   5.169   6.934  1.6491  0.8596 -0.6950
  542MOL0     H71510   0.640   5.024   7.101 -0.7626 -1.3489  1.1508
  542MOL0     H71511   0.618   5.031   7.267 -1.4234  3.5730 -0.3118
  542MOL0     H71512   0.863   4.980   7.291 -0.6642 -2.2078  0.6441
  542MOL0     H71513   0.900   5.022   7.119 -1.5691 -0.0905  0.0980
  542MOL0     H71514   0.768   4.839   7.037 -0.2018  1.1327 -0.6916
  542MOL0     H71515   0.718   4.810   7.203  1.3292  0.2282  2.4384
  542MOL0     H71516   1.021   4.803   7.146 -1.9254  3.3175  1.5037
  542MOL0     H71517   0.930   4.740   7.277 -0.1684 -1.1527 -0.0895
  542MOL0     H71518   0.932   4.622   7.001 -0.4567  0.9180  0.4161
  542MOL0     H71519   0.814   4.583   7.109 -0.7537  2.4667 -5.6000
  542MOL0     H71520   0.945   4.460   7.251  1.2132 -4.7714 -2.5100
  542MOL0     H71521   1.079   4.585   7.236 -2.4436  2.8401 -0.7257
  542MOL0     H71522   0.992   4.365   7.051  0.8803  0.4145 -0.2309
  542MOL0     H71523   1.123   4.473   7.007  0.7294 -0.1670 -0.6199
  542MOL0     H71524   1.132   4.309   7.250  1.3124  2.9950  2.4894
  542MOL0     H71525   1.259   4.417   7.192 -0.8640  1.5975  0.5276
  542MOL0     H71526   0.791   5.431   7.297 -1.3332  2.8480 -1.4194
  542MOL0     H71527   0.972   5.560   7.194  2.7695 -1.4963 -0.1783
  542MOL0     H71528   1.049   5.851   6.740  0.5293 -2.1299 -0.9142
  542MOL0     H71529   1.220   5.968   6.634 -1.6429 -1.8168 -1.1374
  542MOL0     H71530   1.450   7.178   5.799 -3.1883  3.2870 -0.2134
  542MOL0     H71531   1.325   7.338   5.682 -0.4950 -0.5874 -1.2573
  542MOL0     H71532   1.343   7.699   5.373  0.4207 -0.8002  0.0408
  542MOL0     H71533   1.222   7.857   5.205 -3.9680  1.3259  3.7656
  542MOL0     H71534   0.997   7.643   4.870  0.1159 -0.8131 -0.6161
  542MOL0     H71535   1.174   7.666   4.866 -0.3125  0.2570  2.6507
  542MOL0     H71536   1.100   7.786   4.675  3.4634  0.5855  0.3994
  542MOL0     H71537   0.952   7.825   4.761 -0.6567  2.8616  2.3203
  542MOL0     H71538   1.068   8.012   4.879  0.3446 -2.9674  1.2883
  542MOL0     H71539   1.080   8.015   4.704 -1.3050  0.7969  0.8274
  542MOL0     H71540   1.285   8.088   4.838  2.0808 -0.6471 -0.4353
  542MOL0     H71541   1.289   7.932   4.918 -2.1729  1.9117  1.5949
  542MOL0     H71542   1.517   7.888   4.566  0.5926  0.2500  1.1330
  542MOL0     H71543   0.992   7.533   5.063 -1.6773  1.4040  2.0832
  542MOL0     H71544   1.104   7.369   5.210  2.6546 -0.1008  0.3832
  543MOL0     O71545   9.801   7.128   6.768 -0.2684  0.3078 -0.1711
  543MOL0     C71546   9.766   7.011   6.745  0.1295  0.7529  0.7577
  543MOL0     O71547   9.818   6.900   6.803  0.0648 -0.5106 -0.7257
  543MOL0     C71548   9.863   6.920   6.930 -0.5481  0.2255  0.5971
  543MOL0     C71549   9.989   6.959   6.949  0.0708 -0.5441  0.4321
  543MOL0     C71550  10.035   6.994   7.079  1.0546  0.1350  0.5767
  543MOL0     C71551   9.956   6.970   7.192  0.6045 -0.6873  0.9636
  543MOL0     O71552   9.989   7.005   7.319 -0.5606 -0.5105  0.2044
  543MOL0     C71553  10.113   7.072   7.348  0.1801 -1.0830 -0.0976
  543MOL0     C71554  10.086   7.232   7.321 -0.2784 -0.5663  0.5233
  543MOL0     C71555  10.187   7.310   7.406  0.0122 -0.2695  0.2743
  543MOL0     C71556  10.329   7.324   7.352 -0.4119  0.8215  1.0574
  543MOL0     C71557  10.407   7.432   7.429 -1.1544  0.2818  0.3403
  543MOL0     C71558  10.536   7.449   7.355  0.8941 -0.2306  0.3186
  543MOL0     C71559  10.629   7.538   7.431 -0.7361  0.0112  0.1170
  543MOL0     C71560  10.749   7.468   7.498  0.1629  0.3396 -0.5738
  543MOL0     N71561  10.709   7.381   7.603  0.1112  0.5572 -0.1942
  543MOL0     C71562  10.682   7.256   7.582 -0.2636  0.7383  0.8859
  543MOL0     C71563  10.632   7.201   7.693  0.1692  0.2874 -0.6145
  543MOL0     C71564  10.577   7.064   7.689  0.1544  1.1233 -0.2493
  543MOL0     C71565  10.426   7.080   7.701 -0.3304  0.1776  0.8367
  543MOL0     C71566  10.381   7.082   7.846  0.5224 -0.2099 -0.2801
  543MOL0     C71567  10.239   7.023   7.864 -0.5593  0.5686 -0.8837
  543MOL0     O71568  10.149   7.091   7.782 -0.2093  0.1258  0.7331
  543MOL0     C71569  10.035   7.024   7.735  1.2158  0.6311  0.0213
  543MOL0     C71570  10.011   6.890   7.774  0.9571  0.3383  0.3096
  543MOL0     C71571   9.891   6.827   7.738  0.1521  0.1424  0.0978
  543MOL0     C71572   9.813   6.887   7.646 -0.5156  0.2122 -0.0524
  543MOL0     C71573   9.695   6.810   7.582 -0.3123  1.2095 -0.5643
  543MOL0     O71574   9.622   6.872   7.478 -0.2093  0.4723 -0.5185
  543MOL0     C71575   9.534   6.812   7.402  0.5201 -0.5068  0.8312
  543MOL0     C71576   9.472   6.890   7.297  0.0643 -0.4489  1.0727
  543MOL0     C71577   9.366   6.834   7.215 -1.2081 -0.0559 -0.1869
  543MOL0     C71578   9.332   6.701   7.218 -0.6781 -0.2625 -0.4702
  543MOL0     O71579   9.235   6.660   7.134 -0.1026 -0.2994 -0.4873
  543MOL0     C71580   9.105   6.727   7.144 -0.5869 -0.1504 -0.8236
  543MOL0     C71581   9.006   6.672   7.041  0.4754 -0.0571 -0.7041
  543MOL0     C71582   8.890   6.753   7.046  0.6351 -0.0403  0.2423
  543MOL0     C71583   8.793   6.707   6.944 -0.1206 -0.1483  0.0507
  543MOL0     C71584   8.661   6.785   6.942  1.4257 -1.2403  0.4811
  543MOL0     C71585   8.583   6.759   6.813  0.3119  0.4014  0.1602
  543MOL0     C71586   8.471   6.875   6.788  0.5051 -0.0364  0.5839
  543MOL0     C71587   8.411   6.870   6.636  0.3070  0.0298 -0.4953
  543MOL0    Cl71588   8.338   6.707   6.624 -0.2121  0.4967 -0.5473
  543MOL0     C71589   9.394   6.620   7.316 -0.5867 -0.7770 -0.3379
  543MOL0     C71590   9.490   6.676   7.410 -0.1087  0.3596  1.1627
  543MOL0     O71591   9.680   6.694   7.619 -0.0398  0.2648 -0.4099
  543MOL0     C71592   9.841   7.017   7.605  0.2113 -0.2844  1.2977
  543MOL0     C71593   9.943   7.090   7.650 -0.1764 -0.1602  0.0839
  543MOL0     N71594  10.640   7.299   7.792  0.3120 -0.8314  0.0929
  543MOL0     N71595  10.677   7.406   7.728 -0.0096  0.1691  0.4012
  543MOL0     C71596   9.822   6.930   7.162  0.2718  0.5624 -0.3300
  543MOL0     C71597   9.772   6.908   7.032 -0.1558 -0.6937 -0.3210
  543MOL0     C71598   9.668   6.984   6.636 -0.3098 -1.2866  0.5711
  543MOL0     C71599   9.609   7.088   6.560 -0.0135  0.4823 -0.3679
  543MOL0     C71600   9.535   7.050   6.450  1.2099 -0.7085 -1.1315
  543MOL0     C71601   9.527   6.926   6.398 -0.0561  0.5597  0.1819
  543MOL0     O71602   9.490   6.907   6.266  1.3383  0.5700 -0.5356
  543MOL0     C71603   9.480   6.773   6.205 -0.3864  0.2824 -1.1275
  543MOL0     C71604   9.355   6.683   6.237 -0.2319  0.4354 -0.9967
  543MOL0     C71605   9.234   6.742   6.174 -0.2576  0.8585  1.0693
  543MOL0     C71606   9.120   6.634   6.177 -0.0948 -0.3513 -0.1324
  543MOL0     C71607   9.008   6.698   6.115  0.0923  0.3506  0.0731
  543MOL0     C71608   8.918   6.751   6.064  0.6515  0.2113 -0.5024
  543MOL0     C71609   9.587   6.829   6.468 -0.5703 -0.4686 -0.3650
  543MOL0     C71610   9.658   6.855   6.586  0.2914 -0.4880  0.0035
  543MOL0     H71611  10.051   6.970   6.860 -2.8998  0.2944 -1.7028
  543MOL0     H71612  10.139   7.025   7.085  1.3755 -0.2290 -1.9769
  543MOL0     H71613  10.196   7.021   7.297  0.1506 -2.6509  1.3181
  543MOL0     H71614  10.148   7.060   7.451 -0.2283 -0.0838  0.1670
  543MOL0     H71615   9.984   7.259   7.351  0.1489  0.3691  1.1971
  543MOL0     H71616  10.095   7.251   7.214  1.5263  0.1107  0.7512
  543MOL0     H71617  10.182   7.294   7.514 -0.3985  2.6738  0.7798
  543MOL0     H71618  10.144   7.410   7.396  0.4035 -0.2375 -1.4640
  543MOL0     H71619  10.385   7.234   7.374 -1.6355 -0.2730 -0.1152
  543MOL0     H71620  10.333   7.341   7.244 -1.6691 -0.4868  0.7733
  543MOL0     H71621  10.428   7.395   7.530 -0.7986  2.6347  1.1877
  543MOL0     H71622  10.343   7.520   7.436  1.0473  2.0027  0.1357
  543MOL0     H71623  10.522   7.496   7.257 -0.9330  0.1938  0.7463
  543MOL0     H71624  10.577   7.351   7.329 -0.2683 -0.6277 -0.1245
  543MOL0     H71625  10.670   7.604   7.354 -0.6822 -0.4401 -0.2465
  543MOL0     H71626  10.564   7.595   7.498 -1.1436  2.8075 -2.4310
  543MOL0     H71627  10.819   7.537   7.545  0.5949 -0.4053 -0.1163
  543MOL0     H71628  10.811   7.423   7.419 -0.0873 -2.5973  0.7676
  543MOL0     H71629  10.677   7.189   7.496 -1.5336  0.3660  1.2257
  543MOL0     H71630  10.614   6.994   7.764 -4.6611 -1.8902 -0.2688
  543MOL0     H71631  10.589   7.027   7.587 -2.5820  1.7726 -0.8782
  543MOL0     H71632  10.396   6.989   7.647 -1.3640 -0.3326  2.2326
  543MOL0     H71633  10.381   7.168   7.654 -2.3887  0.0436  2.4099
  543MOL0     H71634  10.457   7.039   7.911  1.0361 -0.0267 -0.7469
  543MOL0     H71635  10.369   7.190   7.860 -0.6423  0.0668 -2.7088
  543MOL0     H71636  10.206   7.023   7.968 -3.2612  2.8114 -1.5998
  543MOL0     H71637  10.262   6.918   7.841  0.5847 -0.4970  3.9344
  543MOL0     H71638  10.073   6.834   7.843  1.5178  2.4173  1.5715
  543MOL0     H71639   9.860   6.731   7.779  0.8489 -0.0565  0.1573
  543MOL0     H71640   9.502   6.993   7.287  0.4172 -0.5574  0.9933
  543MOL0     H71641   9.313   6.911   7.161 -1.3907  1.9526  2.6097
  543MOL0     H71642   9.123   6.833   7.128 -1.4404  0.3898  1.4312
  543MOL0     H71643   9.063   6.700   7.242  2.7603 -0.9417  0.5616
  543MOL0     H71644   8.991   6.567   7.068 -1.2111 -0.1353 -1.7619
  543MOL0     H71645   9.057   6.672   6.944  0.9836 -1.5556 -0.4623
  543MOL0     H71646   8.916   6.857   7.028 -0.0735 -0.1230 -1.4422
  543MOL0     H71647   8.848   6.749   7.147 -0.0832  1.6834  0.0468
  543MOL0     H71648   8.830   6.706   6.841 -1.9006 -0.5104 -0.6207
  543MOL0     H71649   8.761   6.607   6.975 -1.8253  0.5876  0.7608
  543MOL0     H71650   8.675   6.893   6.957  0.5297 -1.2805  1.8427
  543MOL0     H71651   8.596   6.753   7.024 -1.8348  1.6384 -0.6914
  543MOL0     H71652   8.538   6.659   6.810  4.1887 -1.6838  2.8217
  543MOL0     H71653   8.649   6.757   6.726 -0.3132  0.4982 -0.3234
  543MOL0     H71654   8.391   6.869   6.862  1.4072 -0.9238  1.5271
  543MOL0     H71655   8.528   6.967   6.805 -1.9641  1.7629 -0.3210
  543MOL0     H71656   8.492   6.871   6.562 -0.1674  2.4392 -1.0738
  543MOL0     H71657   8.347   6.956   6.614  2.3815  2.0238  0.6838
  543MOL0     H71658   9.379   6.513   7.334 -1.6947 -0.2688  2.2299
  543MOL0     H71659   9.535   6.607   7.481 -1.0739  1.2708  2.7161
  543MOL0     H71660   9.777   7.067   7.533  2.0143 -0.6460 -0.6681
  543MOL0     H71661   9.960   7.193   7.620  1.4431 -0.6298 -0.7258
  543MOL0     H71662   9.748   6.933   7.241 -1.2803  0.6957 -1.7424
  543MOL0     H71663   9.665   6.899   7.016 -0.6972  1.1971  1.7850
  543MOL0     H71664   9.620   7.193   6.586  0.2627  0.3345  0.1285
  543MOL0     H71665   9.473   7.116   6.391  3.8227  1.2238 -1.9025
  543MOL0     H71666   9.568   6.711   6.226 -1.6501 -0.9203  1.0702
  543MOL0     H71667   9.472   6.797   6.099 -5.0893 -1.5751 -1.4157
  543MOL0     H71668   9.366   6.579   6.205  2.4116 -0.5488  2.4355
  543MOL0     H71669   9.333   6.683   6.344 -2.9708 -3.3565 -1.3790
  543MOL0     H71670   9.247   6.769   6.069 -1.2234  1.1413  1.0161
  543MOL0     H71671   9.212   6.834   6.229  0.5089 -0.0857  3.0538
  543MOL0     H71672   9.158   6.548   6.121  0.1827 -0.1965 -0.1830
  543MOL0     H71673   9.102   6.594   6.277  0.8509  2.7212  1.3932
  543MOL0     H71674   8.834   6.806   6.027  0.2536  0.2683  0.4710
  543MOL0     H71675   9.589   6.725   6.437  0.2875 -0.2108 -1.2132
  543MOL0     H71676   9.700   6.768   6.635  1.9307 -0.7895 -1.8128
  544MOL0     O71677  11.413   9.780   7.077 -0.9131  0.3537 -0.6964
  544MOL0     C71678  11.405   9.799   7.200  0.3100  0.3147  0.5849
  544MOL0     O71679  11.356   9.916   7.252  0.0805 -1.6246  0.8634
  544MOL0     C71680  11.303  10.012   7.164  0.4938  0.1257  0.4873
  544MOL0     C71681  11.266  10.012   7.023 -0.3573 -0.1569 -0.9077
  544MOL0     C71682  11.220  10.128   6.956  0.6273  0.8022  0.4086
  544MOL0     C71683  11.220  10.256   7.019 -0.1721  0.1757  0.0084
  544MOL0     O71684  11.189  10.362   6.933  0.1371 -0.0838  0.5605
  544MOL0     C71685  11.221  10.496   6.959 -0.0944  0.1751  0.0288
  544MOL0     C71686  11.088  10.575   6.964 -1.1596  0.4542 -0.4152
  544MOL0     C71687  10.983  10.534   7.067  0.3916 -0.6687  0.7382
  544MOL0     C71688  10.842  10.597   7.027  0.1870 -0.2572  0.1906
  544MOL0     C71689  10.793  10.516   6.901 -0.4971  0.2249  0.0132
  544MOL0     C71690  10.642  10.515   6.879  0.0793  0.1438 -0.6496
  544MOL0     C71691  10.602  10.657   6.826 -0.3556  0.2058 -0.0757
  544MOL0     C71692  10.472  10.646   6.755 -0.0607 -0.3632 -0.4746
  544MOL0     N71693  10.358  10.603   6.850  0.4866 -0.0043  0.1417
  544MOL0     C71694  10.290  10.681   6.929  0.4435  0.2681 -0.3805
  544MOL0     C71695  10.195  10.599   6.978 -0.1970  0.2039 -0.2857
  544MOL0     C71696  10.096  10.617   7.086 -1.2512 -0.3791 -0.8806
  544MOL0     C71697  10.022  10.757   7.078  0.5559  0.1087 -0.3108
  544MOL0     C71698   9.904  10.782   7.176 -0.8872 -0.2676  0.6628
  544MOL0     C71699   9.959  10.821   7.316  0.5363  0.5781  0.1865
  544MOL0     O71700  10.016  10.951   7.315 -0.6164  0.0265 -0.3129
  544MOL0     C71701   9.920  11.047   7.330 -0.0282 -0.1616 -0.2785
  544MOL0     C71702   9.971  11.174   7.344 -0.0729 -0.1820  0.0768
  544MOL0     C71703   9.894  11.286   7.390 -0.4187 -0.3004  0.1333
  544MOL0     C71704   9.754  11.266   7.406 -0.4245 -0.2709 -0.2654
  544MOL0     C71705   9.666  11.372   7.460 -0.6262 -1.1620 -0.8453
  544MOL0     O71706   9.713  11.498   7.433  0.0280 -0.6884  0.1713
  544MOL0     C71707   9.618  11.590   7.422  0.1434 -1.4369  0.0802
  544MOL0     C71708   9.571  11.645   7.547 -0.7159  0.0263 -0.1096
  544MOL0     C71709   9.461  11.730   7.557 -0.1633 -0.0570  0.4159
  544MOL0     C71710   9.396  11.776   7.442 -0.8245 -0.0834 -0.0250
  544MOL0     O71711   9.293  11.870   7.437  0.3441  0.4048 -0.2920
  544MOL0     C71712   9.164  11.819   7.408  0.7013 -0.0064  0.2670
  544MOL0     C71713   9.073  11.930   7.363  0.3469  0.4586  0.2935
  544MOL0     C71714   8.927  11.895   7.343  1.2263 -0.1978  0.3074
  544MOL0     C71715   8.856  12.035   7.310 -0.3872  1.8096  0.3380
  544MOL0     C71716   8.708  11.998   7.294 -0.0064 -1.2928 -0.4826
  544MOL0     C71717   8.640  12.120   7.220 -0.3777  0.9648  0.1147
  544MOL0     C71718   8.497  12.079   7.204 -0.2764 -0.5743  0.8995
  544MOL0     C71719   8.408  12.205   7.167  0.7028  0.0392  0.2373
  544MOL0    Cl71720   8.488  12.301   7.036 -0.5235  0.6194  0.2623
  544MOL0     C71721   9.457  11.739   7.324  0.8008  0.3595 -0.9223
  544MOL0     C71722   9.556  11.644   7.312 -1.1219 -0.0972  0.5162
  544MOL0     O71723   9.556  11.343   7.512 -0.0217 -0.5190  0.0797
  544MOL0     C71724   9.698  11.144   7.367  0.3523 -0.1379 -0.2166
  544MOL0     C71725   9.780  11.040   7.330 -0.0483  0.1126 -0.7841
  544MOL0     N71726  10.198  10.477   6.919 -0.3499 -0.4643  0.2021
  544MOL0     N71727  10.296  10.480   6.844  0.3135  0.3340  0.5364
  544MOL0     C71728  11.253  10.261   7.156  0.3912 -0.1279 -0.1910
  544MOL0     C71729  11.296  10.143   7.218  0.0499  0.1342  0.0330
  544MOL0     C71730  11.461   9.707   7.288 -0.2750  0.5294 -0.0832
  544MOL0     C71731  11.478   9.570   7.260  0.1828 -0.3867  0.5275
  544MOL0     C71732  11.548   9.480   7.347  0.5070 -0.9128 -0.2226
  544MOL0     C71733  11.597   9.529   7.471  0.0050 -0.3969  0.3229
  544MOL0     O71734  11.682   9.450   7.543  0.2221  0.2985  0.1028
  544MOL0     C71735  11.719   9.477   7.676  0.5076  0.8277 -0.4021
  544MOL0     C71736  11.617   9.453   7.783  0.9974 -0.3138  0.0207
  544MOL0     C71737  11.678   9.455   7.917 -0.1658  0.2427 -1.0198
  544MOL0     C71738  11.570   9.415   8.015 -0.5008 -0.3953 -0.7985
  544MOL0     C71739  11.620   9.425   8.152 -0.4122  0.4409 -0.1940
  544MOL0     C71740  11.652   9.445   8.266  0.4757 -0.4012  0.8172
  544MOL0     C71741  11.587   9.672   7.490  0.1993 -0.2667 -0.7838
  544MOL0     C71742  11.524   9.751   7.401  0.0261 -0.4609 -1.2255
  544MOL0     H71743  11.270   9.917   6.971 -0.0470 -0.5201 -0.2402
  544MOL0     H71744  11.196  10.126   6.851 -0.2833  1.1937  0.6062
  544MOL0     H71745  11.279  10.542   6.879  0.1178 -0.1345  0.0011
  544MOL0     H71746  11.279  10.499   7.052 -0.5843 -4.6991  0.7275
  544MOL0     H71747  11.051  10.583   6.861  0.0717  1.0674 -0.8277
  544MOL0     H71748  11.116  10.676   6.996 -0.1730  0.6917 -1.9156
  544MOL0     H71749  11.010  10.566   7.168  0.9080  0.2120  0.3270
  544MOL0     H71750  10.977  10.425   7.077  1.1819 -1.0394 -2.1779
  544MOL0     H71751  10.779  10.593   7.116  0.9737  1.3890  0.8569
  544MOL0     H71752  10.859  10.698   6.989  1.8030 -0.9690 -1.1102
  544MOL0     H71753  10.835  10.416   6.913  1.3901  0.4362 -3.3793
  544MOL0     H71754  10.845  10.558   6.813  1.2895  1.4040  1.5530
  544MOL0     H71755  10.571  10.501   6.962 -2.1169 -1.3438 -2.6311
  544MOL0     H71756  10.618  10.436   6.808  2.0313 -0.6728 -0.4500
  544MOL0     H71757  10.598  10.731   6.906 -0.0051  1.4857 -1.1999
  544MOL0     H71758  10.667  10.702   6.751  0.8412 -0.8144  0.3254
  544MOL0     H71759  10.467  10.578   6.670  2.6770  0.9694 -1.8284
  544MOL0     H71760  10.446  10.744   6.715  0.1926  0.2731  0.8406
  544MOL0     H71761  10.303  10.784   6.961 -0.8433  0.1985  0.5014
  544MOL0     H71762  10.155  10.628   7.178 -1.7139 -0.5011 -0.5704
  544MOL0     H71763  10.035  10.527   7.090 -1.3635 -0.2495  1.0959
  544MOL0     H71764   9.983  10.766   6.976  0.7870 -1.1193 -0.5231
  544MOL0     H71765  10.096  10.835   7.099 -0.3670  0.7015  0.8329
  544MOL0     H71766   9.841  10.862   7.136  2.4902  2.1110 -0.2872
  544MOL0     H71767   9.844  10.690   7.178 -0.1662 -0.7637  0.2348
  544MOL0     H71768  10.042  10.756   7.345  2.1428  0.6239 -3.7555
  544MOL0     H71769   9.887  10.799   7.396  3.3852  0.2224  2.8627
  544MOL0     H71770  10.077  11.181   7.322 -0.4226 -0.5950 -1.9389
  544MOL0     H71771   9.936  11.382   7.416 -0.5923 -0.4997  1.2292
  544MOL0     H71772   9.628  11.605   7.631 -1.3614 -3.2332 -1.1056
  544MOL0     H71773   9.435  11.767   7.655  2.0484 -2.1943  1.9276
  544MOL0     H71774   9.120  11.751   7.481 -2.6420  0.5001 -1.0709
  544MOL0     H71775   9.171  11.748   7.325  1.4611  0.7875 -0.3641
  544MOL0     H71776   9.124  11.966   7.273  3.3456  1.2128  2.1355
  544MOL0     H71777   9.069  12.009   7.438  2.9088 -0.9130  2.0663
  544MOL0     H71778   8.876  11.843   7.424  1.0395  0.8870  0.9024
  544MOL0     H71779   8.912  11.842   7.248 -2.0839  4.1400 -1.9869
  544MOL0     H71780   8.865  12.117   7.383  0.7792  2.4358 -0.4724
  544MOL0     H71781   8.887  12.075   7.213 -1.3290  0.8701 -0.3709
  544MOL0     H71782   8.667  11.969   7.391  0.2893 -4.3729 -1.1869
  544MOL0     H71783   8.696  11.909   7.231 -0.4367 -2.7285  1.5346
  544MOL0     H71784   8.678  12.119   7.117 -1.3017 -1.0830 -0.2426
  544MOL0     H71785   8.655  12.215   7.273 -1.1496 -0.0449  2.2549
  544MOL0     H71786   8.491  12.008   7.121 -0.1947  1.5364 -1.0073
  544MOL0     H71787   8.459  12.033   7.295 -0.2054  2.0746  2.3626
  544MOL0     H71788   8.391  12.264   7.258 -1.0880  2.0895 -1.3093
  544MOL0     H71789   8.313  12.164   7.131 -0.1404  0.2942  2.0445
  544MOL0     H71790   9.414  11.796   7.242 -0.2541  1.9730  0.6838
  544MOL0     H71791   9.587  11.619   7.211 -0.1639 -0.8103  0.9775
  544MOL0     H71792   9.590  11.147   7.372  0.2803  1.6790 -1.7160
  544MOL0     H71793   9.732  10.946   7.306 -2.1024  0.6286  0.9616
  544MOL0     H71794  11.265  10.357   7.205 -2.0780 -0.0821  0.4947
  544MOL0     H71795  11.328  10.153   7.321 -2.4796 -0.3582  0.9371
  544MOL0     H71796  11.442   9.509   7.178 -1.6651 -2.1469  2.4964
  544MOL0     H71797  11.566   9.382   7.304  0.4089 -0.0658 -2.3423
  544MOL0     H71798  11.768   9.573   7.696  0.5764  0.9849 -1.3013
  544MOL0     H71799  11.793   9.401   7.704 -2.9607 -2.4695  0.5834
  544MOL0     H71800  11.525   9.512   7.775  1.1763 -0.0856 -0.3749
  544MOL0     H71801  11.597   9.347   7.765  0.1939 -0.4097  1.3401
  544MOL0     H71802  11.717   9.552   7.948  1.0338 -1.2642  2.7465
  544MOL0     H71803  11.757   9.380   7.927 -1.3282 -0.9368 -0.3521
  544MOL0     H71804  11.485   9.484   8.009 -0.1142  0.0160 -1.7792
  544MOL0     H71805  11.541   9.312   7.993  5.0248 -3.0300  2.1507
  544MOL0     H71806  11.676   9.470   8.368 -2.0231 -1.4287  1.7459
  544MOL0     H71807  11.614   9.724   7.581  0.0004  1.3337 -1.6029
  544MOL0     H71808  11.514   9.858   7.420 -1.8186 -0.7418 -0.3084
  545MOL0     O71809   5.443  10.159   3.790 -0.5178  1.3072  0.0483
  545MOL0     C71810   5.326  10.123   3.798 -1.1957  0.5601 -1.1141
  545MOL0     O71811   5.280  10.046   3.898  0.4717 -0.1408 -0.9883
  545MOL0     C71812   5.371   9.962   3.954  0.7172  0.4666  0.1924
  545MOL0     C71813   5.338   9.930   4.093  0.3846  1.2556  1.2919
  545MOL0     C71814   5.421   9.831   4.164  0.1319  0.4979 -0.4442
  545MOL0     C71815   5.529   9.771   4.099 -0.4959 -0.3154 -0.5046
  545MOL0     O71816   5.626   9.701   4.169  0.1722  0.0619  0.0362
  545MOL0     C71817   5.711   9.795   4.236 -0.0518  0.2419  0.3329
  545MOL0     C71818   5.698   9.750   4.381 -0.4684  0.3045 -0.0228
  545MOL0     C71819   5.800   9.654   4.440  0.3298 -0.2881  0.3282
  545MOL0     C71820   5.929   9.719   4.496  0.8977  0.5078  0.1027
  545MOL0     C71821   6.012   9.598   4.554  0.2461  0.1007 -1.1195
  545MOL0     C71822   6.072   9.521   4.435  0.5896  0.6576 -0.8397
  545MOL0     C71823   6.153   9.391   4.471 -0.3781  0.8238 -0.1474
  545MOL0     C71824   6.266   9.359   4.378  0.3633  0.5076 -0.9097
  545MOL0     N71825   6.340   9.240   4.437 -0.5798 -0.4004  0.4401
  545MOL0     C71826   6.306   9.106   4.418 -0.0625  0.3227 -0.4655
  545MOL0     C71827   6.418   9.040   4.470  1.0143 -0.7027 -0.8420
  545MOL0     C71828   6.436   8.890   4.472 -0.0325  0.2853 -0.8893
  545MOL0     C71829   6.571   8.845   4.416  0.5431  0.7471 -0.1225
  545MOL0     C71830   6.604   8.884   4.277 -0.9353 -0.2534  0.8353
  545MOL0     C71831   6.497   8.876   4.177 -0.4386  0.3406  1.0430
  545MOL0     O71832   6.569   8.879   4.052  0.9228 -0.8492  0.1841
  545MOL0     C71833   6.502   8.955   3.953  1.0018  0.5982  0.2998
  545MOL0     C71834   6.371   9.005   3.957  0.8033 -0.3714 -0.5694
  545MOL0     C71835   6.332   9.091   3.858  0.7193 -0.1958  0.3485
  545MOL0     C71836   6.404   9.117   3.750 -0.7035 -0.5249  0.9329
  545MOL0     C71837   6.350   9.206   3.645  0.3557  0.3322 -0.0658
  545MOL0     O71838   6.209   9.230   3.637 -0.4523  0.4124  0.2429
  545MOL0     C71839   6.154   9.320   3.546 -0.2780  0.1268  0.9150
  545MOL0     C71840   6.205   9.450   3.521  0.6596  1.0617  1.0398
  545MOL0     C71841   6.134   9.541   3.441  0.1987 -0.1775  0.5518
  545MOL0     C71842   6.010   9.510   3.382  0.4207  1.2050 -0.1729
  545MOL0     O71843   5.959   9.605   3.301  0.0832  0.0368  0.2739
  545MOL0     C71844   5.876   9.551   3.195 -1.1794 -0.1186 -0.1317
  545MOL0     C71845   5.962   9.478   3.093  0.0481  0.4037 -0.3168
  545MOL0     C71846   5.872   9.417   2.972  0.2346 -0.6533  0.1773
  545MOL0     C71847   5.891   9.265   2.965 -0.1126 -0.4442  0.1452
  545MOL0     C71848   5.815   9.210   2.847 -0.1539  1.2321 -0.1305
  545MOL0     C71849   5.786   9.061   2.859 -0.0794  1.4234  0.6117
  545MOL0     C71850   5.702   9.012   2.729 -0.9852  0.1790  0.5161
  545MOL0     C71851   5.554   9.061   2.722  0.1933  0.1826  0.1149
  545MOL0    Cl71852   5.487   8.970   2.588 -0.1200  0.0859  0.1553
  545MOL0     C71853   5.947   9.383   3.426 -0.2558  0.6398  0.8551
  545MOL0     C71854   6.019   9.300   3.510  0.0045  0.0186  0.2922
  545MOL0     O71855   6.425   9.257   3.567 -0.8207 -0.1055 -0.2093
  545MOL0     C71856   6.528   9.060   3.739  0.0190  0.3621  0.6230
  545MOL0     C71857   6.578   8.978   3.837 -0.0790  1.1801 -0.7738
  545MOL0     N71858   6.507   9.122   4.518 -0.7821  0.7062  0.6478
  545MOL0     N71859   6.466   9.243   4.494  0.7890 -0.2480  0.1461
  545MOL0     C71860   5.559   9.807   3.964 -1.0986  0.3827 -0.3500
  545MOL0     C71861   5.483   9.899   3.896 -0.1648 -1.3482  0.3187
  545MOL0     C71862   5.228  10.168   3.701 -0.9292 -0.4289  0.6487
  545MOL0     C71863   5.084  10.160   3.720 -0.7400  0.6046 -1.0092
  545MOL0     C71864   5.000  10.228   3.633  0.8056  0.9063  0.9504
  545MOL0     C71865   5.054  10.303   3.519  0.4743  0.6582  0.2977
  545MOL0     O71866   4.973  10.367   3.431 -0.5150  0.5054  0.1016
  545MOL0     C71867   4.832  10.350   3.424 -0.1042 -0.7469 -0.6181
  545MOL0     C71868   4.773  10.426   3.296 -2.1045 -0.2373  0.1594
  545MOL0     C71869   4.867  10.413   3.170 -0.6587 -1.1117 -0.3081
  545MOL0     C71870   4.784  10.451   3.046  0.1917  0.1119  0.0781
  545MOL0     C71871   4.856  10.471   2.924  0.2930 -0.5772  0.7944
  545MOL0     C71872   4.911  10.491   2.816  0.8798  0.3146  0.2557
  545MOL0     C71873   5.188  10.318   3.505  0.3095  0.2784  0.4218
  545MOL0     C71874   5.275  10.254   3.599 -0.1463 -0.4292  0.1859
  545MOL0     H71875   5.252   9.978   4.139 -0.3947  1.7511 -0.5854
  545MOL0     H71876   5.397   9.804   4.267  1.7974 -2.0235 -0.6221
  545MOL0     H71877   5.683   9.901   4.230  0.3610  0.2668 -2.8291
  545MOL0     H71878   5.815   9.793   4.200 -0.4287  1.0300 -0.8876
  545MOL0     H71879   5.603   9.695   4.390  0.4804 -1.1168  2.3162
  545MOL0     H71880   5.696   9.837   4.447  1.4927 -0.8128  1.6217
  545MOL0     H71881   5.815   9.583   4.358  3.0938 -0.6186  1.0283
  545MOL0     H71882   5.745   9.595   4.513 -3.6692  3.0215  0.3451
  545MOL0     H71883   5.973   9.778   4.414  0.9405 -1.0145 -1.0052
  545MOL0     H71884   5.888   9.774   4.581  0.2288 -2.8591  2.1018
  545MOL0     H71885   5.961   9.522   4.613  1.6427 -1.9032 -2.3878
  545MOL0     H71886   6.104   9.640   4.598 -2.1623  2.8729  1.7725
  545MOL0     H71887   6.136   9.584   4.373  1.3624  2.8926  2.0194
  545MOL0     H71888   5.987   9.484   4.377 -1.0478  4.6591 -1.2576
  545MOL0     H71889   6.196   9.405   4.570 -1.8359 -3.1230  1.2216
  545MOL0     H71890   6.089   9.304   4.488  1.1141 -0.1921  0.4465
  545MOL0     H71891   6.327   9.450   4.384 -1.7130  1.9309 -0.1301
  545MOL0     H71892   6.233   9.337   4.276 -0.6242 -2.4494 -0.0457
  545MOL0     H71893   6.230   9.048   4.367  1.3398 -0.9912 -1.1411
  545MOL0     H71894   6.352   8.839   4.425  0.9508 -1.2848 -1.0072
  545MOL0     H71895   6.430   8.854   4.575 -0.2739 -1.2194 -1.4101
  545MOL0     H71896   6.561   8.737   4.435  2.7823  0.4029 -0.6754
  545MOL0     H71897   6.652   8.884   4.478 -0.1229 -0.7657  1.8185
  545MOL0     H71898   6.635   8.989   4.280 -1.7381  0.0214 -0.0301
  545MOL0     H71899   6.691   8.826   4.245 -3.0159 -2.6268 -0.9308
  545MOL0     H71900   6.439   8.964   4.206  2.9787  2.5008  1.9191
  545MOL0     H71901   6.421   8.797   4.177 -1.8561  1.5411 -1.8414
  545MOL0     H71902   6.313   8.993   4.047  0.7574 -1.0695 -0.6805
  545MOL0     H71903   6.239   9.145   3.870 -0.7609 -2.2152 -1.3076
  545MOL0     H71904   6.301   9.491   3.551  0.1738  2.9026  0.2047
  545MOL0     H71905   6.187   9.635   3.435 -1.5329  0.8546  0.5784
  545MOL0     H71906   5.819   9.633   3.152 -1.8956 -0.9640 -0.8467
  545MOL0     H71907   5.798   9.482   3.229 -1.8622  0.4373 -0.5409
  545MOL0     H71908   6.008   9.399   3.153 -2.7188 -2.1798 -1.3310
  545MOL0     H71909   6.025   9.552   3.045 -1.1759  1.6451 -0.0887
  545MOL0     H71910   5.894   9.471   2.880  0.3343  0.6075  0.9085
  545MOL0     H71911   5.766   9.442   2.988  0.4162  2.2083 -2.1925
  545MOL0     H71912   5.998   9.250   2.953  0.0478  1.7473 -1.7818
  545MOL0     H71913   5.870   9.221   3.063 -0.5724 -0.1289  0.1911
  545MOL0     H71914   5.880   9.224   2.761 -0.7907  2.9757 -0.3571
  545MOL0     H71915   5.719   9.261   2.843 -1.6491 -1.4197 -0.3572
  545MOL0     H71916   5.731   9.043   2.952 -0.1059  2.7732  0.8802
  545MOL0     H71917   5.873   8.995   2.853 -2.7276 -2.4509  0.8185
  545MOL0     H71918   5.762   9.048   2.646  0.0973 -0.3352  1.0584
  545MOL0     H71919   5.699   8.903   2.727 -0.1065  0.1551  0.3393
  545MOL0     H71920   5.545   9.170   2.713 -0.3847  0.4216  2.7825
  545MOL0     H71921   5.502   9.030   2.813  0.7401 -2.3093 -0.3362
  545MOL0     H71922   5.861   9.336   3.379  1.9673 -0.2835 -2.6945
  545MOL0     H71923   5.970   9.204   3.526 -1.8306  1.3168  3.6948
  545MOL0     H71924   6.599   9.088   3.662 -1.7732  1.3538 -0.7555
  545MOL0     H71925   6.682   8.946   3.834 -0.5068 -0.8635  2.0211
  545MOL0     H71926   5.649   9.768   3.917 -0.6768  1.9550 -0.9388
  545MOL0     H71927   5.532   9.917   3.801  0.5737 -3.3383  0.2743
  545MOL0     H71928   5.043  10.107   3.805  0.3525 -0.6696 -1.2322
  545MOL0     H71929   4.894  10.233   3.656  0.5753  2.1119 -0.2497
  545MOL0     H71930   4.794  10.396   3.516 -0.2424 -0.3202 -0.8875
  545MOL0     H71931   4.810  10.243   3.417  0.2363 -0.9899  1.4109
  545MOL0     H71932   4.667  10.407   3.283 -3.4047  2.1061  4.9195
  545MOL0     H71933   4.779  10.533   3.322  2.3053  0.4064 -2.4561
  545MOL0     H71934   4.895  10.308   3.163 -1.4231 -1.2989 -0.6163
  545MOL0     H71935   4.961  10.469   3.176  0.1332 -2.5332  1.6559
  545MOL0     H71936   4.725  10.362   3.022 -3.8891  2.3154  1.0506
  545MOL0     H71937   4.721  10.539   3.064  0.7599  1.1071 -2.4618
  545MOL0     H71938   4.947  10.505   2.716 -3.8452  3.1903 -1.3683
  545MOL0     H71939   5.230  10.380   3.427  1.6612 -2.9606 -1.6132
  545MOL0     H71940   5.378  10.285   3.608  0.0820 -1.2253  0.3842
  546MOL0     O71941   2.965   0.258   1.077  0.2685 -0.6608 -0.3736
  546MOL0     C71942   3.040   0.295   1.170 -0.3587 -0.5150 -0.7725
  546MOL0     O71943   3.177   0.304   1.173 -0.3352 -0.3768  1.0193
  546MOL0     C71944   3.259   0.237   1.085  0.9161 -0.0777 -0.0604
  546MOL0     C71945   3.228   0.116   1.015 -0.0509 -0.3700  0.1548
  546MOL0     C71946   3.317   0.062   0.929 -0.2652  0.0598  0.5446
  546MOL0     C71947   3.441   0.120   0.899  0.8671 -0.4896 -0.7834
  546MOL0     O71948   3.525   0.054   0.818  0.2269 -0.1335 -0.2296
  546MOL0     C71949   3.466   0.018   0.696 -0.6705  0.0599 -0.2116
  546MOL0     C71950   3.574  -0.008   0.589  0.1815 -0.2673  0.1429
  546MOL0     C71951   3.561   0.052   0.449  0.4827  0.3085  0.6845
  546MOL0     C71952   3.439  -0.015   0.381  0.1277 -0.3628 -0.2783
  546MOL0     C71953   3.441   0.007   0.232  0.3294 -0.1881 -0.5137
  546MOL0     C71954   3.305  -0.046   0.178  0.2690 -0.2052  0.2524
  546MOL0     C71955   3.312  -0.056   0.026  0.3887  0.2349  0.7139
  546MOL0     C71956   3.171  -0.060  -0.043  0.1215 -0.2706 -0.1707
  546MOL0     N71957   3.067  -0.157   0.008 -0.1951  0.4387  0.2628
  546MOL0     C71958   2.999  -0.130   0.123  0.2642  0.2419  0.1358
  546MOL0     C71959   2.957  -0.247   0.170  0.2598  0.6333 -0.6966
  546MOL0     C71960   2.863  -0.251   0.296 -0.1705  0.4947 -0.9811
  546MOL0     C71961   2.739  -0.157   0.283  0.2236  0.1883  0.3303
  546MOL0     C71962   2.663  -0.181   0.150 -0.8529 -1.9808 -0.7506
  546MOL0     C71963   2.633  -0.323   0.129  0.7163 -0.5321  0.3002
  546MOL0     O71964   2.583  -0.387   0.250 -0.0733  0.5026 -0.2088
  546MOL0     C71965   2.570  -0.523   0.234  0.3519 -0.0586 -0.4033
  546MOL0     C71966   2.513  -0.579   0.348  0.1219 -0.0112 -1.1602
  546MOL0     C71967   2.495  -0.718   0.350 -0.0321 -0.0127  0.5044
  546MOL0     C71968   2.523  -0.806   0.247  0.0108  0.7769  0.1720
  546MOL0     C71969   2.486  -0.949   0.258 -0.5497 -0.7710  0.6800
  546MOL0     O71970   2.472  -1.019   0.139  0.3328  0.5072  0.0901
  546MOL0     C71971   2.474  -1.160   0.143 -0.5551  0.2308 -0.5559
  546MOL0     C71972   2.581  -1.232   0.208 -0.5566  0.8098  0.1362
  546MOL0     C71973   2.570  -1.367   0.240  0.1682  0.2701 -0.3048
  546MOL0     C71974   2.457  -1.447   0.214 -0.1095 -0.0212 -0.0376
  546MOL0     O71975   2.468  -1.581   0.258 -0.3686 -0.3374 -0.1797
  546MOL0     C71976   2.385  -1.673   0.189  0.1153  0.0067  0.1415
  546MOL0     C71977   2.403  -1.814   0.239  0.5977 -0.4530 -0.6390
  546MOL0     C71978   2.355  -1.802   0.382 -0.5533 -0.8403  0.3467
  546MOL0     C71979   2.372  -1.932   0.469  0.7272 -0.1158 -0.3626
  546MOL0     C71980   2.354  -2.083   0.409  0.8675 -0.5381 -0.1365
  546MOL0     C71981   2.401  -2.195   0.504 -0.9345  0.4778 -0.0031
  546MOL0     C71982   2.549  -2.182   0.561  0.2399 -0.4993  0.4796
  546MOL0     C71983   2.607  -2.287   0.646 -0.2012 -0.4143  0.4383
  546MOL0    Cl71984   2.549  -2.460   0.621  0.0768  0.2861 -0.2913
  546MOL0     C71985   2.353  -1.376   0.145  0.0273  0.2387 -0.0259
  546MOL0     C71986   2.364  -1.237   0.103  0.5700  0.1826 -0.7461
  546MOL0     O71987   2.478  -0.995   0.376 -0.5082 -0.4650  0.1060
  546MOL0     C71988   2.578  -0.747   0.128  0.5543 -0.2726  0.0750
  546MOL0     C71989   2.602  -0.606   0.125 -0.8834 -0.7378 -0.6471
  546MOL0     N71990   3.001  -0.348   0.090 -0.6741  0.4731 -0.9153
  546MOL0     N71991   3.074  -0.299   0.001  0.4524 -0.0306  0.6565
  546MOL0     C71992   3.477   0.230   0.982 -0.4068  0.1511 -0.2474
  546MOL0     C71993   3.384   0.296   1.067  0.1077 -0.2189 -0.1168
  546MOL0     C71994   2.986   0.343   1.299 -1.0246  0.1436 -0.2840
  546MOL0     C71995   2.858   0.302   1.334  0.3762  0.6563  0.1979
  546MOL0     C71996   2.803   0.313   1.464  0.2720 -0.1076  0.1703
  546MOL0     C71997   2.880   0.375   1.569  0.1215 -0.1583 -0.5572
  546MOL0     O71998   2.809   0.388   1.682 -0.9707 -0.1539  0.0706
  546MOL0     C71999   2.829   0.505   1.766 -0.6401  0.1159 -0.7885
  546MOL0     C72000   2.915   0.471   1.888  0.3193 -0.1955 -0.1594
  546MOL0     C72001   2.834   0.362   1.972 -0.0809  0.5210  0.0775
  546MOL0     C72002   2.927   0.247   2.026 -0.0948 -0.2263  0.3166
  546MOL0     C72003   2.970   0.187   1.895 -0.1503  0.7098 -0.1806
  546MOL0     C72004   3.007   0.129   1.797 -0.3087 -0.4281  0.2886
  546MOL0     C72005   3.006   0.423   1.536  0.4359 -0.0234 -0.3778
  546MOL0     C72006   3.060   0.404   1.407 -0.3872 -0.1967  0.0311
  546MOL0     H72007   3.133   0.067   1.034  1.0967 -2.5730  0.6309
  546MOL0     H72008   3.296  -0.038   0.891 -1.1980 -0.4532  2.2984
  546MOL0     H72009   3.384   0.082   0.662 -0.4858  0.3761 -0.0613
  546MOL0     H72010   3.434  -0.084   0.718  1.5961 -0.9887 -1.4486
  546MOL0     H72011   3.577  -0.117   0.580 -2.4334 -0.4666  0.9314
  546MOL0     H72012   3.670   0.031   0.624  0.0724  0.9616 -0.8725
  546MOL0     H72013   3.643   0.031   0.379 -0.6228 -2.2705  0.0449
  546MOL0     H72014   3.545   0.160   0.452  0.1645  0.2573  0.9567
  546MOL0     H72015   3.438  -0.121   0.408  1.2842  0.3312  2.9105
  546MOL0     H72016   3.354   0.044   0.418  2.0705  2.0802  0.5605
  546MOL0     H72017   3.520  -0.053   0.187  0.4197 -0.0679 -0.5156
  546MOL0     H72018   3.459   0.111   0.203  0.8508 -0.0198  0.3710
  546MOL0     H72019   3.223   0.017   0.214 -1.3797 -3.0897  1.9906
  546MOL0     H72020   3.288  -0.148   0.213 -0.0307 -0.9195 -1.8109
  546MOL0     H72021   3.370   0.024  -0.020 -1.6313  0.6982 -1.2105
  546MOL0     H72022   3.363  -0.147  -0.005  0.0011  0.3433 -0.2722
  546MOL0     H72023   3.200  -0.083  -0.146 -0.7109 -2.5405  0.0360
  546MOL0     H72024   3.132   0.041  -0.051  0.7473 -0.0309 -0.2840
  546MOL0     H72025   2.983  -0.035   0.174  0.9783  0.8712 -0.7726
  546MOL0     H72026   2.930  -0.211   0.373 -1.9814 -0.4649  1.2044
  546MOL0     H72027   2.850  -0.355   0.328 -0.9400  0.6860 -0.6439
  546MOL0     H72028   2.775  -0.054   0.287 -0.1070  0.4698 -2.1290
  546MOL0     H72029   2.685  -0.170   0.378  1.3916  2.5790  1.4011
  546MOL0     H72030   2.577  -0.113   0.148 -1.3190 -2.5687 -2.0776
  546MOL0     H72031   2.726  -0.145   0.068  1.7525  1.3041  2.3604
  546MOL0     H72032   2.728  -0.372   0.103  1.3419 -1.0245  3.1298
  546MOL0     H72033   2.570  -0.351   0.044  0.5533  0.8142 -0.0437
  546MOL0     H72034   2.500  -0.502   0.424 -0.3150 -0.4021 -0.8330
  546MOL0     H72035   2.462  -0.756   0.446 -3.0115  0.2441 -0.3078
  546MOL0     H72036   2.672  -1.187   0.246 -0.2560  1.8065 -1.6235
  546MOL0     H72037   2.655  -1.422   0.279  0.4471 -1.1501 -2.7586
  546MOL0     H72038   2.403  -1.678   0.082 -0.2943  0.3719  0.0512
  546MOL0     H72039   2.277  -1.658   0.198  0.2357  0.3436  1.2146
  546MOL0     H72040   2.512  -1.829   0.234  1.0757  2.1440  0.7425
  546MOL0     H72041   2.348  -1.891   0.183  2.1231 -2.5069  0.5181
  546MOL0     H72042   2.246  -1.788   0.376 -0.6922 -0.7148  2.5206
  546MOL0     H72043   2.391  -1.719   0.443 -1.8035 -0.3305  0.4409
  546MOL0     H72044   2.474  -1.929   0.508  0.5304 -1.1510  0.2636
  546MOL0     H72045   2.306  -1.922   0.556  0.6972 -1.1160 -0.2660
  546MOL0     H72046   2.414  -2.090   0.318  1.2562  1.6133 -0.0919
  546MOL0     H72047   2.250  -2.093   0.376  1.3380 -0.5489 -1.7145
  546MOL0     H72048   2.399  -2.285   0.442  3.9288  0.4019 -0.4748
  546MOL0     H72049   2.331  -2.209   0.587 -0.6628  1.2328  0.3742
  546MOL0     H72050   2.619  -2.180   0.477 -1.6650 -3.3346 -1.3814
  546MOL0     H72051   2.557  -2.095   0.626  0.0468  1.4085 -1.9243
  546MOL0     H72052   2.583  -2.250   0.746 -0.9706 -0.5073  0.2970
  546MOL0     H72053   2.716  -2.283   0.637  0.0443 -3.9753  0.2302
  546MOL0     H72054   2.274  -1.443   0.110 -0.7155 -0.2571  2.4095
  546MOL0     H72055   2.281  -1.192   0.050 -1.3672 -3.4143 -1.0524
  546MOL0     H72056   2.591  -0.817   0.046 -0.3957 -2.5110  1.7243
  546MOL0     H72057   2.645  -0.559   0.037 -0.1458  2.2549  1.1591
  546MOL0     H72058   3.573   0.278   0.972 -0.6673  0.8073  0.3756
  546MOL0     H72059   3.420   0.381   1.124 -0.7586  0.6209 -0.7964
  546MOL0     H72060   2.802   0.249   1.258  1.3653 -0.1479  0.0034
  546MOL0     H72061   2.700   0.280   1.470  0.2150  0.1854  0.8365
  546MOL0     H72062   2.730   0.534   1.803 -0.1782  3.7500 -1.9304
  546MOL0     H72063   2.868   0.583   1.700 -4.5410  1.7483 -1.4592
  546MOL0     H72064   3.015   0.441   1.857  1.2174 -1.6011  3.5728
  546MOL0     H72065   2.935   0.552   1.959  2.1106 -1.4408  0.8250
  546MOL0     H72066   2.750   0.327   1.913 -0.3425  5.0907 -2.7793
  546MOL0     H72067   2.781   0.411   2.054  0.5790  1.7088 -0.1758
  546MOL0     H72068   3.012   0.298   2.071 -1.1418  0.2684  1.8316
  546MOL0     H72069   2.883   0.174   2.095 -0.1669 -2.4715 -1.9490
  546MOL0     H72070   3.025   0.082   1.702  1.1491 -0.9552  0.7857
  546MOL0     H72071   3.062   0.467   1.618 -0.9970  2.4919 -0.6553
  546MOL0     H72072   3.164   0.433   1.392 -0.3185 -1.7874 -3.5398
  547MOL0     O72073   3.571   9.467   7.012  0.9071 -0.3117  0.2306
  547MOL0     C72074   3.505   9.383   6.942 -0.4412  0.5978 -0.3655
  547MOL0     O72075   3.504   9.249   6.973  0.1100 -0.2662 -0.2585
  547MOL0     C72076   3.572   9.214   7.085  0.6435 -0.5545  0.4541
  547MOL0     C72077   3.702   9.171   7.079 -0.3233 -0.7034 -0.3389
  547MOL0     C72078   3.768   9.133   7.204  0.2314 -0.5920  0.0400
  547MOL0     C72079   3.697   9.131   7.323  0.6955  0.2877 -0.0684
  547MOL0     O72080   3.740   9.091   7.449 -0.2400 -0.2490  0.1388
  547MOL0     C72081   3.863   9.020   7.459  0.6039  0.4697 -1.0109
  547MOL0     C72082   3.991   9.110   7.457  0.0257 -0.1740  0.1498
  547MOL0     C72083   3.982   9.236   7.556 -0.1129  0.0793  0.3135
  547MOL0     C72084   4.111   9.331   7.545  0.5268 -0.4268  0.3800
  547MOL0     C72085   4.086   9.453   7.634  1.0642  0.6046  0.0285
  547MOL0     C72086   4.191   9.561   7.617  0.8369  0.0451  0.2540
  547MOL0     C72087   4.180   9.666   7.718 -0.0172 -0.1970  0.2065
  547MOL0     C72088   4.304   9.760   7.694 -1.0730  1.0142  0.0195
  547MOL0     N72089   4.297   9.874   7.795  0.0647 -0.7150 -0.5530
  547MOL0     C72090   4.335  10.002   7.772  0.4987  0.5969  0.2712
  547MOL0     C72091   4.369  10.050   7.896 -0.0770 -0.3340  0.4825
  547MOL0     C72092   4.413  10.195   7.918 -0.2031 -0.6357 -0.1588
  547MOL0     C72093   4.336  10.274   8.031 -0.1803  0.4315  0.5386
  547MOL0     C72094   4.379  10.237   8.177  0.2804  0.4144  0.5963
  547MOL0     C72095   4.347  10.352   8.266 -0.2087 -0.4238  0.3720
  547MOL0     O72096   4.219  10.412   8.238 -0.1028 -0.1931 -0.6064
  547MOL0     C72097   4.181  10.533   8.286  0.5859  0.2963 -0.2435
  547MOL0     C72098   4.231  10.592   8.399  0.1718 -0.7712  0.4887
  547MOL0     C72099   4.191  10.716   8.440 -0.6144  0.5047  0.7064
  547MOL0     C72100   4.083  10.780   8.369 -0.5105  0.0014  0.7723
  547MOL0     C72101   4.043  10.912   8.412 -0.5713  0.0132 -0.4829
  547MOL0     O72102   4.033  10.926   8.544 -0.5643  0.3265 -0.1416
  547MOL0     C72103   4.005  11.039   8.616  0.2208  0.6765 -0.3588
  547MOL0     C72104   4.009  11.171   8.562  0.3531 -0.1964 -0.2912
  547MOL0     C72105   3.999  11.275   8.646  0.1046  0.6850  0.0694
  547MOL0     C72106   3.979  11.259   8.787 -0.3870 -0.0489 -0.1942
  547MOL0     O72107   3.983  11.366   8.879 -0.7225 -0.0537  0.6070
  547MOL0     C72108   3.971  11.502   8.819  0.6510 -0.0513 -0.1782
  547MOL0     C72109   3.967  11.611   8.946 -1.4446  0.1312 -0.1904
  547MOL0     C72110   3.837  11.598   9.028  1.2134  0.2788  0.2831
  547MOL0     C72111   3.832  11.700   9.140 -0.5920  0.0437 -0.4702
  547MOL0     C72112   3.693  11.734   9.164  0.1677 -0.4466  0.1562
  547MOL0     C72113   3.677  11.853   9.255  1.4021  0.1423 -0.4515
  547MOL0     C72114   3.530  11.906   9.262 -0.2006  0.4424  0.2519
  547MOL0     C72115   3.501  12.038   9.340 -0.2218  0.0015  0.5405
  547MOL0    Cl72116   3.601  12.175   9.267  0.2351  0.2341  0.1417
  547MOL0     C72117   3.980  11.131   8.842  1.4645 -0.1367 -0.2073
  547MOL0     C72118   3.994  11.021   8.761  0.0137  0.1762 -0.1169
  547MOL0     O72119   3.999  10.987   8.326  0.7052 -0.4681 -0.4841
  547MOL0     C72120   4.033  10.726   8.252 -0.5525  0.6336 -0.6938
  547MOL0     C72121   4.086  10.601   8.213 -0.4438 -0.1902 -0.9657
  547MOL0     N72122   4.330   9.953   7.990 -0.1792  0.8529  0.5347
  547MOL0     N72123   4.287   9.850   7.932 -0.1341  0.3167 -0.2626
  547MOL0     C72124   3.559   9.163   7.318  0.1872  1.2493  0.5527
  547MOL0     C72125   3.493   9.199   7.199 -1.6730 -0.2803  0.3372
  547MOL0     C72126   3.462   9.435   6.806 -0.4078  0.6614  0.6914
  547MOL0     C72127   3.487   9.563   6.753 -0.0945  0.3087  0.8501
  547MOL0     C72128   3.421   9.606   6.634  0.5610 -0.6011  0.1300
  547MOL0     C72129   3.329   9.517   6.566 -0.2946 -0.3787 -0.3734
  547MOL0     O72130   3.249   9.553   6.456  0.3863 -0.2507 -0.3479
  547MOL0     C72131   3.214   9.687   6.411  1.0868 -1.1099  0.1370
  547MOL0     C72132   3.079   9.697   6.329  0.4694  0.5809  0.7278
  547MOL0     C72133   3.081   9.835   6.251 -0.3756  0.4959  0.1424
  547MOL0     C72134   2.940   9.899   6.242  0.0866  0.6603  0.5678
  547MOL0     C72135   2.852   9.816   6.163  0.6498  0.3183  0.3455
  547MOL0     C72136   2.766   9.751   6.098  0.9033  0.2045  0.7398
  547MOL0     C72137   3.324   9.386   6.608 -0.0491  0.6321 -0.6878
  547MOL0     C72138   3.388   9.341   6.727  0.0600  0.4037  0.4861
  547MOL0     H72139   3.753   9.159   6.984 -0.0146  0.2474 -0.3134
  547MOL0     H72140   3.867   9.089   7.197 -0.1774 -1.2788 -2.4175
  547MOL0     H72141   3.862   8.937   7.388  0.3336  0.4834 -1.0232
  547MOL0     H72142   3.874   8.975   7.558  2.4534  1.4089 -0.7568
  547MOL0     H72143   4.012   9.157   7.361 -2.5552 -0.6706 -0.7247
  547MOL0     H72144   4.076   9.047   7.486  0.8717  0.4282 -0.9710
  547MOL0     H72145   3.978   9.181   7.650  1.5016 -2.0633 -0.7801
  547MOL0     H72146   3.902   9.305   7.529  1.6495  0.4929 -5.1593
  547MOL0     H72147   4.195   9.279   7.593 -0.5373 -1.3173  1.3076
  547MOL0     H72148   4.137   9.368   7.446 -1.2060  1.1587  0.4560
  547MOL0     H72149   4.071   9.407   7.732 -1.1209 -0.2322 -0.6482
  547MOL0     H72150   3.987   9.483   7.600  0.2130 -2.4348 -0.5063
  547MOL0     H72151   4.157   9.599   7.520  0.7781 -3.2896 -1.1571
  547MOL0     H72152   4.291   9.519   7.610 -0.2923 -3.7010  3.2927
  547MOL0     H72153   4.087   9.720   7.700 -0.0287 -0.6949 -1.3673
  547MOL0     H72154   4.182   9.616   7.815  1.4490  4.2285  2.7410
  547MOL0     H72155   4.282   9.794   7.592 -3.0727  0.6737  0.3020
  547MOL0     H72156   4.403   9.713   7.696 -1.5605 -0.0717 -0.7186
  547MOL0     H72157   4.351  10.054   7.678 -0.1392 -1.5245 -1.0711
  547MOL0     H72158   4.405  10.261   7.831 -1.6092  0.2408  0.5917
  547MOL0     H72159   4.518  10.190   7.948  0.2921 -0.2356 -1.7269
  547MOL0     H72160   4.232  10.260   8.003  0.9378  0.4347 -4.4853
  547MOL0     H72161   4.373  10.375   8.009 -1.7525  0.9753  0.3143
  547MOL0     H72162   4.314  10.151   8.199  0.8628 -1.2924 -3.3809
  547MOL0     H72163   4.484  10.207   8.172  0.3004  0.6658 -2.4665
  547MOL0     H72164   4.427  10.425   8.248 -0.2412 -0.3395  0.5708
  547MOL0     H72165   4.358  10.314   8.368  0.7395 -1.2083 -0.0055
  547MOL0     H72166   4.305  10.549   8.467  0.9804  0.5391  0.4737
  547MOL0     H72167   4.241  10.766   8.522  0.1778 -1.0113  1.1807
  547MOL0     H72168   4.024  11.193   8.457  2.9933 -1.1127 -0.2075
  547MOL0     H72169   3.995  11.369   8.592  0.1890  0.8618  0.3712
  547MOL0     H72170   3.882  11.511   8.757 -0.8360 -2.7009  1.3685
  547MOL0     H72171   4.051  11.523   8.747  1.3907 -1.2154  0.2722
  547MOL0     H72172   3.974  11.713   8.905 -0.2691  0.8177  1.5876
  547MOL0     H72173   4.059  11.605   9.005 -1.4981 -0.6016 -0.1812
  547MOL0     H72174   3.826  11.496   9.067  0.3725 -1.3919 -3.8351
  547MOL0     H72175   3.749  11.600   8.963  0.5501  0.7596  1.1679
  547MOL0     H72176   3.887  11.665   9.228  2.4917  0.8241 -1.9512
  547MOL0     H72177   3.888  11.790   9.113  5.6571 -3.8945 -2.8596
  547MOL0     H72178   3.624  11.662   9.210  0.0976  1.1741  2.7257
  547MOL0     H72179   3.651  11.760   9.066  1.1508 -3.0221 -1.0539
  547MOL0     H72180   3.748  11.931   9.227  1.6601  1.2380  2.8307
  547MOL0     H72181   3.716  11.824   9.353  1.2499  0.3838 -0.3183
  547MOL0     H72182   3.503  11.907   9.156  5.7234  0.7085 -1.6275
  547MOL0     H72183   3.471  11.829   9.313 -2.4507  1.7804 -0.1991
  547MOL0     H72184   3.532  12.033   9.444  0.4902  0.1310  0.3351
  547MOL0     H72185   3.396  12.064   9.323 -0.3461 -2.5910 -4.6622
  547MOL0     H72186   3.960  11.127   8.948  0.9522  0.3520 -0.2775
  547MOL0     H72187   3.988  10.922   8.807 -0.5148  0.4327  0.3721
  547MOL0     H72188   3.944  10.766   8.205 -0.4118  1.6242 -0.1470
  547MOL0     H72189   4.052  10.558   8.119  2.4897  2.8337 -3.6704
  547MOL0     H72190   3.486   9.171   7.398  2.2843  0.0302  2.7289
  547MOL0     H72191   3.384   9.202   7.207 -1.7280  4.1962  0.1667
  547MOL0     H72192   3.546   9.637   6.805 -0.0719 -1.0676  2.9077
  547MOL0     H72193   3.420   9.710   6.604 -2.2148  0.2146  2.5724
  547MOL0     H72194   3.292   9.716   6.340  0.5210  0.7112  0.2109
  547MOL0     H72195   3.206   9.752   6.499  3.2030 -0.4865 -0.0678
  547MOL0     H72196   3.069   9.608   6.266  1.7292  0.7937  0.2145
  547MOL0     H72197   3.000   9.697   6.405  0.7933  3.4588  1.1760
  547MOL0     H72198   3.123   9.809   6.153 -0.2842  2.7377 -0.4581
  547MOL0     H72199   3.155   9.899   6.300 -0.2761 -1.4383  2.7035
  547MOL0     H72200   2.910   9.912   6.347 -0.7453 -0.6706  0.5286
  547MOL0     H72201   2.952  10.001   6.205  0.1624 -0.3286 -2.3297
  547MOL0     H72202   2.703   9.687   6.041 -0.5481  0.5856  1.8431
  547MOL0     H72203   3.278   9.306   6.552  0.3386 -0.3990  0.4140
  547MOL0     H72204   3.364   9.240   6.759 -4.1786  0.9221 -0.4843
  548MOL0     O72205   6.057  11.101   7.840  0.7940  0.5325  0.3772
  548MOL0     C72206   5.990  11.106   7.947  0.6399  0.7338  0.0868
  548MOL0     O72207   5.992  11.003   8.041  0.3672 -0.7095  0.4438
  548MOL0     C72208   6.057  10.886   8.029 -0.5266  0.4589  0.1868
  548MOL0     C72209   6.072  10.809   7.912  0.0430 -1.4456 -0.9285
  548MOL0     C72210   6.152  10.701   7.916  0.1904  0.5080  0.5801
  548MOL0     C72211   6.227  10.661   8.026 -0.0456 -0.1784  0.2920
  548MOL0     O72212   6.313  10.556   7.999 -0.3333 -0.7314 -0.5792
  548MOL0     C72213   6.427  10.555   8.085  0.6156 -0.7467 -0.8004
  548MOL0     C72214   6.556  10.511   8.012 -0.6944  0.6974 -0.1340
  548MOL0     C72215   6.610  10.624   7.915  0.1034 -0.5418 -0.5704
  548MOL0     C72216   6.761  10.600   7.886  0.1851 -0.9413 -0.4395
  548MOL0     C72217   6.805  10.690   7.773 -1.0303 -0.4479 -1.5495
  548MOL0     C72218   6.905  10.800   7.810  0.7825 -0.2305  0.9938
  548MOL0     C72219   6.958  10.895   7.685  0.2827  0.0739 -0.9368
  548MOL0     C72220   7.055  11.003   7.731 -0.6846 -0.5062 -0.2929
  548MOL0     N72221   7.162  10.947   7.816  0.3953 -0.5374 -0.5985
  548MOL0     C72222   7.247  10.853   7.775 -0.2044 -0.3541  0.4639
  548MOL0     C72223   7.289  10.789   7.882  0.9014  0.5983  0.5075
  548MOL0     C72224   7.358  10.659   7.874 -0.1996 -0.8378 -0.0264
  548MOL0     C72225   7.291  10.549   7.951  0.7586  0.0457 -0.5915
  548MOL0     C72226   7.366  10.419   7.959 -1.0035  0.0217  0.0227
  548MOL0     C72227   7.371  10.357   7.819 -0.3869 -0.0544  0.6605
  548MOL0     O72228   7.423  10.219   7.811 -0.2205  0.2049  0.5999
  548MOL0     C72229   7.556  10.205   7.789 -0.4375  0.6510  0.3707
  548MOL0     C72230   7.652  10.261   7.878  0.3365  1.3245  0.1679
  548MOL0     C72231   7.780  10.214   7.869  0.4422  0.2941  0.1430
  548MOL0     C72232   7.821  10.133   7.760 -0.7250  0.0826 -0.3379
  548MOL0     C72233   7.960  10.108   7.737  0.2729  0.2007 -0.0038
  548MOL0     O72234   8.054  10.205   7.745  0.1525 -0.5817  0.0771
  548MOL0     C72235   8.184  10.186   7.703  0.7733 -0.0078  0.9454
  548MOL0     C72236   8.219  10.152   7.569  0.7385 -0.3998  0.0902
  548MOL0     C72237   8.350  10.125   7.534 -0.9735  0.4290  0.0142
  548MOL0     C72238   8.448  10.125   7.632  0.2279 -0.6067 -0.4302
  548MOL0     O72239   8.581  10.092   7.589  0.1738 -0.7237 -0.9027
  548MOL0     C72240   8.678  10.070   7.687  0.1116 -0.6724  0.0921
  548MOL0     C72241   8.803  10.000   7.623  0.4913 -0.2488  0.3401
  548MOL0     C72242   8.761   9.845   7.581  0.0204  0.4962 -0.8338
  548MOL0     C72243   8.744   9.760   7.710  0.8378  0.0714  0.3930
  548MOL0     C72244   8.738   9.608   7.688  0.6358 -0.2173  0.0197
  548MOL0     C72245   8.617   9.566   7.593 -0.4540  0.0530  0.5380
  548MOL0     C72246   8.555   9.427   7.621  0.6737  0.5615 -0.0110
  548MOL0     C72247   8.648   9.320   7.675  0.2586  0.3207 -0.2437
  548MOL0    Cl72248   8.671   9.289   7.849 -0.3422  0.0102  0.1956
  548MOL0     C72249   8.427  10.170   7.758  0.6958 -1.6056  0.1609
  548MOL0     C72250   8.295  10.207   7.786 -0.5063 -0.0611 -0.1834
  548MOL0     O72251   7.978   9.998   7.689 -0.2729 -0.5976 -0.4301
  548MOL0     C72252   7.724  10.090   7.663 -0.1849 -0.3829 -0.1279
  548MOL0     C72253   7.594  10.113   7.686 -0.7566 -1.1022 -0.2360
  548MOL0     N72254   7.222  10.840   7.992 -0.4324  1.3135 -0.0174
  548MOL0     N72255   7.152  10.943   7.951  0.3395 -0.1141 -0.0233
  548MOL0     C72256   6.190  10.717   8.147  0.5166 -0.0938 -0.2271
  548MOL0     C72257   6.110  10.836   8.148 -0.5835 -0.1632  0.1831
  548MOL0     C72258   5.902  11.219   7.977  0.1307 -0.3019  0.2207
  548MOL0     C72259   5.831  11.240   8.094 -0.6924  0.3250  0.1388
  548MOL0     C72260   5.741  11.340   8.104  0.4479 -0.1459  0.6606
  548MOL0     C72261   5.724  11.434   8.009 -0.0797  0.1293  0.6002
  548MOL0     O72262   5.629  11.520   8.036  0.8319  0.5003  0.0250
  548MOL0     C72263   5.637  11.656   7.998 -0.8866 -0.6978  0.6718
  548MOL0     C72264   5.759  11.729   8.078  0.2879  1.4857  0.1966
  548MOL0     C72265   5.738  11.718   8.232 -0.0354  1.5360  0.6399
  548MOL0     C72266   5.864  11.718   8.317 -1.3509 -0.6226 -0.0291
  548MOL0     C72267   5.948  11.597   8.310  0.0410 -0.9446  0.5333
  548MOL0     C72268   5.994  11.485   8.287  0.5193  0.3347 -0.6287
  548MOL0     C72269   5.797  11.428   7.887 -0.4524  0.1200  1.2212
  548MOL0     C72270   5.882  11.314   7.874 -0.5385  0.2996 -0.7840
  548MOL0     H72271   6.021  10.837   7.820 -1.1272  0.7666  0.3101
  548MOL0     H72272   6.182  10.643   7.830  0.2514  0.6073  0.5339
  548MOL0     H72273   6.408  10.484   8.166  2.3445  1.4370  1.7063
  548MOL0     H72274   6.442  10.653   8.130  0.5890 -0.7101 -0.8713
  548MOL0     H72275   6.544  10.412   7.967  1.4532  0.9870 -1.4960
  548MOL0     H72276   6.638  10.497   8.083  1.6897  0.0884 -2.8046
  548MOL0     H72277   6.580  10.720   7.959  2.5230 -0.1600  0.4457
  548MOL0     H72278   6.556  10.636   7.821 -3.3823  0.1974  1.3729
  548MOL0     H72279   6.820  10.604   7.978 -0.7569  1.9916  0.1473
  548MOL0     H72280   6.782  10.501   7.845 -2.4853 -2.0022  0.5254
  548MOL0     H72281   6.718  10.746   7.735  0.3799  2.3114 -0.9689
  548MOL0     H72282   6.850  10.634   7.691 -1.4124  0.2225 -2.2352
  548MOL0     H72283   6.988  10.740   7.848  1.2884 -0.2855 -0.1768
  548MOL0     H72284   6.868  10.868   7.888  1.3857  0.3833  0.7609
  548MOL0     H72285   7.005  10.837   7.604 -0.1152  1.8710 -2.5235
  548MOL0     H72286   6.868  10.937   7.639  0.4748 -0.7793 -2.1674
  548MOL0     H72287   7.011  11.081   7.794  0.8527 -1.6379  2.3192
  548MOL0     H72288   7.103  11.051   7.645 -1.6096 -2.7336 -2.1763
  548MOL0     H72289   7.267  10.829   7.671 -0.4035 -0.3322  0.4184
  548MOL0     H72290   7.463  10.675   7.902  0.1965 -1.5112 -1.0520
  548MOL0     H72291   7.351  10.629   7.769 -0.0794 -1.8244  0.2418
  548MOL0     H72292   7.197  10.515   7.907 -0.7481  0.0059  2.4319
  548MOL0     H72293   7.265  10.590   8.049 -1.4596  1.8142 -1.8502
  548MOL0     H72294   7.465  10.429   8.004 -0.8231 -1.4555  0.0039
  548MOL0     H72295   7.317  10.341   8.018  1.0960 -1.6378 -0.2908
  548MOL0     H72296   7.431  10.426   7.759  0.6124 -1.3435  0.1265
  548MOL0     H72297   7.276  10.354   7.764 -0.0060  3.4800 -0.4417
  548MOL0     H72298   7.619  10.311   7.968 -0.0158  2.9654 -0.8237
  548MOL0     H72299   7.849  10.243   7.947 -0.0355  3.8885 -0.5817
  548MOL0     H72300   8.145  10.145   7.490  1.0332 -0.1626 -0.2083
  548MOL0     H72301   8.364  10.079   7.437  0.8327  0.5317  0.1968
  548MOL0     H72302   8.644   9.992   7.755 -1.2204  2.5167  3.3907
  548MOL0     H72303   8.700  10.157   7.749  0.6770 -2.1747  2.0870
  548MOL0     H72304   8.886   9.991   7.693  0.8652 -4.1661 -0.3382
  548MOL0     H72305   8.846  10.056   7.540  4.1857 -1.2204  1.4064
  548MOL0     H72306   8.841   9.794   7.527  0.6244  1.9052 -1.3209
  548MOL0     H72307   8.666   9.830   7.528 -0.7165 -3.0869  1.2041
  548MOL0     H72308   8.825   9.769   7.782  0.4484  2.6652  0.6060
  548MOL0     H72309   8.649   9.786   7.756  1.1417  4.4409 -1.0451
  548MOL0     H72310   8.731   9.557   7.784 -0.1440  1.1874  0.7391
  548MOL0     H72311   8.830   9.578   7.636 -0.3555  0.6447 -2.3929
  548MOL0     H72312   8.649   9.561   7.489  1.4626  0.5959  1.0613
  548MOL0     H72313   8.528   9.629   7.600 -1.5118 -1.3250 -0.0090
  548MOL0     H72314   8.471   9.443   7.690  1.0011  0.4405  0.4230
  548MOL0     H72315   8.508   9.385   7.532 -0.9770 -1.7874  1.8186
  548MOL0     H72316   8.751   9.331   7.639  1.3772 -1.0302  2.2721
  548MOL0     H72317   8.597   9.230   7.642 -0.0553 -0.2841  1.7665
  548MOL0     H72318   8.510  10.185   7.826  1.4406 -0.3809 -0.9783
  548MOL0     H72319   8.271  10.253   7.882 -1.9159  2.0247 -1.4369
  548MOL0     H72320   7.765  10.052   7.570 -2.9893  0.1299 -1.7225
  548MOL0     H72321   7.531  10.065   7.611  1.4689 -0.0125 -2.9925
  548MOL0     H72322   6.247  10.692   8.235 -0.6708  1.1112  0.9350
  548MOL0     H72323   6.099  10.892   8.240  0.1901  0.6303 -0.1840
  548MOL0     H72324   5.846  11.166   8.172  2.5067  1.3192  0.6270
  548MOL0     H72325   5.665  11.355   8.180  0.0143 -0.4438  0.2910
  548MOL0     H72326   5.543  11.710   8.010  0.4657  1.6581  1.2240
  548MOL0     H72327   5.666  11.666   7.893  0.8126  2.0536  1.2969
  548MOL0     H72328   5.853  11.676   8.065 -0.3288 -0.3863  2.7135
  548MOL0     H72329   5.765  11.835   8.048 -4.1281  1.7482 -0.4492
  548MOL0     H72330   5.691  11.622   8.257  1.0727  0.7831 -0.0805
  548MOL0     H72331   5.672  11.797   8.269 -1.7431 -0.2898  1.7093
  548MOL0     H72332   5.916  11.814   8.308  0.0357 -1.3714 -0.3317
  548MOL0     H72333   5.839  11.733   8.422 -2.3937 -1.9906 -0.0630
  548MOL0     H72334   6.030  11.392   8.248  0.0037  1.0699 -3.0193
  548MOL0     H72335   5.751  11.479   7.803 -1.0290 -3.7931 -1.0669
  548MOL0     H72336   5.919  11.302   7.772 -3.2500 -3.2204 -1.5420
  549MOL0     O72337   9.795  11.153   6.362  0.2675  0.3420  0.2105
  549MOL0     C72338   9.835  11.069   6.278  0.6083  0.8842  0.3031
  549MOL0     O72339   9.808  10.935   6.282 -0.2278  0.2334 -0.7199
  549MOL0     C72340   9.751  10.889   6.397 -0.0547 -0.7286  0.3478
  549MOL0     C72341   9.824  10.871   6.516  0.1293  0.3579 -0.1267
  549MOL0     C72342   9.767  10.813   6.632 -0.4341 -0.4458  0.8474
  549MOL0     C72343   9.626  10.785   6.639  1.0252 -0.8585  0.0643
  549MOL0     O72344   9.555  10.713   6.727 -0.2043  0.0285 -0.4698
  549MOL0     C72345   9.627  10.674   6.845  0.1501  0.5435  0.3520
  549MOL0     C72346   9.623  10.780   6.951  0.2564 -0.5937  0.1027
  549MOL0     C72347   9.480  10.818   6.999 -0.1428  0.4572  1.1867
  549MOL0     C72348   9.493  10.880   7.137 -0.0395  0.8901  0.8817
  549MOL0     C72349   9.356  10.875   7.210  0.0626  0.9658  0.6970
  549MOL0     C72350   9.374  10.943   7.343  1.4582  0.0159 -1.0185
  549MOL0     C72351   9.259  10.899   7.437 -0.2956 -0.1840  0.3963
  549MOL0     C72352   9.252  11.010   7.549 -0.5719  0.8921  0.3173
  549MOL0     N72353   9.133  10.998   7.633  0.5975  0.2609  0.1866
  549MOL0     C72354   9.014  11.076   7.650  0.1347 -1.0295  0.5970
  549MOL0     C72355   8.929  10.991   7.716  0.2555  0.9941 -1.1816
  549MOL0     C72356   8.793  11.024   7.778 -0.2995 -0.8861 -0.3810
  549MOL0     C72357   8.718  11.135   7.703  0.8363 -0.1920 -0.3865
  549MOL0     C72358   8.607  11.171   7.795  0.1544 -0.4921 -1.0819
  549MOL0     C72359   8.508  11.272   7.739  0.5223 -0.6302 -0.9726
  549MOL0     O72360   8.577  11.403   7.718 -0.5543 -0.2564  0.1556
  549MOL0     C72361   8.513  11.511   7.652  0.1758  1.3979  0.7839
  549MOL0     C72362   8.583  11.625   7.648  0.4960 -0.6906 -0.6408
  549MOL0     C72363   8.523  11.742   7.610  0.6377  0.9333 -0.1302
  549MOL0     C72364   8.394  11.736   7.553 -0.1221 -0.0117 -0.4539
  549MOL0     C72365   8.329  11.867   7.523 -0.3094  0.8204 -0.7369
  549MOL0     O72366   8.191  11.859   7.518  0.2416 -0.1103  0.1511
  549MOL0     C72367   8.117  11.968   7.486 -0.8039  0.1428  0.4076
  549MOL0     C72368   7.981  11.955   7.515  0.3846 -0.2186 -0.5440
  549MOL0     C72369   7.892  12.050   7.474 -0.2269  0.0084 -0.3902
  549MOL0     C72370   7.931  12.160   7.398  1.2941 -0.7290 -0.0045
  549MOL0     O72371   7.833  12.254   7.359  0.1488  0.6777 -0.0888
  549MOL0     C72372   7.876  12.374   7.296  0.3851  0.3842  0.1190
  549MOL0     C72373   7.766  12.464   7.293  0.9891 -0.7760 -0.7504
  549MOL0     C72374   7.761  12.544   7.164  0.6953 -0.9623 -0.1024
  549MOL0     C72375   7.877  12.635   7.147  0.2982 -0.2371 -0.0878
  549MOL0     C72376   7.885  12.699   7.005 -0.7384  0.6665 -0.4217
  549MOL0     C72377   7.775  12.793   6.960 -0.1563  0.3388  0.9192
  549MOL0     C72378   7.781  12.787   6.805 -0.8278  0.0765 -0.1289
  549MOL0     C72379   7.692  12.683   6.742 -0.6203 -0.2569 -0.1176
  549MOL0    Cl72380   7.719  12.521   6.801  0.3304  0.0367  0.3543
  549MOL0     C72381   8.067  12.172   7.357  0.7355 -0.1622  0.1244
  549MOL0     C72382   8.159  12.083   7.411 -0.0284 -0.1917 -1.2899
  549MOL0     O72383   8.397  11.969   7.530  0.1418  0.4428  0.4476
  549MOL0     C72384   8.315  11.613   7.545 -0.9449 -0.2512 -0.3951
  549MOL0     C72385   8.375  11.496   7.595 -0.3921 -0.7330  0.5923
  549MOL0     N72386   8.992  10.875   7.743  0.4195 -0.2898  0.4281
  549MOL0     N72387   9.109  10.874   7.687  0.7977 -0.3368 -0.0707
  549MOL0     C72388   9.549  10.822   6.526 -0.1515 -0.0211  0.0172
  549MOL0     C72389   9.609  10.872   6.409  0.1798 -0.9919  1.1437
  549MOL0     C72390   9.921  11.114   6.170 -1.3042 -0.5047 -0.7999
  549MOL0     C72391   9.998  11.030   6.089 -0.1363  0.2327 -1.1273
  549MOL0     C72392  10.072  11.076   5.984  0.2124 -0.6908 -0.2524
  549MOL0     C72393  10.085  11.212   5.972 -0.1857 -0.2516 -0.1599
  549MOL0     O72394  10.163  11.252   5.866  0.0992 -0.0592 -0.2883
  549MOL0     C72395  10.140  11.380   5.810  0.4304 -0.3465  0.1894
  549MOL0     C72396  10.266  11.417   5.725 -0.2044 -0.4561  0.0354
  549MOL0     C72397  10.261  11.401   5.573 -1.4090 -0.6324 -0.4239
  549MOL0     C72398  10.391  11.390   5.507  1.0538 -0.3514  0.5942
  549MOL0     C72399  10.466  11.516   5.497  0.0747 -1.4966  0.4264
  549MOL0     C72400  10.532  11.619   5.486 -0.2682  0.1186  0.2547
  549MOL0     C72401   9.995  11.303   6.038 -0.3412  0.4896  0.2089
  549MOL0     C72402   9.922  11.251   6.138 -0.6282 -0.1729  0.5137
  549MOL0     H72403   9.929  10.896   6.507  0.5506 -1.4118 -0.4709
  549MOL0     H72404   9.832  10.813   6.719 -0.9184  3.9616  1.4601
  549MOL0     H72405   9.728  10.640   6.823  0.1207  0.0744  0.9395
  549MOL0     H72406   9.582  10.581   6.882 -1.0793  2.1955  3.2969
  549MOL0     H72407   9.689  10.865   6.926  0.5655 -1.2587 -1.4385
  549MOL0     H72408   9.676  10.731   7.034 -1.7318 -2.1921  0.5035
  549MOL0     H72409   9.428  10.722   6.991  0.6170  0.1479 -0.2540
  549MOL0     H72410   9.426  10.891   6.938  3.4167  0.9201 -1.6946
  549MOL0     H72411   9.571  10.836   7.200 -0.4828 -1.4406 -0.1150
  549MOL0     H72412   9.529  10.983   7.123  2.2997  0.0666  0.4020
  549MOL0     H72413   9.339  10.768   7.228 -1.4811  0.8867 -0.9747
  549MOL0     H72414   9.275  10.914   7.149  0.4889  1.2253  0.2912
  549MOL0     H72415   9.367  11.051   7.326  1.0961  0.1080 -0.3040
  549MOL0     H72416   9.472  10.933   7.391 -0.3458  0.6820  3.2656
  549MOL0     H72417   9.165  10.901   7.380 -0.5890  1.2153  0.8902
  549MOL0     H72418   9.274  10.807   7.494  1.4987  0.7155  1.4750
  549MOL0     H72419   9.256  11.113   7.511 -2.6605  1.4818  1.5396
  549MOL0     H72420   9.345  11.008   7.608  0.5685 -0.0007 -1.4306
  549MOL0     H72421   8.995  11.179   7.618 -1.1388 -1.0535  1.2050
  549MOL0     H72422   8.793  11.059   7.882 -4.3166  2.8420 -1.2923
  549MOL0     H72423   8.733  10.934   7.766  0.6226 -1.6865  0.8338
  549MOL0     H72424   8.670  11.088   7.617  0.8749  1.7881 -1.5654
  549MOL0     H72425   8.784  11.210   7.658  3.9159 -2.1147  0.6796
  549MOL0     H72426   8.544  11.083   7.811  0.3292 -0.1259  2.3085
  549MOL0     H72427   8.656  11.210   7.885  0.9952 -0.1240 -1.6870
  549MOL0     H72428   8.414  11.290   7.791 -0.8377  0.7072 -3.6685
  549MOL0     H72429   8.457  11.250   7.644 -5.6179  1.3903  1.3647
  549MOL0     H72430   8.682  11.634   7.693  1.3582 -0.7401 -2.4433
  549MOL0     H72431   8.570  11.833   7.645 -1.9878  1.9902  0.9281
  549MOL0     H72432   7.939  11.879   7.580 -2.6074  0.8061 -1.1575
  549MOL0     H72433   7.788  12.045   7.505 -0.5044 -0.2406 -1.3400
  549MOL0     H72434   7.901  12.351   7.192  1.5239  2.7854 -0.2085
  549MOL0     H72435   7.966  12.407   7.351  2.3571 -1.7722 -1.6032
  549MOL0     H72436   7.768  12.530   7.380 -1.2274 -1.8127  0.1771
  549MOL0     H72437   7.673  12.409   7.306 -0.5510  2.1109  1.5156
  549MOL0     H72438   7.673  12.606   7.182  2.1182  0.4734  2.3848
  549MOL0     H72439   7.744  12.488   7.071 -2.8434  2.3538 -1.7358
  549MOL0     H72440   7.876  12.724   7.211 -1.0624 -0.3394  0.0633
  549MOL0     H72441   7.969  12.577   7.154 -1.8542 -4.4640 -2.9508
  549MOL0     H72442   7.909  12.615   6.939  0.9821  3.4701 -3.7345
  549MOL0     H72443   7.977  12.757   6.995 -0.3937  1.1441  3.6911
  549MOL0     H72444   7.803  12.893   6.995 -0.5755  1.6841 -2.2447
  549MOL0     H72445   7.677  12.760   6.998  0.5647 -1.3601  1.4107
  549MOL0     H72446   7.735  12.885   6.789  2.0899  1.6424  0.3178
  549MOL0     H72447   7.882  12.768   6.767 -0.7333 -1.8444  0.9525
  549MOL0     H72448   7.714  12.684   6.635 -2.8844 -1.8574 -0.6870
  549MOL0     H72449   7.587  12.712   6.757 -1.8298 -3.3412 -1.5853
  549MOL0     H72450   8.091  12.234   7.271 -0.0671 -1.5046 -1.1290
  549MOL0     H72451   8.263  12.097   7.380  0.5058  0.3043  0.5968
  549MOL0     H72452   8.211  11.612   7.515 -0.4799 -1.7302 -2.1399
  549MOL0     H72453   8.319  11.403   7.596  0.2490 -1.1425 -0.2198
  549MOL0     H72454   9.442  10.803   6.524 -1.0784  4.1799 -0.9435
  549MOL0     H72455   9.544  10.900   6.327 -0.6118  0.1055  2.1136
  549MOL0     H72456   9.991  10.923   6.101 -0.6650  0.3732 -0.0969
  549MOL0     H72457  10.130  11.009   5.921 -3.5748 -1.9020 -2.8085
  549MOL0     H72458  10.121  11.459   5.883 -0.0076 -0.2571 -0.0217
  549MOL0     H72459  10.051  11.374   5.746  1.3154  0.8174 -1.1943
  549MOL0     H72460  10.313  11.512   5.752  0.7526 -1.5822  2.7380
  549MOL0     H72461  10.339  11.341   5.755 -0.6471 -0.4048  1.3235
  549MOL0     H72462  10.210  11.486   5.527 -3.9897 -0.3648  2.6212
  549MOL0     H72463  10.209  11.307   5.553 -0.3887 -0.5617 -4.3068
  549MOL0     H72464  10.457  11.313   5.547  1.9101  0.9790  1.8393
  549MOL0     H72465  10.369  11.352   5.407  1.1631  4.3684 -1.4964
  549MOL0     H72466  10.592  11.706   5.471  0.2363 -0.0171  1.3907
  549MOL0     H72467   9.988  11.410   6.022 -0.5878  0.2704 -1.2605
  549MOL0     H72468   9.865  11.325   6.193 -0.2624  1.4377 -1.1457
  550MOL0     O72469   0.233   7.295   8.587 -0.7899 -0.2345  1.2496
  550MOL0     C72470   0.246   7.392   8.510  0.4766  1.0019  1.0211
  550MOL0     O72471   0.195   7.399   8.388  0.5422 -0.0909 -0.4324
  550MOL0     C72472   0.126   7.294   8.327  0.1454  0.2416 -0.8458
  550MOL0     C72473   0.183   7.187   8.278  0.4286  0.0609  0.5788
  550MOL0     C72474   0.113   7.093   8.201 -0.9906  0.1687 -0.7008
  550MOL0     C72475  -0.022   7.106   8.193  0.8000 -0.1182  0.0239
  550MOL0     O72476  -0.081   7.013   8.114  0.2313  0.6812  0.3030
  550MOL0     C72477  -0.225   7.026   8.105 -0.7181  0.1163  0.8367
  550MOL0     C72478  -0.274   6.906   8.017  0.6792  1.0962 -0.0365
  550MOL0     C72479  -0.426   6.899   7.985  0.0319 -0.9381  0.6217
  550MOL0     C72480  -0.465   6.799   7.881 -1.1301 -0.1947  0.1278
  550MOL0     C72481  -0.467   6.669   7.933  0.4848 -0.2572 -0.7329
  550MOL0     C72482  -0.522   6.571   7.826 -0.2364 -0.4262 -0.2101
  550MOL0     C72483  -0.682   6.589   7.802 -0.6061 -0.4442  0.1731
  550MOL0     C72484  -0.746   6.454   7.769 -0.4044 -0.2049 -0.6170
  550MOL0     N72485  -0.892   6.477   7.730  0.3468 -0.5162  0.6956
  550MOL0     C72486  -0.945   6.507   7.608 -0.0690 -0.0483  0.2479
  550MOL0     C72487  -1.077   6.541   7.634  0.7529 -0.2032  0.3276
  550MOL0     C72488  -1.177   6.588   7.524  0.1303 -0.3891 -0.0934
  550MOL0     C72489  -1.301   6.662   7.575 -0.4735  0.1459 -0.2090
  550MOL0     C72490  -1.411   6.665   7.467  0.7464 -0.5405 -0.6887
  550MOL0     C72491  -1.466   6.517   7.455  1.1366 -0.0155 -0.7005
  550MOL0     O72492  -1.452   6.457   7.322 -0.1136  0.4679  0.7376
  550MOL0     C72493  -1.541   6.475   7.224  0.6303 -1.1574  0.7966
  550MOL0     C72494  -1.664   6.527   7.250  0.0546 -0.3721  0.2852
  550MOL0     C72495  -1.746   6.555   7.139  1.2087  0.1262  0.2850
  550MOL0     C72496  -1.712   6.541   7.005 -0.2788 -0.1510 -0.8942
  550MOL0     C72497  -1.796   6.579   6.897  0.5167 -0.1667  0.5327
  550MOL0     O72498  -1.916   6.636   6.923 -0.3442 -0.1515 -0.9910
  550MOL0     C72499  -1.994   6.673   6.814  0.5435  0.3192  0.0847
  550MOL0     C72500  -2.027   6.808   6.810  0.5939  0.2605 -0.1941
  550MOL0     C72501  -2.115   6.862   6.717 -0.0207  0.9069  0.1517
  550MOL0     C72502  -2.180   6.769   6.633  0.9394 -0.0278 -0.2822
  550MOL0     O72503  -2.296   6.822   6.570  0.2796  0.0458  0.6211
  550MOL0     C72504  -2.413   6.803   6.650  0.3740  0.0161 -0.3124
  550MOL0     C72505  -2.523   6.829   6.549 -0.0442 -0.7720  0.3304
  550MOL0     C72506  -2.507   6.956   6.455  0.0247  0.9572  0.5728
  550MOL0     C72507  -2.631   6.987   6.360 -0.8267  0.3153 -0.4475
  550MOL0     C72508  -2.596   7.086   6.246  0.3102 -0.4740  0.6421
  550MOL0     C72509  -2.728   7.143   6.193 -0.0121  0.7973 -0.4447
  550MOL0     C72510  -2.710   7.238   6.068 -0.5890  0.9576  0.6390
  550MOL0     C72511  -2.833   7.325   6.043 -0.5914 -0.8318  0.4165
  550MOL0    Cl72512  -2.786   7.423   5.899  0.3609 -0.5858  0.0857
  550MOL0     C72513  -2.157   6.632   6.635 -0.6449 -0.2375  0.4853
  550MOL0     C72514  -2.059   6.582   6.720  0.2255 -0.8740 -0.6702
  550MOL0     O72515  -1.776   6.518   6.792 -0.2175 -0.2649 -0.2626
  550MOL0     C72516  -1.593   6.490   6.976  0.6722  0.5028  0.1521
  550MOL0     C72517  -1.506   6.453   7.086 -0.8864 -0.4263  0.7941
  550MOL0     N72518  -1.095   6.525   7.766 -0.5055 -0.0730 -0.5870
  550MOL0     N72519  -0.987   6.485   7.822 -0.1497 -0.6027  0.7689
  550MOL0     C72520  -0.091   7.218   8.249  0.5096  0.7693  0.8336
  550MOL0     C72521  -0.011   7.312   8.306  0.1382  0.0519  0.9172
  550MOL0     C72522   0.311   7.517   8.552  0.7838 -0.7175  0.2511
  550MOL0     C72523   0.295   7.632   8.470  0.1416 -0.2744 -1.1151
  550MOL0     C72524   0.351   7.758   8.502 -0.0799  0.4578 -0.1250
  550MOL0     C72525   0.420   7.771   8.622  0.3678  0.3333  0.1219
  550MOL0     O72526   0.458   7.888   8.677 -0.8093 -0.4761 -0.1555
  550MOL0     C72527   0.422   8.015   8.612  0.0365  0.0462 -0.7392
  550MOL0     C72528   0.470   8.147   8.697 -0.7190 -0.7836  0.2573
  550MOL0     C72529   0.449   8.128   8.843 -0.5310 -0.0866  0.2252
  550MOL0     C72530   0.499   8.256   8.926  0.1346  0.4568  1.4270
  550MOL0     C72531   0.573   8.199   9.031 -0.2025 -0.3455  0.0094
  550MOL0     C72532   0.623   8.171   9.139 -0.0621 -0.7355  0.4176
  550MOL0     C72533   0.455   7.657   8.695 -0.6547 -0.0150  0.2257
  550MOL0     C72534   0.391   7.529   8.671  0.0870 -0.8217  0.4826
  550MOL0     H72535   0.289   7.164   8.275  0.0913 -1.5373 -0.3772
  550MOL0     H72536   0.174   7.008   8.170  1.1617  1.5265 -0.3938
  550MOL0     H72537  -0.253   7.122   8.061 -2.1829  0.1797  1.8267
  550MOL0     H72538  -0.270   7.008   8.204 -1.3177 -1.4627  0.3036
  550MOL0     H72539  -0.266   6.807   8.063 -1.2600  0.0297 -1.8408
  550MOL0     H72540  -0.215   6.909   7.924 -0.3564  0.0444 -0.7485
  550MOL0     H72541  -0.459   7.000   7.960  1.2654 -0.5419  0.5051
  550MOL0     H72542  -0.464   6.876   8.085  3.2285  1.3764  2.5730
  550MOL0     H72543  -0.567   6.811   7.845 -1.5456 -0.4462  1.1909
  550MOL0     H72544  -0.403   6.796   7.791  0.8652 -4.0370  1.3962
  550MOL0     H72545  -0.527   6.660   8.024 -0.7004  0.5594 -1.3979
  550MOL0     H72546  -0.363   6.643   7.954  0.5441  1.1393  0.9383
  550MOL0     H72547  -0.492   6.471   7.859  0.2000 -0.6764 -1.3139
  550MOL0     H72548  -0.468   6.587   7.732  1.5971 -0.3716  0.8208
  550MOL0     H72549  -0.734   6.643   7.881 -2.1569 -0.0996 -1.0322
  550MOL0     H72550  -0.678   6.651   7.712  4.9996 -0.2120  0.2298
  550MOL0     H72551  -0.740   6.393   7.859 -0.4423 -1.0855 -1.1987
  550MOL0     H72552  -0.692   6.416   7.682 -1.5820  3.7437 -3.3056
  550MOL0     H72553  -0.908   6.513   7.506 -1.2765  0.0633 -0.1951
  550MOL0     H72554  -1.204   6.488   7.486  1.5824 -1.4608  1.5478
  550MOL0     H72555  -1.140   6.649   7.441 -3.3385  1.0865 -0.7176
  550MOL0     H72556  -1.278   6.767   7.596  0.8064  0.0025 -0.8229
  550MOL0     H72557  -1.339   6.622   7.669  1.4662 -3.3943 -0.7544
  550MOL0     H72558  -1.496   6.732   7.487  1.3198  0.2028 -0.6796
  550MOL0     H72559  -1.374   6.706   7.373  2.0579  4.4686  1.6640
  550MOL0     H72560  -1.569   6.516   7.492  0.4891 -1.3416 -2.4167
  550MOL0     H72561  -1.409   6.467   7.535 -0.0601 -1.6441 -0.8143
  550MOL0     H72562  -1.699   6.547   7.351  2.8615  1.3547  1.0324
  550MOL0     H72563  -1.851   6.579   7.154  0.6739 -1.8763  0.0509
  550MOL0     H72564  -1.993   6.866   6.895 -5.0395 -0.3751  3.0384
  550MOL0     H72565  -2.149   6.962   6.742 -0.8031 -0.3700  5.1337
  550MOL0     H72566  -2.423   6.879   6.728  4.3375 -0.9148  1.3103
  550MOL0     H72567  -2.427   6.706   6.699 -1.5049 -0.2370 -1.2354
  550MOL0     H72568  -2.608   6.850   6.615 -1.8387  0.9921 -2.3302
  550MOL0     H72569  -2.538   6.739   6.489 -3.5935  1.1479 -2.0861
  550MOL0     H72570  -2.414   6.952   6.397 -1.2126  1.9335 -1.5509
  550MOL0     H72571  -2.507   7.052   6.506  1.3839  2.0462 -1.3686
  550MOL0     H72572  -2.668   6.891   6.323 -0.1879  0.0298 -0.3792
  550MOL0     H72573  -2.705   7.029   6.429  1.4822  3.5700  0.3111
  550MOL0     H72574  -2.548   7.037   6.161 -2.4127  0.8148 -1.8175
  550MOL0     H72575  -2.529   7.167   6.275 -1.9997  1.1627  1.7711
  550MOL0     H72576  -2.780   7.197   6.272  0.4496  0.8123 -0.1489
  550MOL0     H72577  -2.793   7.064   6.155  0.6392 -0.2389  0.5570
  550MOL0     H72578  -2.619   7.299   6.071 -0.4374  0.7167  0.9392
  550MOL0     H72579  -2.683   7.177   5.981  3.7272 -0.7870  2.9001
  550MOL0     H72580  -2.850   7.388   6.131 -1.7548  4.3997 -3.0627
  550MOL0     H72581  -2.931   7.280   6.031 -2.6087  2.2482  3.4350
  550MOL0     H72582  -2.229   6.578   6.575  0.2177 -0.1981 -0.6259
  550MOL0     H72583  -2.047   6.474   6.728 -1.4748 -1.0974 -0.8723
  550MOL0     H72584  -1.544   6.498   6.880  2.4510 -2.6075  0.6924
  550MOL0     H72585  -1.407   6.418   7.058 -2.1639 -1.9997 -2.2161
  550MOL0     H72586  -0.193   7.244   8.224  1.3712  0.6796 -3.6908
  550MOL0     H72587  -0.050   7.402   8.351 -0.8689 -0.6608  1.5095
  550MOL0     H72588   0.231   7.626   8.383  0.9493 -0.2694 -1.7196
  550MOL0     H72589   0.329   7.847   8.445  1.9891 -0.5555 -2.7163
  550MOL0     H72590   0.313   8.020   8.606  0.0389  0.2349 -0.6155
  550MOL0     H72591   0.457   8.024   8.509  1.6033 -0.5382 -0.2841
  550MOL0     H72592   0.575   8.168   8.673 -0.6945 -3.2784 -2.3363
  550MOL0     H72593   0.401   8.228   8.672 -1.5893 -0.6217  2.9383
  550MOL0     H72594   0.507   8.040   8.872 -0.0452  0.1276 -0.0915
  550MOL0     H72595   0.342   8.115   8.863 -0.4289 -0.1299  0.7673
  550MOL0     H72596   0.573   8.321   8.879  0.0454  0.8926  1.8741
  550MOL0     H72597   0.426   8.327   8.966 -0.2878  0.5629  0.4851
  550MOL0     H72598   0.682   8.141   9.223  4.5284 -1.3110 -2.6623
  550MOL0     H72599   0.515   7.672   8.785  1.5080  2.8391 -1.5275
  550MOL0     H72600   0.414   7.450   8.742 -0.4897 -1.1248  0.3404
  551MOL0     O72601   1.545   2.477   7.148  0.1130 -0.2455  0.0386
  551MOL0     C72602   1.432   2.435   7.138  1.2172 -0.2430 -0.1252
  551MOL0     O72603   1.350   2.426   7.023  0.3512  0.3839  0.3612
  551MOL0     C72604   1.419   2.469   6.911 -0.4835  0.7922  0.4395
  551MOL0     C72605   1.375   2.586   6.832  0.2906  0.6220 -0.0277
  551MOL0     C72606   1.446   2.621   6.716 -1.2060 -0.0535  0.0664
  551MOL0     C72607   1.567   2.558   6.683 -0.6528 -0.1219  1.1882
  551MOL0     O72608   1.646   2.601   6.582  0.0992 -0.3815 -0.2866
  551MOL0     C72609   1.583   2.629   6.460  0.1522 -0.0864  0.2658
  551MOL0     C72610   1.697   2.604   6.353 -0.0078 -0.1894  0.4139
  551MOL0     C72611   1.699   2.465   6.282  0.4965  1.1567 -1.6664
  551MOL0     C72612   1.599   2.440   6.179 -0.0194  0.2423 -0.3199
  551MOL0     C72613   1.567   2.291   6.148 -0.0856  0.2333  0.1319
  551MOL0     C72614   1.528   2.269   6.003  0.1091  0.7678  0.5240
  551MOL0     C72615   1.513   2.117   5.976  0.3444  0.4749 -0.0781
  551MOL0     C72616   1.371   2.059   6.010  0.1709 -0.2726  1.2609
  551MOL0     N72617   1.347   1.915   5.973 -0.6814  0.8423 -0.4960
  551MOL0     C72618   1.263   1.861   5.891  0.7313 -0.4048  0.6424
  551MOL0     C72619   1.267   1.731   5.906 -0.9443  0.3225 -0.2819
  551MOL0     C72620   1.172   1.641   5.832 -1.0413  0.0256 -1.2645
  551MOL0     C72621   1.206   1.650   5.677 -0.3162 -0.8001 -0.0888
  551MOL0     C72622   1.128   1.547   5.600 -0.8456  0.3626 -0.1890
  551MOL0     C72623   1.167   1.529   5.446 -0.4180  0.9372  0.0956
  551MOL0     O72624   1.062   1.452   5.384  0.3305  0.3075  0.5446
  551MOL0     C72625   1.052   1.316   5.378 -0.4535  0.0540 -0.0910
  551MOL0     C72626   0.956   1.250   5.295  0.2868  0.1871  0.4282
  551MOL0     C72627   0.940   1.117   5.282 -0.1645  0.7718 -0.1517
  551MOL0     C72628   1.033   1.034   5.347  0.1598  0.2396 -0.0434
  551MOL0     C72629   1.019   0.890   5.322 -0.0875  0.5043  0.1602
  551MOL0     O72630   1.034   0.806   5.427 -1.4148 -0.4140 -0.0521
  551MOL0     C72631   1.044   0.669   5.402 -0.4461  1.1775  1.3619
  551MOL0     C72632   0.994   0.581   5.493 -0.7763  0.1419 -0.0215
  551MOL0     C72633   1.035   0.450   5.492 -0.8212 -0.1628 -0.0471
  551MOL0     C72634   1.118   0.398   5.392 -1.1150  0.2668  0.5286
  551MOL0     O72635   1.151   0.263   5.400 -0.2379 -0.9456  0.0831
  551MOL0     C72636   1.148   0.177   5.278 -0.4032  0.5900 -1.0053
  551MOL0     C72637   1.170   0.041   5.354  0.1863 -0.1729  0.4781
  551MOL0     C72638   1.171  -0.060   5.234 -0.4554 -0.1876 -0.0659
  551MOL0     C72639   1.185  -0.213   5.252  0.1918  0.9395 -0.3922
  551MOL0     C72640   1.070  -0.284   5.334  0.5432  0.0437  0.4739
  551MOL0     C72641   0.980  -0.363   5.236  0.3217 -0.3212 -0.0111
  551MOL0     C72642   0.833  -0.393   5.292 -0.4410 -0.5843  0.7762
  551MOL0     C72643   0.829  -0.543   5.341  0.9590  0.6155  1.0202
  551MOL0    Cl72644   0.919  -0.554   5.491  0.1523 -0.4181 -0.3838
  551MOL0     C72645   1.160   0.479   5.293 -0.1491  0.0210  0.5034
  551MOL0     C72646   1.124   0.614   5.293 -0.1701  0.7501 -1.0775
  551MOL0     O72647   1.003   0.861   5.198  0.3160 -0.4462  0.6247
  551MOL0     C72648   1.131   1.085   5.429  0.0500 -0.6054 -0.0761
  551MOL0     C72649   1.141   1.228   5.452 -0.8932  0.0008 -0.2749
  551MOL0     N72650   1.364   1.698   5.995  0.3379 -0.4533 -0.2853
  551MOL0     N72651   1.414   1.810   6.036  0.1701  0.1581  0.2642
  551MOL0     C72652   1.615   2.459   6.760 -0.2188  0.9202 -0.4250
  551MOL0     C72653   1.536   2.408   6.860 -0.5240 -0.1586 -0.8811
  551MOL0     C72654   1.377   2.363   7.256  0.3553 -0.4240 -0.1029
  551MOL0     C72655   1.456   2.332   7.375  1.0510  0.0387  0.4032
  551MOL0     C72656   1.414   2.253   7.489 -0.1777 -1.1570  0.1456
  551MOL0     C72657   1.276   2.219   7.500 -0.6000  0.4416  0.5379
  551MOL0     O72658   1.217   2.136   7.599 -0.1936  0.4423 -0.4394
  551MOL0     C72659   1.307   2.123   7.715  0.6120  0.0004 -0.4716
  551MOL0     C72660   1.226   2.036   7.824 -0.4088 -0.5479  0.5730
  551MOL0     C72661   1.226   2.093   7.964  0.2694  0.4194  0.1215
  551MOL0     C72662   1.169   2.009   8.071  0.1518 -0.0692 -0.0519
  551MOL0     C72663   1.200   2.050   8.204 -0.3322 -1.5243 -0.0697
  551MOL0     C72664   1.217   2.110   8.312  0.6514  0.4788 -0.1850
  551MOL0     C72665   1.198   2.257   7.381  0.0134 -0.0765  0.0006
  551MOL0     C72666   1.238   2.328   7.268 -0.2398 -0.3018  0.7404
  551MOL0     H72667   1.288   2.640   6.868  0.8379  1.2391  0.3968
  551MOL0     H72668   1.393   2.684   6.645  1.2393  1.8431 -0.2263
  551MOL0     H72669   1.571   2.737   6.465  0.0386 -0.1106  0.4976
  551MOL0     H72670   1.488   2.577   6.446  0.4112 -1.4679  3.0768
  551MOL0     H72671   1.792   2.613   6.406 -0.9164 -2.7381  2.7080
  551MOL0     H72672   1.695   2.680   6.274  0.8270 -1.8002 -1.2088
  551MOL0     H72673   1.685   2.392   6.362 -0.3904  0.6637 -2.2507
  551MOL0     H72674   1.797   2.461   6.234  0.4516  3.2479 -2.0039
  551MOL0     H72675   1.508   2.493   6.210 -1.7695 -3.0044  0.4804
  551MOL0     H72676   1.634   2.499   6.094 -0.1690  0.2923 -0.3475
  551MOL0     H72677   1.489   2.252   6.214 -1.0014 -3.0060 -2.5799
  551MOL0     H72678   1.656   2.231   6.168 -1.8491 -2.6900 -0.3056
  551MOL0     H72679   1.607   2.312   5.940 -1.3475  1.0405 -1.1901
  551MOL0     H72680   1.439   2.328   5.978  0.5950  0.4690 -2.2895
  551MOL0     H72681   1.530   2.080   5.875 -0.0017 -1.5698  0.5619
  551MOL0     H72682   1.592   2.062   6.028 -1.9138  0.6822  4.0085
  551MOL0     H72683   1.287   2.124   5.983  0.3462 -0.3329  0.5447
  551MOL0     H72684   1.365   2.056   6.119 -0.8803  1.2099  1.2741
  551MOL0     H72685   1.188   1.920   5.838 -0.4888 -2.3154  0.1437
  551MOL0     H72686   1.074   1.684   5.852 -2.6637 -3.6401 -0.3656
  551MOL0     H72687   1.179   1.534   5.856 -0.0949 -0.7402 -4.3851
  551MOL0     H72688   1.312   1.649   5.651 -0.5605 -0.7076 -1.1604
  551MOL0     H72689   1.155   1.741   5.642 -6.1623 -3.0927  1.3290
  551MOL0     H72690   1.143   1.447   5.643 -0.8142 -0.6694 -2.4111
  551MOL0     H72691   1.026   1.577   5.626 -0.1717 -0.2418  3.6860
  551MOL0     H72692   1.272   1.501   5.432 -0.1955  0.2942  2.5286
  551MOL0     H72693   1.163   1.631   5.407  1.0194  1.1963  0.5623
  551MOL0     H72694   0.893   1.314   5.234  1.9742  1.6595  0.1432
  551MOL0     H72695   0.862   1.066   5.227 -2.2819  1.5603  1.9840
  551MOL0     H72696   0.947   0.616   5.585  3.1423  6.3893  0.1959
  551MOL0     H72697   1.003   0.390   5.577 -0.2851 -1.8229 -0.9658
  551MOL0     H72698   1.239   0.194   5.220  1.8660 -1.0389  1.8084
  551MOL0     H72699   1.049   0.187   5.233 -0.1934 -0.0739 -1.6318
  551MOL0     H72700   1.087   0.022   5.423 -2.0081  1.0293 -1.6799
  551MOL0     H72701   1.268   0.044   5.404  2.8277 -3.7582 -3.8106
  551MOL0     H72702   1.239  -0.034   5.153  2.0700  3.7462  2.9609
  551MOL0     H72703   1.074  -0.043   5.187  0.1675 -0.0565 -1.3245
  551MOL0     H72704   1.198  -0.259   5.154 -0.3060  0.4490 -0.2289
  551MOL0     H72705   1.281  -0.226   5.302 -0.3723  0.7541  0.6661
  551MOL0     H72706   1.010  -0.207   5.383 -0.6020 -0.9852  0.7290
  551MOL0     H72707   1.109  -0.344   5.416 -1.5298  0.2449  1.6757
  551MOL0     H72708   1.027  -0.444   5.180  2.1668 -1.4625  2.9494
  551MOL0     H72709   0.953  -0.283   5.166  1.4598 -0.9978 -1.2637
  551MOL0     H72710   0.798  -0.323   5.368  0.6692 -0.5402  1.2512
  551MOL0     H72711   0.755  -0.380   5.216  0.4631  5.1811  0.4234
  551MOL0     H72712   0.885  -0.616   5.282 -1.5844 -0.6211 -0.0123
  551MOL0     H72713   0.727  -0.578   5.361  0.8447 -1.2979 -2.2369
  551MOL0     H72714   1.232   0.446   5.218 -1.3680 -1.2890 -0.1391
  551MOL0     H72715   1.166   0.676   5.215  2.4826  0.7229  0.2227
  551MOL0     H72716   1.196   1.010   5.473 -2.0077 -1.5379  1.5377
  551MOL0     H72717   1.222   1.270   5.510  2.3879 -1.8186 -3.1897
  551MOL0     H72718   1.714   2.415   6.747  0.1710  0.5779  2.8375
  551MOL0     H72719   1.563   2.324   6.924 -1.8462  1.3685  1.9025
  551MOL0     H72720   1.562   2.355   7.364  1.1211  0.3159  1.5311
  551MOL0     H72721   1.498   2.229   7.554  0.8120 -1.9394 -1.3548
  551MOL0     H72722   1.328   2.217   7.767 -0.4443  0.1246 -0.2395
  551MOL0     H72723   1.398   2.065   7.697  0.1846 -1.3930  1.5021
  551MOL0     H72724   1.125   2.013   7.787 -0.0205  0.6131 -1.3741
  551MOL0     H72725   1.291   1.949   7.829  0.8218  0.4294  3.1188
  551MOL0     H72726   1.153   2.174   7.963 -1.5010 -1.0997  0.4398
  551MOL0     H72727   1.328   2.128   7.983  0.7242  0.2712 -1.8077
  551MOL0     H72728   1.062   2.006   8.050  0.5511 -1.9371 -2.2305
  551MOL0     H72729   1.207   1.906   8.071  2.2722  0.6612 -0.7495
  551MOL0     H72730   1.222   2.160   8.407  1.4382 -3.8617  2.2870
  551MOL0     H72731   1.094   2.227   7.377 -0.9350  2.5841  1.4513
  551MOL0     H72732   1.167   2.327   7.186  1.0574 -2.2352 -0.4448
  552MOL0     O72733   2.098   5.559   4.514  0.2902 -0.0565  0.9904
  552MOL0     C72734   2.052   5.645   4.590  0.0929 -0.0445 -0.1459
  552MOL0     O72735   2.078   5.651   4.725 -0.5497  0.4289  0.2087
  552MOL0     C72736   2.179   5.562   4.776  0.9570 -0.1779 -0.0389
  552MOL0     C72737   2.313   5.571   4.743 -0.0972 -1.3885  0.3578
  552MOL0     C72738   2.402   5.478   4.780 -0.4004  0.2639 -0.3858
  552MOL0     C72739   2.368   5.376   4.865  0.1461 -0.3702  0.3071
  552MOL0     O72740   2.468   5.286   4.915  0.3899  0.2103  0.6027
  552MOL0     C72741   2.489   5.286   5.050  0.0145  0.2098  0.3196
  552MOL0     C72742   2.489   5.145   5.105  0.0550  0.1391 -1.1177
  552MOL0     C72743   2.465   5.149   5.261 -0.9652  0.3859  0.2882
  552MOL0     C72744   2.318   5.171   5.294 -1.0880 -0.2675  0.5571
  552MOL0     C72745   2.292   5.214   5.440  0.0951 -0.5233 -0.0900
  552MOL0     C72746   2.179   5.140   5.507  0.3670 -0.4362 -0.4811
  552MOL0     C72747   2.211   4.990   5.528  0.4775  0.9095 -0.7873
  552MOL0     C72748   2.104   4.926   5.627 -0.4445  0.3369  0.4265
  552MOL0     N72749   2.139   4.916   5.771  0.8413 -0.0465 -0.4087
  552MOL0     C72750   2.043   4.897   5.875 -0.2035  0.0901 -0.6101
  552MOL0     C72751   2.117   4.873   5.988 -0.3593 -1.4982  0.3740
  552MOL0     C72752   2.067   4.826   6.124  0.4765 -0.0464 -0.0614
  552MOL0     C72753   2.079   4.679   6.132  0.2498  1.1380 -0.4627
  552MOL0     C72754   2.021   4.626   6.275  0.3163  0.4102 -0.9703
  552MOL0     C72755   1.867   4.584   6.276  0.4839 -0.6620  1.1122
  552MOL0     O72756   1.810   4.505   6.386 -0.5242  0.2044  0.2020
  552MOL0     C72757   1.675   4.503   6.418  0.0125  1.2412  0.3202
  552MOL0     C72758   1.641   4.455   6.546 -0.0981 -0.3784  0.6501
  552MOL0     C72759   1.508   4.445   6.586  0.3740  0.5538  0.0686
  552MOL0     C72760   1.407   4.492   6.503  0.2848 -0.0868  0.0477
  552MOL0     C72761   1.266   4.477   6.535  0.0003 -0.9125 -0.4523
  552MOL0     O72762   1.232   4.442   6.659  0.6467  0.3340  0.3467
  552MOL0     C72763   1.105   4.410   6.688 -1.2269 -0.5772  0.4676
  552MOL0     C72764   0.987   4.475   6.651  0.3369  0.3966  0.9263
  552MOL0     C72765   0.867   4.424   6.695 -0.1260 -0.9199  0.1771
  552MOL0     C72766   0.858   4.315   6.782  0.1744 -0.7142 -0.7114
  552MOL0     O72767   0.753   4.263   6.845  0.6543 -0.4646 -0.5098
  552MOL0     C72768   0.688   4.356   6.940  0.7153 -0.6200  0.6442
  552MOL0     C72769   0.537   4.332   6.949  0.4856 -1.3609  0.2828
  552MOL0     C72770   0.472   4.454   7.030 -0.7878  1.0811 -0.2518
  552MOL0     C72771   0.495   4.432   7.179  0.1039 -0.3080 -0.1277
  552MOL0     C72772   0.437   4.562   7.237 -0.4784 -0.0284 -0.0996
  552MOL0     C72773   0.502   4.586   7.371 -0.4990  0.6997  0.7240
  552MOL0     C72774   0.440   4.701   7.450  0.1122 -1.0286  0.4463
  552MOL0     C72775   0.524   4.774   7.550 -0.2668 -0.0113 -0.1768
  552MOL0    Cl72776   0.435   4.872   7.664 -0.2073 -0.1455 -0.3718
  552MOL0     C72777   0.975   4.254   6.822 -0.4712  0.4490 -0.3888
  552MOL0     C72778   1.094   4.297   6.780  0.0605  0.4230 -0.3485
  552MOL0     O72779   1.187   4.489   6.439  0.0208 -0.1006  0.9692
  552MOL0     C72780   1.442   4.549   6.377 -1.2445  0.3432  0.0896
  552MOL0     C72781   1.575   4.536   6.326  0.9292 -0.1289 -0.0852
  552MOL0     N72782   2.252   4.874   5.953  0.0557  0.6125  0.6474
  552MOL0     N72783   2.265   4.905   5.826 -0.2448 -0.7295 -0.3972
  552MOL0     C72784   2.234   5.358   4.889 -0.5936  1.3533  0.2571
  552MOL0     C72785   2.140   5.451   4.843 -0.5094  0.4682  0.9914
  552MOL0     C72786   1.937   5.726   4.540 -0.0154 -0.8550 -0.2484
  552MOL0     C72787   1.841   5.665   4.458 -0.0892  0.6121 -0.4684
  552MOL0     C72788   1.747   5.734   4.388 -0.0237  0.3912 -0.3804
  552MOL0     C72789   1.736   5.873   4.412 -0.5050  0.7041  0.0902
  552MOL0     O72790   1.628   5.931   4.343  0.7019  0.4844  0.0897
  552MOL0     C72791   1.644   6.073   4.306 -0.8538 -0.3844  0.0861
  552MOL0     C72792   1.752   6.100   4.194  0.4292 -0.0456 -0.5744
  552MOL0     C72793   1.781   6.255   4.182  0.3597 -0.5488 -0.1698
  552MOL0     C72794   1.914   6.284   4.117 -0.2327 -0.0069  0.2273
  552MOL0     C72795   1.931   6.246   3.980 -0.5143  0.2249  0.7952
  552MOL0     C72796   1.946   6.174   3.884  0.5076  0.0320 -0.5430
  552MOL0     C72797   1.813   5.931   4.516  0.8393  0.5200  0.3177
  552MOL0     C72798   1.916   5.863   4.582 -0.0622  0.5499  0.7477
  552MOL0     H72799   2.347   5.657   4.686 -1.7428 -0.1002  1.2099
  552MOL0     H72800   2.503   5.499   4.747  0.0184 -1.2125 -0.0771
  552MOL0     H72801   2.412   5.343   5.102  0.1320 -1.3745  2.3781
  552MOL0     H72802   2.589   5.326   5.073 -0.9508  1.9458  1.7386
  552MOL0     H72803   2.577   5.084   5.082 -0.0744 -0.2413 -0.6247
  552MOL0     H72804   2.410   5.079   5.068 -0.9052 -0.4557  1.7441
  552MOL0     H72805   2.544   5.215   5.297  1.6500 -1.2688 -2.0238
  552MOL0     H72806   2.492   5.048   5.295 -2.3507  0.7100  2.5511
  552MOL0     H72807   2.272   5.238   5.221  1.4705 -1.2002 -2.1500
  552MOL0     H72808   2.283   5.069   5.279 -0.3980 -0.5949  1.1220
  552MOL0     H72809   2.276   5.321   5.455  3.0986 -0.2918  2.7168
  552MOL0     H72810   2.386   5.206   5.496 -1.0698  0.5570  2.1454
  552MOL0     H72811   2.078   5.157   5.467 -0.2465  1.4305  1.6497
  552MOL0     H72812   2.156   5.179   5.606  1.2543  0.4209 -0.6073
  552MOL0     H72813   2.203   4.946   5.429  0.7088  0.9511 -0.8252
  552MOL0     H72814   2.309   4.959   5.567 -0.7594 -2.8866 -0.3253
  552MOL0     H72815   2.087   4.820   5.606 -1.3810  0.6763 -0.6515
  552MOL0     H72816   2.010   4.979   5.607 -1.2945 -1.0926  0.5197
  552MOL0     H72817   1.935   4.900   5.871 -0.2388 -0.8822 -0.7262
  552MOL0     H72818   1.959   4.844   6.127  0.7849  2.0206  0.6596
  552MOL0     H72819   2.125   4.869   6.206  2.0862  0.1392 -1.2450
  552MOL0     H72820   2.186   4.658   6.117  0.4976  1.9867  0.1031
  552MOL0     H72821   2.030   4.628   6.048  1.5030  2.0787 -1.8149
  552MOL0     H72822   2.079   4.539   6.307 -2.1020 -0.2883  1.9340
  552MOL0     H72823   2.043   4.705   6.348  0.3723 -1.3534  1.0121
  552MOL0     H72824   1.852   4.535   6.179  0.9310  1.1016  0.1056
  552MOL0     H72825   1.812   4.677   6.266  1.6166  0.1193  1.9048
  552MOL0     H72826   1.713   4.429   6.623 -1.1671 -2.5655  0.9876
  552MOL0     H72827   1.483   4.409   6.685 -1.0311 -2.2124 -1.1918
  552MOL0     H72828   0.993   4.563   6.588 -0.9272 -0.5613 -0.6144
  552MOL0     H72829   0.771   4.471   6.676  0.6454  0.4634 -0.4490
  552MOL0     H72830   0.706   4.458   6.903 -1.1996 -0.7712 -0.8578
  552MOL0     H72831   0.732   4.343   7.039 -1.0055  1.7857  1.8272
  552MOL0     H72832   0.527   4.231   6.992 -2.9367 -0.8068  1.0950
  552MOL0     H72833   0.495   4.342   6.849  2.9934  1.4085 -0.6197
  552MOL0     H72834   0.364   4.444   7.015 -0.6539  0.6177 -0.9807
  552MOL0     H72835   0.508   4.548   6.987 -1.1775  0.6985 -1.4491
  552MOL0     H72836   0.447   4.342   7.219  0.4773 -0.0082  1.0296
  552MOL0     H72837   0.597   4.409   7.211 -0.4255 -0.6730  1.4141
  552MOL0     H72838   0.329   4.551   7.251  0.0227 -3.6155  2.3925
  552MOL0     H72839   0.466   4.653   7.182  2.0436 -1.2480 -0.9343
  552MOL0     H72840   0.608   4.603   7.349 -0.1375 -0.1737  1.6910
  552MOL0     H72841   0.505   4.492   7.427 -2.3460 -0.2304 -0.6409
  552MOL0     H72842   0.404   4.780   7.384  0.3360  0.1943  1.7301
  552MOL0     H72843   0.350   4.682   7.508 -2.4524  4.3756 -1.1627
  552MOL0     H72844   0.605   4.826   7.498  0.3591 -1.3545 -0.6047
  552MOL0     H72845   0.574   4.696   7.608  0.1263 -0.1960 -0.7465
  552MOL0     H72846   0.975   4.161   6.878  1.3578 -0.4105 -1.7069
  552MOL0     H72847   1.184   4.253   6.823 -0.0094 -1.4257 -1.9142
  552MOL0     H72848   1.372   4.594   6.308  0.5230  2.2198 -0.5672
  552MOL0     H72849   1.590   4.565   6.223 -3.1914 -0.7175 -1.0258
  552MOL0     H72850   2.211   5.261   4.933  0.8647  1.0304  0.3882
  552MOL0     H72851   2.031   5.445   4.848 -0.6249  1.7372  0.3278
  552MOL0     H72852   1.840   5.558   4.440 -4.3939  0.3286  0.4879
  552MOL0     H72853   1.670   5.689   4.326  0.2121 -0.3185 -0.1634
  552MOL0     H72854   1.668   6.142   4.388  1.0331 -0.3978 -0.3987
  552MOL0     H72855   1.551   6.118   4.270  0.8609  1.4639 -2.3879
  552MOL0     H72856   1.842   6.045   4.224  0.8205  1.7226  1.7865
  552MOL0     H72857   1.715   6.056   4.101  1.0896  1.3428 -1.5273
  552MOL0     H72858   1.774   6.319   4.270 -0.2666 -1.3051  0.3476
  552MOL0     H72859   1.704   6.292   4.114  0.6164 -1.9975 -1.3154
  552MOL0     H72860   1.936   6.392   4.120  4.2212 -0.7040 -0.6924
  552MOL0     H72861   1.990   6.237   4.180 -0.0211 -1.9231 -1.3886
  552MOL0     H72862   1.961   6.118   3.793 -2.4419 -1.6197 -0.1408
  552MOL0     H72863   1.796   6.032   4.552 -0.1914 -0.0833  1.6163
  552MOL0     H72864   1.981   5.894   4.663 -2.1752 -2.8156  4.0887
  553MOL0     O72865   0.571   0.494   4.015 -0.2784  0.0252 -0.7441
  553MOL0     C72866   0.550   0.469   3.899  1.5606  0.4943  0.7985
  553MOL0     O72867   0.584   0.352   3.835 -0.0788  0.0607 -0.3974
  553MOL0     C72868   0.609   0.233   3.903  0.6075 -0.0037  0.2086
  553MOL0     C72869   0.529   0.195   4.016 -0.7835  0.7154 -0.1666
  553MOL0     C72870   0.560   0.073   4.085  0.3744  0.5995  0.7547
  553MOL0     C72871   0.651  -0.023   4.035 -0.0997  0.2044 -0.4645
  553MOL0     O72872   0.675  -0.155   4.079  0.3889  0.2040  0.0290
  553MOL0     C72873   0.571  -0.208   4.161 -0.7685 -0.1250 -0.3886
  553MOL0     C72874   0.568  -0.355   4.144 -0.4897 -0.4409 -0.9940
  553MOL0     C72875   0.693  -0.428   4.193  0.3358  0.3009  1.4067
  553MOL0     C72876   0.686  -0.581   4.164 -0.1680 -0.1191 -0.4868
  553MOL0     C72877   0.827  -0.631   4.229  0.0769  0.0044  0.8992
  553MOL0     C72878   0.824  -0.786   4.227  0.9482  0.4373 -0.8403
  553MOL0     C72879   0.964  -0.847   4.259  1.0544 -0.1428  0.0773
  553MOL0     C72880   0.963  -0.997   4.262 -0.6644  0.4300 -0.4005
  553MOL0     N72881   1.090  -1.074   4.279  0.0696 -0.4268 -1.4102
  553MOL0     C72882   1.185  -1.088   4.185 -0.3248  0.2474  0.6608
  553MOL0     C72883   1.282  -1.162   4.255 -0.1699 -0.2009 -0.0020
  553MOL0     C72884   1.413  -1.220   4.204 -0.3394  0.3988 -0.4448
  553MOL0     C72885   1.428  -1.215   4.053  0.2865 -0.1490  0.4382
  553MOL0     C72886   1.494  -1.086   3.999 -0.3802  0.4274  0.3032
  553MOL0     C72887   1.483  -1.070   3.854 -0.1180 -0.2335  0.8008
  553MOL0     O72888   1.345  -1.038   3.813 -0.6837  0.8490 -0.1624
  553MOL0     C72889   1.298  -0.916   3.845 -0.1240 -0.1838  0.2510
  553MOL0     C72890   1.161  -0.886   3.857  0.6317  0.5051  0.2088
  553MOL0     C72891   1.107  -0.765   3.900  0.0633  0.1614  0.3205
  553MOL0     C72892   1.190  -0.660   3.921  0.0178 -1.3977 -0.0535
  553MOL0     C72893   1.145  -0.527   3.965  0.4633  0.1699  0.5146
  553MOL0     O72894   1.226  -0.417   3.976 -0.2864  0.7584  0.3811
  553MOL0     C72895   1.199  -0.287   4.007  0.0508 -0.8536 -0.1906
  553MOL0     C72896   1.275  -0.208   4.099  0.3518  0.7676  0.1670
  553MOL0     C72897   1.247  -0.078   4.122 -0.6483  0.5482 -0.0038
  553MOL0     C72898   1.147  -0.012   4.053 -0.9373  0.3401 -0.9312
  553MOL0     O72899   1.136   0.119   4.097  0.0289 -0.4150  0.4060
  553MOL0     C72900   1.010   0.181   4.075 -0.1196 -0.4123 -0.2548
  553MOL0     C72901   1.003   0.311   4.152 -0.9291 -0.3794  0.4975
  553MOL0     C72902   0.872   0.320   4.237 -0.7441 -1.3087 -0.9071
  553MOL0     C72903   0.886   0.224   4.363 -0.0410  0.2509  0.0703
  553MOL0     C72904   0.767   0.258   4.456 -0.3930  0.0664 -0.4947
  553MOL0     C72905   0.732   0.149   4.556  0.1485 -0.4235 -1.0225
  553MOL0     C72906   0.580   0.127   4.578 -0.3277  0.0493  0.5427
  553MOL0     C72907   0.554   0.006   4.677 -0.1519  1.4513 -0.1964
  553MOL0    Cl72908   0.621  -0.152   4.643 -0.0768 -0.2047  0.0742
  553MOL0     C72909   1.076  -0.083   3.956 -0.5516 -0.4353  0.8350
  553MOL0     C72910   1.100  -0.218   3.934  0.1832 -0.1433 -0.1052
  553MOL0     O72911   1.023  -0.523   3.969  0.8023  0.7862 -0.2764
  553MOL0     C72912   1.332  -0.678   3.909 -0.2508  0.3869  0.0571
  553MOL0     C72913   1.383  -0.806   3.870 -0.2466  0.9849  0.7546
  553MOL0     N72914   1.252  -1.162   4.393 -0.0538 -0.6398  0.0277
  553MOL0     N72915   1.131  -1.117   4.399  0.0071 -0.5105  0.4950
  553MOL0     C72916   0.724   0.016   3.921  0.0635 -0.2172 -0.0800
  553MOL0     C72917   0.704   0.143   3.858 -0.4042  0.2896 -0.2970
  553MOL0     C72918   0.476   0.575   3.830  0.6659  0.3978  0.8007
  553MOL0     C72919   0.417   0.526   3.714 -1.0955 -0.3433  1.1705
  553MOL0     C72920   0.362   0.610   3.612 -0.3423  0.1311 -0.7465
  553MOL0     C72921   0.351   0.744   3.642 -0.0856 -0.5853 -0.3884
  553MOL0     O72922   0.299   0.814   3.539  0.3949  0.1869 -0.6621
  553MOL0     C72923   0.228   0.932   3.561  0.1739  0.4411 -0.1542
  553MOL0     C72924   0.265   1.038   3.459  0.3977  1.1996 -0.3422
  553MOL0     C72925   0.168   1.162   3.478 -0.2821  0.7821  1.0507
  553MOL0     C72926   0.188   1.277   3.364  0.1474 -0.8022 -0.0182
  553MOL0     C72927   0.332   1.318   3.343  1.0447  0.2382 -0.0288
  553MOL0     C72928   0.453   1.322   3.322  1.5138 -0.2502 -0.3733
  553MOL0     C72929   0.401   0.790   3.768 -0.6450  0.0875 -0.6041
  553MOL0     C72930   0.453   0.707   3.864  0.5035  0.4741 -1.0174
  553MOL0     H72931   0.440   0.243   4.054 -1.3581 -0.7601  0.4119
  553MOL0     H72932   0.513   0.041   4.178 -2.5486 -1.6303 -1.2962
  553MOL0     H72933   0.469  -0.172   4.143 -1.3835 -0.5425  1.9761
  553MOL0     H72934   0.585  -0.194   4.269 -1.7460  0.1898 -0.2933
  553MOL0     H72935   0.559  -0.383   4.039  0.3288  1.2920 -1.5654
  553MOL0     H72936   0.475  -0.393   4.186 -3.1126 -0.9413 -6.3765
  553MOL0     H72937   0.717  -0.407   4.298  1.3287  1.5973  0.9384
  553MOL0     H72938   0.771  -0.388   4.128  0.1377 -1.0499  0.3047
  553MOL0     H72939   0.608  -0.639   4.215  0.6616 -0.3698  0.5409
  553MOL0     H72940   0.689  -0.611   4.059  2.8117 -2.3966  0.1266
  553MOL0     H72941   0.851  -0.602   4.331  0.6701  0.4237  0.6448
  553MOL0     H72942   0.916  -0.600   4.173 -1.6228  5.2541  0.5723
  553MOL0     H72943   0.794  -0.814   4.125  0.3779  0.2397 -0.6172
  553MOL0     H72944   0.757  -0.830   4.301  1.1562  2.7694  0.8246
  553MOL0     H72945   1.039  -0.800   4.195 -0.3581  1.7203 -0.2954
  553MOL0     H72946   0.988  -0.811   4.359  0.9074 -1.3028  0.5415
  553MOL0     H72947   0.923  -1.027   4.165  0.6369  2.1954 -1.5462
  553MOL0     H72948   0.900  -1.021   4.348 -1.3999  4.9025  0.5873
  553MOL0     H72949   1.176  -1.076   4.077 -1.1206 -1.8611  0.4486
  553MOL0     H72950   1.446  -1.318   4.240  1.3578  1.0654 -0.0886
  553MOL0     H72951   1.493  -1.161   4.248 -0.1568 -1.3773  1.7719
  553MOL0     H72952   1.330  -1.218   4.004 -2.3848  3.4945  4.7046
  553MOL0     H72953   1.477  -1.310   4.030 -0.3354 -0.2459 -0.5445
  553MOL0     H72954   1.449  -1.003   4.054  0.1612 -0.6770  2.5560
  553MOL0     H72955   1.598  -1.068   4.030  0.6157  2.9129 -3.7607
  553MOL0     H72956   1.513  -1.164   3.808  0.5643 -1.0946  2.8648
  553MOL0     H72957   1.556  -0.994   3.822 -2.9960  2.9735  1.2537
  553MOL0     H72958   1.102  -0.976   3.840  1.7202 -0.4716  1.3239
  553MOL0     H72959   0.999  -0.770   3.914  0.2597 -1.4919  1.5149
  553MOL0     H72960   1.359  -0.241   4.159 -0.1764 -1.3326 -0.1684
  553MOL0     H72961   1.311  -0.026   4.192  1.1175  0.4631 -1.4879
  553MOL0     H72962   0.929   0.120   4.116 -2.1398  1.4759 -1.2532
  553MOL0     H72963   0.993   0.206   3.970  2.6518  2.0959 -0.2317
  553MOL0     H72964   1.007   0.388   4.074 -3.6283 -1.8576 -1.2735
  553MOL0     H72965   1.096   0.329   4.206  2.5525 -2.8182 -3.9837
  553MOL0     H72966   0.783   0.296   4.178 -3.4454 -0.1365  2.3383
  553MOL0     H72967   0.866   0.424   4.272  0.8959 -0.5639 -2.6457
  553MOL0     H72968   0.889   0.120   4.329  1.5188  0.2273  0.2167
  553MOL0     H72969   0.984   0.242   4.408  0.6410  0.3108 -1.3827
  553MOL0     H72970   0.680   0.280   4.394 -0.3829  2.2786  0.1592
  553MOL0     H72971   0.784   0.350   4.513 -1.0537  1.1306 -1.9459
  553MOL0     H72972   0.775   0.179   4.652  0.5606 -2.8376 -0.3716
  553MOL0     H72973   0.777   0.053   4.531 -0.9227 -1.8036  1.8603
  553MOL0     H72974   0.531   0.219   4.614 -0.2302 -0.2539  1.4718
  553MOL0     H72975   0.532   0.096   4.485  1.8398  0.6425 -0.8303
  553MOL0     H72976   0.446  -0.011   4.663 -0.1610  0.4541  0.9736
  553MOL0     H72977   0.581   0.023   4.781 -2.0347 -0.2840  0.6370
  553MOL0     H72978   1.003  -0.031   3.894 -1.4922 -0.4570  1.8899
  553MOL0     H72979   1.058  -0.272   3.849  0.1721 -0.5935  0.1813
  553MOL0     H72980   1.396  -0.593   3.933  0.8873 -1.3539  3.9990
  553MOL0     H72981   1.491  -0.819   3.867 -0.2886  0.8419 -0.3979
  553MOL0     H72982   0.800  -0.049   3.878  0.2313  2.3519 -4.2139
  553MOL0     H72983   0.766   0.178   3.776  0.9861  2.2666  1.4970
  553MOL0     H72984   0.408   0.420   3.692  0.6462 -1.0506  3.4732
  553MOL0     H72985   0.311   0.573   3.524 -2.2439  0.5004  0.1472
  553MOL0     H72986   0.239   0.976   3.661 -0.7203  0.8050 -0.2064
  553MOL0     H72987   0.124   0.910   3.534 -0.4987  1.8272  1.1404
  553MOL0     H72988   0.368   1.069   3.476  0.4650  1.3528 -1.0234
  553MOL0     H72989   0.263   0.991   3.360  0.9807 -1.9250  1.0172
  553MOL0     H72990   0.162   1.192   3.583 -1.8812 -2.4525  2.0234
  553MOL0     H72991   0.071   1.121   3.450  0.6923  0.6884 -2.6033
  553MOL0     H72992   0.145   1.248   3.268  0.8966 -1.0727 -0.2754
  553MOL0     H72993   0.142   1.366   3.407  1.8463  0.3839 -0.5522
  553MOL0     H72994   0.560   1.327   3.311  1.3610 -0.6400 -2.4987
  553MOL0     H72995   0.413   0.888   3.812  2.8171 -0.6197  0.2999
  553MOL0     H72996   0.484   0.741   3.962 -0.8302  1.7915 -1.0228
  554MOL0     O72997   1.081   4.577   1.743 -0.0206 -0.6168  0.0754
  554MOL0     C72998   0.991   4.660   1.734 -0.5139 -0.3338 -1.1584
  554MOL0     O72999   0.888   4.670   1.826  0.1747  0.1941  0.1123
  554MOL0     C73000   0.891   4.600   1.942 -0.3853 -0.1249 -0.0099
  554MOL0     C73001   0.781   4.513   1.978 -0.2317 -0.9142  0.1488
  554MOL0     C73002   0.773   4.436   2.105 -1.0663 -0.4406 -0.4294
  554MOL0     C73003   0.884   4.435   2.191 -0.0200  0.9594  0.3201
  554MOL0     O73004   0.877   4.349   2.303 -0.1446 -0.5168  0.2102
  554MOL0     C73005   0.925   4.405   2.427 -0.1397 -0.6510 -0.2120
  554MOL0     C73006   0.827   4.372   2.537 -0.0316 -1.0262  1.0426
  554MOL0     C73007   0.872   4.428   2.680  0.0305  0.7980  0.4850
  554MOL0     C73008   0.792   4.370   2.801  0.2021  0.4128  0.5993
  554MOL0     C73009   0.892   4.330   2.913  0.0101 -0.1125  0.0218
  554MOL0     C73010   0.830   4.234   3.022 -0.3171 -0.3954 -0.1561
  554MOL0     C73011   0.699   4.282   3.086  0.7327 -0.2727 -0.0858
  554MOL0     C73012   0.655   4.189   3.213 -0.7610  0.3651  0.5571
  554MOL0     N73013   0.545   4.239   3.295 -0.3579  0.6478  0.2973
  554MOL0     C73014   0.417   4.253   3.244  0.1600 -0.0731  1.2701
  554MOL0     C73015   0.349   4.292   3.348  0.0822  0.8544 -0.0521
  554MOL0     C73016   0.205   4.294   3.359  0.8936  0.0680  0.9364
  554MOL0     C73017   0.139   4.253   3.486  0.4903  0.2593  0.1977
  554MOL0     C73018   0.131   4.361   3.592 -0.5551  0.1180  0.9023
  554MOL0     C73019   0.015   4.335   3.677  0.1721 -0.0947 -0.3970
  554MOL0     O73020  -0.001   4.452   3.767 -0.0688 -0.0072 -0.3822
  554MOL0     C73021  -0.124   4.487   3.803 -0.0251 -0.2555  0.6517
  554MOL0     C73022  -0.236   4.391   3.799 -0.0278 -0.2397 -0.0938
  554MOL0     C73023  -0.368   4.438   3.821  0.1310  0.0649 -0.2122
  554MOL0     C73024  -0.396   4.569   3.843  0.3680  0.7396 -0.4442
  554MOL0     C73025  -0.536   4.609   3.884 -0.7959  0.4351  0.5350
  554MOL0     O73026  -0.626   4.513   3.917 -1.0486 -0.2977 -0.4010
  554MOL0     C73027  -0.755   4.564   3.938 -0.8495  0.1652 -0.0416
  554MOL0     C73028  -0.856   4.508   3.866  1.2427  0.7918 -0.5046
  554MOL0     C73029  -0.986   4.536   3.896  0.5238 -0.0981 -0.1510
  554MOL0     C73030  -1.019   4.633   3.986 -0.0997  0.1285  0.4465
  554MOL0     O73031  -1.156   4.639   4.000  0.1901 -0.7111 -0.2192
  554MOL0     C73032  -1.186   4.755   4.072  0.7726  0.6575 -0.4738
  554MOL0     C73033  -1.337   4.778   4.056  0.1993 -0.2006 -0.8992
  554MOL0     C73034  -1.388   4.817   3.911 -0.8200 -0.3202 -0.3621
  554MOL0     C73035  -1.291   4.898   3.814 -0.8292  0.9820 -0.4019
  554MOL0     C73036  -1.354   4.988   3.713  0.1709 -0.2599  0.1761
  554MOL0     C73037  -1.422   4.905   3.607  0.1309 -0.3700 -0.0604
  554MOL0     C73038  -1.500   4.992   3.514 -0.6794  0.0122  0.1356
  554MOL0     C73039  -1.538   4.907   3.387 -0.3159  0.2571 -0.5733
  554MOL0    Cl73040  -1.664   4.788   3.452 -0.1229  0.2302  0.4559
  554MOL0     C73041  -0.922   4.684   4.080 -0.7276  0.5871 -1.1257
  554MOL0     C73042  -0.783   4.659   4.044 -0.3239 -1.9046  0.2706
  554MOL0     O73043  -0.545   4.730   3.913 -0.5162  0.7831  0.4557
  554MOL0     C73044  -0.286   4.661   3.846  1.5319 -0.4408 -0.1748
  554MOL0     C73045  -0.152   4.622   3.829  0.5696 -0.3976 -0.3668
  554MOL0     N73046   0.437   4.323   3.448 -0.1046 -0.3925 -0.4229
  554MOL0     N73047   0.555   4.278   3.423 -0.8367 -0.8920 -0.1147
  554MOL0     C73048   0.990   4.510   2.151 -0.0996 -0.0698 -0.6898
  554MOL0     C73049   0.992   4.595   2.042 -0.1658 -0.0044  0.1402
  554MOL0     C73050   0.978   4.747   1.616 -0.1826  0.8167 -0.8285
  554MOL0     C73051   0.901   4.858   1.626  0.4780  0.5898  0.0684
  554MOL0     C73052   0.872   4.927   1.515 -0.8657 -0.9561 -0.8240
  554MOL0     C73053   0.947   4.902   1.405 -0.1789 -0.4845 -0.2738
  554MOL0     O73054   0.910   4.972   1.293 -0.4248 -0.7992  0.0088
  554MOL0     C73055   0.994   5.069   1.230  0.1061 -1.0536 -0.3701
  554MOL0     C73056   1.038   5.182   1.323 -0.2424 -0.2722  0.2434
  554MOL0     C73057   1.129   5.272   1.242  0.4309  0.0965 -0.3364
  554MOL0     C73058   1.226   5.359   1.334 -0.1856  0.2175  0.6610
  554MOL0     C73059   1.164   5.427   1.440  0.1330  0.2206 -1.3013
  554MOL0     C73060   1.094   5.469   1.526  0.3470 -0.2928  0.0298
  554MOL0     C73061   1.025   4.794   1.391  0.5118  0.1039  0.1078
  554MOL0     C73062   1.051   4.709   1.500  0.2431  0.4699 -0.3384
  554MOL0     H73063   0.693   4.517   1.915  0.5120 -0.4998 -0.8864
  554MOL0     H73064   0.681   4.387   2.133 -0.9635 -0.1215  0.5022
  554MOL0     H73065   0.923   4.513   2.410 -0.8485 -0.7818 -1.0415
  554MOL0     H73066   1.024   4.369   2.456  0.4735  0.5704 -0.7032
  554MOL0     H73067   0.816   4.263   2.544  1.7326 -1.3707 -0.6839
  554MOL0     H73068   0.728   4.403   2.501  0.4957 -0.9062 -0.3694
  554MOL0     H73069   0.886   4.537   2.684  2.3995  0.5271  1.0689
  554MOL0     H73070   0.972   4.393   2.704 -0.4314  1.5735  4.1862
  554MOL0     H73071   0.705   4.430   2.829 -1.6143 -0.8101 -1.9996
  554MOL0     H73072   0.738   4.281   2.767 -0.2689  1.7205 -2.3844
  554MOL0     H73073   0.937   4.421   2.952 -1.0550  1.0411 -1.3215
  554MOL0     H73074   0.971   4.264   2.876 -1.0689 -0.4044 -1.9695
  554MOL0     H73075   0.906   4.227   3.100 -0.8997 -1.7561  0.3247
  554MOL0     H73076   0.818   4.134   2.981  1.1858 -0.5201 -0.3361
  554MOL0     H73077   0.710   4.385   3.123  2.2880 -0.7457  0.8449
  554MOL0     H73078   0.621   4.280   3.009 -1.6006 -1.2009  2.1495
  554MOL0     H73079   0.745   4.183   3.274  0.8302  0.5827 -1.6215
  554MOL0     H73080   0.636   4.083   3.191  0.1590 -0.2526  2.4999
  554MOL0     H73081   0.376   4.237   3.145  2.8305  1.7035 -0.2375
  554MOL0     H73082   0.162   4.225   3.286  3.0677  1.7572 -2.1740
  554MOL0     H73083   0.172   4.393   3.326  1.2190  0.1702  0.9066
  554MOL0     H73084   0.182   4.158   3.521 -0.7352 -0.5169 -0.3454
  554MOL0     H73085   0.037   4.229   3.457  0.8249 -1.6473  0.4072
  554MOL0     H73086   0.228   4.346   3.640  1.7444 -0.1986 -3.3899
  554MOL0     H73087   0.113   4.454   3.537  1.5884 -2.4075 -4.8746
  554MOL0     H73088   0.034   4.244   3.734 -2.9048 -1.2248 -1.0281
  554MOL0     H73089  -0.082   4.317   3.631 -0.9593 -0.4579  1.9736
  554MOL0     H73090  -0.214   4.285   3.793 -0.6519 -0.2887 -3.7386
  554MOL0     H73091  -0.449   4.372   3.795  0.1674  1.0377 -3.2063
  554MOL0     H73092  -0.828   4.433   3.792 -0.4108  2.2179 -2.7184
  554MOL0     H73093  -1.064   4.495   3.832 -1.4869  1.7182  1.0253
  554MOL0     H73094  -1.135   4.843   4.033 -3.2891  2.7662 -1.6227
  554MOL0     H73095  -1.156   4.752   4.177  0.1916  0.2259 -0.3079
  554MOL0     H73096  -1.362   4.863   4.120  0.6113 -0.4208 -0.4380
  554MOL0     H73097  -1.382   4.682   4.083 -0.7304  0.7088  0.9780
  554MOL0     H73098  -1.473   4.885   3.925 -0.9003 -0.7318  1.2671
  554MOL0     H73099  -1.415   4.724   3.860  2.2263 -3.0040  2.5113
  554MOL0     H73100  -1.220   4.950   3.880 -0.0789  0.6847 -0.9528
  554MOL0     H73101  -1.220   4.824   3.775 -2.0757 -1.7257  2.1358
  554MOL0     H73102  -1.282   5.058   3.669  2.2249 -2.4406 -0.1130
  554MOL0     H73103  -1.425   5.060   3.756  0.8577  0.2741  0.4328
  554MOL0     H73104  -1.493   4.836   3.654  0.4233 -0.0495  0.8883
  554MOL0     H73105  -1.350   4.846   3.550 -2.3863 -2.8744 -0.8520
  554MOL0     H73106  -1.593   5.023   3.562  0.2548  0.9865  1.3792
  554MOL0     H73107  -1.444   5.081   3.485  1.6748 -1.2946  0.4025
  554MOL0     H73108  -1.445   4.862   3.352 -0.7357 -2.1004  1.0422
  554MOL0     H73109  -1.574   4.969   3.305 -4.0286 -0.1509  0.5509
  554MOL0     H73110  -0.938   4.750   4.165  1.4503 -2.2518  1.7472
  554MOL0     H73111  -0.694   4.694   4.096 -0.0506  0.1163 -1.4479
  554MOL0     H73112  -0.297   4.766   3.873  0.9585 -0.5471  0.0182
  554MOL0     H73113  -0.067   4.690   3.823  0.0287  0.3069 -0.1932
  554MOL0     H73114   1.079   4.502   2.214 -2.3315  2.9678  3.3229
  554MOL0     H73115   1.086   4.646   2.030  0.7015 -1.1856  1.5611
  554MOL0     H73116   0.847   4.873   1.719  0.4966 -1.3415  0.4264
  554MOL0     H73117   0.806   5.014   1.516 -0.1120 -0.3711 -0.8814
  554MOL0     H73118   0.955   5.098   1.132 -0.1144  0.0481  0.0248
  554MOL0     H73119   1.087   5.018   1.202  1.1158  0.4604  0.1056
  554MOL0     H73120   0.953   5.239   1.364  0.6623  2.1826 -1.0806
  554MOL0     H73121   1.095   5.136   1.404  3.5626  1.6323 -1.0982
  554MOL0     H73122   1.075   5.337   1.173 -0.4567  0.3324  0.5577
  554MOL0     H73123   1.192   5.207   1.181  1.8272  2.1555 -1.2189
  554MOL0     H73124   1.295   5.286   1.378 -1.6125 -2.4366 -1.2156
  554MOL0     H73125   1.269   5.435   1.268 -4.3061  3.8006  1.6578
  554MOL0     H73126   1.026   5.529   1.584  0.0721  1.2737 -1.7962
  554MOL0     H73127   1.051   4.761   1.291 -1.9385  0.2184 -0.6185
  554MOL0     H73128   1.118   4.625   1.486  0.4611  1.1185 -4.0617
  555MOL0     O73129   3.943   3.454   9.745 -0.2749 -0.0281  1.2462
  555MOL0     C73130   3.912   3.562   9.802 -0.1070  0.3859  0.4178
  555MOL0     O73131   3.917   3.683   9.744  0.2593  1.1960 -0.4233
  555MOL0     C73132   4.014   3.705   9.649  0.9418 -0.6096 -0.4466
  555MOL0     C73133   3.973   3.784   9.548  1.2313 -0.1203  0.1131
  555MOL0     C73134   4.055   3.835   9.446 -0.3143 -0.5336  0.0742
  555MOL0     C73135   4.194   3.792   9.459 -0.6094  0.1450  0.9865
  555MOL0     O73136   4.293   3.846   9.381  0.3361  0.4065 -0.2624
  555MOL0     C73137   4.313   3.986   9.383 -0.5096 -0.2264  0.2339
  555MOL0     C73138   4.413   4.020   9.272  0.4547 -0.2860 -0.6825
  555MOL0     C73139   4.484   4.152   9.277  0.5763 -0.4428 -0.8611
  555MOL0     C73140   4.521   4.204   9.412 -0.1584 -0.0840  0.3562
  555MOL0     C73141   4.609   4.329   9.397 -0.5297  0.3843 -0.3470
  555MOL0     C73142   4.693   4.377   9.508 -0.5157 -0.3795  0.2403
  555MOL0     C73143   4.618   4.400   9.637 -0.1924  0.1945  0.2046
  555MOL0     C73144   4.540   4.530   9.635 -0.5788  0.7901  0.6358
  555MOL0     N73145   4.546   4.584   9.773 -0.5242  0.0681 -0.2848
  555MOL0     C73146   4.583   4.716   9.794 -0.0505  1.1231 -1.2890
  555MOL0     C73147   4.554   4.721   9.932 -0.7835  0.6576  0.2759
  555MOL0     C73148   4.573   4.840  10.022 -0.4733  0.4761  0.0009
  555MOL0     C73149   4.495   4.953   9.965 -0.1853  0.7284  0.1540
  555MOL0     C73150   4.491   5.067  10.071 -0.4101 -0.3946 -0.4949
  555MOL0     C73151   4.383   5.030  10.172  0.0645 -0.9783  0.2140
  555MOL0     O73152   4.265   5.078  10.110  0.8634 -0.6884 -0.3519
  555MOL0     C73153   4.164   5.119  10.195 -0.5781  0.0534  0.9463
  555MOL0     C73154   4.140   5.065  10.323  0.2022 -0.2090 -1.1369
  555MOL0     C73155   4.016   5.080  10.395  0.0955  0.1367  0.3831
  555MOL0     C73156   3.911   5.148  10.329  0.1853 -0.9312 -0.3144
  555MOL0     C73157   3.776   5.159  10.392 -0.0534 -0.1854  0.1380
  555MOL0     O73158   3.780   5.131  10.522 -0.3987 -0.7058 -0.0922
  555MOL0     C73159   3.671   5.144  10.599 -0.3319 -0.6618  0.7285
  555MOL0     C73160   3.548   5.078  10.573 -0.4309  0.0636  0.1818
  555MOL0     C73161   3.441   5.078  10.658  0.1751 -0.0840  0.3038
  555MOL0     C73162   3.447   5.157  10.777 -0.0163 -0.2970  0.3333
  555MOL0     O73163   3.347   5.148  10.880  0.5435 -0.0709 -0.2720
  555MOL0     C73164   3.313   5.015  10.940  1.1128 -0.5102  0.0374
  555MOL0     C73165   3.443   4.959  10.999 -0.4531 -0.8308 -0.5571
  555MOL0     C73166   3.432   4.825  11.064 -1.2211  0.7956  0.0991
  555MOL0     C73167   3.361   4.828  11.196  0.0690 -0.3078 -0.4806
  555MOL0     C73168   3.355   4.692  11.261 -0.4611  0.2002 -0.2037
  555MOL0     C73169   3.299   4.586  11.156  0.0893  1.9600 -0.7545
  555MOL0     C73170   3.314   4.449  11.219 -0.1936 -0.2205 -0.4217
  555MOL0     C73171   3.224   4.341  11.154 -0.7040  0.0074  0.3517
  555MOL0    Cl73172   3.053   4.391  11.165 -0.3775 -0.0932 -0.0151
  555MOL0     C73173   3.563   5.235  10.803 -0.6875  1.0961 -0.1452
  555MOL0     C73174   3.670   5.221  10.710  0.0483 -0.5183 -0.3137
  555MOL0     O73175   3.680   5.186  10.322  0.6836 -0.4542 -0.5886
  555MOL0     C73176   3.941   5.203  10.201  0.7325 -0.2491  0.2185
  555MOL0     C73177   4.063   5.193  10.133 -0.2533  0.5794 -0.4882
  555MOL0     N73178   4.518   4.600   9.988  0.9378 -0.3953  0.1229
  555MOL0     N73179   4.506   4.518   9.887 -0.3518  0.1132 -0.0363
  555MOL0     C73180   4.239   3.704   9.560 -0.6181  0.7527  0.0276
  555MOL0     C73181   4.146   3.666   9.655  0.0744  0.9440 -0.3233
  555MOL0     C73182   3.848   3.563   9.943  0.2604  1.1651  0.8294
  555MOL0     C73183   3.764   3.462   9.982 -0.5409 -0.3200  0.6286
  555MOL0     C73184   3.721   3.462  10.111  0.5057 -0.5838 -0.5028
  555MOL0     C73185   3.721   3.590  10.183  0.4914  0.4225 -0.7790
  555MOL0     O73186   3.665   3.610  10.310  0.7199 -0.2693  0.6380
  555MOL0     C73187   3.624   3.491  10.383  0.3371 -0.1216  0.4644
  555MOL0     C73188   3.477   3.437  10.361  0.4785  0.2663  0.2962
  555MOL0     C73189   3.442   3.318  10.459  0.3875 -0.8705 -0.4422
  555MOL0     C73190   3.313   3.361  10.554 -0.1763  0.3839  0.3574
  555MOL0     C73191   3.346   3.483  10.636  0.8447 -0.1058  0.4938
  555MOL0     C73192   3.364   3.582  10.707 -0.0917 -0.2698  0.1061
  555MOL0     C73193   3.781   3.694  10.133  1.0853 -1.1036  0.8932
  555MOL0     C73194   3.857   3.681  10.020  0.5115  0.0987 -0.4838
  555MOL0     H73195   3.874   3.829   9.537  0.3009 -2.1030 -0.1442
  555MOL0     H73196   4.017   3.902   9.370  3.7365  2.0666  0.0032
  555MOL0     H73197   4.369   4.006   9.475  1.7507  2.3602 -1.5387
  555MOL0     H73198   4.226   4.053   9.381  0.6229  1.3091  0.3804
  555MOL0     H73199   4.363   4.020   9.175 -1.0250  1.1181  0.0278
  555MOL0     H73200   4.498   3.952   9.261  3.8057  3.7282 -2.3554
  555MOL0     H73201   4.422   4.226   9.226 -0.8145 -0.2221  1.0707
  555MOL0     H73202   4.576   4.139   9.219  3.0380  0.8697  2.4719
  555MOL0     H73203   4.428   4.225   9.466 -0.4030 -0.0691 -0.0697
  555MOL0     H73204   4.576   4.124   9.462 -2.7413 -1.2268  1.5988
  555MOL0     H73205   4.543   4.407   9.359 -0.5372 -1.1025 -3.7519
  555MOL0     H73206   4.681   4.299   9.321 -1.0699 -0.0105 -0.7131
  555MOL0     H73207   4.750   4.467   9.484 -0.9940  0.1409  1.0090
  555MOL0     H73208   4.766   4.301   9.538  0.3587  0.7092  0.9508
  555MOL0     H73209   4.545   4.320   9.651  0.0791 -0.2891 -1.0002
  555MOL0     H73210   4.689   4.395   9.720  1.2752  0.3659 -0.9908
  555MOL0     H73211   4.434   4.503   9.622 -0.6933  1.1759  0.7512
  555MOL0     H73212   4.570   4.599   9.556 -1.5273 -1.3254 -1.7338
  555MOL0     H73213   4.625   4.793   9.731  0.9735  2.0115  0.4209
  555MOL0     H73214   4.680   4.864  10.027 -0.7240  2.2041 -1.8191
  555MOL0     H73215   4.546   4.815  10.125  1.1560  0.7151  0.5248
  555MOL0     H73216   4.396   4.917   9.934  0.6966 -1.4446 -0.3310
  555MOL0     H73217   4.538   4.998   9.875 -0.4682 -0.3849 -0.5566
  555MOL0     H73218   4.585   5.097  10.119 -0.4720  1.2548 -1.3649
  555MOL0     H73219   4.463   5.153  10.011  1.9812  0.2880 -0.7180
  555MOL0     H73220   4.411   5.085  10.262  0.0352  0.3206 -0.5542
  555MOL0     H73221   4.372   4.922  10.186  0.5242 -1.2545 -1.4008
  555MOL0     H73222   4.216   5.002  10.368 -0.5290  0.5427  1.3309
  555MOL0     H73223   3.996   5.016  10.480 -0.1251 -1.6239 -0.9354
  555MOL0     H73224   3.542   5.016  10.485 -0.7705  0.1982  0.1049
  555MOL0     H73225   3.347   5.030  10.634  0.4689 -1.5126  1.7997
  555MOL0     H73226   3.254   4.947  10.878  0.7395  0.7444 -1.0035
  555MOL0     H73227   3.251   5.029  11.029  1.2840 -1.8546  0.4090
  555MOL0     H73228   3.493   5.027  11.068  0.0217  0.1575 -1.8240
  555MOL0     H73229   3.522   4.942  10.925  1.6984 -0.3943  1.4951
  555MOL0     H73230   3.531   4.784  11.084 -1.5734  0.7025  1.8667
  555MOL0     H73231   3.381   4.772  10.982  1.6892  3.2627 -3.6294
  555MOL0     H73232   3.405   4.904  11.261 -1.6452  1.0490 -0.8207
  555MOL0     H73233   3.257   4.863  11.192  0.0885  0.7824  3.7367
  555MOL0     H73234   3.296   4.681  11.352 -0.5627  1.0779 -0.1568
  555MOL0     H73235   3.453   4.664  11.298 -1.4259 -4.2645 -0.4612
  555MOL0     H73236   3.360   4.587  11.064  2.7275  2.0148  0.8861
  555MOL0     H73237   3.194   4.607  11.138 -0.7958 -0.4074  1.1282
  555MOL0     H73238   3.419   4.419  11.217 -0.8916 -3.0011 -1.2733
  555MOL0     H73239   3.282   4.441  11.323 -1.5759 -2.7343 -0.9408
  555MOL0     H73240   3.227   4.251  11.216 -0.1823  0.8603  1.6081
  555MOL0     H73241   3.263   4.316  11.055 -0.1681  0.9262  0.3194
  555MOL0     H73242   3.566   5.285  10.899 -2.0476 -0.8283  0.9708
  555MOL0     H73243   3.758   5.270  10.751 -1.7846  2.1687  0.7298
  555MOL0     H73244   3.871   5.253  10.135  1.4722 -0.6703 -0.9014
  555MOL0     H73245   4.096   5.231  10.037  2.3416 -2.2665 -0.8785
  555MOL0     H73246   4.339   3.663   9.562 -1.5749 -2.0316 -2.7982
  555MOL0     H73247   4.185   3.601   9.732 -0.9177  2.1147  1.2182
  555MOL0     H73248   3.730   3.386   9.913 -5.3572  0.9930  1.1736
  555MOL0     H73249   3.653   3.391  10.157 -0.1041  0.9450  1.1094
  555MOL0     H73250   3.636   3.525  10.486  0.0982 -1.3031  0.9004
  555MOL0     H73251   3.689   3.404  10.373  3.2322  2.1014 -1.4894
  555MOL0     H73252   3.407   3.521  10.370  2.3886  2.0770 -0.7949
  555MOL0     H73253   3.465   3.386  10.265 -1.6891 -1.8536  1.5736
  555MOL0     H73254   3.518   3.313  10.538 -1.9134  3.4981  2.4428
  555MOL0     H73255   3.428   3.222  10.409 -3.4070 -1.2707  1.1098
  555MOL0     H73256   3.227   3.391  10.494  0.1523  4.1541  1.4616
  555MOL0     H73257   3.283   3.285  10.627 -2.3818  1.8844  1.1458
  555MOL0     H73258   3.402   3.664  10.764 -1.1180  0.1262  0.2403
  555MOL0     H73259   3.777   3.785  10.191  0.7360  0.2552 -1.1366
  555MOL0     H73260   3.905   3.769   9.980  0.1678  0.7746  0.5320
  556MOL0     O73261   6.865   1.922   6.854 -0.1842 -0.1583  0.6952
  556MOL0     C73262   6.866   1.808   6.897  0.1065 -0.8865 -0.7495
  556MOL0     O73263   6.835   1.697   6.836 -0.2932  0.6253 -0.1769
  556MOL0     C73264   6.769   1.693   6.716  1.3255 -0.1526 -0.1897
  556MOL0     C73265   6.770   1.574   6.639 -0.8240 -0.6065 -0.3074
  556MOL0     C73266   6.697   1.554   6.523 -0.3359 -0.2360 -1.0413
  556MOL0     C73267   6.605   1.650   6.485 -0.5170 -0.5123  0.1635
  556MOL0     O73268   6.509   1.622   6.390 -0.1650 -0.2579  0.2097
  556MOL0     C73269   6.532   1.516   6.297 -0.0657 -0.1338 -0.1305
  556MOL0     C73270   6.661   1.534   6.204  0.0546 -0.4522 -0.1666
  556MOL0     C73271   6.674   1.674   6.153  0.5271  1.0144  0.4090
  556MOL0     C73272   6.563   1.706   6.046  0.7846 -1.0589 -0.1690
  556MOL0     C73273   6.569   1.846   5.998 -0.2876 -0.9585  0.6713
  556MOL0     C73274   6.453   1.860   5.902 -0.3615  0.2390  0.7000
  556MOL0     C73275   6.454   1.993   5.847 -0.5264  0.4366  0.9219
  556MOL0     C73276   6.325   2.023   5.758  0.4168 -0.0429  0.6825
  556MOL0     N73277   6.349   2.165   5.722 -0.0177 -0.1137  0.9932
  556MOL0     C73278   6.297   2.280   5.784 -0.2831 -0.1973  0.8916
  556MOL0     C73279   6.345   2.375   5.693  0.2624  0.7987 -0.1847
  556MOL0     C73280   6.351   2.527   5.706 -0.2412  0.6958  0.8187
  556MOL0     C73281   6.223   2.594   5.682 -0.0360  0.4358  0.1042
  556MOL0     C73282   6.232   2.752   5.727  0.5521 -0.1160  0.7321
  556MOL0     C73283   6.319   2.835   5.620  0.0507  0.7469  0.6528
  556MOL0     O73284   6.302   2.978   5.622 -0.0336  0.4997 -0.2969
  556MOL0     C73285   6.378   3.059   5.539  0.8264  0.3121 -1.0954
  556MOL0     C73286   6.486   3.010   5.467  1.2736  0.1162  0.1036
  556MOL0     C73287   6.559   3.091   5.380  0.3195  0.1966 -0.1950
  556MOL0     C73288   6.528   3.227   5.375 -0.2822 -0.0838  0.0317
  556MOL0     C73289   6.608   3.304   5.273  0.0767 -0.0116 -0.1278
  556MOL0     O73290   6.709   3.229   5.202  0.3006  0.4230  0.1240
  556MOL0     C73291   6.784   3.299   5.108  0.6707 -0.1152 -0.0271
  556MOL0     C73292   6.872   3.393   5.146  0.0940  0.2801  0.6989
  556MOL0     C73293   6.959   3.461   5.050 -0.6059  0.5902 -0.2910
  556MOL0     C73294   6.938   3.433   4.911 -1.0457  0.4033 -0.7199
  556MOL0     O73295   7.007   3.515   4.817  1.2527  1.4570 -0.3790
  556MOL0     C73296   7.023   3.459   4.683 -0.3594  0.2768  0.0948
  556MOL0     C73297   7.122   3.549   4.600 -0.3140  0.2059  0.0720
  556MOL0     C73298   7.158   3.488   4.467 -0.6034 -0.5135 -1.2224
  556MOL0     C73299   7.281   3.546   4.398  0.2787 -1.0477  0.0331
  556MOL0     C73300   7.288   3.704   4.392 -0.5654 -0.7849  0.4382
  556MOL0     C73301   7.385   3.722   4.272 -0.8199  0.7579  0.3019
  556MOL0     C73302   7.421   3.874   4.267  0.3781  0.4736 -0.3135
  556MOL0     C73303   7.563   3.903   4.195  1.1352  0.7690  0.5167
  556MOL0    Cl73304   7.698   3.843   4.293  0.1511 -0.1510  0.2747
  556MOL0     C73305   6.848   3.337   4.874 -0.4739  0.1826  0.3782
  556MOL0     C73306   6.767   3.267   4.974 -0.2136 -0.9107 -0.3302
  556MOL0     O73307   6.578   3.417   5.251 -0.2509 -0.2694 -0.1671
  556MOL0     C73308   6.416   3.282   5.446  0.5406  0.6615 -0.7549
  556MOL0     C73309   6.346   3.192   5.530 -1.5150 -0.1767  0.3339
  556MOL0     N73310   6.417   2.317   5.588  0.3052  0.4174 -0.5007
  556MOL0     N73311   6.425   2.188   5.608  0.3955 -0.0477 -0.1759
  556MOL0     C73312   6.611   1.781   6.544 -0.0708  0.1724  0.5873
  556MOL0     C73313   6.678   1.792   6.668  0.0898  0.0326 -0.2419
  556MOL0     C73314   6.899   1.784   7.050 -0.1203  1.3827  0.7555
  556MOL0     C73315   6.913   1.899   7.124 -0.2301 -0.0872  0.4172
  556MOL0     C73316   6.940   1.892   7.254 -0.8970  0.5325 -0.2756
  556MOL0     C73317   6.974   1.773   7.325 -0.8069 -0.6909 -0.3438
  556MOL0     O73318   7.014   1.783   7.456 -0.0743  0.5687  0.0949
  556MOL0     C73319   6.991   1.676   7.546  0.0257 -0.3265  0.8457
  556MOL0     C73320   6.976   1.700   7.689  0.2388  0.6107 -1.2811
  556MOL0     C73321   6.867   1.802   7.730  0.3249 -0.3195 -0.9739
  556MOL0     C73322   6.828   1.814   7.882 -0.0895  0.6088  0.4968
  556MOL0     C73323   6.771   1.698   7.942  0.3093  0.3384  1.3391
  556MOL0     C73324   6.691   1.612   7.980 -1.5129 -0.4652 -0.6001
  556MOL0     C73325   6.967   1.651   7.251 -0.2511  0.1823 -0.1317
  556MOL0     C73326   6.921   1.654   7.110  0.1737  0.5375 -0.8338
  556MOL0     H73327   6.833   1.500   6.686  0.9226 -0.5335 -2.4102
  556MOL0     H73328   6.720   1.458   6.478  1.3813 -0.7041  0.7104
  556MOL0     H73329   6.440   1.511   6.237  0.4643 -0.6160 -0.9189
  556MOL0     H73330   6.543   1.413   6.333 -1.8299 -1.0308 -1.9412
  556MOL0     H73331   6.652   1.478   6.110  1.6239  2.7517 -2.4392
  556MOL0     H73332   6.753   1.498   6.251 -1.0277  0.1349  2.5972
  556MOL0     H73333   6.775   1.675   6.113  0.2691  0.6034 -0.2588
  556MOL0     H73334   6.664   1.753   6.229  1.5163  1.7144 -0.1652
  556MOL0     H73335   6.571   1.642   5.957 -1.5099 -0.3153 -0.9632
  556MOL0     H73336   6.462   1.706   6.087  0.5897 -0.2749 -0.6342
  556MOL0     H73337   6.661   1.862   5.941 -1.5177 -1.2940 -1.5397
  556MOL0     H73338   6.565   1.909   6.087 -1.3913  0.5385 -0.3897
  556MOL0     H73339   6.354   1.849   5.949 -1.5696  0.0105 -1.7449
  556MOL0     H73340   6.460   1.780   5.828 -0.9253  2.2607 -1.6674
  556MOL0     H73341   6.462   2.069   5.925  1.2639  1.6595 -0.3732
  556MOL0     H73342   6.547   1.993   5.791 -0.4300 -0.3069  1.0771
  556MOL0     H73343   6.233   2.021   5.817 -1.0457  0.9731 -1.4223
  556MOL0     H73344   6.313   1.957   5.672  1.6358  0.3856  0.1604
  556MOL0     H73345   6.246   2.282   5.879  0.8202 -0.9457  1.5197
  556MOL0     H73346   6.420   2.563   5.628 -0.4592 -1.7083 -0.5631
  556MOL0     H73347   6.383   2.563   5.804 -0.9157  0.2954  1.1915
  556MOL0     H73348   6.142   2.545   5.737  1.8477 -2.1638  0.7477
  556MOL0     H73349   6.193   2.585   5.578  3.5748 -3.6104 -0.8961
  556MOL0     H73350   6.128   2.783   5.723 -0.3976 -2.5878  3.1848
  556MOL0     H73351   6.267   2.759   5.830  0.6834 -0.5973  0.7260
  556MOL0     H73352   6.293   2.816   5.516  2.2614  3.2880 -0.4626
  556MOL0     H73353   6.422   2.800   5.628  0.6896  0.8428 -4.2000
  556MOL0     H73354   6.527   2.909   5.471  1.3939 -0.0438 -3.0062
  556MOL0     H73355   6.631   3.036   5.320 -1.3913 -1.1419 -1.1070
  556MOL0     H73356   6.879   3.422   5.250 -1.7971  0.2790  0.8587
  556MOL0     H73357   7.022   3.544   5.080  1.4546 -0.4433 -1.5785
  556MOL0     H73358   6.932   3.458   4.622  1.2604  0.1831 -2.5021
  556MOL0     H73359   7.070   3.361   4.684 -2.1130 -0.6056  1.1980
  556MOL0     H73360   7.214   3.564   4.657 -0.7533  1.1333  0.5644
  556MOL0     H73361   7.072   3.643   4.575  0.3230  0.3213 -0.8025
  556MOL0     H73362   7.073   3.502   4.399 -0.0693  0.4243 -1.7167
  556MOL0     H73363   7.176   3.381   4.482  1.4708 -0.1728 -0.9605
  556MOL0     H73364   7.370   3.524   4.458 -0.8407 -0.1625  2.1147
  556MOL0     H73365   7.300   3.498   4.302 -0.3099 -0.2266 -0.5065
  556MOL0     H73366   7.329   3.757   4.478 -1.4813  0.9070 -0.1092
  556MOL0     H73367   7.191   3.753   4.381  0.1861  1.4163  2.6786
  556MOL0     H73368   7.342   3.693   4.175 -1.5384  1.1347  0.4996
  556MOL0     H73369   7.476   3.663   4.284  1.3429  3.3309 -2.1224
  556MOL0     H73370   7.344   3.922   4.208 -2.7675 -1.2154  2.1102
  556MOL0     H73371   7.429   3.918   4.367 -0.8303 -0.4793  0.2242
  556MOL0     H73372   7.581   4.009   4.177  0.2142  0.7527 -0.5989
  556MOL0     H73373   7.567   3.852   4.099 -0.1988  1.3461  0.1298
  556MOL0     H73374   6.826   3.326   4.768  0.0875  1.4102  0.1252
  556MOL0     H73375   6.717   3.176   4.942  0.0925 -2.1458  2.3256
  556MOL0     H73376   6.395   3.388   5.437  0.0222  0.5814 -0.4984
  556MOL0     H73377   6.258   3.234   5.578 -1.2654  1.6730 -0.7198
  556MOL0     H73378   6.544   1.855   6.502 -1.8939 -2.2143 -0.9413
  556MOL0     H73379   6.660   1.877   6.732 -0.7690 -0.8677  0.7631
  556MOL0     H73380   6.901   1.995   7.075 -0.5396  0.1845  1.0129
  556MOL0     H73381   6.958   1.987   7.304 -0.8864 -0.8366  2.4573
  556MOL0     H73382   7.066   1.597   7.530  1.1858  0.5615  1.6831
  556MOL0     H73383   6.897   1.629   7.516 -0.6895  1.7899 -0.3839
  556MOL0     H73384   6.942   1.605   7.732  1.8161  1.3446  1.9300
  556MOL0     H73385   7.073   1.724   7.735 -0.1951 -0.5054  0.3138
  556MOL0     H73386   6.777   1.782   7.671  0.6668 -2.9728 -0.6811
  556MOL0     H73387   6.906   1.901   7.706 -1.9621  0.4237 -2.0064
  556MOL0     H73388   6.900   1.865   7.946 -0.1399 -0.3097  1.3275
  556MOL0     H73389   6.752   1.892   7.878  0.8541  1.5080 -2.4062
  556MOL0     H73390   6.624   1.538   8.017 -2.0984  0.0734 -0.5571
  556MOL0     H73391   6.999   1.565   7.309 -2.8405  0.5678  2.0335
  556MOL0     H73392   6.918   1.561   7.054  3.1374 -0.3791  0.3199
  557MOL0     O73393   5.577   1.182  10.222 -0.6297 -0.2140  0.4913
  557MOL0     C73394   5.471   1.234  10.248 -0.4775 -0.1125 -0.4696
  557MOL0     O73395   5.458   1.365  10.261 -0.7881  1.0516  1.3099
  557MOL0     C73396   5.551   1.464  10.229  0.2771  0.8667  0.5965
  557MOL0     C73397   5.677   1.451  10.162  0.3938  1.1611 -0.1554
  557MOL0     C73398   5.745   1.561  10.120 -0.7191  0.7046  0.0923
  557MOL0     C73399   5.695   1.680  10.135  0.4703 -0.9143  0.2350
  557MOL0     O73400   5.756   1.801  10.096  0.7915  0.0452  0.0168
  557MOL0     C73401   5.816   1.799   9.968 -0.5738  0.2198 -1.6587
  557MOL0     C73402   5.837   1.940   9.923 -0.4013  0.0779  0.2123
  557MOL0     C73403   5.927   1.936   9.791  0.4158 -0.5693 -0.3902
  557MOL0     C73404   5.977   2.087   9.768 -0.5084  0.0368 -0.2531
  557MOL0     C73405   6.056   2.108   9.646  0.0446  1.0087  0.7514
  557MOL0     C73406   5.956   2.107   9.529  0.2524 -0.8602 -0.3739
  557MOL0     C73407   6.032   2.129   9.407 -0.2147  0.3663  0.8418
  557MOL0     C73408   5.960   2.082   9.279  0.0773 -0.1206 -0.5784
  557MOL0     N73409   5.867   2.195   9.243 -0.1163 -0.2605 -0.3604
  557MOL0     C73410   5.747   2.227   9.304  0.4419  0.2045  0.8321
  557MOL0     C73411   5.712   2.349   9.253 -0.3266 -0.3173  0.0389
  557MOL0     C73412   5.577   2.412   9.263 -0.1700  0.9855 -0.7227
  557MOL0     C73413   5.558   2.500   9.393  0.3163 -0.4700  0.0024
  557MOL0     C73414   5.614   2.638   9.368 -0.5661 -0.0028  0.1961
  557MOL0     C73415   5.639   2.714   9.504 -0.3401 -0.2380  0.3884
  557MOL0     O73416   5.689   2.843   9.491 -0.3726 -0.2039  0.2702
  557MOL0     C73417   5.668   2.934   9.594 -0.0976  0.1575 -0.3949
  557MOL0     C73418   5.599   3.048   9.562 -0.5612  0.2016  1.2697
  557MOL0     C73419   5.579   3.154   9.663 -0.4444  0.8788  0.4082
  557MOL0     C73420   5.640   3.149   9.794  0.4946  0.0364  0.9528
  557MOL0     C73421   5.637   3.270   9.876 -0.5867  0.1848 -0.7769
  557MOL0     O73422   5.696   3.258   9.999 -0.4639 -0.5910  0.3027
  557MOL0     C73423   5.692   3.367  10.091  0.1528 -0.3901  1.2149
  557MOL0     C73424   5.814   3.428  10.119 -0.4469  0.2590  0.2804
  557MOL0     C73425   5.819   3.505  10.227 -0.5280 -0.8412  0.7423
  557MOL0     C73426   5.710   3.547  10.302  0.4823 -0.1351 -0.6067
  557MOL0     O73427   5.709   3.654  10.390 -0.1986 -0.3102 -0.0646
  557MOL0     C73428   5.835   3.692  10.450  0.1419 -0.1532  0.4413
  557MOL0     C73429   5.804   3.815  10.537 -0.6988  1.1825  0.2200
  557MOL0     C73430   5.692   3.783  10.636 -0.5336  0.0533  0.2907
  557MOL0     C73431   5.699   3.891  10.743  0.0306  0.2311 -0.8205
  557MOL0     C73432   5.599   3.876  10.860  0.5405 -0.3552  0.2610
  557MOL0     C73433   5.636   3.748  10.942  0.0499 -0.6460  0.2973
  557MOL0     C73434   5.561   3.751  11.080 -0.0241  0.5421  0.1181
  557MOL0     C73435   5.401   3.734  11.050  0.2901 -0.2792 -0.0630
  557MOL0    Cl73436   5.316   3.658  11.198 -0.2290 -0.4612 -0.3637
  557MOL0     C73437   5.590   3.483  10.271 -0.0133 -0.0957  0.5764
  557MOL0     C73438   5.578   3.395  10.161 -0.0143  0.4143  0.4280
  557MOL0     O73439   5.582   3.371   9.835  0.2043 -0.4701  0.2713
  557MOL0     C73440   5.709   3.024   9.818  0.0499 -0.1782 -0.6722
  557MOL0     C73441   5.714   2.924   9.726  0.1835  0.1754 -0.3975
  557MOL0     N73442   5.819   2.391   9.175  0.2264 -0.0880  0.0380
  557MOL0     N73443   5.898   2.289   9.156  0.2475 -0.5120  0.5140
  557MOL0     C73444   5.576   1.695  10.214  0.5723  0.5704 -0.3620
  557MOL0     C73445   5.510   1.589  10.259 -0.2341  0.5596 -1.0476
  557MOL0     C73446   5.344   1.158  10.265 -0.2723  0.4351 -0.7232
  557MOL0     C73447   5.214   1.204  10.250  0.2239 -0.3179 -0.4754
  557MOL0     C73448   5.103   1.130  10.279 -0.7383  0.4901  0.3509
  557MOL0     C73449   5.118   0.990  10.311  0.4648  0.0450  0.1721
  557MOL0     O73450   5.017   0.905  10.322 -0.8539  0.3560  0.0495
  557MOL0     C73451   4.890   0.947  10.372  0.0474 -0.4012  0.8323
  557MOL0     C73452   4.799   0.830  10.394 -1.1020  0.3976 -0.2158
  557MOL0     C73453   4.786   0.712  10.294 -0.1335 -0.0699 -0.3813
  557MOL0     C73454   4.682   0.610  10.337  0.3484 -0.8877 -0.3016
  557MOL0     C73455   4.659   0.499  10.240 -0.0140 -0.2866  0.9614
  557MOL0     C73456   4.636   0.394  10.184 -0.3271  0.3507 -1.0416
  557MOL0     C73457   5.245   0.934  10.312 -0.3569  0.3460  0.5727
  557MOL0     C73458   5.356   1.017  10.288 -0.3320 -0.1523 -0.0225
  557MOL0     H73459   5.710   1.350  10.136 -1.2229  0.6246 -0.2360
  557MOL0     H73460   5.850   1.540  10.102 -1.2098 -2.0359  0.0119
  557MOL0     H73461   5.758   1.743   9.894 -0.5037 -1.4330 -0.5168
  557MOL0     H73462   5.912   1.749   9.982 -1.8053 -1.5366  1.8868
  557MOL0     H73463   5.875   2.008  10.000 -1.2618  1.1747 -0.3033
  557MOL0     H73464   5.742   1.988   9.895 -0.9600 -1.6499 -0.9459
  557MOL0     H73465   5.856   1.907   9.713 -1.0799  2.0262 -0.1225
  557MOL0     H73466   6.009   1.864   9.791  0.7832 -0.2586  2.3978
  557MOL0     H73467   5.901   2.165   9.771 -1.1961 -0.6200 -0.3222
  557MOL0     H73468   6.050   2.115   9.844 -0.8560 -0.1456  0.1541
  557MOL0     H73469   6.127   2.025   9.641  0.7585  1.6863 -0.8151
  557MOL0     H73470   6.107   2.204   9.663  0.2737  1.0514 -0.1581
  557MOL0     H73471   5.877   2.181   9.543 -0.4151 -1.9111  1.7318
  557MOL0     H73472   5.901   2.013   9.515 -1.1098 -0.0428 -0.6857
  557MOL0     H73473   6.068   2.231   9.394  0.5262  0.3113  2.2929
  557MOL0     H73474   6.110   2.053   9.412  0.4043  1.0652  4.1211
  557MOL0     H73475   5.916   1.985   9.304  3.2588 -1.4028  0.4960
  557MOL0     H73476   6.027   2.067   9.195  0.1751  0.9323 -0.7005
  557MOL0     H73477   5.693   2.159   9.369  0.0799 -0.4496 -0.1300
  557MOL0     H73478   5.512   2.325   9.273  2.3832 -0.8418  1.3978
  557MOL0     H73479   5.551   2.465   9.171 -1.6802  1.3366 -0.1114
  557MOL0     H73480   5.610   2.445   9.472  2.0248  0.5186 -0.3936
  557MOL0     H73481   5.452   2.509   9.419  0.4233  3.0677 -0.3504
  557MOL0     H73482   5.715   2.636   9.327 -0.3971 -0.2204  0.6143
  557MOL0     H73483   5.547   2.699   9.307  1.6880  0.9530 -1.4675
  557MOL0     H73484   5.685   2.644   9.575 -2.7936 -2.2802  0.1195
  557MOL0     H73485   5.536   2.731   9.537 -0.6469  1.0723 -1.1253
  557MOL0     H73486   5.555   3.073   9.466 -0.9715  1.3666  1.7387
  557MOL0     H73487   5.519   3.238   9.632  0.1375  0.0421 -3.5007
  557MOL0     H73488   5.907   3.396  10.074  1.0103 -0.2105  3.3375
  557MOL0     H73489   5.916   3.552  10.244  1.0301 -2.6475 -2.3533
  557MOL0     H73490   5.918   3.732  10.392  1.0275 -2.5175 -0.0290
  557MOL0     H73491   5.873   3.609  10.511 -2.4324 -1.7711  0.0275
  557MOL0     H73492   5.790   3.903  10.474 -0.3433 -0.5658 -2.4456
  557MOL0     H73493   5.896   3.837  10.592 -0.5595  0.4496  0.2855
  557MOL0     H73494   5.712   3.685  10.679  3.0104  0.9169  0.9269
  557MOL0     H73495   5.595   3.791  10.585 -0.4538 -0.2024  0.1016
  557MOL0     H73496   5.803   3.894  10.776  0.8880 -0.2644 -3.2856
  557MOL0     H73497   5.669   3.978  10.683  0.4640 -1.3937 -3.5629
  557MOL0     H73498   5.495   3.873  10.825  0.5950  1.4365 -0.1684
  557MOL0     H73499   5.610   3.961  10.928  2.2724 -1.1213  1.0020
  557MOL0     H73500   5.742   3.735  10.967  0.0498  0.5157  0.9645
  557MOL0     H73501   5.587   3.669  10.884  1.7201 -0.3932 -1.5352
  557MOL0     H73502   5.597   3.658  11.126 -1.5521  0.2029  0.7155
  557MOL0     H73503   5.592   3.836  11.141 -1.1073  0.8738  0.2384
  557MOL0     H73504   5.393   3.667  10.964  0.6550 -4.1805  2.6571
  557MOL0     H73505   5.347   3.826  11.025 -3.1931 -0.9555  3.8206
  557MOL0     H73506   5.500   3.493  10.331 -0.2324 -0.6473  0.3539
  557MOL0     H73507   5.481   3.356  10.131  1.1093 -1.1001 -1.4637
  557MOL0     H73508   5.771   3.019   9.906  0.4010  0.4115 -0.8866
  557MOL0     H73509   5.759   2.827   9.739 -0.7346 -0.3023 -0.7335
  557MOL0     H73510   5.536   1.793  10.239 -1.1406 -0.4618  1.1933
  557MOL0     H73511   5.418   1.606  10.314 -1.0931 -1.0267 -1.9179
  557MOL0     H73512   5.208   1.308  10.220 -0.1892 -0.2491 -0.1510
  557MOL0     H73513   5.005   1.165  10.248 -1.7225 -0.8232  1.8189
  557MOL0     H73514   4.826   1.011  10.311 -2.1390 -2.3363  0.9303
  557MOL0     H73515   4.893   1.003  10.465 -3.7229  0.4332  0.6155
  557MOL0     H73516   4.818   0.788  10.493  2.8326  0.8840 -0.6249
  557MOL0     H73517   4.694   0.858  10.407 -1.3279  0.3447 -1.7021
  557MOL0     H73518   4.881   0.659  10.280 -0.3229 -2.0024  3.9896
  557MOL0     H73519   4.758   0.756  10.198  1.8703  2.3315  0.0397
  557MOL0     H73520   4.717   0.571  10.434  0.9048  1.1023  0.3430
  557MOL0     H73521   4.589   0.665  10.355  0.5042 -0.6930 -0.0815
  557MOL0     H73522   4.644   0.291  10.157 -0.3213 -0.5425  2.0017
  557MOL0     H73523   5.247   0.826  10.318 -0.1619  0.4328  3.8273
  557MOL0     H73524   5.457   0.982  10.270 -0.4260  0.9507 -3.5641
  558MOL0     O73525   8.916   3.264   6.440 -0.3682 -0.6059 -0.6938
  558MOL0     C73526   8.850   3.246   6.342 -0.4550 -0.8179 -0.1284
  558MOL0     O73527   8.807   3.125   6.294  0.1924  0.5135  0.2901
  558MOL0     C73528   8.822   3.014   6.382 -0.0981 -0.1990 -0.4647
  558MOL0     C73529   8.890   2.902   6.335  0.2920  0.2165 -0.5075
  558MOL0     C73530   8.917   2.790   6.412  0.7618  0.3129  0.6862
  558MOL0     C73531   8.860   2.783   6.540 -0.0844  0.1422 -1.0581
  558MOL0     O73532   8.883   2.670   6.620  0.6362 -0.3307  0.5086
  558MOL0     C73533   8.821   2.554   6.574  1.1700 -0.0030 -0.4732
  558MOL0     C73534   8.766   2.481   6.694 -0.0178  0.4476 -0.7193
  558MOL0     C73535   8.712   2.349   6.649  0.4179 -0.2351 -0.8790
  558MOL0     C73536   8.654   2.282   6.768 -0.4518  0.3890 -0.5111
  558MOL0     C73537   8.611   2.143   6.746 -0.4843  0.2265  0.6737
  558MOL0     C73538   8.491   2.127   6.661 -0.3021 -0.5451 -0.5047
  558MOL0     C73539   8.470   1.987   6.611  0.3667 -1.3609 -0.4740
  558MOL0     C73540   8.420   1.898   6.722 -0.4399  0.1424  0.5785
  558MOL0     N73541   8.273   1.873   6.704 -0.1266  0.4787  0.6463
  558MOL0     C73542   8.168   1.950   6.743  0.4949 -0.1375 -0.6394
  558MOL0     C73543   8.056   1.873   6.731  0.0503 -0.0138 -0.0110
  558MOL0     C73544   7.919   1.893   6.787 -0.0545 -0.2931  0.8136
  558MOL0     C73545   7.926   1.967   6.924 -0.6410  0.6684  0.0907
  558MOL0     C73546   7.792   1.985   6.998 -0.6047 -0.7814  0.3191
  558MOL0     C73547   7.804   2.042   7.146  0.3091 -0.6843 -0.1761
  558MOL0     O73548   7.894   2.148   7.154 -0.2320  0.7034  0.0881
  558MOL0     C73549   7.900   2.216   7.270 -0.6967 -0.2722  0.6333
  558MOL0     C73550   8.004   2.307   7.283 -0.1030  0.3499 -1.1719
  558MOL0     C73551   8.036   2.362   7.411 -0.2788 -0.4710 -0.0261
  558MOL0     C73552   7.962   2.334   7.532 -0.2105 -0.7646  0.2606
  558MOL0     C73553   7.989   2.408   7.653  0.0481 -0.0494 -0.3605
  558MOL0     O73554   8.078   2.510   7.648  0.0005  0.7363 -0.2685
  558MOL0     C73555   8.107   2.588   7.752  0.3575 -0.5909 -0.1196
  558MOL0     C73556   8.232   2.654   7.747  0.5337 -0.3659 -0.1907
  558MOL0     C73557   8.258   2.757   7.835  0.0756 -0.3385  0.2461
  558MOL0     C73558   8.171   2.797   7.938 -1.0067  0.8030 -0.1993
  558MOL0     O73559   8.206   2.892   8.023 -0.4598  0.5458  0.2083
  558MOL0     C73560   8.165   2.879   8.159 -0.1269 -0.8549  0.0932
  558MOL0     C73561   8.203   3.005   8.237 -0.3712  0.5498 -0.8375
  558MOL0     C73562   8.193   2.996   8.388 -1.1256  0.0537  0.2517
  558MOL0     C73563   8.270   3.117   8.456  0.3281 -0.0370  0.1345
  558MOL0     C73564   8.264   3.114   8.608  0.9559 -0.8383  0.7117
  558MOL0     C73565   8.320   3.249   8.667 -0.3664  0.3602  0.8458
  558MOL0     C73566   8.299   3.251   8.819 -0.1571  0.5957  0.6874
  558MOL0     C73567   8.397   3.354   8.869 -1.2953  0.5047  0.0552
  558MOL0    Cl73568   8.363   3.374   9.042 -0.2300  0.1046  0.0493
  558MOL0     C73569   8.045   2.745   7.931 -0.3379  0.4777  0.5332
  558MOL0     C73570   8.017   2.636   7.839 -0.5879 -0.7539 -0.2119
  558MOL0     O73571   7.943   2.362   7.760 -0.3367 -0.4590 -0.2772
  558MOL0     C73572   7.845   2.256   7.516 -0.5260  0.6488 -0.7426
  558MOL0     C73573   7.830   2.181   7.395  0.0724 -0.0804  0.5466
  558MOL0     N73574   8.092   1.749   6.688 -0.1127 -0.1278  0.2242
  558MOL0     N73575   8.220   1.750   6.674 -0.3947 -0.5717  0.5058
  558MOL0     C73576   8.780   2.896   6.596 -0.8014 -0.3792  0.3804
  558MOL0     C73577   8.761   3.011   6.514  0.2008 -0.1042  0.6246
  558MOL0     C73578   8.813   3.374   6.271 -0.4132  0.4166 -0.1641
  558MOL0     C73579   8.890   3.482   6.292 -0.1807  0.9323  0.2428
  558MOL0     C73580   8.869   3.604   6.229 -0.0260 -0.0035 -0.5636
  558MOL0     C73581   8.785   3.614   6.122 -0.5798 -1.4350  0.3319
  558MOL0     O73582   8.783   3.726   6.044 -0.3480  0.4782 -0.1885
  558MOL0     C73583   8.863   3.721   5.933 -0.6854  0.2105  0.3063
  558MOL0     C73584   8.870   3.870   5.880 -0.0561 -0.2218  0.1044
  558MOL0     C73585   8.906   3.965   5.991 -0.8614  0.2079 -0.5567
  558MOL0     C73586   8.880   4.112   5.946 -0.2351  0.9973  0.1024
  558MOL0     C73587   8.973   4.151   5.838  0.3585 -0.9548  0.6850
  558MOL0     C73588   9.029   4.175   5.737  0.4292 -0.2299  0.2705
  558MOL0     C73589   8.704   3.501   6.093 -0.7361  1.1031  0.0011
  558MOL0     C73590   8.722   3.382   6.173 -0.8685  0.7688 -0.4303
  558MOL0     H73591   8.913   2.907   6.229 -2.6466 -1.0485 -1.2899
  558MOL0     H73592   8.980   2.706   6.384 -0.0134  0.7109 -2.6352
  558MOL0     H73593   8.893   2.494   6.517  2.9336  0.6335  0.9933
  558MOL0     H73594   8.734   2.575   6.511  0.1947 -1.0477  0.4724
  558MOL0     H73595   8.685   2.536   6.742  1.0277 -0.2135  1.9951
  558MOL0     H73596   8.850   2.463   6.762  1.0479  0.4061 -2.0091
  558MOL0     H73597   8.782   2.281   6.598  1.8485  0.8165 -0.3711
  558MOL0     H73598   8.635   2.376   6.577 -0.2401  0.2935  0.0015
  558MOL0     H73599   8.723   2.286   6.853 -0.4363  0.2591 -0.5179
  558MOL0     H73600   8.572   2.352   6.789 -0.6252  0.7374 -2.2101
  558MOL0     H73601   8.603   2.089   6.841  1.6325 -0.4132  0.5569
  558MOL0     H73602   8.700   2.102   6.696  1.3785  1.0812  3.0748
  558MOL0     H73603   8.494   2.194   6.575  0.5640  1.9655  1.3591
  558MOL0     H73604   8.406   2.151   6.726  0.7390 -1.1632  1.1301
  558MOL0     H73605   8.415   1.990   6.516  2.9755 -0.6241 -2.0831
  558MOL0     H73606   8.566   1.961   6.565  1.3874  4.0853 -2.1261
  558MOL0     H73607   8.435   1.941   6.821 -3.1510 -0.3275  1.2733
  558MOL0     H73608   8.472   1.803   6.711  1.0697  1.2090 -2.6336
  558MOL0     H73609   8.181   2.048   6.788  2.7415  0.0958 -1.6650
  558MOL0     H73610   7.878   1.795   6.809 -0.9265  0.0227  0.6529
  558MOL0     H73611   7.873   1.960   6.713  4.7203  2.0513 -0.4911
  558MOL0     H73612   7.976   2.064   6.911  2.3993 -1.0485 -2.4230
  558MOL0     H73613   7.994   1.905   6.982 -1.6223 -0.3524  0.1853
  558MOL0     H73614   7.735   2.063   6.946  0.0394  0.6912  1.7425
  558MOL0     H73615   7.745   1.887   6.991  0.1225 -1.0556 -1.0913
  558MOL0     H73616   7.820   1.960   7.217  0.8143 -1.1788 -0.8436
  558MOL0     H73617   7.702   2.079   7.159  0.6254  1.4115 -2.9165
  558MOL0     H73618   8.058   2.321   7.190  3.5156 -5.1921 -0.3684
  558MOL0     H73619   8.115   2.436   7.416 -1.2196  0.5273  0.4219
  558MOL0     H73620   8.313   2.610   7.690 -0.4322 -2.5048 -0.0115
  558MOL0     H73621   8.356   2.804   7.833 -0.2905  0.4219 -0.3896
  558MOL0     H73622   8.204   2.789   8.207  0.0572 -0.3667  0.8731
  558MOL0     H73623   8.056   2.870   8.163 -0.5823  2.6839 -1.1418
  558MOL0     H73624   8.145   3.090   8.200 -3.7793  1.3821  5.0940
  558MOL0     H73625   8.305   3.030   8.207  0.3078 -1.9256 -0.8021
  558MOL0     H73626   8.221   2.895   8.421  0.5728 -0.0094 -1.2158
  558MOL0     H73627   8.085   3.002   8.404 -1.0623 -2.2541  2.1213
  558MOL0     H73628   8.369   3.138   8.414 -0.1544  0.5228 -0.7620
  558MOL0     H73629   8.215   3.209   8.434 -1.4388 -0.9366  0.6351
  558MOL0     H73630   8.301   3.025   8.660  2.4106 -0.5683  0.1862
  558MOL0     H73631   8.161   3.123   8.643  0.6836  1.3465 -0.4476
  558MOL0     H73632   8.258   3.333   8.634  3.5273  2.6177 -1.4379
  558MOL0     H73633   8.422   3.274   8.637  0.5270 -1.9912  1.7319
  558MOL0     H73634   8.198   3.278   8.853 -0.6070  1.4123 -1.1723
  558MOL0     H73635   8.322   3.156   8.867  0.2513 -0.1022 -0.8179
  558MOL0     H73636   8.393   3.443   8.806 -1.2848 -0.3980 -1.2551
  558MOL0     H73637   8.502   3.324   8.872 -0.1139  3.8645 -1.7727
  558MOL0     H73638   7.968   2.773   8.002 -0.9766 -2.1311  0.9711
  558MOL0     H73639   7.918   2.590   7.833 -1.8493  1.9810 -2.7290
  558MOL0     H73640   7.775   2.237   7.597 -0.7567  2.7546 -0.3958
  558MOL0     H73641   7.742   2.118   7.383 -0.5327  1.0062 -0.9751
  558MOL0     H73642   8.746   2.888   6.699  0.3961  2.3171  1.0644
  558MOL0     H73643   8.698   3.092   6.550  1.1402  1.0409 -0.2256
  558MOL0     H73644   8.978   3.478   6.355 -1.0277  1.4418  1.5039
  558MOL0     H73645   8.929   3.686   6.267  1.9107 -1.2908 -0.6875
  558MOL0     H73646   8.820   3.654   5.858 -0.1169  0.8227 -0.5719
  558MOL0     H73647   8.960   3.671   5.941  0.2031  1.6746 -0.9098
  558MOL0     H73648   8.940   3.883   5.797  1.1905 -0.4391  1.0919
  558MOL0     H73649   8.769   3.901   5.850  0.0166 -0.0292  0.0569
  558MOL0     H73650   9.014   3.958   6.012 -0.3752  1.2279 -2.4548
  558MOL0     H73651   8.851   3.948   6.084 -0.3200 -0.7270 -0.3877
  558MOL0     H73652   8.771   4.116   5.936 -0.5053 -3.6470 -1.0248
  558MOL0     H73653   8.912   4.178   6.028 -0.4289  1.9198 -0.5450
  558MOL0     H73654   9.083   4.203   5.650  0.0685 -0.4108 -0.0165
  558MOL0     H73655   8.636   3.512   6.008  2.1692  3.0244 -2.2709
  558MOL0     H73656   8.676   3.287   6.149  3.8336 -1.6888 -0.9458
  559MOL0     O73657   8.808  10.663  10.738 -0.5092 -0.7359 -0.5182
  559MOL0     C73658   8.698  10.669  10.792  0.2572 -0.0790  0.5607
  559MOL0     O73659   8.605  10.572  10.790  0.1441 -0.0229 -0.0964
  559MOL0     C73660   8.642  10.447  10.745  0.2772  0.7698  0.0055
  559MOL0     C73661   8.608  10.332  10.820  0.0778  0.3873 -0.0361
  559MOL0     C73662   8.634  10.200  10.775  0.6826 -0.3704 -1.0467
  559MOL0     C73663   8.698  10.185  10.653 -0.4987  0.1552  0.7131
  559MOL0     O73664   8.739  10.065  10.603  0.5381  0.3738  0.1657
  559MOL0     C73665   8.693   9.939  10.647 -0.5248 -0.4211 -0.9632
  559MOL0     C73666   8.702   9.841  10.523 -0.0658 -1.3061 -0.2751
  559MOL0     C73667   8.674   9.692  10.544  0.1941  0.1443 -1.1979
  559MOL0     C73668   8.518   9.661  10.561  0.1915  0.1256  0.1885
  559MOL0     C73669   8.486   9.510  10.574  0.0189  0.4464  0.9454
  559MOL0     C73670   8.513   9.439  10.708 -0.4718 -0.2857  0.7522
  559MOL0     C73671   8.460   9.300  10.710 -1.3677 -0.3794 -0.4425
  559MOL0     C73672   8.502   9.220  10.832 -0.4238  0.6300 -0.4221
  559MOL0     N73673   8.453   9.083  10.804  0.9008 -0.6419 -1.1634
  559MOL0     C73674   8.525   8.975  10.775 -0.9487  0.6680 -0.2341
  559MOL0     C73675   8.446   8.876  10.795  0.6436 -0.0290 -0.0511
  559MOL0     C73676   8.493   8.732  10.751  0.1809 -0.4071  0.4036
  559MOL0     C73677   8.541   8.659  10.880 -0.2191  0.4169 -0.0537
  559MOL0     C73678   8.593   8.516  10.866  0.2775  0.1620  0.4396
  559MOL0     C73679   8.680   8.466  10.971 -0.5930 -0.0087 -0.4002
  559MOL0     O73680   8.707   8.330  10.940  0.5830  0.5277 -0.7178
  559MOL0     C73681   8.627   8.219  10.961 -0.3069 -0.2349 -0.7420
  559MOL0     C73682   8.528   8.218  11.060 -0.2581 -0.4097 -0.5484
  559MOL0     C73683   8.452   8.107  11.084 -0.3652  0.1493  0.1915
  559MOL0     C73684   8.478   7.988  11.012 -1.1014  1.5375 -0.4509
  559MOL0     C73685   8.414   7.859  11.046 -0.5570  0.1777  0.0859
  559MOL0     O73686   8.471   7.758  10.983 -0.1618 -0.0984 -0.4467
  559MOL0     C73687   8.435   7.631  11.023 -0.7503  0.5443 -0.1275
  559MOL0     C73688   8.454   7.586  11.154 -0.4672 -0.2059  0.2548
  559MOL0     C73689   8.432   7.453  11.189 -0.1978  0.0210 -0.3282
  559MOL0     C73690   8.394   7.361  11.087 -0.2624  0.5916 -0.1699
  559MOL0     O73691   8.380   7.235  11.126  0.4402 -0.1316  0.9791
  559MOL0     C73692   8.496   7.157  11.184 -0.1997 -0.7715  0.9492
  559MOL0     C73693   8.441   7.009  11.216  0.1631  0.2271 -0.3366
  559MOL0     C73694   8.387   6.910  11.103  0.3763  0.5886  0.3791
  559MOL0     C73695   8.482   6.907  10.987  0.7011 -0.5191  0.4631
  559MOL0     C73696   8.622   6.861  11.014  0.0310 -0.0707 -0.6788
  559MOL0     C73697   8.716   6.893  10.895 -0.0879  0.2346  0.6926
  559MOL0     C73698   8.855   6.896  10.944  0.2224  0.4447  0.5409
  559MOL0     C73699   8.948   6.951  10.829  0.7205  0.8067 -0.4602
  559MOL0    Cl73700   8.908   6.889  10.668 -0.2160  0.2048  0.7618
  559MOL0     C73701   8.369   7.403  10.952  0.2827 -0.2573 -0.9726
  559MOL0     C73702   8.406   7.537  10.921  0.1860  1.1457  0.4085
  559MOL0     O73703   8.321   7.850  11.126  0.4553 -0.8543  0.2885
  559MOL0     C73704   8.581   7.994  10.918  0.6182  0.3404  0.2088
  559MOL0     C73705   8.651   8.108  10.887  0.7789  1.0906 -0.1116
  559MOL0     N73706   8.325   8.921  10.833 -0.3976  0.6043 -0.5467
  559MOL0     N73707   8.328   9.049  10.845 -0.3584 -0.1336  0.2305
  559MOL0     C73708   8.722  10.298  10.579 -0.1093 -0.4590  0.7009
  559MOL0     C73709   8.707  10.424  10.623  0.6156 -0.6185 -0.3784
  559MOL0     C73710   8.660  10.806  10.854  0.8772 -0.3771  0.3324
  559MOL0     C73711   8.766  10.906  10.859  0.5942  0.0646 -1.3056
  559MOL0     C73712   8.733  11.034  10.899  1.1860 -0.2420 -0.0523
  559MOL0     C73713   8.601  11.066  10.935 -0.0626 -0.7142 -0.3834
  559MOL0     O73714   8.564  11.196  10.959  0.6923 -0.0449 -0.0645
  559MOL0     C73715   8.652  11.306  10.927 -0.0744  0.3628 -0.6958
  559MOL0     C73716   8.551  11.429  10.925 -0.6127 -0.3761 -0.0960
  559MOL0     C73717   8.473  11.428  10.796  0.3815 -0.7202 -0.5592
  559MOL0     C73718   8.398  11.565  10.774  0.1055 -0.4431  0.0382
  559MOL0     C73719   8.321  11.535  10.655  0.5060 -0.4298  0.8220
  559MOL0     C73720   8.278  11.504  10.544 -0.5642 -0.4479  0.3658
  559MOL0     C73721   8.508  10.970  10.956 -0.5509 -0.0141 -0.4640
  559MOL0     C73722   8.539  10.837  10.911  0.9837 -0.5981 -0.0593
  559MOL0     H73723   8.535  10.343  10.900  0.7772  0.7501  0.5708
  559MOL0     H73724   8.603  10.120  10.840  1.2117 -0.0564 -0.3976
  559MOL0     H73725   8.590   9.953  10.683 -0.8387  1.1473 -2.3703
  559MOL0     H73726   8.759   9.905  10.727 -1.1859  0.2249 -0.1279
  559MOL0     H73727   8.798   9.840  10.470  0.3394  2.0062  0.1942
  559MOL0     H73728   8.638   9.877  10.443 -0.4349 -2.9650 -0.7609
  559MOL0     H73729   8.739   9.657  10.625  0.2080 -1.4938 -1.8700
  559MOL0     H73730   8.719   9.633  10.463 -1.2531 -2.1049 -0.4478
  559MOL0     H73731   8.466   9.714  10.641 -3.9778 -3.0411 -0.0680
  559MOL0     H73732   8.473   9.695  10.467  0.1546 -2.9218 -1.0061
  559MOL0     H73733   8.535   9.453  10.494 -1.5764  1.5816 -0.9190
  559MOL0     H73734   8.378   9.500  10.567  0.0236 -1.9930  3.0419
  559MOL0     H73735   8.468   9.494  10.791  2.7910  2.2860  1.0456
  559MOL0     H73736   8.621   9.424  10.722 -0.6138 -2.0717  0.2112
  559MOL0     H73737   8.351   9.303  10.715 -1.2809  1.3630  2.0758
  559MOL0     H73738   8.498   9.247  10.622 -1.0437  0.0575 -0.5691
  559MOL0     H73739   8.485   9.256  10.934  0.7448 -3.1914  1.2897
  559MOL0     H73740   8.611   9.225  10.817 -0.6598  0.0299 -2.6852
  559MOL0     H73741   8.629   8.970  10.746 -0.9511 -3.2986 -0.2081
  559MOL0     H73742   8.569   8.742  10.673  1.7384 -2.6085  1.5399
  559MOL0     H73743   8.408   8.671  10.719 -1.0813  3.0414 -4.0103
  559MOL0     H73744   8.448   8.647  10.937 -1.9203  0.2135 -2.7147
  559MOL0     H73745   8.628   8.711  10.922  1.6057 -1.6706 -1.0749
  559MOL0     H73746   8.508   8.448  10.861 -2.9080  3.7846  0.3506
  559MOL0     H73747   8.642   8.497  10.770 -1.9373 -2.4120 -0.3034
  559MOL0     H73748   8.624   8.487  11.062  2.3294  2.5115  1.0097
  559MOL0     H73749   8.783   8.503  10.966 -0.6844  0.6586  1.7226
  559MOL0     H73750   8.506   8.312  11.111  2.0143 -1.5291  2.7743
  559MOL0     H73751   8.361   8.108  11.143 -0.2899 -2.2876  0.4522
  559MOL0     H73752   8.488   7.654  11.232  1.4997 -1.5827  0.6806
  559MOL0     H73753   8.436   7.414  11.290  0.4692  1.2805  0.1616
  559MOL0     H73754   8.540   7.207  11.270  0.0366 -0.3585  0.5918
  559MOL0     H73755   8.573   7.154  11.107  0.2142 -3.6771  1.3769
  559MOL0     H73756   8.366   7.022  11.295  2.9765  1.2812  2.3959
  559MOL0     H73757   8.514   6.954  11.276 -2.9114 -3.7137  0.1854
  559MOL0     H73758   8.287   6.940  11.072  0.5354  2.8527  1.8141
  559MOL0     H73759   8.374   6.806  11.134  3.5562 -0.1728 -0.4919
  559MOL0     H73760   8.435   6.841  10.912  1.2804  1.7324 -2.0356
  559MOL0     H73761   8.494   7.007  10.946 -1.3643  0.5761  2.3467
  559MOL0     H73762   8.607   6.754  11.029  2.9029 -0.2678  2.1012
  559MOL0     H73763   8.655   6.902  11.110 -0.1573  0.0201 -0.6536
  559MOL0     H73764   8.692   6.992  10.854 -2.5617  0.0687  1.5939
  559MOL0     H73765   8.695   6.819  10.817 -0.6742 -1.9366  2.8163
  559MOL0     H73766   8.862   6.961  11.032  0.4646  1.3695 -0.1463
  559MOL0     H73767   8.894   6.799  10.975  0.8070  0.8211  1.0233
  559MOL0     H73768   9.052   6.933  10.855  2.1073  5.7338 -1.4447
  559MOL0     H73769   8.926   7.059  10.834  3.7697  1.7450 -3.4724
  559MOL0     H73770   8.359   7.325  10.877 -1.6439 -1.3999  0.3993
  559MOL0     H73771   8.408   7.563  10.816 -1.0531  1.4563  0.4355
  559MOL0     H73772   8.589   7.908  10.852 -1.4878  0.3876 -0.1877
  559MOL0     H73773   8.727   8.103  10.811  1.6505 -0.2192  0.7987
  559MOL0     H73774   8.779  10.282  10.488  0.7120  0.8303  0.9644
  559MOL0     H73775   8.732  10.514  10.567  0.7596 -0.9317 -0.8227
  559MOL0     H73776   8.865  10.893  10.816 -0.5709  0.4717 -4.3779
  559MOL0     H73777   8.805  11.115  10.909 -1.5066  2.6714 -2.1647
  559MOL0     H73778   8.702  11.297  10.830 -0.8093  2.2864 -1.3082
  559MOL0     H73779   8.739  11.319  10.992  0.1928 -0.1653 -0.9391
  559MOL0     H73780   8.485  11.438  11.012 -0.2924  0.0557  0.1086
  559MOL0     H73781   8.601  11.527  10.929  0.3687 -0.7525 -2.2022
  559MOL0     H73782   8.399  11.350  10.815  0.8650 -0.7264  1.4324
  559MOL0     H73783   8.545  11.421  10.714 -0.0245  1.9068 -1.2586
  559MOL0     H73784   8.332  11.579  10.861 -0.4494  0.4772 -0.5161
  559MOL0     H73785   8.469  11.648  10.765  2.1022 -2.1069 -0.2959
  559MOL0     H73786   8.231  11.475  10.452 -0.4540  3.9324 -1.3341
  559MOL0     H73787   8.408  10.991  10.991 -1.5911 -0.4622 -2.9903
  559MOL0     H73788   8.454  10.770  10.919  0.0484  0.4317 -1.0041
  560MOL0     O73789   4.928   1.500  10.165  0.4198 -0.2929  0.8605
  560MOL0     C73790   4.833   1.576  10.173  0.3861  0.2905 -0.5903
  560MOL0     O73791   4.698   1.539  10.187 -0.4959 -1.0484  0.3926
  560MOL0     C73792   4.670   1.411  10.209 -0.8188  0.3235  0.7219
  560MOL0     C73793   4.618   1.374  10.336  0.0108 -0.4682  0.4176
  560MOL0     C73794   4.562   1.245  10.354 -0.0295  0.9215  0.1698
  560MOL0     C73795   4.581   1.148  10.260  0.5236 -0.1870  0.9505
  560MOL0     O73796   4.530   1.026  10.294  0.0029  0.2334  0.1453
  560MOL0     C73797   4.452   0.956  10.194  0.1481 -0.8826 -0.0775
  560MOL0     C73798   4.314   0.894  10.245  0.3547 -0.7115  0.7164
  560MOL0     C73799   4.230   1.013  10.296  0.1397  0.3884  1.1313
  560MOL0     C73800   4.171   1.092  10.180  0.6981  0.9216 -0.6430
  560MOL0     C73801   4.111   1.214  10.249 -0.6569 -0.9116 -1.0181
  560MOL0     C73802   4.035   1.310  10.157 -1.4401 -0.1630  0.6186
  560MOL0     C73803   3.888   1.271  10.130  0.2733  0.2585  0.4029
  560MOL0     C73804   3.817   1.350  10.022 -0.8102 -0.1371  0.6169
  560MOL0     N73805   3.879   1.322   9.894  0.2761 -0.0282 -0.4033
  560MOL0     C73806   3.859   1.205   9.831 -0.2129  0.3804  0.2363
  560MOL0     C73807   3.938   1.220   9.720  0.1954  0.0460 -1.3017
  560MOL0     C73808   3.958   1.121   9.609  0.1430 -0.5109 -0.5298
  560MOL0     C73809   4.045   1.004   9.646 -0.3058  0.0568  0.1595
  560MOL0     C73810   4.192   1.032   9.675 -0.0790 -0.4407  0.6535
  560MOL0     C73811   4.242   1.001   9.811  0.4661  0.2001 -0.2783
  560MOL0     O73812   4.387   1.008   9.827  0.4478 -0.3837  0.7190
  560MOL0     C73813   4.449   1.129   9.814  0.5747  1.2432 -0.0395
  560MOL0     C73814   4.400   1.246   9.857 -0.5984 -0.1258  0.6351
  560MOL0     C73815   4.471   1.363   9.837  0.2515 -0.0298 -0.8092
  560MOL0     C73816   4.592   1.365   9.777 -0.5007 -0.3803  0.7140
  560MOL0     C73817   4.664   1.490   9.762  0.3225 -0.1291 -0.4636
  560MOL0     O73818   4.589   1.606   9.749  0.3727  0.2829 -0.2672
  560MOL0     C73819   4.685   1.706   9.745  0.7188 -0.1391 -0.0140
  560MOL0     C73820   4.702   1.796   9.853 -0.6179  1.1516 -0.3986
  560MOL0     C73821   4.765   1.920   9.836  0.9817  0.3980 -0.6572
  560MOL0     C73822   4.833   1.950   9.709 -0.4032 -0.0511 -0.9935
  560MOL0     O73823   4.881   2.084   9.675  0.2086 -0.6717  0.8563
  560MOL0     C73824   4.916   2.172   9.786  0.4070  0.1816 -0.9481
  560MOL0     C73825   4.830   2.290   9.783 -0.5462 -0.2572  0.5171
  560MOL0     C73826   4.895   2.402   9.691  0.0044  0.1676 -0.3308
  560MOL0     C73827   4.789   2.516   9.676 -0.0964 -0.1202  0.1917
  560MOL0     C73828   4.864   2.648   9.658  0.0103 -0.0933 -0.1956
  560MOL0     C73829   4.784   2.761   9.583  0.4037  0.2394 -0.4008
  560MOL0     C73830   4.871   2.879   9.542  0.3298  0.1742  0.1362
  560MOL0     C73831   4.793   3.012   9.522  0.1240  0.5688  0.3332
  560MOL0    Cl73832   4.650   2.971   9.409 -0.1600 -0.3310 -0.0170
  560MOL0     C73833   4.834   1.851   9.613 -0.3355 -0.1328  1.0547
  560MOL0     C73834   4.755   1.733   9.619 -1.2287 -0.2899 -0.0904
  560MOL0     O73835   4.787   1.485   9.767  0.2713 -0.0907 -0.0856
  560MOL0     C73836   4.646   1.240   9.735 -0.6357  0.1303 -0.9172
  560MOL0     C73837   4.574   1.124   9.754 -0.9092  0.4748 -0.3602
  560MOL0     N73838   4.009   1.336   9.715  0.9270  0.6873 -0.2949
  560MOL0     N73839   3.961   1.402   9.821 -0.6118 -0.1433 -0.2859
  560MOL0     C73840   4.627   1.176  10.135 -0.9284 -0.0243  1.0054
  560MOL0     C73841   4.666   1.314  10.110 -0.1149 -0.1861  0.1254
  560MOL0     C73842   4.861   1.720  10.155  1.0102 -0.9286  0.1730
  560MOL0     C73843   4.776   1.805  10.219  0.3833 -0.7063 -0.0360
  560MOL0     C73844   4.800   1.946  10.213 -0.5405  0.6565  0.8377
  560MOL0     C73845   4.927   1.988  10.160 -0.0549  0.6934  0.0097
  560MOL0     O73846   4.978   2.115  10.173 -0.0370 -0.5516 -1.2596
  560MOL0     C73847   4.886   2.220  10.188 -0.4136  1.0796  0.1767
  560MOL0     C73848   4.954   2.359  10.190 -0.2793  0.3726 -0.1970
  560MOL0     C73849   4.843   2.461  10.200 -0.9782  0.7520  0.3668
  560MOL0     C73850   4.885   2.614  10.186  0.3149  0.0892  0.6442
  560MOL0     C73851   4.770   2.698  10.188  0.7272 -0.0941  0.1258
  560MOL0     C73852   4.669   2.764  10.197  0.4278  0.0518 -0.3308
  560MOL0     C73853   5.014   1.900  10.090  1.1909  0.4633  0.1273
  560MOL0     C73854   4.977   1.764  10.089 -0.5764  0.0969  0.5722
  560MOL0     H73855   4.631   1.455  10.408 -1.2006  1.2931 -1.2657
  560MOL0     H73856   4.514   1.224  10.449  2.8006 -0.9223  1.3151
  560MOL0     H73857   4.517   0.885  10.142 -0.0454 -1.2735  0.2079
  560MOL0     H73858   4.430   1.022  10.109  1.0580 -2.9420 -2.0266
  560MOL0     H73859   4.341   0.827  10.327  0.3516  1.1048  2.2719
  560MOL0     H73860   4.268   0.832  10.168  1.6894  0.4592 -1.0928
  560MOL0     H73861   4.298   1.069  10.360  3.6588 -0.7417 -1.3673
  560MOL0     H73862   4.149   0.975  10.360  0.7378 -3.0462  0.0619
  560MOL0     H73863   4.244   1.116  10.102  0.7372 -0.0693 -0.9122
  560MOL0     H73864   4.090   1.039  10.129 -1.1063  2.9315 -0.0468
  560MOL0     H73865   4.200   1.262  10.289 -1.4048  0.6863 -1.1983
  560MOL0     H73866   4.043   1.176  10.326 -1.2049 -0.8575 -1.4702
  560MOL0     H73867   4.078   1.320  10.057 -0.2895  0.9846  1.1951
  560MOL0     H73868   4.036   1.408  10.206 -1.6565 -1.6107  3.7469
  560MOL0     H73869   3.901   1.168  10.095  1.8566  0.9810 -1.3373
  560MOL0     H73870   3.826   1.285  10.218 -1.0559 -1.4463 -0.2266
  560MOL0     H73871   3.841   1.454  10.043 -0.4533 -0.6730  3.1685
  560MOL0     H73872   3.708   1.334  10.019 -0.9058  0.5823 -0.8873
  560MOL0     H73873   3.809   1.114   9.861  0.9759 -2.2513 -4.7025
  560MOL0     H73874   3.994   1.173   9.519 -0.8667  0.4334 -0.4016
  560MOL0     H73875   3.859   1.080   9.588 -0.4876 -0.1138  1.4893
  560MOL0     H73876   4.033   0.930   9.566 -3.6017 -2.9604  3.1068
  560MOL0     H73877   4.004   0.947   9.729 -0.9118  0.8216  0.4008
  560MOL0     H73878   4.245   0.969   9.603  1.4592 -0.1019  1.4403
  560MOL0     H73879   4.220   1.137   9.662  0.2821 -0.5651  0.4239
  560MOL0     H73880   4.214   0.904   9.853 -1.1927  1.8332  2.7448
  560MOL0     H73881   4.193   1.067   9.883 -0.8662  0.6210 -1.5084
  560MOL0     H73882   4.305   1.256   9.908 -0.6462  2.9143  0.1510
  560MOL0     H73883   4.427   1.460   9.859 -1.0352 -0.8813  0.5728
  560MOL0     H73884   4.640   1.771   9.939  1.8086 -0.9998  0.8739
  560MOL0     H73885   4.740   1.999   9.906  1.0855  0.5801 -0.8272
  560MOL0     H73886   5.019   2.208   9.785  0.3774  0.3055 -0.3688
  560MOL0     H73887   4.915   2.112   9.878 -4.1076 -2.3926 -2.3513
  560MOL0     H73888   4.810   2.327   9.884 -5.2864 -0.6871 -0.0080
  560MOL0     H73889   4.725   2.273   9.755  0.0542 -2.3319 -0.7187
  560MOL0     H73890   4.942   2.365   9.600 -0.9249 -1.3342 -0.2246
  560MOL0     H73891   4.981   2.443   9.745 -2.1860  0.9960  2.8708
  560MOL0     H73892   4.729   2.500   9.585 -1.7546  0.7955  1.0762
  560MOL0     H73893   4.721   2.539   9.758  1.2910  0.6204  1.1708
  560MOL0     H73894   4.953   2.638   9.596 -0.7817 -1.9162 -1.1132
  560MOL0     H73895   4.891   2.681   9.759 -1.3290 -2.6443  1.1146
  560MOL0     H73896   4.700   2.789   9.647 -2.0211 -1.0045 -2.7809
  560MOL0     H73897   4.747   2.731   9.484 -2.7375 -1.3334  1.1019
  560MOL0     H73898   4.934   2.911   9.625  2.6306  3.1965 -2.4884
  560MOL0     H73899   4.945   2.857   9.464  1.6835 -0.3234  1.4996
  560MOL0     H73900   4.863   3.088   9.485 -1.9074  2.2031 -0.3770
  560MOL0     H73901   4.748   3.040   9.618 -3.6149  1.1456 -1.3954
  560MOL0     H73902   4.876   1.874   9.516 -1.5234 -0.2792  0.4811
  560MOL0     H73903   4.728   1.670   9.535 -0.8291 -1.8513  0.9184
  560MOL0     H73904   4.746   1.230   9.696  0.0806  0.0203  0.8339
  560MOL0     H73905   4.612   1.029   9.717 -0.3844  0.1022  1.0529
  560MOL0     H73906   4.635   1.098  10.061 -1.2919 -0.6289  1.5990
  560MOL0     H73907   4.700   1.350  10.013  1.9444  2.2638  1.6341
  560MOL0     H73908   4.696   1.769  10.284 -1.1706  1.8490 -0.3941
  560MOL0     H73909   4.728   2.011  10.263 -1.4217  1.5099 -1.3920
  560MOL0     H73910   4.842   2.200  10.286  4.0344  1.0710  2.4432
  560MOL0     H73911   4.814   2.204  10.108 -0.0029  1.7085 -0.3304
  560MOL0     H73912   5.024   2.370  10.274 -1.0439  2.3281  0.2441
  560MOL0     H73913   5.007   2.366  10.094  3.3357 -1.8641  1.4036
  560MOL0     H73914   4.783   2.430  10.286 -1.3730 -0.4741 -0.3202
  560MOL0     H73915   4.774   2.441  10.117 -1.4737  0.8281  0.7532
  560MOL0     H73916   4.959   2.635  10.265  1.7524 -0.1202 -0.5980
  560MOL0     H73917   4.926   2.636  10.087 -2.3887  0.9783 -0.3520
  560MOL0     H73918   4.579   2.819  10.213 -0.2297 -0.5303 -1.8380
  560MOL0     H73919   5.114   1.922  10.053  1.9759 -1.7451  0.7276
  560MOL0     H73920   5.041   1.696  10.034 -2.1416  0.3933 -1.7607
  561MOL0     O73921   7.153   2.242   9.556 -0.2292 -0.2596  0.1415
  561MOL0     C73922   7.088   2.174   9.637 -0.1758 -0.2772  0.5615
  561MOL0     O73923   7.024   2.063   9.600 -0.2362  0.6517  0.7618
  561MOL0     C73924   7.085   1.989   9.494 -0.5427  0.1924 -0.2815
  561MOL0     C73925   7.038   2.001   9.368  0.6181  0.6005 -0.3612
  561MOL0     C73926   7.103   1.943   9.261  0.1293 -0.0193 -0.9830
  561MOL0     C73927   7.231   1.885   9.276  0.1571  0.5199 -0.6063
  561MOL0     O73928   7.282   1.841   9.159  0.5680  0.3346 -1.1942
  561MOL0     C73929   7.397   1.759   9.189 -0.4398  0.7010  0.1022
  561MOL0     C73930   7.430   1.666   9.070  0.0973 -0.8667  0.0570
  561MOL0     C73931   7.450   1.749   8.945 -1.0739  0.5134  0.0726
  561MOL0     C73932   7.488   1.660   8.828 -0.1747  0.8643  0.5392
  561MOL0     C73933   7.420   1.716   8.699 -0.1789 -0.0626  0.6558
  561MOL0     C73934   7.413   1.589   8.599  0.8645 -1.1036  0.8059
  561MOL0     C73935   7.343   1.629   8.460 -0.2303  1.3392 -0.2086
  561MOL0     C73936   7.308   1.502   8.398 -0.8340 -0.0489  0.0563
  561MOL0     N73937   7.218   1.420   8.472  0.1483 -0.1838 -0.0700
  561MOL0     C73938   7.082   1.429   8.447 -0.8823  0.5875  0.1513
  561MOL0     C73939   7.033   1.327   8.515  0.6093  0.2442  0.2826
  561MOL0     C73940   6.887   1.304   8.528  0.6905  0.8082 -0.8943
  561MOL0     C73941   6.837   1.195   8.440 -0.0369 -0.1907  1.0459
  561MOL0     C73942   6.685   1.168   8.452 -1.5295  0.4935 -0.9323
  561MOL0     C73943   6.632   1.044   8.373  0.1409 -0.3604  0.6242
  561MOL0     O73944   6.683   0.914   8.409 -0.1768  0.1792  0.4100
  561MOL0     C73945   6.668   0.810   8.316  1.0538 -1.0575  0.1139
  561MOL0     C73946   6.600   0.814   8.188  0.6314 -0.7690 -0.4374
  561MOL0     C73947   6.589   0.696   8.114  0.1124 -0.5001  0.7115
  561MOL0     C73948   6.649   0.580   8.146 -0.2049  1.5529  0.4054
  561MOL0     C73949   6.644   0.465   8.052 -0.1671 -0.1554 -0.8138
  561MOL0     O73950   6.685   0.347   8.107  0.1261 -0.2418  0.1862
  561MOL0     C73951   6.638   0.242   8.043 -0.3543  0.5132  0.3087
  561MOL0     C73952   6.519   0.180   8.098  1.1952  0.8539 -0.2782
  561MOL0     C73953   6.467   0.062   8.042 -0.0527 -0.5085 -0.5588
  561MOL0     C73954   6.537   0.001   7.937  0.0087 -0.3649  1.0216
  561MOL0     O73955   6.495  -0.122   7.900  0.4340  0.1454  0.7560
  561MOL0     C73956   6.581  -0.233   7.936  0.1436  0.2647 -0.4161
  561MOL0     C73957   6.535  -0.366   7.875 -0.5110 -0.5584 -1.0626
  561MOL0     C73958   6.428  -0.455   7.952 -0.4407  0.3717  0.0822
  561MOL0     C73959   6.454  -0.452   8.103  1.2594 -1.2105 -1.2301
  561MOL0     C73960   6.364  -0.338   8.163 -0.7563  1.0033 -0.1995
  561MOL0     C73961   6.360  -0.342   8.309 -0.6885  0.9262  0.0128
  561MOL0     C73962   6.317  -0.211   8.365  0.9385  0.3049  0.0632
  561MOL0     C73963   6.226  -0.230   8.487 -0.4107  0.5260 -0.5359
  561MOL0    Cl73964   6.299  -0.338   8.622 -0.0240 -0.4312  0.6347
  561MOL0     C73965   6.643   0.069   7.882  0.2824 -0.3974  0.3215
  561MOL0     C73966   6.694   0.192   7.930 -0.2838  1.0700  0.7684
  561MOL0     O73967   6.601   0.486   7.944 -0.6104  0.2286  0.8600
  561MOL0     C73968   6.716   0.569   8.270  0.1551 -0.5745  0.1487
  561MOL0     C73969   6.729   0.686   8.351 -1.0154 -0.2729 -0.0908
  561MOL0     N73970   7.130   1.257   8.571 -0.7528  0.0107  0.5478
  561MOL0     N73971   7.246   1.306   8.530 -0.2872  0.5518 -0.4210
  561MOL0     C73972   7.282   1.875   9.407 -0.4259  0.5373 -0.2125
  561MOL0     C73973   7.203   1.913   9.519  0.0464 -0.1988 -0.2868
  561MOL0     C73974   7.055   2.226   9.769 -0.2819 -0.8008 -0.3734
  561MOL0     C73975   7.076   2.358   9.801  0.4129 -1.1552  0.3989
  561MOL0     C73976   7.040   2.408   9.933  0.3006 -0.1294  1.2361
  561MOL0     C73977   6.975   2.323  10.025  0.1012  0.3905  0.5940
  561MOL0     O73978   6.967   2.383  10.150  0.3113  0.1930  0.8957
  561MOL0     C73979   6.921   2.296  10.261  0.7669  0.1053  0.2410
  561MOL0     C73980   6.898   2.396  10.378  0.0744  0.2153  0.2987
  561MOL0     C73981   6.822   2.337  10.495 -0.6410 -0.4680 -0.2858
  561MOL0     C73982   6.670   2.365  10.487  0.4772  0.5605 -0.6267
  561MOL0     C73983   6.586   2.288  10.586  0.2535 -0.2823  0.4356
  561MOL0     C73984   6.547   2.208  10.666  0.0932 -0.7011  0.1844
  561MOL0     C73985   6.947   2.194   9.994 -0.5789  0.6986  1.2291
  561MOL0     C73986   6.979   2.145   9.863  0.4000  0.0395  0.4022
  561MOL0     H73987   6.950   2.062   9.351  1.2488  1.6096 -0.1270
  561MOL0     H73988   7.056   1.959   9.164  0.3999  0.4192 -1.0457
  561MOL0     H73989   7.367   1.681   9.260  1.5996 -0.4246 -0.1971
  561MOL0     H73990   7.483   1.816   9.222  0.4674 -0.4215 -0.2524
  561MOL0     H73991   7.339   1.606   9.076  1.7990 -3.6183 -0.2365
  561MOL0     H73992   7.524   1.612   9.083  0.9577  0.5434 -0.1120
  561MOL0     H73993   7.528   1.825   8.956  0.5705 -1.1402  0.3880
  561MOL0     H73994   7.358   1.806   8.927  0.1394  2.1074 -1.4394
  561MOL0     H73995   7.596   1.643   8.831 -0.4608 -1.2971  0.2840
  561MOL0     H73996   7.456   1.558   8.850 -0.7436  1.1641  1.1130
  561MOL0     H73997   7.487   1.789   8.653  0.9859 -1.6177 -0.2508
  561MOL0     H73998   7.321   1.758   8.711  0.8910  2.2795  1.8209
  561MOL0     H73999   7.352   1.511   8.645 -2.2801 -0.0548 -1.2585
  561MOL0     H74000   7.506   1.531   8.602 -1.6090 -5.4482  1.4821
  561MOL0     H74001   7.245   1.666   8.491 -1.2629 -0.4811 -1.1987
  561MOL0     H74002   7.395   1.699   8.393  1.8474  0.5540  0.4866
  561MOL0     H74003   7.400   1.445   8.379 -0.6496  1.3464 -4.5430
  561MOL0     H74004   7.262   1.531   8.303 -0.5095  2.1732  0.5324
  561MOL0     H74005   7.036   1.519   8.406  0.8244  0.4093 -2.3639
  561MOL0     H74006   6.826   1.394   8.516 -0.5533  0.6913  3.1562
  561MOL0     H74007   6.893   1.273   8.633 -1.1572  0.7427 -0.7709
  561MOL0     H74008   6.880   1.096   8.456 -1.4371 -0.7687  1.3675
  561MOL0     H74009   6.865   1.226   8.339  0.0549  0.4671  1.2652
  561MOL0     H74010   6.659   1.171   8.558 -0.1518  0.6393 -0.5832
  561MOL0     H74011   6.626   1.249   8.406  0.8181  1.0985 -3.1195
  561MOL0     H74012   6.641   1.071   8.267 -1.4459  1.5165  0.9087
  561MOL0     H74013   6.522   1.039   8.370  0.1242  0.3446 -0.2422
  561MOL0     H74014   6.559   0.910   8.159 -0.0874 -0.2330  2.1258
  561MOL0     H74015   6.527   0.701   8.025 -1.9082  0.5840  2.1012
  561MOL0     H74016   6.456   0.212   8.180  0.9239 -0.0733 -0.1147
  561MOL0     H74017   6.373   0.021   8.078 -2.2384  0.1632 -4.9083
  561MOL0     H74018   6.594  -0.230   8.045 -1.4714 -1.3630 -0.1282
  561MOL0     H74019   6.678  -0.207   7.893  0.4305 -0.7258 -0.3983
  561MOL0     H74020   6.629  -0.417   7.853  0.5253  1.9002 -2.8572
  561MOL0     H74021   6.508  -0.343   7.771  0.6913 -0.3006 -1.3314
  561MOL0     H74022   6.438  -0.558   7.915 -2.7598  0.1793 -0.1058
  561MOL0     H74023   6.324  -0.434   7.928 -1.9667 -4.3653  1.3393
  561MOL0     H74024   6.416  -0.543   8.151 -0.9484  1.2609  2.1506
  561MOL0     H74025   6.558  -0.437   8.133  1.3166 -3.5479  0.0132
  561MOL0     H74026   6.268  -0.353   8.113 -0.0538 -0.2614 -1.2523
  561MOL0     H74027   6.403  -0.243   8.126 -0.1415  1.1206  0.7103
  561MOL0     H74028   6.452  -0.371   8.360 -2.6339 -2.7831  1.8859
  561MOL0     H74029   6.297  -0.426   8.342  1.3926 -1.5811 -1.9604
  561MOL0     H74030   6.405  -0.151   8.389  0.8272 -0.4638  2.7657
  561MOL0     H74031   6.259  -0.147   8.299  1.0609  2.0481  1.5771
  561MOL0     H74032   6.134  -0.278   8.451  0.2531  0.6230 -2.4364
  561MOL0     H74033   6.188  -0.138   8.533  0.4350 -0.2616  1.9002
  561MOL0     H74034   6.696   0.024   7.798  2.6692 -1.3950  2.2375
  561MOL0     H74035   6.785   0.227   7.884 -0.8807  0.1633 -1.2150
  561MOL0     H74036   6.767   0.475   8.291  0.4808 -0.6133 -0.7560
  561MOL0     H74037   6.766   0.674   8.452 -0.4566  1.3262 -0.0724
  561MOL0     H74038   7.383   1.841   9.427 -1.0974 -1.3310  0.1473
  561MOL0     H74039   7.236   1.899   9.622  0.4304 -2.1237 -0.6382
  561MOL0     H74040   7.125   2.423   9.728 -0.6773 -0.9262 -0.1443
  561MOL0     H74041   7.061   2.514   9.945  2.5327 -0.1106 -1.7709
  561MOL0     H74042   6.997   2.223  10.288  1.1869 -1.4437 -4.2516
  561MOL0     H74043   6.829   2.249  10.225  0.3109  1.0465  0.1297
  561MOL0     H74044   6.997   2.418  10.420  0.7032  2.9293 -2.3106
  561MOL0     H74045   6.858   2.487  10.335  0.6531  1.1829  1.7136
  561MOL0     H74046   6.865   2.379  10.587  2.9223  1.5670 -2.6444
  561MOL0     H74047   6.832   2.228  10.497  1.3608 -0.5179 -3.9593
  561MOL0     H74048   6.639   2.470  10.488  0.8921  0.7094  1.3981
  561MOL0     H74049   6.637   2.328  10.390 -2.1863 -0.6656  0.6408
  561MOL0     H74050   6.515   2.153  10.752  0.7094  1.6917  2.0857
  561MOL0     H74051   6.902   2.127  10.066  0.7799  1.2807  2.6756
  561MOL0     H74052   6.958   2.045   9.826 -2.6605  1.0570 -0.9685
  562MOL0     O74053   1.762   6.773   8.920  0.4058  0.4078 -0.1472
  562MOL0     C74054   1.881   6.749   8.948  0.1582 -0.3853 -0.2160
  562MOL0     O74055   1.967   6.680   8.871 -0.5261  0.0418  0.1751
  562MOL0     C74056   1.925   6.615   8.754  0.2222  0.3942  0.2696
  562MOL0     C74057   1.892   6.476   8.753  0.1430  0.3291  0.5486
  562MOL0     C74058   1.850   6.410   8.635  0.1628 -0.1592  0.4593
  562MOL0     C74059   1.843   6.486   8.517 -0.4486  0.0883 -0.1663
  562MOL0     O74060   1.780   6.426   8.413  0.2265 -0.1368  0.5087
  562MOL0     C74061   1.648   6.466   8.360  0.4092  0.2310 -0.2923
  562MOL0     C74062   1.657   6.454   8.206  0.7818 -0.3717  0.6261
  562MOL0     C74063   1.516   6.513   8.166  0.2867 -0.4979 -0.8084
  562MOL0     C74064   1.502   6.547   8.017 -0.3585  1.2244  1.7167
  562MOL0     C74065   1.423   6.668   7.989  0.2769 -0.7985  0.2474
  562MOL0     C74066   1.275   6.649   8.013  0.1924 -0.1764  0.7601
  562MOL0     C74067   1.184   6.746   7.934 -0.7102 -1.3033 -0.1160
  562MOL0     C74068   1.204   6.729   7.780 -0.2809 -0.5697  0.3109
  562MOL0     N74069   1.090   6.783   7.706  0.5186  0.5650 -1.0239
  562MOL0     C74070   1.005   6.736   7.611 -0.9509  0.2931 -0.4376
  562MOL0     C74071   0.949   6.841   7.542 -0.2684 -0.0392 -0.2049
  562MOL0     C74072   0.841   6.817   7.436 -0.8103 -0.6084  0.5931
  562MOL0     C74073   0.731   6.921   7.407  0.0087 -0.5621  0.7152
  562MOL0     C74074   0.631   6.951   7.522 -0.2681  0.3307  0.3932
  562MOL0     C74075   0.506   6.854   7.520  0.3553 -0.8438  0.4976
  562MOL0     O74076   0.522   6.726   7.574 -0.2868 -0.1286 -0.3473
  562MOL0     C74077   0.411   6.642   7.576  1.0684 -0.8884  0.6784
  562MOL0     C74078   0.283   6.673   7.527 -0.4453  0.2399 -0.8877
  562MOL0     C74079   0.173   6.595   7.552  0.3779  0.7678  0.5668
  562MOL0     C74080   0.186   6.467   7.607 -0.6403 -0.6582  0.0331
  562MOL0     C74081   0.073   6.379   7.614  0.5184 -0.3653  0.3525
  562MOL0     O74082   0.101   6.244   7.622  0.3364 -0.2901  0.1356
  562MOL0     C74083  -0.002   6.161   7.621 -0.1934 -0.8094  0.8854
  562MOL0     C74084  -0.084   6.129   7.725  0.2675  0.0502 -0.7200
  562MOL0     C74085  -0.195   6.045   7.710  0.2687 -0.2985 -0.2984
  562MOL0     C74086  -0.226   5.987   7.586 -0.3550 -0.4633  0.2769
  562MOL0     O74087  -0.350   5.922   7.562 -0.0993  0.1746 -0.3930
  562MOL0     C74088  -0.434   5.905   7.683 -0.3626  0.4139 -0.1338
  562MOL0     C74089  -0.530   5.803   7.631 -0.4741  0.1442 -0.1571
  562MOL0     C74090  -0.600   5.828   7.493  0.2990 -0.7202 -0.0049
  562MOL0     C74091  -0.719   5.935   7.499 -1.0678  0.3018  0.7834
  562MOL0     C74092  -0.800   5.934   7.372  0.0910  0.7712  1.1135
  562MOL0     C74093  -0.731   6.003   7.254 -0.3890 -0.3577 -0.1322
  562MOL0     C74094  -0.805   5.983   7.115  0.4387  1.1117  0.4690
  562MOL0     C74095  -0.722   6.018   6.992  0.1372 -0.3037  0.4286
  562MOL0    Cl74096  -0.694   6.196   6.990  0.0011 -0.2549 -0.2785
  562MOL0     C74097  -0.135   6.008   7.478 -0.0524 -0.6462 -0.1885
  562MOL0     C74098  -0.024   6.095   7.499 -0.2701  0.5177  0.1845
  562MOL0     O74099  -0.037   6.432   7.622 -0.1449  0.2198 -0.4205
  562MOL0     C74100   0.317   6.433   7.651  0.8672 -1.0831 -0.7008
  562MOL0     C74101   0.429   6.519   7.636  0.8456  0.1514 -0.2813
  562MOL0     N74102   1.001   6.952   7.603  0.7752  0.3818  0.5922
  562MOL0     N74103   1.073   6.916   7.706 -0.0626 -0.0778 -0.0639
  562MOL0     C74104   1.877   6.623   8.519 -0.4176  0.7941  0.9297
  562MOL0     C74105   1.926   6.673   8.635 -0.5269  0.1225  0.0853
  562MOL0     C74106   1.941   6.797   9.071  0.4942  0.5248  0.7476
  562MOL0     C74107   2.065   6.750   9.107  0.2788  0.1680 -0.0184
  562MOL0     C74108   2.136   6.802   9.211  0.0842  0.9621 -0.3321
  562MOL0     C74109   2.085   6.913   9.279 -0.2796 -0.3977 -0.3955
  562MOL0     O74110   2.137   6.958   9.399  0.3983  0.4002 -0.7152
  562MOL0     C74111   2.126   7.092   9.422 -0.7175 -0.2548 -0.3620
  562MOL0     C74112   2.275   7.133   9.429  0.0620  0.1358 -1.3441
  562MOL0     C74113   2.348   7.088   9.561 -0.8785  0.6321 -0.5570
  562MOL0     C74114   2.498   7.091   9.544 -0.6586 -0.4185  0.2174
  562MOL0     C74115   2.551   7.217   9.605 -0.2971  0.0286  0.1121
  562MOL0     C74116   2.587   7.328   9.642  0.0643 -0.3696  0.5458
  562MOL0     C74117   1.953   6.955   9.255  0.2874  0.6928 -0.1837
  562MOL0     C74118   1.895   6.902   9.148 -1.2282  0.6186  0.8813
  562MOL0     H74119   1.900   6.435   8.853  1.7180 -1.7346 -0.3427
  562MOL0     H74120   1.817   6.309   8.654  3.2034 -0.9600  2.2754
  562MOL0     H74121   1.631   6.571   8.387 -5.3550 -0.8988  2.0452
  562MOL0     H74122   1.571   6.396   8.395  0.3768 -0.6238 -1.9732
  562MOL0     H74123   1.682   6.359   8.158 -0.6904 -2.4162  3.6144
  562MOL0     H74124   1.737   6.521   8.173  1.7337 -0.9492  1.6980
  562MOL0     H74125   1.486   6.599   8.225  2.1277 -0.5002  0.2244
  562MOL0     H74126   1.447   6.433   8.194  0.4445  0.2852  2.0428
  562MOL0     H74127   1.603   6.567   7.980 -0.3533  2.2759  2.2676
  562MOL0     H74128   1.457   6.470   7.954  0.1865  2.0334  0.2778
  562MOL0     H74129   1.441   6.697   7.885 -2.7780  1.0641  0.0927
  562MOL0     H74130   1.442   6.755   8.052 -3.0245  0.4051 -0.2123
  562MOL0     H74131   1.254   6.635   8.119  1.0593 -1.8561  0.7303
  562MOL0     H74132   1.244   6.551   7.976  1.4784 -1.1441  2.1628
  562MOL0     H74133   1.081   6.732   7.969 -1.0543  0.2552 -0.4560
  562MOL0     H74134   1.194   6.851   7.962  1.2935 -0.1227 -4.4228
  562MOL0     H74135   1.209   6.627   7.741  0.8987 -0.0096 -1.1155
  562MOL0     H74136   1.292   6.783   7.744 -1.7297  1.1782 -0.8146
  562MOL0     H74137   0.990   6.633   7.583  3.3141 -0.0330 -2.3995
  562MOL0     H74138   0.800   6.717   7.450 -0.7599 -0.5748  0.9954
  562MOL0     H74139   0.904   6.821   7.347 -1.4513  0.5782  0.1657
  562MOL0     H74140   0.686   6.861   7.328  3.5033 -2.0218 -0.3691
  562MOL0     H74141   0.771   7.013   7.364 -0.2718 -0.1574  1.3040
  562MOL0     H74142   0.677   6.940   7.621 -1.5169 -0.2437  0.9332
  562MOL0     H74143   0.604   7.056   7.507  3.0355  1.3266  0.7248
  562MOL0     H74144   0.470   6.854   7.417 -1.5570  1.5687  1.0622
  562MOL0     H74145   0.426   6.900   7.580 -2.5359 -1.2396 -2.7385
  562MOL0     H74146   0.247   6.759   7.473  0.5339  0.5423 -1.0772
  562MOL0     H74147   0.086   6.630   7.498  0.5346 -1.6588 -1.4236
  562MOL0     H74148  -0.075   6.193   7.812 -1.4570 -0.8196  0.1503
  562MOL0     H74149  -0.266   6.041   7.792  1.2154  1.7359  0.7080
  562MOL0     H74150  -0.477   6.004   7.700  4.0905  2.6274 -0.3534
  562MOL0     H74151  -0.380   5.861   7.767  0.9173  0.4355 -0.9220
  562MOL0     H74152  -0.599   5.795   7.715 -1.5246 -0.8198 -1.0722
  562MOL0     H74153  -0.474   5.709   7.629  0.6741  0.5503  4.1232
  562MOL0     H74154  -0.633   5.736   7.444 -1.4845  1.4040 -3.1118
  562MOL0     H74155  -0.540   5.870   7.411 -3.4239  3.8865 -0.8074
  562MOL0     H74156  -0.785   5.906   7.582 -1.6409 -2.5590 -0.5270
  562MOL0     H74157  -0.680   6.030   7.534  3.4471 -1.5687  1.5076
  562MOL0     H74158  -0.898   5.981   7.382 -0.4844 -0.5388  2.0561
  562MOL0     H74159  -0.812   5.827   7.350 -0.5784  0.9100  0.7804
  562MOL0     H74160  -0.628   5.967   7.254 -0.6215 -1.0581  0.3954
  562MOL0     H74161  -0.727   6.112   7.266  1.6837 -0.2358 -1.3926
  562MOL0     H74162  -0.838   5.879   7.118  0.2476  0.9959 -2.5578
  562MOL0     H74163  -0.898   6.041   7.121  0.2367  0.6089  2.8840
  562MOL0     H74164  -0.784   5.991   6.906 -1.3972  0.7065  1.1753
  562MOL0     H74165  -0.631   5.957   6.994 -1.4100 -2.9360 -1.7420
  562MOL0     H74166  -0.158   5.967   7.380  0.0339  1.0477 -0.9648
  562MOL0     H74167   0.040   6.124   7.416 -1.2933  1.7509 -0.2181
  562MOL0     H74168   0.328   6.347   7.716  1.0442  0.7474  1.8356
  562MOL0     H74169   0.524   6.493   7.682 -0.0761  0.2065  1.7555
  562MOL0     H74170   1.876   6.674   8.423 -1.4573 -1.1724 -0.1731
  562MOL0     H74171   1.970   6.772   8.635 -0.1277 -0.0385 -1.1762
  562MOL0     H74172   2.112   6.666   9.057 -3.2013 -1.1990 -1.2430
  562MOL0     H74173   2.222   6.745   9.246  0.2370  1.8257  0.7716
  562MOL0     H74174   2.074   7.105   9.518  1.0230 -0.3065  0.6328
  562MOL0     H74175   2.077   7.156   9.348  0.1712  1.2538  0.3162
  562MOL0     H74176   2.333   7.082   9.352 -0.4554 -4.0674  0.7801
  562MOL0     H74177   2.288   7.239   9.402  3.0718 -0.4173 -2.4206
  562MOL0     H74178   2.314   6.991   9.599 -0.3349  0.8764  0.5882
  562MOL0     H74179   2.320   7.166   9.632 -1.9516  0.0371 -0.3096
  562MOL0     H74180   2.545   7.004   9.589 -0.0925 -0.4263 -0.3753
  562MOL0     H74181   2.525   7.088   9.438  0.2076 -2.5289  0.4506
  562MOL0     H74182   2.622   7.425   9.671 -1.6262  0.2460  0.6442
  562MOL0     H74183   1.906   7.038   9.307  0.6944  0.2312  0.9482
  562MOL0     H74184   1.809   6.954   9.107 -2.3460 -0.6361  1.5628
  563MOL0     O74185   5.692  10.648  10.003  0.2863  0.7211  0.1901
  563MOL0     C74186   5.661  10.538  10.050 -0.1952 -0.2518 -0.3310
  563MOL0     O74187   5.577  10.447   9.999  0.3948  0.1584  0.1979
  563MOL0     C74188   5.495  10.469   9.891  0.2031 -1.2240 -0.3757
  563MOL0     C74189   5.386  10.381   9.874 -0.0701  0.2373 -0.1152
  563MOL0     C74190   5.310  10.380   9.757 -0.1850 -0.0934  0.4101
  563MOL0     C74191   5.327  10.466   9.660 -0.5216 -0.2185  0.4720
  563MOL0     O74192   5.255  10.473   9.536  0.0005 -0.1989 -0.9287
  563MOL0     C74193   5.224  10.607   9.492 -0.0837 -0.9247  0.0924
  563MOL0     C74194   5.113  10.598   9.390  0.0161  0.1941  0.2361
  563MOL0     C74195   5.044  10.739   9.368 -1.1054 -1.5197 -0.4447
  563MOL0     C74196   4.936  10.731   9.259  0.4731  0.0385 -0.1563
  563MOL0     C74197   4.975  10.695   9.113  0.0494 -0.1159 -0.3709
  563MOL0     C74198   4.892  10.779   9.006  0.1487  0.6437  0.1756
  563MOL0     C74199   4.884  10.705   8.872 -0.2493 -0.3034  0.2234
  563MOL0     C74200   4.777  10.785   8.792  0.7447 -0.1388 -1.2755
  563MOL0     N74201   4.832  10.913   8.754  0.3384 -0.1648 -0.2949
  563MOL0     C74202   4.919  10.931   8.645  0.2166 -0.2683  0.1403
  563MOL0     C74203   4.958  11.057   8.650  1.0591 -0.3171  0.6802
  563MOL0     C74204   5.030  11.118   8.531 -0.7390  0.5284  0.6295
  563MOL0     C74205   5.181  11.158   8.545 -0.3170 -0.1534  0.0944
  563MOL0     C74206   5.272  11.049   8.581  0.2560  0.7815 -0.0815
  563MOL0     C74207   5.409  11.102   8.624  0.4613 -0.4559 -0.4961
  563MOL0     O74208   5.506  10.997   8.647 -0.4936 -0.5341  0.6545
  563MOL0     C74209   5.491  10.927   8.764  0.2688 -0.3454 -0.9695
  563MOL0     C74210   5.394  10.942   8.867  0.1903 -0.0575 -0.1226
  563MOL0     C74211   5.403  10.885   8.994 -0.4636  0.7406  0.1563
  563MOL0     C74212   5.511  10.795   9.020  0.8136 -0.1906  0.2131
  563MOL0     C74213   5.538  10.733   9.152 -0.1846 -0.1641 -0.9001
  563MOL0     O74214   5.652  10.664   9.168 -0.8629  0.0747  0.5178
  563MOL0     C74215   5.698  10.602   9.282  0.1853  0.8492 -0.4771
  563MOL0     C74216   5.802  10.652   9.359  0.3992  0.4850  0.6433
  563MOL0     C74217   5.856  10.573   9.463 -0.4951  0.1433  1.3950
  563MOL0     C74218   5.807  10.435   9.474 -0.0563 -0.3022  0.3307
  563MOL0     O74219   5.864  10.331   9.542 -0.3264  0.3673 -0.5477
  563MOL0     C74220   5.868  10.331   9.693  0.5758 -0.0030 -0.1654
  563MOL0     C74221   5.744  10.250   9.753 -0.5184  0.7780  0.5214
  563MOL0     C74222   5.762  10.104   9.710 -0.9435 -0.0393 -0.1031
  563MOL0     C74223   5.905  10.055   9.749  1.1940 -0.3444  0.8049
  563MOL0     C74224   5.924   9.915   9.691 -1.0909 -0.6323 -1.5772
  563MOL0     C74225   6.060   9.874   9.764  0.4859 -0.3331 -0.4220
  563MOL0     C74226   6.138   9.777   9.673 -0.0461  1.0481  0.5205
  563MOL0     C74227   6.187   9.659   9.758 -0.7162  0.0644 -0.3151
  563MOL0    Cl74228   6.276   9.686   9.910 -0.6455 -0.6016  0.5792
  563MOL0     C74229   5.693  10.394   9.403 -0.2807  0.0051 -0.5946
  563MOL0     C74230   5.636  10.484   9.320 -0.2329  0.1882  0.2005
  563MOL0     O74231   5.457  10.773   9.240 -0.7570  0.0027 -0.2423
  563MOL0     C74232   5.606  10.769   8.913 -0.1860 -0.1525  0.2931
  563MOL0     C74233   5.602  10.834   8.788  0.0686  0.3364 -0.3528
  563MOL0     N74234   4.894  11.130   8.749 -0.6645  0.5638 -0.1837
  563MOL0     N74235   4.816  11.038   8.808  0.8494  1.0252 -0.2174
  563MOL0     C74236   5.421  10.568   9.684  0.3915  0.3096 -0.9467
  563MOL0     C74237   5.497  10.579   9.805  0.1302  0.7656  0.1247
  563MOL0     C74238   5.726  10.500  10.182 -0.5877 -0.3402 -0.4918
  563MOL0     C74239   5.677  10.392  10.253 -0.2062  0.3914 -0.3496
  563MOL0     C74240   5.713  10.360  10.387 -0.8687  0.0658  0.2867
  563MOL0     C74241   5.812  10.435  10.459 -0.5117 -0.4633 -0.4953
  563MOL0     O74242   5.862  10.388  10.579 -1.3760 -0.3093  0.3246
  563MOL0     C74243   5.950  10.476  10.642 -0.5854  1.2349  0.0490
  563MOL0     C74244   5.971  10.413  10.774  1.4524  0.2331 -0.2665
  563MOL0     C74245   6.027  10.273  10.778 -1.4680  0.0665 -0.3188
  563MOL0     C74246   5.917  10.183  10.814  0.4115  0.3563 -0.4353
  563MOL0     C74247   5.969  10.050  10.823  0.4843  0.5124 -0.8409
  563MOL0     C74248   6.021   9.934  10.796 -0.1489  0.5253  0.1537
  563MOL0     C74249   5.853  10.560  10.388 -0.9744  0.7205  0.2107
  563MOL0     C74250   5.811  10.585  10.258  0.2130  0.5727  0.0787
  563MOL0     H74251   5.378  10.301   9.947  2.6988  1.2416  1.4417
  563MOL0     H74252   5.241  10.298   9.740 -2.5629  2.2367 -2.2878
  563MOL0     H74253   5.307  10.648   9.433 -1.3975  1.1424 -0.4371
  563MOL0     H74254   5.192  10.674   9.572 -2.6184  1.5958 -2.7292
  563MOL0     H74255   5.028  10.538   9.425 -1.5677  2.7752  1.1497
  563MOL0     H74256   5.152  10.555   9.297 -0.8707 -0.5088  0.1671
  563MOL0     H74257   5.128  10.801   9.336 -1.9102  1.0996  1.9980
  563MOL0     H74258   5.000  10.777   9.461 -2.5482 -0.0176 -1.6638
  563MOL0     H74259   4.856  10.660   9.281 -0.7046  0.9589 -1.3089
  563MOL0     H74260   4.899  10.833   9.248  0.1154  0.1630  1.8397
  563MOL0     H74261   4.959  10.590   9.085 -0.5510  0.2578 -1.4880
  563MOL0     H74262   5.082  10.707   9.093 -0.0870  1.7729 -0.1146
  563MOL0     H74263   4.934  10.878   8.991  2.5341 -0.5834 -1.9212
  563MOL0     H74264   4.789  10.788   9.043 -0.5622  0.3029 -1.6136
  563MOL0     H74265   4.977  10.705   8.815 -0.6968 -2.5903 -0.5976
  563MOL0     H74266   4.857  10.600   8.887  3.1397 -1.0975  1.5758
  563MOL0     H74267   4.686  10.804   8.851  1.3628  3.2040 -1.1881
  563MOL0     H74268   4.757  10.737   8.696  1.5867 -0.1153 -1.4673
  563MOL0     H74269   4.947  10.853   8.576  0.4881  0.0938 -0.1645
  563MOL0     H74270   4.966  11.204   8.508 -2.3905 -0.1495  2.3780
  563MOL0     H74271   5.036  11.049   8.447  3.1990 -0.3443  1.4245
  563MOL0     H74272   5.196  11.238   8.619 -1.1571 -1.4447  1.7234
  563MOL0     H74273   5.207  11.200   8.447 -0.5338  0.3388  0.2398
  563MOL0     H74274   5.227  10.989   8.660 -0.3249  0.0634 -0.9264
  563MOL0     H74275   5.301  10.994   8.491  2.6297  1.8533 -0.0599
  563MOL0     H74276   5.401  11.165   8.714 -3.1990  1.1920 -1.7788
  563MOL0     H74277   5.445  11.181   8.557  2.4013  3.3511  4.3715
  563MOL0     H74278   5.302  10.995   8.845  1.2895  2.2114  0.4367
  563MOL0     H74279   5.320  10.890   9.064 -0.7876  0.6516 -0.2192
  563MOL0     H74280   5.849  10.742   9.320  0.9895  0.1104  0.4728
  563MOL0     H74281   5.951  10.604   9.505 -0.8999  1.9610  1.0368
  563MOL0     H74282   5.842  10.432   9.727 -2.7255 -1.0004  0.6468
  563MOL0     H74283   5.964  10.306   9.741  1.0174  1.1525 -0.4091
  563MOL0     H74284   5.650  10.286   9.712  0.2406  0.0464 -2.0595
  563MOL0     H74285   5.743  10.242   9.862 -0.1876 -0.4505  0.4544
  563MOL0     H74286   5.750  10.092   9.602  2.2280 -0.9628 -0.4681
  563MOL0     H74287   5.692  10.040   9.764 -0.1911  0.3652  1.4193
  563MOL0     H74288   5.977  10.113   9.690  0.2592 -2.4990 -2.7799
  563MOL0     H74289   5.924  10.069   9.856 -2.8719  0.7079  1.5496
  563MOL0     H74290   5.921   9.919   9.582 -3.7824  3.3450 -1.5781
  563MOL0     H74291   5.845   9.847   9.722 -0.0992 -0.4132  1.8570
  563MOL0     H74292   6.049   9.836   9.867 -1.2015 -3.0472 -1.4990
  563MOL0     H74293   6.128   9.959   9.773  1.9159 -1.5346  0.9736
  563MOL0     H74294   6.071   9.733   9.598 -0.1933  0.8153  0.7865
  563MOL0     H74295   6.224   9.830   9.630  0.6939  0.0754  0.7565
  563MOL0     H74296   6.240   9.592   9.690 -0.5326 -1.5018  1.2873
  563MOL0     H74297   6.103   9.598   9.792  0.7702 -1.3444  0.9783
  563MOL0     H74298   5.661  10.294   9.430  0.8873  0.1825  1.7220
  563MOL0     H74299   5.543  10.457   9.271  0.9995 -1.1013 -1.5624
  563MOL0     H74300   5.701  10.726   8.942 -0.5396 -0.4979  0.9463
  563MOL0     H74301   5.673  10.827   8.706  0.2550 -5.2982 -0.0987
  563MOL0     H74302   5.447  10.651   9.619 -0.8944  0.2090 -1.6269
  563MOL0     H74303   5.558  10.668   9.814  2.7370 -1.0361  1.3567
  563MOL0     H74304   5.604  10.323  10.212 -1.3477  1.3703  0.0015
  563MOL0     H74305   5.684  10.268  10.436  1.4244 -0.6994  0.3516
  563MOL0     H74306   5.907  10.574  10.664 -0.7915  2.6315 -5.1865
  563MOL0     H74307   6.045  10.481  10.588 -0.6296 -3.1320 -0.7799
  563MOL0     H74308   6.044  10.468  10.834  3.7952 -4.1052  1.2982
  563MOL0     H74309   5.880  10.418  10.834  0.6937 -1.2197 -1.2563
  563MOL0     H74310   6.114  10.272  10.845 -1.7048  1.3445  0.0411
  563MOL0     H74311   6.070  10.239  10.683 -0.2285  1.8527 -0.4589
  563MOL0     H74312   5.865  10.207  10.907  0.1974 -0.9768 -0.1807
  563MOL0     H74313   5.836  10.194  10.741 -1.5215  3.0661  1.9107
  563MOL0     H74314   6.080   9.854  10.757  1.3627  1.5157  0.2839
  563MOL0     H74315   5.926  10.631  10.426 -1.5534  1.5600 -0.2169
  563MOL0     H74316   5.839  10.679  10.210 -2.3615 -0.5063 -4.0417
  564MOL0     O74317   8.785   7.197   5.702  0.1884  0.1009 -0.3971
  564MOL0     C74318   8.753   7.171   5.590 -0.9146  0.1435 -0.5232
  564MOL0     O74319   8.774   7.255   5.488  0.0575  0.5650  0.0323
  564MOL0     C74320   8.856   7.365   5.512 -0.1618  0.2342  0.1674
  564MOL0     C74321   8.989   7.358   5.469  1.3805 -0.1979 -0.3893
  564MOL0     C74322   9.068   7.470   5.468  0.2938 -0.0772 -0.7642
  564MOL0     C74323   9.024   7.592   5.511 -0.9078 -0.1251 -0.8907
  564MOL0     O74324   9.123   7.690   5.508 -0.6988  0.0836 -0.3008
  564MOL0     C74325   9.073   7.824   5.525  0.9936  0.4218  0.4527
  564MOL0     C74326   9.039   7.859   5.665 -0.3356  0.4777 -0.4036
  564MOL0     C74327   9.163   7.859   5.758  0.9197 -0.1389  0.1736
  564MOL0     C74328   9.108   7.859   5.910 -1.3163 -0.7890  0.8110
  564MOL0     C74329   9.229   7.845   6.004  0.2386  0.2940 -0.6811
  564MOL0     C74330   9.189   7.837   6.153  0.3542  0.0441 -0.0184
  564MOL0     C74331   9.097   7.957   6.180 -0.4003  0.0817 -0.2739
  564MOL0     C74332   9.088   7.979   6.328  0.0167  0.5061 -0.3052
  564MOL0     N74333   8.972   8.055   6.368 -0.1251  0.1699 -0.0204
  564MOL0     C74334   8.843   8.056   6.329  0.7863  0.0236  0.5513
  564MOL0     C74335   8.781   8.156   6.386 -0.7152 -0.0171 -0.8278
  564MOL0     C74336   8.646   8.210   6.365 -0.1946  0.4192  0.0342
  564MOL0     C74337   8.624   8.266   6.228 -0.9615 -0.7389  0.6636
  564MOL0     C74338   8.470   8.288   6.202 -0.3178 -1.4215  0.0454
  564MOL0     C74339   8.452   8.335   6.059 -0.3581  0.3463 -0.5904
  564MOL0     O74340   8.323   8.367   6.016  0.3011 -0.1927 -0.2135
  564MOL0     C74341   8.238   8.262   5.994  0.1272 -0.4872  0.4658
  564MOL0     C74342   8.144   8.220   6.094 -0.6857 -0.4243 -0.0349
  564MOL0     C74343   8.061   8.106   6.074  0.5910 -0.6994  0.6869
  564MOL0     C74344   8.084   8.036   5.956 -0.4764 -0.4029  1.1621
  564MOL0     C74345   8.016   7.911   5.934 -0.9117 -0.0670 -0.2909
  564MOL0     O74346   7.900   7.882   6.007  0.5629  0.6615 -0.3625
  564MOL0     C74347   7.889   7.742   6.027  0.8016  0.2970 -1.3330
  564MOL0     C74348   7.767   7.677   6.020 -0.7553 -0.5857  0.6307
  564MOL0     C74349   7.755   7.539   6.061  0.0549 -0.6100 -0.6351
  564MOL0     C74350   7.871   7.468   6.086  0.4658  0.8298  0.2409
  564MOL0     O74351   7.872   7.330   6.107 -0.5067 -0.4679 -0.2673
  564MOL0     C74352   7.759   7.282   6.182 -0.9546  0.1756  0.1211
  564MOL0     C74353   7.797   7.146   6.247  0.9193 -0.5128  0.5911
  564MOL0     C74354   7.855   7.028   6.162  0.3050 -1.0552 -0.0772
  564MOL0     C74355   7.755   7.001   6.057 -0.3930  0.7698 -0.3928
  564MOL0     C74356   7.794   6.903   5.940  0.3124 -0.4081  0.8084
  564MOL0     C74357   7.692   6.909   5.821 -1.1979  0.5011 -0.9135
  564MOL0     C74358   7.550   6.863   5.861  0.0126  0.0657 -1.1490
  564MOL0     C74359   7.474   6.835   5.736  0.6228  0.1351  0.2875
  564MOL0    Cl74360   7.510   6.686   5.663 -0.1690 -0.1701  0.3548
  564MOL0     C74361   8.000   7.525   6.078 -0.5462 -0.5411 -0.5654
  564MOL0     C74362   8.001   7.665   6.064 -0.4454  0.7087  0.6128
  564MOL0     O74363   8.067   7.840   5.853 -0.0420  0.2940  0.8533
  564MOL0     C74364   8.171   8.084   5.859 -1.3591 -0.4885  0.5956
  564MOL0     C74365   8.253   8.189   5.878  0.8175  0.4986  0.4457
  564MOL0     N74366   8.874   8.227   6.460 -0.2993  0.6092 -0.5835
  564MOL0     N74367   8.982   8.158   6.453 -0.5600 -0.6025  0.8104
  564MOL0     C74368   8.891   7.603   5.554  0.2000  0.7278 -0.3585
  564MOL0     C74369   8.799   7.490   5.553 -0.6457  0.7978 -0.6586
  564MOL0     C74370   8.719   7.034   5.569 -0.2290 -0.0466 -0.0857
  564MOL0     C74371   8.693   6.948   5.676 -0.2165 -0.0157  0.5597
  564MOL0     C74372   8.667   6.809   5.665  1.3572  0.1837  0.0196
  564MOL0     C74373   8.618   6.769   5.538 -0.1663  0.3217 -0.1462
  564MOL0     O74374   8.574   6.641   5.521 -0.2286 -0.1835  0.4503
  564MOL0     C74375   8.461   6.614   5.437  0.5870 -0.2652 -0.3484
  564MOL0     C74376   8.331   6.696   5.474  0.4789  0.3680  0.1928
  564MOL0     C74377   8.246   6.626   5.583 -0.0930 -0.0185  0.1665
  564MOL0     C74378   8.326   6.626   5.716  0.6073 -0.1379 -0.1395
  564MOL0     C74379   8.335   6.757   5.784  0.5211 -0.7384  0.3158
  564MOL0     C74380   8.334   6.854   5.852  0.1462 -0.1104 -0.3896
  564MOL0     C74381   8.639   6.852   5.427  0.0533 -0.3941 -0.2802
  564MOL0     C74382   8.684   6.985   5.444  0.7041 -0.8120  0.1273
  564MOL0     H74383   9.033   7.259   5.459 -0.9433 -1.4304  0.6954
  564MOL0     H74384   9.166   7.448   5.427 -0.3976  0.9032 -3.0454
  564MOL0     H74385   8.981   7.835   5.467  1.5027  3.3883  0.0626
  564MOL0     H74386   9.156   7.887   5.492  1.9581 -0.9441  0.1899
  564MOL0     H74387   8.965   7.798   5.717  2.3422 -1.6103  1.2107
  564MOL0     H74388   8.999   7.960   5.672 -0.0911  0.4573  1.7650
  564MOL0     H74389   9.214   7.953   5.741 -2.1221  1.6804  0.2859
  564MOL0     H74390   9.238   7.783   5.735 -0.1637 -2.6905  3.9503
  564MOL0     H74391   9.061   7.954   5.937 -1.9277 -1.0976  0.8470
  564MOL0     H74392   9.038   7.776   5.924 -1.6786 -0.5048  0.6981
  564MOL0     H74393   9.312   7.914   5.990  0.2700 -0.2762 -4.0925
  564MOL0     H74394   9.273   7.746   5.988 -1.1472 -0.5991  0.6919
  564MOL0     H74395   9.279   7.842   6.214  0.2520 -1.8474  0.3350
  564MOL0     H74396   9.140   7.740   6.168  1.4055 -0.4579  0.2274
  564MOL0     H74397   9.154   8.041   6.139 -0.5188  1.1742  1.6947
  564MOL0     H74398   8.998   7.953   6.133 -1.1133 -2.3161  1.2285
  564MOL0     H74399   9.178   8.030   6.365 -0.9533  0.2355  2.6884
  564MOL0     H74400   9.084   7.883   6.380  2.0214 -0.1717 -1.2680
  564MOL0     H74401   8.794   7.990   6.257 -0.5696  1.5688 -0.0063
  564MOL0     H74402   8.621   8.271   6.452  3.7338  3.2004 -0.5357
  564MOL0     H74403   8.563   8.139   6.377 -1.6689  2.2763  1.5008
  564MOL0     H74404   8.649   8.180   6.165  0.6745 -1.0305  1.6417
  564MOL0     H74405   8.694   8.342   6.192 -3.1044 -0.0890 -2.4092
  564MOL0     H74406   8.403   8.205   6.226  2.0293 -3.4339 -0.0608
  564MOL0     H74407   8.450   8.370   6.272  0.1686 -1.7691  0.6050
  564MOL0     H74408   8.493   8.267   5.985 -2.0880  0.5104 -1.7619
  564MOL0     H74409   8.497   8.435   6.057 -1.5966  0.9110 -1.4847
  564MOL0     H74410   8.138   8.287   6.179  0.2491 -1.1128  0.5918
  564MOL0     H74411   7.993   8.066   6.149  0.2177 -1.8497 -0.2432
  564MOL0     H74412   7.673   7.729   6.006  0.0111  0.4579 -0.8525
  564MOL0     H74413   7.657   7.494   6.063 -0.3261  0.2148  0.0968
  564MOL0     H74414   7.680   7.269   6.107  1.5251 -2.2391 -2.3074
  564MOL0     H74415   7.740   7.350   6.265  2.0781  3.2147 -1.4263
  564MOL0     H74416   7.701   7.111   6.287  0.3545  0.3820  0.0250
  564MOL0     H74417   7.866   7.162   6.331 -2.2051  1.5231  2.9915
  564MOL0     H74418   7.869   6.941   6.226  0.4606 -0.5932  0.5220
  564MOL0     H74419   7.955   7.052   6.123  0.0895  2.3310  1.1435
  564MOL0     H74420   7.658   6.968   6.097 -0.5938 -0.9971 -2.1292
  564MOL0     H74421   7.741   7.099   6.010 -2.4921  2.1544  2.7277
  564MOL0     H74422   7.824   6.802   5.972  4.0364 -0.6824 -2.6954
  564MOL0     H74423   7.887   6.936   5.891 -1.0398 -1.1355 -2.5247
  564MOL0     H74424   7.742   6.846   5.746  0.4558  3.8330 -2.8558
  564MOL0     H74425   7.693   7.012   5.783 -0.2705  2.1765  3.0411
  564MOL0     H74426   7.543   6.777   5.928 -1.5902  1.5238  0.6818
  564MOL0     H74427   7.495   6.938   5.918 -1.6738  0.0893 -2.7137
  564MOL0     H74428   7.484   6.920   5.668 -0.2151 -1.4326 -1.9143
  564MOL0     H74429   7.366   6.837   5.755 -0.1206 -3.6343 -2.2850
  564MOL0     H74430   8.086   7.468   6.113 -1.4227  0.4675  3.7545
  564MOL0     H74431   8.094   7.706   6.102 -0.9929  1.3843  1.2591
  564MOL0     H74432   8.184   8.030   5.765  1.6641  2.8129 -1.1005
  564MOL0     H74433   8.325   8.229   5.808  2.4259 -1.5912  0.8039
  564MOL0     H74434   8.859   7.690   5.610  0.7521  1.6321 -1.4266
  564MOL0     H74435   8.695   7.483   5.582 -0.2519  1.5049  1.0526
  564MOL0     H74436   8.712   6.984   5.777  0.8908  0.6505  0.1347
  564MOL0     H74437   8.674   6.742   5.750 -1.4933  1.2917  1.2647
  564MOL0     H74438   8.451   6.505   5.432  2.6371 -0.4392 -1.9027
  564MOL0     H74439   8.488   6.655   5.339  1.7418  3.0248  1.2069
  564MOL0     H74440   8.349   6.800   5.503 -0.6719  0.9778 -1.1487
  564MOL0     H74441   8.264   6.710   5.388 -0.4449 -0.6493  0.7297
  564MOL0     H74442   8.217   6.525   5.553 -3.1764  0.9361 -0.3941
  564MOL0     H74443   8.151   6.677   5.597 -1.2651 -1.3105 -2.4414
  564MOL0     H74444   8.275   6.553   5.778  0.9282 -0.7010 -0.5278
  564MOL0     H74445   8.426   6.586   5.696 -0.1600 -2.0612 -0.2885
  564MOL0     H74446   8.340   6.935   5.922  0.5771  0.4731 -1.0866
  564MOL0     H74447   8.629   6.808   5.329  0.2129 -1.9676  0.3778
  564MOL0     H74448   8.707   7.064   5.373  1.9837 -0.7701  0.5506
  565MOL0     O74449   8.946  10.878   9.262 -0.9468  0.1595  1.3738
  565MOL0     C74450   9.044  10.885   9.334  0.3721  0.4291 -0.3025
  565MOL0     O74451   9.171  10.946   9.298  0.3573  0.0847  0.0979
  565MOL0     C74452   9.176  11.024   9.184 -0.5117  0.5534  0.0406
  565MOL0     C74453   9.132  10.995   9.058 -0.5696 -0.6588 -0.1321
  565MOL0     C74454   9.139  11.091   8.953  0.2521 -0.1269 -1.0600
  565MOL0     C74455   9.182  11.218   8.973 -0.9756 -0.2335 -1.0082
  565MOL0     O74456   9.171  11.320   8.882 -0.0021 -0.4001  1.1291
  565MOL0     C74457   9.048  11.320   8.798  0.4043  0.0598 -0.6980
  565MOL0     C74458   9.073  11.433   8.695 -0.5709 -0.0547 -1.2500
  565MOL0     C74459   9.127  11.571   8.764 -0.0034 -0.3866  0.6225
  565MOL0     C74460   9.154  11.675   8.649  0.1084  0.0218  0.0919
  565MOL0     C74461   9.183  11.810   8.707  0.6117 -0.4399 -0.4976
  565MOL0     C74462   9.230  11.910   8.609  0.3602 -1.3443  0.6194
  565MOL0     C74463   9.229  12.053   8.654  0.2247 -0.4308  0.0219
  565MOL0     C74464   9.331  12.086   8.760  0.2896 -0.0266 -0.0712
  565MOL0     N74465   9.444  12.146   8.693 -0.0816  0.0348 -0.8548
  565MOL0     C74466   9.533  12.097   8.605  0.5659  0.0428  0.3035
  565MOL0     C74467   9.610  12.192   8.557  0.1467 -0.2407  0.0083
  565MOL0     C74468   9.732  12.180   8.462 -0.5288 -0.8214 -0.0861
  565MOL0     C74469   9.693  12.120   8.326 -0.4684 -0.6241 -0.0976
  565MOL0     C74470   9.760  11.979   8.319 -0.8915  0.5408 -0.3395
  565MOL0     C74471   9.742  11.920   8.188 -0.4363  0.5767  0.4355
  565MOL0     O74472   9.604  11.923   8.144 -0.8846  0.4241  0.3640
  565MOL0     C74473   9.512  11.828   8.181  0.4198 -1.4350  0.4586
  565MOL0     C74474   9.541  11.693   8.158  0.2515 -0.2962  0.4001
  565MOL0     C74475   9.443  11.591   8.186 -1.0036 -1.0777  0.6399
  565MOL0     C74476   9.318  11.636   8.247  0.5026 -0.1149  0.7205
  565MOL0     C74477   9.204  11.547   8.261  0.5275 -0.0118  0.4416
  565MOL0     O74478   9.084  11.600   8.215  0.0843 -0.0846  0.3166
  565MOL0     C74479   8.963  11.538   8.219 -0.6092 -0.0811  0.2522
  565MOL0     C74480   8.881  11.562   8.104 -1.1410 -0.1687  0.2469
  565MOL0     C74481   8.771  11.487   8.083 -0.0835  0.6047  0.3793
  565MOL0     C74482   8.725  11.397   8.171  0.2646 -0.5571  0.6201
  565MOL0     O74483   8.608  11.332   8.160  0.6839 -0.1476  0.4832
  565MOL0     C74484   8.497  11.410   8.115 -0.1677 -0.6336 -0.5748
  565MOL0     C74485   8.388  11.438   8.227 -0.3238  0.4539 -0.7897
  565MOL0     C74486   8.447  11.473   8.373 -0.1007 -0.6656 -0.3153
  565MOL0     C74487   8.528  11.603   8.350 -0.6054 -0.5453  0.0661
  565MOL0     C74488   8.586  11.658   8.483  0.0198  1.4769 -0.2985
  565MOL0     C74489   8.693  11.770   8.465 -0.4381 -0.1735 -0.1057
  565MOL0     C74490   8.752  11.815   8.593 -0.1050  0.1470 -0.9614
  565MOL0     C74491   8.854  11.926   8.578  0.5891 -0.6107 -0.4149
  565MOL0    Cl74492   8.782  12.082   8.520 -0.3553  0.3572  0.3057
  565MOL0     C74493   8.801  11.375   8.288  0.5692  0.9015  0.2354
  565MOL0     C74494   8.922  11.445   8.313 -0.3932  0.1534 -0.0043
  565MOL0     O74495   9.218  11.439   8.315 -0.2703 -1.2224 -0.7857
  565MOL0     C74496   9.292  11.773   8.267  0.0334  0.2613 -0.4399
  565MOL0     C74497   9.386  11.870   8.221 -0.6348  0.3743  0.7628
  565MOL0     N74498   9.560  12.310   8.623 -0.1943 -0.5868 -0.0529
  565MOL0     N74499   9.464  12.279   8.701 -0.4298 -0.3024  0.3569
  565MOL0     C74500   9.249  11.246   9.097  0.5430  0.0076  0.9811
  565MOL0     C74501   9.244  11.154   9.206 -0.4274  0.3809  0.4175
  565MOL0     C74502   9.030  10.822   9.464 -0.2269 -0.1700  0.1500
  565MOL0     C74503   9.138  10.803   9.555 -0.2815  0.2169  1.0864
  565MOL0     C74504   9.128  10.735   9.678 -0.0730 -0.0664  0.1435
  565MOL0     C74505   9.006  10.675   9.704 -0.0907  0.2000 -0.7707
  565MOL0     O74506   8.984  10.608   9.826  0.0380  0.8033 -0.6903
  565MOL0     C74507   9.088  10.584   9.919 -0.1892 -0.5856  0.8774
  565MOL0     C74508   9.049  10.494  10.037  0.1373 -0.3864 -0.0228
  565MOL0     C74509   8.985  10.570  10.146 -0.1456  0.0592  0.5558
  565MOL0     C74510   8.874  10.675  10.115 -1.2348 -0.0031 -0.7392
  565MOL0     C74511   8.821  10.723  10.242 -0.3772  0.0489 -0.1810
  565MOL0     C74512   8.779  10.749  10.353 -0.0151  0.7441 -0.1558
  565MOL0     C74513   8.897  10.691   9.621 -1.2035 -0.0101  0.0707
  565MOL0     C74514   8.903  10.764   9.507 -1.1720 -0.5577 -0.4584
  565MOL0     H74515   9.092  10.897   9.034 -2.2425 -0.4768  1.6573
  565MOL0     H74516   9.112  11.051   8.856  0.3567  2.9085 -2.4456
  565MOL0     H74517   8.956  11.346   8.850 -2.8400 -2.3539 -4.6723
  565MOL0     H74518   9.039  11.222   8.751  1.6207 -1.1233  1.3679
  565MOL0     H74519   8.981  11.451   8.637 -0.7207  3.1155 -0.2297
  565MOL0     H74520   9.153  11.402   8.627  2.4571  5.8195 -0.9957
  565MOL0     H74521   9.223  11.552   8.812  1.3997  0.9178 -1.4834
  565MOL0     H74522   9.059  11.615   8.837  0.1294  1.2550 -0.1905
  565MOL0     H74523   9.241  11.642   8.592  0.1059  0.8354 -0.3946
  565MOL0     H74524   9.061  11.683   8.592 -1.2200 -3.9633  1.3403
  565MOL0     H74525   9.256  11.794   8.787  0.5345 -0.1531 -0.3676
  565MOL0     H74526   9.099  11.852   8.763  1.3257  1.4057 -0.7253
  565MOL0     H74527   9.164  11.900   8.522 -1.3644 -0.5523  1.7653
  565MOL0     H74528   9.330  11.883   8.573  2.1118  4.5820  0.0556
  565MOL0     H74529   9.249  12.104   8.559 -1.0346  0.7748  0.3737
  565MOL0     H74530   9.130  12.073   8.694  0.4806 -0.2853  0.6022
  565MOL0     H74531   9.358  11.989   8.802  1.0288 -0.1055 -0.7072
  565MOL0     H74532   9.289  12.141   8.844  2.1117  0.3750  0.6163
  565MOL0     H74533   9.525  11.997   8.563 -0.2315  0.6259 -1.0064
  565MOL0     H74534   9.814  12.123   8.508  1.6338  0.7880 -1.7409
  565MOL0     H74535   9.767  12.279   8.430 -2.2958 -0.3141 -0.5367
  565MOL0     H74536   9.731  12.187   8.248 -3.7781  1.4267 -0.1580
  565MOL0     H74537   9.586  12.101   8.312 -0.9037  1.2657  0.3524
  565MOL0     H74538   9.868  11.995   8.332 -0.8558  0.2107 -0.2247
  565MOL0     H74539   9.722  11.913   8.398 -0.9765 -1.1539 -1.7339
  565MOL0     H74540   9.786  11.819   8.190  2.2991  1.6879  2.6412
  565MOL0     H74541   9.798  11.982   8.118 -0.1758  0.5684  0.6375
  565MOL0     H74542   9.637  11.672   8.113  0.0330  0.1869 -0.3198
  565MOL0     H74543   9.450  11.485   8.164  0.6231 -0.8083 -0.3537
  565MOL0     H74544   8.905  11.633   8.025 -2.4064  0.7737  0.6612
  565MOL0     H74545   8.736  11.495   7.981  2.7614 -1.2290 -0.8807
  565MOL0     H74546   8.442  11.356   8.037  1.2333 -2.7453 -0.1719
  565MOL0     H74547   8.526  11.508   8.074  2.5121  0.8389  4.0734
  565MOL0     H74548   8.328  11.348   8.243 -2.2897  1.6285 -1.2959
  565MOL0     H74549   8.311  11.511   8.200  1.5807  2.0284 -2.3032
  565MOL0     H74550   8.512  11.394   8.412 -0.0340 -0.7323 -0.5657
  565MOL0     H74551   8.367  11.485   8.447 -0.6987 -1.7846 -0.7448
  565MOL0     H74552   8.591  11.594   8.261 -1.5689 -1.2031 -0.5673
  565MOL0     H74553   8.458  11.684   8.327 -0.3274 -0.2510  0.2493
  565MOL0     H74554   8.636  11.573   8.531  0.1533  1.2084 -0.9048
  565MOL0     H74555   8.500  11.689   8.543 -0.3264  0.3790 -0.2053
  565MOL0     H74556   8.628  11.844   8.417 -1.4867 -2.0283 -1.6863
  565MOL0     H74557   8.767  11.739   8.391 -0.2082  1.3869 -0.5783
  565MOL0     H74558   8.677  11.842   8.668  1.1159  1.5222 -0.1589
  565MOL0     H74559   8.804  11.730   8.637 -1.0555 -0.5751 -1.2009
  565MOL0     H74560   8.943  11.899   8.521  0.5457  0.8410 -1.2093
  565MOL0     H74561   8.882  11.958   8.679 -0.2547 -1.8424  0.2417
  565MOL0     H74562   8.770  11.302   8.363  1.2305 -2.3232 -2.4038
  565MOL0     H74563   8.983  11.427   8.401  1.0247 -0.2190 -1.0410
  565MOL0     H74564   9.199  11.807   8.311 -1.4339 -0.3118 -2.8952
  565MOL0     H74565   9.368  11.974   8.244 -0.1166  0.3949  1.0978
  565MOL0     H74566   9.299  11.341   9.110  0.5520  0.0917  0.3559
  565MOL0     H74567   9.286  11.164   9.306  0.8511  2.9488 -0.3121
  565MOL0     H74568   9.230  10.844   9.515 -0.4743  0.2176  0.6379
  565MOL0     H74569   9.207  10.728   9.753 -1.6666 -2.4795  1.7619
  565MOL0     H74570   9.138  10.677   9.947 -0.7808 -0.2578  0.8820
  565MOL0     H74571   9.179  10.547   9.871  0.6724  4.3977 -1.9619
  565MOL0     H74572   9.003  10.396  10.021  0.2475 -0.6209  1.0122
  565MOL0     H74573   9.143  10.460  10.081 -0.3048 -1.8731 -0.1724
  565MOL0     H74574   9.063  10.620  10.204  0.2785 -1.4226  1.3103
  565MOL0     H74575   8.950  10.489  10.210 -3.5765 -0.1553 -1.3604
  565MOL0     H74576   8.926  10.756  10.064  3.6099 -1.0507  1.8782
  565MOL0     H74577   8.802  10.624  10.050 -1.1210  0.1117 -0.9541
  565MOL0     H74578   8.723  10.761  10.443 -3.1171 -0.8197 -1.6937
  565MOL0     H74579   8.800  10.662   9.660 -1.8852 -1.8047 -2.6515
  565MOL0     H74580   8.809  10.778   9.453 -1.3042  0.6970  0.0603
  566MOL0     O74581   2.717   0.333   6.521  0.3348 -0.2356  0.2954
  566MOL0     C74582   2.668   0.441   6.524 -0.1016 -0.1647  0.4477
  566MOL0     O74583   2.682   0.536   6.618  0.2496 -0.6537  0.4990
  566MOL0     C74584   2.731   0.515   6.743 -0.2350  0.2589 -0.0132
  566MOL0     C74585   2.676   0.413   6.826 -0.7183  0.7061 -1.0128
  566MOL0     C74586   2.720   0.409   6.962 -0.3593 -0.6378 -0.2722
  566MOL0     C74587   2.834   0.490   7.006 -0.1173  0.0848  0.1337
  566MOL0     O74588   2.899   0.481   7.123  0.4910 -0.1050 -0.6151
  566MOL0     C74589   2.819   0.478   7.240 -0.2615  0.9304  0.7143
  566MOL0     C74590   2.886   0.550   7.358  0.4165  0.1118  0.2330
  566MOL0     C74591   2.813   0.544   7.494 -0.9037  0.7544  0.4508
  566MOL0     C74592   2.821   0.402   7.568 -0.9945 -0.2002 -0.2854
  566MOL0     C74593   2.708   0.396   7.661 -0.1759  0.1988  0.5461
  566MOL0     C74594   2.718   0.276   7.755  0.8948 -0.0526 -0.4488
  566MOL0     C74595   2.629   0.157   7.716 -0.0314  0.6744  0.8511
  566MOL0     C74596   2.626   0.035   7.807  0.4605  0.7498 -0.3093
  566MOL0     N74597   2.539  -0.070   7.751 -0.1900 -0.7848 -0.3927
  566MOL0     C74598   2.404  -0.054   7.741  0.0382  1.6698 -0.9423
  566MOL0     C74599   2.373  -0.163   7.653 -0.0044 -0.5969 -0.4806
  566MOL0     C74600   2.243  -0.179   7.587 -0.2960 -0.3251  0.9722
  566MOL0     C74601   2.136  -0.238   7.684  0.2463 -0.4112  0.7674
  566MOL0     C74602   2.151  -0.389   7.719 -0.6534 -1.1590  0.4558
  566MOL0     C74603   2.091  -0.488   7.615 -0.6864  0.1737 -0.6313
  566MOL0     O74604   2.187  -0.597   7.616  0.3644 -0.2804  0.1825
  566MOL0     C74605   2.165  -0.706   7.533  0.3769  0.0641  0.1698
  566MOL0     C74606   2.279  -0.772   7.482  0.6996  0.3371 -0.8034
  566MOL0     C74607   2.264  -0.899   7.416  0.0875  0.8621  0.7529
  566MOL0     C74608   2.137  -0.944   7.380  0.3456  0.4450  0.0422
  566MOL0     C74609   2.119  -1.065   7.304  0.3180  0.2977  0.7184
  566MOL0     O74610   2.183  -1.178   7.341 -0.6296 -0.4138  0.3281
  566MOL0     C74611   2.165  -1.299   7.273 -0.0685  0.5633  0.7582
  566MOL0     C74612   2.036  -1.336   7.221  0.1770 -0.6854  0.3016
  566MOL0     C74613   2.021  -1.472   7.182 -0.5365  0.1727  1.3168
  566MOL0     C74614   2.130  -1.557   7.177 -0.1004 -0.0228  0.0353
  566MOL0     O74615   2.124  -1.678   7.113 -0.2413  0.0258 -0.0767
  566MOL0     C74616   1.996  -1.738   7.082  0.3112 -0.8108  0.4208
  566MOL0     C74617   1.916  -1.784   7.209  0.4673 -0.0809 -1.1705
  566MOL0     C74618   1.948  -1.920   7.253  0.4491 -0.5934 -0.0987
  566MOL0     C74619   2.090  -1.930   7.313 -0.5011  0.0359  0.5185
  566MOL0     C74620   2.124  -1.838   7.434  0.3138 -0.4250 -0.2851
  566MOL0     C74621   2.273  -1.841   7.444 -0.8988  0.6964 -0.1277
  566MOL0     C74622   2.323  -1.740   7.553  0.1531  0.9682 -0.4291
  566MOL0     C74623   2.289  -1.778   7.699  0.4238 -0.9129  0.3364
  566MOL0    Cl74624   2.366  -1.912   7.768  0.0284  0.3073  0.0017
  566MOL0     C74625   2.246  -1.517   7.236  1.0921 -0.7431 -0.2670
  566MOL0     C74626   2.267  -1.389   7.283 -0.2564 -0.2470 -0.3715
  566MOL0     O74627   2.049  -1.046   7.205 -0.2576 -1.0408 -0.1574
  566MOL0     C74628   2.026  -0.866   7.417  0.7503 -0.1478  0.4482
  566MOL0     C74629   2.039  -0.751   7.493 -0.9024  0.0943  0.4178
  566MOL0     N74630   2.488  -0.231   7.631  0.5083  0.2222 -0.5087
  566MOL0     N74631   2.588  -0.173   7.688 -0.4204  0.0297 -0.5208
  566MOL0     C74632   2.890   0.581   6.916  0.0559 -0.2464 -0.6812
  566MOL0     C74633   2.829   0.605   6.788 -0.5586  0.6846 -0.0342
  566MOL0     C74634   2.616   0.502   6.395 -0.0051 -0.5281  0.2314
  566MOL0     C74635   2.550   0.630   6.388  1.1058  0.6518  0.1624
  566MOL0     C74636   2.488   0.681   6.279 -1.0432 -0.2344 -0.1504
  566MOL0     C74637   2.504   0.615   6.157 -0.1765  0.9783 -0.4100
  566MOL0     O74638   2.446   0.675   6.049 -0.0134 -0.9409 -0.1016
  566MOL0     C74639   2.443   0.616   5.916 -0.8254  0.3563  0.6875
  566MOL0     C74640   2.357   0.688   5.820 -0.8624 -0.4246 -0.5441
  566MOL0     C74641   2.208   0.676   5.849 -0.8906  0.2390 -1.3352
  566MOL0     C74642   2.110   0.753   5.750 -0.6033 -0.0863  1.1074
  566MOL0     C74643   2.123   0.703   5.610 -0.4192  0.3099 -0.6247
  566MOL0     C74644   2.160   0.659   5.507 -0.8878 -0.1283 -0.0506
  566MOL0     C74645   2.571   0.490   6.151 -0.1948 -0.2171 -0.1566
  566MOL0     C74646   2.624   0.440   6.271 -0.0426  0.8073 -0.0567
  566MOL0     H74647   2.606   0.338   6.791 -0.8139  0.5105 -0.4245
  566MOL0     H74648   2.683   0.327   7.023  4.8151 -1.2872  2.5645
  566MOL0     H74649   2.795   0.373   7.261  1.7740  0.1456 -0.6296
  566MOL0     H74650   2.727   0.528   7.207  0.4379  2.7889  1.4371
  566MOL0     H74651   2.895   0.655   7.329  0.8304  0.3032  1.0098
  566MOL0     H74652   2.987   0.506   7.364  1.2075  1.7541 -0.5002
  566MOL0     H74653   2.708   0.571   7.478 -0.8644  0.0858 -1.2347
  566MOL0     H74654   2.852   0.613   7.569  0.0706 -1.4138  2.0489
  566MOL0     H74655   2.822   0.313   7.505  1.1109 -0.6094  0.2422
  566MOL0     H74656   2.921   0.398   7.613 -0.5015  1.2907 -1.1354
  566MOL0     H74657   2.615   0.414   7.607  1.2312  1.2144 -1.6625
  566MOL0     H74658   2.716   0.481   7.731 -2.1358  0.6883  0.2478
  566MOL0     H74659   2.680   0.307   7.853  1.8131  1.2742 -0.4981
  566MOL0     H74660   2.821   0.244   7.772  0.2349 -2.5223 -0.5657
  566MOL0     H74661   2.528   0.190   7.690 -0.5267  1.2728  3.3359
  566MOL0     H74662   2.662   0.115   7.620 -3.2766  1.1607 -0.6252
  566MOL0     H74663   2.603   0.051   7.913  1.1665  0.5257 -0.1139
  566MOL0     H74664   2.716  -0.027   7.803 -1.0055 -1.5567 -5.0003
  566MOL0     H74665   2.337   0.021   7.782 -1.0645 -0.3782  1.2787
  566MOL0     H74666   2.253  -0.242   7.498  0.8971 -1.5919  1.9510
  566MOL0     H74667   2.207  -0.082   7.552  4.5264  1.1934 -0.5825
  566MOL0     H74668   2.033  -0.218   7.653  0.9138  4.8301  1.0219
  566MOL0     H74669   2.137  -0.184   7.779  0.4990  1.3347 -0.1892
  566MOL0     H74670   2.259  -0.400   7.729 -0.3623  0.6593 -0.3140
  566MOL0     H74671   2.090  -0.413   7.807  1.3721 -3.8653  1.2795
  566MOL0     H74672   2.097  -0.450   7.513  0.7287  2.0934  0.1014
  566MOL0     H74673   1.990  -0.515   7.646 -0.3661  0.3417  0.6261
  566MOL0     H74674   2.375  -0.728   7.510  2.0130 -0.4926 -3.6208
  566MOL0     H74675   2.357  -0.948   7.388 -2.1145 -2.6338 -1.1432
  566MOL0     H74676   1.949  -1.272   7.205 -0.7981 -2.3677 -1.5307
  566MOL0     H74677   1.926  -1.503   7.137 -0.0694  0.5909 -0.0006
  566MOL0     H74678   2.018  -1.821   7.014 -2.0671 -0.9285 -0.2988
  566MOL0     H74679   1.945  -1.672   7.011  1.1997 -0.8092 -0.2345
  566MOL0     H74680   1.807  -1.782   7.200 -0.0462 -3.0831  2.2636
  566MOL0     H74681   1.934  -1.711   7.288 -0.2962  1.7549 -2.5939
  566MOL0     H74682   1.927  -1.988   7.170  0.8619  1.6722 -2.2005
  566MOL0     H74683   1.882  -1.947   7.336 -0.1022 -1.2442 -0.7345
  566MOL0     H74684   2.102  -2.036   7.340  0.6478  0.0930  0.2500
  566MOL0     H74685   2.153  -1.906   7.228  0.4288 -1.3833  0.7711
  566MOL0     H74686   2.068  -1.863   7.524 -0.9227  0.6901 -0.7219
  566MOL0     H74687   2.092  -1.737   7.409 -2.9318 -0.7128  2.0675
  566MOL0     H74688   2.313  -1.820   7.345  0.6845 -1.7800 -0.1148
  566MOL0     H74689   2.310  -1.943   7.464  0.9582  1.1755 -0.9485
  566MOL0     H74690   2.432  -1.735   7.555  0.3193 -0.9528  3.0765
  566MOL0     H74691   2.271  -1.644   7.538 -1.1961  0.5883  1.4578
  566MOL0     H74692   2.180  -1.779   7.707  0.5447 -0.2868  4.4057
  566MOL0     H74693   2.318  -1.691   7.759 -3.9325 -0.6600  2.4738
  566MOL0     H74694   2.323  -1.593   7.246  1.7968  0.1597  1.7006
  566MOL0     H74695   2.357  -1.359   7.337 -0.9714 -1.0525  1.3442
  566MOL0     H74696   1.921  -0.895   7.409 -0.2334  3.2395 -1.0829
  566MOL0     H74697   1.949  -0.710   7.536 -3.4471 -3.3803 -1.1656
  566MOL0     H74698   2.974   0.644   6.942 -1.7002  0.9491  2.6134
  566MOL0     H74699   2.862   0.682   6.718  1.0531  1.8609  1.9071
  566MOL0     H74700   2.538   0.690   6.477  1.1501  1.0861 -0.1208
  566MOL0     H74701   2.455   0.784   6.289 -0.7579 -0.3078  2.2168
  566MOL0     H74702   2.403   0.515   5.930  0.6963 -0.3684  0.0789
  566MOL0     H74703   2.545   0.618   5.876 -0.1627  1.5460  2.2825
  566MOL0     H74704   2.373   0.796   5.810 -0.7386 -0.2426  1.3264
  566MOL0     H74705   2.372   0.632   5.727 -3.6362 -2.7572  0.2606
  566MOL0     H74706   2.185   0.716   5.948  0.8057  1.3179 -1.3242
  566MOL0     H74707   2.182   0.570   5.857 -0.7257  0.2647 -0.3908
  566MOL0     H74708   2.011   0.730   5.790 -0.3278 -3.3020  0.2139
  566MOL0     H74709   2.129   0.860   5.752  0.9088 -0.3224  0.6089
  566MOL0     H74710   2.207   0.610   5.425  0.0051 -0.6477  0.7474
  566MOL0     H74711   2.590   0.428   6.064 -1.4375  1.4308 -1.6650
  566MOL0     H74712   2.681   0.348   6.274  3.4214  2.6145 -2.5623
  567MOL0     O74713   1.132   4.341   8.011  0.2738  0.6113 -0.0961
  567MOL0     C74714   1.192   4.405   8.099 -0.3287  0.0790 -0.4621
  567MOL0     O74715   1.306   4.358   8.153 -0.1621 -0.3657  0.6625
  567MOL0     C74716   1.324   4.225   8.135  0.0412 -0.0524 -0.0890
  567MOL0     C74717   1.402   4.172   8.029  0.7789 -0.2128  0.1671
  567MOL0     C74718   1.416   4.036   8.016  0.2202  0.2308  0.0401
  567MOL0     C74719   1.348   3.948   8.103 -0.8172  0.0318 -0.5058
  567MOL0     O74720   1.370   3.810   8.100 -1.8588 -0.5324  0.7857
  567MOL0     C74721   1.282   3.724   8.155  0.3418  0.5623  0.3581
  567MOL0     C74722   1.314   3.580   8.104  1.0682 -0.4785 -0.6053
  567MOL0     C74723   1.347   3.563   7.957 -0.3413  1.4879 -1.1379
  567MOL0     C74724   1.252   3.612   7.847 -0.2591 -0.1440 -0.6897
  567MOL0     C74725   1.301   3.579   7.712 -0.3342 -0.7766 -0.2893
  567MOL0     C74726   1.205   3.647   7.607  0.0176  0.1904  0.6722
  567MOL0     C74727   1.251   3.625   7.452 -0.5321  0.5217 -0.5325
  567MOL0     C74728   1.158   3.673   7.340 -0.4651  0.2723 -0.2552
  567MOL0     N74729   1.017   3.611   7.347 -0.4447 -0.3157 -0.1005
  567MOL0     C74730   0.905   3.670   7.398  0.2784  0.5061  0.6618
  567MOL0     C74731   0.803   3.582   7.379  0.2810  0.8611 -0.1919
  567MOL0     C74732   0.655   3.612   7.406  0.0550  0.5933 -0.2302
  567MOL0     C74733   0.558   3.509   7.357  0.1550 -0.4463 -0.7003
  567MOL0     C74734   0.411   3.539   7.391  0.0135 -1.0444 -0.3820
  567MOL0     C74735   0.389   3.563   7.542 -0.0101  0.6605  0.4076
  567MOL0     O74736   0.423   3.448   7.623 -1.3069 -0.2734  0.8642
  567MOL0     C74737   0.433   3.475   7.759  0.4162  0.1587 -0.2283
  567MOL0     C74738   0.485   3.367   7.824  0.6996  0.1187  1.2006
  567MOL0     C74739   0.507   3.372   7.966  0.8816  0.1106 -0.7389
  567MOL0     C74740   0.468   3.474   8.043 -0.1618 -0.0951  2.0209
  567MOL0     C74741   0.507   3.471   8.180  0.4425 -0.4863 -0.6669
  567MOL0     O74742   0.532   3.341   8.237  0.3102  0.4692 -0.2739
  567MOL0     C74743   0.592   3.337   8.357  0.1179  0.3943 -0.6849
  567MOL0     C74744   0.696   3.419   8.403  0.1724 -1.2118 -1.2823
  567MOL0     C74745   0.741   3.398   8.533 -0.1306 -0.7982 -0.4526
  567MOL0     C74746   0.691   3.303   8.618  1.0326 -0.7770  0.3848
  567MOL0     O74747   0.745   3.299   8.744 -0.0848 -0.3039 -0.0370
  567MOL0     C74748   0.783   3.165   8.792  0.2802 -0.1527 -0.2062
  567MOL0     C74749   0.842   3.165   8.932  0.3260  0.8031 -0.0338
  567MOL0     C74750   0.890   3.035   8.978 -0.2668 -0.9151 -0.2955
  567MOL0     C74751   0.926   3.039   9.128 -0.4648 -1.8481 -0.5696
  567MOL0     C74752   0.951   2.906   9.205 -0.6966  0.0475  0.2998
  567MOL0     C74753   0.952   2.911   9.356  0.3793  0.9891  0.1578
  567MOL0     C74754   1.035   2.804   9.420 -0.3432  0.0676 -0.2563
  567MOL0     C74755   0.995   2.660   9.378  0.2402  0.2575 -0.4427
  567MOL0    Cl74756   0.831   2.615   9.428 -0.3245 -0.0360 -0.2626
  567MOL0     C74757   0.587   3.230   8.569 -0.3621  0.1842  0.0649
  567MOL0     C74758   0.533   3.248   8.444  0.4378 -0.1214  0.3941
  567MOL0     O74759   0.512   3.578   8.242 -0.0697  0.3995  1.2387
  567MOL0     C74760   0.420   3.592   7.973  0.6063  0.4461 -0.2941
  567MOL0     C74761   0.390   3.583   7.833 -0.4608 -0.1060  0.3047
  567MOL0     N74762   0.859   3.461   7.340  0.3289  0.2805  0.0942
  567MOL0     N74763   0.984   3.486   7.315 -0.5275 -0.1910  0.8638
  567MOL0     C74764   1.262   4.002   8.190 -0.2905  0.1954  0.2512
  567MOL0     C74765   1.262   4.140   8.218 -0.6227 -0.0668 -0.2503
  567MOL0     C74766   1.169   4.548   8.107  0.4549  0.4184 -1.1459
  567MOL0     C74767   1.199   4.615   8.227  0.0685  0.3280 -0.2931
  567MOL0     C74768   1.174   4.757   8.238 -0.3897  0.1929 -0.6549
  567MOL0     C74769   1.134   4.831   8.125  0.4285 -0.3972 -0.4431
  567MOL0     O74770   1.121   4.966   8.100  0.8315 -0.2374 -0.1077
  567MOL0     C74771   1.132   5.056   8.211 -0.3381 -1.1737  0.3301
  567MOL0     C74772   1.108   5.201   8.166 -0.0855 -0.3108 -0.8517
  567MOL0     C74773   0.972   5.225   8.115  0.4771  0.4324 -0.1268
  567MOL0     C74774   0.946   5.336   8.022  0.3700 -0.8134 -1.0467
  567MOL0     C74775   1.011   5.458   8.092 -0.3693  0.0819  0.7915
  567MOL0     C74776   1.070   5.549   8.146 -0.3496  0.6484  0.0171
  567MOL0     C74777   1.100   4.760   8.011 -0.5082  0.2229  0.0721
  567MOL0     C74778   1.111   4.623   8.011  0.8596  0.4095  0.7916
  567MOL0     H74779   1.453   4.246   7.968 -2.4505  1.3931 -0.7981
  567MOL0     H74780   1.473   3.991   7.935 -2.2340 -1.3941 -0.9060
  567MOL0     H74781   1.180   3.747   8.120 -1.8337  0.6198  5.8237
  567MOL0     H74782   1.266   3.717   8.263  0.5748 -0.4968  0.3397
  567MOL0     H74783   1.229   3.513   8.119  1.9251 -1.5741 -0.5873
  567MOL0     H74784   1.402   3.550   8.161  1.9940 -3.5377 -3.3835
  567MOL0     H74785   1.362   3.456   7.941  0.6119  1.3874  0.2428
  567MOL0     H74786   1.445   3.611   7.943  0.2082  0.4372 -0.9941
  567MOL0     H74787   1.152   3.566   7.850 -1.8724  3.1490  0.0999
  567MOL0     H74788   1.230   3.719   7.849 -1.1955 -0.3261 -0.6864
  567MOL0     H74789   1.298   3.473   7.685  3.6997 -0.8389 -1.1795
  567MOL0     H74790   1.407   3.599   7.691  0.2365 -2.5610  0.6278
  567MOL0     H74791   1.205   3.753   7.631  1.3332  0.1651  0.8428
  567MOL0     H74792   1.104   3.604   7.615 -0.2287  0.6606  0.1255
  567MOL0     H74793   1.336   3.692   7.439  0.1928  0.4771  3.0199
  567MOL0     H74794   1.286   3.525   7.429 -0.9454 -0.1396  1.4812
  567MOL0     H74795   1.206   3.627   7.254  2.7387 -3.5587  3.1461
  567MOL0     H74796   1.160   3.782   7.345  2.6099  0.3811 -1.9058
  567MOL0     H74797   0.904   3.771   7.437  2.1300  0.1945  1.6442
  567MOL0     H74798   0.625   3.698   7.347  0.1645  0.2624 -0.7757
  567MOL0     H74799   0.646   3.641   7.511  0.3441 -0.6999  0.1696
  567MOL0     H74800   0.568   3.414   7.410  1.9159  0.1237  0.0540
  567MOL0     H74801   0.556   3.472   7.254 -6.1190 -1.2492 -0.6701
  567MOL0     H74802   0.366   3.618   7.331 -0.2330  0.6981  1.9484
  567MOL0     H74803   0.349   3.452   7.370 -2.6575  0.9883 -1.3870
  567MOL0     H74804   0.283   3.582   7.563  0.0515  0.3814  0.9819
  567MOL0     H74805   0.452   3.645   7.578  1.1905 -1.1311  2.6308
  567MOL0     H74806   0.509   3.274   7.773 -0.4530 -0.5672  1.8572
  567MOL0     H74807   0.543   3.282   8.014 -2.0146 -0.3749  0.6792
  567MOL0     H74808   0.737   3.504   8.350 -1.2086  1.3617  1.4608
  567MOL0     H74809   0.807   3.474   8.572 -0.0304 -0.8975 -0.4262
  567MOL0     H74810   0.870   3.130   8.737  0.9130  1.6431 -0.4150
  567MOL0     H74811   0.694   3.103   8.779 -0.1282  0.1122  1.1009
  567MOL0     H74812   0.775   3.206   9.008 -1.0914 -0.8456 -0.3261
  567MOL0     H74813   0.923   3.236   8.946 -0.1843  1.2464  0.7234
  567MOL0     H74814   0.976   3.010   8.914 -1.2783  0.4295 -2.2593
  567MOL0     H74815   0.810   2.961   8.968  1.0810 -2.6565  1.0560
  567MOL0     H74816   1.021   3.092   9.127  0.3389 -3.2349  0.1514
  567MOL0     H74817   0.855   3.105   9.178 -1.8704 -2.3696 -1.7789
  567MOL0     H74818   1.048   2.863   9.175  0.0807  1.6779  0.3942
  567MOL0     H74819   0.871   2.835   9.181 -0.8616  1.3352 -3.6785
  567MOL0     H74820   0.854   2.921   9.405  0.5422  1.4315  0.4002
  567MOL0     H74821   1.000   3.005   9.383 -0.6391  0.6215  3.7902
  567MOL0     H74822   1.141   2.803   9.390 -0.7058 -0.0226 -1.6325
  567MOL0     H74823   1.020   2.808   9.528 -3.2863  0.2420 -0.6079
  567MOL0     H74824   1.058   2.597   9.442 -0.1169  1.1404  0.8220
  567MOL0     H74825   1.006   2.637   9.272  2.1017 -2.3264  0.2057
  567MOL0     H74826   0.548   3.159   8.641 -3.6405 -1.2057 -2.7760
  567MOL0     H74827   0.442   3.195   8.418  0.4229 -0.7076  1.5851
  567MOL0     H74828   0.397   3.684   8.026  1.5778  1.6538 -1.8770
  567MOL0     H74829   0.338   3.670   7.794 -0.0234  1.1017  2.2640
  567MOL0     H74830   1.207   3.941   8.261  1.1658  1.0996  2.2591
  567MOL0     H74831   1.199   4.175   8.300  0.3052  0.2732  0.3294
  567MOL0     H74832   1.230   4.565   8.318  2.4141  0.6858 -0.8277
  567MOL0     H74833   1.189   4.806   8.334 -1.0462 -0.1639 -0.3638
  567MOL0     H74834   1.239   5.058   8.237 -0.5044  2.6669  1.3490
  567MOL0     H74835   1.063   5.034   8.293 -2.4000 -2.5660 -1.6813
  567MOL0     H74836   1.117   5.254   8.261 -1.4660  0.0241 -0.8906
  567MOL0     H74837   1.180   5.226   8.086  0.4899  0.9780  0.0465
  567MOL0     H74838   0.899   5.238   8.196 -0.3705 -0.5971 -0.7006
  567MOL0     H74839   0.944   5.135   8.059 -0.2109  1.8985 -2.2725
  567MOL0     H74840   0.996   5.314   7.927  1.9351 -2.6796  0.1325
  567MOL0     H74841   0.842   5.360   7.998  0.5114  0.2850 -0.6553
  567MOL0     H74842   1.104   5.622   8.216 -0.1439  1.7002 -1.1546
  567MOL0     H74843   1.078   4.809   7.917 -3.8678 -0.4697  0.3943
  567MOL0     H74844   1.084   4.583   7.914 -1.1536  2.1376  0.5603
  568MOL0     O74845   9.172  10.717   6.453  0.4026  0.6528 -0.5546
  568MOL0     C74846   9.053  10.694   6.491 -0.1772 -0.1991  0.3614
  568MOL0     O74847   8.942  10.655   6.410  0.7467 -0.2407 -0.1186
  568MOL0     C74848   8.961  10.594   6.286 -0.7090  0.6218  0.2135
  568MOL0     C74849   9.059  10.485   6.274  0.1726  0.0058  0.6216
  568MOL0     C74850   9.092  10.430   6.144 -0.0724 -0.0722  0.8757
  568MOL0     C74851   9.025  10.478   6.035 -0.1458 -1.2533  0.1913
  568MOL0     O74852   9.042  10.443   5.903 -0.2599  0.2963  0.2522
  568MOL0     C74853   9.112  10.322   5.870  1.5758 -0.0841 -0.7812
  568MOL0     C74854   9.088  10.288   5.720 -0.3049 -0.0218 -1.0577
  568MOL0     C74855   9.122  10.401   5.621 -0.3417 -1.3494  0.5221
  568MOL0     C74856   9.077  10.367   5.476  0.1065 -0.5923 -0.5622
  568MOL0     C74857   9.157  10.258   5.398  0.0835 -0.2757  0.0747
  568MOL0     C74858   9.100  10.220   5.252 -0.3868 -0.9011  0.2335
  568MOL0     C74859   9.189  10.275   5.138 -0.1945  0.5821 -0.4383
  568MOL0     C74860   9.316  10.202   5.118  0.4947 -0.4382  0.3350
  568MOL0     N74861   9.400  10.286   5.039 -0.8776 -0.9015 -0.0208
  568MOL0     C74862   9.381  10.347   4.912  0.6646 -0.0121 -0.5852
  568MOL0     C74863   9.489  10.425   4.897  1.1147  0.1815 -0.0805
  568MOL0     C74864   9.518  10.509   4.772 -1.0581 -0.7532  0.2522
  568MOL0     C74865   9.487  10.658   4.789  0.4698  0.3401  0.1290
  568MOL0     C74866   9.536  10.725   4.665 -0.0516 -0.3796  1.9977
  568MOL0     C74867   9.439  10.709   4.540 -0.0656  0.6288 -0.3155
  568MOL0     O74868   9.450  10.822   4.446  0.4004 -0.8908 -0.2880
  568MOL0     C74869   9.572  10.857   4.392 -0.3608 -0.6645  0.1476
  568MOL0     C74870   9.590  10.997   4.390  0.2520  0.5969  0.2874
  568MOL0     C74871   9.714  11.053   4.357  0.0910  0.1079 -0.5120
  568MOL0     C74872   9.815  10.971   4.309  0.7555 -0.1807  0.0413
  568MOL0     C74873   9.926  11.030   4.235  0.0774  0.0704  0.6894
  568MOL0     O74874   9.950  11.163   4.245 -0.0414  0.1273  0.0576
  568MOL0     C74875  10.060  11.208   4.180 -0.0162 -0.3558  0.3757
  568MOL0     C74876  10.063  11.210   4.039  0.4324 -0.3368 -0.7644
  568MOL0     C74877  10.180  11.233   3.976  0.0720 -0.4651  0.0606
  568MOL0     C74878  10.298  11.264   4.036  0.5267 -1.3099  0.3513
  568MOL0     O74879  10.408  11.275   3.946 -0.4988 -0.4338  0.1714
  568MOL0     C74880  10.537  11.278   4.006 -0.0006  0.4283 -0.0630
  568MOL0     C74881  10.630  11.251   3.889  0.0686 -0.4941  0.5319
  568MOL0     C74882  10.726  11.363   3.854  0.0171 -0.1503  0.0324
  568MOL0     C74883  10.776  11.333   3.712  0.3186 -0.1252 -1.1315
  568MOL0     C74884  10.699  11.412   3.610  0.2552  0.6575 -1.2147
  568MOL0     C74885  10.748  11.403   3.471 -0.6999  1.2982 -0.6476
  568MOL0     C74886  10.887  11.457   3.447  0.0065  0.3924  0.2288
  568MOL0     C74887  10.922  11.501   3.306  0.2899  0.3853 -0.9263
  568MOL0    Cl74888  11.073  11.621   3.325  0.2311 -0.0108  0.3542
  568MOL0     C74889  10.292  11.269   4.176  0.5720  0.3375  0.2645
  568MOL0     C74890  10.173  11.254   4.249 -0.4734  0.8756  0.4393
  568MOL0     O74891   9.996  10.951   4.167  0.4951  0.1058  0.0369
  568MOL0     C74892   9.808  10.830   4.322  1.2843  0.4554  0.1734
  568MOL0     C74893   9.684  10.768   4.365 -0.9315 -0.1112  0.2067
  568MOL0     N74894   9.564  10.414   5.007 -0.9043 -0.0587  0.6151
  568MOL0     N74895   9.513  10.336   5.090 -0.5355  0.4605 -0.6587
  568MOL0     C74896   8.933  10.583   6.044 -0.4115  0.0452  0.0233
  568MOL0     C74897   8.904  10.647   6.170 -1.1101  0.6645 -0.8041
  568MOL0     C74898   9.039  10.710   6.632  0.5224 -0.2658  0.1209
  568MOL0     C74899   8.914  10.696   6.693  1.7398 -0.1413 -0.3333
  568MOL0     C74900   8.899  10.696   6.829 -0.2725 -0.5918 -0.4664
  568MOL0     C74901   9.009  10.705   6.917  0.5765  0.9421  0.9761
  568MOL0     O74902   9.014  10.717   7.053 -0.2535  0.5845 -0.2146
  568MOL0     C74903   8.901  10.742   7.132  0.8036 -0.5019 -0.1086
  568MOL0     C74904   8.943  10.784   7.267 -0.3060  0.4138 -1.0150
  568MOL0     C74905   8.824  10.771   7.375  0.6028  0.5078  0.1268
  568MOL0     C74906   8.709  10.877   7.379  0.5855 -0.0390 -0.0188
  568MOL0     C74907   8.750  11.011   7.352  0.0980  0.1331 -0.3371
  568MOL0     C74908   8.785  11.123   7.334  1.0590 -0.1433  0.2547
  568MOL0     C74909   9.133  10.712   6.857 -0.8301  0.0135  0.1326
  568MOL0     C74910   9.151  10.707   6.719  0.3944 -0.2328 -0.1540
  568MOL0     H74911   9.110  10.440   6.358  0.7409 -0.4104  0.0663
  568MOL0     H74912   9.179  10.366   6.130  0.0762  0.2028  0.5601
  568MOL0     H74913   9.084  10.235   5.930  2.4337  1.2693  1.7361
  568MOL0     H74914   9.221  10.325   5.885  1.6051 -1.6245 -0.4603
  568MOL0     H74915   8.982  10.264   5.711 -1.5083  4.0824 -0.2475
  568MOL0     H74916   9.136  10.194   5.692 -1.7772 -0.8285 -0.9928
  568MOL0     H74917   9.223  10.442   5.628 -0.8863 -0.2632  3.5393
  568MOL0     H74918   9.068  10.492   5.648  2.8392  0.9157 -0.1983
  568MOL0     H74919   8.971  10.340   5.479 -0.4194  1.3732  0.0929
  568MOL0     H74920   9.081  10.462   5.423 -1.2306  0.2447  0.7663
  568MOL0     H74921   9.165  10.165   5.455 -1.9197 -0.3152  0.3688
  568MOL0     H74922   9.257  10.302   5.390 -0.2401  0.4048 -0.3107
  568MOL0     H74923   9.002  10.268   5.258 -0.2191 -0.7047  4.8473
  568MOL0     H74924   9.087  10.113   5.236  0.8789 -1.3173  1.7694
  568MOL0     H74925   9.133  10.269   5.044 -0.3957  2.0272 -0.4417
  568MOL0     H74926   9.203  10.382   5.156 -2.5444  0.6676  1.4520
  568MOL0     H74927   9.309  10.104   5.071 -1.6304  0.0656 -0.4987
  568MOL0     H74928   9.353  10.190   5.220 -0.0931  2.6951  1.0265
  568MOL0     H74929   9.295  10.337   4.847  1.1227 -1.3971 -1.0265
  568MOL0     H74930   9.465  10.464   4.687 -0.9476  0.5719 -0.5392
  568MOL0     H74931   9.623  10.497   4.744 -1.4045  1.4536 -2.4194
  568MOL0     H74932   9.543  10.681   4.880 -1.1950 -1.7077  1.7872
  568MOL0     H74933   9.387  10.682   4.827  0.3441 -2.0626  1.5456
  568MOL0     H74934   9.538  10.832   4.691  1.9577  0.5266 -1.1976
  568MOL0     H74935   9.639  10.705   4.632 -0.7080  3.1501 -3.4798
  568MOL0     H74936   9.336  10.707   4.579 -0.5583 -1.5354 -1.5249
  568MOL0     H74937   9.455  10.608   4.501  1.3843 -0.1211  2.0273
  568MOL0     H74938   9.514  11.071   4.412  1.0537  1.8761 -1.0326
  568MOL0     H74939   9.726  11.159   4.337  2.1062 -0.4554 -2.7661
  568MOL0     H74940   9.971  11.179   3.989 -0.0299 -4.3726  2.0530
  568MOL0     H74941  10.185  11.227   3.868 -0.6448  1.1035 -0.0848
  568MOL0     H74942  10.547  11.192   4.073  0.5229  0.6838  0.1962
  568MOL0     H74943  10.566  11.368   4.060  1.6551 -0.7351  1.0969
  568MOL0     H74944  10.567  11.220   3.805 -0.4925  0.2326  0.6684
  568MOL0     H74945  10.690  11.164   3.918 -1.4693 -2.0176 -0.5909
  568MOL0     H74946  10.808  11.353   3.926 -0.5956 -0.6174  0.6705
  568MOL0     H74947  10.672  11.457   3.866 -1.3691 -0.5616 -2.3683
  568MOL0     H74948  10.883  11.358   3.714  0.3859 -0.3098  1.8671
  568MOL0     H74949  10.776  11.225   3.696  0.0700 -0.0534 -1.6424
  568MOL0     H74950  10.710  11.517   3.639  0.1377 -0.1979  2.4219
  568MOL0     H74951  10.593  11.394   3.597  0.3178  0.7770 -1.9272
  568MOL0     H74952  10.686  11.459   3.400  0.7852 -0.9998 -4.0785
  568MOL0     H74953  10.747  11.304   3.423 -1.2394  2.2414 -2.7390
  568MOL0     H74954  10.895  11.547   3.510 -0.5888  0.2564  0.5117
  568MOL0     H74955  10.963  11.389   3.484  1.5027  1.9565  0.1737
  568MOL0     H74956  10.841  11.553   3.255 -1.3259 -1.4908 -0.4016
  568MOL0     H74957  10.949  11.412   3.247  3.6845 -0.3565  1.4556
  568MOL0     H74958  10.381  11.288   4.236 -0.5562 -0.6832  2.4122
  568MOL0     H74959  10.167  11.244   4.357  0.8065 -0.8720  0.3907
  568MOL0     H74960   9.892  10.767   4.294  1.3602  1.2493 -1.4464
  568MOL0     H74961   9.684  10.661   4.381 -1.2213 -0.3333 -1.1547
  568MOL0     H74962   8.895  10.623   5.951 -0.6720  3.2703  1.3974
  568MOL0     H74963   8.848  10.739   6.183 -1.1063  0.4738  0.7355
  568MOL0     H74964   8.823  10.670   6.642  0.9970 -2.2437  1.8753
  568MOL0     H74965   8.800  10.678   6.871  0.0592 -1.2384  0.0405
  568MOL0     H74966   8.855  10.645   7.150  0.1662 -0.1610  0.1504
  568MOL0     H74967   8.832  10.814   7.085  2.2274 -1.3834 -3.9257
  568MOL0     H74968   9.024  10.716   7.296  2.7723  4.4261  0.8886
  568MOL0     H74969   8.975  10.889   7.260 -2.2451  1.1771  0.6034
  568MOL0     H74970   8.876  10.782   7.471 -0.1363  2.5207  0.3542
  568MOL0     H74971   8.783  10.671   7.359 -0.4812  1.1113 -1.0794
  568MOL0     H74972   8.630  10.852   7.307 -1.0887  1.9609  0.9929
  568MOL0     H74973   8.664  10.864   7.477  0.6617  0.4758  0.0877
  568MOL0     H74974   8.803  11.223   7.300 -1.9915  0.3677 -0.0848
  568MOL0     H74975   9.218  10.716   6.924  1.3851  0.3566 -2.5503
  568MOL0     H74976   9.248  10.733   6.677  0.0154  1.0464 -0.2658
  569MOL0     O74977   2.197   9.992   3.639  0.7865 -0.6178 -0.2541
  569MOL0     C74978   2.232   9.970   3.526 -0.5896  0.3891  0.4683
  569MOL0     O74979   2.348  10.020   3.472  0.4258 -0.7358  0.7818
  569MOL0     C74980   2.410  10.118   3.543 -0.9193  0.0705 -0.3914
  569MOL0     C74981   2.346  10.244   3.561 -0.6163  0.3139  0.4806
  569MOL0     C74982   2.418  10.345   3.626  0.7299  0.1530  0.0562
  569MOL0     C74983   2.546  10.330   3.678  0.8390  0.0112 -0.8448
  569MOL0     O74984   2.589  10.433   3.765 -0.0511  0.4508 -0.2375
  569MOL0     C74985   2.629  10.377   3.898  0.6171  0.7374  0.0081
  569MOL0     C74986   2.609  10.492   3.995 -0.4271 -0.5156  0.2787
  569MOL0     C74987   2.468  10.501   4.062 -0.1650  0.5733 -0.7048
  569MOL0     C74988   2.442  10.627   4.148 -0.1631 -0.3649 -0.4049
  569MOL0     C74989   2.308  10.632   4.219  0.6282 -0.3885 -0.1598
  569MOL0     C74990   2.175  10.617   4.127  0.5235 -0.1281 -0.4380
  569MOL0     C74991   2.165  10.724   4.014 -0.1308 -0.8557 -0.2020
  569MOL0     C74992   2.044  10.688   3.922  0.1308 -0.5600  0.9334
  569MOL0     N74993   1.914  10.679   3.990  0.9336  0.6576  0.9088
  569MOL0     C74994   1.861  10.773   4.075 -1.0166 -0.2298 -0.7910
  569MOL0     C74995   1.743  10.724   4.115 -0.0203  0.2254 -0.0232
  569MOL0     C74996   1.655  10.801   4.206  0.2227  0.0177 -0.2076
  569MOL0     C74997   1.510  10.752   4.208 -0.6311  0.5382  1.1767
  569MOL0     C74998   1.463  10.754   4.357  0.6816 -0.3682 -0.1579
  569MOL0     C74999   1.311  10.724   4.354  0.2214  0.2036 -0.6240
  569MOL0     O75000   1.222  10.828   4.307  0.0906 -0.7722 -1.0315
  569MOL0     C75001   1.194  10.939   4.382  0.7722  0.1288  0.2430
  569MOL0     C75002   1.133  11.051   4.323 -0.0632 -0.1355 -0.1811
  569MOL0     C75003   1.110  11.177   4.386 -0.2598  0.2475  0.3863
  569MOL0     C75004   1.126  11.182   4.527 -0.9537 -0.1753  0.2930
  569MOL0     C75005   1.088  11.305   4.605 -0.3128  0.1968 -0.2474
  569MOL0     O75006   1.119  11.297   4.727  0.0874  0.1444 -0.8960
  569MOL0     C75007   1.108  11.420   4.792 -1.0486 -0.1983 -0.3146
  569MOL0     C75008   1.223  11.496   4.815  0.9592  0.9413 -0.0874
  569MOL0     C75009   1.197  11.609   4.888 -1.0953 -0.7522 -0.5176
  569MOL0     C75010   1.070  11.644   4.944 -0.2948 -0.2881 -0.1772
  569MOL0     O75011   1.068  11.755   5.030  0.3516 -0.5562  0.1159
  569MOL0     C75012   0.987  11.863   4.972  0.4159  0.2050 -0.4291
  569MOL0     C75013   1.037  11.917   4.836  0.9621 -0.4389 -0.2181
  569MOL0     C75014   0.952  12.034   4.781  0.4299 -0.2995 -0.1171
  569MOL0     C75015   0.805  11.992   4.758 -1.2007 -0.7325 -0.3045
  569MOL0     C75016   0.742  12.058   4.638 -0.2626 -0.3038  0.2090
  569MOL0     C75017   0.590  12.033   4.644  0.4384 -0.0836 -0.0261
  569MOL0     C75018   0.525  12.114   4.530 -0.5412 -0.0144 -0.0263
  569MOL0     C75019   0.566  12.075   4.382 -0.1132  0.3308 -0.2672
  569MOL0    Cl75020   0.472  11.924   4.335  0.2829  0.4639 -0.0727
  569MOL0     C75021   0.954  11.568   4.911 -0.1233  0.5603 -0.3141
  569MOL0     C75022   0.982  11.452   4.846  0.2845 -0.0821  0.7006
  569MOL0     O75023   1.031  11.396   4.551 -0.3007  0.9390  0.4905
  569MOL0     C75024   1.177  11.066   4.583  0.9054 -1.5677  0.4239
  569MOL0     C75025   1.215  10.950   4.522 -0.4369  0.5606 -0.3249
  569MOL0     N75026   1.725  10.596   4.059 -0.0204  0.4910 -0.0220
  569MOL0     N75027   1.829  10.569   3.985  0.4869 -0.4549 -0.3377
  569MOL0     C75028   2.606  10.205   3.658 -0.2858  0.4366  0.2321
  569MOL0     C75029   2.544  10.111   3.574  0.5622  0.2332 -0.5198
  569MOL0     C75030   2.178   9.850   3.457 -0.1075  0.9183 -0.0043
  569MOL0     C75031   2.050   9.792   3.497  0.2517 -0.1913 -0.7106
  569MOL0     C75032   2.016   9.668   3.446  0.6781  0.4136  0.1486
  569MOL0     C75033   2.090   9.607   3.339 -0.3677 -0.3160  0.1950
  569MOL0     O75034   2.033   9.496   3.281  0.6312 -0.3974 -0.1991
  569MOL0     C75035   2.119   9.395   3.213 -0.3463  1.1349 -0.4451
  569MOL0     C75036   2.136   9.277   3.308  0.1583  0.4315  1.1273
  569MOL0     C75037   2.149   9.149   3.224 -0.3702  0.6205 -0.7519
  569MOL0     C75038   2.302   9.146   3.171 -0.0947 -0.3730  0.4588
  569MOL0     C75039   2.407   9.104   3.260 -1.3503  0.1701 -0.5285
  569MOL0     C75040   2.477   9.068   3.351 -0.1398  0.8039  0.1861
  569MOL0     C75041   2.216   9.665   3.306 -1.5991 -0.6725  0.2247
  569MOL0     C75042   2.262   9.780   3.365  0.1665  0.0933 -0.1439
  569MOL0     H75043   2.241  10.256   3.539 -0.5054 -0.3514 -0.4750
  569MOL0     H75044   2.360  10.436   3.641 -1.5581 -1.0501 -1.0232
  569MOL0     H75045   2.731  10.341   3.885 -0.3279 -1.1306 -3.5142
  569MOL0     H75046   2.562  10.294   3.920 -0.6728  1.4571 -1.0429
  569MOL0     H75047   2.630  10.581   3.935  1.9467 -1.9539 -1.1754
  569MOL0     H75048   2.691  10.489   4.068  0.1965 -0.5506 -0.4096
  569MOL0     H75049   2.448  10.423   4.136 -0.6383  0.1337 -1.2837
  569MOL0     H75050   2.394  10.492   3.982 -0.1495 -0.1883 -0.6428
  569MOL0     H75051   2.514  10.635   4.230  1.2565  2.9775 -1.7962
  569MOL0     H75052   2.444  10.720   4.090 -2.4509  0.1480  0.2593
  569MOL0     H75053   2.302  10.727   4.273 -1.0393 -1.0006  0.7966
  569MOL0     H75054   2.297  10.559   4.300 -1.7806  0.7159  0.5957
  569MOL0     H75055   2.084  10.622   4.187 -0.5273  0.3611 -1.9894
  569MOL0     H75056   2.177  10.513   4.095 -1.9617 -0.9587  1.7484
  569MOL0     H75057   2.150  10.823   4.058 -1.1787 -1.9494  2.1264
  569MOL0     H75058   2.265  10.731   3.972  0.4140 -0.7852  1.0676
  569MOL0     H75059   2.080  10.601   3.866  4.4499  1.7845 -0.3481
  569MOL0     H75060   2.029  10.763   3.844 -5.0773 -1.2129  0.8937
  569MOL0     H75061   1.912  10.866   4.095  2.4158 -2.2293  0.6042
  569MOL0     H75062   1.661  10.909   4.190  1.9429 -0.1362 -0.8257
  569MOL0     H75063   1.692  10.786   4.308 -2.0633 -1.4426  0.4973
  569MOL0     H75064   1.502  10.656   4.155  1.9682  1.3647 -0.9291
  569MOL0     H75065   1.441  10.821   4.159 -2.0023 -0.4064  1.7286
  569MOL0     H75066   1.512  10.680   4.420 -1.2550 -3.0182 -1.5140
  569MOL0     H75067   1.486  10.851   4.402 -0.5943 -1.3252  2.8407
  569MOL0     H75068   1.278  10.682   4.450  2.6285  1.4085  0.8294
  569MOL0     H75069   1.294  10.636   4.291 -1.9463  0.0020  0.1467
  569MOL0     H75070   1.097  11.044   4.221 -0.5428 -0.0488 -0.0181
  569MOL0     H75071   1.065  11.261   4.335  2.5656 -0.1278 -3.0569
  569MOL0     H75072   1.318  11.470   4.768  0.5507 -0.6487 -0.0805
  569MOL0     H75073   1.270  11.688   4.900 -0.2664 -1.6334  0.4684
  569MOL0     H75074   0.992  11.949   5.039  0.2899  0.0283 -0.1939
  569MOL0     H75075   0.885  11.825   4.967 -0.3443  1.9386  0.8165
  569MOL0     H75076   1.038  11.835   4.763  2.5475 -0.8990  0.2713
  569MOL0     H75077   1.141  11.949   4.846  1.2911 -2.1273  3.1054
  569MOL0     H75078   1.002  12.077   4.694 -0.1372  1.5563  0.4148
  569MOL0     H75079   0.934  12.112   4.856 -3.6000 -1.9106  0.8584
  569MOL0     H75080   0.805  11.884   4.746 -0.5905 -0.6067 -1.6191
  569MOL0     H75081   0.749  12.022   4.847  0.1068  1.6316 -0.1991
  569MOL0     H75082   0.781  12.034   4.538 -0.0281  0.3121  0.1438
  569MOL0     H75083   0.773  12.163   4.642 -1.4177  0.0075  1.8381
  569MOL0     H75084   0.544  12.076   4.733  1.4004  2.2055 -0.5489
  569MOL0     H75085   0.566  11.926   4.643 -1.0744  0.2233  0.3674
  569MOL0     H75086   0.417  12.103   4.548 -0.6896  0.2578 -0.6971
  569MOL0     H75087   0.547  12.218   4.554 -4.1760  0.2087  3.2770
  569MOL0     H75088   0.673  12.061   4.365  0.1057  2.4042 -0.8963
  569MOL0     H75089   0.533  12.154   4.314  1.4013 -2.0604 -4.0889
  569MOL0     H75090   0.851  11.595   4.929 -0.9832 -2.6247  0.0188
  569MOL0     H75091   0.888  11.400   4.828  0.8830 -0.4059 -1.8535
  569MOL0     H75092   1.188  11.065   4.691 -2.3541 -2.2986  0.8543
  569MOL0     H75093   1.247  10.865   4.581 -3.1334 -1.5405 -1.6334
  569MOL0     H75094   2.708  10.185   3.692  0.0332  2.3368  0.5509
  569MOL0     H75095   2.587  10.016   3.544 -0.0227 -0.0708 -0.4264
  569MOL0     H75096   1.994   9.850   3.570  0.7666  1.5713 -1.6533
  569MOL0     H75097   1.917   9.628   3.466 -0.2592  2.9754  0.9286
  569MOL0     H75098   2.214   9.428   3.170 -1.4208  4.0369 -0.8391
  569MOL0     H75099   2.049   9.358   3.138 -0.3989 -5.0636  2.0748
  569MOL0     H75100   2.225   9.301   3.367 -1.4230  1.7491  3.1157
  569MOL0     H75101   2.051   9.270   3.376 -0.2752 -2.5728  0.4174
  569MOL0     H75102   2.076   9.149   3.142 -4.1948 -0.6554  2.3241
  569MOL0     H75103   2.123   9.056   3.275 -2.0459  1.1295 -0.6116
  569MOL0     H75104   2.306   9.081   3.083 -1.8933  5.4838 -4.6775
  569MOL0     H75105   2.320   9.245   3.129 -0.7785 -0.9491 -1.3043
  569MOL0     H75106   2.537   9.034   3.433  1.7019 -1.0904 -1.8442
  569MOL0     H75107   2.278   9.630   3.225 -2.5032 -0.4700 -0.5754
  569MOL0     H75108   2.357   9.822   3.331  1.4793 -1.1531  1.8071
  570MOL0     O75109   0.223   3.028   3.344 -0.1492 -0.9834  0.1223
  570MOL0     C75110   0.174   2.987   3.447 -0.4148  0.7443  0.0515
  570MOL0     O75111   0.042   2.987   3.487  0.1831 -0.1894  0.3657
  570MOL0     C75112  -0.057   3.044   3.411 -0.0569 -0.0809  0.1250
  570MOL0     C75113  -0.182   2.989   3.439  0.8950  0.8326 -0.1481
  570MOL0     C75114  -0.289   3.047   3.385 -0.0907  0.0836  0.4980
  570MOL0     C75115  -0.287   3.165   3.310  0.2118 -0.4051  1.3008
  570MOL0     O75116  -0.407   3.208   3.242  0.1751  0.8212  0.4227
  570MOL0     C75117  -0.428   3.352   3.224 -0.4825  0.7075 -0.6391
  570MOL0     C75118  -0.429   3.438   3.355 -0.1345 -0.2605 -1.0996
  570MOL0     C75119  -0.484   3.580   3.330 -0.4747  0.4385 -0.5889
  570MOL0     C75120  -0.470   3.676   3.450 -0.6893 -0.3469 -0.6024
  570MOL0     C75121  -0.591   3.778   3.420  0.5546  0.6815  0.0805
  570MOL0     C75122  -0.592   3.901   3.515  0.3851  1.0773  0.6014
  570MOL0     C75123  -0.692   4.007   3.462 -0.7021 -0.3246 -0.3021
  570MOL0     C75124  -0.638   4.139   3.495  0.2845 -0.5258 -0.6587
  570MOL0     N75125  -0.662   4.169   3.638 -1.1321 -0.2983  0.9402
  570MOL0     C75126  -0.778   4.177   3.708 -0.2253  0.2612 -0.6032
  570MOL0     C75127  -0.735   4.171   3.840  1.2131  0.0770  0.6212
  570MOL0     C75128  -0.829   4.195   3.954 -0.9580 -0.9781 -0.0812
  570MOL0     C75129  -0.811   4.082   4.049  0.3731  0.6161 -0.3759
  570MOL0     C75130  -0.920   4.104   4.160  0.3476 -0.7452  0.4384
  570MOL0     C75131  -0.938   3.986   4.250 -0.1835 -0.0463 -0.4368
  570MOL0     O75132  -1.051   3.896   4.205 -0.7178 -0.5636 -0.0052
  570MOL0     C75133  -1.176   3.876   4.273  0.2152  0.8376 -0.5649
  570MOL0     C75134  -1.248   3.751   4.246  0.2616 -0.5135 -0.3767
  570MOL0     C75135  -1.383   3.734   4.294  0.0415 -0.3933 -0.1574
  570MOL0     C75136  -1.438   3.835   4.366  0.0693 -0.3406  0.7934
  570MOL0     C75137  -1.579   3.806   4.407 -0.3847 -0.2611  0.0834
  570MOL0     O75138  -1.665   3.708   4.350  0.2204 -0.2895  0.3646
  570MOL0     C75139  -1.777   3.674   4.416 -0.1717  0.9497 -0.0576
  570MOL0     C75140  -1.782   3.605   4.534  1.0687 -0.3570  0.9491
  570MOL0     C75141  -1.909   3.571   4.589 -0.5731  0.5773  0.3030
  570MOL0     C75142  -2.027   3.593   4.522 -0.3023 -0.4615  0.5482
  570MOL0     O75143  -2.156   3.550   4.565 -0.3364 -0.9314 -0.6869
  570MOL0     C75144  -2.171   3.485   4.690  0.1242 -0.2002 -0.2519
  570MOL0     C75145  -2.316   3.440   4.707  0.9697 -0.4370  0.2116
  570MOL0     C75146  -2.330   3.327   4.803  0.1560  0.8647 -0.3803
  570MOL0     C75147  -2.463   3.250   4.769  1.0076  0.0874 -0.7338
  570MOL0     C75148  -2.501   3.161   4.889  0.3380  0.5062  0.6471
  570MOL0     C75149  -2.638   3.095   4.877  0.0149  0.0957 -0.6072
  570MOL0     C75150  -2.633   2.974   4.779  0.0338  0.3796 -0.3668
  570MOL0     C75151  -2.763   2.887   4.789 -0.6688  0.4880 -0.5290
  570MOL0    Cl75152  -2.888   2.962   4.698  0.2042 -0.2872  0.0976
  570MOL0     C75153  -2.019   3.666   4.409 -0.8538  0.1407  0.7406
  570MOL0     C75154  -1.899   3.709   4.353  0.3792  0.1502 -0.1508
  570MOL0     O75155  -1.613   3.878   4.501  0.2453 -0.2947 -0.5581
  570MOL0     C75156  -1.375   3.954   4.406 -0.6753  0.2165 -0.0170
  570MOL0     C75157  -1.239   3.969   4.368 -0.7717  0.5474  1.5936
  570MOL0     N75158  -0.606   4.150   3.849 -1.1530  0.5425  0.4807
  570MOL0     N75159  -0.559   4.155   3.726  0.1947  0.1413 -0.1538
  570MOL0     C75160  -0.158   3.217   3.291  0.2542  0.2003  0.3745
  570MOL0     C75161  -0.038   3.166   3.347  0.0933 -0.3441  0.6271
  570MOL0     C75162   0.267   2.945   3.554 -0.5837 -0.6524  1.5138
  570MOL0     C75163   0.212   2.881   3.666  0.9936  0.4094  0.1558
  570MOL0     C75164   0.294   2.810   3.760  0.1011  0.2958  0.4125
  570MOL0     C75165   0.433   2.806   3.734  0.6237  1.0706 -0.1243
  570MOL0     O75166   0.533   2.753   3.819 -0.1192  0.3738  0.5657
  570MOL0     C75167   0.533   2.609   3.844 -0.0564 -1.0468  0.5140
  570MOL0     C75168   0.585   2.579   3.985 -0.7771 -0.0605  0.4811
  570MOL0     C75169   0.725   2.631   4.023 -0.2892 -0.1093 -0.1002
  570MOL0     C75170   0.830   2.566   3.934 -0.3028 -0.5341  0.5683
  570MOL0     C75171   0.975   2.596   3.960 -0.2439 -0.8404  0.6339
  570MOL0     C75172   1.092   2.613   3.957 -0.0871 -0.4023 -0.1351
  570MOL0     C75173   0.483   2.871   3.626 -0.7668  0.3002  0.5358
  570MOL0     C75174   0.410   2.935   3.528  0.7846  0.8130  0.0464
  570MOL0     H75175  -0.179   2.895   3.493  2.1852  0.6216 -0.5396
  570MOL0     H75176  -0.377   2.985   3.392 -0.5157  0.4205 -1.2765
  570MOL0     H75177  -0.521   3.366   3.169 -0.5258  2.8062 -0.1001
  570MOL0     H75178  -0.341   3.386   3.167  0.4899 -0.2449  0.2227
  570MOL0     H75179  -0.334   3.435   3.408 -1.1019  0.9560  0.7926
  570MOL0     H75180  -0.502   3.385   3.416 -1.2179 -0.7126 -2.7010
  570MOL0     H75181  -0.587   3.573   3.295 -0.8343  2.4660 -0.0970
  570MOL0     H75182  -0.417   3.620   3.253 -1.6492  2.5037 -0.6053
  570MOL0     H75183  -0.482   3.641   3.553 -0.7931  0.7322 -0.2435
  570MOL0     H75184  -0.371   3.721   3.454 -1.7951  2.3701  4.0409
  570MOL0     H75185  -0.683   3.722   3.435 -0.5123  0.7242 -4.7237
  570MOL0     H75186  -0.591   3.808   3.315 -3.7627 -0.7228 -0.4953
  570MOL0     H75187  -0.495   3.952   3.513  1.7813 -1.3411  1.8274
  570MOL0     H75188  -0.626   3.888   3.619 -2.5907  2.7878 -0.0331
  570MOL0     H75189  -0.713   4.013   3.355  2.2825 -1.4214 -1.0326
  570MOL0     H75190  -0.786   3.979   3.512 -1.1032 -2.2877 -2.0129
  570MOL0     H75191  -0.691   4.209   3.429  0.2565  0.9029  0.8259
  570MOL0     H75192  -0.534   4.151   3.463  0.4941  1.5410  0.6392
  570MOL0     H75193  -0.877   4.193   3.667 -2.2079 -1.1863  3.1876
  570MOL0     H75194  -0.930   4.195   3.912 -0.3664 -2.8508 -1.6642
  570MOL0     H75195  -0.799   4.283   4.012 -1.3330 -1.3407  0.6790
  570MOL0     H75196  -0.712   4.086   4.096  0.2749  2.1484 -0.2575
  570MOL0     H75197  -0.831   3.990   3.992 -1.9205  0.8776 -0.0612
  570MOL0     H75198  -0.887   4.182   4.229  2.5831 -0.9887 -0.2704
  570MOL0     H75199  -1.012   4.148   4.121  2.0302  1.0201 -1.7798
  570MOL0     H75200  -0.948   4.019   4.354  1.8552 -0.2880 -0.1303
  570MOL0     H75201  -0.851   3.921   4.262  2.3105  3.2768  0.9477
  570MOL0     H75202  -1.200   3.671   4.189  0.1182 -0.5364 -0.4639
  570MOL0     H75203  -1.444   3.646   4.274 -0.4557 -0.7000  2.4197
  570MOL0     H75204  -1.693   3.576   4.589  1.5865 -1.7017 -0.5184
  570MOL0     H75205  -1.893   3.510   4.677  4.5615 -0.3754 -0.9710
  570MOL0     H75206  -2.135   3.561   4.760 -1.4140  0.9677 -0.6831
  570MOL0     H75207  -2.099   3.403   4.678 -0.0625 -0.0249 -3.1497
  570MOL0     H75208  -2.343   3.395   4.611  1.8187 -1.7525  0.5568
  570MOL0     H75209  -2.391   3.516   4.730  0.6935 -0.2044 -1.3332
  570MOL0     H75210  -2.320   3.365   4.905  3.0590  0.4031 -0.4105
  570MOL0     H75211  -2.237   3.270   4.796  1.6211  2.6748  2.4770
  570MOL0     H75212  -2.546   3.318   4.747  3.6223  3.5533 -0.7294
  570MOL0     H75213  -2.445   3.174   4.692 -0.2052 -2.1570  1.0609
  570MOL0     H75214  -2.516   3.227   4.976 -2.1777 -1.4699  1.8505
  570MOL0     H75215  -2.423   3.088   4.913 -0.8564 -2.4847 -3.6351
  570MOL0     H75216  -2.716   3.171   4.861 -0.6502  0.2014  2.4955
  570MOL0     H75217  -2.670   3.041   4.967  3.2003 -2.9197 -1.0870
  570MOL0     H75218  -2.632   3.010   4.676 -3.2235  0.1294 -0.5774
  570MOL0     H75219  -2.544   2.914   4.798  0.4356  1.0010 -0.2556
  570MOL0     H75220  -2.791   2.867   4.893  2.4632 -0.3679  0.2572
  570MOL0     H75221  -2.730   2.792   4.746  1.7680  0.9671  0.0897
  570MOL0     H75222  -2.109   3.695   4.355 -0.9827 -0.5462  0.5784
  570MOL0     H75223  -1.900   3.778   4.270  2.2999 -0.8642 -1.0918
  570MOL0     H75224  -1.426   4.028   4.466 -2.7583  1.8774 -3.5420
  570MOL0     H75225  -1.173   4.052   4.391  1.6011 -0.3703 -1.2773
  570MOL0     H75226  -0.148   3.305   3.228 -1.6257  0.2364  0.0658
  570MOL0     H75227   0.058   3.215   3.346  0.7159 -1.4792  1.5678
  570MOL0     H75228   0.106   2.874   3.687  0.5064  0.2099 -2.1111
  570MOL0     H75229   0.251   2.786   3.857 -2.2130 -1.5237 -0.9342
  570MOL0     H75230   0.587   2.549   3.770  0.3932 -1.7193  1.3798
  570MOL0     H75231   0.431   2.569   3.853 -0.1930 -0.7649  0.2575
  570MOL0     H75232   0.511   2.611   4.058 -3.5849  0.2766 -2.2781
  570MOL0     H75233   0.598   2.470   3.984 -1.5166 -0.1515  0.5409
  570MOL0     H75234   0.760   2.607   4.124 -2.5902 -0.8108  0.5906
  570MOL0     H75235   0.725   2.741   4.016 -1.4635 -0.1960 -2.2168
  570MOL0     H75236   0.835   2.458   3.946  3.1329 -0.3751  1.7557
  570MOL0     H75237   0.810   2.600   3.832 -0.5377  3.8776  1.8755
  570MOL0     H75238   1.199   2.621   3.954 -0.1951  1.8999  0.0686
  570MOL0     H75239   0.590   2.865   3.613 -0.9256  0.4773 -1.0179
  570MOL0     H75240   0.467   2.969   3.442  0.4503  1.0800 -0.0726
  571MOL0     O75241   6.727   9.033   3.151 -0.1021  0.2424 -0.3819
  571MOL0     C75242   6.815   8.962   3.106 -0.7783  0.7081  0.4409
  571MOL0     O75243   6.925   8.925   3.183 -0.2656 -0.0675 -0.3125
  571MOL0     C75244   6.924   8.934   3.318  0.5656 -0.1922 -0.2497
  571MOL0     C75245   6.821   8.873   3.388  0.6420  0.4531  0.1212
  571MOL0     C75246   6.812   8.888   3.528 -0.7938 -0.4043  0.6212
  571MOL0     C75247   6.913   8.957   3.591  1.3286  0.0940 -0.7823
  571MOL0     O75248   6.891   8.952   3.731 -0.7076 -0.4710  0.2570
  571MOL0     C75249   7.013   8.926   3.809 -0.1609 -0.3414  0.2745
  571MOL0     C75250   7.049   8.775   3.784 -0.1972 -1.1397 -0.5638
  571MOL0     C75251   7.103   8.710   3.909 -0.0123 -0.9545  0.2759
  571MOL0     C75252   7.237   8.767   3.970  1.1917 -0.7143 -0.4018
  571MOL0     C75253   7.306   8.673   4.074 -0.6329  0.2543  0.8312
  571MOL0     C75254   7.230   8.653   4.195  0.0979 -0.4368 -0.2572
  571MOL0     C75255   7.329   8.664   4.321 -0.2241 -0.1907  0.2298
  571MOL0     C75256   7.252   8.638   4.450 -0.4230 -0.0728  0.2262
  571MOL0     N75257   7.362   8.606   4.547  0.5379 -0.8707 -1.0265
  571MOL0     C75258   7.424   8.494   4.573 -0.7634  0.2093  0.3764
  571MOL0     C75259   7.520   8.510   4.671  0.2355 -0.5255 -0.0778
  571MOL0     C75260   7.627   8.416   4.719  0.3406  0.0592 -0.8054
  571MOL0     C75261   7.763   8.492   4.696  0.5470  0.9183 -0.7733
  571MOL0     C75262   7.880   8.393   4.750  0.2237  0.6552 -0.6274
  571MOL0     C75263   8.012   8.467   4.746 -0.1759 -0.8786  0.9494
  571MOL0     O75264   8.054   8.500   4.610 -0.4427  0.4345  0.1059
  571MOL0     C75265   8.155   8.429   4.540 -0.2046 -0.2643  0.2499
  571MOL0     C75266   8.228   8.325   4.600 -0.4875  0.3212 -0.1145
  571MOL0     C75267   8.322   8.263   4.533 -0.4717 -0.7639 -0.1828
  571MOL0     C75268   8.372   8.317   4.408  0.5188 -0.2563 -0.2672
  571MOL0     C75269   8.493   8.268   4.344 -0.0496  0.3237  0.0450
  571MOL0     O75270   8.546   8.368   4.260 -0.0615  0.5749 -0.6784
  571MOL0     C75271   8.681   8.354   4.224 -0.8649  0.7031  0.6272
  571MOL0     C75272   8.783   8.335   4.325  1.5734  0.9224  0.4435
  571MOL0     C75273   8.915   8.320   4.288  0.6508  0.5747  0.0829
  571MOL0     C75274   8.954   8.326   4.146  0.0453  0.9063 -1.1441
  571MOL0     O75275   9.082   8.325   4.099 -0.1068 -0.3034  0.0271
  571MOL0     C75276   9.196   8.290   4.188  0.0030 -0.1768 -0.3280
  571MOL0     C75277   9.339   8.312   4.142 -0.7857  0.0478 -0.0257
  571MOL0     C75278   9.356   8.439   4.070  0.4498  0.1276  0.1147
  571MOL0     C75279   9.505   8.472   4.024  0.7390  0.2229 -0.2646
  571MOL0     C75280   9.510   8.615   3.956  0.1075 -0.8795 -0.0809
  571MOL0     C75281   9.453   8.727   4.045 -0.5793 -0.7872  0.0631
  571MOL0     C75282   9.527   8.861   4.021 -0.1457  0.1457 -0.1495
  571MOL0     C75283   9.475   8.957   4.131 -0.3213 -0.4958 -0.2563
  571MOL0    Cl75284   9.296   8.983   4.121 -0.2354 -0.3629  0.0244
  571MOL0     C75285   8.845   8.345   4.053  0.4657  0.2058  1.0577
  571MOL0     C75286   8.716   8.355   4.087  0.4575  0.8105 -0.6226
  571MOL0     O75287   8.532   8.150   4.356 -0.2886 -0.5230  0.2512
  571MOL0     C75288   8.303   8.422   4.352  0.1580  0.6931  0.0428
  571MOL0     C75289   8.191   8.480   4.411 -0.0627  0.0041 -0.5794
  571MOL0     N75290   7.502   8.638   4.720  0.6032 -0.4177 -0.4167
  571MOL0     N75291   7.412   8.691   4.638 -0.1546 -0.7116  0.1266
  571MOL0     C75292   7.026   9.006   3.525 -0.0119 -0.0044 -0.3086
  571MOL0     C75293   7.033   8.981   3.394  0.5231 -0.1587 -0.0426
  571MOL0     C75294   6.813   8.943   2.966  0.2584  0.4208  0.7746
  571MOL0     C75295   6.932   8.912   2.893 -0.4858  0.2412  0.6701
  571MOL0     C75296   6.921   8.878   2.760  0.0664 -1.0414 -0.1468
  571MOL0     C75297   6.801   8.896   2.694 -0.5213 -1.2113 -0.1004
  571MOL0     O75298   6.817   8.864   2.560  0.3298  0.1086 -0.2143
  571MOL0     C75299   6.702   8.876   2.477 -0.5117 -0.2984  0.5380
  571MOL0     C75300   6.738   8.797   2.345 -1.1860  0.2552 -0.4238
  571MOL0     C75301   6.843   8.875   2.267  0.4744  0.5196  0.0814
  571MOL0     C75302   6.871   8.806   2.129 -0.4512  0.7320  0.0320
  571MOL0     C75303   6.952   8.873   2.024 -0.0782  0.2111  0.0368
  571MOL0     C75304   7.005   8.948   1.941  0.7141 -0.4710 -0.3668
  571MOL0     C75305   6.688   8.933   2.762  0.2743  0.1040 -0.4565
  571MOL0     C75306   6.690   8.957   2.891 -0.8411 -1.0045 -0.8547
  571MOL0     H75307   6.738   8.827   3.335 -0.0918 -0.7645  2.1965
  571MOL0     H75308   6.726   8.852   3.584 -0.4965  0.6762  1.8059
  571MOL0     H75309   6.988   8.933   3.916 -1.4933  0.3373 -0.0522
  571MOL0     H75310   7.098   8.989   3.786  1.1074 -2.1735 -0.2571
  571MOL0     H75311   7.121   8.766   3.703 -0.6285 -0.3958 -1.0384
  571MOL0     H75312   6.959   8.729   3.743 -2.0179  0.8054  1.0329
  571MOL0     H75313   7.135   8.606   3.894  1.5397 -0.9112  2.7965
  571MOL0     H75314   7.027   8.719   3.987  1.4402 -2.3391  1.9559
  571MOL0     H75315   7.304   8.789   3.886 -1.1985 -0.1538 -2.2866
  571MOL0     H75316   7.216   8.863   4.016  2.0588 -0.9832  0.5803
  571MOL0     H75317   7.406   8.716   4.086 -1.2261  2.4704 -1.2881
  571MOL0     H75318   7.320   8.577   4.023  2.8416  1.1846 -0.2436
  571MOL0     H75319   7.179   8.557   4.203 -1.5646  0.5627  2.1434
  571MOL0     H75320   7.163   8.733   4.228  0.8850 -1.3262  4.1162
  571MOL0     H75321   7.413   8.597   4.302  1.0742  0.4135  3.3027
  571MOL0     H75322   7.365   8.767   4.322 -1.0078  0.1529 -1.6650
  571MOL0     H75323   7.202   8.544   4.428  0.6211  0.2376 -4.5184
  571MOL0     H75324   7.186   8.716   4.487 -1.2992 -0.5100 -0.3800
  571MOL0     H75325   7.408   8.409   4.507  1.8843  0.4468 -0.6824
  571MOL0     H75326   7.626   8.322   4.664 -4.3029 -1.7592  1.8424
  571MOL0     H75327   7.617   8.383   4.823  2.3761  0.7077 -0.3523
  571MOL0     H75328   7.758   8.592   4.741 -1.3663 -0.4401  2.3832
  571MOL0     H75329   7.788   8.491   4.589  2.0556 -4.3026 -0.6298
  571MOL0     H75330   7.859   8.364   4.854 -0.9613  1.1838 -0.7029
  571MOL0     H75331   7.891   8.307   4.684 -0.1131  0.2035 -0.1096
  571MOL0     H75332   8.093   8.415   4.798  0.4452 -0.4629  0.4117
  571MOL0     H75333   8.002   8.565   4.795 -0.2003  0.2514 -1.2299
  571MOL0     H75334   8.207   8.276   4.694 -1.2047  0.1767 -0.3442
  571MOL0     H75335   8.382   8.182   4.574  0.6252  1.2911  2.5310
  571MOL0     H75336   8.750   8.335   4.428 -1.8769  3.2120 -0.4945
  571MOL0     H75337   8.992   8.299   4.361  0.8783  0.7901 -0.0914
  571MOL0     H75338   9.194   8.181   4.201 -2.2566 -0.5729 -2.9951
  571MOL0     H75339   9.199   8.316   4.295  3.0498 -2.4954  0.2885
  571MOL0     H75340   9.363   8.238   4.065 -0.1207 -0.7526  0.9156
  571MOL0     H75341   9.410   8.317   4.225 -0.3528  0.1947 -0.4060
  571MOL0     H75342   9.327   8.521   4.136  1.1507  0.6630 -0.2319
  571MOL0     H75343   9.292   8.440   3.981  0.6833  1.1900 -0.0551
  571MOL0     H75344   9.576   8.461   4.107 -0.0573 -4.0218  0.1163
  571MOL0     H75345   9.540   8.400   3.950  5.7862  3.6646 -1.6924
  571MOL0     H75346   9.461   8.614   3.858  2.2993  0.6980 -1.2742
  571MOL0     H75347   9.613   8.647   3.938  0.2169 -0.1137  1.7596
  571MOL0     H75348   9.462   8.693   4.148 -1.4824 -1.1523  0.0303
  571MOL0     H75349   9.348   8.746   4.019 -0.4929  0.4045  0.5175
  571MOL0     H75350   9.635   8.861   4.033  0.1916  2.6802 -2.4348
  571MOL0     H75351   9.503   8.905   3.925 -1.7104 -1.3928 -0.5233
  571MOL0     H75352   9.521   9.056   4.120 -2.6045  1.2640  3.7981
  571MOL0     H75353   9.503   8.916   4.228 -1.0896 -1.2813 -0.3570
  571MOL0     H75354   8.868   8.340   3.947 -5.0271  1.7424 -0.5414
  571MOL0     H75355   8.634   8.370   4.018 -2.1057 -0.2370  1.9857
  571MOL0     H75356   8.335   8.469   4.260  1.5717 -0.6579 -0.1862
  571MOL0     H75357   8.138   8.562   4.364  2.4303  0.7985 -2.1896
  571MOL0     H75358   7.103   9.053   3.584 -1.5090 -1.3700  3.0270
  571MOL0     H75359   7.119   9.008   3.335 -0.3188  1.6898 -0.4999
  571MOL0     H75360   7.025   8.897   2.946 -0.3156 -0.6614  0.1506
  571MOL0     H75361   7.000   8.823   2.711 -0.1930 -1.3435 -0.2282
  571MOL0     H75362   6.683   8.982   2.459  0.9475 -0.2733 -1.1397
  571MOL0     H75363   6.620   8.826   2.528  0.4029 -0.5584  1.8234
  571MOL0     H75364   6.779   8.702   2.380 -1.5370 -1.1329 -3.4747
  571MOL0     H75365   6.651   8.776   2.282 -0.1180  1.9407 -2.5918
  571MOL0     H75366   6.933   8.885   2.328  1.8373  0.0774 -1.7753
  571MOL0     H75367   6.813   8.978   2.244  3.2993  1.7056  1.2948
  571MOL0     H75368   6.921   8.711   2.150 -1.7614  0.2316  1.0778
  571MOL0     H75369   6.773   8.777   2.089 -0.3386  2.3047 -1.5147
  571MOL0     H75370   7.037   9.016   1.865 -3.6766  0.3562 -1.7182
  571MOL0     H75371   6.589   8.932   2.716 -1.3506 -2.2876  2.7200
  571MOL0     H75372   6.599   8.971   2.948 -0.4388  0.4071 -0.5112
  572MOL0     O75373   1.359   1.579   1.654 -0.4042 -0.4700  0.9447
  572MOL0     C75374   1.435   1.595   1.563  0.4933 -0.1394  0.4244
  572MOL0     O75375   1.553   1.534   1.546 -0.4026 -0.5415 -1.0918
  572MOL0     C75376   1.610   1.449   1.639 -0.5862 -0.1932 -0.1206
  572MOL0     C75377   1.726   1.396   1.590  0.3083  0.0280  0.5205
  572MOL0     C75378   1.807   1.308   1.667  0.6341  1.0199  0.1916
  572MOL0     C75379   1.760   1.260   1.791 -0.2562  0.5606  0.5433
  572MOL0     O75380   1.821   1.159   1.865  0.0539  0.1200  0.2649
  572MOL0     C75381   1.819   1.032   1.804  1.4984  0.1487 -0.1091
  572MOL0     C75382   1.956   0.981   1.785 -0.8180 -0.2770  0.1055
  572MOL0     C75383   1.965   0.831   1.736 -0.5070 -0.5425  0.5802
  572MOL0     C75384   1.924   0.808   1.590  0.1760 -0.9603 -0.7067
  572MOL0     C75385   1.868   0.671   1.564 -0.2805 -0.8040 -0.6891
  572MOL0     C75386   1.962   0.552   1.551 -0.6387 -0.0847  0.6284
  572MOL0     C75387   1.907   0.446   1.462  0.3738  0.3861  0.9660
  572MOL0     C75388   1.800   0.356   1.535  0.3887 -0.4088 -0.1229
  572MOL0     N75389   1.855   0.283   1.643  0.5235  0.6889  0.1739
  572MOL0     C75390   1.958   0.192   1.624  0.4002 -0.3383  0.6400
  572MOL0     C75391   1.998   0.153   1.750  0.8129  0.7904 -0.1492
  572MOL0     C75392   2.107   0.060   1.786 -0.6868 -0.5305  0.6390
  572MOL0     C75393   2.146   0.068   1.934  0.3172  0.8086 -0.1993
  572MOL0     C75394   2.066  -0.019   2.029 -0.1858  0.0957 -0.4530
  572MOL0     C75395   2.159  -0.107   2.119 -0.1571  0.2438 -0.3504
  572MOL0     O75396   2.225  -0.215   2.048  0.8542 -0.6146 -0.7829
  572MOL0     C75397   2.218  -0.338   2.108  0.2481  0.2701 -0.1183
  572MOL0     C75398   2.124  -0.434   2.055 -0.6072  1.5851  0.2651
  572MOL0     C75399   2.104  -0.563   2.123 -0.3204  0.2800 -1.4355
  572MOL0     C75400   2.176  -0.596   2.244  0.9005 -1.0503  0.1189
  572MOL0     C75401   2.153  -0.716   2.328  0.9521 -0.5438  0.3901
  572MOL0     O75402   2.109  -0.816   2.266  0.1138 -0.0640  0.3603
  572MOL0     C75403   2.122  -0.945   2.316  0.7567 -0.1656 -0.1678
  572MOL0     C75404   2.017  -1.022   2.256  0.8986 -0.0672 -0.0959
  572MOL0     C75405   1.995  -1.157   2.300 -1.0201 -0.1332  0.3025
  572MOL0     C75406   2.089  -1.207   2.398  0.6085 -0.1249  0.3715
  572MOL0     O75407   2.071  -1.324   2.460 -0.3186 -0.6474 -0.2940
  572MOL0     C75408   1.952  -1.329   2.535  0.0144 -0.6554 -0.0047
  572MOL0     C75409   1.990  -1.396   2.669  0.6979 -0.2823 -0.3032
  572MOL0     C75410   1.862  -1.444   2.746 -0.1160  0.0659 -0.0963
  572MOL0     C75411   1.896  -1.549   2.860 -0.6352 -0.5394 -0.4341
  572MOL0     C75412   1.826  -1.529   3.001  0.2890 -0.2997 -0.3102
  572MOL0     C75413   1.875  -1.404   3.081  0.2031  0.1147 -0.5360
  572MOL0     C75414   1.809  -1.404   3.225  0.1653  0.6029 -0.6865
  572MOL0     C75415   1.906  -1.312   3.310  0.6992 -0.4526  0.6305
  572MOL0    Cl75416   1.858  -1.320   3.481 -0.1268 -0.7287  0.0284
  572MOL0     C75417   2.183  -1.124   2.449 -0.7935  0.3348 -0.6122
  572MOL0     C75418   2.206  -0.992   2.409 -0.3059  0.6548 -0.6545
  572MOL0     O75419   2.173  -0.713   2.447 -0.2876 -0.2612 -0.7471
  572MOL0     C75420   2.271  -0.497   2.285 -0.5840  0.3677  0.5981
  572MOL0     C75421   2.294  -0.366   2.227  0.8969 -0.3463 -0.4387
  572MOL0     N75422   1.908   0.210   1.846  0.9100  0.0731  0.5878
  572MOL0     N75423   1.833   0.297   1.780 -0.2096  0.5281 -0.7316
  572MOL0     C75424   1.642   1.326   1.848  0.0001  1.2076  0.7853
  572MOL0     C75425   1.567   1.413   1.768  0.3465 -0.3584  0.1555
  572MOL0     C75426   1.379   1.693   1.462  0.0669 -0.5182  1.6605
  572MOL0     C75427   1.247   1.732   1.443 -0.4482  0.5443 -0.1504
  572MOL0     C75428   1.199   1.817   1.340 -0.3947  0.2176  0.6015
  572MOL0     C75429   1.294   1.874   1.258 -0.3818  0.2807 -0.3098
  572MOL0     O75430   1.238   1.961   1.172  0.2496 -0.0932  0.2725
  572MOL0     C75431   1.336   2.053   1.092 -0.0761 -0.4694  0.4068
  572MOL0     C75432   1.237   2.139   1.000 -0.1650 -0.0178  0.3908
  572MOL0     C75433   1.308   2.256   0.926 -0.4379  0.3674 -0.3994
  572MOL0     C75434   1.208   2.342   0.850 -0.5281  0.2794  0.2131
  572MOL0     C75435   1.265   2.433   0.754  0.3958  0.4139  0.2325
  572MOL0     C75436   1.320   2.509   0.672  0.3844 -0.5369  0.5084
  572MOL0     C75437   1.428   1.848   1.280 -0.0281 -1.0699  0.2482
  572MOL0     C75438   1.467   1.748   1.374 -0.1799 -0.0861  0.6776
  572MOL0     H75439   1.763   1.404   1.488 -0.2648 -4.7644 -0.3043
  572MOL0     H75440   1.898   1.263   1.630  0.9712  0.7404  1.3406
  572MOL0     H75441   1.763   1.028   1.711 -1.4721  0.0361  1.5750
  572MOL0     H75442   1.760   0.969   1.872 -1.2088  2.2576 -0.3351
  572MOL0     H75443   1.999   0.986   1.885 -1.3778  1.1248  0.2940
  572MOL0     H75444   2.013   1.039   1.712  0.7706 -0.4576  1.1500
  572MOL0     H75445   1.907   0.763   1.799  1.6531 -1.4162  1.7452
  572MOL0     H75446   2.066   0.792   1.750 -0.7514 -0.5246  2.7233
  572MOL0     H75447   1.847   0.885   1.575  0.1744  0.2017  3.9011
  572MOL0     H75448   2.004   0.832   1.519  0.0601  1.2468 -0.1612
  572MOL0     H75449   1.804   0.685   1.476 -1.8902  0.0429  0.5617
  572MOL0     H75450   1.786   0.656   1.634 -1.7410  2.2210 -1.5920
  572MOL0     H75451   1.992   0.511   1.648  5.0753 -2.7649 -1.7992
  572MOL0     H75452   2.059   0.588   1.514  0.2894 -1.7710  1.2807
  572MOL0     H75453   1.863   0.496   1.376  0.5440 -0.1036  0.5894
  572MOL0     H75454   1.984   0.387   1.411 -1.8143 -1.1070 -0.7825
  572MOL0     H75455   1.760   0.286   1.462  0.7017  0.7657 -1.4753
  572MOL0     H75456   1.716   0.417   1.571  0.0928  0.3076 -1.9189
  572MOL0     H75457   1.999   0.175   1.525  0.0139 -1.5409  0.6773
  572MOL0     H75458   2.195   0.089   1.728  0.6339 -2.8847  1.3473
  572MOL0     H75459   2.088  -0.045   1.764 -2.5300 -0.1243  0.1140
  572MOL0     H75460   2.155   0.169   1.976  1.8466  0.7674 -0.3678
  572MOL0     H75461   2.250   0.036   1.944  0.3863  1.1422  0.2172
  572MOL0     H75462   1.991   0.035   2.087  0.0201 -1.8974  1.8225
  572MOL0     H75463   2.006  -0.092   1.974  1.0534 -1.7138  0.4939
  572MOL0     H75464   2.093  -0.142   2.199 -1.8746  1.6261 -1.1149
  572MOL0     H75465   2.231  -0.041   2.168 -2.1149  0.9726  1.6981
  572MOL0     H75466   2.080  -0.430   1.956 -0.1744 -0.0930 -0.0230
  572MOL0     H75467   2.032  -0.640   2.095 -0.4735 -0.8312  1.6436
  572MOL0     H75468   1.958  -0.981   2.174  1.5680 -0.6259 -0.8613
  572MOL0     H75469   1.914  -1.222   2.267 -1.0352  0.2477 -0.4532
  572MOL0     H75470   1.867  -1.380   2.489 -0.6347  1.1045 -0.8679
  572MOL0     H75471   1.920  -1.229   2.566 -1.6316 -0.5463 -1.8665
  572MOL0     H75472   2.037  -1.314   2.724  1.2519 -0.5408 -0.3804
  572MOL0     H75473   2.060  -1.478   2.650  0.1487 -1.0172  0.7125
  572MOL0     H75474   1.792  -1.497   2.681 -0.5392 -0.0221  0.4249
  572MOL0     H75475   1.805  -1.359   2.783 -2.6884 -1.4106 -0.4819
  572MOL0     H75476   1.862  -1.646   2.823  3.6048 -1.5125 -2.3150
  572MOL0     H75477   2.003  -1.558   2.880 -0.0280  0.2872 -2.9406
  572MOL0     H75478   1.848  -1.622   3.053 -2.2916 -1.9553 -1.9136
  572MOL0     H75479   1.720  -1.508   2.984  1.3749  3.4586 -4.1711
  572MOL0     H75480   1.839  -1.311   3.036  0.6438  1.6503  2.0681
  572MOL0     H75481   1.984  -1.402   3.086  0.2633 -2.6012  2.1706
  572MOL0     H75482   1.707  -1.371   3.205 -0.2610 -1.0144 -1.3264
  572MOL0     H75483   1.815  -1.508   3.259  0.2017  1.2012  1.2363
  572MOL0     H75484   1.900  -1.212   3.268 -2.4385  0.0583  2.0100
  572MOL0     H75485   2.006  -1.356   3.304  2.1389  2.5955  0.8595
  572MOL0     H75486   2.240  -1.161   2.533 -2.4752 -2.4609 -0.5889
  572MOL0     H75487   2.286  -0.928   2.445  0.5974 -1.7929  1.9763
  572MOL0     H75488   2.323  -0.532   2.374  0.8430 -2.1479 -1.1036
  572MOL0     H75489   2.366  -0.295   2.267 -0.0052 -1.0657  2.7654
  572MOL0     H75490   1.603   1.287   1.941  0.1527 -0.3498  0.2281
  572MOL0     H75491   1.475   1.461   1.799 -0.5921  0.0921 -2.9381
  572MOL0     H75492   1.168   1.714   1.516 -0.3765  1.5372  0.1828
  572MOL0     H75493   1.097   1.842   1.313 -0.0357 -0.0497 -1.1173
  572MOL0     H75494   1.408   2.002   1.027  1.1906 -0.5207  1.8038
  572MOL0     H75495   1.397   2.117   1.155 -0.6965  1.4942 -0.8922
  572MOL0     H75496   1.180   2.087   0.922 -4.6435  2.5324  1.5715
  572MOL0     H75497   1.158   2.187   1.059  0.3035  1.2563  0.0055
  572MOL0     H75498   1.377   2.211   0.854  0.5714  2.2609 -0.6742
  572MOL0     H75499   1.364   2.325   0.990 -3.3209  2.6684 -0.1416
  572MOL0     H75500   1.130   2.287   0.798 -1.7888  0.8397  1.4407
  572MOL0     H75501   1.152   2.390   0.931 -1.2095 -0.1889  0.0209
  572MOL0     H75502   1.373   2.574   0.606  0.9104  0.4836  1.8835
  572MOL0     H75503   1.502   1.904   1.224  0.2564 -1.5914  0.1009
  572MOL0     H75504   1.574   1.735   1.387  1.5500  7.3823 -1.5581
  573MOL0     O75505   8.315   1.319   1.501  0.2750  0.6427 -0.3426
  573MOL0     C75506   8.229   1.269   1.575  0.0244  0.3013 -0.1186
  573MOL0     O75507   8.247   1.203   1.690 -0.4804 -0.2286  0.2061
  573MOL0     C75508   8.376   1.207   1.750  0.1606  0.4632 -0.3517
  573MOL0     C75509   8.499   1.186   1.676 -0.2028  0.4699  0.0615
  573MOL0     C75510   8.625   1.181   1.738 -0.1987  0.0805 -1.1465
  573MOL0     C75511   8.639   1.213   1.878  0.6508 -0.4068  0.1745
  573MOL0     O75512   8.762   1.218   1.940  0.1788  0.2294 -0.4246
  573MOL0     C75513   8.869   1.231   1.859 -0.7205 -0.2224 -0.7310
  573MOL0     C75514   8.989   1.249   1.948 -0.0240  0.3894  0.1286
  573MOL0     C75515   9.000   1.397   1.998  0.3420  0.2745 -0.3625
  573MOL0     C75516   9.129   1.394   2.071 -0.2891  0.5676  0.1325
  573MOL0     C75517   9.165   1.537   2.122 -0.7831 -0.1030 -0.1097
  573MOL0     C75518   9.295   1.541   2.197 -1.0435  0.8409  0.4390
  573MOL0     C75519   9.336   1.684   2.212 -0.3273 -1.0845 -1.1011
  573MOL0     C75520   9.404   1.694   2.350  0.6104  0.2058  0.0006
  573MOL0     N75521   9.483   1.817   2.369 -0.1446 -0.0469 -0.7314
  573MOL0     C75522   9.430   1.930   2.410 -0.1463 -0.9981 -0.2079
  573MOL0     C75523   9.534   2.008   2.420  0.5846  0.2294  0.3553
  573MOL0     C75524   9.538   2.145   2.474 -0.5445  0.0216 -0.5265
  573MOL0     C75525   9.407   2.228   2.465  0.1243  1.4445  0.4021
  573MOL0     C75526   9.370   2.260   2.325 -0.0331  0.0219  0.4181
  573MOL0     C75527   9.230   2.328   2.313  0.4661 -0.2787 -0.1531
  573MOL0     O75528   9.195   2.354   2.172 -0.0862 -0.8276  0.9145
  573MOL0     C75529   9.169   2.488   2.134  0.8425  0.5588 -0.6064
  573MOL0     C75530   9.111   2.507   2.015 -0.6343 -0.9897 -0.4565
  573MOL0     C75531   9.069   2.626   1.969  0.1749  0.2503  0.4308
  573MOL0     C75532   9.089   2.738   2.048  0.2718 -1.5041  0.0018
  573MOL0     C75533   9.050   2.875   1.997  0.0163  0.0559  0.9390
  573MOL0     O75534   9.033   2.975   2.094 -0.9636  0.0374  0.6029
  573MOL0     C75535   8.993   3.094   2.042 -0.6443 -1.0419  0.9033
  573MOL0     C75536   9.081   3.195   1.989  0.3976  0.7424 -0.1938
  573MOL0     C75537   9.030   3.303   1.924 -0.2124 -0.6163  0.4627
  573MOL0     C75538   8.893   3.319   1.928  0.8401  0.0271  0.8521
  573MOL0     O75539   8.824   3.424   1.868 -0.2760  0.1340  0.3951
  573MOL0     C75540   8.771   3.407   1.738  0.5588 -0.4576 -0.1504
  573MOL0     C75541   8.824   3.521   1.641 -0.1848 -0.9599 -0.6761
  573MOL0     C75542   8.767   3.494   1.503 -0.4981  0.1686  0.0027
  573MOL0     C75543   8.808   3.611   1.406 -0.5672  0.2719  0.3206
  573MOL0     C75544   8.961   3.625   1.392  0.8816 -0.1714 -0.5157
  573MOL0     C75545   9.005   3.656   1.246  0.1569 -0.5491 -0.4604
  573MOL0     C75546   9.008   3.528   1.169 -0.7175  0.7430  0.3580
  573MOL0     C75547   9.058   3.550   1.021 -0.0929  0.3533  1.2111
  573MOL0    Cl75548   9.221   3.592   1.013  0.3674 -0.4866  0.0382
  573MOL0     C75549   8.808   3.222   1.976 -0.1118  0.9796 -0.6500
  573MOL0     C75550   8.857   3.097   2.024  0.1109 -0.2722  0.5233
  573MOL0     O75551   9.015   2.882   1.880  0.4653 -0.3284 -0.2559
  573MOL0     C75552   9.144   2.728   2.178  0.1564 -0.1105 -0.3387
  573MOL0     C75553   9.172   2.601   2.224  0.6528 -0.5080  0.2116
  573MOL0     N75554   9.649   1.935   2.377  0.2489  0.3700  0.7984
  573MOL0     N75555   9.618   1.823   2.334  1.2792 -0.4194  0.1273
  573MOL0     C75556   8.518   1.243   1.938 -0.2980 -0.8196 -0.0345
  573MOL0     C75557   8.394   1.239   1.883 -0.1131 -0.2746  0.1676
  573MOL0     C75558   8.097   1.293   1.518  0.5078 -0.0628  0.0716
  573MOL0     C75559   8.069   1.370   1.402 -0.4019  0.0489  0.1170
  573MOL0     C75560   7.942   1.375   1.345  0.1905  0.3400 -0.0075
  573MOL0     C75561   7.840   1.306   1.405  0.5583 -0.1664 -0.3101
  573MOL0     O75562   7.716   1.311   1.344 -0.1189  0.8731 -0.2977
  573MOL0     C75563   7.605   1.294   1.427  0.6084  0.2318 -1.1051
  573MOL0     C75564   7.481   1.350   1.358  0.3931 -0.7109 -0.0580
  573MOL0     C75565   7.449   1.255   1.244  0.1448  0.1399 -0.3130
  573MOL0     C75566   7.370   1.324   1.136 -0.8645 -0.6036  0.3463
  573MOL0     C75567   7.366   1.233   1.022 -0.2852 -1.1373 -0.3217
  573MOL0     C75568   7.364   1.167   0.918 -0.1950  0.2905 -0.1927
  573MOL0     C75569   7.864   1.236   1.522 -0.5964  0.1496  0.5494
  573MOL0     C75570   7.996   1.222   1.572 -0.3696  0.6869  0.0064
  573MOL0     H75571   8.486   1.166   1.571 -3.4806 -0.4876  0.5276
  573MOL0     H75572   8.717   1.155   1.686  0.3924 -0.0575 -0.0685
  573MOL0     H75573   8.856   1.317   1.793 -2.4868 -1.3050 -1.8851
  573MOL0     H75574   8.871   1.136   1.804  0.9453 -0.9885  0.5753
  573MOL0     H75575   9.076   1.234   1.883 -0.5615  0.5011 -0.6276
  573MOL0     H75576   8.990   1.174   2.028  0.2133  0.8443  0.5533
  573MOL0     H75577   8.926   1.420   2.075 -0.9040 -2.1436 -0.7112
  573MOL0     H75578   8.992   1.469   1.916  0.8421 -1.2623 -1.8232
  573MOL0     H75579   9.107   1.327   2.154 -2.1285  0.2478 -0.5602
  573MOL0     H75580   9.212   1.366   2.006 -0.8057  0.6471 -0.5691
  573MOL0     H75581   9.080   1.559   2.188 -0.3154  0.1368  0.4237
  573MOL0     H75582   9.160   1.607   2.038  0.3162 -0.3948 -0.4266
  573MOL0     H75583   9.376   1.483   2.151 -2.4339  1.2421 -2.7740
  573MOL0     H75584   9.272   1.494   2.294 -5.7285 -2.2071 -1.7606
  573MOL0     H75585   9.409   1.705   2.133  0.9929  0.9822  0.5460
  573MOL0     H75586   9.246   1.745   2.206  0.9981  1.1958  0.3373
  573MOL0     H75587   9.467   1.606   2.366 -2.0754 -1.5578  1.5662
  573MOL0     H75588   9.317   1.694   2.415  1.6976  3.7044  1.7276
  573MOL0     H75589   9.325   1.951   2.431 -0.2983  0.1067 -1.9039
  573MOL0     H75590   9.618   2.200   2.425  0.3935  2.3416  3.1935
  573MOL0     H75591   9.564   2.138   2.580 -1.5087  1.1967 -0.2005
  573MOL0     H75592   9.414   2.314   2.533  2.5828 -0.0157  2.1747
  573MOL0     H75593   9.331   2.167   2.513 -0.1365  0.2766 -1.4093
  573MOL0     H75594   9.448   2.323   2.281 -0.1783 -1.4157 -2.0413
  573MOL0     H75595   9.364   2.167   2.267 -1.5252  1.6093 -2.1307
  573MOL0     H75596   9.227   2.411   2.384  0.2015 -2.0267  2.0175
  573MOL0     H75597   9.155   2.256   2.350  2.1840 -4.1450 -3.4356
  573MOL0     H75598   9.094   2.420   1.953  0.4400 -1.9105  0.4944
  573MOL0     H75599   9.028   2.630   1.869  0.2411 -2.9871  0.1849
  573MOL0     H75600   9.189   3.192   1.994  0.3857  0.7106  0.0796
  573MOL0     H75601   9.090   3.389   1.896  1.3337 -1.5103  0.8790
  573MOL0     H75602   8.662   3.419   1.743  0.5351 -0.6639 -0.1745
  573MOL0     H75603   8.796   3.307   1.701  0.6161 -1.7006  2.9809
  573MOL0     H75604   8.933   3.528   1.639 -0.2819  0.5848 -1.2950
  573MOL0     H75605   8.791   3.620   1.673 -0.9121 -0.7933 -1.8884
  573MOL0     H75606   8.659   3.489   1.517 -0.7553 -1.2350 -2.0772
  573MOL0     H75607   8.810   3.400   1.467 -0.0985  0.4736 -0.3329
  573MOL0     H75608   8.756   3.596   1.311 -0.6536 -1.4937  0.6109
  573MOL0     H75609   8.763   3.706   1.437 -0.6501  1.7452 -3.6676
  573MOL0     H75610   9.001   3.529   1.424  0.1015  0.1953  1.8033
  573MOL0     H75611   8.994   3.704   1.461 -0.1458 -0.7393  0.6618
  573MOL0     H75612   9.108   3.695   1.249  0.5720 -1.5737  2.7453
  573MOL0     H75613   8.929   3.720   1.200  1.0504 -0.6297 -2.1274
  573MOL0     H75614   9.070   3.449   1.214 -2.9353  0.2238  2.7091
  573MOL0     H75615   8.907   3.491   1.149  0.2864 -2.1018  0.0718
  573MOL0     H75616   8.990   3.629   0.987 -0.0108 -0.0895 -0.0405
  573MOL0     H75617   9.044   3.462   0.958  1.3103  0.1591  1.1322
  573MOL0     H75618   8.701   3.241   1.982 -0.4561 -0.9810  0.1791
  573MOL0     H75619   8.794   3.023   2.072  2.6910 -2.4107  0.8040
  573MOL0     H75620   9.161   2.815   2.241  2.1985 -0.4109 -0.4138
  573MOL0     H75621   9.201   2.599   2.328  0.4068  3.2758  0.5062
  573MOL0     H75622   8.534   1.268   2.042  1.5026 -2.0194  0.0093
  573MOL0     H75623   8.310   1.266   1.946  0.1568 -0.6000  0.6788
  573MOL0     H75624   8.145   1.439   1.365 -2.7793  2.2409 -1.0711
  573MOL0     H75625   7.924   1.437   1.259  5.0711 -1.9002 -3.0586
  573MOL0     H75626   7.628   1.350   1.518  0.5155 -0.4255 -0.6676
  573MOL0     H75627   7.586   1.194   1.467  1.5843  0.8362  1.0196
  573MOL0     H75628   7.407   1.375   1.435  1.3530 -0.6066  0.8409
  573MOL0     H75629   7.494   1.451   1.318  2.6927 -1.8111 -2.3639
  573MOL0     H75630   7.396   1.173   1.294  1.0352 -1.2771 -1.6030
  573MOL0     H75631   7.548   1.226   1.209  2.2274  0.6753  4.3684
  573MOL0     H75632   7.270   1.334   1.181 -0.6359  0.1713  0.6980
  573MOL0     H75633   7.406   1.425   1.114 -0.8101 -0.7116 -0.0630
  573MOL0     H75634   7.357   1.115   0.825 -3.4274  1.6611 -0.8409
  573MOL0     H75635   7.791   1.174   1.572 -0.3957 -1.8598 -1.4765
  573MOL0     H75636   8.017   1.161   1.659  2.7465  0.2514 -0.9271
  574MOL0     O75637  10.411   2.868   0.803  0.2951  0.5409 -0.5300
  574MOL0     C75638  10.462   2.901   0.912  0.9296  0.3756  0.3620
  574MOL0     O75639  10.591   2.931   0.933  0.1498 -0.4996  0.2192
  574MOL0     C75640  10.655   2.967   0.827 -0.2510 -0.3611 -0.4517
  574MOL0     C75641  10.620   3.083   0.751  0.5776 -0.0432 -0.5689
  574MOL0     C75642  10.673   3.101   0.624 -0.4726  0.1221 -0.3536
  574MOL0     C75643  10.762   3.010   0.567  0.4959 -0.4264  0.1043
  574MOL0     O75644  10.824   3.033   0.446 -0.3219 -0.6242 -0.5491
  574MOL0     C75645  10.856   2.922   0.354  0.5061  0.1132 -0.3020
  574MOL0     C75646  10.952   2.967   0.245 -0.8364  0.7267  0.7763
  574MOL0     C75647  10.981   2.877   0.125 -0.7124  0.1966  0.9747
  574MOL0     C75648  11.030   2.735   0.156  0.3885 -0.0829 -1.3605
  574MOL0     C75649  10.999   2.638   0.046 -0.6047 -0.7146  0.0562
  574MOL0     C75650  11.058   2.496   0.072  0.0093  0.7033 -0.2078
  574MOL0     C75651  11.026   2.409  -0.053 -2.5018 -0.3643 -0.5616
  574MOL0     C75652  11.113   2.276  -0.048  0.1797 -1.3978 -0.5687
  574MOL0     N75653  11.087   2.208  -0.177 -0.4889  0.8967  0.0085
  574MOL0     C75654  11.028   2.080  -0.178 -0.1107 -0.1465  1.0346
  574MOL0     C75655  10.955   2.080  -0.298  0.3431 -0.3071 -0.1083
  574MOL0     C75656  10.882   1.952  -0.340 -0.1320  0.7191 -0.3313
  574MOL0     C75657  10.847   1.951  -0.492  0.0341  0.7156 -0.2477
  574MOL0     C75658  10.749   1.836  -0.534 -0.2299 -0.5977  0.4459
  574MOL0     C75659  10.802   1.695  -0.517  0.2019  0.3603 -0.6207
  574MOL0     O75660  10.889   1.674  -0.631  0.4205  0.0549 -0.5919
  574MOL0     C75661  10.971   1.569  -0.600  0.2504  0.5493 -0.5778
  574MOL0     C75662  11.106   1.592  -0.604 -0.7985 -0.1367 -0.4998
  574MOL0     C75663  11.198   1.486  -0.605  0.0512  1.2049  0.5789
  574MOL0     C75664  11.155   1.349  -0.576 -0.0461 -1.2539  0.3736
  574MOL0     C75665  11.243   1.240  -0.606 -0.6143  1.4470  0.0080
  574MOL0     O75666  11.198   1.112  -0.575 -0.3890 -0.2920 -0.2918
  574MOL0     C75667  11.239   0.997  -0.626 -0.2580 -0.0538  0.5817
  574MOL0     C75668  11.251   0.988  -0.764 -0.5766  0.1360 -0.1819
  574MOL0     C75669  11.293   0.862  -0.816 -0.1927 -1.1896 -0.2473
  574MOL0     C75670  11.331   0.758  -0.729  1.2303 -0.8031  0.1229
  574MOL0     O75671  11.387   0.649  -0.782  0.0225  0.2872 -0.1126
  574MOL0     C75672  11.520   0.644  -0.833 -0.1750 -1.1333  0.1242
  574MOL0     C75673  11.579   0.519  -0.880 -0.3100 -0.0973 -0.4439
  574MOL0     C75674  11.494   0.468  -0.999 -1.0228 -0.3311  0.4123
  574MOL0     C75675  11.553   0.345  -1.058 -0.4255 -0.2163  0.0401
  574MOL0     C75676  11.484   0.299  -1.184  0.0194  0.1423 -0.1493
  574MOL0     C75677  11.339   0.262  -1.158  0.2434  0.5140  0.0408
  574MOL0     C75678  11.275   0.213  -1.287 -0.3732 -0.9022 -0.7671
  574MOL0     C75679  11.186   0.087  -1.254  0.0904  0.1066  0.1614
  574MOL0    Cl75680  11.067   0.123  -1.113 -0.2841 -0.2630  0.6712
  574MOL0     C75681  11.323   0.776  -0.590  0.1256 -0.0446  0.5891
  574MOL0     C75682  11.271   0.889  -0.534 -0.3291 -0.5349 -0.6640
  574MOL0     O75683  11.353   1.260  -0.651 -0.5054  0.0236  0.7307
  574MOL0     C75684  11.024   1.336  -0.542  0.8409 -0.1573 -0.5508
  574MOL0     C75685  10.931   1.437  -0.566 -0.1562 -0.4860  0.5089
  574MOL0     N75686  10.999   2.185  -0.370 -0.1233  0.0734 -0.2848
  574MOL0     N75687  11.078   2.261  -0.299 -0.2427 -0.0298 -0.3075
  574MOL0     C75688  10.798   2.901   0.646  0.9487 -0.0746  0.2864
  574MOL0     C75689  10.745   2.881   0.771 -0.0480  0.0789 -0.3812
  574MOL0     C75690  10.374   2.913   1.025 -0.3411 -0.2293 -0.3033
  574MOL0     C75691  10.438   2.909   1.153 -0.0215  0.1717 -0.9098
  574MOL0     C75692  10.366   2.890   1.265 -0.2250  0.6366 -0.2266
  574MOL0     C75693  10.226   2.870   1.254 -0.5571  0.2883 -0.7333
  574MOL0     O75694  10.166   2.880   1.375 -0.2963  1.0020  0.8547
  574MOL0     C75695  10.027   2.886   1.385  0.2210 -0.3158  0.0786
  574MOL0     C75696   9.970   3.031   1.379  1.1086 -0.3983 -1.4240
  574MOL0     C75697   9.904   3.083   1.508 -0.6343 -0.2913 -0.1979
  574MOL0     C75698   9.786   2.993   1.555  0.8137 -0.3734 -0.1807
  574MOL0     C75699   9.821   2.901   1.660 -0.5520  0.4854 -0.7955
  574MOL0     C75700   9.870   2.826   1.747  0.1915 -0.1196 -0.5492
  574MOL0     C75701  10.168   2.876   1.125  0.9162 -0.3160  0.6343
  574MOL0     C75702  10.239   2.909   1.009  0.7444  0.3469 -1.3633
  574MOL0     H75703  10.550   3.145   0.806 -0.3291 -2.2128  0.8398
  574MOL0     H75704  10.648   3.185   0.560  1.3190  0.9006 -0.0974
  574MOL0     H75705  10.760   2.891   0.310  0.6698 -1.4008  0.3436
  574MOL0     H75706  10.883   2.829   0.406 -1.6874 -0.9076 -0.8391
  574MOL0     H75707  11.049   2.993   0.288  1.1964  2.8719 -4.3128
  574MOL0     H75708  10.916   3.062   0.203 -0.1901 -1.0886 -4.6121
  574MOL0     H75709  11.037   2.929   0.046 -0.8775  1.0022  1.3749
  574MOL0     H75710  10.882   2.870   0.080 -0.9467 -2.4115  1.7406
  574MOL0     H75711  11.138   2.731   0.173  0.2017  0.7099  0.1393
  574MOL0     H75712  10.981   2.711   0.251 -2.9262 -0.3127 -2.9525
  574MOL0     H75713  11.032   2.671  -0.053 -0.8077 -0.4645  0.0704
  574MOL0     H75714  10.891   2.633   0.034 -0.8496  1.1540  1.0461
  574MOL0     H75715  11.012   2.446   0.157 -1.7687  1.2661 -0.7982
  574MOL0     H75716  11.164   2.516   0.090 -0.2796  2.0555  0.0536
  574MOL0     H75717  10.918   2.393  -0.061 -2.8947  1.3328  0.9027
  574MOL0     H75718  11.058   2.466  -0.141 -2.6436  0.9517  0.2237
  574MOL0     H75719  11.064   2.219   0.031 -3.5627  0.3193 -1.4124
  574MOL0     H75720  11.220   2.297  -0.038  0.7252 -3.4968 -1.5188
  574MOL0     H75721  11.031   2.008  -0.097 -0.5205 -0.5060  0.7366
  574MOL0     H75722  10.793   1.931  -0.281  1.7691 -1.1126  2.0637
  574MOL0     H75723  10.946   1.865  -0.322  1.3110  2.1061  1.7170
  574MOL0     H75724  10.932   1.922  -0.554 -0.6620 -5.2938  1.0054
  574MOL0     H75725  10.815   2.050  -0.526  1.0274  0.7267 -1.2039
  574MOL0     H75726  10.664   1.853  -0.466 -1.4371 -1.8038 -0.6881
  574MOL0     H75727  10.725   1.829  -0.640  2.0227 -2.9873 -0.0023
  574MOL0     H75728  10.720   1.622  -0.516 -2.5164  3.1288  2.1000
  574MOL0     H75729  10.856   1.679  -0.423  0.8589  1.1874 -0.8475
  574MOL0     H75730  11.147   1.692  -0.616 -0.0411 -0.2167  1.2106
  574MOL0     H75731  11.301   1.511  -0.629 -0.5283  1.1813 -2.3631
  574MOL0     H75732  11.241   1.075  -0.828 -2.8467 -0.0362 -0.1486
  574MOL0     H75733  11.299   0.849  -0.923  1.7770  0.1504 -0.3505
  574MOL0     H75734  11.594   0.671  -0.757  0.7893 -0.1214 -1.1146
  574MOL0     H75735  11.524   0.713  -0.918  1.5947  0.8192  1.6869
  574MOL0     H75736  11.583   0.446  -0.798 -2.2252  1.2321  0.9361
  574MOL0     H75737  11.680   0.547  -0.909  0.7534  0.7010  3.4372
  574MOL0     H75738  11.493   0.552  -1.070  2.3977 -2.5086 -2.5162
  574MOL0     H75739  11.393   0.450  -0.960 -0.6048  0.1272  1.7673
  574MOL0     H75740  11.654   0.358  -1.098 -1.4319 -1.2888 -3.1516
  574MOL0     H75741  11.556   0.269  -0.980  1.4629 -1.4376 -1.1363
  574MOL0     H75742  11.542   0.222  -1.237  1.7546  3.0608 -2.8572
  574MOL0     H75743  11.474   0.380  -1.257  3.7686  1.9809  1.0740
  574MOL0     H75744  11.280   0.347  -1.122 -2.4225 -2.0118  2.0950
  574MOL0     H75745  11.331   0.182  -1.085  0.7007  2.6901  2.6207
  574MOL0     H75746  11.210   0.295  -1.319 -2.8651 -1.9316  1.3369
  574MOL0     H75747  11.348   0.176  -1.360  0.3373  0.5074 -0.7987
  574MOL0     H75748  11.253   0.005  -1.225  0.7091  0.4380 -0.2970
  574MOL0     H75749  11.137   0.066  -1.350  0.8304  0.1163 -0.2239
  574MOL0     H75750  11.364   0.695  -0.531  0.3437 -0.7218 -0.4502
  574MOL0     H75751  11.267   0.922  -0.431 -1.7242  1.1119 -1.1804
  574MOL0     H75752  10.989   1.234  -0.527 -1.4024  0.8280  1.7630
  574MOL0     H75753  10.825   1.420  -0.552 -0.4869  2.6501  2.8819
  574MOL0     H75754  10.881   2.836   0.620 -0.1106 -1.3280 -0.0481
  574MOL0     H75755  10.784   2.796   0.826 -1.0213 -0.0900  0.0645
  574MOL0     H75756  10.546   2.920   1.160 -0.0784 -0.2528  1.1721
  574MOL0     H75757  10.400   2.889   1.368 -0.9074  2.4441  0.0526
  574MOL0     H75758  10.000   2.853   1.486 -0.5414 -1.5219 -0.4930
  574MOL0     H75759   9.972   2.821   1.315 -0.5530  1.5223 -1.0849
  574MOL0     H75760  10.029   3.112   1.335 -1.4423  0.8967 -2.7014
  574MOL0     H75761   9.882   3.013   1.317  1.8809 -1.4868 -2.2329
  574MOL0     H75762   9.868   3.183   1.481 -2.9273 -1.1065 -0.4053
  574MOL0     H75763   9.964   3.107   1.597 -1.1624  3.3538 -0.6671
  574MOL0     H75764   9.702   3.054   1.588  2.4039  1.8184  0.0316
  574MOL0     H75765   9.747   2.939   1.468 -0.0228 -2.3013  1.3113
  574MOL0     H75766   9.905   2.773   1.833 -3.0059  1.8071  2.1425
  574MOL0     H75767  10.062   2.867   1.104  0.7961 -0.1601  1.1579
  574MOL0     H75768  10.171   2.910   0.925 -0.3359 -3.1890 -0.7249
  575MOL0     O75769   6.572   4.197   7.776 -0.4829  1.0493 -0.1760
  575MOL0     C75770   6.557   4.189   7.898  0.3240 -0.0420  0.2485
  575MOL0     O75771   6.610   4.277   7.990 -0.4664  0.7603 -0.1054
  575MOL0     C75772   6.712   4.349   7.949 -0.1197 -0.2451  0.2514
  575MOL0     C75773   6.697   4.492   7.938  0.0558  0.8234  0.4730
  575MOL0     C75774   6.813   4.564   7.893  0.4231 -0.4998  0.5519
  575MOL0     C75775   6.937   4.508   7.858  0.2868  0.2396  0.4032
  575MOL0     O75776   7.047   4.590   7.815  0.5336  0.2763 -0.5723
  575MOL0     C75777   7.181   4.547   7.845 -0.0549 -0.5181 -0.1009
  575MOL0     C75778   7.282   4.657   7.845  0.1926  0.3947 -0.1797
  575MOL0     C75779   7.424   4.596   7.835  0.1401 -0.1298 -0.5769
  575MOL0     C75780   7.470   4.534   7.706  0.0792 -0.8002 -0.6557
  575MOL0     C75781   7.586   4.436   7.725 -0.1725 -0.2115  0.5496
  575MOL0     C75782   7.715   4.514   7.774 -0.6834  0.7132  0.2483
  575MOL0     C75783   7.846   4.422   7.768 -0.4661 -0.2335  0.2417
  575MOL0     C75784   7.968   4.502   7.750 -0.4936 -1.0060  0.0810
  575MOL0     N75785   8.082   4.434   7.701  0.2110 -0.7592  0.0400
  575MOL0     C75786   8.155   4.471   7.599 -0.0488  0.3980  0.6818
  575MOL0     C75787   8.271   4.408   7.616 -0.0436  0.3298  0.2957
  575MOL0     C75788   8.380   4.398   7.515 -0.1042  0.0116 -0.1928
  575MOL0     C75789   8.490   4.292   7.561 -0.2481 -0.7581 -0.1512
  575MOL0     C75790   8.606   4.301   7.459  0.3521 -1.0620  0.1674
  575MOL0     C75791   8.743   4.258   7.518 -0.8194 -0.1974  0.2821
  575MOL0     O75792   8.772   4.343   7.626 -0.2063 -0.3496 -0.1544
  575MOL0     C75793   8.891   4.338   7.686 -0.5216  0.6483 -0.4904
  575MOL0     C75794   8.914   4.431   7.785  0.3946  0.0054 -0.5757
  575MOL0     C75795   9.044   4.446   7.839  0.9138 -0.3374  0.2223
  575MOL0     C75796   9.151   4.366   7.795  0.7233  1.1000 -0.2979
  575MOL0     C75797   9.288   4.399   7.836  0.0679  1.1845  0.0747
  575MOL0     O75798   9.396   4.310   7.806  0.5917 -0.6684  0.8204
  575MOL0     C75799   9.520   4.358   7.816  0.2476  0.1382  0.4162
  575MOL0     C75800   9.602   4.328   7.925  0.3729  0.8799  0.6392
  575MOL0     C75801   9.731   4.370   7.925  0.3486 -0.5057  0.1291
  575MOL0     C75802   9.798   4.432   7.814  0.4247  0.0541 -0.0761
  575MOL0     O75803   9.923   4.487   7.806  0.4702 -0.2307 -0.1571
  575MOL0     C75804  10.006   4.477   7.922  0.6985 -0.7382 -1.3238
  575MOL0     C75805  10.132   4.545   7.883 -0.1544 -0.3866 -0.0514
  575MOL0     C75806  10.239   4.560   8.001  0.5433 -0.0265 -0.9929
  575MOL0     C75807  10.378   4.594   7.941 -0.0636  0.6952 -0.0722
  575MOL0     C75808  10.438   4.475   7.874  0.1758  0.5677 -0.8679
  575MOL0     C75809  10.472   4.360   7.973 -0.0529 -0.7043  0.3622
  575MOL0     C75810  10.553   4.260   7.896 -0.6199 -0.0237  0.7569
  575MOL0     C75811  10.618   4.152   7.980 -1.0125  0.2921 -0.6773
  575MOL0    Cl75812  10.683   4.028   7.867  0.3245 -0.0061 -0.2904
  575MOL0     C75813   9.715   4.438   7.703 -0.6575  0.0064  0.7771
  575MOL0     C75814   9.579   4.408   7.700  0.3166 -0.2970  0.2771
  575MOL0     O75815   9.302   4.502   7.897 -0.5051 -0.3304  0.4790
  575MOL0     C75816   9.124   4.259   7.713  0.1784  0.5363 -0.1663
  575MOL0     C75817   8.996   4.235   7.663 -0.2120 -0.7161  1.0423
  575MOL0     N75818   8.274   4.353   7.743  0.2883  0.2363 -0.3086
  575MOL0     N75819   8.162   4.384   7.797 -0.7452  0.9919 -0.0131
  575MOL0     C75820   6.948   4.369   7.865  0.1906  0.5012 -0.3177
  575MOL0     C75821   6.839   4.290   7.914  0.1858  0.5653 -0.1114
  575MOL0     C75822   6.502   4.062   7.953 -0.3619  0.1303  0.1067
  575MOL0     C75823   6.422   3.980   7.876  0.7492  0.3928  0.2630
  575MOL0     C75824   6.359   3.870   7.926  0.0470 -0.3242  0.2931
  575MOL0     C75825   6.382   3.828   8.057  0.2409 -0.2739 -0.3020
  575MOL0     O75826   6.316   3.719   8.110 -0.0480 -0.8217  0.7118
  575MOL0     C75827   6.397   3.594   8.129  0.2521  0.2322 -0.5717
  575MOL0     C75828   6.484   3.537   8.020  0.3776 -0.5693 -0.1044
  575MOL0     C75829   6.417   3.533   7.883 -0.5049  0.5379  0.5661
  575MOL0     C75830   6.285   3.457   7.875 -0.1850 -0.1079  1.0765
  575MOL0     C75831   6.293   3.316   7.909 -0.4624  0.0479  0.5321
  575MOL0     C75832   6.297   3.202   7.956  1.1019 -0.5124  1.1123
  575MOL0     C75833   6.466   3.907   8.142  1.0736 -1.0833  0.1297
  575MOL0     C75834   6.517   4.028   8.093  0.6416  0.3155 -0.1629
  575MOL0     H75835   6.601   4.537   7.960 -0.0973  0.5805  0.3168
  575MOL0     H75836   6.809   4.672   7.885 -4.2338 -0.6134 -2.2755
  575MOL0     H75837   7.208   4.486   7.759 -0.0736  0.7280 -1.0156
  575MOL0     H75838   7.203   4.487   7.933 -0.7801 -2.2834 -1.0890
  575MOL0     H75839   7.262   4.734   7.921 -4.6702  1.3368 -1.9979
  575MOL0     H75840   7.274   4.715   7.752 -2.4044  1.8946  0.8700
  575MOL0     H75841   7.414   4.504   7.894 -6.2186 -1.3516 -2.7691
  575MOL0     H75842   7.497   4.674   7.860 -2.0912  1.6792  0.7670
  575MOL0     H75843   7.391   4.473   7.660 -0.5733  1.6158 -2.9864
  575MOL0     H75844   7.501   4.613   7.637 -1.9132  1.2954  0.6788
  575MOL0     H75845   7.605   4.400   7.623  2.2713  2.9725 -0.2632
  575MOL0     H75846   7.562   4.347   7.784 -1.5099 -1.3769 -1.6119
  575MOL0     H75847   7.693   4.583   7.856 -4.3635  0.0888 -0.0657
  575MOL0     H75848   7.719   4.582   7.689  0.6374  1.1850  0.6606
  575MOL0     H75849   7.852   4.362   7.859 -0.3561 -0.0428  0.3614
  575MOL0     H75850   7.831   4.350   7.687 -1.8413 -2.7825  2.6110
  575MOL0     H75851   8.001   4.551   7.842  2.8843 -0.7106 -1.1767
  575MOL0     H75852   7.943   4.594   7.695 -3.8595 -0.9402  1.4586
  575MOL0     H75853   8.119   4.520   7.508  1.9475  1.3188  0.3321
  575MOL0     H75854   8.418   4.500   7.515  0.4376 -0.1809  1.0347
  575MOL0     H75855   8.344   4.367   7.416 -0.8022 -1.3154  0.4459
  575MOL0     H75856   8.457   4.188   7.569  1.1022 -1.2495 -0.6386
  575MOL0     H75857   8.533   4.322   7.657  2.5551  0.4475 -1.6752
  575MOL0     H75858   8.570   4.236   7.379  0.6391 -3.2067  1.6930
  575MOL0     H75859   8.610   4.404   7.422  2.7698  0.1448  3.3637
  575MOL0     H75860   8.824   4.274   7.446 -1.3822  0.7862 -0.1453
  575MOL0     H75861   8.747   4.152   7.547 -2.0935 -0.5254 -0.6280
  575MOL0     H75862   8.838   4.504   7.812  0.7052 -0.5280  1.9907
  575MOL0     H75863   9.053   4.527   7.912 -2.1000  1.8450 -1.6011
  575MOL0     H75864   9.570   4.272   8.013  0.3594 -1.1680 -0.6165
  575MOL0     H75865   9.794   4.357   8.013 -0.4677 -2.5512  0.4869
  575MOL0     H75866  10.034   4.372   7.935  0.4208 -0.6133  0.6193
  575MOL0     H75867   9.957   4.523   8.008 -3.0789 -3.2029 -1.8629
  575MOL0     H75868  10.115   4.643   7.838  2.2482 -0.2164 -0.7622
  575MOL0     H75869  10.173   4.489   7.798  0.9823 -2.4107  1.6968
  575MOL0     H75870  10.249   4.466   8.056  0.4157 -0.1943 -1.2535
  575MOL0     H75871  10.209   4.632   8.078 -0.8154 -1.4631 -0.1175
  575MOL0     H75872  10.357   4.671   7.865 -1.7948  0.1874 -0.1607
  575MOL0     H75873  10.450   4.629   8.015  1.3970 -1.0489 -0.6218
  575MOL0     H75874  10.527   4.516   7.826  1.6702  2.5851  3.1452
  575MOL0     H75875  10.368   4.444   7.795 -0.0257  0.8018 -0.7850
  575MOL0     H75876  10.382   4.309   8.009 -1.8581  2.1372  0.2104
  575MOL0     H75877  10.539   4.397   8.050  0.2653  0.3640 -0.3994
  575MOL0     H75878  10.491   4.211   7.821  2.3341  2.3231 -3.6383
  575MOL0     H75879  10.634   4.315   7.846  1.3604 -2.8419  0.6170
  575MOL0     H75880  10.540   4.108   8.043  0.0447  0.5934  0.9014
  575MOL0     H75881  10.700   4.189   8.041 -1.6920 -0.2851  0.6268
  575MOL0     H75882   9.749   4.471   7.606 -2.8161  0.2927  0.0745
  575MOL0     H75883   9.521   4.409   7.609  0.1837 -0.9548  0.3485
  575MOL0     H75884   9.201   4.187   7.686  0.5477  0.2685  1.4649
  575MOL0     H75885   8.973   4.145   7.608 -1.1694 -0.2970  0.7293
  575MOL0     H75886   7.032   4.307   7.836  0.7423  0.2879  1.5983
  575MOL0     H75887   6.846   4.185   7.940 -1.4182 -0.4760 -3.3269
  575MOL0     H75888   6.398   4.006   7.774 -0.6261  0.6823  0.6360
  575MOL0     H75889   6.290   3.822   7.856 -0.2843 -1.8679  1.6231
  575MOL0     H75890   6.339   3.511   8.169  0.7943  0.6302  1.0965
  575MOL0     H75891   6.461   3.614   8.215 -0.7204 -1.5967  0.6590
  575MOL0     H75892   6.582   3.586   8.017  1.4848 -2.0283  4.2306
  575MOL0     H75893   6.516   3.436   8.050  0.8802  0.2101  2.1170
  575MOL0     H75894   6.490   3.483   7.818 -3.5021 -1.2138 -1.7529
  575MOL0     H75895   6.404   3.630   7.835  0.2449  1.2586  1.7736
  575MOL0     H75896   6.213   3.498   7.946  1.1810  3.3183  0.6535
  575MOL0     H75897   6.251   3.457   7.771 -2.0097  0.7582  1.6422
  575MOL0     H75898   6.302   3.114   8.017  2.7091 -0.5191  1.0079
  575MOL0     H75899   6.468   3.871   8.245 -1.8184 -1.4429  0.1453
  575MOL0     H75900   6.561   4.099   8.163 -0.7259  1.4283 -0.4018
  576MOL0     O75901   7.937   6.037   0.718 -0.1354  1.0898 -0.8213
  576MOL0     C75902   8.022   5.960   0.704  0.1054  1.1736  1.3341
  576MOL0     O75903   8.128   5.969   0.623  0.0939  0.0780 -0.0754
  576MOL0     C75904   8.157   6.083   0.550 -0.7839  0.1178  0.2743
  576MOL0     C75905   8.064   6.182   0.504 -0.3801 -0.0028  0.2882
  576MOL0     C75906   8.120   6.295   0.433  0.6010 -0.5695  0.0138
  576MOL0     C75907   8.256   6.305   0.407  0.8554  0.0778 -0.3804
  576MOL0     O75908   8.335   6.401   0.355  0.6472 -0.2487  0.0145
  576MOL0     C75909   8.282   6.538   0.343  0.3119  0.0681  0.1496
  576MOL0     C75910   8.218   6.561   0.207  0.1498 -0.4249 -0.5293
  576MOL0     C75911   8.167   6.700   0.195  0.3503  0.8289  0.6551
  576MOL0     C75912   8.093   6.734   0.064  0.3889 -0.8221 -0.1524
  576MOL0     C75913   8.172   6.678  -0.062  0.4177 -0.2283  0.1977
  576MOL0     C75914   8.124   6.744  -0.202  0.1654 -0.1471  0.0928
  576MOL0     C75915   7.967   6.743  -0.237 -0.2419  0.1898  0.3750
  576MOL0     C75916   7.941   6.709  -0.385 -0.2502 -0.0490  0.0219
  576MOL0     N75917   8.026   6.779  -0.484 -0.2362  0.5175  0.5298
  576MOL0     C75918   8.010   6.915  -0.494  0.1684 -0.3238  0.6541
  576MOL0     C75919   8.100   6.946  -0.593 -0.6018  0.1186 -0.6989
  576MOL0     C75920   8.119   7.092  -0.637  0.4637  0.2444  1.5030
  576MOL0     C75921   8.079   7.102  -0.787  0.1343 -0.5473  0.3311
  576MOL0     C75922   8.081   7.248  -0.847 -0.3824 -0.5621 -0.0379
  576MOL0     C75923   7.966   7.338  -0.812  0.7308  1.0229  0.0604
  576MOL0     O75924   7.846   7.317  -0.887  0.0817  0.1235  0.2000
  576MOL0     C75925   7.830   7.386  -1.013 -0.5841 -0.0798 -0.4675
  576MOL0     C75926   7.888   7.509  -1.046  0.1455 -1.4895 -0.4787
  576MOL0     C75927   7.882   7.550  -1.185 -0.2141  1.0284 -1.6420
  576MOL0     C75928   7.827   7.472  -1.281  0.6218  0.7259  0.3136
  576MOL0     C75929   7.798   7.531  -1.418  0.1166  0.9416 -0.2458
  576MOL0     O75930   7.763   7.446  -1.519 -0.0497 -0.3705 -0.2975
  576MOL0     C75931   7.694   7.493  -1.633  0.2426 -0.0785 -0.1511
  576MOL0     C75932   7.660   7.396  -1.733 -0.1029 -0.0546 -0.1142
  576MOL0     C75933   7.576   7.433  -1.842  0.5407 -0.5410  0.0762
  576MOL0     C75934   7.534   7.562  -1.867  1.1974 -0.9813 -0.0823
  576MOL0     O75935   7.459   7.594  -1.983 -0.0258  0.0251  0.4050
  576MOL0     C75936   7.439   7.730  -2.010 -0.2333 -0.2158  0.3165
  576MOL0     C75937   7.381   7.751  -2.145  0.3815 -0.0335  0.4689
  576MOL0     C75938   7.324   7.898  -2.167 -0.4098 -0.6642 -0.7306
  576MOL0     C75939   7.433   7.997  -2.198 -0.2452  0.0855 -0.0733
  576MOL0     C75940   7.372   8.114  -2.255  0.1886 -0.5648 -0.0184
  576MOL0     C75941   7.332   8.223  -2.149 -0.7601  0.7102 -0.2907
  576MOL0     C75942   7.276   8.343  -2.217  0.5183 -0.2734 -1.0078
  576MOL0     C75943   7.287   8.474  -2.141 -0.3532 -0.0161  0.3401
  576MOL0    Cl75944   7.450   8.535  -2.165 -0.0273  0.5738  0.5793
  576MOL0     C75945   7.563   7.651  -1.766  0.2942  0.3475  1.1386
  576MOL0     C75946   7.646   7.622  -1.659  0.3358  0.0634  0.6590
  576MOL0     O75947   7.802   7.654  -1.427  0.4087  0.4071  0.6503
  576MOL0     C75948   7.763   7.349  -1.245  1.0382  0.2377 -0.1271
  576MOL0     C75949   7.771   7.309  -1.115  0.1869  0.2418  0.8621
  576MOL0     N75950   8.181   6.833  -0.621 -0.1696  0.4931 -0.1018
  576MOL0     N75951   8.138   6.736  -0.555  0.0026  0.2215  0.2819
  576MOL0     C75952   8.341   6.206   0.453  0.6060 -0.3579  1.4108
  576MOL0     C75953   8.300   6.098   0.524  0.5409  0.0759 -0.4274
  576MOL0     C75954   8.001   5.825   0.773 -0.0095 -0.5532 -0.3211
  576MOL0     C75955   8.116   5.740   0.800  0.3637  0.2337 -0.3401
  576MOL0     C75956   8.100   5.629   0.877 -0.4173  0.6454  0.5019
  576MOL0     C75957   7.978   5.591   0.919  0.3836 -0.1397  1.2881
  576MOL0     O75958   7.952   5.477   0.987 -0.4698  0.2640 -0.5248
  576MOL0     C75959   8.041   5.434   1.089 -0.2143  0.6291  0.9301
  576MOL0     C75960   7.986   5.317   1.161  0.9581 -0.6151 -0.4399
  576MOL0     C75961   7.851   5.353   1.215  0.4708 -0.7604 -0.4431
  576MOL0     C75962   7.775   5.225   1.281  0.8190 -0.0138  0.5463
  576MOL0     C75963   7.659   5.270   1.362  0.7316  0.1195  0.4160
  576MOL0     C75964   7.557   5.301   1.428 -0.6033 -0.0339  0.0186
  576MOL0     C75965   7.868   5.664   0.887  0.3111  0.9646 -0.9077
  576MOL0     C75966   7.873   5.789   0.826  0.2934  0.0660 -0.4955
  576MOL0     H75967   7.957   6.194   0.516 -0.2750  0.7230  0.5575
  576MOL0     H75968   8.060   6.376   0.392  1.9400 -0.0865 -1.0454
  576MOL0     H75969   8.345   6.624   0.367  4.6663 -2.3898 -1.4467
  576MOL0     H75970   8.197   6.544   0.412  1.4508  0.0059  1.6007
  576MOL0     H75971   8.139   6.489   0.184 -0.8033 -1.2330  4.2069
  576MOL0     H75972   8.304   6.549   0.139  3.1752  2.3887  2.4138
  576MOL0     H75973   8.262   6.751   0.211  1.1153 -0.5297  0.5972
  576MOL0     H75974   8.110   6.728   0.284  0.3675  2.1877  0.2561
  576MOL0     H75975   7.991   6.693   0.063  0.1660 -0.4187  1.6539
  576MOL0     H75976   8.080   6.842   0.075  1.3573 -0.7910  0.8437
  576MOL0     H75977   8.147   6.572  -0.070 -2.5545  0.4053  0.1738
  576MOL0     H75978   8.280   6.684  -0.045  0.1581 -0.6131  2.2433
  576MOL0     H75979   8.176   6.683  -0.276 -0.4902 -2.1201  1.2052
  576MOL0     H75980   8.168   6.845  -0.205  0.2064  0.1086  4.0862
  576MOL0     H75981   7.922   6.659  -0.182  1.2701 -0.2979  0.9229
  576MOL0     H75982   7.935   6.843  -0.206  1.3641  0.9276 -0.2177
  576MOL0     H75983   7.841   6.746  -0.408 -0.9769 -1.8558  0.1022
  576MOL0     H75984   7.951   6.601  -0.403  0.0876  0.3550 -2.7467
  576MOL0     H75985   7.946   6.981  -0.437 -1.1954  0.6347 -1.7996
  576MOL0     H75986   8.224   7.121  -0.641  0.6398 -0.2925  2.1749
  576MOL0     H75987   8.063   7.163  -0.576 -0.7209  1.3695 -0.7578
  576MOL0     H75988   7.974   7.072  -0.797 -0.7510  2.5234 -1.0685
  576MOL0     H75989   8.138   7.041  -0.856 -0.7873  0.6177 -1.5840
  576MOL0     H75990   8.171   7.303  -0.820 -0.2837  0.6250 -2.5296
  576MOL0     H75991   8.090   7.240  -0.956  2.8600  1.5127 -0.0546
  576MOL0     H75992   7.987   7.446  -0.819 -0.7004  1.1946 -2.5238
  576MOL0     H75993   7.942   7.323  -0.706 -0.7502  2.8396  0.0435
  576MOL0     H75994   7.936   7.575  -0.973 -1.8427 -2.4151  1.8083
  576MOL0     H75995   7.929   7.646  -1.206  1.6567  0.7944  0.9791
  576MOL0     H75996   7.670   7.289  -1.718 -4.2655 -0.8054 -1.4057
  576MOL0     H75997   7.549   7.368  -1.924  2.4055  0.4199 -1.3910
  576MOL0     H75998   7.528   7.792  -2.008 -0.0477 -0.3172 -2.0786
  576MOL0     H75999   7.365   7.769  -1.939  0.2208 -2.2742  2.0334
  576MOL0     H76000   7.301   7.676  -2.154 -2.0302  2.3425  0.9834
  576MOL0     H76001   7.451   7.736  -2.227 -2.3553 -4.2949 -1.4464
  576MOL0     H76002   7.278   7.933  -2.074 -0.4466  0.2191 -1.0794
  576MOL0     H76003   7.252   7.884  -2.248  0.2426  0.9333 -1.6239
  576MOL0     H76004   7.482   8.034  -2.107 -1.6709 -1.9378  1.6435
  576MOL0     H76005   7.512   7.954  -2.260  0.5131  0.9888  0.2437
  576MOL0     H76006   7.283   8.092  -2.315  1.3595 -3.0554 -1.0193
  576MOL0     H76007   7.440   8.160  -2.327 -1.5553 -0.0089 -1.3702
  576MOL0     H76008   7.421   8.247  -2.089  0.4708  0.2544 -1.8793
  576MOL0     H76009   7.259   8.189  -2.075  1.9613 -2.9123  1.0134
  576MOL0     H76010   7.318   8.352  -2.317  2.8445 -0.2813 -0.0763
  576MOL0     H76011   7.169   8.328  -2.236  0.8159 -1.4381 -1.8127
  576MOL0     H76012   7.268   8.459  -2.034 -2.3647 -0.5494 -0.0355
  576MOL0     H76013   7.215   8.544  -2.185  0.4570 -0.0326 -1.0940
  576MOL0     H76014   7.533   7.755  -1.778  0.6730  0.5439  1.8318
  576MOL0     H76015   7.661   7.706  -1.592  1.8254 -0.3246  0.8540
  576MOL0     H76016   7.715   7.279  -1.313  0.3408  1.4670 -0.9313
  576MOL0     H76017   7.723   7.213  -1.098 -1.8457  0.6210 -2.0151
  576MOL0     H76018   8.447   6.224   0.442  0.2660  0.6284 -0.6488
  576MOL0     H76019   8.376   6.032   0.564  1.6852  1.5383 -0.0958
  576MOL0     H76020   8.213   5.749   0.753  1.2862 -3.3335  0.5801
  576MOL0     H76021   8.176   5.552   0.878 -0.6446  0.3538 -1.3328
  576MOL0     H76022   8.070   5.522   1.147 -0.0737 -0.4895  2.6177
  576MOL0     H76023   8.134   5.413   1.036 -1.3682 -3.0201  0.1056
  576MOL0     H76024   7.988   5.215   1.122 -0.0191 -1.8222  2.4290
  576MOL0     H76025   8.059   5.305   1.242 -1.0081 -1.4568  1.2968
  576MOL0     H76026   7.791   5.390   1.131 -1.2122  0.7091  1.3149
  576MOL0     H76027   7.855   5.428   1.294 -0.4969 -1.9866  0.8153
  576MOL0     H76028   7.745   5.162   1.197 -0.6612 -1.8467  2.3455
  576MOL0     H76029   7.840   5.166   1.345  0.8831 -0.5205  0.0204
  576MOL0     H76030   7.483   5.351   1.487  1.4252  2.9501  0.2306
  576MOL0     H76031   7.773   5.617   0.912  1.4508 -1.6536 -1.2445
  576MOL0     H76032   7.783   5.848   0.811 -0.4750 -0.9061  0.1458
  577MOL0     O76033   2.329   2.255   7.997  0.3888  0.3701 -0.1454
  577MOL0     C76034   2.228   2.192   7.967  0.5994 -0.4646  0.5877
  577MOL0     O76035   2.123   2.179   8.051  0.4379  1.2475  1.1766
  577MOL0     C76036   2.123   2.216   8.182  0.2716 -0.1219  0.8432
  577MOL0     C76037   2.223   2.196   8.264  0.3889 -0.2736  0.0556
  577MOL0     C76038   2.213   2.242   8.397 -0.5896  0.6116 -0.0952
  577MOL0     C76039   2.094   2.296   8.442  0.2795 -0.6722  0.0979
  577MOL0     O76040   2.096   2.330   8.571 -0.2910 -0.0529 -0.3236
  577MOL0     C76041   1.992   2.410   8.626  0.0053  0.1856 -0.5037
  577MOL0     C76042   2.035   2.435   8.773  0.8451  1.0546 -0.7670
  577MOL0     C76043   1.906   2.488   8.844  0.9818  0.0407  1.0817
  577MOL0     C76044   1.938   2.604   8.935 -0.2868  0.2747  0.3726
  577MOL0     C76045   1.820   2.637   9.031 -0.5377 -0.1146 -0.2980
  577MOL0     C76046   1.852   2.749   9.126  0.5956 -0.0594  0.0391
  577MOL0     C76047   1.737   2.811   9.205  0.1396  0.3345 -0.0758
  577MOL0     C76048   1.670   2.913   9.110 -0.1948  0.9311  0.0675
  577MOL0     N76049   1.583   3.009   9.184 -0.7913 -0.1635  0.4941
  577MOL0     C76050   1.536   3.127   9.132 -0.5390  1.0682 -0.5566
  577MOL0     C76051   1.435   3.165   9.219 -0.3128  0.1587  0.4517
  577MOL0     C76052   1.328   3.275   9.199  0.2319 -0.2836  0.4230
  577MOL0     C76053   1.327   3.377   9.316 -0.7505 -0.6475  0.8043
  577MOL0     C76054   1.466   3.452   9.337  0.1616  0.3372 -0.1866
  577MOL0     C76055   1.431   3.563   9.441  0.9071 -1.1946  0.6406
  577MOL0     O76056   1.312   3.644   9.397  0.1575  0.4189  0.9407
  577MOL0     C76057   1.288   3.761   9.468  0.8450 -0.2315 -0.3746
  577MOL0     C76058   1.164   3.774   9.532  0.6089 -0.1016  0.7754
  577MOL0     C76059   1.141   3.902   9.580  0.6226 -0.2302  0.1903
  577MOL0     C76060   1.224   4.013   9.564  0.5993 -0.0091  0.1484
  577MOL0     C76061   1.161   4.154   9.585 -0.6200 -0.3887  0.0498
  577MOL0     O76062   1.249   4.257   9.558  0.7516  0.1713  0.0734
  577MOL0     C76063   1.201   4.381   9.548  0.3290  1.0466 -0.3804
  577MOL0     C76064   1.107   4.413   9.444  0.2306  0.4145  0.2168
  577MOL0     C76065   1.067   4.547   9.426 -1.0003  0.3203 -0.6159
  577MOL0     C76066   1.146   4.651   9.477 -0.2115 -0.1887 -0.3127
  577MOL0     O76067   1.125   4.785   9.440 -0.1525  0.1684  0.4281
  577MOL0     C76068   1.212   4.887   9.498  0.4702  0.3655 -0.2488
  577MOL0     C76069   1.161   4.931   9.640 -0.1518 -0.8833 -0.4549
  577MOL0     C76070   1.031   4.997   9.620  0.3050  0.1261 -0.0099
  577MOL0     C76071   0.960   5.056   9.747 -0.1144  0.6284  0.7992
  577MOL0     C76072   0.855   5.159   9.710 -0.8466 -0.0188 -0.0503
  577MOL0     C76073   0.790   5.218   9.836  0.2069 -0.7960 -1.2339
  577MOL0     C76074   0.679   5.317   9.802  0.0346  0.8734  0.4608
  577MOL0     C76075   0.633   5.394   9.924  0.0445 -0.6184 -0.2564
  577MOL0    Cl76076   0.602   5.276  10.062 -0.4126 -0.5007  0.2351
  577MOL0     C76077   1.239   4.606   9.578 -0.1823 -0.9041  0.4341
  577MOL0     C76078   1.269   4.475   9.607 -0.1577 -0.6166 -0.1080
  577MOL0     O76079   1.046   4.167   9.636  0.0185 -0.6026  0.8819
  577MOL0     C76080   1.339   3.992   9.495 -0.1310 -0.3289 -0.2700
  577MOL0     C76081   1.377   3.867   9.455 -0.1804  0.2991  0.2369
  577MOL0     N76082   1.421   3.066   9.311 -0.6404 -0.8189  0.4848
  577MOL0     N76083   1.512   2.975   9.285  1.1861  0.0956 -0.5513
  577MOL0     C76084   1.987   2.314   8.358 -0.0645  0.2497 -0.8194
  577MOL0     C76085   1.993   2.250   8.235  0.4711 -0.1336 -0.1664
  577MOL0     C76086   2.227   2.115   7.842 -0.1728 -0.0393 -0.9989
  577MOL0     C76087   2.118   2.093   7.759  0.4840 -0.5651  0.2690
  577MOL0     C76088   2.123   2.009   7.648  0.6323 -0.2172 -0.4079
  577MOL0     C76089   2.243   1.953   7.610  0.1591  0.8956  0.4624
  577MOL0     O76090   2.254   1.876   7.491 -0.0957 -0.0528 -0.1723
  577MOL0     C76091   2.164   1.759   7.496 -0.7058 -1.4959 -0.1269
  577MOL0     C76092   2.157   1.704   7.346 -0.4954  0.0425  0.0789
  577MOL0     C76093   2.063   1.783   7.255 -1.0959 -0.5681  0.7064
  577MOL0     C76094   2.045   1.702   7.124 -0.5037 -0.0911 -0.4356
  577MOL0     C76095   2.166   1.668   7.053  0.2777  0.1277 -0.0011
  577MOL0     C76096   2.261   1.630   6.986  0.2461  0.0625 -0.5562
  577MOL0     C76097   2.366   1.968   7.689 -0.1853 -0.6529 -0.6734
  577MOL0     C76098   2.351   2.060   7.800 -0.9231  1.0057 -0.1567
  577MOL0     H76099   2.323   2.167   8.233 -0.8803 -1.9709 -2.9380
  577MOL0     H76100   2.301   2.245   8.460 -1.5338 -0.5000  1.3324
  577MOL0     H76101   1.895   2.359   8.627 -0.0096  0.2021  0.3624
  577MOL0     H76102   1.987   2.508   8.578  0.4912  1.1940  1.3999
  577MOL0     H76103   2.119   2.504   8.788  2.0878 -0.7867  1.4244
  577MOL0     H76104   2.073   2.345   8.822 -3.8802 -0.2815  0.9544
  577MOL0     H76105   1.862   2.410   8.908 -2.8048  0.3210 -0.9621
  577MOL0     H76106   1.830   2.526   8.776 -1.9016 -2.4174  2.6947
  577MOL0     H76107   2.032   2.593   8.988  0.9853  0.0916 -1.8136
  577MOL0     H76108   1.941   2.689   8.866 -0.2961 -2.4595 -3.2967
  577MOL0     H76109   1.803   2.547   9.090 -1.2051 -1.6198 -2.6564
  577MOL0     H76110   1.732   2.663   8.972 -1.7650 -3.3826 -0.0792
  577MOL0     H76111   1.905   2.827   9.070 -0.1688  1.6522  1.5843
  577MOL0     H76112   1.933   2.711   9.189  3.6026  0.3885 -3.1995
  577MOL0     H76113   1.667   2.738   9.244  0.1317 -0.1053 -0.8960
  577MOL0     H76114   1.768   2.869   9.292 -3.1933  2.9213 -0.4057
  577MOL0     H76115   1.616   2.865   9.028 -2.5597  2.3075  0.7237
  577MOL0     H76116   1.747   2.972   9.059 -1.4197  1.0164 -1.7775
  577MOL0     H76117   1.559   3.184   9.042 -5.3291 -0.2277 -2.9773
  577MOL0     H76118   1.230   3.227   9.190  1.2253 -2.6617  1.3555
  577MOL0     H76119   1.345   3.324   9.103  0.8638 -0.6706  0.3280
  577MOL0     H76120   1.298   3.314   9.400 -1.0342 -1.2464  0.2679
  577MOL0     H76121   1.247   3.448   9.293 -0.0254 -0.3286 -0.8912
  577MOL0     H76122   1.542   3.382   9.373  1.2685 -0.2618 -3.3725
  577MOL0     H76123   1.503   3.487   9.240  1.6860 -0.7839 -0.0592
  577MOL0     H76124   1.514   3.628   9.469  1.4811 -0.9293 -1.5126
  577MOL0     H76125   1.406   3.508   9.532  1.1023  0.0167  1.4442
  577MOL0     H76126   1.081   3.705   9.532  0.4597  0.0407 -0.7976
  577MOL0     H76127   1.048   3.927   9.631 -0.3533 -1.1619 -1.0718
  577MOL0     H76128   1.060   4.336   9.384  2.6023 -1.7950  1.0243
  577MOL0     H76129   0.986   4.558   9.355 -1.1412  2.9317 -0.1316
  577MOL0     H76130   1.203   4.983   9.446 -2.1206  0.8777  0.9486
  577MOL0     H76131   1.316   4.855   9.505  0.8113  1.3707 -0.5084
  577MOL0     H76132   1.232   5.007   9.674 -0.2937 -0.4016 -1.2136
  577MOL0     H76133   1.149   4.850   9.712 -0.7537 -0.0193  0.4430
  577MOL0     H76134   0.964   4.927   9.570  1.4326  0.3081 -1.8638
  577MOL0     H76135   1.053   5.083   9.555  1.0338  0.9015  1.2083
  577MOL0     H76136   0.932   4.960   9.793  2.5848 -1.3969 -1.3868
  577MOL0     H76137   1.034   5.105   9.810  1.8661 -0.0811 -0.8762
  577MOL0     H76138   0.775   5.099   9.666 -1.9971 -0.8050  2.8785
  577MOL0     H76139   0.880   5.235   9.635 -3.7613 -1.1742 -2.3985
  577MOL0     H76140   0.875   5.263   9.888  1.8530 -2.5671 -2.2152
  577MOL0     H76141   0.764   5.138   9.906  1.4698 -1.0228 -0.9981
  577MOL0     H76142   0.718   5.383   9.724  1.3627  0.5298  0.7998
  577MOL0     H76143   0.599   5.251   9.768  0.2991  0.9047 -0.2498
  577MOL0     H76144   0.543   5.454   9.905 -0.3885 -0.8520  0.9383
  577MOL0     H76145   0.714   5.459   9.957 -2.5014  1.2050  3.0534
  577MOL0     H76146   1.313   4.677   9.613 -0.7636  0.5613 -1.1521
  577MOL0     H76147   1.341   4.439   9.679 -0.3542 -1.1768 -0.1886
  577MOL0     H76148   1.402   4.077   9.471 -0.0987  0.7682  3.1803
  577MOL0     H76149   1.465   3.854   9.394  1.1949 -0.9803  2.3831
  577MOL0     H76150   1.894   2.346   8.403  0.8200  3.4245 -0.9682
  577MOL0     H76151   1.906   2.259   8.170  0.8519 -1.3202 -0.8654
  577MOL0     H76152   2.022   2.141   7.776 -0.2437 -1.6099 -0.6900
  577MOL0     H76153   2.026   1.990   7.602  0.2948  0.4053  0.0281
  577MOL0     H76154   2.065   1.767   7.541 -0.6962 -1.0326 -0.1811
  577MOL0     H76155   2.226   1.693   7.557  2.9075  1.2548 -0.4638
  577MOL0     H76156   2.259   1.706   7.308 -0.2086 -0.2806  0.8193
  577MOL0     H76157   2.120   1.601   7.342 -0.4426  0.0554 -1.5232
  577MOL0     H76158   2.091   1.887   7.239 -0.8402 -0.3129  2.5737
  577MOL0     H76159   1.965   1.771   7.304 -0.1457 -6.1363  1.9853
  577MOL0     H76160   1.991   1.608   7.141  0.2805 -0.2896  1.1204
  577MOL0     H76161   1.988   1.766   7.056 -0.6448  2.6552  2.0660
  577MOL0     H76162   2.329   1.590   6.913 -0.9774 -3.0811 -0.1520
  577MOL0     H76163   2.463   1.929   7.659  2.0508  2.8574  1.2664
  577MOL0     H76164   2.441   2.091   7.852 -0.9527 -0.0239  0.5289
  578MOL0     O76165   7.191   6.203  11.014 -0.1917 -0.1095 -0.9871
  578MOL0     C76166   7.080   6.164  11.059 -0.7271 -0.0158  0.7310
  578MOL0     O76167   7.054   6.034  11.106 -0.0363 -1.0092  0.3452
  578MOL0     C76168   7.148   5.937  11.118  1.4636 -0.0458 -0.4588
  578MOL0     C76169   7.115   5.842  11.220  0.7321  1.1793  1.0732
  578MOL0     C76170   7.188   5.721  11.233  0.1717 -0.7422  0.0891
  578MOL0     C76171   7.298   5.699  11.154 -0.6517 -0.2518  0.1330
  578MOL0     O76172   7.374   5.594  11.188 -0.5430 -0.2434  0.0080
  578MOL0     C76173   7.471   5.555  11.095 -0.8835 -1.3037  0.7768
  578MOL0     C76174   7.536   5.434  11.144  0.1901  0.3266  0.1189
  578MOL0     C76175   7.598   5.339  11.036  0.2552  0.6028  0.7047
  578MOL0     C76176   7.705   5.235  11.079 -0.0750  0.0323 -0.4507
  578MOL0     C76177   7.846   5.232  11.018 -0.7720 -0.0968 -0.1484
  578MOL0     C76178   7.925   5.114  11.060 -0.1861 -0.1451 -0.6327
  578MOL0     C76179   8.077   5.153  11.057 -0.2680 -0.5494 -1.1977
  578MOL0     C76180   8.162   5.022  11.081  0.4522 -1.1781 -0.2259
  578MOL0     N76181   8.294   5.067  11.091 -0.7082  0.3421  0.1283
  578MOL0     C76182   8.381   5.073  11.201 -0.4441 -0.9172  0.3077
  578MOL0     C76183   8.499   5.095  11.139  0.6420 -1.1139 -0.3697
  578MOL0     C76184   8.628   5.105  11.216  0.4654 -0.8512 -0.1236
  578MOL0     C76185   8.747   5.052  11.129 -0.3202  0.6485 -0.5574
  578MOL0     C76186   8.876   5.031  11.217 -0.0003 -0.4400  0.8652
  578MOL0     C76187   8.995   4.971  11.151 -1.1761 -0.0032  0.5800
  578MOL0     O76188   9.097   4.952  11.247  0.0707  0.3500 -0.3934
  578MOL0     C76189   9.225   5.015  11.248  0.8842 -0.0030  0.5813
  578MOL0     C76190   9.297   5.024  11.369  0.2520 -0.5236  0.3423
  578MOL0     C76191   9.423   5.080  11.370 -0.1631 -0.0450  0.0025
  578MOL0     C76192   9.484   5.125  11.258  0.8740 -1.0021  0.4211
  578MOL0     C76193   9.615   5.183  11.264  0.5829  0.1029  0.8013
  578MOL0     O76194   9.694   5.140  11.368  0.5371 -0.7792 -0.0705
  578MOL0     C76195   9.833   5.136  11.382  0.7985 -0.0123 -0.0518
  578MOL0     C76196   9.913   5.153  11.273 -0.3210  0.1008  0.4586
  578MOL0     C76197  10.050   5.133  11.279  0.4436  0.6883  0.3649
  578MOL0     C76198  10.111   5.106  11.404 -0.8139 -0.5134  0.1390
  578MOL0     O76199  10.245   5.086  11.415 -0.6204  0.3038  0.2315
  578MOL0     C76200  10.345   5.137  11.319  0.6537 -0.1173 -0.5217
  578MOL0     C76201  10.319   5.288  11.281  0.4169 -0.1414 -0.7530
  578MOL0     C76202  10.456   5.362  11.271 -0.0565 -1.0671  0.0097
  578MOL0     C76203  10.437   5.509  11.233 -0.2003  0.6243  0.7446
  578MOL0     C76204  10.543   5.607  11.294 -1.1998  0.4352  0.3193
  578MOL0     C76205  10.688   5.575  11.243 -0.1028 -0.0919  0.3799
  578MOL0     C76206  10.809   5.664  11.296  0.1135  1.0549 -0.3180
  578MOL0     C76207  10.842   5.623  11.445  0.3631 -0.1574 -0.8980
  578MOL0    Cl76208  10.961   5.743  11.499  0.4292 -0.1034  0.3155
  578MOL0     C76209  10.028   5.091  11.520  0.6958 -0.0426  0.1107
  578MOL0     C76210   9.887   5.100  11.506  0.5183  0.2375  0.3146
  578MOL0     O76211   9.650   5.281  11.191  0.4269 -0.1177 -0.0554
  578MOL0     C76212   9.420   5.120  11.129 -0.2340  0.0114 -0.1122
  578MOL0     C76213   9.289   5.072  11.126  0.8116 -0.6638 -0.2432
  578MOL0     N76214   8.484   5.101  11.004  0.4328 -0.2740 -0.5848
  578MOL0     N76215   8.359   5.077  10.974  0.6737  0.0612 -0.8121
  578MOL0     C76216   7.319   5.788  11.041 -1.1167  0.6999 -0.0291
  578MOL0     C76217   7.240   5.901  11.030 -0.3452  0.2809 -0.0648
  578MOL0     C76218   6.976   6.262  11.062  0.8715  0.2408  0.2516
  578MOL0     C76219   6.872   6.249  11.160 -0.2782  0.2407 -0.3666
  578MOL0     C76220   6.771   6.345  11.166  0.4547  0.5901  0.2080
  578MOL0     C76221   6.783   6.462  11.097 -0.0240 -0.0170  0.5829
  578MOL0     O76222   6.689   6.563  11.114  0.4181  0.1941  0.0380
  578MOL0     C76223   6.728   6.698  11.113 -0.4622  0.5257  0.0714
  578MOL0     C76224   6.701   6.760  11.241 -0.2654 -0.3401  0.0116
  578MOL0     C76225   6.733   6.912  11.229 -0.2666 -0.6447 -0.6818
  578MOL0     C76226   6.659   6.989  11.337 -0.2722  0.1865  0.3523
  578MOL0     C76227   6.519   6.989  11.313 -0.0785  0.0041 -0.0656
  578MOL0     C76228   6.398   6.986  11.294 -0.3485  0.1001  0.2022
  578MOL0     C76229   6.889   6.472  10.997  0.4525 -0.6687 -0.6735
  578MOL0     C76230   6.978   6.377  10.984 -0.5284  0.9511  0.8318
  578MOL0     H76231   7.023   5.856  11.276  1.0795 -0.3439  2.0778
  578MOL0     H76232   7.174   5.648  11.312 -3.0544 -0.9401 -0.5405
  578MOL0     H76233   7.539   5.636  11.065  1.1230 -2.9927  0.5694
  578MOL0     H76234   7.415   5.542  11.002  1.3449  2.6622 -1.4391
  578MOL0     H76235   7.460   5.377  11.199 -1.3401  0.0462 -2.1503
  578MOL0     H76236   7.616   5.461  11.214 -0.4208  2.7971 -0.0451
  578MOL0     H76237   7.636   5.404  10.957  1.0816 -0.5878  0.1031
  578MOL0     H76238   7.515   5.290  10.984  0.6001 -1.0105  1.5930
  578MOL0     H76239   7.694   5.241  11.188 -6.9253 -1.6223 -0.5463
  578MOL0     H76240   7.658   5.138  11.057 -1.6265  0.3390  1.2155
  578MOL0     H76241   7.897   5.327  11.041  0.4925 -0.8014  0.0690
  578MOL0     H76242   7.837   5.234  10.909 -0.9337  1.3921 -0.1312
  578MOL0     H76243   7.884   5.034  10.998 -2.1857 -0.0865  0.4973
  578MOL0     H76244   7.891   5.086  11.161  1.9142  0.7369  0.3819
  578MOL0     H76245   8.106   5.189  10.958  3.6029  3.0787  0.9033
  578MOL0     H76246   8.106   5.230  11.130 -1.4626 -1.1569 -0.0392
  578MOL0     H76247   8.146   4.970  10.986  0.1208  0.3366 -1.0347
  578MOL0     H76248   8.129   4.963  11.166 -2.4296 -1.8304 -1.6506
  578MOL0     H76249   8.366   5.057  11.307 -2.4548  0.5876  0.3063
  578MOL0     H76250   8.618   5.068  11.318  1.2599  1.1358  0.7060
  578MOL0     H76251   8.650   5.212  11.223 -1.0705 -0.5869  1.0250
  578MOL0     H76252   8.757   5.128  11.051  0.7389  1.1292  0.0302
  578MOL0     H76253   8.723   4.952  11.091  0.1459 -0.2160  1.2795
  578MOL0     H76254   8.895   5.135  11.246 -3.6387  0.8323 -0.7946
  578MOL0     H76255   8.849   4.976  11.308 -1.8393  0.9799  1.2353
  578MOL0     H76256   9.027   5.025  11.061  0.7246  3.0591  2.9119
  578MOL0     H76257   8.967   4.870  11.122 -0.4887 -0.4206  1.3379
  578MOL0     H76258   9.258   4.991  11.465 -0.8611  0.1288  0.1219
  578MOL0     H76259   9.470   5.096  11.467 -0.2480  1.4802 -0.1866
  578MOL0     H76260   9.858   5.159  11.179  0.6125 -0.9187 -0.1786
  578MOL0     H76261  10.101   5.132  11.183 -1.3925 -0.2235 -0.6501
  578MOL0     H76262  10.335   5.068  11.235  0.1168 -0.7736  0.0691
  578MOL0     H76263  10.447   5.109  11.346  0.3915 -1.6532 -1.0221
  578MOL0     H76264  10.253   5.337  11.353  1.2140  0.5929 -0.5048
  578MOL0     H76265  10.269   5.282  11.184 -1.5835  1.9413  0.0543
  578MOL0     H76266  10.522   5.314  11.198  0.0840  1.5833 -1.7370
  578MOL0     H76267  10.510   5.349  11.365  1.3633  3.3982  0.0517
  578MOL0     H76268  10.438   5.501  11.124  1.9288 -3.2411  0.8558
  578MOL0     H76269  10.340   5.550  11.264 -1.8911 -2.4795 -0.0350
  578MOL0     H76270  10.538   5.586  11.401  3.2196 -0.7815  0.4943
  578MOL0     H76271  10.523   5.714  11.282  1.7055  0.8201 -2.9587
  578MOL0     H76272  10.676   5.605  11.139 -3.9714 -1.6629  0.2134
  578MOL0     H76273  10.709   5.467  11.246 -2.3724 -0.5576  1.2305
  578MOL0     H76274  10.899   5.656  11.235 -0.2803  1.0553 -0.9039
  578MOL0     H76275  10.779   5.769  11.292  2.0011  1.5881 -2.1642
  578MOL0     H76276  10.876   5.521  11.464 -0.6011 -0.2774  0.2828
  578MOL0     H76277  10.749   5.634  11.501  0.7914  0.0545 -0.2163
  578MOL0     H76278  10.060   5.059  11.618  1.4065 -2.9987 -0.9761
  578MOL0     H76279   9.823   5.085  11.592 -0.4323 -0.0092 -0.4267
  578MOL0     H76280   9.466   5.166  11.042  0.1044  1.7711  0.9362
  578MOL0     H76281   9.227   5.070  11.037  0.3037 -1.0433  0.1146
  578MOL0     H76282   7.402   5.770  10.972  2.1255 -0.3111  3.7629
  578MOL0     H76283   7.262   5.972  10.951  2.8409 -0.0878  0.3644
  578MOL0     H76284   6.889   6.169  11.230 -0.5624  1.1126  0.7251
  578MOL0     H76285   6.690   6.344  11.239 -1.0018  2.0723 -1.3111
  578MOL0     H76286   6.674   6.756  11.038  0.7747  0.4155 -0.9340
  578MOL0     H76287   6.834   6.708  11.089 -0.7022  0.1220 -1.2294
  578MOL0     H76288   6.594   6.745  11.260  0.0442 -0.8184  1.4845
  578MOL0     H76289   6.761   6.706  11.314  0.2702 -0.5224 -0.5509
  578MOL0     H76290   6.707   6.956  11.133  2.5653  3.2710  0.0832
  578MOL0     H76291   6.841   6.929  11.237 -0.4248 -0.3744  1.5850
  578MOL0     H76292   6.685   6.959  11.439  1.4607 -3.2344 -0.9396
  578MOL0     H76293   6.695   7.091  11.322 -1.8682  0.8357  0.6555
  578MOL0     H76294   6.303   6.949  11.260 -0.6756 -1.2863  2.4323
  578MOL0     H76295   6.902   6.563  10.939 -0.7882  1.3523  2.0159
  578MOL0     H76296   7.055   6.377  10.907 -1.0460 -0.7858  0.2755
  579MOL0     O76297   1.956  11.277   8.146 -0.1047 -0.1064 -0.6346
  579MOL0     C76298   1.913  11.170   8.194 -0.1087 -0.3712 -0.7967
  579MOL0     O76299   1.787  11.131   8.180 -0.5833 -0.4412 -0.5321
  579MOL0     C76300   1.682  11.218   8.137  0.8291  0.3371 -0.7243
  579MOL0     C76301   1.559  11.156   8.132  0.1979  0.4693 -0.1362
  579MOL0     C76302   1.440  11.223   8.096  0.6957  0.3381  0.4443
  579MOL0     C76303   1.440  11.360   8.082  0.9086  0.6123  0.1430
  579MOL0     O76304   1.336  11.429   8.028  0.3315 -0.3630  0.4014
  579MOL0     C76305   1.332  11.413   7.891  0.2323 -0.0122  0.9372
  579MOL0     C76306   1.199  11.450   7.841 -0.2710  0.9749 -0.0670
  579MOL0     C76307   1.178  11.600   7.855 -0.2959  1.4577 -0.4951
  579MOL0     C76308   1.055  11.659   7.800  0.9184 -0.8300  0.1029
  579MOL0     C76309   0.925  11.643   7.880  0.1588 -0.4036  0.4933
  579MOL0     C76310   0.875  11.756   7.986 -0.8491 -1.0333  0.0809
  579MOL0     C76311   0.977  11.783   8.098  0.4750  0.5079  0.5140
  579MOL0     C76312   0.979  11.652   8.190 -0.0383 -0.0430  0.6304
  579MOL0     N76313   1.089  11.675   8.282 -0.1611 -1.0082  0.2409
  579MOL0     C76314   1.196  11.593   8.298 -0.6842  0.2990  1.0924
  579MOL0     C76315   1.276  11.655   8.387  0.4437 -0.2481  0.7288
  579MOL0     C76316   1.398  11.609   8.461  0.2209  0.5040 -0.3149
  579MOL0     C76317   1.339  11.527   8.569 -0.5556  0.3131 -0.5299
  579MOL0     C76318   1.441  11.423   8.629  0.0423 -0.0710 -0.7895
  579MOL0     C76319   1.479  11.300   8.543  0.2341  0.8545 -0.8799
  579MOL0     O76320   1.579  11.219   8.607 -0.1175 -0.4075 -0.4552
  579MOL0     C76321   1.711  11.266   8.615 -0.4329  0.6714 -0.4395
  579MOL0     C76322   1.775  11.330   8.510  0.6780 -0.0100  0.4431
  579MOL0     C76323   1.906  11.357   8.519 -0.1319  0.3102  0.3231
  579MOL0     C76324   1.974  11.331   8.640  0.1132  0.2777 -0.3803
  579MOL0     C76325   2.115  11.379   8.671 -0.1800  1.2218  0.2729
  579MOL0     O76326   2.143  11.411   8.801  0.1402  1.3503 -0.2903
  579MOL0     C76327   2.251  11.489   8.831  0.5401 -0.1294 -0.7071
  579MOL0     C76328   2.320  11.574   8.742 -0.0309  0.3870  0.7633
  579MOL0     C76329   2.438  11.634   8.778 -1.2403  0.2421  0.5485
  579MOL0     C76330   2.494  11.632   8.905 -0.6192 -0.9702 -0.1434
  579MOL0     O76331   2.615  11.687   8.942  0.6352  0.1177  0.6345
  579MOL0     C76332   2.729  11.616   8.897  0.5903  0.6581 -0.3711
  579MOL0     C76333   2.770  11.661   8.760  0.0572 -1.0113  0.5030
  579MOL0     C76334   2.897  11.582   8.710 -0.2383 -0.2215  0.0187
  579MOL0     C76335   2.913  11.616   8.561  0.5335 -0.1149  0.1393
  579MOL0     C76336   3.047  11.589   8.511  0.1799 -0.2694 -0.0450
  579MOL0     C76337   3.077  11.443   8.502  0.1491  0.3765 -0.0263
  579MOL0     C76338   3.228  11.423   8.454  0.6662  0.0738  1.0124
  579MOL0     C76339   3.277  11.277   8.489  0.6753 -0.1613 -0.9792
  579MOL0    Cl76340   3.153  11.162   8.430 -0.0245 -0.0251  0.3057
  579MOL0     C76341   2.414  11.565   8.999 -0.3230  0.3457 -0.0115
  579MOL0     C76342   2.302  11.495   8.961 -0.1890  0.1545 -0.1393
  579MOL0     O76343   2.196  11.373   8.577 -0.3320  0.6149 -0.0691
  579MOL0     C76344   1.903  11.265   8.745  0.3314  0.5914 -0.2894
  579MOL0     C76345   1.774  11.225   8.727  0.2475 -0.6455 -0.9426
  579MOL0     N76346   1.207  11.768   8.432 -0.7648 -1.1627 -0.5843
  579MOL0     N76347   1.096  11.776   8.369 -0.4916  0.6619 -0.4900
  579MOL0     C76348   1.560  11.429   8.093 -0.4851  1.3071  0.1107
  579MOL0     C76349   1.685  11.360   8.110  0.5447  0.6190 -0.6586
  579MOL0     C76350   2.016  11.088   8.275  0.1441  1.4412 -0.6532
  579MOL0     C76351   1.980  10.960   8.307  0.0243  1.2229 -0.2139
  579MOL0     C76352   2.065  10.877   8.373 -0.8559  0.3366 -0.4153
  579MOL0     C76353   2.187  10.929   8.405 -0.2335 -0.1420  0.4320
  579MOL0     O76354   2.286  10.861   8.474 -0.2784  0.0041  0.7914
  579MOL0     C76355   2.245  10.758   8.565  0.8173 -0.3869 -0.5337
  579MOL0     C76356   2.326  10.744   8.696 -0.7243  0.6566  0.8169
  579MOL0     C76357   2.476  10.693   8.667 -0.0317 -0.8296 -0.1803
  579MOL0     C76358   2.552  10.810   8.601  0.7902  0.0615 -0.9717
  579MOL0     C76359   2.692  10.801   8.637  0.5345  0.0713 -0.1450
  579MOL0     C76360   2.799  10.781   8.673  0.6188  0.5121  0.8875
  579MOL0     C76361   2.227  11.053   8.373 -0.6266 -0.9685 -0.5048
  579MOL0     C76362   2.142  11.137   8.303 -0.4613  0.2797  0.4541
  579MOL0     H76363   1.576  11.050   8.153  3.3490  0.4782 -2.0007
  579MOL0     H76364   1.346  11.169   8.081  2.1664 -1.7740 -1.9063
  579MOL0     H76365   1.343  11.307   7.867 -2.4422 -0.2770  0.5401
  579MOL0     H76366   1.410  11.468   7.838  0.6266 -1.2357  0.2036
  579MOL0     H76367   1.125  11.383   7.887  0.1426  1.0601  0.7479
  579MOL0     H76368   1.223  11.429   7.736 -0.2576 -1.8125  0.4089
  579MOL0     H76369   1.263  11.655   7.814 -0.8429  2.8353  0.1264
  579MOL0     H76370   1.185  11.623   7.962  1.9041  0.5196 -0.3859
  579MOL0     H76371   1.060  11.768   7.808 -3.0683 -0.5716  1.2922
  579MOL0     H76372   1.030  11.624   7.699 -0.8758 -0.2898  0.3109
  579MOL0     H76373   0.931  11.545   7.928 -2.9156 -1.2322 -0.5736
  579MOL0     H76374   0.843  11.629   7.808  2.4265  2.6761 -3.0386
  579MOL0     H76375   0.785  11.727   8.040  0.4459 -0.7088  2.5782
  579MOL0     H76376   0.866  11.851   7.931  3.8165  1.5755  3.0623
  579MOL0     H76377   1.077  11.800   8.056 -1.1203  1.4533 -3.4182
  579MOL0     H76378   0.938  11.878   8.136 -0.2781  1.0890 -1.5444
  579MOL0     H76379   0.994  11.565   8.125 -0.2281  0.8009 -0.5798
  579MOL0     H76380   0.878  11.646   8.231 -0.9419  1.3945 -1.2159
  579MOL0     H76381   1.227  11.507   8.239  0.5070  0.5934  1.2827
  579MOL0     H76382   1.457  11.686   8.513  3.1252 -1.3547 -0.6009
  579MOL0     H76383   1.463  11.548   8.397 -0.7791  0.0125 -0.8714
  579MOL0     H76384   1.256  11.471   8.523  1.6784 -2.2804 -1.6827
  579MOL0     H76385   1.300  11.595   8.646 -1.3348 -1.1042  0.3757
  579MOL0     H76386   1.529  11.481   8.656 -1.1144  0.2597  2.8849
  579MOL0     H76387   1.398  11.383   8.722  0.0062  0.3084 -0.6394
  579MOL0     H76388   1.511  11.322   8.440 -1.6667 -4.3620 -2.9415
  579MOL0     H76389   1.403  11.223   8.530  2.3846 -1.9084  1.6149
  579MOL0     H76390   1.735  11.342   8.410 -1.3169 -3.1067  0.7273
  579MOL0     H76391   1.953  11.405   8.434 -0.9349  0.8073  0.1557
  579MOL0     H76392   2.281  11.583   8.641  0.6870 -0.7006  0.3695
  579MOL0     H76393   2.478  11.697   8.699 -4.8473  2.8733  0.5305
  579MOL0     H76394   2.713  11.508   8.898 -0.0150  0.7409 -0.2809
  579MOL0     H76395   2.808  11.638   8.969  0.0367  0.7760  0.2126
  579MOL0     H76396   2.789  11.769   8.757 -1.5927 -0.6670  1.1819
  579MOL0     H76397   2.696  11.627   8.687  1.2583 -0.7595 -0.8767
  579MOL0     H76398   2.888  11.473   8.717 -2.4678 -0.0606  0.3542
  579MOL0     H76399   2.987  11.607   8.767 -0.7858  1.2214  0.2987
  579MOL0     H76400   2.829  11.570   8.508 -0.6083  2.1457 -0.1213
  579MOL0     H76401   2.898  11.723   8.545  1.2254 -0.3467 -2.4302
  579MOL0     H76402   3.121  11.645   8.568 -1.3729  1.0943  0.6982
  579MOL0     H76403   3.062  11.632   8.411 -1.1206  0.3729  0.0185
  579MOL0     H76404   3.015  11.387   8.430  4.1536 -1.0089 -2.7313
  579MOL0     H76405   3.062  11.392   8.598 -1.7785 -0.7349 -0.8499
  579MOL0     H76406   3.239  11.446   8.348  0.5152 -0.3884  0.8959
  579MOL0     H76407   3.295  11.488   8.511  1.1310  0.4353  0.0790
  579MOL0     H76408   3.302  11.255   8.593 -3.7150 -3.4387 -0.3161
  579MOL0     H76409   3.378  11.275   8.448  1.1494 -0.8011  0.1553
  579MOL0     H76410   2.441  11.545   9.102 -0.8921  1.0681  0.2895
  579MOL0     H76411   2.247  11.441   9.038  0.8391 -1.8968 -0.7971
  579MOL0     H76412   1.950  11.252   8.842  0.2545  2.6262  0.0721
  579MOL0     H76413   1.714  11.175   8.803 -2.4417 -1.9358 -3.7030
  579MOL0     H76414   1.556  11.536   8.074 -1.2488  1.5007  1.2512
  579MOL0     H76415   1.769  11.427   8.125  1.4067 -0.6453  0.4197
  579MOL0     H76416   1.887  10.909   8.283  0.4385 -1.1640  2.6161
  579MOL0     H76417   2.044  10.771   8.388  2.0504 -0.4165 -1.0259
  579MOL0     H76418   2.249  10.661   8.514  3.7457 -0.4538 -0.3774
  579MOL0     H76419   2.142  10.768   8.600  1.5963  0.3032  1.7740
  579MOL0     H76420   2.326  10.832   8.761 -2.0650  1.7464 -0.5719
  579MOL0     H76421   2.273  10.663   8.747  0.2183 -0.7843 -0.3816
  579MOL0     H76422   2.481  10.605   8.603  1.1359  0.6214 -2.2083
  579MOL0     H76423   2.525  10.683   8.765  0.3577  1.9615  0.0066
  579MOL0     H76424   2.534  10.805   8.493  1.5045  2.2519 -1.2349
  579MOL0     H76425   2.510  10.903   8.639 -2.3051 -0.8922 -1.7181
  579MOL0     H76426   2.901  10.797   8.700  0.6371  0.4619  0.8499
  579MOL0     H76427   2.325  11.084   8.408 -2.4386  1.3208  3.0901
  579MOL0     H76428   2.178  11.237   8.284 -0.9427  0.5899  1.1557
  580MOL0     O76429  10.465   2.988   5.069  0.1522  1.3208 -0.0037
  580MOL0     C76430  10.400   2.963   4.968  0.2634  0.2539 -0.8530
  580MOL0     O76431  10.278   2.906   4.969 -0.4031 -0.2701 -0.2315
  580MOL0     C76432  10.220   2.865   5.088 -0.2678  0.0059 -0.0119
  580MOL0     C76433  10.295   2.807   5.189 -0.1981 -0.6860  0.1120
  580MOL0     C76434  10.230   2.755   5.307 -0.5459  0.9677 -0.1934
  580MOL0     C76435  10.090   2.737   5.317  0.1783  0.0860  0.2369
  580MOL0     O76436  10.032   2.671   5.419 -0.7698 -0.1081 -0.4921
  580MOL0     C76437   9.965   2.753   5.518 -0.3713 -0.1515  0.7622
  580MOL0     C76438   9.928   2.676   5.646  0.4742  1.2463 -0.7793
  580MOL0     C76439   9.833   2.556   5.635 -1.2005 -0.5068  0.5378
  580MOL0     C76440   9.807   2.504   5.779 -0.4081  0.2464  0.1579
  580MOL0     C76441   9.675   2.424   5.778  0.8060  0.8388  0.1471
  580MOL0     C76442   9.686   2.308   5.675  0.1067  0.6654 -0.8038
  580MOL0     C76443   9.577   2.207   5.690 -0.3310  0.4679 -0.2361
  580MOL0     C76444   9.439   2.261   5.653 -0.5846  1.2002 -0.5298
  580MOL0     N76445   9.426   2.292   5.510  0.5517 -0.1047  0.5489
  580MOL0     C76446   9.450   2.198   5.408 -0.5952 -1.4247 -0.0261
  580MOL0     C76447   9.413   2.256   5.292 -0.1095 -0.0923 -0.6432
  580MOL0     C76448   9.428   2.214   5.155 -0.2971 -0.7718 -0.1333
  580MOL0     C76449   9.577   2.243   5.126  0.1292  1.0631  0.5711
  580MOL0     C76450   9.625   2.213   4.982 -0.8572 -0.7333 -0.4153
  580MOL0     C76451   9.773   2.195   4.984 -0.2153  0.9131  0.1111
  580MOL0     O76452   9.844   2.308   5.037 -0.4421  0.0598 -0.4907
  580MOL0     C76453   9.977   2.302   5.034 -0.1513  0.2747 -0.3668
  580MOL0     C76454  10.063   2.195   4.995  0.3637 -0.4542 -0.5919
  580MOL0     C76455  10.204   2.194   5.008 -0.2210 -0.3202 -0.2820
  580MOL0     C76456  10.266   2.310   5.062  0.0316  0.0255 -0.0287
  580MOL0     C76457  10.415   2.310   5.090  0.2915  0.4823  0.2685
  580MOL0     O76458  10.482   2.186   5.099 -0.8377 -0.0421  0.5670
  580MOL0     C76459  10.618   2.175   5.110  0.1487 -0.2341  0.9229
  580MOL0     C76460  10.667   2.044   5.144 -0.4830  0.3194 -0.0026
  580MOL0     C76461  10.802   2.016   5.164  0.8681  0.1235 -0.1502
  580MOL0     C76462  10.899   2.120   5.140  0.5736 -0.0835 -0.6495
  580MOL0     O76463  11.036   2.108   5.145 -0.0391  0.3570 -1.1427
  580MOL0     C76464  11.072   1.967   5.164 -0.3341 -0.1718 -0.5326
  580MOL0     C76465  11.219   1.931   5.156 -0.3644  1.0114 -0.1723
  580MOL0     C76466  11.267   1.966   5.023  0.5748  0.3825 -0.2173
  580MOL0     C76467  11.404   1.901   5.015 -0.3800  0.4513 -0.2832
  580MOL0     C76468  11.491   1.990   4.933  0.5936  0.4556  0.3200
  580MOL0     C76469  11.627   1.930   4.900  0.5318  0.2647  0.0602
  580MOL0     C76470  11.711   2.021   4.813  0.3762 -0.4645  0.4372
  580MOL0     C76471  11.821   1.955   4.722  0.1307  0.0655 -0.5862
  580MOL0    Cl76472  11.929   2.072   4.653  0.4217 -0.2959  0.1406
  580MOL0     C76473  10.850   2.244   5.109 -0.4590 -0.3652 -0.0105
  580MOL0     C76474  10.717   2.271   5.091 -1.3736  0.9830  0.7100
  580MOL0     O76475  10.461   2.412   5.133  0.0343 -0.1764 -0.9858
  580MOL0     C76476  10.187   2.412   5.106  0.1178 -0.7434  0.0767
  580MOL0     C76477  10.044   2.413   5.100  0.2999  0.6631 -0.4966
  580MOL0     N76478   9.390   2.392   5.325 -0.0571  0.5970 -0.5544
  580MOL0     N76479   9.400   2.408   5.446  1.0237 -0.3409 -0.4313
  580MOL0     C76480  10.021   2.808   5.220 -0.5514 -0.5321 -0.4378
  580MOL0     C76481  10.082   2.870   5.103 -0.3646  0.4730  0.0194
  580MOL0     C76482  10.455   3.001   4.842 -0.0667 -0.3925 -0.2088
  580MOL0     C76483  10.569   3.084   4.835 -0.5588  0.2480 -0.0067
  580MOL0     C76484  10.639   3.097   4.714 -0.2346  0.4103  0.2229
  580MOL0     C76485  10.590   3.043   4.594 -0.5005  0.3365  0.0157
  580MOL0     O76486  10.665   3.071   4.483 -0.2468  0.2959 -0.0425
  580MOL0     C76487  10.613   3.040   4.354 -1.0735 -0.7766  0.7448
  580MOL0     C76488  10.670   2.914   4.315  0.2421  0.2722  0.3550
  580MOL0     C76489  10.828   2.908   4.302 -0.3115  0.2463  0.3001
  580MOL0     C76490  10.876   2.790   4.220 -0.6283  0.1857  0.0827
  580MOL0     C76491  10.848   2.659   4.289 -0.1726 -0.4518 -0.5265
  580MOL0     C76492  10.831   2.554   4.335  0.6443 -1.0194  0.1160
  580MOL0     C76493  10.479   2.968   4.593  0.1362 -0.0222  0.2240
  580MOL0     C76494  10.409   2.950   4.715  0.3545 -0.0333  0.7046
  580MOL0     H76495  10.403   2.801   5.185  0.5649  5.1024  2.4865
  580MOL0     H76496  10.306   2.728   5.379 -1.8569  3.4880  2.3319
  580MOL0     H76497   9.877   2.800   5.475 -1.9070 -2.9853  0.5561
  580MOL0     H76498  10.033   2.837   5.537 -2.9468  1.9163  1.4697
  580MOL0     H76499   9.878   2.753   5.705 -2.8325  0.2792 -2.0780
  580MOL0     H76500  10.010   2.633   5.704 -0.3960  0.9018  0.2279
  580MOL0     H76501   9.886   2.484   5.573 -1.6159 -0.3697  0.0214
  580MOL0     H76502   9.737   2.583   5.589 -2.0026 -2.3676  1.0332
  580MOL0     H76503   9.887   2.435   5.808 -3.1226 -4.1405 -1.6989
  580MOL0     H76504   9.799   2.586   5.851  0.4430 -0.0291  0.5838
  580MOL0     H76505   9.586   2.483   5.752  1.6457  1.1484 -2.2598
  580MOL0     H76506   9.668   2.380   5.878  0.4158 -3.2636 -1.4929
  580MOL0     H76507   9.779   2.256   5.701  0.7809  2.3319  0.2974
  580MOL0     H76508   9.690   2.333   5.569 -3.5833  1.0593 -0.9670
  580MOL0     H76509   9.605   2.126   5.621  0.6449  0.3865  0.2262
  580MOL0     H76510   9.580   2.173   5.794  2.5862  3.8209  0.9812
  580MOL0     H76511   9.408   2.342   5.720 -3.5571 -0.7714  0.6762
  580MOL0     H76512   9.367   2.180   5.672  0.0645  1.3161  3.2791
  580MOL0     H76513   9.483   2.096   5.426 -1.5607 -1.4322  1.9939
  580MOL0     H76514   9.379   2.288   5.092 -0.4290  1.8639  2.8455
  580MOL0     H76515   9.403   2.111   5.127 -0.1318 -0.9784  0.4704
  580MOL0     H76516   9.625   2.175   5.198 -1.3537 -0.1653  0.4667
  580MOL0     H76517   9.611   2.346   5.138  0.1126  1.5026 -2.4060
  580MOL0     H76518   9.563   2.128   4.953  0.6876 -1.9230 -0.3511
  580MOL0     H76519   9.595   2.293   4.913  0.5150  1.2976  1.2028
  580MOL0     H76520   9.812   2.172   4.884  3.3024  1.0643  1.3093
  580MOL0     H76521   9.801   2.108   5.044  1.3214  1.5687  0.3895
  580MOL0     H76522  10.006   2.112   4.956 -0.1218 -0.9422  1.0730
  580MOL0     H76523  10.265   2.110   4.977  0.8695  1.0321 -1.9659
  580MOL0     H76524  10.602   1.957   5.146  0.2835 -0.3239 -1.5236
  580MOL0     H76525  10.810   1.909   5.182 -1.7381 -0.6524 -2.8675
  580MOL0     H76526  11.029   1.900   5.088 -1.0943 -0.5660  0.2216
  580MOL0     H76527  11.038   1.938   5.264 -1.5718 -0.2548 -0.9607
  580MOL0     H76528  11.229   1.829   5.192 -1.3708  1.6248  2.0942
  580MOL0     H76529  11.271   2.000   5.223  0.1406  0.9293 -0.4805
  580MOL0     H76530  11.268   2.075   5.013  0.5620  0.4629  0.6424
  580MOL0     H76531  11.206   1.917   4.946  1.3843  1.8793 -1.8688
  580MOL0     H76532  11.433   1.883   5.119 -2.1333 -0.8318  0.0415
  580MOL0     H76533  11.391   1.806   4.962 -0.6070  0.9045 -1.0539
  580MOL0     H76534  11.515   2.077   4.994  1.3061 -1.7756  3.4120
  580MOL0     H76535  11.431   2.017   4.845  0.4535 -1.3530 -0.1903
  580MOL0     H76536  11.612   1.832   4.853  3.3502 -0.9633  1.4982
  580MOL0     H76537  11.678   1.917   4.996  3.7736  0.6950 -1.4570
  580MOL0     H76538  11.644   2.066   4.739  0.0671  2.3551  2.2824
  580MOL0     H76539  11.745   2.111   4.866 -1.9943  1.8671 -1.6731
  580MOL0     H76540  11.780   1.897   4.639 -0.3094  2.1393 -1.8863
  580MOL0     H76541  11.883   1.890   4.784  1.5760 -0.1446 -2.1759
  580MOL0     H76542  10.915   2.328   5.084  0.2469 -1.2332 -1.1989
  580MOL0     H76543  10.682   2.367   5.056 -2.5941  0.7623  1.2485
  580MOL0     H76544  10.225   2.501   5.156  0.6195 -0.7522 -0.2861
  580MOL0     H76545   9.985   2.497   5.134 -1.7513 -0.2955 -1.5085
  580MOL0     H76546   9.912   2.806   5.216 -0.5729 -2.5092  0.1670
  580MOL0     H76547  10.025   2.913   5.021 -0.2324 -0.5274 -0.6143
  580MOL0     H76548  10.622   3.138   4.913  0.6144 -0.5764 -0.2079
  580MOL0     H76549  10.731   3.155   4.716  0.5701 -0.8459  1.0932
  580MOL0     H76550  10.656   3.116   4.289  0.2901 -0.0666  2.4007
  580MOL0     H76551  10.504   3.037   4.338 -0.9231  0.5840 -0.7984
  580MOL0     H76552  10.636   2.848   4.396 -0.1465  1.6654  1.3558
  580MOL0     H76553  10.622   2.889   4.220 -0.1455 -0.9027  0.8365
  580MOL0     H76554  10.863   2.910   4.406 -2.8000  0.1712  1.2121
  580MOL0     H76555  10.870   2.998   4.256 -1.0472  0.4125 -0.0568
  580MOL0     H76556  10.819   2.786   4.127  1.3073 -2.2185 -1.1347
  580MOL0     H76557  10.984   2.801   4.204 -0.0367 -0.8772  2.8013
  580MOL0     H76558  10.821   2.451   4.360  0.4358 -0.6790  1.5526
  580MOL0     H76559  10.446   2.915   4.505 -1.2211  0.2862  0.5338
  580MOL0     H76560  10.322   2.885   4.710 -1.6350  2.5692 -1.5262
  581MOL0     O76561   4.523   7.620   9.165  0.2706  0.8942 -1.5741
  581MOL0     C76562   4.597   7.692   9.240  0.0563  0.3061 -0.6717
  581MOL0     O76563   4.573   7.717   9.371  0.0647  0.2493  1.2122
  581MOL0     C76564   4.450   7.687   9.426 -0.8202 -1.3153 -0.8601
  581MOL0     C76565   4.451   7.650   9.560  0.5837  0.2290  0.2244
  581MOL0     C76566   4.323   7.639   9.628 -0.2258 -0.5460  0.0523
  581MOL0     C76567   4.203   7.659   9.561 -0.0994  0.1912 -0.4199
  581MOL0     O76568   4.096   7.646   9.649 -0.5074 -0.3048  0.6808
  581MOL0     C76569   3.958   7.683   9.608 -0.2771 -0.2580  1.2807
  581MOL0     C76570   3.880   7.697   9.737 -0.4283  0.3604 -0.1033
  581MOL0     C76571   3.743   7.741   9.705 -0.1940 -0.6313  0.5566
  581MOL0     C76572   3.632   7.694   9.799  0.5702 -0.3081 -1.0202
  581MOL0     C76573   3.614   7.777   9.935  0.2768 -0.5573  1.3344
  581MOL0     C76574   3.728   7.778  10.039 -0.1288  0.2847 -0.8533
  581MOL0     C76575   3.682   7.854  10.170  1.1938 -0.2608  0.7871
  581MOL0     C76576   3.595   7.769  10.266  0.0001  0.2246 -0.4325
  581MOL0     N76577   3.536   7.859  10.370  1.4029  0.8406  0.0180
  581MOL0     C76578   3.423   7.942  10.341 -0.5917 -0.4034  0.2424
  581MOL0     C76579   3.390   7.995  10.464 -0.3501 -0.4629  0.9472
  581MOL0     C76580   3.293   8.112  10.485 -0.8480  0.1301  0.7956
  581MOL0     C76581   3.359   8.231  10.401  0.1542 -0.4141  0.4987
  581MOL0     C76582   3.319   8.370  10.466  0.2382  0.2258 -0.1341
  581MOL0     C76583   3.164   8.391  10.473 -0.6543 -0.7816  0.3295
  581MOL0     O76584   3.095   8.396  10.348 -0.0078  0.8667 -0.4841
  581MOL0     C76585   2.965   8.352  10.325 -1.1178 -0.0540 -0.3254
  581MOL0     C76586   2.873   8.312  10.429  0.7109 -0.3408  0.5241
  581MOL0     C76587   2.731   8.302  10.414  0.2283  1.1040  0.0394
  581MOL0     C76588   2.681   8.305  10.279 -0.3142  0.1600  0.2986
  581MOL0     C76589   2.537   8.298  10.255 -0.0148  0.3579  0.1949
  581MOL0     O76590   2.454   8.274  10.349 -0.7061 -0.7423  0.7977
  581MOL0     C76591   2.322   8.278  10.323 -0.4305  0.3766 -0.2754
  581MOL0     C76592   2.265   8.182  10.235  0.5986 -1.1837 -0.1083
  581MOL0     C76593   2.133   8.179  10.207 -0.2006  0.1293 -0.0175
  581MOL0     C76594   2.052   8.293  10.243 -0.0492  1.0126  0.0711
  581MOL0     O76595   1.923   8.316  10.209  0.5140 -0.6693  0.3549
  581MOL0     C76596   1.870   8.242  10.104 -0.7972  0.1969 -0.3603
  581MOL0     C76597   1.737   8.298  10.081 -0.4296 -0.0682  0.4702
  581MOL0     C76598   1.692   8.273   9.941  0.8092 -0.4207  0.1109
  581MOL0     C76599   1.553   8.316   9.908 -0.3354 -0.7094  0.9813
  581MOL0     C76600   1.526   8.293   9.755 -0.6264  1.0924 -0.4845
  581MOL0     C76601   1.392   8.364   9.714  0.1092  0.5712 -1.1531
  581MOL0     C76602   1.264   8.303   9.789 -0.4018 -0.0591 -0.3356
  581MOL0     C76603   1.220   8.160   9.749  0.5741  0.8198 -0.0701
  581MOL0    Cl76604   1.148   8.150   9.588  0.0036 -0.3232  0.1078
  581MOL0     C76605   2.104   8.383  10.335  0.1477  0.2702  0.2063
  581MOL0     C76606   2.239   8.381  10.370 -0.2072  0.1117  0.1260
  581MOL0     O76607   2.506   8.322  10.140  0.9246  0.6750  0.3296
  581MOL0     C76608   2.774   8.343  10.185 -0.0721  0.2359 -0.3018
  581MOL0     C76609   2.906   8.366  10.201 -0.1977 -0.7461  0.5420
  581MOL0     N76610   3.477   7.949  10.562  0.0152 -1.6500 -0.0596
  581MOL0     N76611   3.569   7.878  10.508 -0.5991  0.8174  0.0409
  581MOL0     C76612   4.206   7.709   9.427 -0.8956 -0.1869  0.6087
  581MOL0     C76613   4.334   7.731   9.364  0.3011  0.5483  0.1425
  581MOL0     C76614   4.720   7.755   9.182  0.2689 -0.3558 -0.7363
  581MOL0     C76615   4.767   7.699   9.061  0.3586 -0.4488 -0.6377
  581MOL0     C76616   4.878   7.749   9.002 -0.1664  0.0449 -0.5638
  581MOL0     C76617   4.942   7.860   9.051  0.2527 -0.2452 -0.1530
  581MOL0     O76618   5.060   7.909   8.995 -0.4900  0.2518  0.1904
  581MOL0     C76619   5.149   7.819   8.922  0.6941 -0.2294  0.7247
  581MOL0     C76620   5.290   7.807   8.986  0.7374  0.6061  0.4504
  581MOL0     C76621   5.299   7.756   9.122 -0.6113  0.7332 -0.2640
  581MOL0     C76622   5.435   7.726   9.174  0.2819 -0.2906  0.2321
  581MOL0     C76623   5.503   7.620   9.097  0.3009 -0.1488  0.1540
  581MOL0     C76624   5.526   7.533   9.008  0.4143  0.4807 -0.0221
  581MOL0     C76625   4.892   7.920   9.165 -1.0117 -0.2743 -0.6853
  581MOL0     C76626   4.782   7.868   9.234  0.2422  0.7713 -0.0207
  581MOL0     H76627   4.545   7.646   9.613 -0.1229 -1.3656  1.4417
  581MOL0     H76628   4.312   7.611   9.732 -3.3192 -1.0640 -0.3157
  581MOL0     H76629   3.929   7.593   9.552 -1.8011 -0.3718  2.1982
  581MOL0     H76630   3.937   7.768   9.542 -0.9913  0.2729  2.1635
  581MOL0     H76631   3.928   7.762   9.812 -1.9637  2.7490 -1.0628
  581MOL0     H76632   3.868   7.594   9.770 -2.1267  1.2399  2.3612
  581MOL0     H76633   3.706   7.702   9.609 -1.9926 -0.1963  1.0407
  581MOL0     H76634   3.740   7.850   9.704  2.3645 -0.4675  1.8012
  581MOL0     H76635   3.538   7.706   9.744  1.7461  0.1310 -3.0371
  581MOL0     H76636   3.635   7.588   9.823 -1.0564  0.0962  1.2850
  581MOL0     H76637   3.530   7.724   9.981 -0.6416 -0.6691 -0.4151
  581MOL0     H76638   3.579   7.878   9.913 -0.6874 -0.4316  3.2398
  581MOL0     H76639   3.817   7.828  10.000  0.9578 -1.7741 -1.1667
  581MOL0     H76640   3.759   7.675  10.060 -2.2005  0.0658  1.5402
  581MOL0     H76641   3.767   7.886  10.231  2.4101 -2.8827  0.6048
  581MOL0     H76642   3.623   7.939  10.135 -1.5986 -2.0467  0.8008
  581MOL0     H76643   3.653   7.695  10.323 -0.2348  0.4136  0.0516
  581MOL0     H76644   3.511   7.723  10.213 -0.8944 -0.7313  1.6997
  581MOL0     H76645   3.383   7.960  10.242  2.1892  1.4948 -0.6610
  581MOL0     H76646   3.285   8.134  10.592  1.9881 -1.9588  1.5885
  581MOL0     H76647   3.192   8.093  10.448  0.1015 -0.1452 -1.8532
  581MOL0     H76648   3.334   8.214  10.296  0.5716 -4.2022  0.8440
  581MOL0     H76649   3.469   8.228  10.407  0.3456  2.5650 -0.2515
  581MOL0     H76650   3.366   8.377  10.565  0.2388 -1.1189 -0.0220
  581MOL0     H76651   3.356   8.450  10.401 -2.1717  1.7551  0.2389
  581MOL0     H76652   3.155   8.490  10.518 -2.4995 -1.4854  1.6448
  581MOL0     H76653   3.123   8.315  10.540  2.1481 -2.7695 -0.0497
  581MOL0     H76654   2.893   8.297  10.535 -2.4752  1.4272  1.5087
  581MOL0     H76655   2.660   8.271  10.490  2.4588  0.4534  1.9732
  581MOL0     H76656   2.341   8.111  10.205  2.1645 -0.0516  1.0176
  581MOL0     H76657   2.084   8.109  10.140 -0.8971  0.1094  0.4987
  581MOL0     H76658   1.878   8.134  10.123  3.1644  0.3170 -0.3295
  581MOL0     H76659   1.929   8.251  10.011  0.7152 -4.4566 -0.1207
  581MOL0     H76660   1.737   8.407  10.094 -3.5152  0.0768  0.1350
  581MOL0     H76661   1.666   8.253  10.152  0.5235 -2.7213 -0.1636
  581MOL0     H76662   1.687   8.166   9.920 -0.2265  0.0159 -2.1872
  581MOL0     H76663   1.758   8.330   9.875 -0.9850  0.6958 -0.7856
  581MOL0     H76664   1.479   8.270   9.973 -1.8926  1.0925  0.5566
  581MOL0     H76665   1.557   8.422   9.932 -0.4842 -0.6141  0.5874
  581MOL0     H76666   1.532   8.187   9.729 -1.6844  0.5772  1.2188
  581MOL0     H76667   1.600   8.328   9.683 -1.8771  0.1227 -2.3417
  581MOL0     H76668   1.377   8.362   9.606 -2.2033  2.3313 -0.9389
  581MOL0     H76669   1.398   8.466   9.753  4.9940 -0.0088  0.2710
  581MOL0     H76670   1.270   8.311   9.898 -1.9312  1.6519 -0.3320
  581MOL0     H76671   1.183   8.367   9.753  1.1577  1.3386 -1.4874
  581MOL0     H76672   1.145   8.125   9.821 -1.2649  0.9867 -1.7872
  581MOL0     H76673   1.304   8.090   9.746 -0.5756 -0.5978 -0.6611
  581MOL0     H76674   2.038   8.462  10.367 -0.3780 -1.4252  3.8207
  581MOL0     H76675   2.265   8.465  10.432 -2.1871 -0.0657  1.3148
  581MOL0     H76676   2.747   8.351  10.080  1.7838 -0.2493 -0.8421
  581MOL0     H76677   2.962   8.401  10.115 -1.0454  1.0329  0.6797
  581MOL0     H76678   4.113   7.731   9.375 -0.0403 -0.3730 -1.0338
  581MOL0     H76679   4.326   7.769   9.263 -0.3100 -2.1039 -0.8893
  581MOL0     H76680   4.711   7.611   9.031 -3.2970  0.8052  1.7209
  581MOL0     H76681   4.912   7.707   8.907 -0.6398  2.3695 -1.8397
  581MOL0     H76682   5.160   7.855   8.820  0.1237 -1.7215  0.1116
  581MOL0     H76683   5.110   7.721   8.894 -1.7493  0.8635  0.0688
  581MOL0     H76684   5.343   7.729   8.931  1.2019 -1.3379  3.3821
  581MOL0     H76685   5.335   7.906   8.984 -0.2943  1.0883  0.5540
  581MOL0     H76686   5.245   7.663   9.143 -2.1425  1.5760 -0.3336
  581MOL0     H76687   5.257   7.829   9.191 -2.8540 -0.3272 -0.3916
  581MOL0     H76688   5.490   7.820   9.170  1.4333 -0.9869 -1.8063
  581MOL0     H76689   5.424   7.697   9.279 -1.7493  0.9325  0.4074
  581MOL0     H76690   5.536   7.449   8.942  2.0737 -0.4230  1.2996
  581MOL0     H76691   4.943   8.010   9.198 -0.8630  0.1520 -2.0351
  581MOL0     H76692   4.746   7.910   9.327  0.1485 -2.8259  1.7176
  582MOL0     O76693  11.117  10.134   2.521 -1.1383  0.1095  0.1735
  582MOL0     C76694  11.222  10.093   2.481  0.4978 -0.2735 -0.1268
  582MOL0     O76695  11.239  10.038   2.354 -0.6187  0.1895 -0.1988
  582MOL0     C76696  11.148  10.057   2.250 -0.7631  0.3272 -0.0936
  582MOL0     C76697  11.009  10.055   2.273 -0.6627  0.6561 -0.5337
  582MOL0     C76698  10.937  10.082   2.158 -0.2572  0.1910 -0.2085
  582MOL0     C76699  10.985  10.087   2.025  0.6995  0.5050 -0.3236
  582MOL0     O76700  10.886  10.111   1.927  0.9200 -0.0829  0.6253
  582MOL0     C76701  10.894  10.230   1.847 -0.5355 -0.3858 -0.8804
  582MOL0     C76702  10.786  10.221   1.743  1.5064  0.5385  0.6055
  582MOL0     C76703  10.780  10.347   1.662 -0.3258  1.3454 -0.4110
  582MOL0     C76704  10.674  10.340   1.551 -1.2125 -0.1491  0.3290
  582MOL0     C76705  10.639  10.486   1.520 -0.5736 -0.7018  0.8820
  582MOL0     C76706  10.510  10.491   1.429 -0.4382 -0.3308  0.0847
  582MOL0     C76707  10.468  10.643   1.395  0.1385 -0.3167  0.5882
  582MOL0     C76708  10.331  10.654   1.333  0.1709  0.4664 -0.3728
  582MOL0     N76709  10.335  10.592   1.196  0.4217 -0.1081 -0.3657
  582MOL0     C76710  10.289  10.468   1.145 -0.1346 -0.4155 -0.8468
  582MOL0     C76711  10.289  10.474   1.012  0.0791 -1.0016  0.1774
  582MOL0     C76712  10.274  10.350   0.930  0.7541  0.0472  0.5639
  582MOL0     C76713  10.129  10.319   0.914  0.2607  0.1905 -1.0944
  582MOL0     C76714  10.050  10.413   0.821 -1.1401  0.2328 -0.2959
  582MOL0     C76715  10.091  10.393   0.674  0.1468  0.5053 -0.0647
  582MOL0     O76716  10.011  10.473   0.587 -0.4758 -0.5988 -0.1532
  582MOL0     C76717  10.062  10.499   0.457 -0.0787  0.0412 -0.5482
  582MOL0     C76718  10.123  10.401   0.382 -0.2843  1.0863 -0.5289
  582MOL0     C76719  10.153  10.423   0.247  0.0797 -0.6196 -0.2217
  582MOL0     C76720  10.120  10.536   0.179 -0.5645  0.3584 -0.1543
  582MOL0     C76721  10.152  10.540   0.029 -0.8797  0.7183 -0.2334
  582MOL0     O76722  10.134  10.661  -0.029  0.7423  0.1593  0.3329
  582MOL0     C76723  10.152  10.675  -0.164 -0.4786  0.5081  1.4313
  582MOL0     C76724  10.288  10.650  -0.211  0.0414  0.0441  0.3612
  582MOL0     C76725  10.312  10.664  -0.350 -0.0115  0.7876 -0.4065
  582MOL0     C76726  10.210  10.704  -0.442 -0.4380 -0.9881  0.0831
  582MOL0     O76727  10.248  10.710  -0.584  0.8219 -0.6011 -0.9675
  582MOL0     C76728  10.149  10.678  -0.682  0.3736 -0.9123 -0.5374
  582MOL0     C76729  10.117  10.523  -0.659 -0.7075  0.3160  0.3620
  582MOL0     C76730  10.245  10.435  -0.651  0.7865  0.2912  0.3118
  582MOL0     C76731  10.229  10.319  -0.554 -0.0181 -0.0115 -0.2953
  582MOL0     C76732  10.359  10.250  -0.537  0.3711  0.2518  0.2445
  582MOL0     C76733  10.462  10.315  -0.436  0.8910 -0.2020  0.2475
  582MOL0     C76734  10.406  10.324  -0.294  0.3283 -0.8242 -0.1815
  582MOL0     C76735  10.509  10.368  -0.197 -0.0194  0.2463 -0.0791
  582MOL0    Cl76736  10.664  10.284  -0.204 -0.3408  0.1793 -0.2218
  582MOL0     C76737  10.087  10.740  -0.385  0.1181  0.2115  0.0435
  582MOL0     C76738  10.057  10.714  -0.251  0.1397 -0.5940  0.2719
  582MOL0     O76739  10.207  10.438  -0.017 -0.2104 -0.6811 -0.3671
  582MOL0     C76740  10.051  10.635   0.250  0.6348  0.1645 -1.3049
  582MOL0     C76741  10.033  10.619   0.390 -0.0567  1.3254  0.5783
  582MOL0     N76742  10.331  10.596   0.981  0.4665 -0.3471 -0.3434
  582MOL0     N76743  10.362  10.663   1.085 -0.1237  0.0333  0.3745
  582MOL0     C76744  11.122  10.092   2.004  0.0903  0.3874  0.4706
  582MOL0     C76745  11.205  10.076   2.121 -0.0508 -0.2964 -0.1262
  582MOL0     C76746  11.341  10.094   2.572 -0.5778  0.2768 -1.0768
  582MOL0     C76747  11.320  10.133   2.708 -0.8700  0.1212 -0.5636
  582MOL0     C76748  11.412  10.101   2.809 -0.2749  0.0080  0.5216
  582MOL0     C76749  11.516  10.007   2.781 -0.0214 -0.0249  0.5117
  582MOL0     O76750  11.611   9.988   2.878  0.2764  0.5183  1.2833
  582MOL0     C76751  11.641   9.849   2.904  0.6588  1.1559  0.4738
  582MOL0     C76752  11.695   9.838   3.048  0.5349 -1.1837  0.1338
  582MOL0     C76753  11.719   9.693   3.087 -1.0728  0.4652 -0.2671
  582MOL0     C76754  11.848   9.628   3.015  0.4370  0.5657 -0.1688
  582MOL0     C76755  11.970   9.621   3.086  0.1281 -0.0224 -0.7293
  582MOL0     C76756  12.075   9.601   3.146 -0.0193 -0.1402  0.4063
  582MOL0     C76757  11.534   9.963   2.641  0.6998 -0.3580  0.6724
  582MOL0     C76758  11.448  10.017   2.542  0.2961  0.8236  0.4153
  582MOL0     H76759  10.958  10.047   2.368 -2.2822 -0.3877 -1.4198
  582MOL0     H76760  10.832  10.108   2.159 -0.2240  0.4667 -1.4017
  582MOL0     H76761  10.987  10.240   1.790 -0.7999  2.8512 -0.9238
  582MOL0     H76762  10.871  10.312   1.916 -0.8578  0.3003 -1.7870
  582MOL0     H76763  10.696  10.221   1.804  0.9849  0.6855 -0.1446
  582MOL0     H76764  10.791  10.134   1.677  0.7608 -0.2875  1.6241
  582MOL0     H76765  10.874  10.364   1.608  1.9303 -0.4779  2.6060
  582MOL0     H76766  10.780  10.429   1.733  2.5971  0.1246  1.1642
  582MOL0     H76767  10.692  10.280   1.461 -3.0262  1.8148 -1.4971
  582MOL0     H76768  10.589  10.282   1.589  1.0263 -3.8568  0.1351
  582MOL0     H76769  10.727  10.535   1.476 -0.2889 -0.0675  2.1092
  582MOL0     H76770  10.603  10.547   1.603 -3.9124  0.1625 -1.0052
  582MOL0     H76771  10.438  10.428   1.482  0.6586 -1.0535  0.7375
  582MOL0     H76772  10.536  10.428   1.343  0.3383  0.0378  0.0453
  582MOL0     H76773  10.474  10.692   1.493  0.8296  0.6260  0.0962
  582MOL0     H76774  10.541  10.684   1.325  1.9987  0.3847  2.7804
  582MOL0     H76775  10.296  10.757   1.320 -0.0644  0.3210 -0.9347
  582MOL0     H76776  10.258  10.598   1.391  0.9244  2.5612  2.8565
  582MOL0     H76777  10.271  10.377   1.201 -0.0665 -0.7651 -1.3910
  582MOL0     H76778  10.332  10.268   0.973 -0.2398  0.5428  2.9972
  582MOL0     H76779  10.328  10.359   0.836  1.2373 -1.2678  0.7004
  582MOL0     H76780  10.079  10.313   1.011  1.7285 -2.6247 -0.4242
  582MOL0     H76781  10.109  10.223   0.865  0.7294  0.2871 -1.4777
  582MOL0     H76782   9.942  10.405   0.836 -1.1029  0.8154  0.3319
  582MOL0     H76783  10.073  10.515   0.853  0.6778  0.6396 -2.5747
  582MOL0     H76784  10.078  10.286   0.659 -1.1199  0.1441  2.9271
  582MOL0     H76785  10.199  10.410   0.660  0.2918 -0.4149 -0.0813
  582MOL0     H76786  10.161  10.314   0.433  2.9277  1.9655 -1.1766
  582MOL0     H76787  10.222  10.352   0.201  1.1859 -0.3347  0.9549
  582MOL0     H76788  10.367  10.617  -0.145  0.8747 -2.4719 -1.7574
  582MOL0     H76789  10.408  10.632  -0.387  0.1284 -0.0160  0.6120
  582MOL0     H76790  10.177  10.698  -0.785  0.0001  1.0186 -0.3034
  582MOL0     H76791  10.051  10.723  -0.664  0.1987 -1.0290 -1.1902
  582MOL0     H76792  10.062  10.481  -0.744  1.5086  0.7050 -1.3244
  582MOL0     H76793  10.066  10.509  -0.563 -0.8002  1.4624  0.4920
  582MOL0     H76794  10.332  10.498  -0.628 -0.3653  0.5241  4.9309
  582MOL0     H76795  10.250  10.382  -0.747 -3.2620 -0.3397  0.2700
  582MOL0     H76796  10.196  10.366  -0.461  0.5987  0.6965 -0.4221
  582MOL0     H76797  10.162  10.243  -0.594  3.6231 -3.1638 -1.0496
  582MOL0     H76798  10.411  10.241  -0.633  2.4017  0.8419  1.2292
  582MOL0     H76799  10.327  10.151  -0.502  3.3506 -0.6355  0.7723
  582MOL0     H76800  10.495  10.415  -0.465  1.3910  0.7673  3.7225
  582MOL0     H76801  10.544  10.243  -0.446  0.6546 -0.2023 -2.7283
  582MOL0     H76802  10.323  10.395  -0.287  1.7558  0.8837 -0.0636
  582MOL0     H76803  10.363  10.229  -0.261 -1.8787  0.0788 -0.2442
  582MOL0     H76804  10.465  10.360  -0.097  0.2656 -0.2022  0.0117
  582MOL0     H76805  10.532  10.473  -0.215 -2.1110  1.0667  1.5211
  582MOL0     H76806  10.018  10.791  -0.451  1.2303  1.0640 -0.4985
  582MOL0     H76807   9.966  10.756  -0.210 -0.6287 -3.2672  1.5026
  582MOL0     H76808  10.004  10.724   0.209 -1.6757  0.1523  0.9938
  582MOL0     H76809   9.962  10.693   0.427 -1.9852 -0.0225 -0.2872
  582MOL0     H76810  11.153  10.107   1.901  0.1337 -1.0351  0.2468
  582MOL0     H76811  11.313  10.071   2.114 -0.1510 -0.3995 -2.5309
  582MOL0     H76812  11.241  10.200   2.741  0.9164  1.2964  1.6354
  582MOL0     H76813  11.382  10.129   2.910 -1.7968  0.5716 -0.0600
  582MOL0     H76814  11.716   9.802   2.840 -1.4081 -1.9608  0.1549
  582MOL0     H76815  11.548   9.792   2.898  0.5858  1.0865  1.9194
  582MOL0     H76816  11.784   9.901   3.045 -0.4136  0.3841  2.2804
  582MOL0     H76817  11.624   9.883   3.118 -0.1545  0.5419 -1.5901
  582MOL0     H76818  11.632   9.639   3.049 -0.8614  1.2441 -1.9369
  582MOL0     H76819  11.728   9.685   3.196 -2.5423 -0.7296 -0.2143
  582MOL0     H76820  11.808   9.528   2.994  2.5364 -0.3741  0.0870
  582MOL0     H76821  11.874   9.676   2.921  2.7855 -0.9734 -0.3725
  582MOL0     H76822  12.160   9.576   3.206 -1.0112 -2.2489  1.0274
  582MOL0     H76823  11.614   9.892   2.621 -0.1377 -1.1758  0.1668
  582MOL0     H76824  11.476   9.982   2.443  1.7401  0.4832  0.9192
  583MOL0     O76825   9.500   2.671   9.787 -0.5047  0.3504 -0.5492
  583MOL0     C76826   9.416   2.752   9.743  0.0580  0.2809  0.3139
  583MOL0     O76827   9.436   2.883   9.731 -0.2418  0.8256 -1.1887
  583MOL0     C76828   9.544   2.936   9.785 -0.3335  0.5103  0.0593
  583MOL0     C76829   9.667   2.930   9.721  0.3733  0.6017 -0.2941
  583MOL0     C76830   9.778   3.001   9.765 -0.1828 -0.3508  0.1249
  583MOL0     C76831   9.768   3.070   9.892  0.3769  0.4273  0.8320
  583MOL0     O76832   9.877   3.125   9.943  0.0493 -0.3774  0.1180
  583MOL0     C76833   9.874   3.178  10.075 -0.0473 -0.7070 -0.2678
  583MOL0     C76834  10.001   3.257  10.127 -0.2450  0.0305  0.6771
  583MOL0     C76835   9.967   3.322  10.270 -0.4232 -0.2023  0.5882
  583MOL0     C76836   9.950   3.230  10.370 -0.0533  0.3655  0.1566
  583MOL0     C76837   9.894   3.300  10.492  0.5481  0.1442 -0.5906
  583MOL0     C76838   9.832   3.210  10.600 -0.1027  0.4355 -0.1134
  583MOL0     C76839   9.769   3.281  10.722 -0.5458 -0.1211  0.4758
  583MOL0     C76840   9.702   3.184  10.825  0.5640  0.6078 -0.0173
  583MOL0     N76841   9.798   3.087  10.875  0.4083  0.6925  0.2051
  583MOL0     C76842   9.784   2.951  10.858  0.4878  0.1563 -0.2663
  583MOL0     C76843   9.891   2.905  10.918  0.9816 -0.1415  0.5546
  583MOL0     C76844   9.929   2.763  10.915  0.7368  0.0798 -0.0263
  583MOL0     C76845  10.047   2.728  10.817  0.0199  0.4487  0.2288
  583MOL0     C76846  10.103   2.585  10.826 -0.3051 -0.3342 -0.3774
  583MOL0     C76847  10.220   2.567  10.725  0.8352  0.8098 -0.4137
  583MOL0     O76848  10.328   2.637  10.777  0.5151  0.1357 -0.2076
  583MOL0     C76849  10.402   2.700  10.679 -0.0365  0.0315 -0.2916
  583MOL0     C76850  10.463   2.622  10.571 -0.4721 -0.4617 -0.1864
  583MOL0     C76851  10.535   2.689  10.471  0.2305  0.3447 -0.2297
  583MOL0     C76852  10.554   2.819  10.476 -0.2301  0.9319  0.5363
  583MOL0     C76853  10.618   2.885  10.357  0.2405  0.0132  0.4499
  583MOL0     O76854  10.745   2.836  10.315  0.6106 -0.1928 -0.7757
  583MOL0     C76855  10.808   2.883  10.207  0.9708  1.5527  0.3845
  583MOL0     C76856  10.907   2.791  10.160  0.4035 -0.0067 -0.1209
  583MOL0     C76857  10.997   2.837  10.057  0.6731 -0.4562 -0.9247
  583MOL0     C76858  10.974   2.953   9.983  0.4315  0.1344  0.1848
  583MOL0     O76859  11.061   3.001   9.881 -0.2879  1.3120  0.0230
  583MOL0     C76860  11.088   3.138   9.857 -0.1390 -0.5928 -1.4699
  583MOL0     C76861  11.199   3.153   9.759  0.2846  0.3124 -0.4435
  583MOL0     C76862  11.341   3.118   9.813  0.4180 -0.1648  0.4465
  583MOL0     C76863  11.460   3.137   9.720  0.3159 -0.1635  0.0916
  583MOL0     C76864  11.578   3.212   9.787  0.3612  0.6472  1.0415
  583MOL0     C76865  11.703   3.196   9.693 -1.2451  0.2042  0.2536
  583MOL0     C76866  11.825   3.250   9.772  0.4429 -0.1641 -0.1557
  583MOL0     C76867  11.957   3.237   9.703 -0.0094  0.5728  0.4606
  583MOL0    Cl76868  12.087   3.285   9.814  0.2319 -0.5752  0.1116
  583MOL0     C76869  10.886   3.042  10.039  0.5855 -0.1170  0.8019
  583MOL0     C76870  10.800   3.010  10.144 -0.2731 -0.2528  0.2164
  583MOL0     O76871  10.544   2.942  10.283  0.0094 -0.6265 -0.4188
  583MOL0     C76872  10.503   2.893  10.575 -0.6318  0.4202 -0.8760
  583MOL0     C76873  10.423   2.835  10.676 -0.6415  0.4814 -0.7528
  583MOL0     N76874   9.971   3.006  10.955 -0.5930  0.6011  0.5204
  583MOL0     N76875   9.915   3.119  10.931 -0.1618 -0.6083  0.7024
  583MOL0     C76876   9.641   3.076   9.950  0.1472  0.3618 -0.7819
  583MOL0     C76877   9.529   3.018   9.899 -0.1082 -0.1502  0.4654
  583MOL0     C76878   9.288   2.700   9.705 -0.5466  0.6639  0.7088
  583MOL0     C76879   9.272   2.559   9.688  0.3796 -0.8370 -0.7495
  583MOL0     C76880   9.150   2.517   9.651 -0.2676 -0.3329  0.1665
  583MOL0     C76881   9.029   2.591   9.639 -1.0334 -0.0710 -0.3786
  583MOL0     O76882   8.911   2.531   9.619 -0.5633  0.3689 -0.1956
  583MOL0     C76883   8.823   2.586   9.518  0.6454 -0.4717 -1.1122
  583MOL0     C76884   8.828   2.520   9.381  0.5619  0.3291  0.4496
  583MOL0     C76885   8.781   2.372   9.389 -0.7505  0.9952  0.6420
  583MOL0     C76886   8.651   2.341   9.459 -0.3134  0.0660  0.3320
  583MOL0     C76887   8.537   2.402   9.399  1.1911  0.5035 -0.1206
  583MOL0     C76888   8.439   2.450   9.342 -0.9172  0.3819  1.0038
  583MOL0     C76889   9.051   2.727   9.664 -0.7269  1.3189  0.0346
  583MOL0     C76890   9.178   2.776   9.690 -0.9561 -0.9753  0.2076
  583MOL0     H76891   9.668   2.866   9.634 -2.7710  1.9378 -1.4793
  583MOL0     H76892   9.876   2.971   9.728  0.4760  1.5752  0.1998
  583MOL0     H76893   9.846   3.092  10.136  1.8473 -0.6056  0.8379
  583MOL0     H76894   9.805   3.263  10.082  1.1793  0.6333 -2.7077
  583MOL0     H76895  10.019   3.327  10.045  1.1768 -1.4072 -0.3029
  583MOL0     H76896  10.083   3.185  10.138 -0.4452 -0.0667  1.6377
  583MOL0     H76897   9.875   3.381  10.264  1.0678  2.1819 -0.2621
  583MOL0     H76898  10.048   3.392  10.292 -0.3022 -0.5518  1.2845
  583MOL0     H76899   9.871   3.163  10.333  1.0402 -0.6118 -0.4745
  583MOL0     H76900  10.043   3.176  10.388  0.0944  0.3032 -0.7518
  583MOL0     H76901   9.815   3.368  10.457  0.4335 -0.6297 -1.9026
  583MOL0     H76902   9.960   3.370  10.543  0.5781  0.3637 -0.9250
  583MOL0     H76903   9.903   3.135  10.638 -1.7013 -0.8275  0.5119
  583MOL0     H76904   9.753   3.160  10.542  0.1577  1.2691 -1.2276
  583MOL0     H76905   9.845   3.340  10.774 -0.6601 -0.3738  0.9322
  583MOL0     H76906   9.699   3.362  10.700 -1.1912 -0.7366  0.2446
  583MOL0     H76907   9.623   3.135  10.768  1.0010  0.4636 -0.4990
  583MOL0     H76908   9.659   3.237  10.910 -2.4777 -0.5756 -0.6940
  583MOL0     H76909   9.703   2.888  10.821  1.4631 -0.3732 -1.5684
  583MOL0     H76910   9.841   2.698  10.913 -0.2517  1.3675  0.4460
  583MOL0     H76911   9.975   2.739  11.011  0.6206 -1.3411 -0.3035
  583MOL0     H76912  10.134   2.789  10.842  0.7365  0.2384 -1.5991
  583MOL0     H76913  10.017   2.759  10.717 -0.0617  2.6314  0.8626
  583MOL0     H76914  10.124   2.554  10.929 -1.7373 -2.3035 -0.6084
  583MOL0     H76915  10.020   2.521  10.794  0.7390 -1.3723 -1.0997
  583MOL0     H76916  10.189   2.613  10.631 -2.0089 -3.0566 -1.6115
  583MOL0     H76917  10.238   2.459  10.723  3.5949  1.0962  2.0758
  583MOL0     H76918  10.446   2.515  10.569 -2.0734 -0.2729  1.0199
  583MOL0     H76919  10.579   2.628  10.391  0.3651 -3.1604  2.2673
  583MOL0     H76920  10.929   2.694  10.203  2.6268 -0.2168 -1.5564
  583MOL0     H76921  11.067   2.780   9.997  0.8445  0.4845 -1.6477
  583MOL0     H76922  11.108   3.186   9.954  0.3375 -3.6339  0.0418
  583MOL0     H76923  10.999   3.183   9.812  0.3277  0.1719 -1.6408
  583MOL0     H76924  11.205   3.257   9.724  0.6332 -0.0769 -1.5825
  583MOL0     H76925  11.180   3.089   9.673  1.6937  0.1529 -0.6539
  583MOL0     H76926  11.342   3.015   9.850  1.8254 -0.3815 -0.1272
  583MOL0     H76927  11.350   3.185   9.899 -0.0173 -0.2964  0.5976
  583MOL0     H76928  11.488   3.039   9.681  1.5170  0.2215 -0.0633
  583MOL0     H76929  11.424   3.185   9.628  3.2847  3.0132  0.3865
  583MOL0     H76930  11.588   3.151   9.877  0.4519  1.5578  1.6617
  583MOL0     H76931  11.560   3.318   9.805 -2.2243  1.1392 -3.1751
  583MOL0     H76932  11.677   3.255   9.604 -2.2169 -2.2712 -1.1869
  583MOL0     H76933  11.725   3.092   9.667  1.0472  0.6111  0.3975
  583MOL0     H76934  11.813   3.353   9.806  1.2084  0.3527 -1.3823
  583MOL0     H76935  11.843   3.195   9.865 -0.7674  0.6033  0.5640
  583MOL0     H76936  11.968   3.293   9.609 -0.6738 -1.1774 -0.7046
  583MOL0     H76937  11.979   3.142   9.654 -2.8057  1.2157 -2.3394
  583MOL0     H76938  10.868   3.143  10.002 -0.2663 -0.6908 -0.3955
  583MOL0     H76939  10.724   3.079  10.179 -0.3585  0.0346 -0.5266
  583MOL0     H76940  10.512   3.001  10.579 -2.3747  0.5861  2.6238
  583MOL0     H76941  10.363   2.888  10.749  0.2580 -0.4416  0.7072
  583MOL0     H76942   9.627   3.133  10.042 -0.6562 -0.8780 -0.1120
  583MOL0     H76943   9.428   3.013   9.937  0.0291 -2.6490  0.6928
  583MOL0     H76944   9.339   2.479   9.717 -0.9969 -2.1695 -1.0945
  583MOL0     H76945   9.133   2.416   9.617 -3.4862  0.2536 -0.3504
  583MOL0     H76946   8.841   2.692   9.504 -0.4076 -0.5254 -3.3718
  583MOL0     H76947   8.721   2.586   9.557  0.8215  1.6126 -0.5866
  583MOL0     H76948   8.770   2.570   9.303 -0.2752 -2.0556 -0.5632
  583MOL0     H76949   8.931   2.522   9.344 -0.1011  0.1809 -1.5506
  583MOL0     H76950   8.857   2.314   9.443  1.3519  0.2435 -2.8081
  583MOL0     H76951   8.788   2.330   9.288 -1.9818  1.7366  0.2279
  583MOL0     H76952   8.639   2.233   9.472 -4.1131  0.3128  0.0555
  583MOL0     H76953   8.655   2.391   9.556 -0.1510  3.1997 -1.1479
  583MOL0     H76954   8.353   2.497   9.299  0.4665  2.9007  0.7782
  583MOL0     H76955   8.962   2.788   9.654 -1.3052  0.2094 -2.0012
  583MOL0     H76956   9.180   2.882   9.716  0.0066 -1.7272  3.7581
  584MOL0     O76957   2.859  10.751   2.507 -1.1680 -0.0052 -0.4644
  584MOL0     C76958   2.782  10.682   2.445  0.8339 -0.3028 -0.1263
  584MOL0     O76959   2.777  10.690   2.310 -0.0350 -0.2810 -0.0629
  584MOL0     C76960   2.883  10.759   2.252 -0.0264 -0.4114  0.1970
  584MOL0     C76961   2.960  10.690   2.164 -0.3062  0.2995 -0.1345
  584MOL0     C76962   3.068  10.744   2.094  0.8217 -0.1222  0.5253
  584MOL0     C76963   3.097  10.879   2.106 -0.2690 -0.2104  0.4374
  584MOL0     O76964   3.195  10.918   2.017 -0.6142  0.3493  0.0932
  584MOL0     C76965   3.265  11.034   2.057 -0.5640 -0.9100 -0.5532
  584MOL0     C76966   3.385  11.060   1.967 -1.3414 -0.2335 -0.1757
  584MOL0     C76967   3.351  11.063   1.820  0.0468  0.0195 -0.2636
  584MOL0     C76968   3.470  11.120   1.735  0.2087 -0.1611 -1.1840
  584MOL0     C76969   3.601  11.045   1.768 -0.6212  0.1700 -0.1461
  584MOL0     C76970   3.707  11.100   1.671  0.4991  0.0789 -0.0960
  584MOL0     C76971   3.836  11.012   1.680  0.3677 -0.8977  0.4293
  584MOL0     C76972   3.837  10.860   1.653  0.1543  0.3772 -0.6132
  584MOL0     N76973   3.741  10.821   1.543  0.7578 -0.1843  0.0608
  584MOL0     C76974   3.759  10.850   1.414 -0.7682  0.1530  0.1154
  584MOL0     C76975   3.665  10.784   1.350  0.5898 -0.7611  0.2930
  584MOL0     C76976   3.643  10.798   1.204  0.5534  0.2805  0.0072
  584MOL0     C76977   3.752  10.720   1.114 -0.8107  0.6999  0.2008
  584MOL0     C76978   3.733  10.772   0.966  0.6967 -0.4140 -0.8172
  584MOL0     C76979   3.810  10.694   0.865  1.1865  0.6072  0.3952
  584MOL0     O76980   3.952  10.689   0.879 -0.2670 -1.1973 -0.9782
  584MOL0     C76981   4.023  10.786   0.796 -0.2780  0.3407  0.4780
  584MOL0     C76982   4.104  10.746   0.691  0.2490 -1.1867 -0.5966
  584MOL0     C76983   4.193  10.832   0.623  0.1629  1.0801  0.3371
  584MOL0     C76984   4.163  10.967   0.636 -0.3686  1.0187 -0.7253
  584MOL0     C76985   4.220  11.066   0.538  0.7528  0.1532 -1.0721
  584MOL0     O76986   4.204  11.193   0.574 -0.3339  0.2088 -0.1676
  584MOL0     C76987   4.217  11.301   0.491  0.6818  0.4327  0.1436
  584MOL0     C76988   4.216  11.432   0.545  0.4062  0.0534  0.0187
  584MOL0     C76989   4.230  11.548   0.464  0.3005 -1.2344  0.2854
  584MOL0     C76990   4.229  11.533   0.323 -0.5695 -0.4993 -0.5920
  584MOL0     O76991   4.232  11.633   0.224  0.4289  0.9558  0.3283
  584MOL0     C76992   4.295  11.761   0.268 -0.4936 -0.1373  0.9943
  584MOL0     C76993   4.202  11.864   0.332  1.2699  0.7447  0.2966
  584MOL0     C76994   4.092  11.908   0.243  0.0328  0.0419  0.5602
  584MOL0     C76995   4.130  11.994   0.122 -0.2522  0.2102 -0.8707
  584MOL0     C76996   4.011  12.031   0.041  0.1240 -0.1296 -0.2716
  584MOL0     C76997   3.938  12.169   0.090 -1.2792 -0.4672  0.5863
  584MOL0     C76998   3.810  12.193   0.014 -0.2363  0.0946 -0.3704
  584MOL0     C76999   3.771  12.341   0.023 -0.9507  0.5289 -0.0137
  584MOL0    Cl77000   3.738  12.390   0.183 -0.2220  0.0429  0.1818
  584MOL0     C77001   4.228  11.402   0.272  0.3206  0.3282 -0.4770
  584MOL0     C77002   4.220  11.292   0.344 -0.8475 -0.0247 -0.5178
  584MOL0     O77003   4.286  11.018   0.450  0.5214  0.0090  0.6700
  584MOL0     C77004   4.074  11.019   0.735  0.7714 -0.5646 -0.6291
  584MOL0     C77005   4.009  10.921   0.819 -0.1581 -0.2467  1.2083
  584MOL0     N77006   3.590  10.704   1.437  0.3552 -0.2876  0.1900
  584MOL0     N77007   3.640  10.725   1.556 -0.0587  0.0656  0.1147
  584MOL0     C77008   3.009  10.957   2.185  0.3430 -0.3492  0.1689
  584MOL0     C77009   2.905  10.900   2.252 -0.0704 -0.0384 -0.0540
  584MOL0     C77010   2.699  10.584   2.506  0.7012 -0.6083  0.5078
  584MOL0     C77011   2.664  10.468   2.426  0.5729 -0.1658 -1.4649
  584MOL0     C77012   2.589  10.372   2.482 -0.7034 -0.7586  0.1620
  584MOL0     C77013   2.553  10.376   2.612  0.0118 -0.2606 -0.0231
  584MOL0     O77014   2.478  10.276   2.683  0.2683  0.4896 -0.2460
  584MOL0     C77015   2.476  10.143   2.624 -0.3513  0.4866  0.0792
  584MOL0     C77016   2.424  10.045   2.730  0.4622  0.0458 -0.7384
  584MOL0     C77017   2.405   9.905   2.669 -0.2569 -0.3761  0.3074
  584MOL0     C77018   2.302   9.835   2.754 -0.5894 -0.9155  0.3215
  584MOL0     C77019   2.358   9.778   2.873  0.2391  0.2537 -0.1405
  584MOL0     C77020   2.387   9.718   2.974 -0.2535 -0.2822 -0.1312
  584MOL0     C77021   2.575  10.492   2.687 -0.2151  0.7440  0.0335
  584MOL0     C77022   2.648  10.598   2.633 -0.2105  0.1041  0.5120
  584MOL0     H77023   2.944  10.582   2.163  1.6378 -0.1219  2.3796
  584MOL0     H77024   3.126  10.671   2.039 -0.6132  0.4277 -1.8274
  584MOL0     H77025   3.303  11.023   2.159 -2.3030  0.6383  0.3196
  584MOL0     H77026   3.202  11.123   2.048  0.5569 -0.2712 -2.4972
  584MOL0     H77027   3.459  10.979   1.965 -1.9705 -0.8357  0.6449
  584MOL0     H77028   3.440  11.152   1.992 -0.8671 -0.3711 -0.6762
  584MOL0     H77029   3.267  11.133   1.811  0.8344  0.9492 -0.4897
  584MOL0     H77030   3.322  10.966   1.780 -0.6013 -1.1150  2.6690
  584MOL0     H77031   3.448  11.103   1.629  1.6914  2.0127 -1.9008
  584MOL0     H77032   3.480  11.228   1.753 -0.4996 -0.1965 -0.4791
  584MOL0     H77033   3.591  10.938   1.751  0.8967  0.4112 -3.3915
  584MOL0     H77034   3.634  11.046   1.873 -2.0251  0.0323  0.3164
  584MOL0     H77035   3.732  11.201   1.706 -0.6137 -0.5260  2.7266
  584MOL0     H77036   3.666  11.095   1.570 -0.5567  0.8348  0.2797
  584MOL0     H77037   3.911  11.077   1.633  0.6818 -0.0747  1.9784
  584MOL0     H77038   3.864  11.020   1.786 -1.9591 -0.3681  1.0596
  584MOL0     H77039   3.804  10.804   1.740  1.0611 -0.2557 -0.6645
  584MOL0     H77040   3.940  10.825   1.643  0.1796  0.0671  0.6518
  584MOL0     H77041   3.827  10.916   1.362  0.0230 -1.3585 -0.8435
  584MOL0     H77042   3.638  10.903   1.175  2.1889  0.6044  0.7644
  584MOL0     H77043   3.545  10.752   1.187  1.0722 -2.3177  3.1318
  584MOL0     H77044   3.744  10.611   1.123 -0.5443  0.3460 -2.6573
  584MOL0     H77045   3.852  10.749   1.146  0.7340 -1.1755 -2.5058
  584MOL0     H77046   3.630  10.764   0.931  1.4425 -0.3985 -3.2228
  584MOL0     H77047   3.762  10.877   0.960  2.1261 -0.7705 -0.6197
  584MOL0     H77048   3.798  10.735   0.764  2.1295 -1.3674 -0.6039
  584MOL0     H77049   3.771  10.591   0.864  0.2368  0.9453 -1.2263
  584MOL0     H77050   4.124  10.640   0.680 -0.4529 -1.2948 -0.9188
  584MOL0     H77051   4.267  10.786   0.558  1.3798 -1.1652  3.1142
  584MOL0     H77052   4.225  11.438   0.653  1.3326  1.2570 -0.1019
  584MOL0     H77053   4.243  11.645   0.511  1.1198 -0.1723 -1.9764
  584MOL0     H77054   4.343  11.794   0.176  0.8073 -0.5815  1.4979
  584MOL0     H77055   4.384  11.738   0.327 -0.0450 -1.0966 -0.0104
  584MOL0     H77056   4.255  11.956   0.358  1.9871  0.5882 -0.5593
  584MOL0     H77057   4.154  11.824   0.422  0.5684  1.0697  0.0737
  584MOL0     H77058   4.022  11.971   0.298 -0.5764 -0.7358  0.7033
  584MOL0     H77059   4.045  11.819   0.199  2.6173  0.2637 -2.9905
  584MOL0     H77060   4.180  12.085   0.157 -3.4859  2.0740 -0.6319
  584MOL0     H77061   4.199  11.934   0.063 -0.3742 -1.5811  0.7429
  584MOL0     H77062   3.943  11.949   0.016 -0.2203  0.3482 -0.9482
  584MOL0     H77063   4.061  12.058  -0.053  1.1425 -0.0378  0.2885
  584MOL0     H77064   4.000  12.258   0.094 -3.5503  1.2061  0.6265
  584MOL0     H77065   3.914  12.153   0.196  1.5107 -0.3507  1.3177
  584MOL0     H77066   3.817  12.164  -0.091 -2.5864  1.0967 -0.8633
  584MOL0     H77067   3.729  12.133   0.057  0.3334 -0.4186  0.0265
  584MOL0     H77068   3.687  12.359  -0.045 -0.5711 -1.7197 -1.1611
  584MOL0     H77069   3.863  12.391  -0.010 -0.8658 -0.5276 -1.4753
  584MOL0     H77070   4.254  11.403   0.167 -2.2847  2.4181 -1.2105
  584MOL0     H77071   4.213  11.196   0.295 -0.2686 -0.6789  0.6485
  584MOL0     H77072   4.070  11.127   0.742  0.9294 -0.2883 -3.4622
  584MOL0     H77073   3.941  10.946   0.900 -0.3086  1.1121  0.6965
  584MOL0     H77074   3.030  11.063   2.185 -2.0161  0.1704  0.4666
  584MOL0     H77075   2.844  10.958   2.320  1.3423 -0.3250  1.5451
  584MOL0     H77076   2.716  10.454   2.331 -0.1630  1.1787 -2.1076
  584MOL0     H77077   2.559  10.291   2.416  0.3486  0.8523 -2.4489
  584MOL0     H77078   2.578  10.118   2.592 -0.3758 -1.7100  1.5005
  584MOL0     H77079   2.405  10.137   2.542  1.0359 -2.0069 -1.0526
  584MOL0     H77080   2.496  10.041   2.813  1.7840  4.7600 -1.3951
  584MOL0     H77081   2.335  10.096   2.766 -0.5093 -1.4219 -0.9722
  584MOL0     H77082   2.499   9.850   2.676 -0.1445 -0.3138 -0.6206
  584MOL0     H77083   2.373   9.915   2.565  1.4027  1.7831 -0.0743
  584MOL0     H77084   2.216   9.899   2.776  0.8209  0.6541  1.5494
  584MOL0     H77085   2.261   9.745   2.706 -3.5933  0.8403 -0.6891
  584MOL0     H77086   2.428   9.657   3.052  1.0598  1.4989  0.6359
  584MOL0     H77087   2.520  10.494   2.781 -3.6595  1.6647 -1.8167
  584MOL0     H77088   2.665  10.686   2.694 -1.4538 -0.5323  1.8376
  585MOL0     O77089   2.351   6.772   0.316 -0.6481 -0.4146 -0.2100
  585MOL0     C77090   2.464   6.738   0.282 -1.0563 -0.7823  0.0516
  585MOL0     O77091   2.559   6.711   0.366 -0.1314 -0.6051  1.1638
  585MOL0     C77092   2.536   6.734   0.498 -0.3679  0.4471  0.3673
  585MOL0     C77093   2.432   6.661   0.563 -0.8880 -0.1603  0.8868
  585MOL0     C77094   2.395   6.695   0.692  0.0593  0.0165  0.3797
  585MOL0     C77095   2.456   6.796   0.761 -1.5189 -0.3161 -0.5870
  585MOL0     O77096   2.425   6.798   0.898 -0.1319 -0.5436  0.4411
  585MOL0     C77097   2.450   6.931   0.956  0.2423 -0.0332  0.4869
  585MOL0     C77098   2.370   6.952   1.087  0.3991  0.5813  0.2329
  585MOL0     C77099   2.424   7.076   1.171 -0.4455  0.9596 -0.0029
  585MOL0     C77100   2.336   7.110   1.293  0.3354 -0.4586  0.2681
  585MOL0     C77101   2.403   7.214   1.389 -0.3836  0.9728  0.5504
  585MOL0     C77102   2.303   7.267   1.494 -0.4843  0.3605 -0.7482
  585MOL0     C77103   2.370   7.381   1.579 -0.3609 -0.3064 -0.4122
  585MOL0     C77104   2.275   7.454   1.669 -0.1668  0.3896 -0.0147
  585MOL0     N77105   2.343   7.534   1.767  0.8973  0.3316 -0.0771
  585MOL0     C77106   2.379   7.661   1.745 -0.8055 -0.3350 -0.7327
  585MOL0     C77107   2.413   7.694   1.875  0.4770  0.8276  0.1468
  585MOL0     C77108   2.479   7.824   1.933  0.3590 -0.0350 -0.1402
  585MOL0     C77109   2.393   7.867   2.053  0.1102 -0.0880  0.3525
  585MOL0     C77110   2.421   7.996   2.130 -0.4378 -0.5596 -0.5249
  585MOL0     C77111   2.319   8.030   2.239 -0.0946  0.4186  0.7951
  585MOL0     O77112   2.395   8.074   2.354 -0.1932 -0.1346  0.3322
  585MOL0     C77113   2.322   8.131   2.458  0.8686  0.5297  0.2032
  585MOL0     C77114   2.397   8.183   2.558  0.4547 -0.2891 -0.4621
  585MOL0     C77115   2.334   8.235   2.681  0.3461  0.8489 -0.2596
  585MOL0     C77116   2.192   8.233   2.705 -0.5970  0.2605  0.8393
  585MOL0     C77117   2.125   8.287   2.818  0.6925  0.6024  0.8720
  585MOL0     O77118   2.211   8.331   2.915 -0.3960 -1.0047  0.7047
  585MOL0     C77119   2.176   8.424   3.019 -0.0707 -0.2837  0.0320
  585MOL0     C77120   2.074   8.516   2.998 -1.2456 -0.1597 -0.0486
  585MOL0     C77121   2.042   8.605   3.100 -0.6461 -0.8558  0.1292
  585MOL0     C77122   2.110   8.604   3.223 -0.3532 -0.5069 -0.0396
  585MOL0     O77123   2.072   8.704   3.312 -0.5239  0.4282 -0.5102
  585MOL0     C77124   1.958   8.674   3.387  0.0676  0.9766 -0.6205
  585MOL0     C77125   1.818   8.699   3.324 -0.5855  0.5199 -0.0410
  585MOL0     C77126   1.719   8.660   3.432  0.9593 -1.6550  0.1653
  585MOL0     C77127   1.574   8.694   3.386  0.0190  0.7533 -0.1874
  585MOL0     C77128   1.470   8.679   3.502 -0.0828 -0.1189 -0.2577
  585MOL0     C77129   1.325   8.664   3.441  0.2092  0.3515 -0.5141
  585MOL0     C77130   1.215   8.693   3.552  0.0892  0.0643  0.4744
  585MOL0     C77131   1.185   8.845   3.545  0.2048 -0.2499  0.6890
  585MOL0    Cl77132   1.095   8.901   3.398 -0.1816  0.0503 -0.2516
  585MOL0     C77133   2.215   8.518   3.238 -0.0644 -0.2279 -0.5789
  585MOL0     C77134   2.246   8.422   3.143  0.7336 -0.0747 -0.4867
  585MOL0     O77135   2.000   8.268   2.832 -0.6317 -0.2342  0.7486
  585MOL0     C77136   2.115   8.179   2.595 -0.4946 -0.1452  0.0290
  585MOL0     C77137   2.174   8.123   2.475 -0.2701 -0.1737 -0.2528
  585MOL0     N77138   2.413   7.575   1.959  0.6987  0.5194  0.2935
  585MOL0     N77139   2.369   7.483   1.885  0.2903  0.2476 -0.4087
  585MOL0     C77140   2.559   6.872   0.704 -0.3820  0.0515 -0.7265
  585MOL0     C77141   2.600   6.841   0.571  0.0774  0.0478  0.2598
  585MOL0     C77142   2.487   6.687   0.141  0.3209 -0.1766 -0.0092
  585MOL0     C77143   2.613   6.688   0.084  0.9207 -0.5564 -0.9484
  585MOL0     C77144   2.628   6.639  -0.048 -0.1577 -0.5448  0.2306
  585MOL0     C77145   2.524   6.570  -0.114  0.0339 -0.4179 -0.3316
  585MOL0     O77146   2.536   6.507  -0.237  1.0244  0.6667  0.0218
  585MOL0     C77147   2.662   6.474  -0.290  0.3835  0.2191 -0.6861
  585MOL0     C77148   2.653   6.394  -0.418  0.1782 -0.4299  0.1541
  585MOL0     C77149   2.572   6.270  -0.423 -0.1274  0.3147  0.6282
  585MOL0     C77150   2.431   6.290  -0.474  0.1292  1.2461  0.4461
  585MOL0     C77151   2.348   6.170  -0.463  0.3580 -0.0396 -0.3104
  585MOL0     C77152   2.290   6.066  -0.448  0.2468  0.1003  0.3388
  585MOL0     C77153   2.395   6.563  -0.049  0.0293 -0.6176 -0.4913
  585MOL0     C77154   2.377   6.625   0.075  0.6518  0.3783 -0.5047
  585MOL0     H77155   2.376   6.594   0.498  0.0386  0.0715 -0.1815
  585MOL0     H77156   2.312   6.630   0.721 -1.4144  0.0568 -3.2397
  585MOL0     H77157   2.428   7.019   0.895  0.1667 -0.0902  0.4333
  585MOL0     H77158   2.557   6.942   0.979  0.5282 -1.1078 -0.2508
  585MOL0     H77159   2.370   6.863   1.151 -0.8475  0.9924  0.8281
  585MOL0     H77160   2.265   6.967   1.059  0.6110 -3.6421 -4.3684
  585MOL0     H77161   2.445   7.158   1.101 -0.6412  1.0529  0.0454
  585MOL0     H77162   2.523   7.040   1.200 -2.0912 -5.4402 -0.8308
  585MOL0     H77163   2.237   7.137   1.255 -0.9231 -2.1401  2.1594
  585MOL0     H77164   2.322   7.017   1.349  1.4534 -1.2617 -0.7345
  585MOL0     H77165   2.444   7.299   1.333 -0.8364  1.0545  0.3377
  585MOL0     H77166   2.483   7.152   1.428 -0.3950 -1.7433 -3.1969
  585MOL0     H77167   2.275   7.179   1.553  2.3741 -1.1936 -1.5230
  585MOL0     H77168   2.220   7.312   1.439 -0.0646  3.8066  1.1179
  585MOL0     H77169   2.448   7.331   1.638 -1.3487  1.5668  2.7867
  585MOL0     H77170   2.420   7.447   1.508  0.6802 -0.1549  0.4289
  585MOL0     H77171   2.219   7.369   1.708  3.6423 -2.5303 -0.2674
  585MOL0     H77172   2.205   7.519   1.617  1.1693  0.2140 -2.1606
  585MOL0     H77173   2.410   7.720   1.659  2.0181  1.7219  1.4636
  585MOL0     H77174   2.478   7.904   1.858 -0.8997  0.1702  0.0692
  585MOL0     H77175   2.579   7.792   1.963  0.6824  1.3191  0.2793
  585MOL0     H77176   2.402   7.785   2.125 -2.3041 -3.2707 -2.6542
  585MOL0     H77177   2.294   7.881   2.010  0.2180 -0.9124 -0.1944
  585MOL0     H77178   2.518   8.000   2.179  1.8072 -0.6193 -4.5416
  585MOL0     H77179   2.421   8.080   2.059  3.0836 -0.8567 -1.0339
  585MOL0     H77180   2.265   7.939   2.266  3.4203 -1.1360  3.3345
  585MOL0     H77181   2.255   8.111   2.202 -0.4433 -1.3172 -2.8368
  585MOL0     H77182   2.504   8.199   2.551  0.7421 -0.4078  2.3889
  585MOL0     H77183   2.406   8.256   2.759 -2.0031 -0.9849  2.6306
  585MOL0     H77184   2.049   8.528   2.893  2.1209  0.5515 -0.8606
  585MOL0     H77185   1.963   8.679   3.090 -1.8798 -1.3281  4.5746
  585MOL0     H77186   1.965   8.730   3.481 -0.1664  2.0570 -1.2248
  585MOL0     H77187   1.972   8.570   3.416 -3.1229  1.0572  1.7320
  585MOL0     H77188   1.811   8.652   3.226 -0.8461  1.6405 -0.5756
  585MOL0     H77189   1.809   8.805   3.301  0.9857  0.2915 -1.9663
  585MOL0     H77190   1.735   8.718   3.523 -0.8252  1.1863 -1.1993
  585MOL0     H77191   1.725   8.553   3.457 -2.2561 -1.7188  1.0605
  585MOL0     H77192   1.572   8.795   3.342  0.4887  0.0403 -1.9507
  585MOL0     H77193   1.546   8.621   3.310  0.1404  1.4171 -0.8892
  585MOL0     H77194   1.467   8.763   3.571 -2.2204 -2.0014  2.1335
  585MOL0     H77195   1.493   8.594   3.567  2.4075  1.7389  1.4510
  585MOL0     H77196   1.328   8.560   3.408  1.6055  0.1423  0.1742
  585MOL0     H77197   1.309   8.730   3.355  0.6293  0.9931 -0.1096
  585MOL0     H77198   1.123   8.642   3.522 -1.7106  3.7226 -0.8455
  585MOL0     H77199   1.257   8.664   3.649 -0.6596  0.0181  0.7891
  585MOL0     H77200   1.274   8.901   3.576 -0.1883  0.2372  0.9606
  585MOL0     H77201   1.105   8.877   3.612  0.0820  0.5589  0.1732
  585MOL0     H77202   2.283   8.515   3.323  1.5383  0.4267 -1.7844
  585MOL0     H77203   2.324   8.350   3.163  0.9460 -0.1047 -1.3707
  585MOL0     H77204   2.010   8.174   2.620 -0.5237  1.2545  0.2196
  585MOL0     H77205   2.109   8.085   2.397 -0.6534  1.5915 -0.8322
  585MOL0     H77206   2.611   6.953   0.755 -0.6434 -2.4383  4.0002
  585MOL0     H77207   2.684   6.891   0.524 -0.8191  1.3795 -0.0069
  585MOL0     H77208   2.690   6.747   0.133  0.0522  0.5903 -0.9324
  585MOL0     H77209   2.727   6.650  -0.091 -0.6257  0.0220 -0.7406
  585MOL0     H77210   2.714   6.406  -0.223 -0.3479  1.3565  1.1229
  585MOL0     H77211   2.727   6.555  -0.324  0.2848 -0.6145 -3.0785
  585MOL0     H77212   2.619   6.452  -0.504 -0.2115 -2.1922 -0.9434
  585MOL0     H77213   2.752   6.359  -0.448 -0.2594 -0.4371 -1.3767
  585MOL0     H77214   2.580   6.209  -0.333  0.5716 -0.5435  0.0139
  585MOL0     H77215   2.608   6.198  -0.498  1.1696 -0.5351  2.0054
  585MOL0     H77216   2.393   6.375  -0.416  0.4731 -0.4070  3.3002
  585MOL0     H77217   2.423   6.339  -0.571 -1.2594  3.3269  1.5288
  585MOL0     H77218   2.242   5.971  -0.439  0.1758  0.1571  0.5762
  585MOL0     H77219   2.318   6.511  -0.106  1.1091 -0.0966 -2.5244
  585MOL0     H77220   2.282   6.612   0.126 -0.1749  0.7080 -1.8978
  586MOL0     O77221   1.175   6.721   1.984  0.6203 -0.7108  0.6832
  586MOL0     C77222   1.136   6.667   2.083 -0.7502  0.3525 -0.3809
  586MOL0     O77223   1.113   6.721   2.202 -0.6821 -1.0443 -0.3388
  586MOL0     C77224   1.131   6.854   2.233  0.4418  0.7089  0.1163
  586MOL0     C77225   1.090   6.962   2.157 -0.5710 -0.4261 -0.3768
  586MOL0     C77226   1.110   7.093   2.207 -0.4115 -0.8835  0.0785
  586MOL0     C77227   1.160   7.114   2.338 -0.2967 -0.2082 -0.5283
  586MOL0     O77228   1.191   7.227   2.408 -0.1300 -0.0890  1.0243
  586MOL0     C77229   1.157   7.347   2.345  0.2583 -1.4978 -0.6794
  586MOL0     C77230   1.015   7.392   2.351  0.5222  0.0896 -0.8576
  586MOL0     C77231   0.987   7.528   2.295  0.4197 -0.2336  0.0410
  586MOL0     C77232   1.016   7.509   2.143 -0.0444  0.7414  0.9839
  586MOL0     C77233   0.936   7.603   2.050  0.3231  0.3632  0.2137
  586MOL0     C77234   0.945   7.556   1.898 -0.2191  0.0267  0.1440
  586MOL0     C77235   1.086   7.596   1.837  0.4310  0.1203 -0.0092
  586MOL0     C77236   1.076   7.548   1.697  0.5019  1.0331 -0.4578
  586MOL0     N77237   1.212   7.547   1.640  0.3563 -0.1224  0.3632
  586MOL0     C77238   1.278   7.648   1.587 -0.1389 -0.1828  0.1781
  586MOL0     C77239   1.404   7.599   1.569 -0.7487  1.2715 -0.5991
  586MOL0     C77240   1.539   7.664   1.527  0.3132 -0.9544 -0.1868
  586MOL0     C77241   1.544   7.674   1.376  0.4743  0.6602  0.0140
  586MOL0     C77242   1.527   7.546   1.293 -0.4411  0.5676 -0.1544
  586MOL0     C77243   1.572   7.570   1.149 -0.6206 -0.0073 -0.9038
  586MOL0     O77244   1.459   7.628   1.083 -0.9327  0.1912 -1.0463
  586MOL0     C77245   1.488   7.699   0.970 -0.0448 -0.9890  0.6259
  586MOL0     C77246   1.613   7.717   0.896 -0.7676 -2.0632 -0.1499
  586MOL0     C77247   1.609   7.798   0.779  0.4066 -0.2974  0.0928
  586MOL0     C77248   1.501   7.862   0.729 -0.6134 -0.1935  0.8480
  586MOL0     C77249   1.500   7.956   0.612  0.9126 -0.8476 -0.0278
  586MOL0     O77250   1.632   7.974   0.564  0.9281  0.1200  0.1486
  586MOL0     C77251   1.660   8.078   0.474 -0.3875 -0.1267  0.1434
  586MOL0     C77252   1.578   8.131   0.370  0.2020  0.0002  0.0042
  586MOL0     C77253   1.624   8.238   0.286  0.2421  0.3814 -0.1778
  586MOL0     C77254   1.760   8.275   0.304  0.0330  0.9021  0.8877
  586MOL0     O77255   1.815   8.378   0.227  0.6307 -0.6105  0.2428
  586MOL0     C77256   1.803   8.365   0.089 -0.5939 -0.2843  0.9591
  586MOL0     C77257   1.762   8.491   0.003 -0.1756  0.0837  0.2042
  586MOL0     C77258   1.613   8.520  -0.010  0.1323 -0.3594  0.9526
  586MOL0     C77259   1.547   8.621   0.082  0.0367  0.2480  0.4532
  586MOL0     C77260   1.520   8.560   0.221 -0.7457  0.2414  0.6934
  586MOL0     C77261   1.441   8.664   0.307  0.4558  0.3289  0.3963
  586MOL0     C77262   1.527   8.764   0.375  0.3749 -0.0240  0.1905
  586MOL0     C77263   1.619   8.727   0.490  0.0252  0.2046  0.1966
  586MOL0    Cl77264   1.732   8.865   0.532 -0.1799  0.0940 -0.3138
  586MOL0     C77265   1.845   8.213   0.395 -1.0700 -0.6700 -0.3356
  586MOL0     C77266   1.796   8.105   0.478  0.2622  0.5393  0.6687
  586MOL0     O77267   1.406   8.028   0.586 -0.8547  0.0006  0.0756
  586MOL0     C77268   1.379   7.839   0.795 -0.0543  0.1801 -0.1552
  586MOL0     C77269   1.372   7.758   0.910 -0.2047 -0.0660  1.1209
  586MOL0     N77270   1.405   7.471   1.620 -0.1254  0.7453 -0.6324
  586MOL0     N77271   1.283   7.436   1.648  0.5320  0.0302  0.1911
  586MOL0     C77272   1.202   7.003   2.416  0.1647 -0.0907  0.2910
  586MOL0     C77273   1.182   6.877   2.366 -0.5297  0.3275 -0.1532
  586MOL0     C77274   1.090   6.527   2.068  0.3388 -1.0169  1.1183
  586MOL0     C77275   1.116   6.468   1.942  0.1000  0.4105 -0.0157
  586MOL0     C77276   1.091   6.339   1.922 -0.1362  0.7773  0.5395
  586MOL0     C77277   1.013   6.264   2.014 -0.2748 -0.6104  0.0903
  586MOL0     O77278   0.970   6.137   1.994  1.1371  0.3996  0.6502
  586MOL0     C77279   1.059   6.052   1.925 -0.1378 -0.2337 -0.6163
  586MOL0     C77280   1.031   6.037   1.777  0.1145 -0.1795  0.3939
  586MOL0     C77281   1.137   5.949   1.701 -1.0443 -0.5154 -0.2835
  586MOL0     C77282   1.060   5.846   1.624  0.2853  1.3212  0.0430
  586MOL0     C77283   1.159   5.789   1.526  0.5198  0.7613  0.1833
  586MOL0     C77284   1.260   5.747   1.472  0.6908 -0.3248 -0.4749
  586MOL0     C77285   0.974   6.326   2.135  0.1866 -0.3837 -0.1101
  586MOL0     C77286   1.019   6.453   2.158  0.0320  0.1873 -0.0896
  586MOL0     H77287   1.049   6.956   2.057  0.4480  0.8915 -0.9090
  586MOL0     H77288   1.092   7.171   2.134 -1.0665 -0.7010  0.4321
  586MOL0     H77289   1.203   7.350   2.246  4.2988  0.1206  1.0241
  586MOL0     H77290   1.206   7.432   2.393  3.4014 -2.0918 -2.5502
  586MOL0     H77291   0.999   7.401   2.459  0.5586 -1.1335 -0.7335
  586MOL0     H77292   0.951   7.318   2.301  1.9210 -4.4504  3.2595
  586MOL0     H77293   1.035   7.612   2.347 -1.7327 -0.9775  3.5888
  586MOL0     H77294   0.879   7.547   2.303  0.8334  2.2553  0.7343
  586MOL0     H77295   1.124   7.527   2.133  0.1251 -0.6161  0.1942
  586MOL0     H77296   0.988   7.409   2.110 -3.4412  2.5231 -2.4069
  586MOL0     H77297   0.970   7.707   2.051  2.8114 -0.1861 -3.8529
  586MOL0     H77298   0.830   7.604   2.074  0.6168 -2.6319  2.1143
  586MOL0     H77299   0.872   7.603   1.831  0.7208  1.7299  0.2584
  586MOL0     H77300   0.919   7.450   1.899 -0.4694  0.0443  2.7485
  586MOL0     H77301   1.102   7.703   1.852 -0.9100  0.0767  2.2044
  586MOL0     H77302   1.164   7.547   1.897  0.0656  0.8626  1.1096
  586MOL0     H77303   1.010   7.614   1.641 -0.6057  1.8430  1.6779
  586MOL0     H77304   1.029   7.449   1.696 -1.0696  1.7292  0.4374
  586MOL0     H77305   1.249   7.751   1.572 -1.6194 -0.8108 -1.7086
  586MOL0     H77306   1.616   7.594   1.562 -0.6579 -1.5060  0.9312
  586MOL0     H77307   1.557   7.763   1.570 -1.6682 -0.0664 -1.2488
  586MOL0     H77308   1.649   7.699   1.358  0.8092  0.1076  1.1310
  586MOL0     H77309   1.469   7.745   1.340 -1.8435 -2.1367 -1.0482
  586MOL0     H77310   1.585   7.461   1.331 -1.2194 -0.3826 -1.0429
  586MOL0     H77311   1.424   7.509   1.297 -0.4186  0.4450 -0.6589
  586MOL0     H77312   1.588   7.472   1.102 -0.6816 -0.4147 -0.0843
  586MOL0     H77313   1.663   7.629   1.131 -1.1218  1.3334  0.7282
  586MOL0     H77314   1.707   7.672   0.925  2.0461  1.9312 -2.1418
  586MOL0     H77315   1.705   7.816   0.732  0.5659  1.2693  0.9271
  586MOL0     H77316   1.478   8.089   0.358 -0.3309  1.0931  0.4658
  586MOL0     H77317   1.570   8.294   0.210  0.1123  1.0479  0.4041
  586MOL0     H77318   1.735   8.285   0.056 -0.8029 -0.7509  2.4248
  586MOL0     H77319   1.899   8.317   0.067 -0.3612  0.2716  0.7390
  586MOL0     H77320   1.796   8.473  -0.099 -1.1993 -2.3535  0.2366
  586MOL0     H77321   1.814   8.582   0.036  2.9720 -1.4322 -0.1533
  586MOL0     H77322   1.559   8.427   0.004 -3.1793  1.2601 -0.1312
  586MOL0     H77323   1.597   8.555  -0.112  2.1686  1.6603  1.2156
  586MOL0     H77324   1.616   8.706   0.093  0.8829 -0.2447 -0.8139
  586MOL0     H77325   1.447   8.642   0.042  0.0971 -1.9640 -1.0346
  586MOL0     H77326   1.609   8.519   0.270 -2.7887 -3.2393  1.8160
  586MOL0     H77327   1.455   8.474   0.201  0.3086 -0.4552  0.1253
  586MOL0     H77328   1.383   8.608   0.380  0.7218 -0.8047 -0.2402
  586MOL0     H77329   1.358   8.706   0.249  0.2313  0.3985  0.7683
  586MOL0     H77330   1.586   8.816   0.299 -1.1074  1.1657 -0.2185
  586MOL0     H77331   1.464   8.840   0.424  0.4956  1.4579 -1.8334
  586MOL0     H77332   1.669   8.639   0.449 -2.6441 -0.8245 -1.1446
  586MOL0     H77333   1.559   8.699   0.577 -0.0130 -2.3485 -0.5696
  586MOL0     H77334   1.950   8.242   0.390 -2.0881  3.5165 -1.6798
  586MOL0     H77335   1.878   8.055   0.530  1.0595  0.9298 -0.1717
  586MOL0     H77336   1.290   7.890   0.759  0.9905  0.0201 -3.1861
  586MOL0     H77337   1.279   7.752   0.965 -1.1469 -1.4410 -0.5432
  586MOL0     H77338   1.265   7.010   2.504 -0.0460 -4.1483  0.9764
  586MOL0     H77339   1.207   6.789   2.425  1.0601 -0.9104 -2.5186
  586MOL0     H77340   1.178   6.515   1.867  1.8892 -0.7072  0.7137
  586MOL0     H77341   1.106   6.298   1.823 -0.4038 -0.7453  1.1030
  586MOL0     H77342   1.048   5.948   1.957  1.1747  0.7102  3.5992
  586MOL0     H77343   1.165   6.077   1.935 -0.8808  3.3042 -0.3895
  586MOL0     H77344   0.927   6.007   1.765  0.1163 -0.3499  0.8122
  586MOL0     H77345   1.038   6.132   1.723  2.0622  0.5641  1.8327
  586MOL0     H77346   1.210   5.902   1.767  0.8833  0.0215 -1.9372
  586MOL0     H77347   1.189   6.019   1.635 -2.7083  0.2493 -0.8411
  586MOL0     H77348   1.015   5.772   1.691 -0.1876  2.1723  0.6758
  586MOL0     H77349   0.980   5.891   1.563 -1.6554 -1.3462  0.4315
  586MOL0     H77350   1.340   5.717   1.406  0.4224 -0.5019 -0.7223
  586MOL0     H77351   0.904   6.279   2.204 -2.5616  1.2193 -1.6029
  586MOL0     H77352   1.003   6.497   2.256  1.5271  1.3520 -0.3394
  587MOL0     O77353   5.518   4.819   5.948  1.0666  0.4004  0.0018
  587MOL0     C77354   5.622   4.877   5.948 -1.3845  0.9708 -0.0348
  587MOL0     O77355   5.742   4.837   6.021  0.1969  0.6580 -0.1302
  587MOL0     C77356   5.729   4.722   6.092 -0.1627 -0.5105  0.0735
  587MOL0     C77357   5.656   4.728   6.219 -0.4012 -0.0489  0.4675
  587MOL0     C77358   5.645   4.607   6.290  0.8102  1.1254 -0.0636
  587MOL0     C77359   5.690   4.485   6.236  0.3871  0.0175  0.4897
  587MOL0     O77360   5.657   4.361   6.299  0.3719 -0.0624  0.6353
  587MOL0     C77361   5.540   4.303   6.237  0.2315 -0.0784 -0.1071
  587MOL0     C77362   5.562   4.144   6.234 -0.0498  0.0235 -0.0252
  587MOL0     C77363   5.458   4.080   6.136 -0.5758 -0.7843  0.3429
  587MOL0     C77364   5.461   3.920   6.136  0.1464 -1.5078 -0.5685
  587MOL0     C77365   5.328   3.860   6.088 -0.4758  0.1884 -0.0974
  587MOL0     C77366   5.278   3.913   5.948 -0.7798 -0.1665  0.6379
  587MOL0     C77367   5.384   3.886   5.834 -0.0207  0.1895  0.8384
  587MOL0     C77368   5.316   3.885   5.696 -0.0696  0.8365  0.0984
  587MOL0     N77369   5.406   3.893   5.591 -0.6650  0.8632 -0.0712
  587MOL0     C77370   5.433   4.003   5.519  0.5280  0.3306 -0.3282
  587MOL0     C77371   5.493   3.960   5.405 -0.0603 -0.6486  0.2803
  587MOL0     C77372   5.532   4.041   5.289 -0.3591 -0.4018  0.0683
  587MOL0     C77373   5.468   3.981   5.167  0.4623  0.9048 -0.4424
  587MOL0     C77374   5.319   3.963   5.182  0.2014 -0.4704 -0.2442
  587MOL0     C77375   5.263   3.946   5.043 -0.3102  0.5884  0.0552
  587MOL0     O77376   5.241   4.060   4.971 -0.1930 -0.7893  0.3951
  587MOL0     C77377   5.179   4.058   4.845  0.7305 -0.3375  0.0206
  587MOL0     C77378   5.121   3.942   4.795  0.2795  0.8307  0.5381
  587MOL0     C77379   5.066   3.940   4.667  0.5418 -0.5285 -0.8311
  587MOL0     C77380   5.074   4.055   4.586  1.0691  0.3587  0.9890
  587MOL0     C77381   5.029   4.058   4.446  0.3235  0.2308 -0.5535
  587MOL0     O77382   4.996   3.940   4.390  0.4851  0.1063  0.5475
  587MOL0     C77383   4.935   3.940   4.267 -0.2434  0.5352 -0.1139
  587MOL0     C77384   5.009   3.900   4.151  0.5875  0.1029 -0.9270
  587MOL0     C77385   4.932   3.888   4.041 -0.3911  0.1869 -0.3029
  587MOL0     C77386   4.792   3.909   4.043 -0.4485 -0.1796 -0.1127
  587MOL0     O77387   4.741   3.876   3.922 -0.0116 -0.5824  0.3656
  587MOL0     C77388   4.609   3.906   3.879  0.6274  0.4448 -0.2021
  587MOL0     C77389   4.502   3.796   3.918 -0.9798 -0.4030  0.6586
  587MOL0     C77390   4.368   3.801   3.834  0.2945  0.8463 -0.4686
  587MOL0     C77391   4.301   3.668   3.857  0.6623  1.0776  0.7047
  587MOL0     C77392   4.193   3.658   3.743 -0.8160 -0.0323 -0.0648
  587MOL0     C77393   4.097   3.530   3.736  0.4518 -0.4139 -1.1128
  587MOL0     C77394   3.987   3.521   3.633  0.4435  0.1859 -0.5163
  587MOL0     C77395   3.885   3.635   3.641  0.6098 -0.1492 -0.9991
  587MOL0    Cl77396   3.783   3.629   3.790 -0.4181 -0.0074  0.2094
  587MOL0     C77397   4.727   3.956   4.152 -0.2920  0.0544  0.7482
  587MOL0     C77398   4.800   3.986   4.265  0.8863 -0.0039  0.2298
  587MOL0     O77399   5.045   4.161   4.381 -0.5711  0.0577 -0.4554
  587MOL0     C77400   5.124   4.174   4.651 -1.5100  0.0939  0.2963
  587MOL0     C77401   5.185   4.175   4.773  0.5972  0.0625  0.7900
  587MOL0     N77402   5.504   3.816   5.406  0.7987  1.2471 -0.5563
  587MOL0     N77403   5.461   3.782   5.524  0.0858  0.9658 -0.3900
  587MOL0     C77404   5.749   4.481   6.113  1.1492 -1.0943 -0.6511
  587MOL0     C77405   5.762   4.601   6.041  0.2669  0.5454 -0.4947
  587MOL0     C77406   5.626   4.985   5.851  0.5923 -0.3683  0.2674
  587MOL0     C77407   5.746   5.037   5.811 -0.2182  0.6612 -0.3315
  587MOL0     C77408   5.764   5.141   5.714 -0.3303  0.3640 -1.0730
  587MOL0     C77409   5.646   5.194   5.668 -0.1945 -0.0452  0.6036
  587MOL0     O77410   5.654   5.308   5.586 -0.0454 -0.1343 -0.2736
  587MOL0     C77411   5.703   5.430   5.634  0.3041  0.4863  0.1792
  587MOL0     C77412   5.633   5.481   5.758 -0.5074  0.1816  0.2893
  587MOL0     C77413   5.490   5.533   5.744 -0.9356 -0.6514 -0.3640
  587MOL0     C77414   5.476   5.660   5.658  0.6097  1.3746  0.6466
  587MOL0     C77415   5.554   5.780   5.681  0.2830  0.1199 -0.8836
  587MOL0     C77416   5.627   5.874   5.662 -0.9813 -0.8458 -0.3977
  587MOL0     C77417   5.525   5.161   5.717 -0.1285 -0.5682 -0.9951
  587MOL0     C77418   5.510   5.049   5.797  0.0221  0.2657  0.3987
  587MOL0     H77419   5.601   4.818   6.247 -1.3895 -0.0122 -1.3787
  587MOL0     H77420   5.585   4.607   6.380  2.4059  2.2101  1.0653
  587MOL0     H77421   5.522   4.334   6.134 -2.7732 -1.7744 -0.2011
  587MOL0     H77422   5.449   4.313   6.297  0.1513  1.8972 -0.4697
  587MOL0     H77423   5.551   4.107   6.336  0.3473  3.1579  1.2645
  587MOL0     H77424   5.660   4.114   6.195  1.2141  2.3448  1.1573
  587MOL0     H77425   5.479   4.111   6.033  1.2408 -1.4442  0.4731
  587MOL0     H77426   5.359   4.115   6.166  1.0937  1.4707  3.8987
  587MOL0     H77427   5.548   3.901   6.072  1.1538  2.4281 -0.6306
  587MOL0     H77428   5.484   3.877   6.234 -0.3493  1.2946  0.8891
  587MOL0     H77429   5.250   3.886   6.159 -2.2760 -1.5272 -1.3462
  587MOL0     H77430   5.339   3.751   6.081 -0.3639  0.1122  1.1743
  587MOL0     H77431   5.274   4.021   5.962  1.0242 -0.0592  0.6040
  587MOL0     H77432   5.183   3.863   5.930 -0.5518 -1.0923  1.8687
  587MOL0     H77433   5.464   3.960   5.844 -1.5673  2.0330  0.1567
  587MOL0     H77434   5.427   3.789   5.858 -1.2429 -0.7536 -0.6076
  587MOL0     H77435   5.260   3.978   5.684 -1.9352 -0.3763 -1.2185
  587MOL0     H77436   5.243   3.803   5.694  1.3366 -0.5384 -4.3424
  587MOL0     H77437   5.427   4.107   5.547  0.0272  0.1893  0.0897
  587MOL0     H77438   5.641   4.044   5.277 -0.2843  3.4903  0.3377
  587MOL0     H77439   5.504   4.146   5.303  2.6303  0.2814  1.6489
  587MOL0     H77440   5.515   3.883   5.151 -0.9717  0.0826  0.2282
  587MOL0     H77441   5.494   4.048   5.085  0.3173 -0.0205 -1.2670
  587MOL0     H77442   5.298   3.875   5.243  1.7847 -0.1957  0.7369
  587MOL0     H77443   5.279   4.057   5.223 -0.6013 -0.9765  0.1628
  587MOL0     H77444   5.172   3.886   5.048  0.7894 -1.1314  0.1849
  587MOL0     H77445   5.320   3.875   4.983 -4.2273 -0.4192 -2.8990
  587MOL0     H77446   5.121   3.846   4.847  4.0859  1.3963  1.9058
  587MOL0     H77447   5.025   3.847   4.630 -2.9210  1.3520 -2.2111
  587MOL0     H77448   5.113   3.869   4.149  0.5714 -0.0471  0.1406
  587MOL0     H77449   4.975   3.849   3.950 -1.8415  0.5694 -1.1726
  587MOL0     H77450   4.617   3.922   3.771  3.3070  0.6149 -0.0518
  587MOL0     H77451   4.583   4.003   3.921 -1.8077 -0.5510  0.8325
  587MOL0     H77452   4.481   3.803   4.025 -2.4802 -0.3835  0.3955
  587MOL0     H77453   4.544   3.696   3.907 -2.6750 -1.0384 -0.4671
  587MOL0     H77454   4.398   3.830   3.733  1.3917  4.0584  0.6317
  587MOL0     H77455   4.309   3.882   3.878  1.1892  3.1330 -3.1693
  587MOL0     H77456   4.375   3.588   3.842  1.6810  2.4687 -2.4538
  587MOL0     H77457   4.258   3.653   3.956  0.9166  0.4208  0.7260
  587MOL0     H77458   4.252   3.658   3.651 -1.3867  1.6677 -0.4679
  587MOL0     H77459   4.129   3.745   3.761 -0.0911  0.1092  2.0733
  587MOL0     H77460   4.045   3.521   3.831  0.2558  1.8276 -0.9420
  587MOL0     H77461   4.151   3.438   3.711 -1.6539 -2.5666  1.6313
  587MOL0     H77462   4.029   3.517   3.532  1.7243 -3.4383  0.0293
  587MOL0     H77463   3.928   3.431   3.652  1.5209 -0.0131  2.4328
  587MOL0     H77464   3.814   3.624   3.558 -0.2333  0.5667 -0.3959
  587MOL0     H77465   3.925   3.735   3.623 -0.0480 -0.1815 -2.9678
  587MOL0     H77466   4.620   3.971   4.161 -0.2341  0.3561  0.9657
  587MOL0     H77467   4.743   4.011   4.354 -1.0395 -5.0742  0.7515
  587MOL0     H77468   5.131   4.268   4.597 -1.2372 -0.2285 -0.2348
  587MOL0     H77469   5.215   4.271   4.814 -3.0256  1.4487  0.5448
  587MOL0     H77470   5.785   4.394   6.059  0.2484 -1.3890 -0.7928
  587MOL0     H77471   5.808   4.599   5.942 -3.1955  1.1152 -2.2950
  587MOL0     H77472   5.839   5.005   5.856 -0.7245  0.1869  0.4172
  587MOL0     H77473   5.865   5.170   5.686  0.0436 -0.4634 -0.6333
  587MOL0     H77474   5.687   5.511   5.562 -3.1299 -0.1558  0.0619
  587MOL0     H77475   5.809   5.424   5.662  0.4106  1.6529  0.0923
  587MOL0     H77476   5.625   5.401   5.832 -0.0587 -0.4468 -0.3246
  587MOL0     H77477   5.697   5.562   5.794 -0.1471  1.3501 -2.6870
  587MOL0     H77478   5.468   5.573   5.844 -0.9304  1.9029 -1.3239
  587MOL0     H77479   5.432   5.448   5.707  0.1809 -1.9323  0.6824
  587MOL0     H77480   5.470   5.619   5.557  3.6637 -0.0398  0.9133
  587MOL0     H77481   5.377   5.694   5.690  0.5232  0.3531  1.5367
  587MOL0     H77482   5.696   5.953   5.640  0.3699 -1.1231  2.4725
  587MOL0     H77483   5.431   5.213   5.699 -1.0078 -2.8626 -3.7833
  587MOL0     H77484   5.407   5.035   5.829 -1.8130  2.2561 -3.8627
  588MOL0     O77485  11.058   5.470   8.130 -0.5763  0.0192  0.0436
  588MOL0     C77486  11.084   5.479   8.010 -0.5532 -0.1650 -0.3799
  588MOL0     O77487  11.086   5.597   7.944  0.0136  0.3016 -0.0432
  588MOL0     C77488  11.090   5.707   8.017  0.5003 -0.9591  0.1045
  588MOL0     C77489  11.194   5.796   8.009  0.4544  0.4669 -0.5780
  588MOL0     C77490  11.188   5.928   8.062  0.4243  0.2795 -0.1243
  588MOL0     C77491  11.067   5.974   8.123  0.4174  0.8450 -0.5208
  588MOL0     O77492  11.049   6.106   8.169  0.2360  0.5181  0.1487
  588MOL0     C77493  11.159   6.200   8.187 -0.0142 -0.0850  0.0035
  588MOL0     C77494  11.186   6.282   8.061  0.3689  0.3308 -1.2038
  588MOL0     C77495  11.263   6.414   8.098  0.2054  0.2435 -0.5843
  588MOL0     C77496  11.363   6.465   7.992  0.0841 -0.1714 -1.1254
  588MOL0     C77497  11.454   6.581   8.045 -0.8138 -0.7573 -0.5660
  588MOL0     C77498  11.584   6.591   7.965 -0.2983 -0.5481  0.1758
  588MOL0     C77499  11.684   6.696   8.031  0.6455 -0.9270  0.6405
  588MOL0     C77500  11.791   6.736   7.927  0.0014 -0.1155 -0.9155
  588MOL0     N77501  11.891   6.828   7.967  0.2212 -0.2642  0.5061
  588MOL0     C77502  12.003   6.851   7.886 -0.6954  0.0053 -0.7272
  588MOL0     C77503  12.084   6.934   7.956 -0.1379  0.5672 -0.0513
  588MOL0     C77504  12.229   6.981   7.945  0.1191 -0.3143  0.7691
  588MOL0     C77505  12.238   7.127   7.890 -0.9270 -0.0189  0.1745
  588MOL0     C77506  12.173   7.241   7.979  0.2235 -1.3352  0.9307
  588MOL0     C77507  12.256   7.288   8.100 -0.1242 -0.6522 -0.2974
  588MOL0     O77508  12.200   7.244   8.231  0.0571 -1.2344  0.4056
  588MOL0     C77509  12.214   7.325   8.341 -0.4837  0.1555 -0.4083
  588MOL0     C77510  12.287   7.446   8.351  0.5738  0.8622  0.7280
  588MOL0     C77511  12.293   7.515   8.474 -0.2885 -0.0498  0.0278
  588MOL0     C77512  12.231   7.459   8.586 -0.5668 -0.4634 -0.6934
  588MOL0     C77513  12.236   7.535   8.717 -0.3634 -0.0176 -0.4138
  588MOL0     O77514  12.298   7.654   8.726 -0.6068  0.6737  0.3289
  588MOL0     C77515  12.335   7.706   8.845 -0.6585 -0.9723 -0.1407
  588MOL0     C77516  12.298   7.836   8.882  0.1666 -0.4624 -0.1164
  588MOL0     C77517  12.326   7.884   9.008  0.2526  0.1567  1.0033
  588MOL0     C77518  12.386   7.798   9.105  0.2162 -0.0223  0.5988
  588MOL0     O77519  12.417   7.837   9.235  1.1380 -0.0081  0.0266
  588MOL0     C77520  12.365   7.758   9.343  0.0314 -0.0161  0.2764
  588MOL0     C77521  12.388   7.821   9.479 -0.5290 -0.2476 -0.0657
  588MOL0     C77522  12.405   7.710   9.589 -0.8477  0.6948  0.2397
  588MOL0     C77523  12.479   7.766   9.701 -0.1182  0.7034 -0.4474
  588MOL0     C77524  12.477   7.671   9.819  1.8497  0.5376  1.1843
  588MOL0     C77525  12.546   7.731   9.937  0.2800  0.5054  0.3469
  588MOL0     C77526  12.541   7.630  10.052 -0.1079  0.3507 -1.1717
  588MOL0     C77527  12.605   7.684  10.183  1.3605 -0.3765  0.1297
  588MOL0    Cl77528  12.535   7.850  10.235 -0.1973 -0.2474  0.0206
  588MOL0     C77529  12.402   7.660   9.068 -0.1908  0.0943  0.2053
  588MOL0     C77530  12.387   7.616   8.936  0.4642  0.3055  2.1240
  588MOL0     O77531  12.164   7.494   8.810 -0.5252  0.0153 -0.4003
  588MOL0     C77532  12.163   7.341   8.587 -0.1514 -0.1463 -0.8895
  588MOL0     C77533  12.158   7.278   8.461  0.0047 -1.0947 -0.6081
  588MOL0     N77534  12.010   6.963   8.068 -0.7000 -0.2183 -0.4956
  588MOL0     N77535  11.901   6.899   8.084  0.0934 -0.1407 -0.2931
  588MOL0     C77536  10.959   5.874   8.124  0.0983 -0.2414 -1.0511
  588MOL0     C77537  10.967   5.752   8.076  0.0881  0.7949 -0.7939
  588MOL0     C77538  11.098   5.358   7.944  0.0120 -0.6666  0.7047
  588MOL0     C77539  11.122   5.226   7.997 -0.4327 -0.3989 -0.1892
  588MOL0     C77540  11.141   5.108   7.917  0.3983 -0.4149  0.0324
  588MOL0     C77541  11.134   5.129   7.776  0.9498  0.1338 -0.2593
  588MOL0     O77542  11.166   5.023   7.701 -0.1550  0.1522  1.0994
  588MOL0     C77543  11.227   5.044   7.572 -0.5806 -0.4488  0.5988
  588MOL0     C77544  11.343   4.962   7.561 -0.0651 -0.9159  1.1460
  588MOL0     C77545  11.405   4.935   7.420  0.9745  0.8424 -0.5250
  588MOL0     C77546  11.513   4.821   7.437 -0.1472 -0.6177  0.8014
  588MOL0     C77547  11.595   4.817   7.308  0.1800  0.7229 -0.0958
  588MOL0     C77548  11.660   4.804   7.204 -0.3824 -0.8234 -0.2580
  588MOL0     C77549  11.105   5.255   7.724  0.1952  1.0155 -0.1357
  588MOL0     C77550  11.090   5.373   7.799  0.5392 -0.5190  0.5040
  588MOL0     H77551  11.284   5.759   7.960  0.1469  0.8447 -1.4501
  588MOL0     H77552  11.262   6.005   8.046 -0.1781  1.0985  0.8928
  588MOL0     H77553  11.249   6.143   8.216  0.9624  0.7357 -1.2840
  588MOL0     H77554  11.120   6.271   8.259 -1.5368  0.6238 -1.4600
  588MOL0     H77555  11.087   6.298   8.018 -0.0150  0.0347 -0.4541
  588MOL0     H77556  11.246   6.225   7.990 -0.2098 -0.6760 -0.8940
  588MOL0     H77557  11.311   6.398   8.195 -2.6234  0.9012  1.0498
  588MOL0     H77558  11.188   6.493   8.113 -1.9558 -0.7216 -4.8212
  588MOL0     H77559  11.429   6.382   7.965  0.5928 -0.4558  0.7972
  588MOL0     H77560  11.310   6.479   7.898 -1.5490 -2.1795 -0.5706
  588MOL0     H77561  11.479   6.567   8.150  1.1040  1.9506 -0.5394
  588MOL0     H77562  11.394   6.672   8.050  2.7950  1.7532  1.9732
  588MOL0     H77563  11.558   6.631   7.866 -0.3638  2.9835  1.4909
  588MOL0     H77564  11.633   6.493   7.954  0.3979 -0.3333  1.2572
  588MOL0     H77565  11.621   6.784   8.046  1.3366 -0.1177 -1.0077
  588MOL0     H77566  11.725   6.652   8.122 -0.8331 -3.9501 -0.0245
  588MOL0     H77567  11.752   6.782   7.836 -1.6582  1.2964  0.4384
  588MOL0     H77568  11.841   6.642   7.903  1.7517  0.3683  0.5769
  588MOL0     H77569  12.025   6.793   7.798 -1.8286  0.5833 -1.4195
  588MOL0     H77570  12.292   6.904   7.899  2.4547  1.6872  0.4161
  588MOL0     H77571  12.261   6.969   8.049 -1.3572 -3.1301  0.9963
  588MOL0     H77572  12.191   7.136   7.792  2.2058 -0.1398 -1.4519
  588MOL0     H77573  12.344   7.147   7.872 -0.9653  0.1030  0.0801
  588MOL0     H77574  12.167   7.327   7.912  0.0331 -1.6184  0.5871
  588MOL0     H77575  12.066   7.236   8.002 -0.4908  1.9799 -0.9657
  588MOL0     H77576  12.261   7.397   8.099 -2.5585 -0.4831 -1.6273
  588MOL0     H77577  12.357   7.248   8.091  0.4410  0.2674  1.6034
  588MOL0     H77578  12.326   7.500   8.266 -2.5154  0.7292 -0.9195
  588MOL0     H77579  12.338   7.612   8.491 -1.8674  0.3454  2.4902
  588MOL0     H77580  12.231   7.892   8.818 -0.1936 -1.6759 -0.8222
  588MOL0     H77581  12.293   7.983   9.037 -1.7866 -0.5671  1.3409
  588MOL0     H77582  12.408   7.657   9.349 -2.0998 -0.8929  2.9700
  588MOL0     H77583  12.258   7.742   9.331  0.3996 -2.2611 -0.5353
  588MOL0     H77584  12.306   7.889   9.507 -0.4422 -0.3455  0.4337
  588MOL0     H77585  12.480   7.878   9.468 -1.1221  0.7520 -0.0003
  588MOL0     H77586  12.458   7.620   9.559 -0.6041  1.7289 -2.7752
  588MOL0     H77587  12.307   7.679   9.628 -0.1782 -0.4063  1.0881
  588MOL0     H77588  12.586   7.771   9.680 -0.1334  0.2201 -0.6494
  588MOL0     H77589  12.434   7.862   9.728 -3.7501  0.0772 -3.4872
  588MOL0     H77590  12.524   7.576   9.792  1.7274  0.5113  1.0622
  588MOL0     H77591  12.373   7.650   9.845  1.5245  1.6700  0.8686
  588MOL0     H77592  12.503   7.830   9.954 -2.1397 -0.4940  0.4849
  588MOL0     H77593  12.647   7.766   9.915  0.8928 -0.8309  0.9374
  588MOL0     H77594  12.436   7.606  10.070  0.4842 -1.0759  0.7426
  588MOL0     H77595  12.588   7.541  10.010 -1.9348 -0.5924 -1.2827
  588MOL0     H77596  12.714   7.692  10.177  1.5091  3.3767  3.5873
  588MOL0     H77597  12.573   7.616  10.263 -0.4771 -0.7168 -0.8390
  588MOL0     H77598  12.461   7.594   9.131  0.8905  0.1426 -0.7166
  588MOL0     H77599  12.419   7.516   8.908 -1.4132  0.3885 -0.7653
  588MOL0     H77600  12.116   7.292   8.672  0.5964 -1.1756 -1.0550
  588MOL0     H77601  12.118   7.177   8.458 -1.2739 -0.8181  2.6475
  588MOL0     H77602  10.860   5.902   8.159 -0.0866 -0.4925 -1.3700
  588MOL0     H77603  10.886   5.680   8.081 -1.7818  2.8007 -0.6780
  588MOL0     H77604  11.129   5.216   8.105  3.2313 -1.1112 -0.3822
  588MOL0     H77605  11.162   5.014   7.966 -0.2158 -1.0968 -0.9722
  588MOL0     H77606  11.252   5.148   7.552 -0.5774 -0.0622  2.4432
  588MOL0     H77607  11.149   5.022   7.498 -2.6379  7.0010 -0.2092
  588MOL0     H77608  11.418   5.005   7.628 -0.3211 -1.2196  1.6395
  588MOL0     H77609  11.309   4.863   7.593 -0.2468 -0.4351  2.5065
  588MOL0     H77610  11.454   5.024   7.378  2.3869  1.0020  1.3110
  588MOL0     H77611  11.327   4.918   7.346 -2.0328  4.3688  1.5205
  588MOL0     H77612  11.577   4.830   7.525  0.7595  0.8090  0.0459
  588MOL0     H77613  11.467   4.722   7.441  2.4574 -1.8828  0.8517
  588MOL0     H77614  11.717   4.771   7.120 -2.7394 -1.9065 -1.5381
  588MOL0     H77615  11.104   5.266   7.616  0.4015 -0.9033 -0.3649
  588MOL0     H77616  11.067   5.466   7.748  1.6784 -0.4371  0.1291
  589MOL0     O77617   3.335   8.974   6.406  0.1184  0.4624  1.3320
  589MOL0     C77618   3.270   8.903   6.325 -0.3852  0.3357  0.0017
  589MOL0     O77619   3.150   8.936   6.257  0.1889 -0.5479 -0.4617
  589MOL0     C77620   3.088   9.060   6.291  0.2155 -0.5728  0.7609
  589MOL0     C77621   3.077   9.122   6.418 -0.4162 -0.1183  0.0320
  589MOL0     C77622   3.009   9.243   6.440 -0.0314 -0.1621  0.0454
  589MOL0     C77623   2.948   9.310   6.330  0.0907 -0.0204 -0.1311
  589MOL0     O77624   2.883   9.425   6.344  0.1020 -0.5645 -0.3684
  589MOL0     C77625   2.750   9.424   6.306 -1.0980  0.0057 -0.5571
  589MOL0     C77626   2.668   9.513   6.393 -0.2000 -0.2715 -0.6145
  589MOL0     C77627   2.514   9.506   6.339 -0.9017 -0.1156 -0.5308
  589MOL0     C77628   2.424   9.587   6.437 -0.2130  0.2394 -0.3590
  589MOL0     C77629   2.273   9.571   6.403 -0.0944 -0.0591  0.0406
  589MOL0     C77630   2.176   9.674   6.468  0.0540 -0.0590 -0.7686
  589MOL0     C77631   2.229   9.818   6.498  0.0867  0.9892 -0.6609
  589MOL0     C77632   2.122   9.868   6.596  0.4256  0.1956  0.5639
  589MOL0     N77633   2.158   9.984   6.668 -0.3999 -0.7503 -0.4385
  589MOL0     C77634   2.252  10.010   6.768  0.5060  0.7176 -0.6407
  589MOL0     C77635   2.240  10.138   6.811  0.2631  1.6377 -0.0097
  589MOL0     C77636   2.330  10.205   6.915 -0.2311  0.7174 -0.0009
  589MOL0     C77637   2.351  10.357   6.886  0.1325  0.1807 -0.6172
  589MOL0     C77638   2.469  10.405   6.973 -0.1944  0.1863 -0.4824
  589MOL0     C77639   2.478  10.551   6.984 -0.8755 -0.4242 -0.0270
  589MOL0     O77640   2.349  10.611   7.007  0.5556 -0.0039  0.1530
  589MOL0     C77641   2.327  10.738   7.065  0.0383 -0.2389 -0.6865
  589MOL0     C77642   2.210  10.779   7.129 -0.3164  0.5266 -0.7464
  589MOL0     C77643   2.190  10.913   7.168  1.1798 -0.9176 -0.4976
  589MOL0     C77644   2.289  11.012   7.165  0.4884 -0.3047 -1.0382
  589MOL0     C77645   2.251  11.145   7.212  0.0184 -0.4132  0.5692
  589MOL0     O77646   2.351  11.228   7.245 -0.7195 -0.7326  0.0550
  589MOL0     C77647   2.333  11.360   7.282 -0.8336  1.0343 -0.4623
  589MOL0     C77648   2.218  11.436   7.253  0.6060 -0.4532  0.1656
  589MOL0     C77649   2.216  11.573   7.276 -0.6801 -0.0151  0.3262
  589MOL0     C77650   2.326  11.638   7.337  0.2753 -0.2664 -0.3622
  589MOL0     O77651   2.324  11.774   7.372 -0.2449  1.1071  0.0955
  589MOL0     C77652   2.231  11.856   7.296  0.1587 -0.6693 -0.2562
  589MOL0     C77653   2.211  11.973   7.381 -0.1447  0.2948 -1.2874
  589MOL0     C77654   2.344  12.047   7.398  0.8054  0.2335 -0.6023
  589MOL0     C77655   2.434  12.060   7.276  0.6985 -0.6221  0.6527
  589MOL0     C77656   2.375  12.128   7.151  0.6068  0.6476 -0.6488
  589MOL0     C77657   2.448  12.112   7.018  0.8253  1.6121 -0.3417
  589MOL0     C77658   2.385  12.185   6.905  0.6233 -0.3081  0.3789
  589MOL0     C77659   2.472  12.172   6.775  0.1531 -0.0046 -0.1596
  589MOL0    Cl77660   2.387  12.251   6.641  0.2434  0.4997  0.0081
  589MOL0     C77661   2.444  11.567   7.357  0.5451 -0.6154  0.1273
  589MOL0     C77662   2.443  11.425   7.337  0.3613  0.1568 -0.2932
  589MOL0     O77663   2.135  11.172   7.193  0.4734  0.2411 -0.1490
  589MOL0     C77664   2.420  10.972   7.110 -0.3362 -0.3140  0.4734
  589MOL0     C77665   2.434  10.839   7.069  0.0177  1.4132 -0.5377
  589MOL0     N77666   2.144  10.199   6.726 -0.3701  0.6708 -0.7797
  589MOL0     N77667   2.087  10.099   6.664 -0.7473  1.0832  0.2641
  589MOL0     C77668   2.958   9.247   6.197 -1.0540  0.0479  0.9456
  589MOL0     C77669   3.026   9.132   6.184 -0.2000  0.5768 -0.0706
  589MOL0     C77670   3.339   8.771   6.271  0.9270  0.5418  0.3930
  589MOL0     C77671   3.461   8.727   6.316 -0.4087 -0.1292 -0.6026
  589MOL0     C77672   3.526   8.611   6.272  0.5915  0.2048  0.8023
  589MOL0     C77673   3.463   8.542   6.165  0.5181  0.1852  0.0784
  589MOL0     O77674   3.510   8.428   6.106 -0.0958 -0.6681  0.2148
  589MOL0     C77675   3.625   8.363   6.149 -0.1007  0.2071  1.2203
  589MOL0     C77676   3.671   8.254   6.057 -0.3005  0.2797  0.3407
  589MOL0     C77677   3.802   8.186   6.093 -0.1025  0.3326  0.0042
  589MOL0     C77678   3.785   8.048   6.143  0.8597 -0.3554 -0.8761
  589MOL0     C77679   3.883   8.002   6.245 -0.8184  0.2027  0.9220
  589MOL0     C77680   3.957   7.964   6.331  0.0349 -0.3094  1.6265
  589MOL0     C77681   3.340   8.584   6.115 -0.2697  1.2930  0.1150
  589MOL0     C77682   3.282   8.697   6.162 -0.5698 -0.9127  0.1264
  589MOL0     H77683   3.132   9.074   6.499 -4.5156 -0.2633  3.0549
  589MOL0     H77684   2.984   9.260   6.545  2.7243 -1.2307  0.9665
  589MOL0     H77685   2.703   9.326   6.313  1.2325 -1.1692 -0.4240
  589MOL0     H77686   2.740   9.470   6.207 -0.2907 -0.1891 -0.7380
  589MOL0     H77687   2.709   9.615   6.390  2.3831 -1.2648 -1.6887
  589MOL0     H77688   2.673   9.480   6.497 -2.6153  1.8671  0.3157
  589MOL0     H77689   2.492   9.401   6.319  3.5266 -1.3519  0.0838
  589MOL0     H77690   2.505   9.561   6.244 -3.2129 -1.3951 -1.1144
  589MOL0     H77691   2.432   9.543   6.537  0.2588  0.0119 -0.4933
  589MOL0     H77692   2.459   9.690   6.430  0.1822  0.0993 -0.4528
  589MOL0     H77693   2.242   9.470   6.430 -4.3058  0.9134 -0.4122
  589MOL0     H77694   2.250   9.597   6.299 -1.3205  3.0537  0.9465
  589MOL0     H77695   2.155   9.624   6.563  1.3257 -0.8543 -0.8807
  589MOL0     H77696   2.081   9.687   6.415 -0.8562  0.9516  1.0321
  589MOL0     H77697   2.327   9.807   6.545 -0.4895 -4.8991 -0.0239
  589MOL0     H77698   2.248   9.878   6.408  2.8480  0.9269 -0.2009
  589MOL0     H77699   2.081   9.787   6.657  2.9516 -2.4171 -0.9442
  589MOL0     H77700   2.043   9.893   6.524 -2.4470 -0.6771  3.1966
  589MOL0     H77701   2.321   9.940   6.814  1.7562  2.0959 -0.3224
  589MOL0     H77702   2.425  10.154   6.930 -0.0322  1.1035  0.0704
  589MOL0     H77703   2.273  10.219   7.008  0.1685  4.2215 -0.1542
  589MOL0     H77704   2.260  10.413   6.907 -3.0900 -4.2316 -1.3801
  589MOL0     H77705   2.359  10.370   6.777 -1.6764  2.5971 -0.5473
  589MOL0     H77706   2.440  10.367   7.072 -2.5023  1.4049 -0.6193
  589MOL0     H77707   2.568  10.369   6.942  0.1186 -1.3215  1.9826
  589MOL0     H77708   2.516  10.604   6.896 -4.2966  2.5079  0.0642
  589MOL0     H77709   2.556  10.580   7.056  0.4113 -0.8704 -1.1851
  589MOL0     H77710   2.138  10.702   7.154 -1.3951  1.6454 -0.2999
  589MOL0     H77711   2.094  10.930   7.216  1.0686  0.1818 -1.0536
  589MOL0     H77712   2.125  11.402   7.210 -0.3544  0.6641  1.2972
  589MOL0     H77713   2.130  11.631   7.247 -0.3465 -0.8188 -2.5176
  589MOL0     H77714   2.126  11.826   7.283 -1.0490  2.0742  2.0491
  589MOL0     H77715   2.267  11.889   7.199 -1.6163 -0.8071 -0.9899
  589MOL0     H77716   2.160  11.938   7.471 -1.1197  0.9482 -1.5660
  589MOL0     H77717   2.144  12.043   7.330  0.7375  3.8408  2.0005
  589MOL0     H77718   2.409  11.996   7.469  2.7379  0.0372 -2.4021
  589MOL0     H77719   2.317  12.148   7.432  2.0732  0.5982 -0.6441
  589MOL0     H77720   2.527  12.114   7.293  0.8120  0.2071 -2.0384
  589MOL0     H77721   2.476  11.962   7.251  0.8070  0.1877 -3.0347
  589MOL0     H77722   2.361  12.234   7.171 -0.0867  0.3526  0.4950
  589MOL0     H77723   2.276  12.085   7.135  1.5285 -2.2319  0.7061
  589MOL0     H77724   2.434  12.006   6.994  2.6667  1.6058 -1.6197
  589MOL0     H77725   2.556  12.123   7.026  1.2814 -1.5079 -0.9375
  589MOL0     H77726   2.280  12.156   6.896 -0.3240  2.8882 -0.1999
  589MOL0     H77727   2.390  12.290   6.936  1.5144 -1.0999  3.2791
  589MOL0     H77728   2.470  12.064   6.760 -0.4222 -0.4808  2.7693
  589MOL0     H77729   2.569  12.215   6.802 -0.1049  0.4368  0.0877
  589MOL0     H77730   2.519  11.623   7.412  0.2531 -1.1649  1.1101
  589MOL0     H77731   2.525  11.357   7.360  1.3343  0.3716 -2.7587
  589MOL0     H77732   2.504  11.041   7.116 -1.6338  1.3866 -0.1181
  589MOL0     H77733   2.529  10.806   7.027 -0.7260  0.0023 -1.1751
  589MOL0     H77734   2.928   9.310   6.114  4.2272  2.9163  0.7888
  589MOL0     H77735   3.032   9.094   6.082  2.9042  1.8660 -0.4914
  589MOL0     H77736   3.498   8.777   6.405 -2.9588  1.8201 -0.5205
  589MOL0     H77737   3.620   8.583   6.318  1.0357  1.0134  0.4099
  589MOL0     H77738   3.617   8.333   6.254 -2.4751 -2.2786  0.4577
  589MOL0     H77739   3.708   8.434   6.143  2.0231 -2.2997 -1.7869
  589MOL0     H77740   3.592   8.178   6.059 -0.2658  0.1015 -1.8745
  589MOL0     H77741   3.673   8.290   5.953  1.7269 -0.7222 -0.0178
  589MOL0     H77742   3.859   8.242   6.167  1.2978  1.2108 -1.6598
  589MOL0     H77743   3.862   8.183   6.002  1.9661  2.1672  1.2165
  589MOL0     H77744   3.687   8.040   6.190  0.4238 -5.8123 -2.1071
  589MOL0     H77745   3.774   7.977   6.060 -4.2490  0.3013 -1.1003
  589MOL0     H77746   4.018   7.919   6.406  2.2519 -0.3481 -0.0854
  589MOL0     H77747   3.319   8.516   6.033  2.2634 -1.6126  1.6456
  589MOL0     H77748   3.195   8.739   6.112  0.7097  0.4079 -1.0912
  590MOL0     O77749  10.868   1.328   6.956  0.4465 -0.1010 -0.0969
  590MOL0     C77750  10.865   1.230   7.032 -0.0372 -1.0093  0.3649
  590MOL0     O77751  10.956   1.141   7.037 -0.4330 -0.5086  0.4477
  590MOL0     C77752  11.041   1.087   6.941 -0.4034 -0.3718  0.3135
  590MOL0     C77753  11.152   1.013   6.978  0.2636 -0.1465  0.8284
  590MOL0     C77754  11.242   0.977   6.883  0.7723  0.2337  0.9391
  590MOL0     C77755  11.207   0.982   6.746  0.8051 -0.6198  0.3933
  590MOL0     O77756  11.279   0.952   6.640  0.1486 -0.2170  1.1048
  590MOL0     C77757  11.361   0.836   6.657 -1.1016  0.5573  0.4566
  590MOL0     C77758  11.401   0.784   6.519  0.0417 -0.8196  0.7632
  590MOL0     C77759  11.490   0.880   6.445  0.5512  0.0469  0.0386
  590MOL0     C77760  11.460   0.898   6.293 -0.5268  0.3396  0.9911
  590MOL0     C77761  11.585   0.964   6.246  0.0460 -0.7292 -0.2108
  590MOL0     C77762  11.619   1.100   6.307  0.2258 -0.0518 -0.8731
  590MOL0     C77763  11.738   1.167   6.236  0.1959 -0.2264  0.6416
  590MOL0     C77764  11.737   1.307   6.300 -1.2866  0.4409  0.1644
  590MOL0     N77765  11.815   1.402   6.212 -0.4454  0.0874 -0.1755
  590MOL0     C77766  11.955   1.407   6.207  0.1118  0.6777  0.1102
  590MOL0     C77767  11.983   1.515   6.128  0.0505  0.4680 -0.6368
  590MOL0     C77768  12.107   1.570   6.071  0.2353  0.6290  0.7806
  590MOL0     C77769  12.087   1.644   5.946  0.1876 -0.9050  0.4205
  590MOL0     C77770  12.207   1.701   5.880 -0.4156 -0.3988 -0.2970
  590MOL0     C77771  12.189   1.858   5.844  0.7655  0.1363 -0.2482
  590MOL0     O77772  12.305   1.915   5.782  0.5730 -0.3108 -0.2533
  590MOL0     C77773  12.327   1.897   5.658  0.3989  0.4084  0.4430
  590MOL0     C77774  12.248   1.813   5.581 -0.1470 -0.3917  0.7796
  590MOL0     C77775  12.304   1.790   5.458 -0.5398  0.3055  0.3310
  590MOL0     C77776  12.426   1.848   5.408 -0.0311  1.0037 -0.6279
  590MOL0     C77777  12.486   1.801   5.275 -0.7859  0.5435  0.2650
  590MOL0     O77778  12.608   1.849   5.238  0.0426  0.5890  0.4448
  590MOL0     C77779  12.694   1.787   5.146  0.2884  0.4710  0.4425
  590MOL0     C77780  12.686   1.657   5.098  0.4468 -0.0772  0.2668
  590MOL0     C77781  12.792   1.614   5.020 -0.6875  0.0231  0.3467
  590MOL0     C77782  12.912   1.690   5.003  0.4835  0.3920  0.3301
  590MOL0     O77783  13.029   1.646   4.937 -0.4343 -0.3206 -0.6234
  590MOL0     C77784  13.044   1.510   4.893  0.5391  0.8863  0.4749
  590MOL0     C77785  13.191   1.480   4.857  0.0539 -0.2531  1.3068
  590MOL0     C77786  13.219   1.538   4.715  0.5491 -0.1500  0.0137
  590MOL0     C77787  13.365   1.496   4.672  0.4804  0.4807 -0.3114
  590MOL0     C77788  13.471   1.605   4.712  1.1097  0.0537  0.1528
  590MOL0     C77789  13.594   1.579   4.642 -0.4613  0.0760  0.3399
  590MOL0     C77790  13.690   1.706   4.655  0.3745 -0.8027 -0.1702
  590MOL0     C77791  13.827   1.675   4.614  0.7357  0.0571 -0.1219
  590MOL0    Cl77792  13.892   1.572   4.724  0.1120  0.1318  0.0774
  590MOL0     C77793  12.918   1.818   5.056  0.1413  0.0673  0.4685
  590MOL0     C77794  12.808   1.869   5.133 -0.5613  0.8910  0.4989
  590MOL0     O77795  12.421   1.715   5.226 -0.0372 -0.4181 -0.2750
  590MOL0     C77796  12.488   1.944   5.486  0.5284 -0.3454  0.0970
  590MOL0     C77797  12.448   1.955   5.614  0.3110 -0.3867 -0.2766
  590MOL0     N77798  11.864   1.571   6.100 -0.2784 -1.0611  0.1428
  590MOL0     N77799  11.764   1.498   6.140 -0.6988  0.4896  0.7472
  590MOL0     C77800  11.095   1.050   6.712 -0.3322 -0.8864  0.5805
  590MOL0     C77801  11.012   1.104   6.807  1.0950  0.3145  0.2516
  590MOL0     C77802  10.759   1.230   7.141  0.7916 -0.0351 -0.3682
  590MOL0     C77803  10.653   1.317   7.134  0.2562 -0.4384  1.1096
  590MOL0     C77804  10.549   1.317   7.232 -0.3896  0.3337 -0.4127
  590MOL0     C77805  10.552   1.215   7.332 -0.2022  0.0152 -0.2431
  590MOL0     O77806  10.452   1.201   7.420  0.4611 -0.6236 -0.0930
  590MOL0     C77807  10.318   1.228   7.399  0.5432  0.5302 -1.5315
  590MOL0     C77808  10.254   1.229   7.538  0.4253 -0.7208 -0.4899
  590MOL0     C77809  10.279   1.101   7.616 -0.2827  0.1852  0.1372
  590MOL0     C77810  10.194   1.095   7.747  0.7410 -0.4760  0.3308
  590MOL0     C77811  10.205   0.966   7.811  0.7433  1.0958 -0.0195
  590MOL0     C77812  10.179   0.866   7.870 -0.5384 -0.0537 -0.2334
  590MOL0     C77813  10.659   1.133   7.352 -0.5135  0.0511  1.1382
  590MOL0     C77814  10.758   1.133   7.249 -0.6031 -0.1094  0.0275
  590MOL0     H77815  11.167   0.994   7.083 -0.4733 -1.0512  0.7815
  590MOL0     H77816  11.337   0.929   6.906  1.9095  0.5536 -2.4734
  590MOL0     H77817  11.310   0.761   6.719  0.3539  1.5531  3.0231
  590MOL0     H77818  11.446   0.885   6.705  1.1359  0.9492 -3.4776
  590MOL0     H77819  11.317   0.746   6.461 -1.3594  1.0242  1.4803
  590MOL0     H77820  11.458   0.692   6.536 -1.2752 -2.1102 -1.4066
  590MOL0     H77821  11.593   0.845   6.457  0.8730  1.8577  5.5661
  590MOL0     H77822  11.490   0.982   6.484  2.8502  1.2021 -2.6139
  590MOL0     H77823  11.456   0.807   6.232  0.3397  0.4737  0.7200
  590MOL0     H77824  11.365   0.949   6.275 -1.4386 -1.9455 -1.1306
  590MOL0     H77825  11.575   0.988   6.139 -1.5231 -0.1098  0.0505
  590MOL0     H77826  11.680   0.910   6.249 -0.1723 -1.0706  0.6459
  590MOL0     H77827  11.642   1.091   6.414  1.0211 -0.7977 -1.0964
  590MOL0     H77828  11.536   1.171   6.303 -1.3618 -1.5693  1.9226
  590MOL0     H77829  11.843   1.135   6.241  1.9564  4.3933 -1.2689
  590MOL0     H77830  11.718   1.168   6.129 -0.8989  0.0500  0.8407
  590MOL0     H77831  11.783   1.305   6.399  3.7480  0.1612 -1.9209
  590MOL0     H77832  11.639   1.355   6.311  0.0656  3.3567  0.3385
  590MOL0     H77833  12.032   1.336   6.236 -0.1588  0.5204  0.4531
  590MOL0     H77834  12.181   1.490   6.062 -0.0934  0.2427  1.3990
  590MOL0     H77835  12.149   1.633   6.151 -1.0491  0.8080  1.3441
  590MOL0     H77836  12.011   1.716   5.978 -5.4818 -6.6329  1.8342
  590MOL0     H77837  12.030   1.596   5.866  2.6443 -4.3674  0.5248
  590MOL0     H77838  12.302   1.672   5.926  1.5254  1.2493 -2.9552
  590MOL0     H77839  12.210   1.650   5.783  1.8464 -0.9472 -0.0129
  590MOL0     H77840  12.183   1.913   5.938  1.0623 -1.3002  0.6318
  590MOL0     H77841  12.092   1.878   5.796 -1.2504 -1.5156  2.7692
  590MOL0     H77842  12.158   1.769   5.624 -1.0410  1.8776  1.3417
  590MOL0     H77843  12.260   1.720   5.388 -1.5033  0.9107  0.3227
  590MOL0     H77844  12.599   1.593   5.098  0.9614 -0.8026 -0.9323
  590MOL0     H77845  12.793   1.527   4.956  3.4529  1.9753 -2.6830
  590MOL0     H77846  12.987   1.484   4.802  0.2274 -3.3823  1.6507
  590MOL0     H77847  13.008   1.434   4.963  0.9191 -0.4791 -0.7342
  590MOL0     H77848  13.208   1.371   4.859  2.8332  0.0406 -0.4221
  590MOL0     H77849  13.245   1.523   4.941  2.3056 -1.9016  0.8143
  590MOL0     H77850  13.235   1.646   4.726  2.8506 -0.1163 -2.5491
  590MOL0     H77851  13.141   1.517   4.641  0.3418  0.3351  0.0846
  590MOL0     H77852  13.392   1.403   4.723  1.4836  1.6163  1.3498
  590MOL0     H77853  13.367   1.470   4.566 -4.3167 -1.3263 -0.2369
  590MOL0     H77854  13.475   1.615   4.821  0.1068 -1.9373  0.4194
  590MOL0     H77855  13.424   1.699   4.680 -1.6216 -2.3075 -3.5282
  590MOL0     H77856  13.583   1.569   4.534 -0.5999  0.0478  0.3566
  590MOL0     H77857  13.648   1.492   4.682  0.6567  0.2902 -0.6345
  590MOL0     H77858  13.643   1.784   4.595 -1.3953 -1.3535  0.4500
  590MOL0     H77859  13.697   1.742   4.757 -1.5309 -1.6725  0.3063
  590MOL0     H77860  13.871   1.775   4.609  1.0049 -0.1047 -2.1782
  590MOL0     H77861  13.831   1.638   4.511  0.7271  1.4883 -0.6637
  590MOL0     H77862  13.006   1.879   5.036  1.0980 -1.5926 -0.6577
  590MOL0     H77863  12.817   1.972   5.165  0.9758  1.2893 -1.0502
  590MOL0     H77864  12.570   2.010   5.459 -0.6187  0.6296 -1.1625
  590MOL0     H77865  12.505   2.019   5.680  3.0193 -1.6650 -1.2244
  590MOL0     H77866  11.079   1.048   6.605 -2.4322 -0.7921  0.8446
  590MOL0     H77867  10.920   1.149   6.770  1.8575  2.2870  0.6198
  590MOL0     H77868  10.654   1.392   7.056  1.7214  0.2392  1.7498
  590MOL0     H77869  10.470   1.390   7.216 -0.4950 -0.3960 -4.0315
  590MOL0     H77870  10.273   1.157   7.329  0.7395 -1.2693  0.0930
  590MOL0     H77871  10.287   1.327   7.364  0.1975  1.7430  1.8763
  590MOL0     H77872  10.291   1.306   7.607  0.1600 -2.2537  1.4580
  590MOL0     H77873  10.148   1.245   7.517  0.0177  0.3020  1.9050
  590MOL0     H77874  10.377   1.104   7.664 -0.5427 -1.9439  0.9065
  590MOL0     H77875  10.280   1.018   7.545  1.9788  0.1854  0.1054
  590MOL0     H77876  10.223   1.171   7.820 -1.2522  0.9245 -0.2282
  590MOL0     H77877  10.089   1.108   7.719  0.9378 -2.1355 -1.3608
  590MOL0     H77878  10.157   0.773   7.919  0.6375 -1.1106 -1.6346
  590MOL0     H77879  10.662   1.064   7.436 -2.1305  0.4582  1.5719
  590MOL0     H77880  10.842   1.066   7.265 -0.7662  0.2127  2.5400
  591MOL0     O77881   1.743   8.112   8.024  0.2880  0.0202  0.1489
  591MOL0     C77882   1.750   8.092   7.903  0.0704  0.0174 -0.0245
  591MOL0     O77883   1.836   8.154   7.816 -0.8430 -0.4349 -0.7907
  591MOL0     C77884   1.897   8.276   7.844  0.8473 -0.3320  1.0790
  591MOL0     C77885   1.859   8.362   7.941 -0.0842  0.3355 -1.0491
  591MOL0     C77886   1.929   8.470   7.967 -0.4954  0.4725  0.1532
  591MOL0     C77887   2.039   8.507   7.884  0.0334 -0.1744  0.2569
  591MOL0     O77888   2.112   8.619   7.922  0.4776 -0.0054 -0.3803
  591MOL0     C77889   2.152   8.689   7.803 -0.4622 -0.0444  0.4552
  591MOL0     C77890   2.165   8.838   7.847  0.2739  0.5483 -0.1107
  591MOL0     C77891   2.235   8.931   7.740 -0.5750 -0.0863 -0.8389
  591MOL0     C77892   2.255   9.072   7.803  0.4165 -0.3579 -0.0826
  591MOL0     C77893   2.305   9.175   7.688 -0.9366  0.2586 -0.0802
  591MOL0     C77894   2.454   9.143   7.641  0.4333 -0.1496 -0.4026
  591MOL0     C77895   2.515   9.267   7.584 -0.0604  0.9479 -0.4800
  591MOL0     C77896   2.672   9.241   7.549  1.6948 -0.3689 -0.0595
  591MOL0     N77897   2.727   9.367   7.500  0.7105  0.0823  0.2076
  591MOL0     C77898   2.739   9.421   7.375 -0.8760 -1.2358 -1.2081
  591MOL0     C77899   2.790   9.553   7.386 -0.2190 -0.3217  2.3037
  591MOL0     C77900   2.844   9.654   7.288 -0.4974 -0.3564  0.7138
  591MOL0     C77901   2.730   9.716   7.201 -0.5798 -0.1029  0.4019
  591MOL0     C77902   2.769   9.857   7.160 -0.5029 -0.6515  0.0399
  591MOL0     C77903   2.680   9.916   7.057 -0.7939  0.5924 -0.6647
  591MOL0     O77904   2.719  10.047   7.023 -0.0228  0.4080  0.1759
  591MOL0     C77905   2.709  10.135   7.129 -0.4673  0.3264 -0.4683
  591MOL0     C77906   2.597  10.151   7.213  0.5408 -0.1508  0.1759
  591MOL0     C77907   2.592  10.245   7.301 -0.0609  0.3038 -0.3484
  591MOL0     C77908   2.697  10.336   7.322 -1.3289 -0.8652 -0.3722
  591MOL0     C77909   2.689  10.436   7.432  0.0828 -0.1135 -0.3493
  591MOL0     O77910   2.794  10.514   7.465 -0.0885 -0.3961 -0.0387
  591MOL0     C77911   2.776  10.614   7.553  0.6099  0.1084 -0.6099
  591MOL0     C77912   2.714  10.739   7.527 -0.4938  0.4790  0.2109
  591MOL0     C77913   2.683  10.830   7.626 -0.0115 -0.1556  0.3949
  591MOL0     C77914   2.711  10.796   7.761 -0.0502  0.2054 -0.1080
  591MOL0     O77915   2.680  10.887   7.866  0.2939  0.2168  0.2531
  591MOL0     C77916   2.550  10.937   7.855 -0.7510 -0.7494 -0.3912
  591MOL0     C77917   2.496  10.984   7.991 -0.8979  0.5628 -0.1177
  591MOL0     C77918   2.493  10.870   8.093  0.3139 -0.3073  0.2074
  591MOL0     C77919   2.414  10.744   8.056 -0.3876  0.9316  0.2572
  591MOL0     C77920   2.270  10.765   8.083  0.4660 -0.4682 -0.4433
  591MOL0     C77921   2.189  10.697   7.976  0.3230  1.2910  0.9527
  591MOL0     C77922   2.046  10.736   8.006  0.4517  0.1772  0.2553
  591MOL0     C77923   1.955  10.688   7.892 -0.3889 -0.4944  0.5824
  591MOL0    Cl77924   1.937  10.515   7.894 -0.2128 -0.2225  0.1932
  591MOL0     C77925   2.754  10.671   7.792 -0.3499  0.6153 -1.2431
  591MOL0     C77926   2.787  10.577   7.693  0.3379  0.6977  0.1434
  591MOL0     O77927   2.574  10.448   7.480  0.0855 -0.4349  0.1101
  591MOL0     C77928   2.809  10.321   7.247 -0.8261 -0.4156 -0.3608
  591MOL0     C77929   2.820  10.225   7.152  0.4820  0.2283 -0.6183
  591MOL0     N77930   2.814   9.569   7.520 -0.3487 -0.6860 -0.1054
  591MOL0     N77931   2.784   9.463   7.586 -0.0259  0.8087  0.4518
  591MOL0     C77932   2.084   8.413   7.781 -0.7588 -0.1233 -1.3679
  591MOL0     C77933   2.010   8.299   7.756  0.6278  0.7469  0.6134
  591MOL0     C77934   1.671   7.974   7.853  1.3619  0.8308 -0.3271
  591MOL0     C77935   1.554   7.939   7.921  0.7602  0.4534 -1.4516
  591MOL0     C77936   1.490   7.820   7.902  0.6648  1.0115 -0.3946
  591MOL0     C77937   1.536   7.724   7.808  0.1216  0.2401 -0.9459
  591MOL0     O77938   1.490   7.597   7.796  0.6313 -0.0685  0.3489
  591MOL0     C77939   1.423   7.540   7.910 -0.9949  0.3871  0.1550
  591MOL0     C77940   1.394   7.389   7.893  0.7634 -0.4557 -0.0651
  591MOL0     C77941   1.527   7.308   7.881 -0.3363 -0.6626  0.9834
  591MOL0     C77942   1.496   7.169   7.815 -0.1069 -0.0825 -0.4623
  591MOL0     C77943   1.438   7.090   7.920  0.1438 -0.2982  0.2399
  591MOL0     C77944   1.378   7.036   8.013  0.1780  0.5087  0.4480
  591MOL0     C77945   1.644   7.762   7.724  1.1551  0.9110  0.0167
  591MOL0     C77946   1.709   7.890   7.745 -0.4372  0.8543  0.8622
  591MOL0     H77947   1.790   8.342   8.022  3.2609 -0.3021  1.8555
  591MOL0     H77948   1.895   8.531   8.050  0.1020  0.3773  0.4778
  591MOL0     H77949   2.077   8.680   7.723 -0.5782  4.5707 -0.2488
  591MOL0     H77950   2.239   8.641   7.758 -1.0662 -0.4882 -0.2776
  591MOL0     H77951   2.227   8.851   7.936 -0.8192  1.1291  0.5908
  591MOL0     H77952   2.064   8.870   7.874  0.5085 -0.5411  2.3570
  591MOL0     H77953   2.176   8.935   7.648  2.5495 -1.6622 -3.0968
  591MOL0     H77954   2.338   8.901   7.719 -1.1681 -1.2429 -2.2523
  591MOL0     H77955   2.157   9.106   7.839  0.3444  0.2890 -0.8622
  591MOL0     H77956   2.329   9.066   7.883  2.4512 -2.2567 -1.9456
  591MOL0     H77957   2.302   9.265   7.751 -2.2088  0.0027  0.2550
  591MOL0     H77958   2.226   9.188   7.613 -3.1680  1.9933  2.3660
  591MOL0     H77959   2.458   9.061   7.568 -0.3620  1.8328 -2.7940
  591MOL0     H77960   2.505   9.113   7.733  0.1460 -2.2013 -0.8604
  591MOL0     H77961   2.463   9.300   7.494 -0.3030 -0.6207 -0.9516
  591MOL0     H77962   2.507   9.349   7.655 -1.0043  1.4567 -1.1541
  591MOL0     H77963   2.686   9.163   7.473  1.8169 -0.5317  0.1291
  591MOL0     H77964   2.725   9.205   7.637 -0.3391  0.4166  1.5596
  591MOL0     H77965   2.718   9.371   7.281 -3.7941 -3.4175  0.4252
  591MOL0     H77966   2.924   9.610   7.228  0.0396  1.3264  0.1415
  591MOL0     H77967   2.889   9.731   7.351 -1.1093 -2.0224  3.3146
  591MOL0     H77968   2.631   9.719   7.249 -1.3716 -1.3296 -1.0537
  591MOL0     H77969   2.711   9.657   7.111  1.3772 -2.1744  1.2518
  591MOL0     H77970   2.768   9.912   7.255 -0.2606 -1.7397  0.6954
  591MOL0     H77971   2.873   9.854   7.127 -0.6087 -0.2237 -0.3419
  591MOL0     H77972   2.578   9.907   7.096 -0.1683 -2.2132  0.5243
  591MOL0     H77973   2.695   9.860   6.965  0.6459  0.3539 -0.3100
  591MOL0     H77974   2.509  10.087   7.203 -1.5230  2.7187 -1.2767
  591MOL0     H77975   2.505  10.256   7.365 -0.4299 -0.2673 -0.7392
  591MOL0     H77976   2.709  10.764   7.422 -0.6820 -1.8703 -0.3869
  591MOL0     H77977   2.649  10.926   7.588  2.7449  0.1799 -1.5941
  591MOL0     H77978   2.475  10.872   7.809 -2.6425  1.9039 -1.3116
  591MOL0     H77979   2.560  11.023   7.788 -3.8699 -1.4077 -1.8542
  591MOL0     H77980   2.393  11.013   7.967 -0.4392  1.7882 -0.6662
  591MOL0     H77981   2.554  11.065   8.035  1.7117 -2.2681  2.1374
  591MOL0     H77982   2.450  10.895   8.191  1.5761  0.1539  0.6561
  591MOL0     H77983   2.592  10.829   8.113 -0.7525 -2.4152  1.5479
  591MOL0     H77984   2.450  10.722   7.955  0.0961 -1.3783  0.8643
  591MOL0     H77985   2.445  10.666   8.127  2.5677  2.1102  0.4295
  591MOL0     H77986   2.244  10.871   8.095  0.1049 -0.5939 -0.1044
  591MOL0     H77987   2.250  10.720   8.180  0.8207 -2.2161 -1.1442
  591MOL0     H77988   2.197  10.589   7.993 -0.5375  1.4197  2.4109
  591MOL0     H77989   2.216  10.714   7.872  1.8856 -2.3529  0.6179
  591MOL0     H77990   2.019  10.685   8.099 -3.4660  0.1342 -0.7173
  591MOL0     H77991   2.039  10.845   8.009  1.7109  0.2543  1.1083
  591MOL0     H77992   1.997  10.721   7.797  0.1547  0.6523  1.1968
  591MOL0     H77993   1.858  10.739   7.888  1.0773  2.4941 -0.4077
  591MOL0     H77994   2.770  10.652   7.897  1.8761 -3.4765 -2.1271
  591MOL0     H77995   2.830  10.483   7.726  3.0985  1.7406 -0.1913
  591MOL0     H77996   2.897  10.383   7.261 -1.4065  0.1781  0.8396
  591MOL0     H77997   2.918  10.213   7.107  1.2797  0.3753  0.9738
  591MOL0     H77998   2.166   8.434   7.714  1.1488 -1.4300  0.4176
  591MOL0     H77999   2.038   8.221   7.687  0.3162  1.9949 -0.9852
  591MOL0     H78000   1.524   7.994   8.010  0.6037  0.2657 -1.3879
  591MOL0     H78001   1.407   7.789   7.965 -2.3444  0.8658 -4.0393
  591MOL0     H78002   1.324   7.582   7.927 -0.1620  1.6396  2.2878
  591MOL0     H78003   1.477   7.575   7.999 -3.3354  2.4857  0.8859
  591MOL0     H78004   1.333   7.352   7.976  1.6093 -0.4266  0.5726
  591MOL0     H78005   1.342   7.388   7.796 -0.9057  1.1718  0.7560
  591MOL0     H78006   1.572   7.308   7.980  2.5359  3.5566 -0.0309
  591MOL0     H78007   1.600   7.365   7.822 -1.1205 -1.0256 -0.3791
  591MOL0     H78008   1.421   7.169   7.737  1.1832  0.1711 -1.7460
  591MOL0     H78009   1.584   7.109   7.787  0.0581 -0.2822  0.4228
  591MOL0     H78010   1.326   6.994   8.097  2.6504 -1.2477  1.2105
  591MOL0     H78011   1.684   7.695   7.648  0.3265 -1.8748  1.8809
  591MOL0     H78012   1.804   7.903   7.694 -0.1122 -0.7231  1.0103
  592MOL0     O78013   0.837   3.980   7.551  0.4917  0.0158  0.6762
  592MOL0     C78014   0.781   4.095   7.526 -0.3315 -0.0884  0.2834
  592MOL0     O78015   0.768   4.149   7.399 -0.3182 -0.7877 -0.4736
  592MOL0     C78016   0.811   4.054   7.301  0.9619  0.1073 -0.2713
  592MOL0     C78017   0.728   3.957   7.248  0.2983 -0.3089  0.2061
  592MOL0     C78018   0.766   3.875   7.142 -0.6851  0.1483 -0.5971
  592MOL0     C78019   0.893   3.883   7.086 -0.6976  0.5664  0.2131
  592MOL0     O78020   0.938   3.797   6.984  0.7122  0.0730  0.5012
  592MOL0     C78021   0.858   3.677   6.975  0.2554 -0.5148  1.5138
  592MOL0     C78022   0.928   3.566   6.895 -0.5199  0.1798  0.4408
  592MOL0     C78023   1.066   3.525   6.953 -0.5509 -0.4092 -0.1100
  592MOL0     C78024   1.138   3.414   6.874  0.7939 -0.1610  0.1176
  592MOL0     C78025   1.278   3.391   6.933  0.2527  1.3759 -0.0212
  592MOL0     C78026   1.286   3.344   7.077 -0.2060  0.1067 -0.0315
  592MOL0     C78027   1.230   3.204   7.074 -0.8664  1.1943 -0.3059
  592MOL0     C78028   1.291   3.140   7.200 -0.7538  0.3897 -0.2389
  592MOL0     N78029   1.273   3.221   7.327 -1.0284  0.2828 -0.0015
  592MOL0     C78030   1.152   3.235   7.388  0.1426 -0.1187  0.1226
  592MOL0     C78031   1.177   3.251   7.525  0.1227 -0.0662 -0.1966
  592MOL0     C78032   1.086   3.226   7.638  0.7425  0.1484  0.5171
  592MOL0     C78033   0.942   3.265   7.614 -0.3218 -0.5673 -0.6368
  592MOL0     C78034   0.851   3.261   7.738  0.2970 -0.1897  0.2145
  592MOL0     C78035   0.880   3.363   7.852  1.1268  0.7176  0.7335
  592MOL0     O78036   0.844   3.497   7.819  0.1199  0.6905  0.0842
  592MOL0     C78037   0.843   3.594   7.917 -0.2441  0.7130  0.0171
  592MOL0     C78038   0.895   3.569   8.051 -0.8930 -0.1216 -0.1020
  592MOL0     C78039   0.890   3.666   8.151 -0.5905 -0.2564 -0.0718
  592MOL0     C78040   0.837   3.795   8.122  0.0976  0.7546  0.5698
  592MOL0     C78041   0.852   3.890   8.230 -0.9230 -0.2433 -0.3590
  592MOL0     O78042   0.768   3.993   8.227 -0.3004 -0.8938  0.7152
  592MOL0     C78043   0.812   4.123   8.282  0.3047  0.1581  0.0667
  592MOL0     C78044   0.784   4.142   8.411 -0.1516  0.4801 -0.5098
  592MOL0     C78045   0.820   4.258   8.475 -0.2326 -0.4064 -0.5582
  592MOL0     C78046   0.891   4.357   8.406  0.1826 -1.1502  0.5605
  592MOL0     O78047   0.932   4.475   8.464 -0.0579  0.4521  0.9783
  592MOL0     C78048   0.817   4.541   8.522 -0.2076  0.4586 -0.9867
  592MOL0     C78049   0.854   4.684   8.467  0.4525 -0.0753  2.0327
  592MOL0     C78050   0.749   4.792   8.505 -0.2854 -0.5451 -0.6575
  592MOL0     C78051   0.603   4.771   8.448 -0.5921 -0.0672  0.2039
  592MOL0     C78052   0.500   4.837   8.544  0.5775 -0.3280 -0.0884
  592MOL0     C78053   0.523   4.986   8.573  0.8012  0.1626  0.0669
  592MOL0     C78054   0.430   5.042   8.679  0.9719 -0.6705 -1.3170
  592MOL0     C78055   0.487   5.027   8.824 -0.6054 -0.1960  0.0063
  592MOL0    Cl78056   0.618   5.158   8.867  0.2568 -0.0957 -0.1861
  592MOL0     C78057   0.907   4.344   8.265 -0.3828  0.3251 -0.2106
  592MOL0     C78058   0.866   4.222   8.200 -0.6717 -0.1305 -0.1376
  592MOL0     O78059   0.953   3.887   8.299 -0.4379 -0.0680 -0.6831
  592MOL0     C78060   0.804   3.833   7.989  0.7665  0.3556  0.8193
  592MOL0     C78061   0.801   3.732   7.886  0.1078 -0.0785  0.1884
  592MOL0     N78062   1.308   3.274   7.529 -0.4278 -0.3990 -0.6060
  592MOL0     N78063   1.368   3.252   7.415  0.6385  0.1728 -0.2439
  592MOL0     C78064   0.981   3.976   7.134  0.4933 -0.2487  0.4078
  592MOL0     C78065   0.936   4.066   7.239 -0.6085 -0.3406 -0.7537
  592MOL0     C78066   0.718   4.188   7.631  0.0647  0.5541  0.4154
  592MOL0     C78067   0.633   4.288   7.595  0.3965 -0.4755 -0.5144
  592MOL0     C78068   0.567   4.371   7.690  0.8374  0.3298  0.0054
  592MOL0     C78069   0.594   4.349   7.829 -0.0972 -0.8636  0.0240
  592MOL0     O78070   0.559   4.443   7.925  0.3633  0.0287 -0.5059
  592MOL0     C78071   0.506   4.574   7.877  0.0399 -0.1487  0.4002
  592MOL0     C78072   0.477   4.663   7.996  0.5590  0.1763  0.0359
  592MOL0     C78073   0.343   4.634   8.073 -0.8933  0.1701 -0.2745
  592MOL0     C78074   0.337   4.738   8.176  0.3460  0.4047 -1.3747
  592MOL0     C78075   0.237   4.700   8.281 -0.0728 -0.3347  0.2554
  592MOL0     C78076   0.149   4.665   8.359 -0.0444 -0.4842 -0.6817
  592MOL0     C78077   0.679   4.241   7.862 -0.0696  0.1463 -0.7472
  592MOL0     C78078   0.738   4.166   7.764  0.5947  0.6532  0.1705
  592MOL0     H78079   0.626   3.943   7.279  1.1180 -3.3802  1.9214
  592MOL0     H78080   0.685   3.813   7.105 -0.3035 -0.4023 -0.5139
  592MOL0     H78081   0.767   3.695   6.918  1.1466  0.8902  0.4468
  592MOL0     H78082   0.832   3.632   7.072 -1.3484 -1.4798  0.6693
  592MOL0     H78083   0.948   3.584   6.789  0.5474 -5.1581 -0.5564
  592MOL0     H78084   0.863   3.480   6.910 -0.5712  0.0703 -0.4004
  592MOL0     H78085   1.060   3.485   7.055 -1.8315 -1.1289 -0.4435
  592MOL0     H78086   1.132   3.612   6.942 -2.4548  0.8243 -2.7632
  592MOL0     H78087   1.079   3.321   6.874 -0.8391  0.8452  0.2058
  592MOL0     H78088   1.138   3.448   6.771  3.2558 -2.9289 -0.9485
  592MOL0     H78089   1.322   3.491   6.935 -0.2582  1.6064  1.4067
  592MOL0     H78090   1.343   3.326   6.874  2.1231  2.4844  0.7295
  592MOL0     H78091   1.242   3.409   7.153  0.8017 -0.2153  0.8454
  592MOL0     H78092   1.393   3.352   7.097  0.5629  1.4246 -3.7634
  592MOL0     H78093   1.122   3.201   7.091 -0.9696  3.3078 -0.2786
  592MOL0     H78094   1.252   3.143   6.986 -0.7498 -0.4718  0.8392
  592MOL0     H78095   1.397   3.121   7.186 -0.2250  1.4001  1.9605
  592MOL0     H78096   1.238   3.048   7.227 -0.7834  0.5669  0.3201
  592MOL0     H78097   1.053   3.212   7.349 -0.6009  0.9528  1.3123
  592MOL0     H78098   1.122   3.266   7.733 -1.5376  1.3119  0.9479
  592MOL0     H78099   1.085   3.119   7.660 -0.3583  0.8353  4.5869
  592MOL0     H78100   0.898   3.198   7.540 -1.4172 -1.0983  0.4562
  592MOL0     H78101   0.938   3.365   7.569 -1.9139  0.2983  1.2140
  592MOL0     H78102   0.748   3.279   7.706  1.7475  3.9176 -2.9187
  592MOL0     H78103   0.861   3.159   7.778 -1.2360 -0.0832  0.9460
  592MOL0     H78104   0.985   3.368   7.882  1.9637  0.8116 -1.9133
  592MOL0     H78105   0.819   3.336   7.938  1.5307 -0.1054  0.7697
  592MOL0     H78106   0.953   3.480   8.071 -0.3354  0.1830 -0.3530
  592MOL0     H78107   0.920   3.630   8.249  0.1146  1.7158  0.4803
  592MOL0     H78108   0.723   4.076   8.471 -0.9514  1.2052 -0.4898
  592MOL0     H78109   0.790   4.285   8.576 -0.6697  3.3830 -1.5508
  592MOL0     H78110   0.821   4.531   8.631  2.9393 -0.4819 -1.0725
  592MOL0     H78111   0.721   4.510   8.480 -0.3043  2.1269 -2.1041
  592MOL0     H78112   0.868   4.674   8.359  0.4087 -2.7906  2.2128
  592MOL0     H78113   0.955   4.708   8.503  1.6453  3.1467 -2.4905
  592MOL0     H78114   0.787   4.886   8.464  2.0452 -0.7481  0.7872
  592MOL0     H78115   0.755   4.797   8.614 -1.5410  1.3381 -0.6367
  592MOL0     H78116   0.599   4.815   8.348 -1.5407  0.2892  0.3911
  592MOL0     H78117   0.590   4.663   8.435  2.8933 -0.4565 -1.2178
  592MOL0     H78118   0.499   4.781   8.638 -2.8202 -0.6834 -0.2135
  592MOL0     H78119   0.395   4.828   8.515  1.1212 -0.6926 -2.0633
  592MOL0     H78120   0.526   5.050   8.485  1.8798 -0.9148 -0.7076
  592MOL0     H78121   0.627   4.989   8.605  1.7792 -1.7748 -2.5695
  592MOL0     H78122   0.437   5.151   8.671  5.1932 -0.1887  3.4911
  592MOL0     H78123   0.328   5.002   8.677  0.4138  0.5030  0.7123
  592MOL0     H78124   0.517   4.927   8.856 -3.0578 -0.3469  2.1480
  592MOL0     H78125   0.408   5.044   8.897 -0.5464  0.0773  0.0093
  592MOL0     H78126   0.954   4.425   8.210  0.6401  1.4543  2.1814
  592MOL0     H78127   0.879   4.195   8.096 -3.1608 -0.0855 -0.5142
  592MOL0     H78128   0.757   3.930   7.987 -1.9652 -0.8955  0.5909
  592MOL0     H78129   0.771   3.768   7.788  1.5832 -0.1683 -0.3186
  592MOL0     H78130   1.084   3.981   7.097  0.5942 -0.1870  0.6950
  592MOL0     H78131   1.004   4.135   7.288 -1.9366 -0.8778  2.0604
  592MOL0     H78132   0.622   4.314   7.490  2.5543 -4.4822 -1.9523
  592MOL0     H78133   0.505   4.453   7.656 -2.2320 -1.0022  1.9547
  592MOL0     H78134   0.408   4.564   7.830 -0.2343 -0.6902  1.0713
  592MOL0     H78135   0.584   4.600   7.804  3.9115 -5.8964  1.7272
  592MOL0     H78136   0.564   4.649   8.061 -0.8977 -3.9436  1.4152
  592MOL0     H78137   0.485   4.766   7.959  0.8103 -0.0758 -0.6284
  592MOL0     H78138   0.360   4.540   8.126  2.2041  1.5086  1.3927
  592MOL0     H78139   0.257   4.620   8.007 -1.0483 -0.1404 -0.0104
  592MOL0     H78140   0.431   4.753   8.229 -0.0273  3.4935 -1.3725
  592MOL0     H78141   0.309   4.831   8.125 -2.5987  0.5282  0.2469
  592MOL0     H78142   0.072   4.654   8.432 -1.5032 -2.6011 -2.4162
  592MOL0     H78143   0.695   4.222   7.968 -1.6821  0.2960 -0.4518
  592MOL0     H78144   0.795   4.077   7.790 -0.7819 -0.3181 -0.0394
  593MOL0     O78145   3.298   7.260   5.785  0.1817 -0.4312 -0.3111
  593MOL0     C78146   3.307   7.291   5.665  0.1361  0.7038  1.0303
  593MOL0     O78147   3.207   7.345   5.589 -0.3054 -0.5151  1.0318
  593MOL0     C78148   3.092   7.400   5.637  1.6825 -0.2656 -0.9607
  593MOL0     C78149   3.065   7.454   5.769 -1.1617 -0.7885 -0.0027
  593MOL0     C78150   2.936   7.504   5.800 -0.3933 -0.8739 -0.3387
  593MOL0     C78151   2.840   7.499   5.710 -0.8988 -0.0274 -0.2095
  593MOL0     O78152   2.716   7.540   5.745  0.1707  0.0170  0.9238
  593MOL0     C78153   2.606   7.465   5.697  0.4175 -1.5430 -0.1442
  593MOL0     C78154   2.478   7.553   5.704 -0.2543  0.8421 -0.7028
  593MOL0     C78155   2.360   7.465   5.660 -0.6947 -0.7963 -0.0050
  593MOL0     C78156   2.243   7.556   5.630  0.7220  0.5267 -0.5444
  593MOL0     C78157   2.201   7.640   5.749 -0.0430  0.4096  0.5737
  593MOL0     C78158   2.077   7.731   5.721 -0.5911  0.8287  0.5208
  593MOL0     C78159   1.952   7.641   5.692 -0.8924  0.2027 -0.2669
  593MOL0     C78160   1.819   7.700   5.726  1.6345 -0.4606 -0.0935
  593MOL0     N78161   1.807   7.842   5.687 -0.4472 -0.1618 -0.8709
  593MOL0     C78162   1.789   7.895   5.560 -0.4657  0.5008 -0.0833
  593MOL0     C78163   1.802   8.032   5.576  0.1339  0.3524 -0.5906
  593MOL0     C78164   1.812   8.150   5.479  0.3785  0.1020  0.1632
  593MOL0     C78165   1.932   8.120   5.384  1.1171 -0.1579 -0.2094
  593MOL0     C78166   2.058   8.116   5.465  0.1555  1.0522 -0.5666
  593MOL0     C78167   2.171   8.107   5.358  0.0702 -0.2833 -0.0359
  593MOL0     O78168   2.161   7.973   5.292 -0.2987 -0.9758 -0.2981
  593MOL0     C78169   2.271   7.903   5.280  0.0098 -0.4837 -0.1679
  593MOL0     C78170   2.399   7.947   5.252 -0.1288 -1.2927 -0.1599
  593MOL0     C78171   2.508   7.858   5.223 -1.2061  0.4904  0.6707
  593MOL0     C78172   2.495   7.718   5.251 -0.2123  2.1341  0.1733
  593MOL0     C78173   2.612   7.626   5.266 -0.0940 -0.2657 -0.4635
  593MOL0     O78174   2.721   7.650   5.199  0.2244 -0.2722 -0.8838
  593MOL0     C78175   2.823   7.563   5.192  0.0595  0.2363 -1.4196
  593MOL0     C78176   2.810   7.425   5.188  0.2419 -0.9738 -0.7923
  593MOL0     C78177   2.925   7.338   5.182 -0.5221  0.3288 -0.3067
  593MOL0     C78178   3.055   7.400   5.170 -0.6333  1.2843  0.6314
  593MOL0     O78179   3.169   7.326   5.160 -0.2834 -0.3837 -0.4657
  593MOL0     C78180   3.293   7.379   5.099  0.7399 -0.3824 -0.1831
  593MOL0     C78181   3.395   7.271   5.068  0.4202  0.1373 -0.0398
  593MOL0     C78182   3.530   7.317   4.995 -1.0606 -1.0912  0.2929
  593MOL0     C78183   3.651   7.216   4.991 -0.8947 -0.2071 -0.1832
  593MOL0     C78184   3.780   7.296   4.949 -1.2689 -0.1322 -1.0355
  593MOL0     C78185   3.891   7.187   4.900 -0.5258  0.7551  1.1140
  593MOL0     C78186   3.862   7.135   4.748  0.0091 -0.4761  0.0328
  593MOL0     C78187   3.890   7.247   4.647  0.0356  0.1195 -0.9406
  593MOL0    Cl78188   4.066   7.301   4.646  0.0300  0.1611 -0.4384
  593MOL0     C78189   3.066   7.537   5.157 -0.2689 -0.8139  0.6650
  593MOL0     C78190   2.954   7.621   5.179  0.3818 -0.1148  0.7393
  593MOL0     O78191   2.589   7.544   5.357  0.2639 -0.1883 -0.4325
  593MOL0     C78192   2.361   7.672   5.283 -0.7513 -0.3641  0.2367
  593MOL0     C78193   2.255   7.764   5.303  0.0820  0.8213 -0.1708
  593MOL0     N78194   1.827   8.047   5.706 -0.1943  0.1141 -0.5645
  593MOL0     N78195   1.828   7.939   5.775 -0.1745  0.1554 -0.8572
  593MOL0     C78196   2.868   7.441   5.584  0.1601  0.5948  0.5260
  593MOL0     C78197   2.989   7.393   5.555  0.3451  0.2202  0.2459
  593MOL0     C78198   3.437   7.246   5.603 -0.3247  0.7823 -0.1048
  593MOL0     C78199   3.482   7.283   5.470  0.5136 -0.1930  0.6914
  593MOL0     C78200   3.612   7.233   5.423 -0.3185 -0.4474  0.3023
  593MOL0     C78201   3.685   7.141   5.498 -0.1302 -0.8059 -0.1571
  593MOL0     O78202   3.776   7.074   5.419 -1.0659  0.7767 -0.8787
  593MOL0     C78203   3.851   6.962   5.471  0.9404  0.1596 -0.7751
  593MOL0     C78204   3.933   6.892   5.367  0.4661  0.9620 -0.9810
  593MOL0     C78205   4.016   6.997   5.291 -0.4237 -0.2531  0.0905
  593MOL0     C78206   4.102   7.103   5.366  0.2315 -1.2733 -0.2239
  593MOL0     C78207   4.209   7.141   5.272 -0.6219  0.5111  0.4702
  593MOL0     C78208   4.304   7.182   5.201 -0.2502 -0.2144 -0.3588
  593MOL0     C78209   3.640   7.104   5.623 -0.1767  0.0501  0.0846
  593MOL0     C78210   3.516   7.157   5.674 -1.1783  0.1828  0.7793
  593MOL0     H78211   3.144   7.461   5.843  1.5542  0.4166 -2.8110
  593MOL0     H78212   2.918   7.548   5.898 -1.8554  2.1643 -1.8521
  593MOL0     H78213   2.588   7.376   5.758 -0.0425 -1.0476  0.4574
  593MOL0     H78214   2.618   7.426   5.596  0.6257 -3.8423  0.6850
  593MOL0     H78215   2.483   7.641   5.639  0.5902  2.3739  1.3032
  593MOL0     H78216   2.460   7.582   5.808 -1.8954 -1.1068 -0.3733
  593MOL0     H78217   2.327   7.406   5.746 -0.6754 -0.5601  0.1656
  593MOL0     H78218   2.373   7.395   5.578  0.5833 -0.9701  0.3189
  593MOL0     H78219   2.290   7.611   5.548  1.7916 -1.0482 -1.0245
  593MOL0     H78220   2.163   7.493   5.591  2.6621 -0.5159 -3.2128
  593MOL0     H78221   2.283   7.703   5.787  0.1046  1.9652 -2.0333
  593MOL0     H78222   2.168   7.576   5.831  0.8613 -0.1152  0.5344
  593MOL0     H78223   2.095   7.803   5.641  1.0266 -0.1800 -0.0632
  593MOL0     H78224   2.064   7.792   5.811 -1.4226  0.3255  0.7507
  593MOL0     H78225   1.951   7.634   5.583 -1.8249  2.2126 -0.4271
  593MOL0     H78226   1.968   7.539   5.728  2.0774 -0.0234 -1.8919
  593MOL0     H78227   1.794   7.702   5.833 -1.7369  4.1238 -0.6511
  593MOL0     H78228   1.748   7.635   5.674  0.4949  1.3223 -0.8939
  593MOL0     H78229   1.778   7.833   5.472  3.1701  2.5664 -2.2319
  593MOL0     H78230   1.821   8.249   5.526 -1.0336 -0.2685  1.2742
  593MOL0     H78231   1.719   8.155   5.422  1.7603  1.7927 -2.0988
  593MOL0     H78232   1.930   8.199   5.308 -0.0882 -2.0580 -2.2741
  593MOL0     H78233   1.913   8.027   5.330 -0.2326  0.4517 -0.8227
  593MOL0     H78234   2.070   8.211   5.518  0.2447  1.1207 -0.7090
  593MOL0     H78235   2.052   8.029   5.530 -3.4379  0.6076 -1.2760
  593MOL0     H78236   2.266   8.104   5.411  0.7770 -4.1546 -1.2206
  593MOL0     H78237   2.165   8.194   5.293  0.5256  1.8936  2.6477
  593MOL0     H78238   2.408   8.055   5.254 -1.4516 -1.1672  1.6445
  593MOL0     H78239   2.608   7.883   5.188 -0.1258 -1.6630  1.9932
  593MOL0     H78240   2.710   7.382   5.192  0.7772 -2.1974 -0.0100
  593MOL0     H78241   2.921   7.229   5.186  0.6398  0.0766 -3.1535
  593MOL0     H78242   3.330   7.446   5.177  0.4302  0.2350 -0.5621
  593MOL0     H78243   3.275   7.429   5.004  0.1859  0.0235  0.1232
  593MOL0     H78244   3.342   7.198   5.006  1.3035 -1.5930  1.1879
  593MOL0     H78245   3.425   7.234   5.166 -0.4246 -0.2598  0.0803
  593MOL0     H78246   3.566   7.412   5.035  0.4647 -0.9014 -1.4098
  593MOL0     H78247   3.503   7.349   4.894  0.4171  0.8343  0.4441
  593MOL0     H78248   3.661   7.171   5.090  2.7124  0.7290  0.0470
  593MOL0     H78249   3.617   7.135   4.926 -0.2546 -1.3787  0.8913
  593MOL0     H78250   3.823   7.349   5.034 -1.1254  0.8315 -1.6959
  593MOL0     H78251   3.760   7.372   4.873  3.8771 -1.3035 -3.9713
  593MOL0     H78252   3.896   7.107   4.974  2.3676 -0.9706 -0.7462
  593MOL0     H78253   3.995   7.223   4.897  0.8423 -2.7629 -1.1180
  593MOL0     H78254   3.935   7.057   4.725  1.0789 -0.8126  3.8179
  593MOL0     H78255   3.758   7.101   4.746 -0.0377 -0.9752  3.8407
  593MOL0     H78256   3.828   7.331   4.678  1.8907  0.3400  2.7186
  593MOL0     H78257   3.853   7.218   4.548  2.2350  2.0135 -2.4396
  593MOL0     H78258   3.164   7.578   5.131 -0.1420 -1.3396  0.2835
  593MOL0     H78259   2.959   7.729   5.185  2.8941 -0.2156  4.4142
  593MOL0     H78260   2.336   7.566   5.289 -5.1490  0.5748  1.8924
  593MOL0     H78261   2.157   7.727   5.332  0.6011 -0.1109  0.4506
  593MOL0     H78262   2.797   7.447   5.502  0.7080  0.5574  0.0426
  593MOL0     H78263   3.003   7.347   5.458 -1.4173 -0.4700  0.2725
  593MOL0     H78264   3.435   7.356   5.406  3.2014 -0.0997 -1.3738
  593MOL0     H78265   3.648   7.264   5.325 -0.5980 -1.2815 -0.0788
  593MOL0     H78266   3.778   6.902   5.526  1.3886 -0.7330 -1.1232
  593MOL0     H78267   3.911   7.002   5.553  2.5160  0.6688 -2.1182
  593MOL0     H78268   3.992   6.811   5.412 -3.0767 -0.7584  0.9684
  593MOL0     H78269   3.868   6.833   5.302  1.7795 -1.9946  0.1929
  593MOL0     H78270   3.942   7.046   5.227 -2.4400 -0.7302  1.9634
  593MOL0     H78271   4.096   6.945   5.238  0.7013  2.0833 -0.6394
  593MOL0     H78272   4.048   7.197   5.384  2.7370  0.9825 -3.4141
  593MOL0     H78273   4.148   7.064   5.457  1.0187 -1.1493 -0.5663
  593MOL0     H78274   4.397   7.209   5.155  0.4670 -3.4677 -1.1160
  593MOL0     H78275   3.686   7.028   5.685 -2.3260 -0.1735  1.5228
  593MOL0     H78276   3.492   7.105   5.766  0.3361 -2.3650 -0.1739
  594MOL0     O78277   7.428   2.131   3.657 -0.0056  0.0554  0.4149
  594MOL0     C78278   7.435   2.017   3.612  0.6636 -0.1778  0.3274
  594MOL0     O78279   7.393   1.982   3.489 -0.1288  0.5964 -0.3961
  594MOL0     C78280   7.341   2.070   3.400  0.3320 -0.3601  0.8090
  594MOL0     C78281   7.240   2.033   3.311  0.6143  1.2022 -0.7877
  594MOL0     C78282   7.202   2.124   3.212  0.6275 -0.5732  0.8993
  594MOL0     C78283   7.268   2.243   3.197 -0.4431  0.8765  1.0393
  594MOL0     O78284   7.240   2.333   3.100  0.4370 -0.3862  0.3698
  594MOL0     C78285   7.157   2.307   2.984  0.3449  0.0204 -0.1694
  594MOL0     C78286   7.149   2.432   2.899 -0.6545  0.2268 -0.7234
  594MOL0     C78287   7.043   2.416   2.780 -0.6868 -0.0449  0.2122
  594MOL0     C78288   7.073   2.310   2.674 -0.0503  0.4680  0.6660
  594MOL0     C78289   6.978   2.317   2.552 -0.2542 -0.3095  0.2328
  594MOL0     C78290   7.011   2.416   2.438  0.2379 -0.5431  0.3007
  594MOL0     C78291   7.011   2.563   2.478  0.6055 -0.0680 -0.9507
  594MOL0     C78292   6.985   2.650   2.345 -0.5193  0.0586 -0.3451
  594MOL0     N78293   6.845   2.668   2.326 -0.2189  0.6073  0.3851
  594MOL0     C78294   6.753   2.723   2.415  0.2995 -0.6381  0.6901
  594MOL0     C78295   6.635   2.678   2.369  1.4543 -0.0518  0.0733
  594MOL0     C78296   6.497   2.717   2.421  0.0985  0.4656 -0.2923
  594MOL0     C78297   6.472   2.628   2.552  0.0486 -0.2040  0.6059
  594MOL0     C78298   6.481   2.484   2.499 -0.2082  0.6046  1.1543
  594MOL0     C78299   6.411   2.384   2.589  0.3907 -0.1563  0.0440
  594MOL0     O78300   6.471   2.379   2.716 -0.2428 -0.0599  0.3314
  594MOL0     C78301   6.406   2.310   2.821 -0.4795 -0.5750  0.8001
  594MOL0     C78302   6.270   2.275   2.827  0.0291 -0.5068 -0.0535
  594MOL0     C78303   6.198   2.214   2.934 -0.2601  0.1973 -0.1768
  594MOL0     C78304   6.278   2.191   3.049  1.0183 -0.6413  0.3389
  594MOL0     C78305   6.209   2.137   3.169 -0.4719 -0.4589 -0.2894
  594MOL0     O78306   6.076   2.164   3.167  0.7407 -0.2262  0.2254
  594MOL0     C78307   6.008   2.159   3.285  1.0626 -0.1668  0.6123
  594MOL0     C78308   6.028   2.249   3.392 -0.1246 -0.2703 -0.8810
  594MOL0     C78309   5.942   2.251   3.505 -0.0815 -0.0374 -1.1738
  594MOL0     C78310   5.822   2.172   3.502 -0.1583 -0.2504  1.7268
  594MOL0     O78311   5.744   2.159   3.609  0.1703  0.3634 -0.2158
  594MOL0     C78312   5.801   2.161   3.733  0.1241 -0.1986 -0.6244
  594MOL0     C78313   5.696   2.256   3.809 -0.0171  0.1738  0.6773
  594MOL0     C78314   5.722   2.280   3.955 -0.4090  0.1916  0.6065
  594MOL0     C78315   5.846   2.365   3.983  0.1047  0.9425  1.1924
  594MOL0     C78316   5.836   2.504   3.916  0.0140 -0.1796 -0.0148
  594MOL0     C78317   5.759   2.601   3.996  0.2956 -0.1329 -0.7481
  594MOL0     C78318   5.800   2.649   4.126 -0.1939 -0.0466  0.6457
  594MOL0     C78319   5.684   2.718   4.206  0.0861 -0.6760  0.7800
  594MOL0    Cl78320   5.741   2.793   4.347 -0.3205 -0.2311 -0.1151
  594MOL0     C78321   5.811   2.081   3.396  0.0231  0.7082 -1.2902
  594MOL0     C78322   5.902   2.070   3.303  0.3711  0.0323  0.3965
  594MOL0     O78323   6.272   2.107   3.268 -0.5778 -0.0313  0.0817
  594MOL0     C78324   6.418   2.238   3.052  0.0561  0.4543  0.6451
  594MOL0     C78325   6.480   2.293   2.940 -0.1765 -0.1818 -0.3696
  594MOL0     N78326   6.645   2.606   2.255 -0.2016 -0.7501  1.3296
  594MOL0     N78327   6.775   2.605   2.226  0.4714 -0.0637 -0.5606
  594MOL0     C78328   7.362   2.286   3.286 -0.4872 -0.1448  0.7302
  594MOL0     C78329   7.401   2.192   3.380  0.3519 -0.1846  0.5360
  594MOL0     C78330   7.505   1.926   3.693  0.2301  0.9695  0.0209
  594MOL0     C78331   7.577   1.817   3.636 -1.1074  0.6558 -0.2056
  594MOL0     C78332   7.650   1.713   3.706  0.2975 -0.7523  0.0466
  594MOL0     C78333   7.659   1.727   3.847  0.2071 -0.1364  0.4213
  594MOL0     O78334   7.747   1.637   3.911 -0.6067 -0.2114 -1.4242
  594MOL0     C78335   7.763   1.664   4.059  0.4220  0.1372  0.1119
  594MOL0     C78336   7.837   1.554   4.121  0.2564  0.2925  0.0963
  594MOL0     C78337   7.810   1.554   4.277  1.2880 -0.3089 -0.7161
  594MOL0     C78338   7.904   1.475   4.358 -1.1761  0.9445  0.2468
  594MOL0     C78339   7.928   1.340   4.303  0.2464 -0.8469 -0.4458
  594MOL0     C78340   7.944   1.230   4.242  0.0590 -0.5253  0.1417
  594MOL0     C78341   7.596   1.840   3.900  0.4860 -0.0264  0.0097
  594MOL0     C78342   7.520   1.935   3.832  0.0192  0.9568 -0.1928
  594MOL0     H78343   7.181   1.942   3.314 -0.3853  1.8244 -1.3364
  594MOL0     H78344   7.114   2.098   3.153  1.3481 -0.6286 -0.1796
  594MOL0     H78345   7.053   2.287   3.011  0.5588 -0.5060  0.2836
  594MOL0     H78346   7.189   2.226   2.917 -0.1741 -0.2897 -0.0506
  594MOL0     H78347   7.249   2.457   2.863  0.7478 -3.6643 -0.0048
  594MOL0     H78348   7.124   2.512   2.969 -4.0842  0.5757 -2.1121
  594MOL0     H78349   7.058   2.514   2.732  3.4892 -1.5551 -2.1124
  594MOL0     H78350   6.938   2.409   2.809 -1.2114 -1.7208 -1.9130
  594MOL0     H78351   7.181   2.307   2.656 -0.0663  1.3805  0.4073
  594MOL0     H78352   7.040   2.218   2.724 -1.3259  0.5823  0.0822
  594MOL0     H78353   6.878   2.343   2.590  0.9134  0.3359  3.1629
  594MOL0     H78354   6.967   2.219   2.504 -0.8899 -0.5427  0.8289
  594MOL0     H78355   6.927   2.397   2.371 -1.3684  0.9851  1.7792
  594MOL0     H78356   7.110   2.397   2.396 -0.2553 -0.4718 -0.9342
  594MOL0     H78357   6.936   2.588   2.553 -0.2615 -4.5516 -0.0028
  594MOL0     H78358   7.108   2.598   2.515  0.8095 -0.7078 -0.8651
  594MOL0     H78359   7.027   2.610   2.251  1.1375  0.6226  0.1174
  594MOL0     H78360   7.008   2.755   2.363  1.6653 -0.1531 -1.5817
  594MOL0     H78361   6.766   2.801   2.488  0.2954 -0.6545  0.7086
  594MOL0     H78362   6.431   2.698   2.336  3.3408 -0.7576 -2.7320
  594MOL0     H78363   6.511   2.824   2.441 -0.5837  0.5528 -0.2348
  594MOL0     H78364   6.381   2.668   2.599  0.2110 -1.3072  1.9167
  594MOL0     H78365   6.553   2.649   2.622  1.5147 -0.6349 -0.9139
  594MOL0     H78366   6.434   2.483   2.401  3.9491  0.8592 -1.0698
  594MOL0     H78367   6.585   2.453   2.481  0.7926  3.2983  1.7973
  594MOL0     H78368   6.398   2.288   2.537  2.0048 -0.3286 -0.1012
  594MOL0     H78369   6.310   2.421   2.611 -0.6959 -1.5853 -2.1008
  594MOL0     H78370   6.206   2.297   2.741  1.1589 -1.4188 -1.1681
  594MOL0     H78371   6.089   2.213   2.936 -0.5354  5.3319  1.0858
  594MOL0     H78372   6.114   2.314   3.390 -1.4630  1.5599 -1.2765
  594MOL0     H78373   5.962   2.326   3.580 -0.6620 -1.1459  0.1354
  594MOL0     H78374   5.897   2.212   3.745  0.2592 -1.0042  2.7479
  594MOL0     H78375   5.805   2.061   3.777 -0.2716 -0.2162 -0.6294
  594MOL0     H78376   5.600   2.207   3.790 -1.2047  1.6715  2.4912
  594MOL0     H78377   5.688   2.354   3.761  0.5155  0.1291  0.4792
  594MOL0     H78378   5.738   2.183   4.003 -1.0863  0.5626  1.6061
  594MOL0     H78379   5.634   2.322   4.004 -0.3379 -1.3283  2.1396
  594MOL0     H78380   5.861   2.361   4.091  1.8906 -2.7281  0.9699
  594MOL0     H78381   5.934   2.312   3.945  0.2433  0.4539  2.1705
  594MOL0     H78382   5.795   2.515   3.815 -0.6356  1.0340  0.3560
  594MOL0     H78383   5.941   2.534   3.908 -0.3496  0.8922 -1.3451
  594MOL0     H78384   5.660   2.557   4.013 -0.7666  2.7245  1.0463
  594MOL0     H78385   5.750   2.693   3.938  3.0269 -0.5152 -1.9303
  594MOL0     H78386   5.821   2.565   4.193 -0.1884  1.0112  2.0268
  594MOL0     H78387   5.887   2.715   4.117 -2.1945  2.5502 -1.3049
  594MOL0     H78388   5.608   2.644   4.231 -0.7434 -0.8098 -1.7822
  594MOL0     H78389   5.640   2.793   4.139 -1.0263 -0.8159  1.3375
  594MOL0     H78390   5.723   2.017   3.389  2.1807 -2.6295 -0.4311
  594MOL0     H78391   5.893   2.007   3.215  0.9806 -1.0260  1.0685
  594MOL0     H78392   6.478   2.237   3.142 -1.8924 -1.3648  2.0500
  594MOL0     H78393   6.587   2.312   2.943 -0.3759  0.9592 -0.0926
  594MOL0     H78394   7.407   2.385   3.282 -2.0974  0.5881 -0.6249
  594MOL0     H78395   7.479   2.216   3.452 -0.6044  0.3977  1.3953
  594MOL0     H78396   7.588   1.814   3.528  2.8979 -4.4711 -0.0264
  594MOL0     H78397   7.712   1.635   3.663  1.3274 -1.7891  3.1331
  594MOL0     H78398   7.668   1.675   4.112 -0.9672 -1.9320 -1.7614
  594MOL0     H78399   7.817   1.759   4.066 -0.8750  0.9818 -0.8553
  594MOL0     H78400   7.811   1.450   4.096  1.5752 -1.0573  3.5705
  594MOL0     H78401   7.944   1.557   4.099  0.1620 -0.8319 -0.5851
  594MOL0     H78402   7.714   1.508   4.305  1.0732  0.6955  0.2732
  594MOL0     H78403   7.804   1.659   4.307 -0.3261 -0.0854 -1.7151
  594MOL0     H78404   7.998   1.529   4.372 -0.5063 -0.5475  1.8759
  594MOL0     H78405   7.856   1.448   4.453  4.1775 -0.1531  3.0610
  594MOL0     H78406   7.954   1.144   4.179  0.7022  0.1347 -0.6834
  594MOL0     H78407   7.620   1.853   4.005 -0.0903  2.6051 -0.1110
  594MOL0     H78408   7.478   2.019   3.886 -0.8633  0.4242 -0.0354
  595MOL0     O78409   7.363   4.889  11.168  0.6312 -0.6494  0.3435
  595MOL0     C78410   7.392   4.865  11.047  0.0955  0.5705  0.3974
  595MOL0     O78411   7.303   4.860  10.946  0.6743 -0.5235  0.5794
  595MOL0     C78412   7.178   4.899  10.972 -0.7037  0.5530 -0.6256
  595MOL0     C78413   7.060   4.813  10.988 -0.3498 -0.3147 -0.1636
  595MOL0     C78414   6.935   4.866  11.012  0.1827  0.7292  0.0181
  595MOL0     C78415   6.915   5.005  11.027  0.4125 -0.5319 -1.2057
  595MOL0     O78416   6.779   5.034  11.059  0.1532 -0.1557  0.4053
  595MOL0     C78417   6.765   5.159  11.126  0.4472 -0.3991 -0.6954
  595MOL0     C78418   6.622   5.177  11.169  0.1179  0.3217  0.9075
  595MOL0     C78419   6.601   5.309  11.233 -0.6602 -0.2022 -0.4003
  595MOL0     C78420   6.459   5.348  11.234  0.5475  0.8300  0.9484
  595MOL0     C78421   6.419   5.453  11.339 -0.1865  0.6295 -0.0852
  595MOL0     C78422   6.264   5.462  11.324 -0.8100  1.0157  0.0592
  595MOL0     C78423   6.212   5.586  11.397  0.4166 -0.4832 -1.0665
  595MOL0     C78424   6.181   5.573  11.546  0.6062 -0.0497 -0.6204
  595MOL0     N78425   6.214   5.691  11.616  0.7482 -0.0276  0.0512
  595MOL0     C78426   6.339   5.732  11.649  0.1228  0.5368 -0.0946
  595MOL0     C78427   6.316   5.843  11.720  1.3885  0.2808 -0.0031
  595MOL0     C78428   6.428   5.918  11.784  0.2313 -0.2999  0.8558
  595MOL0     C78429   6.432   6.064  11.773 -0.0837 -1.1566 -0.3130
  595MOL0     C78430   6.342   6.139  11.874  0.7763  0.1937  0.2707
  595MOL0     C78431   6.371   6.289  11.857  0.3643  0.0713 -0.6234
  595MOL0     O78432   6.292   6.366  11.958  0.2422 -0.0552 -0.5894
  595MOL0     C78433   6.341   6.475  12.031  0.0211  0.1825 -0.7254
  595MOL0     C78434   6.298   6.495  12.169  0.0353 -1.0833 -0.0088
  595MOL0     C78435   6.339   6.598  12.252  0.5145 -0.4435 -0.5130
  595MOL0     C78436   6.440   6.676  12.203  0.3311 -0.3113  0.4602
  595MOL0     C78437   6.505   6.779  12.296  0.7124  0.1074 -0.6929
  595MOL0     O78438   6.566   6.881  12.241  0.3454 -0.9600  0.2479
  595MOL0     C78439   6.632   6.968  12.322  0.0713 -0.1625  0.4002
  595MOL0     C78440   6.767   6.977  12.299  1.0736  0.0239  0.1393
  595MOL0     C78441   6.845   7.067  12.378 -0.2946 -0.5132  0.0668
  595MOL0     C78442   6.786   7.143  12.486  0.0013  0.0372  0.9291
  595MOL0     O78443   6.847   7.231  12.576 -0.5877  0.1521  0.5718
  595MOL0     C78444   6.994   7.228  12.556  0.0660  0.0571 -0.1224
  595MOL0     C78445   7.056   7.321  12.664  0.8004  0.2706  0.3971
  595MOL0     C78446   7.191   7.357  12.618  0.5722 -0.0848 -0.4529
  595MOL0     C78447   7.294   7.235  12.605 -0.5263  0.6178 -0.0087
  595MOL0     C78448   7.450   7.278  12.593 -0.5848  0.4621 -0.4967
  595MOL0     C78449   7.548   7.170  12.562  0.4351  0.1512 -0.1916
  595MOL0     C78450   7.575   7.069  12.684 -0.0513  1.2042  0.0893
  595MOL0     C78451   7.724   7.027  12.697  0.4143  0.6722 -0.0098
  595MOL0    Cl78452   7.795   6.952  12.538 -0.4426 -0.0136  0.1271
  595MOL0     C78453   6.649   7.127  12.507  0.3130  0.6463  0.3433
  595MOL0     C78454   6.575   7.047  12.424  0.5484 -0.2089  0.4352
  595MOL0     O78455   6.497   6.761  12.423  0.0641  0.5757  0.1066
  595MOL0     C78456   6.482   6.669  12.066  1.6462  0.1122  0.4322
  595MOL0     C78457   6.432   6.570  11.987 -0.5928  0.6951  0.1271
  595MOL0     N78458   6.180   5.865  11.738 -0.6612  0.3870 -0.4110
  595MOL0     N78459   6.121   5.780  11.667 -0.2970 -0.6346  0.0397
  595MOL0     C78460   7.027   5.088  11.014 -0.5587 -0.9059  0.5089
  595MOL0     C78461   7.153   5.039  10.983  0.6571 -0.0478  0.0947
  595MOL0     C78462   7.536   4.833  11.012  0.7857 -1.3061 -0.6884
  595MOL0     C78463   7.642   4.855  11.104  0.6138  0.8639 -0.0447
  595MOL0     C78464   7.767   4.813  11.074  0.5482  0.1323 -0.3772
  595MOL0     C78465   7.791   4.740  10.952  0.4291 -0.6611 -0.1119
  595MOL0     O78466   7.908   4.675  10.919 -0.1643  0.2486 -0.1034
  595MOL0     C78467   8.017   4.674  11.015  1.5712  0.5604  0.0157
  595MOL0     C78468   8.152   4.666  10.942 -0.5104 -0.4998  0.7489
  595MOL0     C78469   8.211   4.525  10.912 -0.2436  0.0848 -0.5306
  595MOL0     C78470   8.306   4.457  11.008 -0.5580  0.0253  0.4963
  595MOL0     C78471   8.422   4.532  11.039  0.2176 -0.2549 -1.5768
  595MOL0     C78472   8.531   4.590  11.068  0.2853 -0.7196 -0.5297
  595MOL0     C78473   7.690   4.717  10.861 -0.5926  0.5029  0.0208
  595MOL0     C78474   7.563   4.765  10.891  0.4185 -0.0352  0.1731
  595MOL0     H78475   7.077   4.707  10.977 -2.3589 -0.4065 -6.6453
  595MOL0     H78476   6.843   4.809  11.021  0.7706 -0.1677  0.5402
  595MOL0     H78477   6.783   5.245  11.061 -1.3037  1.6455  1.3381
  595MOL0     H78478   6.828   5.144  11.214  0.3037 -2.1421 -0.8562
  595MOL0     H78479   6.595   5.094  11.234 -1.7719  0.6267  0.5746
  595MOL0     H78480   6.551   5.168  11.086 -1.0235  0.7068  1.8320
  595MOL0     H78481   6.662   5.390  11.190  2.2755  0.0934  3.7138
  595MOL0     H78482   6.632   5.305  11.338  0.9268  2.7680 -0.6233
  595MOL0     H78483   6.428   5.386  11.137 -1.0686 -0.0364  1.0964
  595MOL0     H78484   6.389   5.267  11.257 -0.2214  1.4580  0.8666
  595MOL0     H78485   6.463   5.551  11.316 -3.2022  1.6122 -2.4694
  595MOL0     H78486   6.445   5.428  11.442 -0.7922  0.6226  0.0731
  595MOL0     H78487   6.223   5.369  11.364  1.9770  1.0871  3.6680
  595MOL0     H78488   6.239   5.470  11.218 -0.5953  1.6598  0.0521
  595MOL0     H78489   6.294   5.657  11.388  2.4328 -2.6073 -0.5072
  595MOL0     H78490   6.127   5.632  11.345  1.5124  1.3972 -1.2596
  595MOL0     H78491   6.225   5.487  11.597 -0.9564  1.4349  3.6686
  595MOL0     H78492   6.072   5.561  11.545  0.6519 -0.8220  1.1404
  595MOL0     H78493   6.433   5.691  11.615  2.1506  2.7017  2.4526
  595MOL0     H78494   6.515   5.866  11.742 -0.8849 -1.5373 -0.0334
  595MOL0     H78495   6.431   5.886  11.888  0.2470  0.7447  1.1871
  595MOL0     H78496   6.393   6.097  11.676 -1.3687 -1.2243  0.1569
  595MOL0     H78497   6.532   6.107  11.770  0.2657 -1.8846 -4.0783
  595MOL0     H78498   6.238   6.120  11.843  0.7631 -1.0393  0.9975
  595MOL0     H78499   6.350   6.118  11.981 -2.5274  1.7680  0.9515
  595MOL0     H78500   6.336   6.314  11.757  0.1852  1.0021 -0.3433
  595MOL0     H78501   6.473   6.321  11.877 -0.0760  0.7100  0.7492
  595MOL0     H78502   6.228   6.422  12.206  0.9268 -1.5351  0.8360
  595MOL0     H78503   6.308   6.605  12.356  1.5775  4.2302 -0.2768
  595MOL0     H78504   6.810   6.910  12.225  0.7386  0.3974 -0.3970
  595MOL0     H78505   6.950   7.082  12.354  0.9212  0.2301  4.8069
  595MOL0     H78506   7.022   7.273  12.461 -0.1414 -2.5675 -1.5158
  595MOL0     H78507   7.043   7.130  12.544  0.9213  0.7376 -2.9361
  595MOL0     H78508   7.063   7.277  12.764 -1.4194  1.5858  1.2082
  595MOL0     H78509   6.986   7.404  12.676 -1.3430 -0.5340 -4.2068
  595MOL0     H78510   7.237   7.421  12.694  0.0130  0.7454 -0.7973
  595MOL0     H78511   7.188   7.416  12.526  0.0973  1.3263  0.4150
  595MOL0     H78512   7.281   7.161  12.683  1.9389 -0.9329 -0.9507
  595MOL0     H78513   7.275   7.186  12.509  2.0411  0.3218 -0.4442
  595MOL0     H78514   7.475   7.317  12.692 -1.8593 -0.2647  0.1287
  595MOL0     H78515   7.454   7.364  12.526  0.7103  1.0154  0.2619
  595MOL0     H78516   7.645   7.214  12.538  0.6518 -1.2502 -2.1905
  595MOL0     H78517   7.515   7.127  12.467 -1.6042  0.2720  0.4134
  595MOL0     H78518   7.537   7.112  12.777 -2.3118 -1.1310  0.3435
  595MOL0     H78519   7.512   6.981  12.669  1.0219  0.6311 -1.2873
  595MOL0     H78520   7.727   6.948  12.772  0.6576 -0.1269 -0.8428
  595MOL0     H78521   7.796   7.102  12.729  1.2583  0.0351 -0.3807
  595MOL0     H78522   6.603   7.190  12.583  0.9234  2.8398 -0.9928
  595MOL0     H78523   6.468   7.036  12.436  0.1708  1.6609 -0.7569
  595MOL0     H78524   6.562   6.733  12.031  0.3980  1.9715  0.8529
  595MOL0     H78525   6.479   6.564  11.889 -0.0287  1.9032  0.3090
  595MOL0     H78526   7.003   5.194  11.013 -0.6456 -0.9225  0.8741
  595MOL0     H78527   7.238   5.098  10.952 -0.8638  2.2996  0.1541
  595MOL0     H78528   7.611   4.894  11.201 -2.4672  1.2571 -1.0967
  595MOL0     H78529   7.844   4.813  11.151  0.2998 -0.6214 -0.1194
  595MOL0     H78530   8.011   4.591  11.085  0.6166  0.0767 -0.6043
  595MOL0     H78531   8.016   4.767  11.072  0.0828 -1.4887  3.6188
  595MOL0     H78532   8.154   4.705  10.840  2.4662 -1.3526  0.3903
  595MOL0     H78533   8.227   4.721  11.000 -1.8424  0.0642  2.0142
  595MOL0     H78534   8.247   4.522  10.808  3.6861  1.1631  0.6337
  595MOL0     H78535   8.118   4.468  10.909 -1.8575  2.5537 -0.7088
  595MOL0     H78536   8.241   4.436  11.094 -0.2933 -2.1840  0.2165
  595MOL0     H78537   8.329   4.364  10.955 -1.6784 -1.7844  2.9866
  595MOL0     H78538   8.623   4.643  11.084  1.7979 -3.3252 -0.1138
  595MOL0     H78539   7.709   4.671  10.764 -2.4027 -2.6559  1.0124
  595MOL0     H78540   7.477   4.738  10.830  0.1278 -1.6136  1.2436
  596MOL0     O78541   9.175  10.496   3.290 -0.1065 -0.2444 -0.2787
  596MOL0     C78542   9.146  10.539   3.178 -0.2208  0.2264 -0.2875
  596MOL0     O78543   9.194  10.660   3.126 -0.1202  0.2229  0.3572
  596MOL0     C78544   9.314  10.703   3.185  0.8753 -0.5777  0.0886
  596MOL0     C78545   9.415  10.745   3.095 -0.2226 -0.4517  1.0350
  596MOL0     C78546   9.528  10.798   3.146  1.1344 -0.7332  0.0282
  596MOL0     C78547   9.564  10.802   3.280  0.1668  0.4251 -0.3594
  596MOL0     O78548   9.684  10.829   3.335  0.1658 -0.8435 -0.2732
  596MOL0     C78549   9.792  10.844   3.246  0.4002 -0.1642  0.3415
  596MOL0     C78550   9.914  10.835   3.340  0.1611  0.3132 -0.7109
  596MOL0     C78551  10.036  10.917   3.290  0.1089 -0.2955 -0.1516
  596MOL0     C78552  10.073  10.873   3.150  0.8153  0.9299  0.1982
  596MOL0     C78553  10.219  10.920   3.119 -0.4177 -0.8023  0.7063
  596MOL0     C78554  10.247  10.913   2.963 -0.6870 -0.2690  0.4256
  596MOL0     C78555  10.396  10.949   2.926 -0.1803  0.3248  0.0175
  596MOL0     C78556  10.481  10.822   2.933  0.5029  0.1120 -0.1869
  596MOL0     N78557  10.616  10.829   2.876  0.3369  0.0185 -0.2096
  596MOL0     C78558  10.693  10.722   2.857 -0.3194 -0.2642  0.5618
  596MOL0     C78559  10.819  10.766   2.819  0.4462  0.3800  0.8897
  596MOL0     C78560  10.940  10.678   2.787 -0.6934 -0.1697 -0.0734
  596MOL0     C78561  11.071  10.761   2.787  0.0923  0.3550  0.3598
  596MOL0     C78562  11.195  10.681   2.843 -0.1506  0.8347  0.5591
  596MOL0     C78563  11.304  10.774   2.871  0.6931  0.0403 -0.6096
  596MOL0     O78564  11.338  10.856   2.758  0.6795 -0.4534 -0.2278
  596MOL0     C78565  11.444  10.941   2.767 -0.4727  0.1413  0.1181
  596MOL0     C78566  11.543  10.935   2.864  0.4712 -0.2372 -0.4334
  596MOL0     C78567  11.647  11.025   2.855  0.1633  0.8239  0.5947
  596MOL0     C78568  11.655  11.131   2.753 -0.0182  0.6820 -0.3100
  596MOL0     C78569  11.771  11.209   2.746  0.2495 -0.4353  0.8918
  596MOL0     O78570  11.770  11.319   2.664 -0.5355 -0.3260 -0.0991
  596MOL0     C78571  11.863  11.416   2.685 -0.6844 -0.5919 -0.3030
  596MOL0     C78572  11.901  11.463   2.819 -0.3169 -0.6848  0.0271
  596MOL0     C78573  12.002  11.560   2.834 -0.6695  0.0922 -0.3015
  596MOL0     C78574  12.051  11.625   2.716 -0.0622  0.1568 -1.7503
  596MOL0     O78575  12.147  11.727   2.736 -0.7359 -0.6136  0.1352
  596MOL0     C78576  12.112  11.842   2.663 -0.2799  0.2514 -0.6167
  596MOL0     C78577  12.022  11.937   2.735  0.6139  0.1161 -0.2966
  596MOL0     C78578  12.004  12.073   2.665  0.1260 -0.2824 -0.1806
  596MOL0     C78579  11.936  12.182   2.749  0.2271  0.1241 -0.0153
  596MOL0     C78580  11.811  12.133   2.825  0.1262  0.0350 -1.1245
  596MOL0     C78581  11.701  12.083   2.734 -0.1956  0.1025  0.6131
  596MOL0     C78582  11.579  12.017   2.813  0.5661  0.3913 -1.0334
  596MOL0     C78583  11.482  11.921   2.727 -0.2636  0.0890 -0.7952
  596MOL0    Cl78584  11.575  11.780   2.666  0.3121 -0.3836  0.3295
  596MOL0     C78585  12.012  11.579   2.594 -0.3702  0.1911 -0.3154
  596MOL0     C78586  11.914  11.482   2.580 -0.3317  0.8568  0.3996
  596MOL0     O78587  11.875  11.156   2.797  0.1523 -0.8052 -0.7073
  596MOL0     C78588  11.566  11.127   2.650 -0.3252 -0.3404 -1.1215
  596MOL0     C78589  11.457  11.033   2.667 -0.2056  0.5482  0.7233
  596MOL0     N78590  10.807  10.903   2.792  0.1017  0.9135  0.4969
  596MOL0     N78591  10.678  10.930   2.811 -0.0162 -0.4591 -1.2920
  596MOL0     C78592   9.466  10.762   3.374 -0.3953  0.3895  1.0310
  596MOL0     C78593   9.342  10.721   3.323  0.3237  0.6192 -0.1639
  596MOL0     C78594   9.076  10.446   3.081  0.7009  0.0366 -0.6674
  596MOL0     C78595   9.083  10.466   2.942 -0.0854 -0.3918  0.0222
  596MOL0     C78596   8.997  10.382   2.859  0.4308  0.0277 -0.4491
  596MOL0     C78597   8.929  10.276   2.909  0.6493 -0.2840  0.0239
  596MOL0     O78598   8.847  10.217   2.818  0.3449 -0.4074 -0.7792
  596MOL0     C78599   8.792  10.089   2.853 -0.6077 -0.9401 -0.2671
  596MOL0     C78600   8.895   9.978   2.820  0.0700  0.7272  0.2981
  596MOL0     C78601   8.839   9.888   2.712 -0.0810  0.3254  0.5862
  596MOL0     C78602   8.871   9.931   2.570  0.4917 -0.0742 -0.4498
  596MOL0     C78603   8.803   9.863   2.461 -0.1620  0.0060 -0.3163
  596MOL0     C78604   8.744   9.805   2.367 -0.1469  0.4622  0.0982
  596MOL0     C78605   8.939  10.247   3.052 -0.5770  0.6623  0.2026
  596MOL0     C78606   9.012  10.330   3.134  0.9151 -0.2293 -0.8871
  596MOL0     H78607   9.407  10.727   2.989 -0.7620  0.3329  0.9263
  596MOL0     H78608   9.606  10.825   3.074  0.3249  1.8956  0.0348
  596MOL0     H78609   9.787  10.942   3.198  1.7564  2.4374  4.9675
  596MOL0     H78610   9.806  10.765   3.171  2.2073 -0.0135  0.4694
  596MOL0     H78611   9.936  10.733   3.374  3.0114  0.7655 -0.9341
  596MOL0     H78612   9.886  10.897   3.426 -0.0071  0.8003 -1.1136
  596MOL0     H78613  10.112  10.907   3.368 -1.4067 -1.8164  1.1907
  596MOL0     H78614  10.008  11.022   3.276  0.4823 -0.2431 -0.5375
  596MOL0     H78615  10.078  10.764   3.145  0.3576  0.9429 -0.6777
  596MOL0     H78616  10.000  10.913   3.079 -0.6890  2.0422  2.2845
  596MOL0     H78617  10.289  10.862   3.179  0.5889 -0.5268 -0.1844
  596MOL0     H78618  10.235  11.026   3.140  0.1177 -0.1592 -2.4233
  596MOL0     H78619  10.185  10.985   2.910 -0.8865 -0.6485  0.1382
  596MOL0     H78620  10.216  10.812   2.935 -1.5343  0.2641 -0.6293
  596MOL0     H78621  10.413  10.993   2.828  1.8096 -0.6150 -0.1200
  596MOL0     H78622  10.434  11.020   3.000  2.5579 -1.0053  0.0271
  596MOL0     H78623  10.432  10.747   2.871 -0.1773 -0.8348  1.4231
  596MOL0     H78624  10.477  10.777   3.032 -1.6484  1.7168  0.5373
  596MOL0     H78625  10.652  10.621   2.854  3.6634 -2.0888 -2.3839
  596MOL0     H78626  10.919  10.638   2.688  0.6591 -0.4037 -0.2835
  596MOL0     H78627  10.938  10.608   2.871 -3.2221  0.1357  0.2015
  596MOL0     H78628  11.064  10.858   2.837 -0.8360  1.8911 -2.5375
  596MOL0     H78629  11.083  10.792   2.683 -4.1735 -0.6954 -0.6366
  596MOL0     H78630  11.167  10.638   2.939  2.3260 -0.5588  0.7388
  596MOL0     H78631  11.228  10.603   2.774  0.2058  1.7660 -0.3482
  596MOL0     H78632  11.381  10.701   2.898 -2.1448 -2.6021  1.0875
  596MOL0     H78633  11.281  10.835   2.959  3.5105 -0.8666  0.8955
  596MOL0     H78634  11.548  10.863   2.946  2.5889  1.0977  0.6953
  596MOL0     H78635  11.726  10.998   2.923 -1.7251 -3.1293  1.5387
  596MOL0     H78636  11.838  11.425   2.899 -0.5920  0.6121  0.4478
  596MOL0     H78637  12.030  11.593   2.934 -1.1230 -1.6550  0.4414
  596MOL0     H78638  12.059  11.827   2.569 -1.0725 -1.5141  0.0792
  596MOL0     H78639  12.205  11.899   2.652 -0.2677  0.2630 -0.4514
  596MOL0     H78640  12.066  11.957   2.833  0.1731  1.3031 -0.3159
  596MOL0     H78641  11.925  11.886   2.741  2.2242 -3.5293 -2.1091
  596MOL0     H78642  11.934  12.070   2.581 -1.0235  1.8329  0.5989
  596MOL0     H78643  12.104  12.098   2.630  1.0221  0.3745  2.5506
  596MOL0     H78644  12.006  12.217   2.824 -1.3288  1.2508  0.9684
  596MOL0     H78645  11.909  12.271   2.691  1.6798 -0.4409 -1.6463
  596MOL0     H78646  11.775  12.199   2.904  2.1650  2.0963 -1.8141
  596MOL0     H78647  11.830  12.041   2.880 -2.6773  0.1163  0.1773
  596MOL0     H78648  11.735  12.004   2.667  0.5056  0.8247  0.0911
  596MOL0     H78649  11.669  12.172   2.679 -0.9002  0.4285  1.5192
  596MOL0     H78650  11.630  11.966   2.895  0.5277  2.4028  0.3148
  596MOL0     H78651  11.518  12.096   2.857  0.3864  0.2324 -0.9993
  596MOL0     H78652  11.446  11.982   2.643 -2.8152  0.1875  0.2640
  596MOL0     H78653  11.401  11.880   2.787 -0.0876  0.9695  0.0718
  596MOL0     H78654  12.069  11.614   2.508 -1.4409 -0.5020 -1.3436
  596MOL0     H78655  11.878  11.446   2.484 -0.2275 -1.7234  1.2507
  596MOL0     H78656  11.574  11.199   2.570  0.3954 -0.0514 -0.8009
  596MOL0     H78657  11.373  11.032   2.598 -2.6452  3.4978  3.3802
  596MOL0     H78658   9.478  10.777   3.481 -3.9816  1.4287  1.4116
  596MOL0     H78659   9.266  10.686   3.392 -0.0695 -2.4902 -1.9419
  596MOL0     H78660   9.135  10.547   2.892 -4.1425  0.7501 -2.9049
  596MOL0     H78661   8.988  10.394   2.751  0.5633  2.1578 -0.2505
  596MOL0     H78662   8.695  10.074   2.805 -1.5256 -0.2621  1.2918
  596MOL0     H78663   8.770  10.086   2.960  1.4526 -0.5878  0.2055
  596MOL0     H78664   8.988  10.020   2.782 -1.0966  1.5744 -1.8379
  596MOL0     H78665   8.913   9.913   2.906  0.2139  1.3555  0.7441
  596MOL0     H78666   8.731   9.872   2.711 -0.2157  0.6224 -2.6387
  596MOL0     H78667   8.870   9.784   2.722 -2.0539 -0.7260 -2.5626
  596MOL0     H78668   8.839  10.035   2.564  0.7561  0.3123  2.8676
  596MOL0     H78669   8.980   9.928   2.559  0.9902 -0.3152  3.3535
  596MOL0     H78670   8.694   9.760   2.284  2.6879  0.0140 -1.4933
  596MOL0     H78671   8.885  10.167   3.102 -1.1179  1.4455  0.8974
  596MOL0     H78672   9.010  10.313   3.241  0.7126  0.5600 -0.7617
  597MOL0     O78673   4.959   4.352   0.078  1.2109 -0.3234  1.4516
  597MOL0     C78674   4.903   4.407   0.171  0.6027 -0.7060  0.9767
  597MOL0     O78675   4.954   4.521   0.238  0.4519  0.7324  0.0087
  597MOL0     C78676   5.070   4.578   0.195  0.9007 -0.2737  0.2961
  597MOL0     C78677   5.080   4.702   0.138  0.8246 -0.3104 -0.0717
  597MOL0     C78678   5.203   4.764   0.121  0.2592 -0.2663  0.5897
  597MOL0     C78679   5.327   4.700   0.153  0.6479  0.4850  0.4629
  597MOL0     O78680   5.450   4.770   0.150 -0.1308 -0.3129 -0.4564
  597MOL0     C78681   5.572   4.711   0.123 -0.3947  0.6179  0.3661
  597MOL0     C78682   5.663   4.798   0.043  0.1345  0.3169  0.4378
  597MOL0     C78683   5.790   4.714   0.040  0.1689  1.0637 -0.0822
  597MOL0     C78684   5.882   4.739   0.163 -0.1601  0.1019 -0.3902
  597MOL0     C78685   6.010   4.665   0.169  0.0330 -0.0144  0.2933
  597MOL0     C78686   6.090   4.684   0.300 -0.2201 -0.0638 -0.4680
  597MOL0     C78687   6.209   4.600   0.305  0.4418 -1.1309 -0.5587
  597MOL0     C78688   6.252   4.548   0.442 -0.2909  0.3883 -0.2686
  597MOL0     N78689   6.326   4.641   0.537  0.0089 -0.4238  0.7825
  597MOL0     C78690   6.265   4.765   0.568  0.0054  0.3208  0.6799
  597MOL0     C78691   6.380   4.843   0.602  0.5825 -0.7909 -0.3296
  597MOL0     C78692   6.346   4.978   0.673  0.0647  0.8710 -0.6063
  597MOL0     C78693   6.311   4.952   0.823  0.0518  1.1332 -0.5462
  597MOL0     C78694   6.264   5.066   0.903  0.1067  0.1442 -1.0041
  597MOL0     C78695   6.388   5.141   0.939  0.5210 -1.5672  0.5023
  597MOL0     O78696   6.467   5.103   1.050  0.5814  0.3997 -0.0304
  597MOL0     C78697   6.452   5.153   1.172 -0.0725 -1.0073 -0.3957
  597MOL0     C78698   6.335   5.217   1.218 -0.1027  0.4276 -0.4963
  597MOL0     C78699   6.335   5.295   1.338 -0.2715 -0.8186 -0.7079
  597MOL0     C78700   6.460   5.306   1.403 -0.4394 -0.1588  0.4318
  597MOL0     C78701   6.456   5.399   1.521 -0.8702 -0.4534 -0.2576
  597MOL0     O78702   6.580   5.411   1.580 -0.5781 -0.0651 -0.8298
  597MOL0     C78703   6.572   5.493   1.691 -1.4308  0.4490 -0.4874
  597MOL0     C78704   6.628   5.625   1.688 -0.0941 -0.3968 -0.1986
  597MOL0     C78705   6.627   5.699   1.801 -0.0423 -0.4729 -0.9233
  597MOL0     C78706   6.566   5.642   1.919 -0.3742 -0.1496  0.6668
  597MOL0     O78707   6.555   5.722   2.027 -0.5585 -0.4884 -0.6581
  597MOL0     C78708   6.467   5.831   1.994  0.0931  0.0639 -0.2249
  597MOL0     C78709   6.410   5.875   2.127 -1.4023 -0.1841 -0.0703
  597MOL0     C78710   6.300   5.972   2.124 -0.1587  0.0426 -0.3915
  597MOL0     C78711   6.258   5.995   2.274  0.7791  0.4279  0.3446
  597MOL0     C78712   6.156   6.113   2.278 -0.9970 -0.3909 -0.1486
  597MOL0     C78713   6.138   6.175   2.409  0.3193 -0.1441 -0.1095
  597MOL0     C78714   6.065   6.093   2.515 -1.1424 -0.0680  0.2300
  597MOL0     C78715   6.066   6.160   2.656 -0.3862  0.2863  0.3157
  597MOL0    Cl78716   5.935   6.089   2.759 -0.1600  0.0942 -0.3100
  597MOL0     C78717   6.517   5.512   1.916  1.0309 -1.1596  0.1569
  597MOL0     C78718   6.523   5.433   1.804 -0.3472 -1.4364  0.1448
  597MOL0     O78719   6.349   5.428   1.579 -0.5859 -0.3668 -0.3721
  597MOL0     C78720   6.579   5.245   1.353 -0.2360 -0.0987  0.5705
  597MOL0     C78721   6.567   5.162   1.248  0.3975  0.6224  0.4845
  597MOL0     N78722   6.491   4.766   0.592  0.2656  0.7428  0.7277
  597MOL0     N78723   6.455   4.645   0.564 -0.6245  0.5082 -0.0413
  597MOL0     C78724   5.310   4.579   0.225 -0.6274 -0.4247 -0.2025
  597MOL0     C78725   5.186   4.518   0.239 -0.7044 -0.6453 -0.5289
  597MOL0     C78726   4.790   4.344   0.231 -0.1533  0.3835 -0.0228
  597MOL0     C78727   4.695   4.267   0.167 -0.4764 -0.9130  0.2005
  597MOL0     C78728   4.591   4.196   0.220  1.2094  0.3656 -0.1058
  597MOL0     C78729   4.573   4.214   0.363  0.3948 -0.6616 -0.6757
  597MOL0     O78730   4.481   4.125   0.423 -0.3334 -0.1791 -0.0848
  597MOL0     C78731   4.445   4.162   0.551  0.0731 -0.7848 -0.5428
  597MOL0     C78732   4.324   4.090   0.588  0.0191  0.3486  0.1717
  597MOL0     C78733   4.284   4.117   0.736  0.4938 -0.0096  0.2833
  597MOL0     C78734   4.388   4.061   0.845 -0.2754 -0.2554 -0.0922
  597MOL0     C78735   4.383   3.907   0.845 -0.1773 -0.4122 -0.3879
  597MOL0     C78736   4.386   3.790   0.840  0.6336  0.9236 -0.1153
  597MOL0     C78737   4.666   4.292   0.433  1.0376  0.5127 -0.4656
  597MOL0     C78738   4.765   4.357   0.367 -0.5108  0.6411  0.5497
  597MOL0     H78739   4.990   4.753   0.105 -0.0025 -1.9476 -0.4690
  597MOL0     H78740   5.201   4.869   0.093  0.1541 -0.2034  0.8284
  597MOL0     H78741   5.557   4.620   0.064 -2.1336  1.0379  0.0960
  597MOL0     H78742   5.619   4.692   0.220  2.3416  0.0733 -0.9586
  597MOL0     H78743   5.683   4.894   0.091 -0.1208  1.7979 -2.2450
  597MOL0     H78744   5.627   4.823  -0.057 -0.4303  1.3368  0.8813
  597MOL0     H78745   5.854   4.742  -0.044  1.0718  0.6885  0.4565
  597MOL0     H78746   5.763   4.609   0.024 -0.3374  1.5891 -3.1384
  597MOL0     H78747   5.891   4.848   0.170 -0.0482  0.1904 -1.6678
  597MOL0     H78748   5.830   4.716   0.256 -0.7416  0.5856 -0.5886
  597MOL0     H78749   6.071   4.695   0.083 -2.8629 -3.1964 -3.2186
  597MOL0     H78750   5.986   4.559   0.154  1.9815 -0.3868 -0.5088
  597MOL0     H78751   6.025   4.659   0.385 -0.5845 -1.6317 -1.1868
  597MOL0     H78752   6.119   4.788   0.320 -1.0144  0.0063  0.4279
  597MOL0     H78753   6.206   4.523   0.228  1.0466 -0.3490 -1.3807
  597MOL0     H78754   6.293   4.656   0.264  0.2152 -1.0991 -0.9883
  597MOL0     H78755   6.311   4.457   0.425 -2.5686 -1.2908  0.3184
  597MOL0     H78756   6.163   4.524   0.501  0.4648 -0.7763  0.4363
  597MOL0     H78757   6.157   4.777   0.562 -0.1687 -1.4516 -1.4626
  597MOL0     H78758   6.264   5.028   0.622 -0.1720  1.6267  0.4667
  597MOL0     H78759   6.442   5.030   0.671  0.7733 -0.2317  1.4718
  597MOL0     H78760   6.395   4.917   0.883 -0.6002  0.5926  0.0718
  597MOL0     H78761   6.235   4.873   0.822  1.1256 -0.0558  1.8456
  597MOL0     H78762   6.193   5.126   0.844  0.7638  0.5099 -1.4359
  597MOL0     H78763   6.193   5.033   0.980  2.4226  3.1180  2.7472
  597MOL0     H78764   6.356   5.240   0.973  3.1954 -1.0653  1.8938
  597MOL0     H78765   6.452   5.159   0.852 -1.8050 -0.4981 -1.0665
  597MOL0     H78766   6.242   5.197   1.165 -1.7566  1.3286  1.8850
  597MOL0     H78767   6.242   5.342   1.368  0.1203 -0.2655 -0.3424
  597MOL0     H78768   6.692   5.663   1.609  1.6825 -0.9702  0.9086
  597MOL0     H78769   6.663   5.801   1.796 -2.0474  0.2219 -2.8866
  597MOL0     H78770   6.402   5.811   1.908 -1.6872  0.2120  1.0182
  597MOL0     H78771   6.529   5.914   1.961  0.6681 -1.1746 -2.4773
  597MOL0     H78772   6.490   5.898   2.198  1.9452 -5.9181 -1.2672
  597MOL0     H78773   6.386   5.785   2.185 -2.2686 -0.5109 -0.9003
  597MOL0     H78774   6.218   5.925   2.070  0.7362 -3.8426  1.3058
  597MOL0     H78775   6.324   6.071   2.085 -4.3528  1.8341  0.9870
  597MOL0     H78776   6.219   5.899   2.309 -2.2087  0.6927 -1.8262
  597MOL0     H78777   6.344   6.020   2.336  1.2526  1.9364 -0.8606
  597MOL0     H78778   6.059   6.095   2.230 -1.2487  0.0542  0.1813
  597MOL0     H78779   6.210   6.182   2.213 -0.4313 -0.0207  0.7070
  597MOL0     H78780   6.083   6.265   2.381  0.3271 -0.4815 -1.2762
  597MOL0     H78781   6.237   6.199   2.450 -0.1061 -1.6877  1.9621
  597MOL0     H78782   5.961   6.069   2.489 -0.6656 -0.7674 -1.1352
  597MOL0     H78783   6.110   5.994   2.533 -0.1127  0.2919 -0.3090
  597MOL0     H78784   6.058   6.268   2.642 -2.7709  0.2290  0.8848
  597MOL0     H78785   6.160   6.143   2.711  0.0966 -0.3338 -0.6675
  597MOL0     H78786   6.463   5.469   1.999 -2.7909  0.5970 -1.1517
  597MOL0     H78787   6.465   5.341   1.797 -2.3903 -0.1534 -0.9801
  597MOL0     H78788   6.675   5.252   1.401  1.2411 -1.5717 -1.9489
  597MOL0     H78789   6.656   5.110   1.215 -0.0719 -0.6820  1.2007
  597MOL0     H78790   5.390   4.528   0.278  0.4506 -1.2635 -2.5115
  597MOL0     H78791   5.185   4.420   0.286  1.2897 -0.8044 -0.7202
  597MOL0     H78792   4.706   4.252   0.060 -0.3110 -2.9066  0.4564
  597MOL0     H78793   4.522   4.134   0.165  0.3408 -1.4826  2.8235
  597MOL0     H78794   4.419   4.268   0.564 -0.5853 -1.2701  3.7195
  597MOL0     H78795   4.522   4.131   0.622  0.9638  1.0248 -0.6519
  597MOL0     H78796   4.238   4.107   0.524 -1.1570  1.2952  1.9242
  597MOL0     H78797   4.335   3.982   0.576 -3.5304  0.1927 -3.7277
  597MOL0     H78798   4.187   4.070   0.755  1.1535 -1.1675  0.8897
  597MOL0     H78799   4.268   4.225   0.741  1.4956  0.1049  1.4846
  597MOL0     H78800   4.486   4.106   0.825 -0.0080 -0.8784 -0.2024
  597MOL0     H78801   4.352   4.084   0.946  0.7842 -0.1640  0.2714
  597MOL0     H78802   4.398   3.685   0.820  1.6966  1.0414 -0.1669
  597MOL0     H78803   4.647   4.301   0.539 -0.8342 -1.2655 -0.6028
  597MOL0     H78804   4.829   4.423   0.425  2.1441 -3.6778  3.0474
  598MOL0     O78805   7.241   7.777  11.007 -0.7525  1.1034  0.0472
  598MOL0     C78806   7.327   7.784  10.913  0.9467  0.7484 -1.0087
  598MOL0     O78807   7.451   7.730  10.904 -0.1203 -1.0019 -0.1025
  598MOL0     C78808   7.480   7.667  11.024 -0.4325 -0.3380 -0.0150
  598MOL0     C78809   7.420   7.548  11.059  0.2258 -0.2448  0.2235
  598MOL0     C78810   7.449   7.486  11.181  0.7254 -0.9439 -0.9134
  598MOL0     C78811   7.549   7.533  11.264  0.1327 -0.1783 -0.6911
  598MOL0     O78812   7.576   7.453  11.376 -0.2545  0.3719  0.7401
  598MOL0     C78813   7.643   7.515  11.485  0.8255  0.0543  1.0334
  598MOL0     C78814   7.654   7.413  11.593 -0.4717  0.9388 -0.2198
  598MOL0     C78815   7.722   7.454  11.730  0.2871 -0.9398  0.6927
  598MOL0     C78816   7.693   7.358  11.832 -0.0054  0.0672 -1.1110
  598MOL0     C78817   7.757   7.221  11.812 -1.2001  0.5834 -0.1825
  598MOL0     C78818   7.909   7.207  11.813 -0.8995  0.2256  0.1845
  598MOL0     C78819   7.956   7.057  11.839  0.1132  0.5293  0.4160
  598MOL0     C78820   8.096   7.033  11.786 -0.4046  0.4832 -0.8404
  598MOL0     N78821   8.191   7.142  11.810 -0.8635 -0.6493 -0.0721
  598MOL0     C78822   8.221   7.187  11.935  1.0163 -0.0653 -0.7258
  598MOL0     C78823   8.325   7.268  11.914 -0.5315  0.0099 -0.7049
  598MOL0     C78824   8.372   7.359  12.028 -0.3636  0.4693 -0.6691
  598MOL0     C78825   8.382   7.508  11.990 -0.0300 -0.2056 -0.2390
  598MOL0     C78826   8.244   7.587  11.988 -0.3649  0.4904 -0.1229
  598MOL0     C78827   8.137   7.532  11.888 -0.1265 -0.1514 -0.2267
  598MOL0     O78828   8.021   7.617  11.893  0.9479  0.0199  0.0243
  598MOL0     C78829   8.017   7.739  11.824 -0.0389  0.3391 -0.1794
  598MOL0     C78830   7.923   7.824  11.880  0.6013  0.3398  0.2303
  598MOL0     C78831   7.895   7.948  11.821  0.5567 -0.1072  0.4611
  598MOL0     C78832   7.994   8.010  11.733  0.1338  0.0267  0.1376
  598MOL0     C78833   7.973   8.152  11.680  0.5133  0.5049  0.1818
  598MOL0     O78834   7.846   8.198  11.677  0.4325 -0.3170  0.6463
  598MOL0     C78835   7.828   8.318  11.608  0.6352 -0.7150 -0.6341
  598MOL0     C78836   7.846   8.439  11.671 -0.2986 -0.8337 -0.5187
  598MOL0     C78837   7.804   8.567  11.613 -0.3698  0.0091 -0.5183
  598MOL0     C78838   7.751   8.575  11.487 -0.0789 -0.4648 -0.3765
  598MOL0     O78839   7.696   8.695  11.433 -0.6027  0.1977  0.5204
  598MOL0     C78840   7.755   8.815  11.496  0.8388  0.0782  0.4355
  598MOL0     C78841   7.703   8.932  11.430 -0.0794  0.2026 -0.1231
  598MOL0     C78842   7.798   8.992  11.329  0.4806  0.6761 -0.4178
  598MOL0     C78843   7.804   8.907  11.192  0.1628 -0.9405 -0.4038
  598MOL0     C78844   7.912   8.969  11.102 -0.4899  0.8982 -0.7983
  598MOL0     C78845   7.936   9.127  11.098 -0.0238 -0.3695  0.3154
  598MOL0     C78846   7.982   9.167  10.958  0.3434  0.2508 -0.4219
  598MOL0     C78847   8.022   9.318  10.962  0.0077 -0.1414  0.1412
  598MOL0    Cl78848   7.873   9.420  10.957  0.5419  0.1669 -0.1477
  598MOL0     C78849   7.744   8.453  11.420 -0.2322  0.4320  0.1504
  598MOL0     C78850   7.787   8.332  11.472 -0.7435  0.0959  0.1829
  598MOL0     O78851   8.061   8.211  11.619 -0.1790  0.6736 -0.8583
  598MOL0     C78852   8.098   7.928  11.693 -0.7604  0.0251  0.1659
  598MOL0     C78853   8.102   7.790  11.727  0.4438  0.9442 -0.0766
  598MOL0     N78854   8.347   7.277  11.778  0.1931 -0.3678  0.4203
  598MOL0     N78855   8.257   7.209  11.715 -0.1015 -0.9151 -0.6947
  598MOL0     C78856   7.619   7.643  11.226 -0.6339  0.3604 -0.5683
  598MOL0     C78857   7.587   7.709  11.107  0.2966 -0.7901 -0.2449
  598MOL0     C78858   7.276   7.856  10.792 -0.2272  0.8031  0.0689
  598MOL0     C78859   7.149   7.918  10.786 -0.5111 -0.3105  0.0184
  598MOL0     C78860   7.109   8.004  10.686 -1.2988 -0.1778  0.0628
  598MOL0     C78861   7.206   8.036  10.581  0.7395 -0.2255 -0.2834
  598MOL0     O78862   7.185   8.126  10.483  0.6006 -0.4359  0.3086
  598MOL0     C78863   7.055   8.108  10.416 -0.3452  0.1403 -0.1427
  598MOL0     C78864   7.037   8.195  10.289 -1.0324  0.4133 -0.2597
  598MOL0     C78865   6.943   8.145  10.185  0.4703 -0.2459  0.5477
  598MOL0     C78866   6.984   8.028  10.101  0.2511 -0.1568 -0.5483
  598MOL0     C78867   6.973   7.892  10.160 -0.3689 -0.2669 -0.2323
  598MOL0     C78868   6.986   7.773  10.197  0.6132 -0.4172  0.4123
  598MOL0     C78869   7.327   7.970  10.587 -0.0786 -0.5296  0.3586
  598MOL0     C78870   7.355   7.882  10.685 -0.1937  0.9384  0.0700
  598MOL0     H78871   7.336   7.516  10.998  2.0004 -0.9832 -2.0075
  598MOL0     H78872   7.396   7.397  11.211 -2.4172  1.0540 -0.0517
  598MOL0     H78873   7.581   7.597  11.522  0.7661  0.4406  0.1036
  598MOL0     H78874   7.740   7.557  11.458 -0.0843 -0.7965 -4.9425
  598MOL0     H78875   7.712   7.332  11.548 -0.5392  1.8439 -2.0674
  598MOL0     H78876   7.554   7.374  11.613  0.5889 -1.1406  1.3598
  598MOL0     H78877   7.696   7.551  11.774 -1.2735 -1.6702  1.4803
  598MOL0     H78878   7.829   7.461  11.709  0.0036  1.1470 -0.2759
  598MOL0     H78879   7.717   7.388  11.935 -0.5957 -1.2847 -0.5597
  598MOL0     H78880   7.585   7.341  11.828 -0.5000  2.9673 -3.1567
  598MOL0     H78881   7.724   7.184  11.714 -2.9844 -2.1402  1.2847
  598MOL0     H78882   7.714   7.155  11.889  1.4820 -3.8594 -2.1340
  598MOL0     H78883   7.927   7.277  11.896  0.8224  1.7917 -1.4125
  598MOL0     H78884   7.966   7.239  11.725  1.1055 -1.3002  0.8670
  598MOL0     H78885   7.965   7.038  11.946  2.7752  3.2641  0.8006
  598MOL0     H78886   7.882   6.996  11.786 -0.1179  0.2700  1.0238
  598MOL0     H78887   8.094   7.013  11.678 -2.0417  0.8519 -0.9031
  598MOL0     H78888   8.144   6.957  11.848 -0.0412  2.1972  1.0482
  598MOL0     H78889   8.167   7.154  12.023  2.6200 -2.5679 -0.5749
  598MOL0     H78890   8.473   7.325  12.053  0.9234  2.7260 -2.3954
  598MOL0     H78891   8.311   7.343  12.117  4.2811  0.0267  2.8108
  598MOL0     H78892   8.441   7.505  11.898  2.6819 -4.2332  1.3606
  598MOL0     H78893   8.457   7.559  12.051  1.0217  0.4507 -1.9931
  598MOL0     H78894   8.203   7.589  12.089  1.3834 -0.0410  0.6249
  598MOL0     H78895   8.267   7.692  11.965 -0.8697  1.2318  2.4288
  598MOL0     H78896   8.104   7.435  11.927  1.0474  0.4596  2.5072
  598MOL0     H78897   8.181   7.539  11.788  2.1876  1.1688  0.8277
  598MOL0     H78898   7.856   7.793  11.960 -3.2094  1.3175 -2.2933
  598MOL0     H78899   7.810   8.010  11.851  1.1173 -0.0291  1.9955
  598MOL0     H78900   7.887   8.439  11.772  2.7072  1.1794 -1.6071
  598MOL0     H78901   7.832   8.652  11.676 -1.6137  0.6853 -0.8418
  598MOL0     H78902   7.863   8.810  11.488  0.7849  0.1640 -0.3595
  598MOL0     H78903   7.736   8.826  11.604 -0.7918 -0.6114  0.2518
  598MOL0     H78904   7.684   9.007  11.508  0.9218  2.8221 -2.2262
  598MOL0     H78905   7.603   8.907  11.394 -0.3899 -0.4426  1.1158
  598MOL0     H78906   7.895   9.014  11.376  0.5532  1.8256 -1.0788
  598MOL0     H78907   7.767   9.095  11.309 -0.0718 -0.0113 -3.5246
  598MOL0     H78908   7.839   8.811  11.232  0.1380 -0.6547  0.3062
  598MOL0     H78909   7.710   8.910  11.136  0.8657  2.7755 -1.6222
  598MOL0     H78910   7.897   8.932  11.000  1.0846  1.2582 -1.1861
  598MOL0     H78911   8.006   8.932  11.143 -1.3778 -1.4661 -0.7543
  598MOL0     H78912   8.013   9.161  11.169 -1.3442  4.7802 -0.2951
  598MOL0     H78913   7.843   9.182  11.119  0.4788  0.4490  0.4556
  598MOL0     H78914   8.059   9.097  10.924  0.8146  0.3879  0.3399
  598MOL0     H78915   7.892   9.156  10.896  0.3877 -4.3424 -0.0519
  598MOL0     H78916   8.083   9.344  10.875 -0.3340 -3.3632 -1.2066
  598MOL0     H78917   8.086   9.340  11.048 -1.8882  2.4041  1.0313
  598MOL0     H78918   7.711   8.448  11.317 -2.8918  2.7598  0.7625
  598MOL0     H78919   7.770   8.238  11.421 -3.3210 -0.6652  2.2429
  598MOL0     H78920   8.180   7.966  11.632  1.9029 -0.8428  2.9409
  598MOL0     H78921   8.175   7.723  11.683 -1.5631 -3.1080  2.2121
  598MOL0     H78922   7.708   7.686  11.271 -1.6375  2.0808 -0.1489
  598MOL0     H78923   7.641   7.800  11.082  3.0727 -2.4610 -0.6894
  598MOL0     H78924   7.077   7.896  10.865  0.1475  0.1454  0.7625
  598MOL0     H78925   7.015   8.058  10.694 -1.0099  1.2566 -4.0377
  598MOL0     H78926   6.970   8.131  10.482  0.2429  0.2862  0.5798
  598MOL0     H78927   7.044   8.000  10.402 -0.9238  0.4058 -1.9018
  598MOL0     H78928   6.984   8.284  10.325  1.8144  1.3458  1.9352
  598MOL0     H78929   7.135   8.219  10.249 -1.0888  0.9131 -0.1140
  598MOL0     H78930   6.936   8.223  10.108  0.9519  1.8633  2.5302
  598MOL0     H78931   6.840   8.137  10.221  0.6078 -1.0652  0.7717
  598MOL0     H78932   6.917   8.033  10.015 -3.4233 -1.1218  2.0451
  598MOL0     H78933   7.090   8.036  10.074 -0.2388  0.9149 -2.3565
  598MOL0     H78934   6.979   7.668  10.216  0.2306 -0.0929  2.3650
  598MOL0     H78935   7.398   7.997  10.510 -1.9941 -1.1102 -1.7458
  598MOL0     H78936   7.445   7.823  10.677 -1.0578 -0.1298 -2.9765
  599MOL0     O78937   2.750   1.869   7.720 -0.8702 -0.3893  0.1104
  599MOL0     C78938   2.856   1.910   7.659  0.0045  0.0041  0.4262
  599MOL0     O78939   2.910   2.032   7.667 -0.1070 -0.1433  0.8458
  599MOL0     C78940   2.870   2.140   7.746 -0.0763 -0.8184 -0.1873
  599MOL0     C78941   2.965   2.231   7.790 -0.5944  0.1853  0.4255
  599MOL0     C78942   2.930   2.332   7.886 -0.1693 -1.1080  0.1933
  599MOL0     C78943   2.801   2.344   7.936  0.3376  0.2026 -0.7436
  599MOL0     O78944   2.791   2.428   8.038  0.2419  0.0932  0.3659
  599MOL0     C78945   2.673   2.413   8.119  0.4958  0.1445  0.2252
  599MOL0     C78946   2.644   2.555   8.176  0.0363  0.4688  0.7010
  599MOL0     C78947   2.541   2.568   8.293  1.1131 -0.6495  0.1957
  599MOL0     C78948   2.405   2.507   8.240  0.2430 -0.0123  0.4726
  599MOL0     C78949   2.312   2.620   8.212 -0.0808  0.2889 -0.3116
  599MOL0     C78950   2.348   2.720   8.098 -0.3507 -0.2782  0.3253
  599MOL0     C78951   2.328   2.652   7.955 -0.0218  0.7704 -0.2176
  599MOL0     C78952   2.183   2.620   7.925  0.2391  0.1927  0.5158
  599MOL0     N78953   2.171   2.579   7.781 -0.4237 -0.5762  0.1513
  599MOL0     C78954   2.245   2.626   7.678 -0.5343  0.2442 -0.5765
  599MOL0     C78955   2.259   2.515   7.594 -0.8770  0.6563  0.5696
  599MOL0     C78956   2.353   2.506   7.475  0.4389  0.1867  0.9257
  599MOL0     C78957   2.499   2.454   7.510  0.5371 -0.0976  0.4029
  599MOL0     C78958   2.505   2.309   7.537  0.0379 -0.5385 -0.2308
  599MOL0     C78959   2.543   2.224   7.417  1.0670 -0.7149  0.0786
  599MOL0     O78960   2.589   2.096   7.445  0.5678 -0.0218 -1.0743
  599MOL0     C78961   2.630   2.003   7.346  0.7197 -0.5503  0.1703
  599MOL0     C78962   2.601   1.860   7.356  0.5662 -1.9669 -0.5127
  599MOL0     C78963   2.645   1.770   7.260  0.8324 -0.5145 -0.2808
  599MOL0     C78964   2.714   1.818   7.141  0.6349  0.4499  0.1775
  599MOL0     C78965   2.755   1.725   7.024 -0.0196 -0.4446  0.4019
  599MOL0     O78966   2.869   1.765   6.966  0.3669  0.6359 -0.3112
  599MOL0     C78967   2.929   1.684   6.870 -0.3700 -0.8173 -0.2563
  599MOL0     C78968   2.862   1.600   6.794  0.1516  1.2510  0.2182
  599MOL0     C78969   2.926   1.516   6.698  0.5433 -0.1253  1.8066
  599MOL0     C78970   3.071   1.540   6.673 -0.2444 -0.3914 -1.3882
  599MOL0     O78971   3.129   1.473   6.576  0.7860  0.4031  0.2120
  599MOL0     C78972   3.267   1.512   6.552 -0.1104 -0.4590 -0.9819
  599MOL0     C78973   3.334   1.423   6.449  0.1814  0.3332  0.2572
  599MOL0     C78974   3.250   1.373   6.323 -0.3557 -0.7104 -0.1102
  599MOL0     C78975   3.200   1.500   6.249 -0.0800 -0.1237 -0.2659
  599MOL0     C78976   3.099   1.460   6.145  0.2080  0.1796 -0.0757
  599MOL0     C78977   2.978   1.556   6.133  0.0849  0.0797 -0.2211
  599MOL0     C78978   2.885   1.535   6.007 -0.3279  0.0634  0.0477
  599MOL0     C78979   2.808   1.405   6.012 -0.6344 -0.7455 -0.2279
  599MOL0    Cl78980   2.647   1.433   5.937 -0.0632  0.6063 -0.0094
  599MOL0     C78981   3.136   1.645   6.750  1.2049  0.0908 -0.4047
  599MOL0     C78982   3.060   1.711   6.848 -0.3896  0.3504 -0.0260
  599MOL0     O78983   2.690   1.620   7.012  0.5565 -0.1382 -0.5835
  599MOL0     C78984   2.745   1.953   7.135  0.7526  0.2540  0.9144
  599MOL0     C78985   2.686   2.041   7.229  0.4240  0.2479 -0.4513
  599MOL0     N78986   2.170   2.415   7.627 -0.4729 -0.1765 -0.7381
  599MOL0     N78987   2.126   2.452   7.742  0.1714  0.4246 -0.4746
  599MOL0     C78988   2.704   2.252   7.880 -0.7634 -0.7224  0.4110
  599MOL0     C78989   2.743   2.156   7.789 -0.2239 -0.7026 -0.3669
  599MOL0     C78990   2.899   1.817   7.554 -0.2789  1.0469  0.0586
  599MOL0     C78991   2.885   1.675   7.568 -0.2733  0.1943  0.2025
  599MOL0     C78992   2.915   1.581   7.471 -0.2630 -0.6412  0.1865
  599MOL0     C78993   2.948   1.620   7.336  0.1897 -0.2632 -0.3314
  599MOL0     O78994   2.964   1.530   7.237  0.2700  1.0327  0.5639
  599MOL0     C78995   2.890   1.406   7.245 -0.5632 -0.4928 -0.6394
  599MOL0     C78996   2.910   1.295   7.141 -0.3893 -0.5927  0.3196
  599MOL0     C78997   2.850   1.328   7.009  0.5563  0.1477 -0.3193
  599MOL0     C78998   2.852   1.211   6.905 -0.0270 -0.1470 -0.4674
  599MOL0     C78999   2.786   1.097   6.973  0.1971  0.0486 -0.4441
  599MOL0     C79000   2.720   1.003   7.005  0.8250 -0.5172  0.2353
  599MOL0     C79001   2.965   1.753   7.320  0.2594  0.9552  0.2761
  599MOL0     C79002   2.938   1.852   7.420 -0.2678 -0.2488  0.1712
  599MOL0     H79003   3.069   2.223   7.759 -1.0538 -1.8115 -0.7477
  599MOL0     H79004   3.007   2.387   7.939  0.2872 -3.2033  1.8543
  599MOL0     H79005   2.690   2.346   8.204  1.3278  0.8921  0.6679
  599MOL0     H79006   2.589   2.365   8.067  2.6176 -3.0442 -0.5697
  599MOL0     H79007   2.602   2.607   8.090  0.7056  0.0097  0.0869
  599MOL0     H79008   2.737   2.598   8.213 -0.8097  0.5558  2.9053
  599MOL0     H79009   2.540   2.674   8.319 -0.2988 -0.4315 -0.6014
  599MOL0     H79010   2.575   2.518   8.385  0.8321 -0.8927  0.1699
  599MOL0     H79011   2.424   2.446   8.151  0.9431 -1.1053  1.3382
  599MOL0     H79012   2.361   2.438   8.312 -0.3894  0.3244  0.4085
  599MOL0     H79013   2.298   2.679   8.302  1.2964 -0.5143  0.4653
  599MOL0     H79014   2.215   2.576   8.185 -0.6383  0.8455  0.7385
  599MOL0     H79015   2.449   2.760   8.107 -1.2515  2.0784  0.8144
  599MOL0     H79016   2.285   2.809   8.102  1.1640  0.8041  0.6424
  599MOL0     H79017   2.360   2.734   7.891  2.8129  1.5944  2.0288
  599MOL0     H79018   2.386   2.564   7.926  0.2833  0.8743  0.0694
  599MOL0     H79019   2.130   2.712   7.949 -0.0559  0.1812 -0.0800
  599MOL0     H79020   2.132   2.546   7.988 -0.3419  1.0098  1.0122
  599MOL0     H79021   2.293   2.723   7.670  0.9951 -0.2308  1.9858
  599MOL0     H79022   2.362   2.607   7.433  0.5165 -0.0086  0.4609
  599MOL0     H79023   2.303   2.444   7.399  2.5492 -1.1413  0.5373
  599MOL0     H79024   2.514   2.507   7.604 -0.0233  0.6973  0.0588
  599MOL0     H79025   2.567   2.498   7.435 -1.5685  1.2469 -0.8306
  599MOL0     H79026   2.579   2.290   7.616  0.6758  1.4710 -0.2730
  599MOL0     H79027   2.410   2.271   7.575 -0.3438 -0.6254 -1.2557
  599MOL0     H79028   2.616   2.273   7.351  1.3707 -0.1860  0.7920
  599MOL0     H79029   2.449   2.222   7.360  0.9225 -2.3206  0.3394
  599MOL0     H79030   2.559   1.822   7.448  1.3347  1.4423  1.4051
  599MOL0     H79031   2.621   1.665   7.276 -0.4547 -0.3168 -0.7899
  599MOL0     H79032   2.753   1.590   6.798  0.0884  1.3764 -0.9699
  599MOL0     H79033   2.871   1.439   6.646  3.3772 -0.0602 -1.6365
  599MOL0     H79034   3.332   1.502   6.640 -0.9944 -4.1803 -0.5683
  599MOL0     H79035   3.249   1.606   6.499 -1.7527  0.7119  1.4555
  599MOL0     H79036   3.375   1.336   6.502 -0.7783  0.3732  1.0681
  599MOL0     H79037   3.422   1.468   6.402  1.4737 -1.7078  0.5918
  599MOL0     H79038   3.171   1.307   6.359 -0.8372  0.3314  0.8408
  599MOL0     H79039   3.310   1.308   6.260 -4.8963 -3.2392 -2.3339
  599MOL0     H79040   3.158   1.565   6.327  2.7364  0.0632  1.2309
  599MOL0     H79041   3.283   1.549   6.198  0.7820 -0.4360  0.7859
  599MOL0     H79042   3.055   1.362   6.167  0.7743  0.3627  2.0705
  599MOL0     H79043   3.153   1.467   6.050  2.4376 -1.4909  0.9801
  599MOL0     H79044   3.026   1.654   6.134  0.2927  0.0585 -2.7899
  599MOL0     H79045   2.913   1.553   6.221 -1.0747  1.4463 -0.9992
  599MOL0     H79046   2.818   1.622   5.999  0.2966  0.9056  2.9241
  599MOL0     H79047   2.942   1.536   5.914 -2.9317 -3.4266 -1.8287
  599MOL0     H79048   2.786   1.381   6.116 -0.2959 -1.7519 -0.3827
  599MOL0     H79049   2.874   1.331   5.968 -1.8810 -1.3735 -1.0966
  599MOL0     H79050   3.241   1.672   6.747  1.4589  0.6275  4.4074
  599MOL0     H79051   3.106   1.787   6.910 -0.6539 -0.9530  1.8364
  599MOL0     H79052   2.776   1.971   7.032 -2.5823 -3.0155 -0.9301
  599MOL0     H79053   2.689   2.145   7.199 -0.0837  0.2759 -0.4218
  599MOL0     H79054   2.606   2.243   7.924  0.3052 -4.8427  2.4865
  599MOL0     H79055   2.655   2.096   7.771 -0.2925 -0.7890  0.2271
  599MOL0     H79056   2.850   1.620   7.655 -2.0246 -2.5320 -2.0730
  599MOL0     H79057   2.910   1.475   7.492 -0.5666 -0.8896 -1.0870
  599MOL0     H79058   2.782   1.428   7.251 -0.6687 -0.0369 -3.0574
  599MOL0     H79059   2.916   1.365   7.343 -1.8132 -1.5251 -0.7007
  599MOL0     H79060   3.017   1.296   7.122 -0.4301  3.7996 -0.8799
  599MOL0     H79061   2.862   1.211   7.193 -1.8540  1.4374  2.4607
  599MOL0     H79062   2.906   1.419   6.985 -2.8195  2.1164 -1.4317
  599MOL0     H79063   2.748   1.365   7.022  1.2801  3.1485 -2.1171
  599MOL0     H79064   2.790   1.242   6.819 -2.1834 -0.5844  0.8578
  599MOL0     H79065   2.956   1.179   6.891  0.8327  1.3050  1.9720
  599MOL0     H79066   2.677   0.906   7.020  0.7854 -0.5620 -0.1727
  599MOL0     H79067   2.976   1.783   7.217 -1.2842  0.8226  0.0496
  599MOL0     H79068   2.942   1.959   7.398 -0.4495 -0.4999 -1.1846
  600MOL0     O79069   0.021   6.206   8.331  0.4062  0.1552  0.8008
  600MOL0     C79070   0.127   6.251   8.294  0.4594  0.0886  1.0589
  600MOL0     O79071   0.181   6.242   8.155 -0.8516 -0.0345 -0.6107
  600MOL0     C79072   0.166   6.127   8.079 -0.8087 -0.7953 -0.8815
  600MOL0     C79073   0.119   6.007   8.125  0.3045 -0.2371 -0.4700
  600MOL0     C79074   0.121   5.894   8.039  0.3662  0.3246 -0.3251
  600MOL0     C79075   0.153   5.898   7.905  0.3344  0.1746 -0.4430
  600MOL0     O79076   0.132   5.787   7.836 -0.5265  0.2179 -0.0025
  600MOL0     C79077   0.118   5.792   7.692  0.0351 -0.6159 -0.2643
  600MOL0     C79078   0.057   5.664   7.646  0.6498  0.4398 -0.0862
  600MOL0     C79079  -0.058   5.682   7.542  0.3782  0.3191  0.0872
  600MOL0     C79080  -0.146   5.560   7.517  0.1177  0.9589  0.4001
  600MOL0     C79081  -0.264   5.588   7.423 -0.4877 -0.3635  0.5553
  600MOL0     C79082  -0.209   5.637   7.278  0.1670  0.0278  0.0332
  600MOL0     C79083  -0.313   5.664   7.163 -0.2573  0.4336  0.1004
  600MOL0     C79084  -0.381   5.535   7.104  0.7486  0.3785  0.0840
  600MOL0     N79085  -0.288   5.428   7.091  0.3509  0.6427  0.2731
  600MOL0     C79086  -0.232   5.388   6.967  0.4769  0.6848 -0.5158
  600MOL0     C79087  -0.186   5.266   6.989  0.1719  0.7672 -1.5422
  600MOL0     C79088  -0.120   5.175   6.887 -0.6219 -0.8210 -0.6466
  600MOL0     C79089   0.034   5.206   6.883  0.0531 -0.1320 -0.5671
  600MOL0     C79090   0.125   5.140   6.994 -0.7038 -0.5344 -0.6176
  600MOL0     C79091   0.099   5.185   7.138 -1.1132 -0.0859 -0.1436
  600MOL0     O79092   0.214   5.158   7.214 -0.1609  0.1778 -0.3658
  600MOL0     C79093   0.213   5.189   7.352 -1.0233  0.4081 -0.3116
  600MOL0     C79094   0.324   5.151   7.437  0.6081  0.4840 -0.6084
  600MOL0     C79095   0.325   5.171   7.572 -0.0991 -0.5557 -0.6184
  600MOL0     C79096   0.222   5.244   7.634  0.1076 -0.7127  0.0332
  600MOL0     C79097   0.217   5.278   7.777 -0.1278 -0.3666 -0.6611
  600MOL0     O79098   0.136   5.391   7.806  0.1625 -0.2243 -0.3987
  600MOL0     C79099   0.102   5.402   7.941 -0.5104 -1.0474  1.4781
  600MOL0     C79100   0.188   5.455   8.040 -0.2347 -0.1087 -1.2101
  600MOL0     C79101   0.140   5.476   8.169  0.0683  0.7714  0.2283
  600MOL0     C79102   0.012   5.428   8.210 -0.0467  0.4183 -0.6479
  600MOL0     O79103  -0.021   5.446   8.346  0.4762 -0.3792  0.0385
  600MOL0     C79104  -0.155   5.492   8.378  1.1978 -0.1598 -0.3089
  600MOL0     C79105  -0.183   5.639   8.341  0.1112 -0.2510  0.5942
  600MOL0     C79106  -0.136   5.742   8.438 -0.8770  0.3136 -1.1359
  600MOL0     C79107   0.019   5.753   8.444 -0.0229  0.1679  0.1712
  600MOL0     C79108   0.057   5.883   8.515 -0.6759 -1.0243 -0.2479
  600MOL0     C79109   0.207   5.902   8.531  0.7758  0.3328  0.4479
  600MOL0     C79110   0.248   6.033   8.596 -0.2644  0.2360 -0.9989
  600MOL0     C79111   0.336   6.030   8.727 -0.2454  0.1513  1.1177
  600MOL0    Cl79112   0.404   6.194   8.741 -0.5017  0.2756 -0.0482
  600MOL0     C79113  -0.072   5.374   8.116 -0.1980  1.1281  0.2685
  600MOL0     C79114  -0.031   5.359   7.981 -0.9384 -1.0627 -0.2714
  600MOL0     O79115   0.268   5.210   7.866  0.2413  0.7828 -0.1213
  600MOL0     C79116   0.110   5.277   7.555 -0.0847  0.0788  0.3636
  600MOL0     C79117   0.104   5.251   7.413 -0.4816  0.2107 -0.2401
  600MOL0     N79118  -0.212   5.236   7.125 -0.2695  0.1734  0.5791
  600MOL0     N79119  -0.276   5.331   7.188 -0.5548 -0.8133 -0.2973
  600MOL0     C79120   0.176   6.031   7.860 -1.3388  1.4253 -0.3051
  600MOL0     C79121   0.190   6.133   7.947  0.6422 -0.3026 -0.5116
  600MOL0     C79122   0.189   6.347   8.381  0.7745  0.4234 -0.3558
  600MOL0     C79123   0.268   6.444   8.323  0.4377 -0.7363  0.0653
  600MOL0     C79124   0.336   6.545   8.404 -0.2799  1.2343  0.0615
  600MOL0     C79125   0.309   6.548   8.544  0.4572 -1.0649  0.6280
  600MOL0     O79126   0.373   6.645   8.620  0.5858  0.2878  0.2452
  600MOL0     C79127   0.286   6.750   8.663 -0.1123  0.1109 -0.4170
  600MOL0     C79128   0.370   6.860   8.734 -0.3767 -0.3427  0.2684
  600MOL0     C79129   0.414   6.975   8.636  0.4896 -1.2580 -0.1738
  600MOL0     C79130   0.522   7.070   8.685 -0.0749 -0.0910 -0.1772
  600MOL0     C79131   0.477   7.135   8.811  0.7338  0.4268  0.2826
  600MOL0     C79132   0.452   7.196   8.918 -0.3288  0.0600  0.4654
  600MOL0     C79133   0.213   6.467   8.599  0.8080  0.2165 -0.9941
  600MOL0     C79134   0.151   6.365   8.518  0.2519 -1.0228 -0.8109
  600MOL0     H79135   0.076   6.021   8.224 -0.2390  4.0485 -1.1205
  600MOL0     H79136   0.084   5.794   8.062 -4.1478  2.0060  0.7907
  600MOL0     H79137   0.216   5.800   7.644 -1.2323  2.4339 -2.6959
  600MOL0     H79138   0.060   5.876   7.654  1.0216  0.8135  1.2384
  600MOL0     H79139   0.016   5.604   7.728  1.5639  1.5565  1.2299
  600MOL0     H79140   0.134   5.595   7.611  1.1724  0.7515  0.4194
  600MOL0     H79141  -0.006   5.706   7.449  0.6112 -1.9810 -0.4555
  600MOL0     H79142  -0.130   5.755   7.578  0.4097  0.2696  0.2515
  600MOL0     H79143  -0.086   5.477   7.478  0.6199  0.9778  1.1119
  600MOL0     H79144  -0.172   5.524   7.617  1.8898  0.3072  0.6578
  600MOL0     H79145  -0.312   5.680   7.457 -3.7240 -0.8096 -2.2430
  600MOL0     H79146  -0.344   5.514   7.414  0.4906 -1.4975  0.9885
  600MOL0     H79147  -0.153   5.548   7.244  0.4178  0.2808 -0.2284
  600MOL0     H79148  -0.140   5.722   7.278 -0.2501  0.3874  1.6978
  600MOL0     H79149  -0.392   5.724   7.209 -0.8796 -0.4361  0.1895
  600MOL0     H79150  -0.276   5.722   7.078  0.8839 -0.4960 -0.0511
  600MOL0     H79151  -0.442   5.565   7.018  1.2107  2.8403  0.5405
  600MOL0     H79152  -0.461   5.509   7.174 -2.1841  0.3458 -3.0044
  600MOL0     H79153  -0.227   5.442   6.873  0.5869  3.3721  0.9391
  600MOL0     H79154  -0.159   5.177   6.785  1.1768 -0.3759 -1.3502
  600MOL0     H79155  -0.122   5.069   6.916  1.0704 -0.5306  0.6335
  600MOL0     H79156   0.048   5.314   6.877  0.5760 -0.0615  1.2375
  600MOL0     H79157   0.069   5.155   6.793 -1.8256 -4.2811  0.7821
  600MOL0     H79158   0.112   5.033   6.978 -1.0122 -0.5079 -0.5437
  600MOL0     H79159   0.228   5.170   6.970 -1.4584  1.3085 -1.7008
  600MOL0     H79160   0.018   5.122   7.175  0.1079 -0.9946  1.1127
  600MOL0     H79161   0.088   5.294   7.144  2.5426  0.3550  0.9738
  600MOL0     H79162   0.412   5.101   7.399  1.0489  0.4255  0.4605
  600MOL0     H79163   0.414   5.144   7.629  0.5935 -0.2247 -1.5105
  600MOL0     H79164   0.291   5.478   8.016 -0.1449  3.8676  1.9405
  600MOL0     H79165   0.186   5.527   8.253 -1.0705  2.1434  0.0610
  600MOL0     H79166  -0.165   5.486   8.487  2.0434 -0.2427 -0.2345
  600MOL0     H79167  -0.238   5.432   8.340 -0.7563  2.6545 -0.8547
  600MOL0     H79168  -0.291   5.651   8.339 -0.2133 -2.4201 -2.8575
  600MOL0     H79169  -0.148   5.647   8.238 -0.0202  0.3871  0.5973
  600MOL0     H79170  -0.171   5.709   8.537 -2.0122  0.9380 -1.3117
  600MOL0     H79171  -0.182   5.837   8.411 -1.8451 -0.1516 -1.1735
  600MOL0     H79172   0.054   5.663   8.495 -0.0056 -0.5364 -1.0392
  600MOL0     H79173   0.047   5.743   8.338  1.3755 -0.8664  0.6026
  600MOL0     H79174   0.022   5.898   8.618  2.5482 -0.8894  0.9200
  600MOL0     H79175   0.019   5.972   8.464  0.0142  2.1585  4.1831
  600MOL0     H79176   0.250   5.894   8.431 -1.7691  2.9471 -1.0309
  600MOL0     H79177   0.238   5.815   8.589 -0.6871  0.1957  1.0789
  600MOL0     H79178   0.291   6.105   8.525  1.1112  3.3183  2.5924
  600MOL0     H79179   0.157   6.086   8.626 -0.0978 -0.5544  1.1053
  600MOL0     H79180   0.418   5.959   8.721 -2.0224 -2.2720  3.1479
  600MOL0     H79181   0.291   6.007   8.824  1.0899  0.2669  1.7787
  600MOL0     H79182  -0.171   5.345   8.150  0.7504 -2.1086  0.6048
  600MOL0     H79183  -0.102   5.307   7.918  0.0767 -1.7929 -0.8325
  600MOL0     H79184   0.022   5.328   7.594 -0.7615  0.3254 -1.3763
  600MOL0     H79185   0.012   5.275   7.360 -2.2846 -0.6915  2.3131
  600MOL0     H79186   0.202   6.064   7.760 -1.2480  0.5095 -0.5961
  600MOL0     H79187   0.229   6.228   7.910  1.7025 -0.1497  0.9190
  600MOL0     H79188   0.306   6.444   8.221 -2.2281  2.9620 -1.1140
  600MOL0     H79189   0.419   6.596   8.354 -0.9554  1.7796 -0.5317
  600MOL0     H79190   0.208   6.706   8.726  1.0871 -1.3741  0.0902
  600MOL0     H79191   0.226   6.788   8.580 -0.5993  2.7137  0.9919
  600MOL0     H79192   0.304   6.913   8.804 -2.1282 -4.2931  1.8911
  600MOL0     H79193   0.464   6.823   8.773 -0.2700 -0.4538 -0.0850
  600MOL0     H79194   0.326   7.028   8.599  1.0193  1.3714  2.0308
  600MOL0     H79195   0.448   6.943   8.537 -1.7378  0.9238 -1.7404
  600MOL0     H79196   0.611   7.007   8.696 -0.0146  0.1688  1.0562
  600MOL0     H79197   0.527   7.148   8.608  0.4831  0.5331  0.4650
  600MOL0     H79198   0.423   7.259   9.000  1.0877 -1.4798  2.2453
  600MOL0     H79199   0.186   6.471   8.704  0.1292 -0.0645 -1.1477
  600MOL0     H79200   0.078   6.317   8.583  0.4036  1.3019  1.2150
  601MOL0     O79201   0.573   9.493   7.798 -0.1018  0.3453 -0.0195
  601MOL0     C79202   0.685   9.544   7.790 -0.2703  0.6208 -0.4175
  601MOL0     O79203   0.794   9.485   7.720  0.0669 -0.1582  1.2102
  601MOL0     C79204   0.786   9.371   7.644 -0.7953 -0.5001 -0.1596
  601MOL0     C79205   0.887   9.335   7.553  0.6191 -0.7681 -0.4125
  601MOL0     C79206   0.875   9.212   7.480 -0.6575  0.6884  0.8265
  601MOL0     C79207   0.762   9.121   7.485 -0.4275 -1.6054 -0.7324
  601MOL0     O79208   0.752   9.000   7.423 -0.3196  0.5181  0.6690
  601MOL0     C79209   0.818   8.981   7.298  0.3064  1.0654 -0.8227
  601MOL0     C79210   0.737   8.887   7.209 -0.5324  0.1383  0.8675
  601MOL0     C79211   0.706   8.764   7.288  0.4800  0.3494 -0.5485
  601MOL0     C79212   0.622   8.665   7.197 -0.1386  0.1221  1.1777
  601MOL0     C79213   0.711   8.602   7.090  0.8292 -0.5167 -0.9349
  601MOL0     C79214   0.634   8.489   7.016 -1.1988 -0.3468 -0.2200
  601MOL0     C79215   0.493   8.516   6.956 -0.7158  0.1549  0.1624
  601MOL0     C79216   0.449   8.381   6.895 -0.0070  0.1117  0.3959
  601MOL0     N79217   0.333   8.326   6.970  0.5777  0.0130  0.3097
  601MOL0     C79218   0.347   8.277   7.098  0.6542 -0.0538 -0.9302
  601MOL0     C79219   0.225   8.220   7.126 -0.3980  0.4200 -0.4829
  601MOL0     C79220   0.171   8.132   7.238  0.7457  0.2355  0.1654
  601MOL0     C79221   0.132   8.179   7.378 -0.3640 -0.1260 -0.4370
  601MOL0     C79222   0.242   8.198   7.479  0.1063 -1.0141 -0.5171
  601MOL0     C79223   0.344   8.311   7.463  0.1362 -0.0651  0.6554
  601MOL0     O79224   0.467   8.248   7.417  0.3435 -0.1950 -0.3354
  601MOL0     C79225   0.587   8.310   7.440 -0.1565 -0.2056  0.4981
  601MOL0     C79226   0.624   8.434   7.500 -0.6961  0.5044 -0.9662
  601MOL0     C79227   0.758   8.476   7.497  0.4025  1.4251 -0.0188
  601MOL0     C79228   0.858   8.395   7.440 -1.2165  0.1472  0.6081
  601MOL0     C79229   0.993   8.427   7.476 -0.5097 -0.4537 -0.1585
  601MOL0     O79230   1.009   8.553   7.526 -0.0946 -0.5657 -0.9033
  601MOL0     C79231   1.139   8.588   7.573  0.9329  0.2597  0.3359
  601MOL0     C79232   1.166   8.571   7.708 -0.0280  0.7079 -0.4138
  601MOL0     C79233   1.289   8.612   7.761 -0.7663 -0.3059  0.8884
  601MOL0     C79234   1.377   8.687   7.674  0.2246  0.9514  0.0839
  601MOL0     O79235   1.512   8.719   7.705 -0.3964 -0.4204 -0.5233
  601MOL0     C79236   1.563   8.696   7.838  0.0658  0.6337 -0.5456
  601MOL0     C79237   1.704   8.750   7.861  0.5241  0.8537  0.4342
  601MOL0     C79238   1.715   8.909   7.841 -0.0478  0.5169  0.2796
  601MOL0     C79239   1.746   8.949   7.689 -1.1512  0.4152 -0.2137
  601MOL0     C79240   1.689   9.085   7.652  0.2521  0.8219 -0.1083
  601MOL0     C79241   1.727   9.135   7.514 -0.1351 -1.0145 -0.1674
  601MOL0     C79242   1.659   9.054   7.399 -0.8020  0.2562 -0.8921
  601MOL0     C79243   1.653   9.127   7.273 -0.7045  0.3817  0.3723
  601MOL0    Cl79244   1.802   9.200   7.192  0.0427  0.0291  0.1961
  601MOL0     C79245   1.345   8.699   7.541 -0.5363  0.3907  0.0285
  601MOL0     C79246   1.226   8.651   7.493  0.1574 -1.1544 -0.2419
  601MOL0     O79247   1.085   8.350   7.443 -0.0075 -0.1576 -0.4277
  601MOL0     C79248   0.823   8.276   7.371  0.4319 -0.5178 -0.7143
  601MOL0     C79249   0.687   8.247   7.367  0.8104 -0.1402  0.1640
  601MOL0     N79250   0.150   8.235   7.009 -0.4289 -0.4614  0.0018
  601MOL0     N79251   0.207   8.309   6.922 -0.4967 -0.7629  0.6544
  601MOL0     C79252   0.671   9.162   7.586  0.2356 -0.7188 -0.6370
  601MOL0     C79253   0.686   9.275   7.666 -0.3419 -0.2206  0.0507
  601MOL0     C79254   0.695   9.679   7.837 -0.9179 -0.5018 -0.6104
  601MOL0     C79255   0.607   9.737   7.919 -0.1788  0.6044  0.3027
  601MOL0     C79256   0.626   9.866   7.961  0.0009  0.2957  1.0928
  601MOL0     C79257   0.742   9.929   7.930  0.1502  0.5701  0.5982
  601MOL0     O79258   0.761  10.061   7.969 -0.1753  0.8795  0.1265
  601MOL0     C79259   0.694  10.146   7.870 -0.4354 -0.1726  0.2053
  601MOL0     C79260   0.737  10.289   7.862 -0.0675  0.2844  0.6754
  601MOL0     C79261   0.680  10.378   7.979  0.0387 -0.1466  0.4177
  601MOL0     C79262   0.553  10.446   7.937  0.5710  0.1754  0.2152
  601MOL0     C79263   0.568  10.562   7.845 -0.1841 -0.2708 -0.2021
  601MOL0     C79264   0.561  10.663   7.773  0.3681 -0.0532  0.0150
  601MOL0     C79265   0.831   9.875   7.845  0.5582 -0.3385 -0.0142
  601MOL0     C79266   0.809   9.749   7.809  0.4598 -0.2167 -0.8413
  601MOL0     H79267   0.976   9.398   7.552  0.2547 -0.2453 -0.8649
  601MOL0     H79268   0.954   9.179   7.413 -1.6253  0.7132 -0.3836
  601MOL0     H79269   0.920   8.942   7.298  0.0736  0.3901 -2.0668
  601MOL0     H79270   0.834   9.073   7.242  0.2946  0.5331 -1.7124
  601MOL0     H79271   0.791   8.876   7.114 -0.2464 -0.6166  1.1093
  601MOL0     H79272   0.642   8.928   7.175 -0.3079 -0.7326 -0.9710
  601MOL0     H79273   0.642   8.791   7.373  0.8355 -1.3422  0.3038
  601MOL0     H79274   0.794   8.720   7.334  1.1412  0.5654 -1.5748
  601MOL0     H79275   0.568   8.591   7.257 -1.3740  1.3360  1.6345
  601MOL0     H79276   0.538   8.718   7.151 -1.5443 -2.3721  0.6852
  601MOL0     H79277   0.803   8.564   7.135 -0.6546 -2.9922  0.2441
  601MOL0     H79278   0.734   8.675   7.012  4.5524 -1.8165 -1.2889
  601MOL0     H79279   0.634   8.406   7.087  1.5520 -0.5356 -0.3190
  601MOL0     H79280   0.709   8.454   6.944  0.2737 -0.9476  1.5328
  601MOL0     H79281   0.420   8.550   7.030  0.0822 -1.0518  1.5502
  601MOL0     H79282   0.500   8.588   6.874 -0.8752  0.5476  0.4918
  601MOL0     H79283   0.533   8.311   6.898 -0.6147 -0.6288  0.3292
  601MOL0     H79284   0.419   8.400   6.791  0.5090 -0.3013  0.1710
  601MOL0     H79285   0.440   8.269   7.154  0.9625 -1.2572 -1.5654
  601MOL0     H79286   0.237   8.049   7.264  1.6254  0.9217  0.1747
  601MOL0     H79287   0.090   8.084   7.183  2.6149  0.0373 -2.5990
  601MOL0     H79288   0.077   8.100   7.430  2.8492 -0.7186  2.4351
  601MOL0     H79289   0.054   8.256   7.383 -2.1582 -1.9327  3.0308
  601MOL0     H79290   0.203   8.223   7.578  1.2002  3.2100 -0.9529
  601MOL0     H79291   0.301   8.106   7.481  2.0267  0.0870 -2.0409
  601MOL0     H79292   0.350   8.347   7.566 -1.9551 -1.6440  1.4009
  601MOL0     H79293   0.307   8.385   7.392  0.3908 -0.7651 -0.2290
  601MOL0     H79294   0.548   8.487   7.557 -1.1958 -3.0898  2.1164
  601MOL0     H79295   0.764   8.568   7.554 -5.8579  1.8658  0.5966
  601MOL0     H79296   1.088   8.536   7.775 -0.5038 -0.5797 -1.5825
  601MOL0     H79297   1.321   8.583   7.861  1.6757 -1.0367 -0.0368
  601MOL0     H79298   1.574   8.587   7.841  1.7598  0.7480 -1.3860
  601MOL0     H79299   1.489   8.731   7.911 -0.3817 -2.9813  0.9512
  601MOL0     H79300   1.783   8.706   7.800 -1.6768  0.1350 -2.0541
  601MOL0     H79301   1.734   8.739   7.966  0.0025  6.2656  1.4474
  601MOL0     H79302   1.795   8.932   7.911  1.7452  2.2743 -2.1825
  601MOL0     H79303   1.627   8.963   7.876 -0.6664  0.3631 -0.9687
  601MOL0     H79304   1.855   8.954   7.687 -1.1805  3.7157  0.6399
  601MOL0     H79305   1.706   8.866   7.630  4.6453 -1.6568 -1.9759
  601MOL0     H79306   1.710   9.160   7.728  2.8368  0.1064 -0.0332
  601MOL0     H79307   1.581   9.066   7.657  0.3496  0.5197  2.1306
  601MOL0     H79308   1.834   9.114   7.508  0.4087  0.4405  2.8681
  601MOL0     H79309   1.696   9.238   7.494  0.6284 -0.4573  1.3696
  601MOL0     H79310   1.711   8.959   7.385 -0.9075  0.0338  0.1650
  601MOL0     H79311   1.554   9.034   7.420 -1.9383  4.2639 -1.8529
  601MOL0     H79312   1.582   9.210   7.272 -0.0830  0.9386 -1.3997
  601MOL0     H79313   1.607   9.063   7.197  0.5403  0.6898 -0.6745
  601MOL0     H79314   1.420   8.733   7.470  1.8139 -1.6858  1.3496
  601MOL0     H79315   1.185   8.664   7.393  2.3191 -1.7440 -1.2818
  601MOL0     H79316   0.887   8.211   7.313 -1.6479 -2.9046 -0.4969
  601MOL0     H79317   0.649   8.164   7.308 -3.6834 -0.0892  2.5217
  601MOL0     H79318   0.599   9.086   7.616  1.1658 -1.5879 -0.5375
  601MOL0     H79319   0.614   9.278   7.747 -0.9128  0.2784 -0.4672
  601MOL0     H79320   0.512   9.686   7.933 -2.1414  2.8250 -3.3451
  601MOL0     H79321   0.554   9.922   8.019 -2.0328 -1.2119  0.1362
  601MOL0     H79322   0.592  10.153   7.908 -0.3875 -0.2705  0.3501
  601MOL0     H79323   0.696  10.099   7.771 -0.3436 -0.1580  0.1999
  601MOL0     H79324   0.846  10.296   7.868  0.0215 -0.8396  0.5059
  601MOL0     H79325   0.710  10.335   7.767  3.9431  1.3434 -0.1003
  601MOL0     H79326   0.749  10.459   8.007 -0.5627 -0.0876  1.8307
  601MOL0     H79327   0.668  10.314   8.067  1.7330 -3.3668 -1.5011
  601MOL0     H79328   0.481  10.366   7.917  0.4100 -0.5850  3.3042
  601MOL0     H79329   0.498  10.488   8.021  1.4998  2.5843 -0.3228
  601MOL0     H79330   0.554  10.741   7.700  0.2198 -1.5570 -1.6457
  601MOL0     H79331   0.902   9.922   7.779  1.1212 -1.8447 -0.5267
  601MOL0     H79332   0.876   9.709   7.734 -0.4680 -0.3749 -1.6235
  602MOL0     O79333   9.929   5.678   7.256 -0.6404 -0.4239 -0.4423
  602MOL0     C79334   9.818   5.726   7.241  0.9544  0.1081  0.2830
  602MOL0     O79335   9.749   5.816   7.328 -0.3577  0.0910  0.2195
  602MOL0     C79336   9.811   5.835   7.453 -0.9826  0.7091 -0.5882
  602MOL0     C79337   9.799   5.960   7.504 -0.5120  0.1768  0.6763
  602MOL0     C79338   9.838   5.997   7.635 -0.0955  0.0454 -0.5454
  602MOL0     C79339   9.882   5.905   7.729 -0.2168  2.1616 -0.2397
  602MOL0     O79340   9.897   5.926   7.861  0.8847  0.3223 -0.5160
  602MOL0     C79341   9.993   5.844   7.937  0.9621 -0.2157  0.8130
  602MOL0     C79342  10.023   5.922   8.062  0.0901  0.2526 -0.4206
  602MOL0     C79343  10.114   5.849   8.168  0.0665 -0.3497  0.7873
  602MOL0     C79344  10.263   5.846   8.118 -0.8405 -0.6515 -0.0793
  602MOL0     C79345  10.356   5.894   8.241 -0.1511  0.3752  0.4409
  602MOL0     C79346  10.346   5.814   8.368 -0.0857 -0.6187 -0.3906
  602MOL0     C79347  10.370   5.904   8.490 -0.3636  0.0632  1.3318
  602MOL0     C79348  10.355   5.812   8.609 -0.2810  0.0542 -0.2857
  602MOL0     N79349  10.323   5.884   8.735  0.4273 -0.0012 -0.4417
  602MOL0     C79350  10.421   5.949   8.807  0.5095 -0.9728 -0.7008
  602MOL0     C79351  10.346   5.981   8.921 -0.0683 -0.5493  0.9304
  602MOL0     C79352  10.383   6.067   9.038 -0.0255  0.9443  0.5482
  602MOL0     C79353  10.284   6.043   9.158  0.6031  0.4551 -0.6629
  602MOL0     C79354  10.349   6.070   9.293 -1.3140  0.2669 -1.4131
  602MOL0     C79355  10.246   6.054   9.401  0.8662 -0.9716  0.1595
  602MOL0     O79356  10.180   6.174   9.418 -0.7712 -0.2663  0.1730
  602MOL0     C79357  10.112   6.181   9.540  0.2535  1.1098 -0.6272
  602MOL0     C79358  10.001   6.105   9.582 -0.3857  0.7486 -0.3854
  602MOL0     C79359   9.940   6.111   9.711 -0.0890  1.1232  0.3572
  602MOL0     C79360  10.010   6.187   9.805 -0.1221  0.0387 -0.5298
  602MOL0     C79361   9.964   6.194   9.945  0.3925  0.4816  0.6609
  602MOL0     O79362   9.877   6.102   9.990  0.0954 -0.2529  0.2288
  602MOL0     C79363   9.802   6.113  10.106  0.4022 -0.2429 -0.6324
  602MOL0     C79364   9.663   6.079  10.111 -0.5285 -0.8171 -0.0109
  602MOL0     C79365   9.581   6.085  10.225  0.5384  0.1886  0.4671
  602MOL0     C79366   9.643   6.116  10.346 -0.9010 -0.9475 -0.4412
  602MOL0     O79367   9.572   6.124  10.460 -0.7596 -0.0320  0.7076
  602MOL0     C79368   9.615   6.075  10.586  0.6055  0.1397 -0.1730
  602MOL0     C79369   9.513   6.120  10.702 -0.6901 -0.0617 -0.5045
  602MOL0     C79370   9.404   6.021  10.690  0.1399  0.4099 -0.3804
  602MOL0     C79371   9.287   6.029  10.783  0.2358 -0.0491  0.1118
  602MOL0     C79372   9.349   5.985  10.930  0.1061  0.0367  0.0908
  602MOL0     C79373   9.245   5.923  11.023  0.3053 -0.8545  0.6250
  602MOL0     C79374   9.121   6.020  11.036  0.4283  0.3943 -0.7590
  602MOL0     C79375   8.992   5.949  11.005 -0.2621  0.1093 -0.3267
  602MOL0    Cl79376   8.853   6.064  11.059 -0.4854 -0.0673  0.7423
  602MOL0     C79377   9.788   6.128  10.350  0.5323  0.0852  0.3968
  602MOL0     C79378   9.863   6.122  10.233  0.0804 -0.3670 -0.2635
  602MOL0     O79379  10.000   6.289  10.010 -0.1128 -0.5064 -0.3811
  602MOL0     C79380  10.129   6.254   9.771  0.8914 -0.7893 -0.4717
  602MOL0     C79381  10.171   6.258   9.637 -0.2448 -1.2507 -0.2491
  602MOL0     N79382  10.211   5.943   8.908  0.2330 -0.5106  0.2553
  602MOL0     N79383  10.205   5.887   8.796  0.4816  0.6683  0.0958
  602MOL0     C79384   9.905   5.773   7.674 -0.9234  0.5272  0.5398
  602MOL0     C79385   9.875   5.741   7.538  0.3716  0.2362 -0.6635
  602MOL0     C79386   9.754   5.694   7.117  0.9144 -0.4258  0.6651
  602MOL0     C79387   9.838   5.658   7.006  1.1468 -0.2710 -0.0560
  602MOL0     C79388   9.775   5.639   6.877 -0.9680 -0.3039  0.5028
  602MOL0     C79389   9.637   5.633   6.864 -0.9128 -0.3405 -0.1546
  602MOL0     O79390   9.597   5.628   6.731  0.6421 -0.2472 -0.1638
  602MOL0     C79391   9.447   5.623   6.715  0.1739 -0.0672  0.4828
  602MOL0     C79392   9.391   5.657   6.578 -0.1891  0.3540  0.4476
  602MOL0     C79393   9.473   5.628   6.451 -0.2129 -0.9777 -0.6905
  602MOL0     C79394   9.518   5.489   6.432  0.3628  0.8839  0.1020
  602MOL0     C79395   9.421   5.376   6.464 -0.2653  1.9416 -0.3332
  602MOL0     C79396   9.336   5.284   6.473 -1.3729  0.0235  0.0795
  602MOL0     C79397   9.551   5.653   6.980 -0.8224 -0.4889 -0.2768
  602MOL0     C79398   9.611   5.688   7.107 -0.8785  0.4597 -0.3776
  602MOL0     H79399   9.765   6.036   7.434 -2.4307 -0.3430  0.9907
  602MOL0     H79400   9.813   6.096   7.671  1.1260 -0.1934  1.0575
  602MOL0     H79401  10.079   5.826   7.873  0.8050  1.9121 -0.0945
  602MOL0     H79402   9.943   5.754   7.974  1.6596 -0.1981  1.8227
  602MOL0     H79403   9.923   5.918   8.105 -0.8482  1.0940 -2.4285
  602MOL0     H79404  10.054   6.022   8.034 -3.9647  1.2497 -2.0612
  602MOL0     H79405  10.077   5.748   8.187  0.3370 -0.3507  1.3073
  602MOL0     H79406  10.093   5.911   8.255 -0.0712  1.3770 -0.4042
  602MOL0     H79407  10.294   5.751   8.073  1.9827  0.4607 -0.7481
  602MOL0     H79408  10.276   5.918   8.036 -3.0653 -0.9306 -0.7232
  602MOL0     H79409  10.330   5.996   8.269 -0.6423  0.8051 -1.4309
  602MOL0     H79410  10.458   5.881   8.204 -0.3303 -1.5299  0.5366
  602MOL0     H79411  10.416   5.731   8.367 -3.1541 -3.4055 -0.6233
  602MOL0     H79412  10.247   5.769   8.379  1.5089 -4.0537  1.2833
  602MOL0     H79413  10.471   5.941   8.472 -0.0838 -1.3734 -0.2574
  602MOL0     H79414  10.292   5.982   8.491 -0.6032  0.4344 -4.8085
  602MOL0     H79415  10.452   5.762   8.610  0.8904  2.2022 -1.0579
  602MOL0     H79416  10.276   5.737   8.596 -0.5686  0.6015 -1.9145
  602MOL0     H79417  10.520   5.988   8.782  0.4705 -0.2159  0.2770
  602MOL0     H79418  10.394   6.172   9.012  0.6141 -0.1907 -5.3597
  602MOL0     H79419  10.480   6.022   9.062 -1.7086 -2.5942  1.4272
  602MOL0     H79420  10.249   5.940   9.159 -3.7597  1.6913 -1.4564
  602MOL0     H79421  10.203   6.116   9.151  3.3352  4.0271  1.4206
  602MOL0     H79422  10.432   6.000   9.307 -2.2373 -0.6841 -0.5247
  602MOL0     H79423  10.384   6.173   9.293 -2.3495  0.6710  0.9134
  602MOL0     H79424  10.280   6.034   9.503 -0.7830  1.8466  1.3922
  602MOL0     H79425  10.184   5.972   9.364  0.5499  0.6277 -3.2284
  602MOL0     H79426   9.968   6.042   9.500  1.1866 -4.0371  2.2848
  602MOL0     H79427   9.855   6.052   9.743  0.8307  0.2096  1.2315
  602MOL0     H79428   9.627   6.059  10.011  1.3704 -2.0531 -0.5033
  602MOL0     H79429   9.473   6.075  10.225  0.4417  0.9033 -1.2102
  602MOL0     H79430   9.710   6.119  10.617 -0.5186  0.5216  3.1231
  602MOL0     H79431   9.637   5.967  10.582  1.8253  0.3261  0.8005
  602MOL0     H79432   9.485   6.222  10.673 -0.3280  0.6104  1.3244
  602MOL0     H79433   9.560   6.124  10.801  1.6370  0.5967 -1.5758
  602MOL0     H79434   9.452   5.923  10.704 -1.1264 -1.3142 -5.7918
  602MOL0     H79435   9.362   6.011  10.590 -0.5762  1.7752 -0.2409
  602MOL0     H79436   9.243   6.129  10.781  1.3330  0.4566 -2.4701
  602MOL0     H79437   9.215   5.953  10.752  0.6858 -0.4485  0.0382
  602MOL0     H79438   9.391   6.072  10.979  1.6416  0.4671 -1.8470
  602MOL0     H79439   9.433   5.916  10.921 -0.8153 -0.8518 -3.2247
  602MOL0     H79440   9.293   5.906  11.120 -3.1270 -3.5134  2.0903
  602MOL0     H79441   9.218   5.822  10.989  0.1967 -0.3168 -0.9699
  602MOL0     H79442   9.109   6.050  11.141  2.9250 -0.4169 -0.1457
  602MOL0     H79443   9.129   6.112  10.979  3.2761  0.8629  0.2169
  602MOL0     H79444   8.986   5.857  11.064 -2.7800  2.2907  3.1900
  602MOL0     H79445   8.990   5.942  10.895  0.8294 -0.7452 -0.3115
  602MOL0     H79446   9.837   6.127  10.447  1.0705  2.0087  0.1766
  602MOL0     H79447   9.970   6.134  10.249  0.3072 -0.1633 -1.7439
  602MOL0     H79448  10.190   6.302   9.847 -1.3898 -0.1910  1.0983
  602MOL0     H79449  10.252   6.310   9.587 -3.1827  0.2685 -3.9272
  602MOL0     H79450   9.944   5.686   7.726  1.4261 -0.3832 -2.4419
  602MOL0     H79451   9.893   5.637   7.512 -0.1818  0.0489 -0.3105
  602MOL0     H79452   9.947   5.658   7.011  1.4368 -4.3012 -2.1584
  602MOL0     H79453   9.834   5.631   6.785 -1.6255  2.0137 -0.1873
  602MOL0     H79454   9.406   5.698   6.784  1.1375 -0.2418  1.2770
  602MOL0     H79455   9.415   5.525   6.752  1.5182  0.2944  2.8412
  602MOL0     H79456   9.294   5.610   6.559  0.2093  0.1878 -1.3403
  602MOL0     H79457   9.378   5.765   6.583 -1.9345  0.1863  0.2164
  602MOL0     H79458   9.549   5.704   6.430 -1.4677 -0.4069 -3.7185
  602MOL0     H79459   9.396   5.645   6.375 -0.3893 -2.4523 -0.8743
  602MOL0     H79460   9.550   5.473   6.329 -2.1982 -1.8041 -0.4141
  602MOL0     H79461   9.615   5.488   6.482 -0.0519 -1.1090  0.9694
  602MOL0     H79462   9.279   5.193   6.474  0.9330 -1.5500 -1.5174
  602MOL0     H79463   9.445   5.676   6.969 -1.4670 -1.1241  3.3319
  602MOL0     H79464   9.563   5.725   7.197  1.0356 -1.5291  1.5675
  603MOL0     O79465  11.444   4.973   2.472  0.1982  1.2260  0.1128
  603MOL0     C79466  11.417   5.088   2.428  0.2032  0.3342  1.1377
  603MOL0     O79467  11.300   5.141   2.429  1.0330  0.5190 -0.3493
  603MOL0     C79468  11.189   5.077   2.472 -0.5110 -0.0361  0.0581
  603MOL0     C79469  11.071   5.160   2.449  0.6785  0.1818  0.4619
  603MOL0     C79470  10.942   5.118   2.512  0.7281 -1.0545 -0.3614
  603MOL0     C79471  10.931   5.000   2.574 -0.1738 -0.6345  0.0233
  603MOL0     O79472  10.806   4.954   2.616  0.4912 -0.0428  0.4264
  603MOL0     C79473  10.788   4.909   2.746  0.0865  0.0943 -0.5171
  603MOL0     C79474  10.637   4.908   2.799 -0.0328  0.0178  0.3635
  603MOL0     C79475  10.612   5.040   2.856  0.6039  0.8798 -0.6881
  603MOL0     C79476  10.631   5.154   2.761  0.1233  0.0336 -0.9537
  603MOL0     C79477  10.567   5.296   2.811  0.0185 -0.5283 -0.2998
  603MOL0     C79478  10.418   5.282   2.852  0.5672 -0.7290  0.2101
  603MOL0     C79479  10.342   5.410   2.820  0.1229 -0.3193  0.5712
  603MOL0     C79480  10.379   5.527   2.908  0.3572 -0.8212 -0.0369
  603MOL0     N79481  10.462   5.632   2.836 -0.6772  0.1898 -0.1025
  603MOL0     C79482  10.598   5.654   2.850 -0.6144 -0.3852 -0.5083
  603MOL0     C79483  10.619   5.766   2.773  0.3206 -0.1331  0.5859
  603MOL0     C79484  10.747   5.836   2.745 -0.0196  0.6552  1.1727
  603MOL0     C79485  10.770   5.850   2.593 -0.6150  0.0999 -0.4208
  603MOL0     C79486  10.895   5.938   2.582  0.1745 -0.3743 -0.0847
  603MOL0     C79487  10.913   6.005   2.456  0.0704  0.1029  0.3125
  603MOL0     O79488  10.997   6.114   2.469  0.7780 -0.5329 -0.9607
  603MOL0     C79489  11.138   6.096   2.472  1.3333 -0.0431 -0.6156
  603MOL0     C79490  11.212   6.207   2.499  0.5734  0.4954  0.2032
  603MOL0     C79491  11.348   6.204   2.527 -0.4159 -1.3174  0.9860
  603MOL0     C79492  11.421   6.085   2.504  0.4636 -0.6680 -0.0734
  603MOL0     C79493  11.565   6.080   2.506  0.3798 -0.6792 -0.4817
  603MOL0     O79494  11.625   6.205   2.533  0.5719  0.1565  0.6149
  603MOL0     C79495  11.762   6.209   2.528 -0.1858 -0.4390  0.8534
  603MOL0     C79496  11.837   6.139   2.623  0.2130  0.5196  0.5857
  603MOL0     C79497  11.975   6.146   2.616  0.0378  0.5979 -0.0419
  603MOL0     C79498  12.037   6.218   2.512  0.2601 -1.3136 -1.2857
  603MOL0     O79499  12.172   6.234   2.523 -0.2497 -1.0689 -0.0168
  603MOL0     C79500  12.240   6.141   2.438  0.4092  0.6513  0.5254
  603MOL0     C79501  12.235   5.990   2.470 -0.6536 -1.1318 -0.3457
  603MOL0     C79502  12.318   5.903   2.375  0.3532  0.3976 -0.0483
  603MOL0     C79503  12.475   5.912   2.407  0.7153  0.6842  0.6183
  603MOL0     C79504  12.559   5.844   2.300  0.1119 -0.5381 -0.7357
  603MOL0     C79505  12.684   5.925   2.279 -0.9457 -0.4001  0.0879
  603MOL0     C79506  12.765   5.866   2.164  0.1260 -0.5716 -0.7490
  603MOL0     C79507  12.892   5.954   2.121  0.1520 -0.7016 -0.2783
  603MOL0    Cl79508  12.974   5.884   1.984  0.0685 -0.2596  0.2061
  603MOL0     C79509  11.951   6.300   2.436 -1.1175  0.4538  0.4570
  603MOL0     C79510  11.816   6.291   2.435 -0.7714 -0.4579 -0.3712
  603MOL0     O79511  11.617   5.980   2.475 -0.0913  0.1029 -0.1129
  603MOL0     C79512  11.348   5.965   2.469  0.4889 -0.2066 -0.4915
  603MOL0     C79513  11.203   5.974   2.464 -0.9140  0.5061  0.5575
  603MOL0     N79514  10.494   5.818   2.737 -0.5956 -0.3390  1.5093
  603MOL0     N79515  10.407   5.740   2.781  0.3584 -0.4062 -0.4251
  603MOL0     C79516  11.046   4.922   2.580 -1.2511  0.1881 -0.1568
  603MOL0     C79517  11.179   4.959   2.547  0.4510  0.2117  0.0155
  603MOL0     C79518  11.532   5.157   2.366 -0.6536  1.3592  0.2639
  603MOL0     C79519  11.663   5.132   2.405 -0.5460  0.2489 -0.1241
  603MOL0     C79520  11.762   5.201   2.343 -0.6108 -0.0679 -0.2722
  603MOL0     C79521  11.750   5.294   2.240 -0.9685  1.0129 -0.4892
  603MOL0     O79522  11.861   5.350   2.181 -0.1574  0.7255  0.5570
  603MOL0     C79523  11.836   5.430   2.070 -0.2317 -0.1325  0.1028
  603MOL0     C79524  11.975   5.438   1.987 -0.1049 -0.2357  0.3382
  603MOL0     C79525  11.942   5.469   1.842 -0.8487 -0.7500 -0.5706
  603MOL0     C79526  12.057   5.528   1.755 -0.2362 -0.3813 -0.2081
  603MOL0     C79527  12.172   5.430   1.751 -0.5959  0.7082 -0.7000
  603MOL0     C79528  12.265   5.348   1.745  0.2648  0.6487  0.5406
  603MOL0     C79529  11.613   5.325   2.209  0.5954  1.2770 -0.9277
  603MOL0     C79530  11.509   5.252   2.259 -0.1418  0.0523 -0.6266
  603MOL0     H79531  11.080   5.250   2.389 -0.4197 -0.8707 -1.3387
  603MOL0     H79532  10.851   5.177   2.498  0.4397 -1.4883 -0.3292
  603MOL0     H79533  10.853   4.976   2.803 -0.4055 -0.5142  0.7884
  603MOL0     H79534  10.836   4.811   2.751  0.2627  0.2281  0.5549
  603MOL0     H79535  10.618   4.840   2.883  0.1668 -1.8644 -1.0541
  603MOL0     H79536  10.556   4.888   2.728 -2.0680  2.2126  1.8756
  603MOL0     H79537  10.681   5.052   2.940  0.0852  1.0711 -0.2816
  603MOL0     H79538  10.508   5.040   2.889  0.8092 -1.1639  0.0963
  603MOL0     H79539  10.730   5.192   2.737 -0.2514  3.6200  2.3458
  603MOL0     H79540  10.577   5.134   2.667 -0.1746  3.5724 -1.6562
  603MOL0     H79541  10.570   5.353   2.718  0.7296 -1.0417 -0.5929
  603MOL0     H79542  10.630   5.355   2.879  1.6714 -0.8320 -1.5267
  603MOL0     H79543  10.400   5.249   2.955 -0.3808  1.4403  0.7964
  603MOL0     H79544  10.374   5.204   2.789 -0.7816  0.2462 -0.0769
  603MOL0     H79545  10.345   5.430   2.713  4.0969 -2.6343  0.0505
  603MOL0     H79546  10.243   5.381   2.857  0.9388 -1.9772  1.5458
  603MOL0     H79547  10.429   5.498   3.001 -2.8334 -1.4888  1.5962
  603MOL0     H79548  10.287   5.572   2.945  0.4791 -0.5554 -0.0505
  603MOL0     H79549  10.676   5.616   2.915 -0.1355  1.0238 -0.2400
  603MOL0     H79550  10.821   5.778   2.801 -0.1266 -2.2556 -1.4632
  603MOL0     H79551  10.738   5.935   2.792 -2.6145  1.9640 -1.7583
  603MOL0     H79552  10.680   5.890   2.546 -0.9207 -1.0293 -0.8361
  603MOL0     H79553  10.784   5.754   2.543 -4.4624 -1.0382  0.4206
  603MOL0     H79554  10.901   6.012   2.663  4.6780 -0.0236 -0.4866
  603MOL0     H79555  10.985   5.880   2.604  1.8174  2.1364  0.2297
  603MOL0     H79556  10.818   6.048   2.424  0.5794 -1.2070 -3.5668
  603MOL0     H79557  10.950   5.950   2.368  2.4733  0.2721  1.1410
  603MOL0     H79558  11.160   6.301   2.517  1.3030  1.1591 -1.0478
  603MOL0     H79559  11.403   6.294   2.549 -1.5327 -0.7292  1.4327
  603MOL0     H79560  11.783   6.069   2.686  0.4741 -0.3709 -0.1562
  603MOL0     H79561  12.033   6.094   2.693  2.2407 -0.5130 -2.3132
  603MOL0     H79562  12.346   6.171   2.430  1.1439 -1.8799 -0.0188
  603MOL0     H79563  12.217   6.140   2.331 -1.0326  0.1493  0.8260
  603MOL0     H79564  12.129   5.963   2.468 -1.3403  0.2303  4.5630
  603MOL0     H79565  12.256   5.972   2.576  0.0667  2.1898  0.1896
  603MOL0     H79566  12.299   5.936   2.273  0.7449 -0.3338 -0.3665
  603MOL0     H79567  12.289   5.797   2.379 -1.1088  0.6742 -1.9081
  603MOL0     H79568  12.503   6.018   2.414 -2.3076  1.6532 -0.3353
  603MOL0     H79569  12.491   5.874   2.508  0.4591 -2.4465 -0.4206
  603MOL0     H79570  12.502   5.843   2.206  1.6552  0.8828 -1.7451
  603MOL0     H79571  12.583   5.741   2.329  1.1515  0.3775  1.9520
  603MOL0     H79572  12.740   5.920   2.372  1.2321  0.4972 -1.1014
  603MOL0     H79573  12.668   6.030   2.253  2.5447  0.0143 -0.8377
  603MOL0     H79574  12.790   5.763   2.192  1.3228 -0.3840 -1.0607
  603MOL0     H79575  12.690   5.859   2.085 -2.5135 -2.4053  1.7053
  603MOL0     H79576  12.967   5.957   2.200  3.2564 -0.2300 -3.0263
  603MOL0     H79577  12.855   6.054   2.100 -0.9269 -1.4762 -2.4489
  603MOL0     H79578  11.996   6.369   2.365  0.0993  1.2635  1.9394
  603MOL0     H79579  11.756   6.353   2.369 -0.0372 -1.9718 -2.5875
  603MOL0     H79580  11.398   5.876   2.431  2.0907 -0.0702  1.1753
  603MOL0     H79581  11.148   5.882   2.449 -0.4863  0.7165 -3.3450
  603MOL0     H79582  11.027   4.829   2.631 -1.3211  0.2046 -0.1526
  603MOL0     H79583  11.262   4.892   2.568 -1.3961 -2.3082 -0.2174
  603MOL0     H79584  11.686   5.051   2.474 -2.9359  0.4947  1.0559
  603MOL0     H79585  11.860   5.174   2.382 -0.1429 -0.0904 -1.4217
  603MOL0     H79586  11.810   5.529   2.110  2.9198  1.4221 -1.3935
  603MOL0     H79587  11.754   5.395   2.006 -0.2874  2.6510 -1.5541
  603MOL0     H79588  12.038   5.518   2.026  0.2264 -0.6141  0.5850
  603MOL0     H79589  12.029   5.344   2.000  1.4542  0.4324 -0.9510
  603MOL0     H79590  11.866   5.548   1.840 -0.4627 -0.2011  2.2013
  603MOL0     H79591  11.898   5.384   1.789 -0.5067  0.1503 -2.3985
  603MOL0     H79592  12.012   5.528   1.655 -1.3360 -2.9172  0.1911
  603MOL0     H79593  12.079   5.623   1.803  0.5317 -0.4772 -0.3673
  603MOL0     H79594  12.336   5.267   1.750 -1.1688 -0.7978 -1.2183
  603MOL0     H79595  11.578   5.402   2.141  1.0953  2.3035 -0.0576
  603MOL0     H79596  11.412   5.275   2.216  1.7163  2.4714 -4.0297
  604MOL0     O79597   5.948   5.554   9.167 -0.0987  0.0437  0.9337
  604MOL0     C79598   5.909   5.502   9.063 -0.7750  0.2004 -1.2418
  604MOL0     O79599   5.874   5.370   9.050 -0.6033 -0.2593 -0.4943
  604MOL0     C79600   5.917   5.291   9.152 -0.4129 -0.6936  0.8221
  604MOL0     C79601   6.020   5.200   9.125  0.2914 -0.0516  0.7804
  604MOL0     C79602   6.040   5.109   9.221 -0.1642 -0.0689  0.2871
  604MOL0     C79603   5.968   5.080   9.334  0.1080  0.2670 -0.5419
  604MOL0     O79604   6.001   4.980   9.427  0.1090 -0.6365  0.1920
  604MOL0     C79605   6.052   4.858   9.386 -0.8418 -0.5592 -0.0681
  604MOL0     C79606   6.205   4.852   9.426 -0.8645  0.7022  1.5564
  604MOL0     C79607   6.260   4.716   9.363  0.1314 -0.1080 -0.6345
  604MOL0     C79608   6.393   4.676   9.424 -0.7669  0.4724 -0.1951
  604MOL0     C79609   6.427   4.546   9.357  0.3681 -0.7690 -0.3113
  604MOL0     C79610   6.564   4.493   9.412 -0.4640  0.0981 -0.2991
  604MOL0     C79611   6.554   4.475   9.570 -0.8567 -0.3601 -0.5498
  604MOL0     C79612   6.440   4.377   9.610  0.2770  0.4003  0.2831
  604MOL0     N79613   6.430   4.250   9.541 -0.0387 -0.7189  0.5166
  604MOL0     C79614   6.539   4.160   9.547  0.1153  0.2760  1.0110
  604MOL0     C79615   6.502   4.049   9.475 -1.0923 -0.3132  0.0851
  604MOL0     C79616   6.572   3.923   9.448 -0.8301  0.5234 -0.3877
  604MOL0     C79617   6.648   3.864   9.566 -0.6785  0.4100 -0.0928
  604MOL0     C79618   6.546   3.789   9.664  0.1719 -0.5104 -0.0480
  604MOL0     C79619   6.604   3.778   9.802 -0.9617  0.2649  0.2837
  604MOL0     O79620   6.551   3.686   9.886 -0.4236  0.0677 -0.3576
  604MOL0     C79621   6.581   3.554   9.867 -0.8480 -0.1690  0.3974
  604MOL0     C79622   6.703   3.501   9.813 -0.1652 -1.2913  0.3669
  604MOL0     C79623   6.748   3.364   9.818  0.2853 -0.2406 -0.7589
  604MOL0     C79624   6.651   3.275   9.870  0.0995 -0.1707 -0.0142
  604MOL0     C79625   6.672   3.129   9.861  0.8405  0.1022  0.3049
  604MOL0     O79626   6.769   3.086   9.774 -0.0521 -0.5268 -0.4913
  604MOL0     C79627   6.801   2.957   9.756 -0.4966 -1.2073  0.0609
  604MOL0     C79628   6.807   2.864   9.860  0.2480  0.1143 -0.1348
  604MOL0     C79629   6.823   2.724   9.823  0.4020 -0.1233 -0.7412
  604MOL0     C79630   6.853   2.677   9.698 -0.6381 -0.3872 -0.1042
  604MOL0     O79631   6.865   2.541   9.689 -0.4741  0.1002  0.6107
  604MOL0     C79632   6.834   2.485   9.559 -0.1896 -0.6570 -0.6234
  604MOL0     C79633   6.683   2.492   9.517  0.2470  0.1333  0.3660
  604MOL0     C79634   6.586   2.421   9.615  0.4009 -0.8325 -0.2438
  604MOL0     C79635   6.639   2.287   9.670  0.4765  1.0320  0.1508
  604MOL0     C79636   6.525   2.203   9.739 -0.9910 -0.7374  1.0158
  604MOL0     C79637   6.580   2.121   9.859 -0.1576 -0.1007 -0.0164
  604MOL0     C79638   6.490   2.032   9.944 -0.1010 -0.5081  0.6269
  604MOL0     C79639   6.552   1.968  10.064  0.2901  0.7505 -0.0676
  604MOL0    Cl79640   6.604   2.096  10.186 -0.7209  0.1743 -0.3202
  604MOL0     C79641   6.864   2.777   9.598  0.8466 -0.0698  0.7990
  604MOL0     C79642   6.842   2.919   9.631 -0.4655  0.0240  0.5440
  604MOL0     O79643   6.614   3.053   9.939 -0.1024  0.2104 -0.1566
  604MOL0     C79644   6.520   3.320   9.924  0.2270  0.5047 -0.4004
  604MOL0     C79645   6.492   3.452   9.915  0.5571 -0.1567 -0.4131
  604MOL0     N79646   6.374   4.078   9.418 -0.5949  0.9282 -0.5311
  604MOL0     N79647   6.324   4.190   9.466  0.0925  0.8348  0.4932
  604MOL0     C79648   5.860   5.167   9.359 -0.1787  0.4295  0.4773
  604MOL0     C79649   5.833   5.270   9.265  0.4995  0.4690 -0.1844
  604MOL0     C79650   5.890   5.590   8.943 -0.6041 -0.7649 -0.5057
  604MOL0     C79651   5.787   5.553   8.850 -0.3050  0.7036  0.0489
  604MOL0     C79652   5.756   5.632   8.742  0.7501  0.4194 -0.7770
  604MOL0     C79653   5.837   5.740   8.710 -0.1995 -0.4399 -0.0797
  604MOL0     O79654   5.810   5.829   8.604  0.8356 -0.0639  0.6009
  604MOL0     C79655   5.740   5.783   8.486  0.6520 -0.1440  0.3711
  604MOL0     C79656   5.799   5.843   8.355  0.3580 -0.3806  0.5982
  604MOL0     C79657   5.809   5.987   8.365 -0.6332 -0.3870  1.3977
  604MOL0     C79658   5.719   6.055   8.262 -0.4150  1.2716 -0.0220
  604MOL0     C79659   5.708   6.190   8.282  0.1123 -1.1443 -0.2779
  604MOL0     C79660   5.672   6.303   8.266 -1.0782 -0.0001 -0.2080
  604MOL0     C79661   5.934   5.773   8.799 -0.7110 -0.1364 -0.1428
  604MOL0     C79662   5.969   5.701   8.913 -0.5201  0.8138 -1.4133
  604MOL0     H79663   6.105   5.214   9.059  1.3585 -1.6864  1.7300
  604MOL0     H79664   6.130   5.054   9.196 -0.6108 -1.0352  0.7776
  604MOL0     H79665   6.044   4.827   9.281  2.6994 -3.5162  0.3424
  604MOL0     H79666   6.007   4.783   9.451 -0.1037  0.7587  2.0526
  604MOL0     H79667   6.224   4.859   9.533  1.3072 -0.7401  1.3361
  604MOL0     H79668   6.241   4.939   9.370 -4.2097  1.9002  1.0711
  604MOL0     H79669   6.271   4.743   9.257  0.3974 -0.3074 -0.6573
  604MOL0     H79670   6.184   4.637   9.369 -2.1949  2.0011 -0.6182
  604MOL0     H79671   6.477   4.745   9.415  2.8831 -3.3673  0.8794
  604MOL0     H79672   6.368   4.656   9.529 -2.8311 -0.2643 -0.7797
  604MOL0     H79673   6.435   4.573   9.251 -2.1472  1.6305  0.0001
  604MOL0     H79674   6.341   4.483   9.378 -0.2801  0.1583 -0.1585
  604MOL0     H79675   6.637   4.570   9.387  0.7325 -0.9560 -0.1803
  604MOL0     H79676   6.584   4.397   9.364  0.1051 -0.6160  1.2622
  604MOL0     H79677   6.640   4.422   9.614  0.4736  0.9665 -1.4580
  604MOL0     H79678   6.530   4.572   9.615 -0.4874 -0.1967 -0.6985
  604MOL0     H79679   6.346   4.430   9.591 -0.6729 -0.9227  1.0963
  604MOL0     H79680   6.448   4.368   9.719  1.8726  1.4500  0.2926
  604MOL0     H79681   6.633   4.185   9.596  0.1107 -2.1607  2.4469
  604MOL0     H79682   6.644   3.921   9.366  0.7263 -3.9214  0.8059
  604MOL0     H79683   6.496   3.853   9.414  0.7944  0.3690 -4.1912
  604MOL0     H79684   6.708   3.930   9.630  1.2961 -2.4746  1.2719
  604MOL0     H79685   6.721   3.802   9.513 -0.5037  0.5128  0.0260
  604MOL0     H79686   6.455   3.849   9.661  0.2352 -0.3104  1.4287
  604MOL0     H79687   6.519   3.692   9.621 -3.0193 -0.7417  2.1980
  604MOL0     H79688   6.591   3.875   9.850 -1.0766  1.1501 -1.4426
  604MOL0     H79689   6.711   3.760   9.793 -1.7230 -5.4834 -1.0312
  604MOL0     H79690   6.777   3.563   9.763 -0.4261 -0.7767  0.6206
  604MOL0     H79691   6.839   3.329   9.770  2.0775  2.5080  0.4181
  604MOL0     H79692   6.788   2.894   9.963 -1.8747 -2.5365  0.3669
  604MOL0     H79693   6.807   2.644   9.895 -0.2123 -1.9208 -2.7459
  604MOL0     H79694   6.870   2.382   9.552  0.6516 -0.3582 -0.7945
  604MOL0     H79695   6.888   2.533   9.476  1.0017 -0.5369  0.1988
  604MOL0     H79696   6.672   2.455   9.415  2.5901 -2.1607  0.8611
  604MOL0     H79697   6.653   2.596   9.498 -1.5511 -0.8154 -2.7213
  604MOL0     H79698   6.492   2.400   9.563  1.3489 -2.0001 -1.5510
  604MOL0     H79699   6.571   2.490   9.699  2.3022  0.0611 -0.6013
  604MOL0     H79700   6.678   2.240   9.579 -0.1838  0.2939  0.2449
  604MOL0     H79701   6.715   2.320   9.743  0.3726  3.4270 -0.7472
  604MOL0     H79702   6.470   2.146   9.664 -1.6138 -1.8402  2.2705
  604MOL0     H79703   6.455   2.278   9.777  0.3720  0.6548  0.9125
  604MOL0     H79704   6.618   2.198   9.927 -2.4066  1.0621  0.0077
  604MOL0     H79705   6.671   2.072   9.823  0.6396  1.5395 -0.3338
  604MOL0     H79706   6.407   2.092   9.983  0.9213  0.6398  1.1341
  604MOL0     H79707   6.463   1.951   9.876 -1.8376  1.9989 -1.9147
  604MOL0     H79708   6.633   1.897  10.042  0.0492  0.7776 -1.0519
  604MOL0     H79709   6.468   1.910  10.103 -1.3770  2.0818 -1.5497
  604MOL0     H79710   6.862   2.752   9.493 -0.1621 -5.5436  1.7644
  604MOL0     H79711   6.856   2.995   9.555  0.1872 -0.3228  0.3033
  604MOL0     H79712   6.445   3.256   9.970  0.0558  0.7047 -0.3999
  604MOL0     H79713   6.392   3.481   9.945  0.1067  1.1935 -2.9571
  604MOL0     H79714   5.784   5.143   9.434 -2.4641  1.5046 -1.3724
  604MOL0     H79715   5.750   5.340   9.274  0.1717 -0.1421  2.0619
  604MOL0     H79716   5.743   5.455   8.862  0.6758  0.4341  1.8916
  604MOL0     H79717   5.668   5.605   8.685  1.5983 -3.3157 -0.5795
  604MOL0     H79718   5.638   5.821   8.503  0.3054 -0.7910 -0.1850
  604MOL0     H79719   5.730   5.674   8.480 -1.9500  0.0023  0.8705
  604MOL0     H79720   5.900   5.804   8.340  0.2819 -0.8811  1.3450
  604MOL0     H79721   5.749   5.807   8.264  3.4019 -2.0813 -0.5828
  604MOL0     H79722   5.912   6.019   8.349 -0.6736 -0.8330  0.1756
  604MOL0     H79723   5.782   6.024   8.465 -0.5371  0.8499  0.9872
  604MOL0     H79724   5.758   6.041   8.161 -1.5670 -1.3595 -0.1759
  604MOL0     H79725   5.620   6.010   8.277  0.3703 -0.7600 -0.7273
  604MOL0     H79726   5.620   6.392   8.238 -2.1562 -0.9187 -1.2088
  604MOL0     H79727   6.007   5.847   8.766  3.1012 -4.2261 -2.0470
  604MOL0     H79728   6.063   5.717   8.964 -0.1739  0.5346 -1.9479
  605MOL0     O79729  11.424   3.047   1.114  0.5373  0.3576 -0.3519
  605MOL0     C79730  11.321   2.983   1.094  0.0684  0.3766  1.0994
  605MOL0     O79731  11.319   2.849   1.080 -0.7353 -0.0847  0.6615
  605MOL0     C79732  11.407   2.774   1.142  0.0211 -0.0393  0.3291
  605MOL0     C79733  11.378   2.739   1.268  0.5382  0.3992 -0.3129
  605MOL0     C79734  11.476   2.661   1.333  0.4529 -0.6139 -0.0378
  605MOL0     C79735  11.597   2.623   1.275 -0.0309  0.2721  0.9187
  605MOL0     O79736  11.690   2.547   1.337  0.1928 -1.0353 -0.5602
  605MOL0     C79737  11.673   2.509   1.475  0.8392  0.1382 -0.0417
  605MOL0     C79738  11.808   2.451   1.532  0.1377 -0.7238 -0.5113
  605MOL0     C79739  11.935   2.509   1.451  0.1985  0.6489 -0.0268
  605MOL0     C79740  12.068   2.458   1.515  1.0702  0.2076  0.8374
  605MOL0     C79741  12.192   2.513   1.431 -1.2211  0.2437  0.1573
  605MOL0     C79742  12.312   2.495   1.527 -0.1585 -0.6902 -0.5495
  605MOL0     C79743  12.452   2.528   1.464 -0.4950 -0.7269  0.3483
  605MOL0     C79744  12.468   2.678   1.410  0.2303 -0.0025 -0.1357
  605MOL0     N79745  12.426   2.784   1.511 -0.1231  1.2213  0.0492
  605MOL0     C79746  12.351   2.894   1.478  0.4084  0.1265 -0.1460
  605MOL0     C79747  12.350   2.975   1.589  1.1004 -0.6620  0.0951
  605MOL0     C79748  12.302   3.113   1.585  0.2397 -1.0313 -0.8416
  605MOL0     C79749  12.412   3.221   1.565 -0.4138 -1.1041 -0.3216
  605MOL0     C79750  12.486   3.212   1.432 -0.0362 -0.0868 -0.1838
  605MOL0     C79751  12.601   3.309   1.408  0.2493  0.1390  0.6061
  605MOL0     O79752  12.566   3.449   1.398  0.4309 -0.9905  0.2919
  605MOL0     C79753  12.494   3.492   1.284  0.6693  0.3892 -0.2599
  605MOL0     C79754  12.559   3.510   1.166 -0.2927  0.4243 -0.5374
  605MOL0     C79755  12.500   3.542   1.047  0.4366 -0.9212 -0.1622
  605MOL0     C79756  12.365   3.591   1.052 -1.6603  0.2502 -1.2809
  605MOL0     C79757  12.300   3.637   0.922  0.7046 -1.3073  0.2920
  605MOL0     O79758  12.390   3.679   0.823  0.2252 -0.4108  0.3393
  605MOL0     C79759  12.341   3.723   0.697 -0.0545  0.2345 -0.4040
  605MOL0     C79760  12.269   3.839   0.696 -1.2726  0.3289  1.2224
  605MOL0     C79761  12.235   3.913   0.579 -0.2989  0.0565 -0.6392
  605MOL0     C79762  12.289   3.870   0.457 -0.1916  0.6074  0.3564
  605MOL0     O79763  12.290   3.946   0.344 -0.6713 -0.1022  0.0994
  605MOL0     C79764  12.223   4.072   0.346 -0.0568  1.2553 -0.1224
  605MOL0     C79765  12.216   4.127   0.201  0.9534 -0.0333 -0.5426
  605MOL0     C79766  12.117   4.239   0.204  0.2907 -0.2006  1.0046
  605MOL0     C79767  12.102   4.320   0.083  0.7511  0.2660  1.0547
  605MOL0     C79768  11.983   4.419   0.109 -0.1514  0.2632  0.0749
  605MOL0     C79769  11.969   4.532   0.007 -0.4980 -0.3897 -0.2873
  605MOL0     C79770  11.841   4.609   0.047  0.6702 -0.7777  0.0430
  605MOL0     C79771  11.797   4.737  -0.043 -0.1571  1.3738 -0.0918
  605MOL0    Cl79772  11.790   4.886   0.059  0.1975  0.2067 -0.2075
  605MOL0     C79773  12.356   3.749   0.452  0.3060 -0.1733  0.1213
  605MOL0     C79774  12.392   3.683   0.569  1.1179  0.9802  0.4661
  605MOL0     O79775  12.180   3.638   0.912 -0.1201 -0.1510 -0.4053
  605MOL0     C79776  12.298   3.569   1.177 -0.2204 -0.2227  0.5597
  605MOL0     C79777  12.356   3.521   1.295 -0.2773  0.4199  0.1263
  605MOL0     N79778  12.434   2.917   1.687  0.6198 -0.5396 -0.1025
  605MOL0     N79779  12.482   2.814   1.636 -1.2411  0.6388 -0.5096
  605MOL0     C79780  11.618   2.658   1.140  0.0346  0.7064 -0.6966
  605MOL0     C79781  11.527   2.734   1.074  0.5130 -0.0461  0.0597
  605MOL0     C79782  11.188   3.053   1.072 -0.3423  0.1816  0.4719
  605MOL0     C79783  11.177   3.190   1.059 -0.5194 -0.5010 -0.0635
  605MOL0     C79784  11.048   3.244   1.043  0.9575  0.6746  0.2101
  605MOL0     C79785  10.928   3.171   1.054  0.0327  0.3460  0.6806
  605MOL0     O79786  10.811   3.252   1.046 -0.6756  0.7400 -0.5668
  605MOL0     C79787  10.691   3.197   1.084  1.0095 -0.1410 -0.8711
  605MOL0     C79788  10.645   3.288   1.200  0.6698 -1.2881  0.3073
  605MOL0     C79789  10.497   3.284   1.242  0.2372 -0.0598 -0.1161
  605MOL0     C79790  10.481   3.306   1.389  0.9561 -0.4943  0.1393
  605MOL0     C79791  10.338   3.309   1.425 -0.6642 -0.9376  0.2756
  605MOL0     C79792  10.228   3.351   1.467  0.4370 -0.1424  0.0663
  605MOL0     C79793  10.942   3.029   1.058  0.0467  0.2425 -0.3067
  605MOL0     C79794  11.066   2.970   1.068 -0.0205  0.9948 -0.2100
  605MOL0     H79795  11.283   2.776   1.307  0.7462  0.5806  0.0253
  605MOL0     H79796  11.445   2.625   1.431 -2.5475 -0.8721 -1.0004
  605MOL0     H79797  11.599   2.430   1.490  1.3622 -0.5089 -0.8056
  605MOL0     H79798  11.639   2.600   1.526 -0.1826  1.9547 -3.6681
  605MOL0     H79799  11.813   2.342   1.524 -1.0542 -0.8252 -0.1379
  605MOL0     H79800  11.805   2.483   1.637 -1.4720 -1.4528 -0.3086
  605MOL0     H79801  11.932   2.618   1.447 -1.4062  0.6136 -0.6324
  605MOL0     H79802  11.932   2.474   1.347 -1.8486 -0.4809  0.3652
  605MOL0     H79803  12.060   2.489   1.620  2.3828 -1.0809  1.3703
  605MOL0     H79804  12.076   2.348   1.513 -2.6552 -0.1803  0.6377
  605MOL0     H79805  12.177   2.618   1.405 -0.3563 -0.2644 -2.8287
  605MOL0     H79806  12.218   2.461   1.338  3.1379 -1.3405  2.0115
  605MOL0     H79807  12.319   2.391   1.563  1.9876 -0.3431  0.1914
  605MOL0     H79808  12.309   2.564   1.611  0.4594 -2.1821  0.7666
  605MOL0     H79809  12.528   2.506   1.539  0.3252 -0.9659 -0.5282
  605MOL0     H79810  12.472   2.463   1.378  0.1125 -1.2355  0.8653
  605MOL0     H79811  12.393   2.674   1.331  1.7364 -0.1587 -1.6273
  605MOL0     H79812  12.561   2.701   1.357 -0.7628  1.7628 -1.1920
  605MOL0     H79813  12.303   2.915   1.383 -4.7723 -1.2674  1.7995
  605MOL0     H79814  12.258   3.128   1.684 -0.4564 -3.8394 -0.6354
  605MOL0     H79815  12.223   3.125   1.511 -1.7008  1.3017  1.4367
  605MOL0     H79816  12.484   3.240   1.645  0.3299  0.4254 -1.3000
  605MOL0     H79817  12.352   3.310   1.549  2.5845  0.6340 -3.1967
  605MOL0     H79818  12.533   3.115   1.417 -2.4961 -1.5416  0.8410
  605MOL0     H79819  12.417   3.224   1.348 -1.1262 -1.3577  0.5003
  605MOL0     H79820  12.655   3.284   1.316  0.4115 -0.2260  0.7950
  605MOL0     H79821  12.674   3.285   1.487  1.6743  2.4131  0.0603
  605MOL0     H79822  12.661   3.471   1.162 -0.2005  0.7555 -3.3256
  605MOL0     H79823  12.564   3.547   0.959  1.3757  1.3932  0.5942
  605MOL0     H79824  12.249   3.886   0.792 -3.2020 -0.2441  1.1400
  605MOL0     H79825  12.188   4.009   0.599 -1.0205 -0.4833  0.3723
  605MOL0     H79826  12.276   4.145   0.407  1.4527  1.0340 -1.1030
  605MOL0     H79827  12.120   4.051   0.375 -0.2604  1.7428 -0.4753
  605MOL0     H79828  12.175   4.050   0.136  2.8027 -0.3086 -1.4524
  605MOL0     H79829  12.308   4.176   0.168  2.2086 -1.3238  0.8532
  605MOL0     H79830  12.132   4.309   0.287  0.8836  1.0498 -0.1062
  605MOL0     H79831  12.022   4.188   0.221 -0.0308  0.5431  1.5133
  605MOL0     H79832  12.194   4.366   0.047  1.3509 -1.0669  0.8157
  605MOL0     H79833  12.068   4.255   0.001 -0.4486  0.2460  1.5497
  605MOL0     H79834  11.994   4.458   0.211 -3.1536 -3.0106  1.8663
  605MOL0     H79835  11.888   4.365   0.111 -0.5157  0.8573  2.4012
  605MOL0     H79836  11.980   4.488  -0.093  1.9862  1.1591 -0.7794
  605MOL0     H79837  12.049   4.604   0.025 -0.5709  0.1222 -1.8421
  605MOL0     H79838  11.760   4.536   0.054 -0.2455  0.3274  1.5589
  605MOL0     H79839  11.849   4.647   0.149  0.7314 -2.2947  0.6301
  605MOL0     H79840  11.703   4.711  -0.093  1.8406 -2.6581 -2.3277
  605MOL0     H79841  11.854   4.742  -0.136  0.9338  2.0400  0.5916
  605MOL0     H79842  12.364   3.698   0.357  1.1498 -1.1480  0.6984
  605MOL0     H79843  12.428   3.580   0.570  2.0098  1.2922  1.8434
  605MOL0     H79844  12.192   3.588   1.187 -0.1572 -0.8660  3.2542
  605MOL0     H79845  12.297   3.505   1.385  0.2157  0.1389  0.4091
  605MOL0     H79846  11.707   2.615   1.094 -0.0305 -0.0270 -0.1513
  605MOL0     H79847  11.538   2.778   0.976  0.7863  2.4453  1.1263
  605MOL0     H79848  11.265   3.254   1.060 -0.3672 -0.7233  0.6965
  605MOL0     H79849  11.042   3.352   1.039  0.0882  0.5982 -1.5846
  605MOL0     H79850  10.702   3.098   1.131  1.5633  0.0790 -0.5342
  605MOL0     H79851  10.626   3.202   0.996  0.4478  3.2594 -0.3864
  605MOL0     H79852  10.707   3.261   1.286  0.9673  0.5245  0.6908
  605MOL0     H79853  10.654   3.394   1.175  0.6739 -1.4602 -0.4256
  605MOL0     H79854  10.450   3.190   1.211  2.8716 -0.8775 -1.9770
  605MOL0     H79855  10.448   3.356   1.176  1.8274 -0.1727 -1.4598
  605MOL0     H79856  10.533   3.226   1.443  2.5899 -0.4847 -1.3257
  605MOL0     H79857  10.534   3.401   1.402  1.8282 -0.9978  0.4039
  605MOL0     H79858  10.135   3.388   1.505  0.1571  1.5566 -2.0690
  605MOL0     H79859  10.861   2.957   1.054  0.3017 -0.1773 -6.2439
  605MOL0     H79860  11.063   2.864   1.093  0.9546  1.1712  0.7375
  606MOL0     O79861   7.063   2.236  10.715 -0.0491 -0.7290  0.0576
  606MOL0     C79862   7.096   2.138  10.653  0.1941 -0.2175  0.1752
  606MOL0     O79863   7.056   2.005  10.683  0.7251  0.0153  0.2135
  606MOL0     C79864   6.988   1.973  10.801  0.5448 -0.0736  1.0106
  606MOL0     C79865   6.884   2.047  10.849 -0.1944  0.4335  1.1895
  606MOL0     C79866   6.828   2.020  10.972  0.7221  0.1202  0.5010
  606MOL0     C79867   6.875   1.927  11.064  0.7040  0.4610 -0.3118
  606MOL0     O79868   6.816   1.887  11.184 -0.1951 -0.6911 -0.6084
  606MOL0     C79869   6.871   1.792  11.266 -0.1472 -0.3163 -0.9820
  606MOL0     C79870   6.783   1.756  11.385 -0.4309  0.2731  0.0608
  606MOL0     C79871   6.651   1.687  11.351 -0.5853  0.7040  0.3209
  606MOL0     C79872   6.660   1.545  11.304 -0.0882  1.3017 -0.1496
  606MOL0     C79873   6.525   1.479  11.271  0.5694 -0.3354 -0.1157
  606MOL0     C79874   6.468   1.416  11.401  1.5207  0.3050  0.4910
  606MOL0     C79875   6.361   1.304  11.364  0.4450 -1.2497 -0.2877
  606MOL0     C79876   6.274   1.266  11.484  0.3064  1.1424  0.3815
  606MOL0     N79877   6.334   1.165  11.572 -0.1386 -0.6007 -0.6289
  606MOL0     C79878   6.281   1.039  11.576  0.6562 -0.5177  0.3537
  606MOL0     C79879   6.310   0.989  11.699  0.4511  0.0628 -0.4149
  606MOL0     C79880   6.267   0.851  11.747 -0.4035  0.1388  0.3012
  606MOL0     C79881   6.207   0.847  11.886 -0.1089  0.1774  0.3890
  606MOL0     C79882   6.222   0.724  11.969 -0.3936  0.8793  0.3625
  606MOL0     C79883   6.375   0.681  11.985 -0.4142  0.1467 -0.2385
  606MOL0     O79884   6.403   0.579  12.088  0.2887 -0.6584  0.3890
  606MOL0     C79885   6.519   0.514  12.079 -0.5857 -0.6495  0.4989
  606MOL0     C79886   6.620   0.568  12.008  0.0289  0.2945  0.3774
  606MOL0     C79887   6.740   0.504  12.003 -0.0602 -1.0506 -0.6633
  606MOL0     C79888   6.758   0.377  12.058 -1.0013 -0.5168 -0.5350
  606MOL0     C79889   6.885   0.299  12.051  0.0483 -0.0816  0.2361
  606MOL0     O79890   7.000   0.364  12.008 -1.0659  1.4419  0.1597
  606MOL0     C79891   7.104   0.301  11.957 -0.8886  0.0468  0.1811
  606MOL0     C79892   7.114   0.167  11.916 -0.4833  0.4807 -0.1845
  606MOL0     C79893   7.236   0.103  11.877 -0.7344 -0.0888 -0.6230
  606MOL0     C79894   7.356   0.173  11.898 -1.1568  0.3237  0.2336
  606MOL0     O79895   7.485   0.118  11.886  0.6070  0.1364  0.4056
  606MOL0     C79896   7.502   0.020  11.780  0.0305  0.3603 -0.9549
  606MOL0     C79897   7.646  -0.025  11.779 -0.4643  0.3337 -0.0696
  606MOL0     C79898   7.732   0.067  11.701  0.0095 -0.4122  0.2238
  606MOL0     C79899   7.876   0.043  11.717  0.4067 -0.5882  0.0943
  606MOL0     C79900   7.948   0.161  11.652  0.1188  0.4494  0.2293
  606MOL0     C79901   8.088   0.179  11.723  0.5044  0.1813 -0.3322
  606MOL0     C79902   8.204   0.237  11.644 -0.0273  0.5796  0.8464
  606MOL0     C79903   8.338   0.254  11.716  0.3787 -0.6919  1.0713
  606MOL0    Cl79904   8.418   0.099  11.736 -0.3615  0.3660 -0.1442
  606MOL0     C79905   7.349   0.307  11.944 -0.5097 -1.3086  0.4611
  606MOL0     C79906   7.219   0.376  11.960 -0.1767  0.3711  1.0227
  606MOL0     O79907   6.869   0.188  12.082  0.1049  0.2454  0.7344
  606MOL0     C79908   6.655   0.319  12.127  0.2523 -0.9600 -0.2465
  606MOL0     C79909   6.536   0.392  12.143  0.1588 -0.3816  0.0618
  606MOL0     N79910   6.388   1.092  11.754 -0.4952 -0.0067 -1.6048
  606MOL0     N79911   6.381   1.204  11.694 -0.5047  0.1815 -0.6652
  606MOL0     C79912   7.000   1.864  11.020 -0.4982  0.9612 -0.9261
  606MOL0     C79913   7.050   1.883  10.890  1.0186 -0.5881 -0.0250
  606MOL0     C79914   7.184   2.163  10.529  0.6456  0.0053 -0.9859
  606MOL0     C79915   7.229   2.051  10.456  0.1353 -1.0311  0.1102
  606MOL0     C79916   7.289   2.065  10.331  0.3573  0.0918  1.0915
  606MOL0     C79917   7.321   2.201  10.290  0.6624 -0.2502 -0.2901
  606MOL0     O79918   7.392   2.219  10.177 -0.2429  0.5112  0.7653
  606MOL0     C79919   7.328   2.199  10.046 -0.1195  0.5409 -0.0426
  606MOL0     C79920   7.372   2.086   9.954  0.0911 -0.1184 -0.0011
  606MOL0     C79921   7.519   2.104   9.910 -0.1589 -0.0233 -0.3427
  606MOL0     C79922   7.569   2.227   9.850  0.4236  0.2593  1.0405
  606MOL0     C79923   7.709   2.207   9.803  0.6797  0.4809  0.3656
  606MOL0     C79924   7.826   2.188   9.771  0.3728 -0.6958 -0.3414
  606MOL0     C79925   7.275   2.304  10.362  1.0038 -1.0765 -0.7567
  606MOL0     C79926   7.222   2.287  10.489  0.3512  0.2772 -0.1876
  606MOL0     H79927   6.854   2.127  10.782  0.5697  0.6988  1.1598
  606MOL0     H79928   6.743   2.075  11.010  0.2228  1.5190 -2.3615
  606MOL0     H79929   6.961   1.834  11.313 -2.2499  2.8555  0.5471
  606MOL0     H79930   6.899   1.701  11.212  4.1164  1.8674 -2.9191
  606MOL0     H79931   6.766   1.837  11.456 -1.2878 -0.7770  1.0838
  606MOL0     H79932   6.843   1.684  11.442  1.3525  1.0161 -0.7786
  606MOL0     H79933   6.596   1.733  11.268  1.6730  0.3772 -1.4720
  606MOL0     H79934   6.600   1.688  11.448 -0.8758 -2.0758  0.2801
  606MOL0     H79935   6.722   1.539  11.214  2.4002 -2.5423  1.5642
  606MOL0     H79936   6.702   1.496  11.392 -2.6610  0.5549  0.7527
  606MOL0     H79937   6.536   1.401  11.196  1.3725 -0.1005 -0.2497
  606MOL0     H79938   6.458   1.553  11.225 -2.1019 -3.4817 -1.7155
  606MOL0     H79939   6.414   1.488  11.464 -0.6818 -0.5979 -0.2573
  606MOL0     H79940   6.545   1.374  11.467  1.3264  1.6174  1.6079
  606MOL0     H79941   6.307   1.357  11.285  0.2801 -0.1329  0.5492
  606MOL0     H79942   6.406   1.216  11.317  0.7894 -0.0391 -2.3494
  606MOL0     H79943   6.181   1.225  11.442  0.5510 -0.2409  1.1341
  606MOL0     H79944   6.237   1.354  11.536 -3.6199  1.4298 -2.4103
  606MOL0     H79945   6.215   0.990  11.505 -0.4249  3.5163 -1.6886
  606MOL0     H79946   6.365   0.803  11.747  0.3327  1.5703 -0.5356
  606MOL0     H79947   6.203   0.805  11.671  2.0834 -1.3423 -0.9949
  606MOL0     H79948   6.099   0.851  11.868 -0.5412 -1.4043  2.3150
  606MOL0     H79949   6.234   0.932  11.948 -0.0743  0.0394  0.5639
  606MOL0     H79950   6.182   0.738  12.070 -0.4901  0.8510  0.3282
  606MOL0     H79951   6.173   0.639  11.921  3.4007 -0.8772 -0.7737
  606MOL0     H79952   6.434   0.769  12.010  0.5512 -0.7034  0.5994
  606MOL0     H79953   6.411   0.627  11.897 -0.3494  0.1705 -0.2264
  606MOL0     H79954   6.616   0.671  11.973  2.4303 -0.2654 -1.8410
  606MOL0     H79955   6.832   0.542  11.959 -0.5253  0.6835 -0.1985
  606MOL0     H79956   7.025   0.107  11.897  0.4515  0.0214 -3.9313
  606MOL0     H79957   7.226   0.005  11.833 -0.4170 -0.5448  0.3000
  606MOL0     H79958   7.474   0.042  11.677 -1.0266 -1.2660 -1.0445
  606MOL0     H79959   7.432  -0.058  11.810 -0.4313 -0.5057 -3.9962
  606MOL0     H79960   7.650  -0.122  11.730 -0.7921  0.2059  0.1528
  606MOL0     H79961   7.677  -0.027  11.884  1.3183  0.9006 -0.5479
  606MOL0     H79962   7.718   0.171  11.734  1.1589  0.0956 -0.7937
  606MOL0     H79963   7.715   0.062  11.593 -1.4850  0.4906  0.3923
  606MOL0     H79964   7.901   0.048  11.823  2.9442  0.3496 -0.4843
  606MOL0     H79965   7.912  -0.052  11.676 -0.4946 -0.9769  0.1533
  606MOL0     H79966   7.892   0.254  11.656 -0.5686  0.0198  0.7358
  606MOL0     H79967   7.958   0.132  11.547  0.2381  3.1565 -0.5814
  606MOL0     H79968   8.128   0.080  11.747 -0.3501 -0.7693 -2.5909
  606MOL0     H79969   8.066   0.235  11.814 -3.3865 -1.2341 -0.2106
  606MOL0     H79970   8.217   0.169  11.560  0.2957 -2.2317  3.0429
  606MOL0     H79971   8.181   0.338  11.608 -1.6225  0.7250  2.1381
  606MOL0     H79972   8.317   0.305  11.811 -1.4557 -0.4019  0.5553
  606MOL0     H79973   8.409   0.324  11.670 -2.7502  1.5907 -0.6685
  606MOL0     H79974   7.439   0.358  11.976  0.0086 -1.2795 -0.9742
  606MOL0     H79975   7.207   0.482  11.979 -0.8148  0.3202  0.9094
  606MOL0     H79976   6.655   0.217  12.162  1.9309 -0.2711  1.9464
  606MOL0     H79977   6.456   0.353  12.205  2.2482 -2.7521  1.4939
  606MOL0     H79978   7.057   1.793  11.079 -0.7222  1.4347 -0.1175
  606MOL0     H79979   7.141   1.828  10.866  2.5546  1.7442  0.0076
  606MOL0     H79980   7.208   1.950  10.489 -0.6862 -0.8237  0.2400
  606MOL0     H79981   7.321   1.971  10.288 -1.1313  0.3806 -0.7699
  606MOL0     H79982   7.324   2.293   9.991 -3.3695  1.9484  2.2576
  606MOL0     H79983   7.223   2.178  10.068  0.4597  1.0861  3.8588
  606MOL0     H79984   7.354   1.988  10.001 -2.9954 -0.7925 -2.2896
  606MOL0     H79985   7.321   2.101   9.859  0.9292 -3.0629 -1.0359
  606MOL0     H79986   7.550   2.021   9.846  0.7555 -1.3915  1.7476
  606MOL0     H79987   7.578   2.100  10.003  0.0145 -0.8506 -0.4752
  606MOL0     H79988   7.509   2.246   9.760  0.1418  0.2089  1.2138
  606MOL0     H79989   7.555   2.310   9.919 -0.3087  1.9104 -0.9912
  606MOL0     H79990   7.929   2.178   9.745 -0.2225 -0.9291 -2.8861
  606MOL0     H79991   7.301   2.408  10.342  1.1484 -0.9285  0.1402
  606MOL0     H79992   7.189   2.377  10.541  0.3393  1.5195 -2.2390
  607MOL0     O79993  10.971  10.798   0.309 -0.6796  0.5980 -0.0912
  607MOL0     C79994  10.861  10.790   0.368  1.2758 -0.4499  0.2938
  607MOL0     O79995  10.786  10.901   0.415 -0.4434 -0.1651 -0.6845
  607MOL0     C79996  10.800  11.012   0.331  0.1032 -0.4958  0.5675
  607MOL0     C79997  10.904  11.099   0.346 -1.3114  0.4052  0.7775
  607MOL0     C79998  10.930  11.188   0.238 -0.4140 -0.7282 -0.4562
  607MOL0     C79999  10.832  11.206   0.142  0.1752  0.6434 -0.5034
  607MOL0     O80000  10.845  11.304   0.047  0.6751  0.4119  0.7958
  607MOL0     C80001  10.758  11.310  -0.073 -0.1329  0.0532  0.4267
  607MOL0     C80002  10.776  11.437  -0.155 -0.4962  0.6002 -0.2490
  607MOL0     C80003  10.899  11.438  -0.247  0.3975 -0.4040 -1.2055
  607MOL0     C80004  10.900  11.565  -0.326  0.0052  0.2874 -0.0300
  607MOL0     C80005  11.034  11.599  -0.387  0.4545 -0.1855 -0.8072
  607MOL0     C80006  11.073  11.513  -0.516  0.0220 -0.7619  0.7209
  607MOL0     C80007  10.983  11.547  -0.632  0.0453  1.1451 -0.1251
  607MOL0     C80008  11.022  11.672  -0.707 -0.2763  0.0209 -0.2703
  607MOL0     N80009  10.974  11.793  -0.642 -0.2834 -0.2732 -0.8770
  607MOL0     C80010  11.059  11.898  -0.607  0.2577  0.0747 -0.0495
  607MOL0     C80011  10.973  11.992  -0.575  0.0630  0.0851  0.4030
  607MOL0     C80012  10.993  12.142  -0.548  0.5912  0.9510  0.3998
  607MOL0     C80013  10.866  12.214  -0.520 -0.8028 -0.9158 -0.4211
  607MOL0     C80014  10.778  12.257  -0.640  0.0726  0.0656  0.1601
  607MOL0     C80015  10.688  12.376  -0.612 -0.2120  0.8209 -0.0022
  607MOL0     O80016  10.769  12.489  -0.603 -0.2183  0.8120  0.0996
  607MOL0     C80017  10.728  12.582  -0.512  0.8332  0.5091 -0.1079
  607MOL0     C80018  10.620  12.660  -0.552 -0.0095 -0.0574  0.1382
  607MOL0     C80019  10.573  12.767  -0.480 -0.0519  0.2555  0.1266
  607MOL0     C80020  10.645  12.784  -0.354  0.8763  0.1620  0.7406
  607MOL0     C80021  10.591  12.872  -0.257 -0.1857  0.2706  1.1665
  607MOL0     O80022  10.499  12.965  -0.307  0.0844 -0.6477 -0.2674
  607MOL0     C80023  10.458  13.057  -0.211 -0.5219 -0.3160 -0.6236
  607MOL0     C80024  10.370  13.022  -0.111 -0.7688  1.0036 -0.3725
  607MOL0     C80025  10.331  13.110  -0.008  0.3458  0.3179 -0.2445
  607MOL0     C80026  10.388  13.239  -0.009  0.6061  0.7679  0.6677
  607MOL0     O80027  10.358  13.339   0.080 -0.3478  0.0592 -1.0254
  607MOL0     C80028  10.275  13.295   0.199  0.5039 -0.5891 -0.1175
  607MOL0     C80029  10.315  13.390   0.310 -0.2512  1.1124  0.2286
  607MOL0     C80030  10.236  13.516   0.289  0.4718  0.1729 -0.1899
  607MOL0     C80031  10.282  13.607   0.403  0.1409 -1.1113 -0.0678
  607MOL0     C80032  10.208  13.741   0.401  0.0453  0.4149  0.4281
  607MOL0     C80033  10.266  13.826   0.521  0.1319  0.2414 -0.0099
  607MOL0     C80034  10.193  13.966   0.536 -1.0208 -0.0818 -0.1062
  607MOL0     C80035  10.225  14.055   0.667 -0.5944  0.0616  0.1288
  607MOL0    Cl80036  10.166  13.989   0.821 -0.2399 -0.0818 -0.2680
  607MOL0     C80037  10.487  13.276  -0.104 -0.1292 -0.5573 -0.7720
  607MOL0     C80038  10.521  13.189  -0.199 -0.4223  0.0198  0.1117
  607MOL0     O80039  10.625  12.859  -0.140  0.6745  0.2263 -0.2854
  607MOL0     C80040  10.757  12.713  -0.319  0.3214  0.5070 -0.3991
  607MOL0     C80041  10.804  12.613  -0.401  0.4347 -0.0343 -0.4053
  607MOL0     N80042  10.840  11.939  -0.572 -0.0659 -0.3975  0.2981
  607MOL0     N80043  10.839  11.820  -0.620 -0.1008  0.0763 -0.5699
  607MOL0     C80044  10.717  11.131   0.141  0.5453  0.0918 -0.3543
  607MOL0     C80045  10.700  11.040   0.237 -0.8072  0.8196  0.1248
  607MOL0     C80046  10.786  10.665   0.394  0.7300 -0.0162 -0.4235
  607MOL0     C80047  10.643  10.666   0.402 -0.0610  1.2002 -0.1769
  607MOL0     C80048  10.576  10.558   0.464  0.1812 -1.0392  0.1987
  607MOL0     C80049  10.642  10.433   0.481 -0.5547 -0.5805 -0.2519
  607MOL0     O80050  10.589  10.308   0.515  0.2363 -0.0664  0.3025
  607MOL0     C80051  10.450  10.290   0.480  0.0365 -0.0817 -0.8329
  607MOL0     C80052  10.446  10.137   0.454 -0.1502  0.3039 -0.1928
  607MOL0     C80053  10.427  10.070   0.590  1.1352 -0.8879 -0.0559
  607MOL0     C80054  10.525   9.960   0.604 -0.4243  1.3616  0.6270
  607MOL0     C80055  10.519   9.866   0.716  0.2058  0.3822 -0.0449
  607MOL0     C80056  10.522   9.782   0.807 -0.4891 -0.4838 -1.0177
  607MOL0     C80057  10.784  10.433   0.470  0.6313 -1.6147 -1.1661
  607MOL0     C80058  10.852  10.549   0.434  0.0712  0.4897  0.0230
  607MOL0     H80059  10.987  11.089   0.416 -0.1462  1.7312 -0.3518
  607MOL0     H80060  11.013  11.256   0.250 -1.7349  1.1814 -1.5584
  607MOL0     H80061  10.653  11.310  -0.042 -0.5578 -2.3799 -0.7986
  607MOL0     H80062  10.763  11.222  -0.137  1.3282  0.2059  0.2760
  607MOL0     H80063  10.773  11.526  -0.091  1.3367 -0.4075  1.3074
  607MOL0     H80064  10.686  11.440  -0.218 -0.7009  2.9904  0.0559
  607MOL0     H80065  10.910  11.361  -0.323  2.4848 -2.3945  0.9200
  607MOL0     H80066  10.982  11.429  -0.175  0.0756  1.2301 -0.5895
  607MOL0     H80067  10.819  11.570  -0.399 -1.1438 -0.6624  1.1129
  607MOL0     H80068  10.885  11.653  -0.262 -0.1695  0.3433 -0.1488
  607MOL0     H80069  11.110  11.592  -0.308 -0.0275  0.2324 -0.3006
  607MOL0     H80070  11.025  11.704  -0.416 -3.3463 -0.9864 -3.2981
  607MOL0     H80071  11.071  11.405  -0.496  1.5245 -1.1042 -0.7319
  607MOL0     H80072  11.175  11.533  -0.551 -0.9804 -1.2480 -2.8789
  607MOL0     H80073  10.982  11.469  -0.708  0.0598  1.2677 -0.2513
  607MOL0     H80074  10.881  11.544  -0.592  0.1546  0.4507  0.1219
  607MOL0     H80075  10.978  11.679  -0.807 -0.0828  0.3239 -0.3352
  607MOL0     H80076  11.130  11.685  -0.718  0.0241 -2.5325 -0.7197
  607MOL0     H80077  11.166  11.910  -0.610  0.1003  1.5608 -0.8891
  607MOL0     H80078  11.055  12.199  -0.618  1.3215  0.6665  0.8035
  607MOL0     H80079  11.049  12.123  -0.456 -3.6434 -0.8409  2.8815
  607MOL0     H80080  10.900  12.309  -0.478  0.6527 -1.8370  0.5713
  607MOL0     H80081  10.803  12.165  -0.445  0.6803 -0.3759  1.2452
  607MOL0     H80082  10.844  12.275  -0.725  0.9350  1.0317  0.9997
  607MOL0     H80083  10.714  12.169  -0.652 -0.8515  0.5334  1.3968
  607MOL0     H80084  10.638  12.360  -0.516 -0.1777  1.1651  0.0715
  607MOL0     H80085  10.613  12.397  -0.688  1.0671  0.6556 -1.3556
  607MOL0     H80086  10.578  12.629  -0.648  1.9156  1.6503 -1.3557
  607MOL0     H80087  10.482  12.818  -0.509  1.9127  2.5221 -2.5680
  607MOL0     H80088  10.324  12.924  -0.121  0.8667  0.3245 -1.9652
  607MOL0     H80089  10.253  13.084   0.062  0.0822  3.2834  0.6811
  607MOL0     H80090  10.307  13.195   0.231 -2.6815 -1.2045  1.6014
  607MOL0     H80091  10.169  13.283   0.171  0.4131 -0.3330  0.1190
  607MOL0     H80092  10.424  13.400   0.301 -0.4783  2.9749 -1.0649
  607MOL0     H80093  10.289  13.344   0.406  0.7980 -2.2228 -0.9115
  607MOL0     H80094  10.129  13.497   0.285  0.8326 -2.6406  1.0963
  607MOL0     H80095  10.245  13.564   0.191 -2.7486  0.7740 -0.3010
  607MOL0     H80096  10.258  13.570   0.504  0.0366  0.0011  0.3346
  607MOL0     H80097  10.390  13.624   0.402 -0.4412  4.5963 -0.9379
  607MOL0     H80098  10.100  13.722   0.406 -0.2179  1.7145  0.1621
  607MOL0     H80099  10.228  13.798   0.309  0.4627 -1.3785 -0.6320
  607MOL0     H80100  10.372  13.852   0.515  0.5288 -1.1280  0.6246
  607MOL0     H80101  10.252  13.771   0.615  1.1139  0.5851  0.3553
  607MOL0     H80102  10.245  14.020   0.456  2.6295 -1.1126  1.3989
  607MOL0     H80103  10.085  13.959   0.523 -1.1057 -3.0960  1.4351
  607MOL0     H80104  10.186  14.156   0.650  0.9447  0.6306 -0.2322
  607MOL0     H80105  10.334  14.065   0.674 -0.4986  0.5002 -1.5562
  607MOL0     H80106  10.542  13.369  -0.102 -3.1721  1.4062 -0.1630
  607MOL0     H80107  10.597  13.210  -0.273 -1.4685  0.2301 -0.9186
  607MOL0     H80108  10.818  12.744  -0.235 -0.0580  3.6593 -1.1410
  607MOL0     H80109  10.895  12.555  -0.393  0.3149  0.0115  1.7363
  607MOL0     H80110  10.631  11.137   0.074 -1.9316 -1.9807  2.4037
  607MOL0     H80111  10.612  10.976   0.235 -0.4573  0.2987  0.9081
  607MOL0     H80112  10.585  10.755   0.380 -4.5201 -1.1137  0.8339
  607MOL0     H80113  10.471  10.567   0.489  0.2445  1.9346 -0.2067
  607MOL0     H80114  10.412  10.340   0.391  0.5717  0.7702 -0.5876
  607MOL0     H80115  10.375  10.318   0.554  1.3677 -2.5445  1.6295
  607MOL0     H80116  10.360  10.132   0.386 -2.5449  0.0786  2.6592
  607MOL0     H80117  10.532  10.093   0.402 -0.5107  0.4374 -0.9197
  607MOL0     H80118  10.327  10.034   0.614  0.4035  2.6770  3.0416
  607MOL0     H80119  10.459  10.139   0.668  1.8120  0.1687 -1.2415
  607MOL0     H80120  10.514   9.900   0.514  3.0966 -0.5555  1.2717
  607MOL0     H80121  10.631   9.988   0.606  0.3738 -1.3489  0.6124
  607MOL0     H80122  10.537   9.704   0.879  2.1729  0.1228 -0.8168
  607MOL0     H80123  10.841  10.344   0.494  1.2290 -2.2711 -4.5854
  607MOL0     H80124  10.960  10.562   0.430  0.0285  1.0144  0.3734
  608MOL0     O80125   6.003   9.678   5.156  0.1751  0.7011 -1.0742
  608MOL0     C80126   5.973   9.697   5.040  0.5553  0.3468  0.4887
  608MOL0     O80127   6.015   9.626   4.930  0.1123 -0.4356  0.6498
  608MOL0     C80128   6.113   9.532   4.938 -0.3746  0.8737  0.2982
  608MOL0     C80129   6.088   9.410   4.869 -0.9141 -0.2079  0.4027
  608MOL0     C80130   6.189   9.308   4.868  0.0976 -0.0491  0.9071
  608MOL0     C80131   6.309   9.323   4.940 -0.1209 -0.9236  0.4120
  608MOL0     O80132   6.396   9.225   4.954  0.0533 -0.2305 -0.1955
  608MOL0     C80133   6.382   9.095   4.893  0.2018  0.3867 -0.0919
  608MOL0     C80134   6.489   9.004   4.954 -0.0631 -0.9345 -0.0045
  608MOL0     C80135   6.629   9.023   4.879  0.7074 -0.4167 -1.3360
  608MOL0     C80136   6.694   9.163   4.933 -0.6195  0.5984  0.3559
  608MOL0     C80137   6.744   9.165   5.077 -0.1359  0.7350 -0.5469
  608MOL0     C80138   6.793   9.294   5.133  0.1506 -0.1214 -0.1003
  608MOL0     C80139   6.825   9.264   5.284  0.3313  0.7653  1.2456
  608MOL0     C80140   6.969   9.228   5.304 -0.0497  0.3120  0.5847
  608MOL0     N80141   7.025   9.268   5.421  0.6292  0.4888 -0.0170
  608MOL0     C80142   7.057   9.180   5.523 -0.3887 -0.3110  0.1268
  608MOL0     C80143   7.148   9.245   5.604  0.0795  0.1911 -0.6497
  608MOL0     C80144   7.205   9.199   5.737  0.0819 -1.1100 -0.1602
  608MOL0     C80145   7.235   9.320   5.831 -0.0728  0.2192  0.6535
  608MOL0     C80146   7.384   9.331   5.855 -0.4745 -0.2519  0.2761
  608MOL0     C80147   7.453   9.402   5.741  0.0702  0.4008 -0.1835
  608MOL0     O80148   7.407   9.538   5.750  0.4225  0.1794 -0.2781
  608MOL0     C80149   7.473   9.639   5.817  0.7167 -0.7740 -0.0981
  608MOL0     C80150   7.574   9.619   5.908  0.4203  0.1849 -0.7381
  608MOL0     C80151   7.613   9.723   5.994 -0.1753  0.0451 -0.0786
  608MOL0     C80152   7.556   9.850   5.993  0.0145 -0.5729  0.0100
  608MOL0     C80153   7.610   9.969   6.061 -0.4990 -0.0295 -0.3459
  608MOL0     O80154   7.531  10.078   6.084  0.4324 -0.2911 -0.1393
  608MOL0     C80155   7.569  10.148   6.189 -1.1004  0.7931 -0.2132
  608MOL0     C80156   7.550  10.100   6.322  0.0593 -0.1818 -0.2027
  608MOL0     C80157   7.607  10.167   6.434 -0.1605  0.3350 -0.0632
  608MOL0     C80158   7.661  10.300   6.412  0.3120  0.0013 -0.8129
  608MOL0     O80159   7.715  10.379   6.514 -0.5650 -0.2265  0.0876
  608MOL0     C80160   7.711  10.330   6.650 -0.3231 -0.6424  0.5893
  608MOL0     C80161   7.791  10.427   6.747 -0.8385 -0.6559 -0.7034
  608MOL0     C80162   7.725  10.569   6.767  0.9783  0.2845 -0.7017
  608MOL0     C80163   7.816  10.671   6.829 -0.3792  0.4032 -0.4196
  608MOL0     C80164   7.742  10.808   6.844 -0.4449 -0.5954 -0.4692
  608MOL0     C80165   7.846  10.894   6.918  0.5578 -0.3954  0.4712
  608MOL0     C80166   7.794  11.036   6.945 -0.6606 -0.8553  0.2447
  608MOL0     C80167   7.788  11.112   6.804 -0.7728  0.6435  0.4631
  608MOL0    Cl80168   7.780  11.286   6.832 -0.0804 -0.1640 -0.0329
  608MOL0     C80169   7.650  10.351   6.280  1.0008  0.3857 -0.2770
  608MOL0     C80170   7.610  10.274   6.170 -0.0198 -0.1555 -0.7037
  608MOL0     O80171   7.722   9.954   6.107  0.6070  0.5047  0.5005
  608MOL0     C80172   7.465   9.874   5.888  0.6943  0.1777 -0.3453
  608MOL0     C80173   7.415   9.769   5.807 -0.2444 -0.6895  0.6648
  608MOL0     N80174   7.156   9.373   5.554 -1.2096 -0.1306  0.6937
  608MOL0     N80175   7.089   9.382   5.451 -0.5513 -0.0255  0.6899
  608MOL0     C80176   6.329   9.444   5.012  0.3769  0.9529  0.3448
  608MOL0     C80177   6.220   9.540   5.019 -0.1542  0.3006 -0.3586
  608MOL0     C80178   5.859   9.790   5.031  0.0609 -0.1975  0.1355
  608MOL0     C80179   5.761   9.774   4.931 -0.1103  0.2831  0.3945
  608MOL0     C80180   5.661   9.871   4.935  0.4389 -0.8043  0.5249
  608MOL0     C80181   5.653   9.970   5.029 -0.7055 -0.7398  0.4716
  608MOL0     O80182   5.569  10.075   4.999 -0.4710  0.4126 -0.2266
  608MOL0     C80183   5.457  10.091   5.092  0.5478  1.2425  0.1845
  608MOL0     C80184   5.328  10.025   5.039 -0.3503 -0.9909  0.8774
  608MOL0     C80185   5.233  10.125   4.970 -1.3526 -0.3566 -0.6351
  608MOL0     C80186   5.272  10.167   4.824 -0.3020 -0.2599  0.4340
  608MOL0     C80187   5.168  10.264   4.781  0.1248  0.2810  0.0637
  608MOL0     C80188   5.075  10.318   4.728  0.4780  0.0726 -0.7941
  608MOL0     C80189   5.741   9.974   5.135 -0.7483 -0.2356  0.0872
  608MOL0     C80190   5.850   9.895   5.132  0.4054  0.1140 -0.2370
  608MOL0     H80191   5.998   9.390   4.811 -0.4319 -3.4835  0.6199
  608MOL0     H80192   6.175   9.223   4.802 -0.2352  0.5958  0.1164
  608MOL0     H80193   6.392   9.090   4.784 -0.5106 -0.4945 -0.1328
  608MOL0     H80194   6.281   9.058   4.915  0.5156 -0.1346  0.4992
  608MOL0     H80195   6.470   8.897   4.942 -0.9459 -0.5640 -2.7684
  608MOL0     H80196   6.487   9.022   5.062 -2.4991 -1.8335  0.1786
  608MOL0     H80197   6.625   9.024   4.770 -2.1840 -0.4528 -1.3151
  608MOL0     H80198   6.693   8.940   4.911  0.1668 -0.4024 -0.1770
  608MOL0     H80199   6.784   9.186   4.876 -1.0817  0.8769 -0.2730
  608MOL0     H80200   6.629   9.250   4.920  1.5234  2.3176  0.4557
  608MOL0     H80201   6.814   9.083   5.093 -4.2140 -2.5053  3.4161
  608MOL0     H80202   6.654   9.143   5.135  0.1860  3.0750  0.9703
  608MOL0     H80203   6.711   9.365   5.119  0.6664  1.2344  2.8942
  608MOL0     H80204   6.879   9.337   5.082  0.7394 -1.4741 -0.3137
  608MOL0     H80205   6.807   9.354   5.344 -0.0168  2.0411 -0.6757
  608MOL0     H80206   6.770   9.177   5.322  2.5710 -0.1436  2.6123
  608MOL0     H80207   7.029   9.279   5.227  0.8329 -2.4869 -0.7036
  608MOL0     H80208   6.990   9.121   5.295 -0.8790  0.0415  1.6729
  608MOL0     H80209   7.013   9.082   5.532  0.4404 -0.9849 -2.3560
  608MOL0     H80210   7.294   9.136   5.725  2.5917  1.9984  0.7320
  608MOL0     H80211   7.116   9.147   5.776 -0.2224  0.1567  0.8797
  608MOL0     H80212   7.200   9.302   5.933 -0.6353 -1.8181  0.1377
  608MOL0     H80213   7.190   9.408   5.784  0.7910 -0.8350 -2.3546
  608MOL0     H80214   7.407   9.378   5.951  0.1780  2.1595 -0.9747
  608MOL0     H80215   7.430   9.233   5.871 -1.7718 -0.6648  1.6832
  608MOL0     H80216   7.411   9.376   5.643 -1.6817  1.9351  0.1189
  608MOL0     H80217   7.559   9.375   5.731 -0.0895 -0.0086 -0.8079
  608MOL0     H80218   7.605   9.519   5.937 -2.6326 -0.5026  0.6316
  608MOL0     H80219   7.684   9.694   6.070 -2.2053  0.6829  2.2092
  608MOL0     H80220   7.501  10.004   6.332 -2.5403  1.1248  0.6953
  608MOL0     H80221   7.610  10.122   6.533  3.2419  1.4026  0.4411
  608MOL0     H80222   7.752  10.229   6.656  0.6569 -0.3723 -0.9404
  608MOL0     H80223   7.605  10.330   6.679 -0.8998  0.3288 -1.3133
  608MOL0     H80224   7.893  10.432   6.707 -1.4872 -2.7400 -2.8563
  608MOL0     H80225   7.794  10.368   6.839 -0.9450  2.2298  1.2679
  608MOL0     H80226   7.632  10.561   6.823  1.2812  3.7636  0.5502
  608MOL0     H80227   7.706  10.591   6.661 -3.5939  0.3664 -0.0568
  608MOL0     H80228   7.843  10.634   6.928  1.4556  1.1119 -0.6157
  608MOL0     H80229   7.910  10.677   6.774  0.5169 -0.8232  0.8943
  608MOL0     H80230   7.655  10.803   6.910  0.3596 -0.1078  0.6528
  608MOL0     H80231   7.710  10.840   6.744 -0.8330 -1.9906 -0.8257
  608MOL0     H80232   7.932  10.904   6.851 -0.6299 -1.4807 -1.3073
  608MOL0     H80233   7.884  10.849   7.010 -0.2780  0.5742  1.3136
  608MOL0     H80234   7.693  11.046   6.986  0.6819  3.4137  3.1715
  608MOL0     H80235   7.868  11.080   7.012  0.1776 -3.4844  1.1720
  608MOL0     H80236   7.701  11.075   6.749 -0.9158  1.4753  0.1042
  608MOL0     H80237   7.880  11.080   6.755 -1.3654 -1.2601  0.5335
  608MOL0     H80238   7.682  10.453   6.261  0.5560  0.6980  0.5343
  608MOL0     H80239   7.617  10.313   6.069 -3.3249 -1.2499 -1.4570
  608MOL0     H80240   7.433   9.977   5.874 -3.4332 -0.9443 -0.3706
  608MOL0     H80241   7.331   9.795   5.744  0.2861 -1.5426 -0.4352
  608MOL0     H80242   6.410   9.453   5.083 -1.1828  1.7775  2.1343
  608MOL0     H80243   6.245   9.622   5.086  2.1504 -1.7861  1.5574
  608MOL0     H80244   5.765   9.699   4.852 -1.0292 -1.6412  2.0773
  608MOL0     H80245   5.593   9.872   4.850  0.4681 -1.4460  0.4870
  608MOL0     H80246   5.440  10.199   5.104 -2.5329  1.0622 -1.4656
  608MOL0     H80247   5.477  10.039   5.186  0.5998 -1.2026 -1.0899
  608MOL0     H80248   5.362   9.944   4.974  4.1303 -2.0573  4.0525
  608MOL0     H80249   5.269   9.986   5.123 -1.2671  5.0771  3.5305
  608MOL0     H80250   5.237  10.218   5.027  2.8423 -0.7873  0.0622
  608MOL0     H80251   5.135  10.076   4.968 -2.6437  2.1185 -2.0927
  608MOL0     H80252   5.369  10.217   4.823  0.9548 -2.5900 -0.4933
  608MOL0     H80253   5.281  10.079   4.761  0.7991 -1.4438  2.1700
  608MOL0     H80254   4.994  10.356   4.669  0.7869 -0.4415 -1.5710
  608MOL0     H80255   5.729  10.057   5.204 -2.2778  0.7083 -1.2391
  608MOL0     H80256   5.935   9.915   5.197  0.8955  3.1851 -1.6700
  609MOL0     O80257   8.205   8.492   7.939 -0.0857 -0.4612  0.2037
  609MOL0     C80258   8.195   8.510   8.055 -0.6807  0.0532 -0.3386
  609MOL0     O80259   8.152   8.623   8.103  0.1716 -0.8545 -0.9201
  609MOL0     C80260   8.135   8.737   8.030 -0.1352 -0.1201 -0.0236
  609MOL0     C80261   8.008   8.769   8.002  0.2639  0.7206  0.5045
  609MOL0     C80262   7.980   8.896   7.955 -0.3893 -0.5795 -0.2747
  609MOL0     C80263   8.076   8.987   7.913  0.0985  1.2323  0.6073
  609MOL0     O80264   8.030   9.108   7.867  0.2609 -0.2011  0.1311
  609MOL0     C80265   8.128   9.212   7.854 -0.9336 -0.3344  0.1690
  609MOL0     C80266   8.067   9.341   7.816 -0.2726 -0.1387  0.1168
  609MOL0     C80267   8.171   9.448   7.777 -0.1870  0.9424 -0.5660
  609MOL0     C80268   8.113   9.586   7.755 -0.3503 -0.6377  0.0321
  609MOL0     C80269   8.207   9.691   7.673  0.2451 -0.2516 -0.7669
  609MOL0     C80270   8.221   9.674   7.525 -0.0982  1.2768  0.2522
  609MOL0     C80271   8.287   9.789   7.460 -0.1004  1.0323 -0.4839
  609MOL0     C80272   8.325   9.745   7.324 -0.4127 -0.0764  0.8018
  609MOL0     N80273   8.400   9.861   7.262 -0.3504 -0.4171  0.5746
  609MOL0     C80274   8.518   9.913   7.293 -0.3114  0.5756  0.3965
  609MOL0     C80275   8.529  10.031   7.212 -0.9605 -0.1917  0.7035
  609MOL0     C80276   8.643  10.115   7.184  0.1980  0.2352  0.0474
  609MOL0     C80277   8.708  10.115   7.045 -0.3797  0.4408 -0.0681
  609MOL0     C80278   8.653  10.222   6.949 -0.2167 -0.2485 -0.2232
  609MOL0     C80279   8.730  10.359   6.954  0.0174 -0.1856  0.3530
  609MOL0     O80280   8.731  10.407   6.822 -0.2583  0.9491 -0.3407
  609MOL0     C80281   8.809  10.330   6.727 -0.1098 -0.8570 -0.4230
  609MOL0     C80282   8.796  10.370   6.595  0.6716 -0.7498  0.3916
  609MOL0     C80283   8.855  10.305   6.493 -0.5031 -0.2866 -0.2827
  609MOL0     C80284   8.942  10.198   6.519  0.9459  0.4483  0.6224
  609MOL0     C80285   9.013  10.130   6.407 -0.3535 -0.1181 -0.2729
  609MOL0     O80286   9.095  10.026   6.429  0.1035  0.1506 -0.2343
  609MOL0     C80287   9.172   9.968   6.327 -0.1817 -0.1169  0.7490
  609MOL0     C80288   9.161   9.828   6.324  0.3253  0.2045  0.1278
  609MOL0     C80289   9.240   9.759   6.235  0.0687 -0.0845  0.7554
  609MOL0     C80290   9.330   9.830   6.142  0.1678  0.5177 -0.8071
  609MOL0     O80291   9.387   9.755   6.047 -0.0726  0.0074 -0.5070
  609MOL0     C80292   9.513   9.802   6.002  0.3324  0.0944  0.1587
  609MOL0     C80293   9.568   9.680   5.927  0.4985  0.8372 -1.0997
  609MOL0     C80294   9.703   9.703   5.848  0.2125  0.5476  0.5216
  609MOL0     C80295   9.811   9.691   5.948 -0.0132  0.5700 -0.5155
  609MOL0     C80296   9.949   9.679   5.880  0.0880  0.4387 -0.3543
  609MOL0     C80297   9.991   9.535   5.837 -0.2306 -0.4329  0.6752
  609MOL0     C80298  10.144   9.525   5.847 -0.2571  0.6754  0.2948
  609MOL0     C80299  10.192   9.385   5.796  0.4378 -0.0045 -1.1682
  609MOL0    Cl80300  10.110   9.258   5.896  0.0948  0.0044 -0.1744
  609MOL0     C80301   9.331   9.973   6.145 -0.2666  0.6791  0.7473
  609MOL0     C80302   9.258  10.039   6.237 -0.7977  0.5138 -0.5724
  609MOL0     O80303   9.009  10.187   6.294  0.2625 -0.0273 -0.2964
  609MOL0     C80304   8.962  10.147   6.647 -0.1360 -0.6125 -0.1255
  609MOL0     C80305   8.898  10.219   6.751 -0.0337 -0.5837 -0.2008
  609MOL0     N80306   8.405  10.040   7.140 -0.1888  0.2770  0.3548
  609MOL0     N80307   8.330   9.944   7.179  0.4909  0.3285  0.7043
  609MOL0     C80308   8.206   8.944   7.947 -0.8968 -0.2300 -0.7888
  609MOL0     C80309   8.240   8.827   8.016 -0.4020 -0.2220 -0.1070
  609MOL0     C80310   8.223   8.405   8.161  0.2457  0.3979  0.6638
  609MOL0     C80311   8.175   8.409   8.297 -0.5912  0.3556 -0.5257
  609MOL0     C80312   8.204   8.312   8.392  1.5948  0.2812  0.0169
  609MOL0     C80313   8.268   8.203   8.350  0.0292 -0.3998  0.4187
  609MOL0     O80314   8.301   8.095   8.434  0.3862  0.3983 -0.5991
  609MOL0     C80315   8.194   7.997   8.476 -0.2215 -0.1682  1.1637
  609MOL0     C80316   8.216   7.981   8.623  0.4396  0.0096  0.1702
  609MOL0     C80317   8.134   7.864   8.663  0.9550  0.1863 -0.7801
  609MOL0     C80318   8.131   7.863   8.815  0.1402  0.5675 -0.6990
  609MOL0     C80319   8.108   7.723   8.881 -1.0757  0.8213  0.8035
  609MOL0     C80320   8.089   7.622   8.935 -0.9974 -0.4000  0.1270
  609MOL0     C80321   8.307   8.193   8.219  0.9669  0.2200  0.1087
  609MOL0     C80322   8.290   8.292   8.125 -1.1413 -0.2179  0.2087
  609MOL0     H80323   7.936   8.692   8.029  1.6665 -1.3252 -1.2798
  609MOL0     H80324   7.880   8.936   7.937  0.6796  2.4042 -0.1404
  609MOL0     H80325   8.214   9.187   7.791 -1.4234  1.3492 -1.2496
  609MOL0     H80326   8.172   9.236   7.951 -0.6753  0.7544 -0.2071
  609MOL0     H80327   8.005   9.368   7.902 -1.7043 -1.6429 -0.3771
  609MOL0     H80328   7.998   9.309   7.737  0.1656 -3.2084  0.8170
  609MOL0     H80329   8.199   9.412   7.678 -2.2353 -0.9176 -0.5505
  609MOL0     H80330   8.254   9.450   7.848  0.2512  1.5661 -1.0839
  609MOL0     H80331   8.029   9.572   7.687 -0.0256  1.4979 -0.8730
  609MOL0     H80332   8.080   9.620   7.854 -0.1666 -4.2213  1.4887
  609MOL0     H80333   8.305   9.704   7.719  0.2185  0.9820 -1.0225
  609MOL0     H80334   8.155   9.788   7.677  2.0832  0.7570 -0.0221
  609MOL0     H80335   8.121   9.658   7.483 -0.9337  2.2419  1.7772
  609MOL0     H80336   8.283   9.584   7.525 -1.8430  0.0196  0.8723
  609MOL0     H80337   8.206   9.861   7.445 -1.1847 -0.2431 -0.9578
  609MOL0     H80338   8.374   9.821   7.518  1.3912 -0.1439 -1.9693
  609MOL0     H80339   8.237   9.710   7.270  1.2106 -1.3971 -1.1414
  609MOL0     H80340   8.394   9.660   7.333 -0.6048 -0.3480 -0.2446
  609MOL0     H80341   8.595   9.853   7.342 -1.7589 -2.5334 -0.8875
  609MOL0     H80342   8.721  10.091   7.256  1.4923  0.6405 -1.1751
  609MOL0     H80343   8.609  10.216   7.208 -0.1631  0.4507 -1.2456
  609MOL0     H80344   8.687  10.021   6.994 -0.6314  0.7126 -0.4777
  609MOL0     H80345   8.815  10.137   7.048 -0.2686 -0.1820  0.7151
  609MOL0     H80346   8.651  10.182   6.847 -1.9131 -0.3639 -0.1752
  609MOL0     H80347   8.550  10.238   6.983 -0.2214  0.2257 -0.4595
  609MOL0     H80348   8.833  10.348   6.989  0.3523 -0.7378 -0.7888
  609MOL0     H80349   8.670  10.430   7.013 -0.9043  0.0453 -0.8109
  609MOL0     H80350   8.727  10.450   6.570  1.8492  0.1523 -0.0334
  609MOL0     H80351   8.842  10.339   6.391  1.1297  2.2450  0.2586
  609MOL0     H80352   9.088   9.775   6.384  2.9929 -2.7303  1.0652
  609MOL0     H80353   9.240   9.650   6.233  1.5138 -0.1251  1.6117
  609MOL0     H80354   9.573   9.847   6.081  0.8814 -1.2408  0.5292
  609MOL0     H80355   9.483   9.886   5.937  2.3730  1.8014  1.3093
  609MOL0     H80356   9.488   9.651   5.859  1.6720 -0.3983 -2.0003
  609MOL0     H80357   9.579   9.607   6.007 -1.8470  0.8930 -0.6506
  609MOL0     H80358   9.720   9.793   5.788  1.2463  0.1400  0.1730
  609MOL0     H80359   9.730   9.613   5.792 -0.0491 -0.1647  1.5031
  609MOL0     H80360   9.818   9.774   6.019 -0.9994  0.3663 -0.1696
  609MOL0     H80361   9.799   9.602   6.011  0.2385  2.3423  2.2148
  609MOL0     H80362  10.026   9.707   5.952  1.6300  3.2383 -2.8678
  609MOL0     H80363   9.939   9.749   5.797 -2.4764 -1.7884 -2.1043
  609MOL0     H80364   9.946   9.528   5.737 -0.7068  1.2264  0.7457
  609MOL0     H80365   9.951   9.473   5.918  1.3512  1.3314  2.9381
  609MOL0     H80366  10.178   9.594   5.769 -2.8360 -1.6771 -3.2228
  609MOL0     H80367  10.180   9.551   5.946  3.3502  3.3783 -1.5049
  609MOL0     H80368  10.295   9.371   5.830 -0.4167 -0.1466  1.6040
  609MOL0     H80369  10.165   9.360   5.693 -1.2066  0.1623 -0.8009
  609MOL0     H80370   9.400  10.027   6.081 -1.0944  0.8557 -0.0067
  609MOL0     H80371   9.251  10.147   6.242 -0.7130  0.4549  3.2122
  609MOL0     H80372   9.023  10.058   6.659  0.4057  0.0952  5.0800
  609MOL0     H80373   8.922  10.180   6.850  2.9385  0.1306 -0.5538
  609MOL0     H80374   8.287   9.013   7.926  0.3691  0.4273  4.8440
  609MOL0     H80375   8.339   8.809   8.059 -0.7806  0.3384  1.0533
  609MOL0     H80376   8.111   8.489   8.332 -0.2721  0.2675  0.2838
  609MOL0     H80377   8.163   8.343   8.487 -0.6103  2.4727 -1.5181
  609MOL0     H80378   8.218   7.902   8.427  0.2275  0.5741 -0.0842
  609MOL0     H80379   8.093   8.029   8.451 -0.2047 -0.2890  0.9390
  609MOL0     H80380   8.321   7.976   8.653  0.6960 -1.1659 -0.8360
  609MOL0     H80381   8.169   8.067   8.671  3.7461  2.1601 -0.1634
  609MOL0     H80382   8.180   7.768   8.635 -0.8924 -1.3171  1.0081
  609MOL0     H80383   8.031   7.869   8.627  0.9769 -1.6864 -1.2266
  609MOL0     H80384   8.232   7.897   8.842 -0.7038  1.7905  1.1258
  609MOL0     H80385   8.050   7.930   8.843 -1.2517 -0.0472 -2.9981
  609MOL0     H80386   8.079   7.525   8.979 -1.9844 -0.6213 -0.5521
  609MOL0     H80387   8.362   8.102   8.198  4.1873  1.4467  2.4874
  609MOL0     H80388   8.333   8.292   8.025 -1.1936 -1.6671  0.1662
  610MOL0     O80389   8.841   9.828   7.254  0.0754 -0.7136  0.4960
  610MOL0     C80390   8.863   9.714   7.225 -0.8059 -0.3044  0.3924
  610MOL0     O80391   8.991   9.661   7.216  0.3549 -0.0828  0.7746
  610MOL0     C80392   9.087   9.749   7.258 -1.4202  0.0816 -0.5872
  610MOL0     C80393   9.147   9.827   7.155 -1.1245 -0.2520  0.3626
  610MOL0     C80394   9.259   9.914   7.180 -0.2255  0.8904 -1.3200
  610MOL0     C80395   9.304   9.926   7.315  1.1147  0.1771  0.0039
  610MOL0     O80396   9.398  10.015   7.342  0.4597 -0.9068 -0.2124
  610MOL0     C80397   9.489   9.990   7.443 -0.5083 -0.3740  0.2210
  610MOL0     C80398   9.625  10.062   7.432 -0.2323 -0.5479  0.5332
  610MOL0     C80399   9.724  10.050   7.550  0.5450 -0.4073  0.4208
  610MOL0     C80400   9.723  10.190   7.611 -0.4279 -0.1941  0.4308
  610MOL0     C80401   9.798  10.193   7.749 -0.5928  0.2301 -0.3419
  610MOL0     C80402   9.951  10.169   7.723 -0.0214  0.1883 -0.6188
  610MOL0     C80403  10.035  10.270   7.644  0.5365  0.9063  0.4145
  610MOL0     C80404  10.177  10.238   7.644 -0.1061  1.5774  0.2702
  610MOL0     N80405  10.243  10.282   7.769  0.7178  1.1813  0.4009
  610MOL0     C80406  10.232  10.214   7.888  0.0386 -0.6102 -0.0356
  610MOL0     C80407  10.337  10.254   7.958  0.3945 -0.0388 -0.5660
  610MOL0     C80408  10.373  10.212   8.103 -0.3892 -0.6747  0.6302
  610MOL0     C80409  10.494  10.111   8.106  0.9268 -0.0193 -0.7959
  610MOL0     C80410  10.518  10.084   8.261  0.9055 -0.3168  0.8470
  610MOL0     C80411  10.641  10.017   8.305  0.3609 -0.5305  0.7982
  610MOL0     O80412  10.746  10.106   8.256 -0.2840 -0.5123 -0.0271
  610MOL0     C80413  10.874  10.074   8.277 -0.3955 -0.3307 -0.0116
  610MOL0     C80414  10.931   9.979   8.367  0.5418 -0.7673 -0.8572
  610MOL0     C80415  11.065   9.974   8.396 -0.0257  0.0851 -0.9348
  610MOL0     C80416  11.168  10.049   8.326  0.1426 -0.1983 -0.0270
  610MOL0     C80417  11.302  10.036   8.359  0.4638 -0.0379 -0.6807
  610MOL0     O80418  11.336   9.931   8.435  0.5498 -0.6235  0.0275
  610MOL0     C80419  11.453   9.940   8.505 -0.3834  0.2937 -0.8008
  610MOL0     C80420  11.529  10.049   8.545 -0.0884  0.0449 -0.4768
  610MOL0     C80421  11.650  10.025   8.618 -0.1323  0.1919  0.6046
  610MOL0     C80422  11.693   9.902   8.660 -0.5102  0.5706 -0.7068
  610MOL0     O80423  11.806   9.887   8.734 -0.1863 -0.9065  0.4217
  610MOL0     C80424  11.916   9.803   8.669  1.1159  0.0724 -0.0701
  610MOL0     C80425  12.024   9.795   8.772  0.1855 -1.1162 -0.2000
  610MOL0     C80426  11.985   9.687   8.874 -0.8658 -0.2365  0.1213
  610MOL0     C80427  12.097   9.657   8.974  0.4396  0.3096  0.8645
  610MOL0     C80428  12.057   9.522   9.053 -0.7334  0.3003  0.2162
  610MOL0     C80429  12.172   9.489   9.147 -0.4234 -0.5172  0.5268
  610MOL0     C80430  12.139   9.376   9.249  0.6975 -0.1833  0.1073
  610MOL0     C80431  12.271   9.324   9.307  0.2021 -0.0685 -1.0406
  610MOL0    Cl80432  12.375   9.227   9.202  0.3881 -0.6852  0.2761
  610MOL0     C80433  11.625   9.788   8.621  1.1736 -0.0074 -0.3295
  610MOL0     C80434  11.503   9.812   8.549 -0.9678  0.8158 -0.4650
  610MOL0     O80435  11.378  10.118   8.311  0.6095 -0.0337 -0.0725
  610MOL0     C80436  11.111  10.136   8.223  0.1052  0.2155 -0.0282
  610MOL0     C80437  10.976  10.145   8.206  0.3228 -0.4541  0.3236
  610MOL0     N80438  10.404  10.348   7.887 -0.2651 -0.8938  0.9653
  610MOL0     N80439  10.359  10.358   7.770 -0.6576 -0.1168  0.2238
  610MOL0     C80440   9.228   9.866   7.416  0.3005  0.0749  0.4710
  610MOL0     C80441   9.129   9.771   7.388  0.9842 -0.3282 -0.6364
  610MOL0     C80442   8.759   9.621   7.190  0.1951  0.5892  0.2489
  610MOL0     C80443   8.758   9.487   7.252 -1.1593  0.3023  0.4038
  610MOL0     C80444   8.654   9.391   7.220  0.9707 -1.2391 -0.3982
  610MOL0     C80445   8.537   9.441   7.157 -0.1227 -0.1347 -0.4880
  610MOL0     O80446   8.414   9.379   7.130 -0.0857  0.5883 -0.0252
  610MOL0     C80447   8.410   9.231   7.148  0.9662  0.2073 -0.0718
  610MOL0     C80448   8.344   9.197   7.286  1.0530  1.0287 -0.7549
  610MOL0     C80449   8.211   9.278   7.301 -0.0117 -0.4371  1.1360
  610MOL0     C80450   8.128   9.233   7.411 -0.6063 -0.8058 -0.3295
  610MOL0     C80451   8.011   9.311   7.438  0.5992 -0.6987  0.4459
  610MOL0     C80452   7.903   9.375   7.446 -0.4854 -0.6230  0.0011
  610MOL0     C80453   8.535   9.576   7.114  0.3207 -0.4465  0.9124
  610MOL0     C80454   8.647   9.663   7.120 -0.6362  0.1040 -0.7541
  610MOL0     H80455   9.116   9.798   7.055 -1.4867 -0.7667  0.6183
  610MOL0     H80456   9.287   9.978   7.097 -0.3425  1.8297 -0.6490
  610MOL0     H80457   9.514   9.885   7.459  0.2481 -0.4411 -1.2463
  610MOL0     H80458   9.439  10.030   7.532  0.5822  1.3374  0.1118
  610MOL0     H80459   9.610  10.164   7.396  3.0533 -0.7029 -1.6661
  610MOL0     H80460   9.676  10.018   7.346  0.5017  1.6746 -0.2091
  610MOL0     H80461   9.825  10.016   7.525  1.1913 -0.1582  2.4818
  610MOL0     H80462   9.690   9.974   7.620 -3.6818  0.6664 -0.1864
  610MOL0     H80463   9.771  10.250   7.533  2.1911 -1.5510  0.8662
  610MOL0     H80464   9.622  10.229   7.626  0.4453  1.6143  2.0424
  610MOL0     H80465   9.757  10.125   7.825 -0.3107  2.6884  2.1789
  610MOL0     H80466   9.780  10.295   7.784 -1.6491 -0.2429  0.5593
  610MOL0     H80467   9.969  10.068   7.683  0.1745  1.0646 -2.9275
  610MOL0     H80468   9.982  10.171   7.827  1.4103  3.4563 -1.0002
  610MOL0     H80469   9.995  10.260   7.543 -0.8852 -2.4297  1.1491
  610MOL0     H80470  10.017  10.371   7.683 -2.6218  0.8358 -0.5253
  610MOL0     H80471  10.222  10.272   7.551  1.0847 -3.4139 -1.3143
  610MOL0     H80472  10.197  10.130   7.641  0.5106  1.6069  1.9870
  610MOL0     H80473  10.148  10.153   7.918  0.9406 -0.7576  2.3787
  610MOL0     H80474  10.294  10.160   8.157  0.3387 -2.0090  0.4750
  610MOL0     H80475  10.397  10.295   8.170  0.3482 -0.2979 -0.0811
  610MOL0     H80476  10.579  10.159   8.058  2.2221 -0.7970  0.6464
  610MOL0     H80477  10.463  10.021   8.053 -2.1014  0.7237 -0.5290
  610MOL0     H80478  10.508  10.171   8.326  1.2407 -0.0184  0.5091
  610MOL0     H80479  10.430  10.030   8.298 -1.0376  1.1024 -1.3436
  610MOL0     H80480  10.634   9.922   8.252  0.4183  0.3214 -0.7977
  610MOL0     H80481  10.637  10.005   8.414  0.8261 -1.1299  0.7562
  610MOL0     H80482  10.863   9.922   8.430  1.0021  0.3208  0.6802
  610MOL0     H80483  11.084   9.907   8.480  2.1279  2.5564  0.7237
  610MOL0     H80484  11.504  10.151   8.518 -0.4324 -0.3273 -1.6167
  610MOL0     H80485  11.707  10.107   8.660  2.8235 -1.0295 -0.7186
  610MOL0     H80486  11.947   9.855   8.578 -0.9446 -0.8610 -1.3661
  610MOL0     H80487  11.876   9.706   8.637 -0.8117  0.4423  1.0597
  610MOL0     H80488  12.049   9.884   8.830 -0.9703 -0.7359 -0.2504
  610MOL0     H80489  12.114   9.770   8.715  1.5699  3.1963 -0.2097
  610MOL0     H80490  11.953   9.594   8.826  3.1761 -1.6047 -0.3264
  610MOL0     H80491  11.895   9.720   8.926 -0.0632  1.0603  0.7336
  610MOL0     H80492  12.177   9.633   8.905 -0.8966 -0.1303 -0.5822
  610MOL0     H80493  12.115   9.745   9.037  0.3690 -1.1210  3.0131
  610MOL0     H80494  12.052   9.438   8.984  1.7175 -0.4819  0.8872
  610MOL0     H80495  11.972   9.522   9.122  0.6152 -0.5520  1.9361
  610MOL0     H80496  12.192   9.574   9.212 -0.0528 -1.2349  1.3664
  610MOL0     H80497  12.268   9.476   9.095 -0.6943  0.8002 -0.3362
  610MOL0     H80498  12.074   9.416   9.327  1.0447  1.4981 -0.4193
  610MOL0     H80499  12.089   9.301   9.188  0.5061  3.6245 -5.1345
  610MOL0     H80500  12.234   9.264   9.390 -0.9359  2.0077  0.0510
  610MOL0     H80501  12.330   9.404   9.353 -1.2134 -0.2905  1.2891
  610MOL0     H80502  11.625   9.689   8.665 -0.7224  0.6276  1.2760
  610MOL0     H80503  11.449   9.722   8.522 -0.0456  0.6029 -1.7105
  610MOL0     H80504  11.180  10.189   8.159 -0.3194 -0.6554 -1.2426
  610MOL0     H80505  10.945  10.216   8.130  0.7431 -0.3174  0.2763
  610MOL0     H80506   9.243   9.877   7.523 -0.3674  3.0881  0.3545
  610MOL0     H80507   9.090   9.701   7.460 -2.7560  0.8155 -1.3117
  610MOL0     H80508   8.844   9.458   7.311 -1.3317 -1.6749 -0.2327
  610MOL0     H80509   8.652   9.297   7.275 -1.1605 -0.0903  1.6628
  610MOL0     H80510   8.505   9.176   7.146 -1.5669 -4.9845  2.6693
  610MOL0     H80511   8.348   9.200   7.064 -1.7726  0.5038  1.7265
  610MOL0     H80512   8.326   9.090   7.290  1.0928  1.0673  1.0267
  610MOL0     H80513   8.415   9.245   7.354  1.3162  0.7617 -0.8404
  610MOL0     H80514   8.147   9.276   7.213 -1.7737  2.0663  2.2401
  610MOL0     H80515   8.233   9.381   7.329  0.1019 -0.5643  1.5222
  610MOL0     H80516   8.101   9.133   7.377  1.3010 -1.4606 -0.0745
  610MOL0     H80517   8.186   9.232   7.504 -1.0808 -0.9355 -0.0348
  610MOL0     H80518   7.805   9.419   7.447  0.5180  1.7980  0.1803
  610MOL0     H80519   8.448   9.611   7.060  2.3880  0.9626 -1.7316
  610MOL0     H80520   8.648   9.752   7.058  1.4016  1.4066  1.0299
  611MOL0     O80521   1.990  10.717   6.002  0.2478  0.3776 -0.3017
  611MOL0     C80522   2.071  10.629   6.010 -0.1556 -0.5529  0.3677
  611MOL0     O80523   2.197  10.645   6.064  0.0812  0.0854  0.1795
  611MOL0     C80524   2.241  10.749   6.142  0.5334  0.8838  0.4311
  611MOL0     C80525   2.376  10.756   6.170 -0.7824 -0.0747  0.2294
  611MOL0     C80526   2.423  10.851   6.250 -0.0583 -0.1649  0.0000
  611MOL0     C80527   2.338  10.951   6.305 -0.5052 -0.4088  0.5142
  611MOL0     O80528   2.387  11.053   6.380  0.0539  0.2405 -0.6274
  611MOL0     C80529   2.437  11.018   6.513 -0.0648 -0.3104 -0.4179
  611MOL0     C80530   2.449  11.153   6.587  0.1603  0.1482 -0.1967
  611MOL0     C80531   2.485  11.161   6.739 -0.8955  0.5117 -0.5796
  611MOL0     C80532   2.466  11.305   6.792  0.3445 -0.2890 -0.0251
  611MOL0     C80533   2.492  11.321   6.940  0.1265 -0.1053 -0.4073
  611MOL0     C80534   2.642  11.335   6.975 -0.2434 -0.3944 -0.7375
  611MOL0     C80535   2.673  11.485   6.976  0.1263  0.4118  0.4756
  611MOL0     C80536   2.812  11.533   7.025  0.5752  0.5347 -0.4883
  611MOL0     N80537   2.915  11.502   6.925 -0.7677 -0.3268 -0.4175
  611MOL0     C80538   2.999  11.595   6.869 -0.4286  0.4726  0.3861
  611MOL0     C80539   3.073  11.525   6.778 -0.7408 -0.7801  0.0360
  611MOL0     C80540   3.199  11.583   6.705 -0.1814  0.5597 -0.7746
  611MOL0     C80541   3.326  11.601   6.788  0.6678  0.9493  0.1803
  611MOL0     C80542   3.355  11.451   6.819 -0.0076  0.0865 -0.4021
  611MOL0     C80543   3.476  11.437   6.911 -0.1912  0.1126  0.3344
  611MOL0     O80544   3.448  11.504   7.035 -0.1311 -0.5249 -0.3157
  611MOL0     C80545   3.553  11.483   7.124 -0.1322 -0.1522  0.6612
  611MOL0     C80546   3.555  11.375   7.210  1.1111 -0.3734  1.1559
  611MOL0     C80547   3.671  11.344   7.285 -0.8748  0.2912  0.1345
  611MOL0     C80548   3.783  11.435   7.282  0.7704 -0.5002 -0.4784
  611MOL0     C80549   3.904  11.416   7.360 -0.8553  0.1417  0.1364
  611MOL0     O80550   4.018  11.502   7.350 -0.5040 -0.1420 -0.3050
  611MOL0     C80551   4.116  11.493   7.441 -0.0008 -0.9170 -0.8169
  611MOL0     C80552   4.204  11.389   7.444 -0.9737 -0.0074  0.2153
  611MOL0     C80553   4.303  11.384   7.542 -0.4952 -0.0599  0.4283
  611MOL0     C80554   4.332  11.497   7.619 -0.6401 -0.1723 -0.3692
  611MOL0     O80555   4.429  11.498   7.713  0.4758  0.3739 -0.1608
  611MOL0     C80556   4.495  11.375   7.753 -0.0695  0.1815 -0.3695
  611MOL0     C80557   4.559  11.387   7.890  0.0394 -0.1217 -0.1654
  611MOL0     C80558   4.598  11.245   7.947  0.4794  0.7605  0.3427
  611MOL0     C80559   4.733  11.220   7.893  0.2761 -0.1477  0.6752
  611MOL0     C80560   4.786  11.078   7.947  0.1965 -0.4460  0.4877
  611MOL0     C80561   4.924  11.040   7.896  0.5981  0.5775  0.1981
  611MOL0     C80562   4.961  10.890   7.951  0.2298  0.4478 -1.0093
  611MOL0     C80563   5.095  10.851   7.885 -0.2520 -0.6032 -0.2290
  611MOL0    Cl80564   5.147  10.685   7.943 -0.2753 -0.0924  0.1248
  611MOL0     C80565   4.252  11.619   7.603  0.3003  0.5576 -0.0549
  611MOL0     C80566   4.141  11.605   7.521 -0.5119  0.2356  0.0867
  611MOL0     O80567   3.892  11.328   7.444  0.0472 -0.5727  0.3168
  611MOL0     C80568   3.771  11.542   7.202 -0.1722 -0.3098  0.5176
  611MOL0     C80569   3.665  11.565   7.113  0.1028 -1.0672 -0.0708
  611MOL0     N80570   3.026  11.399   6.771  1.4459 -0.0555 -0.2805
  611MOL0     N80571   2.932  11.380   6.861 -0.7527 -0.0767 -0.1185
  611MOL0     C80572   2.201  10.950   6.267 -0.6103  0.9395 -0.3275
  611MOL0     C80573   2.150  10.841   6.196 -0.2558  1.0711  0.1226
  611MOL0     C80574   2.037  10.498   5.955 -0.4181  0.4378 -1.8143
  611MOL0     C80575   2.144  10.411   5.918 -0.1805  0.6511 -0.2418
  611MOL0     C80576   2.113  10.299   5.837  0.2391 -0.3212 -0.4798
  611MOL0     C80577   1.980  10.276   5.801 -0.4225  0.8631 -0.0555
  611MOL0     O80578   1.971  10.171   5.708  0.5255  0.1513  0.1498
  611MOL0     C80579   1.844  10.101   5.717  0.0291 -0.3616  0.0360
  611MOL0     C80580   1.789  10.025   5.836 -0.0950  0.4880 -0.2751
  611MOL0     C80581   1.912   9.955   5.896  0.2383 -0.1509  0.4167
  611MOL0     C80582   1.868   9.847   5.993 -0.0219 -0.6103  0.5865
  611MOL0     C80583   1.773   9.889   6.096  0.6849  0.4009  0.3035
  611MOL0     C80584   1.708   9.919   6.192 -0.2305  0.2743 -0.7880
  611MOL0     C80585   1.873  10.344   5.852  0.2519 -0.6325 -0.0507
  611MOL0     C80586   1.901  10.463   5.937  0.1686  0.5137 -0.5381
  611MOL0     H80587   2.449  10.691   6.122 -1.9499  0.5456 -2.6053
  611MOL0     H80588   2.526  10.860   6.284 -0.2037 -4.0911  2.0297
  611MOL0     H80589   2.534  10.968   6.518 -0.3773 -0.8274  2.9711
  611MOL0     H80590   2.375  10.952   6.576  0.7912  1.7102  2.7790
  611MOL0     H80591   2.355  11.209   6.587  0.4649  0.7090  1.1971
  611MOL0     H80592   2.526  11.207   6.530 -0.7367  0.9978 -0.6311
  611MOL0     H80593   2.592  11.138   6.745 -1.1833 -0.6401  0.8209
  611MOL0     H80594   2.432  11.090   6.803  1.7271  1.2666  2.7193
  611MOL0     H80595   2.534  11.373   6.740  1.9291 -1.3785  0.5747
  611MOL0     H80596   2.362  11.334   6.770 -0.1825 -0.5249  1.9375
  611MOL0     H80597   2.455  11.240   7.004 -3.2456  2.7474  1.6047
  611MOL0     H80598   2.434  11.409   6.970  0.1559 -0.3281  0.3096
  611MOL0     H80599   2.707  11.280   6.906  0.4420  0.3168 -0.6659
  611MOL0     H80600   2.647  11.299   7.079 -1.7671  1.6474  0.0995
  611MOL0     H80601   2.640  11.529   6.881 -0.5453 -0.0366  0.4957
  611MOL0     H80602   2.601  11.525   7.049  0.4792 -0.0198  1.0688
  611MOL0     H80603   2.833  11.467   7.109 -3.2089 -0.3960 -0.0711
  611MOL0     H80604   2.814  11.638   7.057 -0.3311  0.2549  0.5980
  611MOL0     H80605   3.018  11.694   6.908 -0.4445 -0.3812  2.6827
  611MOL0     H80606   3.178  11.676   6.651  1.9180 -1.3895 -5.4543
  611MOL0     H80607   3.216  11.516   6.621  0.4978  0.6739 -0.7333
  611MOL0     H80608   3.306  11.667   6.874 -1.1543  1.3500 -0.5016
  611MOL0     H80609   3.396  11.645   6.716  1.3423 -1.6966 -0.8942
  611MOL0     H80610   3.289  11.404   6.892  0.8202  2.2227  1.8406
  611MOL0     H80611   3.365  11.388   6.730  2.1519  2.0644 -1.6746
  611MOL0     H80612   3.566  11.483   6.870 -1.5621  2.0531 -0.6677
  611MOL0     H80613   3.494  11.330   6.924 -3.5925 -0.7238 -0.7878
  611MOL0     H80614   3.474  11.304   7.220  1.4763 -0.7911  1.1691
  611MOL0     H80615   3.680  11.253   7.343 -0.3703 -0.0733 -0.5113
  611MOL0     H80616   4.201  11.306   7.374 -2.7271 -0.1453  0.3981
  611MOL0     H80617   4.351  11.287   7.550  0.2490  0.1142 -1.3716
  611MOL0     H80618   4.567  11.329   7.685  2.3571  1.1132  1.4234
  611MOL0     H80619   4.419  11.297   7.764  1.6419 -1.3555  0.9790
  611MOL0     H80620   4.481  11.412   7.963 -0.3301 -2.1129  0.1707
  611MOL0     H80621   4.646  11.453   7.885  0.8531 -1.1836 -0.3082
  611MOL0     H80622   4.523  11.170   7.920  1.4495 -0.7773  1.6771
  611MOL0     H80623   4.599  11.253   8.056  2.0787 -2.3454  0.6790
  611MOL0     H80624   4.732  11.212   7.784  3.2277 -1.3958  0.6326
  611MOL0     H80625   4.811  11.291   7.922 -0.3350  0.4912  0.7799
  611MOL0     H80626   4.716  11.006   7.905  0.2214 -0.5941  0.7002
  611MOL0     H80627   4.771  11.081   8.055 -0.5603 -2.0980  0.4648
  611MOL0     H80628   4.996  11.113   7.933  0.8957  0.4532 -0.1277
  611MOL0     H80629   4.932  11.045   7.787 -2.1345 -2.1586 -0.2677
  611MOL0     H80630   4.963  10.868   8.058  3.0829 -1.6739 -1.3803
  611MOL0     H80631   4.893  10.816   7.909  1.0416  0.3666 -2.2416
  611MOL0     H80632   5.180  10.917   7.906 -0.3669 -0.4353 -0.2808
  611MOL0     H80633   5.087  10.852   7.776 -0.2977  1.6121 -0.2593
  611MOL0     H80634   4.260  11.709   7.663  0.9040  2.0535 -2.2813
  611MOL0     H80635   4.090  11.701   7.517 -2.2027 -0.4686  2.5178
  611MOL0     H80636   3.852  11.612   7.184  1.6860 -2.9768 -2.4588
  611MOL0     H80637   3.654  11.639   7.034  0.5735 -1.2295 -0.2884
  611MOL0     H80638   2.133  11.024   6.309 -1.7814  0.0887 -0.6888
  611MOL0     H80639   2.043  10.837   6.178 -0.0612  0.1237 -0.9727
  611MOL0     H80640   2.247  10.443   5.930  0.2510 -0.7322 -0.0840
  611MOL0     H80641   2.206  10.248   5.811  0.3425 -0.5845  0.3899
  611MOL0     H80642   1.863  10.024   5.642 -2.5022  1.2539 -2.4729
  611MOL0     H80643   1.766  10.160   5.667  0.4783 -1.2285 -1.7972
  611MOL0     H80644   1.752  10.101   5.905 -1.7051  0.2924 -0.8702
  611MOL0     H80645   1.708   9.956   5.811  1.9366 -1.4950 -1.7185
  611MOL0     H80646   1.979  10.027   5.943  0.7673  0.0385 -0.5929
  611MOL0     H80647   1.981   9.913   5.822  1.0491 -1.1334  1.6809
  611MOL0     H80648   1.822   9.765   5.937  2.0819 -0.4392 -1.5445
  611MOL0     H80649   1.962   9.811   6.037  1.1123  2.2500  0.7007
  611MOL0     H80650   1.643   9.928   6.277 -2.6677  1.5870 -2.6629
  611MOL0     H80651   1.773  10.323   5.816  0.4138 -1.3199 -0.1191
  611MOL0     H80652   1.818  10.510   5.989  1.0116  1.2938  0.1170
  612MOL0     O80653  11.033   8.702   2.234  0.1543 -0.2101 -0.2434
  612MOL0     C80654  11.145   8.708   2.191  0.4196  1.3754 -0.2553
  612MOL0     O80655  11.261   8.684   2.268 -0.0802 -0.4067 -0.1896
  612MOL0     C80656  11.252   8.695   2.403 -0.5111 -1.0423 -0.0076
  612MOL0     C80657  11.195   8.804   2.470  0.2007 -0.1902  0.4144
  612MOL0     C80658  11.187   8.804   2.611 -0.0716 -0.3145  0.0560
  612MOL0     C80659  11.238   8.701   2.693 -0.0701  0.7766  0.7164
  612MOL0     O80660  11.235   8.703   2.827  0.9423  0.5544 -0.4186
  612MOL0     C80661  11.354   8.752   2.884 -0.0293  0.1216  0.4373
  612MOL0     C80662  11.343   8.732   3.030 -0.5545 -0.2261 -0.3657
  612MOL0     C80663  11.341   8.587   3.064 -0.0510  0.1328  0.7363
  612MOL0     C80664  11.317   8.554   3.216  0.2168  0.2519  0.2429
  612MOL0     C80665  11.177   8.582   3.268  0.4522  0.1116  0.0955
  612MOL0     C80666  11.171   8.534   3.420 -0.1088  0.5156  0.6098
  612MOL0     C80667  11.152   8.387   3.432 -1.1365 -0.3179  0.2417
  612MOL0     C80668  11.115   8.330   3.571 -0.7705 -0.3767  0.7467
  612MOL0     N80669  11.203   8.230   3.623 -0.1910  0.3199 -0.1942
  612MOL0     C80670  11.193   8.092   3.580  0.8041  0.4214  0.8811
  612MOL0     C80671  11.242   8.029   3.686 -0.5885 -0.6363 -1.0166
  612MOL0     C80672  11.233   7.878   3.713  1.2925 -0.0584 -0.4188
  612MOL0     C80673  11.214   7.848   3.865 -0.1904 -0.0940 -0.9081
  612MOL0     C80674  11.089   7.887   3.946 -0.2175  0.1183  0.0101
  612MOL0     C80675  10.948   7.856   3.876 -0.7936 -0.1340 -0.2720
  612MOL0     O80676  10.937   7.711   3.860  0.3427 -0.5413  0.1110
  612MOL0     C80677  10.827   7.672   3.802  1.2803 -1.2298 -0.9681
  612MOL0     C80678  10.800   7.538   3.772  0.4474  0.5014 -0.2327
  612MOL0     C80679  10.675   7.502   3.720  0.4965 -1.0454 -0.3827
  612MOL0     C80680  10.571   7.591   3.687 -0.0374  0.9319  0.0165
  612MOL0     C80681  10.433   7.546   3.659  0.1642  0.0573  1.0521
  612MOL0     O80682  10.423   7.409   3.674  0.2792 -0.1450 -0.0673
  612MOL0     C80683  10.310   7.340   3.646  0.6035  0.0479  0.8723
  612MOL0     C80684  10.182   7.376   3.672  1.1669  0.6722  0.6295
  612MOL0     C80685  10.074   7.284   3.641  0.9744 -1.3500  0.2369
  612MOL0     C80686  10.094   7.167   3.579 -0.8789  0.9419  0.8367
  612MOL0     O80687   9.981   7.082   3.572 -0.2709  0.2589 -0.2171
  612MOL0     C80688   9.997   6.944   3.531 -0.6156 -0.7842  0.0627
  612MOL0     C80689   9.866   6.874   3.516 -0.0636  0.8071  1.1296
  612MOL0     C80690   9.813   6.891   3.371 -0.0762 -0.7499  0.1810
  612MOL0     C80691   9.752   7.026   3.358 -0.1989 -0.2027 -0.1892
  612MOL0     C80692   9.695   7.031   3.201  0.2136  0.0077 -0.8653
  612MOL0     C80693   9.545   6.989   3.181  0.1478  0.4280 -0.1209
  612MOL0     C80694   9.508   7.019   3.027  0.9506 -0.7481 -0.2221
  612MOL0     C80695   9.396   6.931   2.982 -1.2662  0.0325 -0.2147
  612MOL0    Cl80696   9.321   7.004   2.839  0.1398  0.2031 -0.2828
  612MOL0     C80697  10.225   7.133   3.541  0.2250  0.3601  0.0004
  612MOL0     C80698  10.335   7.217   3.573 -0.2324  0.3268  0.3518
  612MOL0     O80699  10.347   7.624   3.626 -0.4836  0.3159 -0.2242
  612MOL0     C80700  10.595   7.725   3.708  0.2224  0.3896  0.8754
  612MOL0     C80701  10.724   7.765   3.769 -0.3068 -0.6374  0.5663
  612MOL0     N80702  11.280   8.115   3.786 -0.1603  0.3091 -0.0794
  612MOL0     N80703  11.255   8.238   3.749  0.0342 -0.2159 -0.5056
  612MOL0     C80704  11.322   8.604   2.620  0.0019 -0.3641 -0.4764
  612MOL0     C80705  11.315   8.606   2.481 -1.0405 -0.3907  0.3972
  612MOL0     C80706  11.170   8.722   2.043 -0.0241 -0.7037 -0.4107
  612MOL0     C80707  11.073   8.768   1.953  0.4088 -0.3306  0.9540
  612MOL0     C80708  11.102   8.800   1.820  0.2271  0.3908  1.0546
  612MOL0     C80709  11.226   8.791   1.770 -0.7462  0.4934  0.1597
  612MOL0     O80710  11.254   8.810   1.636 -0.6028 -0.4751  0.5477
  612MOL0     C80711  11.373   8.893   1.612 -0.6845 -0.9045  0.6531
  612MOL0     C80712  11.335   9.004   1.518  0.1260  0.2813 -0.0436
  612MOL0     C80713  11.462   9.087   1.492 -0.5742 -0.6623 -0.3173
  612MOL0     C80714  11.431   9.214   1.420  0.5013  0.3223  0.1031
  612MOL0     C80715  11.407   9.323   1.516 -0.0191 -0.1381 -0.1345
  612MOL0     C80716  11.368   9.411   1.597 -0.2081 -0.5076  0.1698
  612MOL0     C80717  11.321   8.728   1.854 -0.4488  0.7985  0.1629
  612MOL0     C80718  11.297   8.697   1.988 -0.0720  0.1148  0.0077
  612MOL0     H80719  11.163   8.885   2.406  1.5219 -1.3215 -1.8294
  612MOL0     H80720  11.134   8.878   2.670  4.4845  0.2717  4.0954
  612MOL0     H80721  11.364   8.857   2.854 -0.1962  0.0203  0.0197
  612MOL0     H80722  11.445   8.695   2.860  0.4151  1.3437 -0.9753
  612MOL0     H80723  11.248   8.776   3.061 -0.7639 -0.3546 -0.8295
  612MOL0     H80724  11.414   8.791   3.089 -0.9671 -1.1692  1.1219
  612MOL0     H80725  11.440   8.544   3.044  0.4285  0.3064  2.5057
  612MOL0     H80726  11.263   8.540   3.004 -1.2557 -1.2483  3.2016
  612MOL0     H80727  11.350   8.451   3.230 -1.5903 -0.4586 -0.4218
  612MOL0     H80728  11.390   8.610   3.275  2.6440 -3.4671  1.0894
  612MOL0     H80729  11.105   8.531   3.203  1.8364  0.3274 -1.6791
  612MOL0     H80730  11.152   8.688   3.264  0.7453  0.4754  3.8474
  612MOL0     H80731  11.093   8.584   3.478  1.9864  0.2977  3.8449
  612MOL0     H80732  11.267   8.553   3.468  0.5671  2.0036 -1.2263
  612MOL0     H80733  11.068   8.369   3.364  0.5134  0.1178 -2.0486
  612MOL0     H80734  11.241   8.327   3.409 -1.7696 -1.0630 -0.3377
  612MOL0     H80735  11.008   8.307   3.576 -0.7493 -0.2223  3.9355
  612MOL0     H80736  11.144   8.407   3.643  0.6098 -1.1230  1.0117
  612MOL0     H80737  11.150   8.061   3.486 -1.2115  1.3392  1.4477
  612MOL0     H80738  11.324   7.833   3.672  0.3510  0.1837 -2.9727
  612MOL0     H80739  11.152   7.837   3.652  2.3871 -3.9192  0.4435
  612MOL0     H80740  11.302   7.886   3.919 -0.7373  1.4831 -1.0898
  612MOL0     H80741  11.218   7.739   3.873  2.2167 -0.0662 -0.9141
  612MOL0     H80742  11.085   7.821   4.034  0.0903  0.3965  0.2370
  612MOL0     H80743  11.103   7.986   3.989 -0.1304 -0.7298  2.0561
  612MOL0     H80744  10.944   7.909   3.780  2.4782 -1.3496 -1.2174
  612MOL0     H80745  10.875   7.878   3.954  2.0691 -0.7325  2.8240
  612MOL0     H80746  10.872   7.458   3.785 -2.2468 -2.1129 -0.3331
  612MOL0     H80747  10.655   7.396   3.709 -4.8473 -0.3403  0.0286
  612MOL0     H80748  10.169   7.472   3.719 -0.6057  1.1485 -0.7103
  612MOL0     H80749   9.974   7.303   3.678  1.0269 -0.8911  0.1552
  612MOL0     H80750  10.053   6.882   3.602 -4.1328 -1.1137  2.8123
  612MOL0     H80751  10.041   6.938   3.431 -2.8675  0.8846 -1.1054
  612MOL0     H80752   9.806   6.919   3.596  0.3451 -1.1783  2.6322
  612MOL0     H80753   9.886   6.767   3.528  1.9203  0.8813 -0.8725
  612MOL0     H80754   9.728   6.823   3.360 -1.4233  1.1320 -1.6967
  612MOL0     H80755   9.882   6.867   3.290 -2.3519 -1.6468 -1.6277
  612MOL0     H80756   9.674   7.043   3.433  1.1402  0.2371  1.1602
  612MOL0     H80757   9.833   7.098   3.374  3.6562 -3.7837 -1.7060
  612MOL0     H80758   9.763   6.975   3.136  1.3735  3.0298 -2.4834
  612MOL0     H80759   9.696   7.137   3.174 -1.3693 -0.4970 -3.2417
  612MOL0     H80760   9.479   7.036   3.254 -1.1050  0.5969 -1.3153
  612MOL0     H80761   9.542   6.880   3.191  0.3195  0.5769  1.8427
  612MOL0     H80762   9.474   7.123   3.023 -2.6179 -1.7028  1.4692
  612MOL0     H80763   9.598   7.010   2.966  2.5048 -1.4150  2.0556
  612MOL0     H80764   9.323   6.917   3.063  1.7507 -3.0281  2.2258
  612MOL0     H80765   9.415   6.826   2.962 -0.3721  0.3900 -1.3074
  612MOL0     H80766  10.240   7.035   3.497  0.0020  0.9205 -1.3504
  612MOL0     H80767  10.442   7.201   3.565 -0.4819 -0.6279 -2.0618
  612MOL0     H80768  10.528   7.802   3.671  0.2810 -0.2747 -0.6981
  612MOL0     H80769  10.717   7.871   3.793 -1.1183 -1.0008  2.0552
  612MOL0     H80770  11.380   8.532   2.676 -0.3674 -0.0668  0.2969
  612MOL0     H80771  11.369   8.529   2.427 -1.8596 -0.0865 -0.9294
  612MOL0     H80772  10.975   8.793   1.993 -0.9284 -1.7042 -1.2205
  612MOL0     H80773  11.030   8.834   1.746  0.8018 -2.1118 -0.8174
  612MOL0     H80774  11.455   8.829   1.579 -0.8202 -1.4571  1.3461
  612MOL0     H80775  11.411   8.944   1.702 -1.8680  2.5496 -0.6263
  612MOL0     H80776  11.308   8.966   1.420  1.0526  1.3805 -0.7521
  612MOL0     H80777  11.253   9.059   1.565 -0.4149 -0.8523  0.3759
  612MOL0     H80778  11.539   9.036   1.434  1.7948  2.0029  0.2411
  612MOL0     H80779  11.522   9.107   1.581 -0.2210  1.3132 -0.9429
  612MOL0     H80780  11.517   9.240   1.357  0.6006  0.0821  0.1376
  612MOL0     H80781  11.349   9.187   1.353  0.6687 -0.4152  0.1919
  612MOL0     H80782  11.336   9.478   1.674 -2.8912  0.0697 -1.3089
  612MOL0     H80783  11.417   8.710   1.806 -0.9206  0.8530 -0.8322
  612MOL0     H80784  11.371   8.643   2.047  1.4716  1.6391 -0.4776
  613MOL0     O80785   2.561   0.565   7.981 -0.0195  0.1599 -0.2986
  613MOL0     C80786   2.520   0.581   7.867 -0.4819  0.9933  0.6606
  613MOL0     O80787   2.548   0.680   7.781  0.9496  0.8622 -0.6518
  613MOL0     C80788   2.642   0.772   7.813 -0.8350 -0.4568  0.0002
  613MOL0     C80789   2.600   0.904   7.793 -0.4783  0.0782  0.7477
  613MOL0     C80790   2.680   1.016   7.817 -0.4488 -0.7680 -0.0903
  613MOL0     C80791   2.817   1.005   7.857 -0.5493  0.7336 -0.5311
  613MOL0     O80792   2.895   1.109   7.902  0.0213 -0.5447  0.5863
  613MOL0     C80793   2.885   1.232   7.833 -0.3582  0.0225  0.3174
  613MOL0     C80794   2.963   1.338   7.905 -0.0620  0.3055  0.7229
  613MOL0     C80795   2.888   1.398   8.021  0.0437  0.7338 -0.7724
  613MOL0     C80796   2.955   1.518   8.075  0.6701 -0.6387  0.8287
  613MOL0     C80797   2.885   1.584   8.190 -0.2959 -0.6353  0.2926
  613MOL0     C80798   2.840   1.728   8.153 -0.2272  0.5256  0.4081
  613MOL0     C80799   2.722   1.752   8.056 -0.2429  1.1429 -0.3021
  613MOL0     C80800   2.689   1.898   8.028 -0.4519  0.2023 -1.0225
  613MOL0     N80801   2.703   1.988   8.146  0.3424  0.4712 -0.9691
  613MOL0     C80802   2.628   1.955   8.261  0.4108  0.2189 -0.4369
  613MOL0     C80803   2.702   2.028   8.353  0.3937 -0.3402 -0.6805
  613MOL0     C80804   2.689   2.035   8.507  0.1787 -0.4462 -0.4587
  613MOL0     C80805   2.572   2.124   8.560  0.6492  0.0108  0.8177
  613MOL0     C80806   2.613   2.160   8.706 -0.4135  0.9193 -0.1888
  613MOL0     C80807   2.495   2.202   8.790 -0.2505  0.1809 -0.5780
  613MOL0     O80808   2.509   2.170   8.927  0.6586 -0.2647 -0.1113
  613MOL0     C80809   2.423   2.241   9.005  0.5972  1.3470 -0.0078
  613MOL0     C80810   2.290   2.277   8.979 -0.1531  0.5694 -0.0600
  613MOL0     C80811   2.207   2.337   9.074 -0.3708 -0.5858  0.0110
  613MOL0     C80812   2.256   2.369   9.202  0.3636 -0.0769 -0.0002
  613MOL0     C80813   2.176   2.442   9.305 -0.1054 -0.9397 -0.6185
  613MOL0     O80814   2.036   2.439   9.302 -0.1835 -0.0475  0.3792
  613MOL0     C80815   1.957   2.503   9.392 -0.9269  0.2214  1.1687
  613MOL0     C80816   1.982   2.611   9.483 -0.1317  0.2044 -0.7949
  613MOL0     C80817   1.862   2.662   9.552 -0.0676  0.1177 -0.2735
  613MOL0     C80818   1.732   2.618   9.534  0.6009 -0.3352  0.3869
  613MOL0     O80819   1.633   2.657   9.616 -0.7619  0.2600  0.8077
  613MOL0     C80820   1.574   2.775   9.580  0.1136  0.0851  1.3537
  613MOL0     C80821   1.506   2.832   9.700 -0.8126  0.5094  0.6223
  613MOL0     C80822   1.395   2.928   9.658 -0.2456  0.2140  0.4581
  613MOL0     C80823   1.340   2.999   9.781  0.3718  0.7633 -0.8989
  613MOL0     C80824   1.210   3.077   9.750 -0.8577  0.4002  0.8831
  613MOL0     C80825   1.226   3.222   9.694  0.7996  0.0450  0.5126
  613MOL0     C80826   1.095   3.291   9.710 -1.0013 -1.0172 -0.8883
  613MOL0     C80827   1.110   3.436   9.660 -0.1392  0.4723  0.2802
  613MOL0    Cl80828   1.200   3.527   9.794  0.0482 -0.4594 -0.2913
  613MOL0     C80829   1.714   2.512   9.444  0.2128  0.2552 -0.1877
  613MOL0     C80830   1.822   2.457   9.376 -0.6746 -0.4574 -0.4141
  613MOL0     O80831   2.244   2.503   9.387 -0.1460  0.7565  0.5951
  613MOL0     C80832   2.388   2.327   9.234  0.0471  0.0522  1.1221
  613MOL0     C80833   2.466   2.269   9.134 -0.6124  0.6735 -0.4582
  613MOL0     N80834   2.799   2.101   8.287  0.3100  0.5729 -0.7188
  613MOL0     N80835   2.803   2.072   8.168 -0.6209  0.3087 -1.0299
  613MOL0     C80836   2.863   0.868   7.864 -0.1028 -1.3030  1.5413
  613MOL0     C80837   2.776   0.756   7.852 -0.5857 -0.2856  0.8222
  613MOL0     C80838   2.402   0.499   7.832  0.0371 -0.8009  0.4242
  613MOL0     C80839   2.384   0.368   7.884  0.0083  0.4155 -0.6932
  613MOL0     C80840   2.259   0.309   7.874 -0.5168 -1.3278 -0.2211
  613MOL0     C80841   2.160   0.376   7.800  0.3698  0.0077 -0.9313
  613MOL0     O80842   2.043   0.306   7.782 -0.3330 -0.5280  0.2246
  613MOL0     C80843   2.013   0.297   7.641  0.9396  0.4642  0.0306
  613MOL0     C80844   1.885   0.207   7.638 -0.1666 -0.8866 -0.2412
  613MOL0     C80845   1.899   0.072   7.699 -0.5913 -0.3782  0.1616
  613MOL0     C80846   1.764   0.008   7.707 -0.9715  0.0279  0.2867
  613MOL0     C80847   1.706  -0.041   7.582  0.1444  0.0180 -0.2468
  613MOL0     C80848   1.670  -0.055   7.475  1.2516  0.7262 -0.6076
  613MOL0     C80849   2.171   0.501   7.746 -0.0635 -0.4042 -0.6260
  613MOL0     C80850   2.300   0.557   7.747  0.1545  0.0949  0.0476
  613MOL0     H80851   2.499   0.910   7.754 -0.6430  0.2614  1.1976
  613MOL0     H80852   2.625   1.110   7.812 -1.4207 -1.3033  0.3080
  613MOL0     H80853   2.780   1.255   7.815  0.0004  0.7852 -0.9446
  613MOL0     H80854   2.931   1.209   7.736  0.2134 -1.6546  0.9510
  613MOL0     H80855   2.985   1.415   7.830 -1.3565  0.8770  0.9044
  613MOL0     H80856   3.054   1.292   7.945 -0.7399 -1.2338  0.5560
  613MOL0     H80857   2.887   1.321   8.100  2.5517  2.4862  1.1459
  613MOL0     H80858   2.787   1.425   7.987 -0.4036  0.6057  0.3931
  613MOL0     H80859   3.060   1.502   8.103  1.2328 -1.0827 -1.3714
  613MOL0     H80860   2.972   1.587   7.992  0.2746 -0.3607  0.9774
  613MOL0     H80861   2.944   1.588   8.282 -0.0179  1.7688  0.0833
  613MOL0     H80862   2.802   1.519   8.219 -2.0060  0.2900 -2.2282
  613MOL0     H80863   2.931   1.783   8.127  0.3218 -0.1092  0.9461
  613MOL0     H80864   2.799   1.753   8.251 -0.4853  0.7516  0.2439
  613MOL0     H80865   2.745   1.704   7.961 -1.4945 -0.8165  0.3173
  613MOL0     H80866   2.634   1.696   8.091 -1.0602  0.2937 -3.3994
  613MOL0     H80867   2.587   1.917   7.996 -1.8967 -1.8958  1.8905
  613MOL0     H80868   2.763   1.929   7.954 -0.8181  1.2507 -0.9613
  613MOL0     H80869   2.549   1.883   8.273 -0.8465  1.3523 -1.5042
  613MOL0     H80870   2.781   2.071   8.554 -1.2677  3.8130 -0.4866
  613MOL0     H80871   2.668   1.932   8.540 -2.1887 -0.2783 -1.2422
  613MOL0     H80872   2.477   2.070   8.552 -0.7128  2.5238 -2.4833
  613MOL0     H80873   2.563   2.223   8.513  3.1552 -0.0684  0.0096
  613MOL0     H80874   2.658   2.070   8.750 -0.1281  1.4374  0.6083
  613MOL0     H80875   2.691   2.236   8.703  1.0614 -0.4510  1.1672
  613MOL0     H80876   2.402   2.159   8.753 -0.1947 -1.9770  1.5949
  613MOL0     H80877   2.490   2.310   8.772 -2.7961  0.1617 -0.2548
  613MOL0     H80878   2.248   2.237   8.887 -1.0208 -3.7780  1.9885
  613MOL0     H80879   2.104   2.362   9.050 -0.5029 -0.1550  0.9832
  613MOL0     H80880   2.076   2.659   9.507 -0.2010  0.9869 -1.9986
  613MOL0     H80881   1.861   2.726   9.640 -3.3451  0.9390 -0.7633
  613MOL0     H80882   1.504   2.746   9.502  1.8015  0.8875 -0.5562
  613MOL0     H80883   1.648   2.845   9.540  1.7615 -3.8515 -3.4374
  613MOL0     H80884   1.590   2.877   9.754  0.7423 -1.7745  0.2507
  613MOL0     H80885   1.461   2.758   9.768  0.5835  0.2461  1.2921
  613MOL0     H80886   1.309   2.879   9.611  1.2272 -1.1115 -0.9399
  613MOL0     H80887   1.446   2.997   9.591 -0.7524  0.5524  0.4113
  613MOL0     H80888   1.321   2.925   9.859  0.4449  1.4468 -0.2181
  613MOL0     H80889   1.417   3.067   9.817 -0.4518 -0.0408  2.7879
  613MOL0     H80890   1.155   3.076   9.845  1.7791 -0.1639  2.5132
  613MOL0     H80891   1.156   3.015   9.678 -1.9752  0.5517  1.5621
  613MOL0     H80892   1.242   3.213   9.586 -3.1026 -1.3827 -0.1052
  613MOL0     H80893   1.310   3.279   9.734  2.4005 -2.2484  0.5795
  613MOL0     H80894   1.014   3.239   9.658 -3.4458 -0.1885  1.8151
  613MOL0     H80895   1.071   3.301   9.817 -2.4270  0.9244 -1.3253
  613MOL0     H80896   1.016   3.478   9.624 -1.5231 -1.7368  1.0781
  613MOL0     H80897   1.182   3.442   9.578 -0.6238 -0.5723 -0.2363
  613MOL0     H80898   1.614   2.471   9.441  0.2323  0.2557 -1.1398
  613MOL0     H80899   1.806   2.374   9.308 -0.3266  1.1690 -2.5929
  613MOL0     H80900   2.436   2.360   9.326  2.2470  2.8132 -0.8343
  613MOL0     H80901   2.566   2.241   9.164  0.1396  2.0225 -1.5820
  613MOL0     H80902   2.966   0.855   7.896  0.9675  3.3360  0.6790
  613MOL0     H80903   2.817   0.655   7.849  1.0707  0.3180 -2.7369
  613MOL0     H80904   2.463   0.327   7.946  0.0626 -0.8671 -1.5519
  613MOL0     H80905   2.250   0.205   7.903  1.8248 -0.9787  2.0582
  613MOL0     H80906   2.092   0.251   7.581  0.9801  0.8522 -0.2212
  613MOL0     H80907   1.992   0.399   7.606 -0.2453  0.4019  0.5082
  613MOL0     H80908   1.808   0.258   7.697 -0.4790  0.0152 -1.3980
  613MOL0     H80909   1.844   0.207   7.537 -1.0796 -3.0178  0.0783
  613MOL0     H80910   1.934   0.094   7.800 -0.4623 -2.6300  0.6596
  613MOL0     H80911   1.956  -0.009   7.652 -2.4523 -3.2955  2.5713
  613MOL0     H80912   1.773  -0.080   7.771 -1.6356 -0.7821 -0.6893
  613MOL0     H80913   1.695   0.079   7.752 -2.3632 -0.8223 -0.4381
  613MOL0     H80914   1.627  -0.092   7.384 -2.7406 -2.3349  2.1448
  613MOL0     H80915   2.095   0.566   7.702 -0.5719 -0.4404  0.1877
  613MOL0     H80916   2.315   0.656   7.705 -2.5164  0.0105 -1.3031
  614MOL0     O80917   6.111  10.032   4.659  0.0262  0.0297 -0.3841
  614MOL0     C80918   6.193   9.996   4.570  0.5420  0.0536 -0.8440
  614MOL0     O80919   6.178  10.005   4.434  0.2557  0.1419  1.4834
  614MOL0     C80920   6.093  10.092   4.374  0.7981 -0.2018 -1.1139
  614MOL0     C80921   6.083  10.077   4.237 -0.6954 -0.0185 -0.6118
  614MOL0     C80922   5.992  10.155   4.170 -0.3726  0.0374 -0.3419
  614MOL0     C80923   5.920  10.260   4.234  0.1945  0.3689  0.0442
  614MOL0     O80924   5.827  10.337   4.179  0.0761  0.0698 -0.3523
  614MOL0     C80925   5.785  10.314   4.043  0.6587  0.1016 -0.2275
  614MOL0     C80926   5.682  10.424   3.990  0.0199  0.4267 -0.2717
  614MOL0     C80927   5.555  10.445   4.071  0.2269 -0.1815  0.4443
  614MOL0     C80928   5.568  10.539   4.195 -0.4268 -0.4596  0.1698
  614MOL0     C80929   5.425  10.568   4.250 -0.0096  0.5677  0.1078
  614MOL0     C80930   5.419  10.693   4.343  0.0762 -0.3513  0.2450
  614MOL0     C80931   5.276  10.713   4.400  0.1449 -0.0280 -0.3027
  614MOL0     C80932   5.213  10.593   4.459 -0.7609  0.5808 -0.1916
  614MOL0     N80933   5.084  10.614   4.520 -0.7455 -1.1638 -0.6757
  614MOL0     C80934   4.961  10.643   4.459 -0.3610  0.4597 -0.2134
  614MOL0     C80935   4.878  10.651   4.564  0.3379 -0.3169  0.1622
  614MOL0     C80936   4.734  10.658   4.556 -0.1335 -0.6891 -0.3799
  614MOL0     C80937   4.684  10.810   4.564 -0.4509  0.0326  0.0567
  614MOL0     C80938   4.644  10.885   4.432 -1.1139 -0.6302  1.4200
  614MOL0     C80939   4.563  11.008   4.460  0.1433 -0.5409 -0.3397
  614MOL0     O80940   4.545  11.109   4.365  0.6924  0.5342  0.7769
  614MOL0     C80941   4.474  11.098   4.250  0.6775  0.1102 -0.2071
  614MOL0     C80942   4.423  10.975   4.200 -0.3813 -0.1333 -1.6979
  614MOL0     C80943   4.333  10.986   4.098 -0.1309  0.1850 -0.4303
  614MOL0     C80944   4.303  11.101   4.021 -0.3951 -0.7736 -0.2218
  614MOL0     C80945   4.223  11.098   3.901 -0.2145 -0.2621 -0.4008
  614MOL0     O80946   4.184  10.979   3.854  0.5151 -0.0347  0.4869
  614MOL0     C80947   4.075  10.978   3.772  1.0138  0.4634 -0.3542
  614MOL0     C80948   3.958  11.060   3.791  0.8972 -0.4847  0.9822
  614MOL0     C80949   3.851  11.051   3.698  0.2371 -0.7121 -0.7687
  614MOL0     C80950   3.857  10.961   3.592 -0.1640 -0.1034  0.3549
  614MOL0     O80951   3.745  10.965   3.514  0.1030  0.7077 -0.0684
  614MOL0     C80952   3.765  10.940   3.374  0.6552  0.7094 -0.9850
  614MOL0     C80953   3.636  10.981   3.294  0.6743 -0.7942 -0.2714
  614MOL0     C80954   3.655  10.965   3.143  0.4232  0.3384  0.9209
  614MOL0     C80955   3.622  10.833   3.102  1.0588  0.4402 -0.1074
  614MOL0     C80956   3.600  10.815   2.950  0.6061 -0.5296  0.5971
  614MOL0     C80957   3.729  10.815   2.879 -0.5163 -0.0348  0.4974
  614MOL0     C80958   3.712  10.788   2.731  1.4402  0.3595  0.8781
  614MOL0     C80959   3.645  10.646   2.697 -0.8871  1.0796  0.3523
  614MOL0    Cl80960   3.619  10.625   2.528  0.2402  0.3754  0.0848
  614MOL0     C80961   3.967  10.877   3.571 -0.8194  0.7501 -0.6111
  614MOL0     C80962   4.077  10.893   3.658 -0.5863  0.3734 -0.4078
  614MOL0     O80963   4.188  11.203   3.851 -0.1049  0.0615 -0.0259
  614MOL0     C80964   4.350  11.219   4.076  0.6459  0.0468  0.0853
  614MOL0     C80965   4.427  11.218   4.197  0.9203  0.3289 -0.0219
  614MOL0     N80966   4.948  10.648   4.680 -0.8214  0.4187 -0.0126
  614MOL0     N80967   5.072  10.626   4.651 -0.4993  0.2637 -0.2700
  614MOL0     C80968   5.943  10.281   4.373 -0.8210 -0.3167 -1.5315
  614MOL0     C80969   6.031  10.198   4.442  0.8633 -0.2210 -0.3059
  614MOL0     C80970   6.295   9.908   4.612 -0.0544 -0.7120  0.0784
  614MOL0     C80971   6.272   9.805   4.709  0.2259  0.5657 -0.1479
  614MOL0     C80972   6.369   9.709   4.740 -1.0818  0.0711  0.5634
  614MOL0     C80973   6.480   9.706   4.669 -0.4792 -0.2070  0.7002
  614MOL0     O80974   6.563   9.605   4.704 -0.0384  0.3592 -0.5668
  614MOL0     C80975   6.676   9.575   4.626 -0.4831 -0.4850 -0.2378
  614MOL0     C80976   6.740   9.443   4.685 -0.4064 -0.9891  0.0129
  614MOL0     C80977   6.893   9.431   4.646 -0.2946 -0.7051 -0.0530
  614MOL0     C80978   6.987   9.488   4.748  0.4058 -0.9077  0.0714
  614MOL0     C80979   6.996   9.636   4.726 -0.6852  0.8247  0.3976
  614MOL0     C80980   6.998   9.755   4.697  0.3590  0.1768  0.8038
  614MOL0     C80981   6.509   9.804   4.577 -0.3374  0.0559 -0.2829
  614MOL0     C80982   6.417   9.908   4.552  0.1475 -0.6587  0.0385
  614MOL0     H80983   6.121   9.987   4.189 -3.0911 -0.3670 -2.0207
  614MOL0     H80984   5.991  10.143   4.062  0.7701 -0.5831 -0.2877
  614MOL0     H80985   5.731  10.219   4.046  1.2420 -0.2222  2.5218
  614MOL0     H80986   5.865  10.300   3.969 -0.1142  2.0758 -1.4940
  614MOL0     H80987   5.652  10.394   3.889  1.6458  0.5681 -0.8332
  614MOL0     H80988   5.729  10.522   3.980 -0.7920  1.1234  2.1048
  614MOL0     H80989   5.521  10.350   4.114  1.6624 -0.1470  1.7458
  614MOL0     H80990   5.473  10.489   4.014  1.7074  0.4933 -1.2643
  614MOL0     H80991   5.621  10.476   4.267 -3.8740 -0.4816  2.9259
  614MOL0     H80992   5.616  10.634   4.169 -0.2995 -1.1706 -2.5259
  614MOL0     H80993   5.393  10.471   4.291 -2.7299  1.4503  0.2884
  614MOL0     H80994   5.350  10.591   4.174  0.4815  0.5761 -0.3804
  614MOL0     H80995   5.436  10.781   4.281 -1.6124 -0.3349 -0.2624
  614MOL0     H80996   5.504  10.687   4.411  0.2515 -0.5905  0.0071
  614MOL0     H80997   5.268  10.792   4.475 -0.1969 -0.7432  0.4391
  614MOL0     H80998   5.212  10.750   4.319 -2.1857 -2.2903  0.3462
  614MOL0     H80999   5.277  10.562   4.543 -0.1029 -0.9945 -1.2328
  614MOL0     H81000   5.203  10.516   4.382 -1.2353  0.8210 -0.3745
  614MOL0     H81001   4.942  10.648   4.352 -0.2488  1.5266 -0.1923
  614MOL0     H81002   4.695  10.603   4.643 -1.9244 -0.5080 -1.0245
  614MOL0     H81003   4.700  10.618   4.460 -0.4396 -0.4139 -0.3881
  614MOL0     H81004   4.754  10.878   4.615 -2.6430  3.2664 -0.9089
  614MOL0     H81005   4.603  10.820   4.637 -0.0397  1.8963  0.3272
  614MOL0     H81006   4.733  10.924   4.382 -0.9529  0.4941  2.5356
  614MOL0     H81007   4.595  10.817   4.362  4.4285 -1.3260 -2.4523
  614MOL0     H81008   4.605  11.073   4.538 -1.5815  3.2981 -2.3582
  614MOL0     H81009   4.469  10.961   4.490  1.1082 -1.9294  0.6399
  614MOL0     H81010   4.449  10.883   4.250  0.5465 -0.1412 -2.1676
  614MOL0     H81011   4.285  10.893   4.070  0.6983 -0.5766  0.6054
  614MOL0     H81012   3.955  11.143   3.861  1.8343 -1.0387  1.6953
  614MOL0     H81013   3.756  11.103   3.706  1.0041  0.5357  1.2302
  614MOL0     H81014   3.786  10.833   3.369 -0.5864  0.2924  1.3824
  614MOL0     H81015   3.845  11.001   3.331  2.5711 -2.1370 -1.7528
  614MOL0     H81016   3.619  11.088   3.304  1.2838 -0.1461 -4.4883
  614MOL0     H81017   3.556  10.921   3.338  2.3470 -3.7627 -1.0179
  614MOL0     H81018   3.760  10.977   3.117  0.1940  1.3356  0.4131
  614MOL0     H81019   3.598  11.041   3.088 -1.1952 -0.1046  1.8905
  614MOL0     H81020   3.698  10.765   3.143 -0.6628  0.1872  3.0695
  614MOL0     H81021   3.527  10.796   3.144  0.4339 -1.9101 -3.2385
  614MOL0     H81022   3.537  10.884   2.892  3.4442  0.9481 -0.9658
  614MOL0     H81023   3.554  10.716   2.940  2.7476 -1.3186 -2.9858
  614MOL0     H81024   3.800  10.742   2.920  4.0797  2.7580 -1.7270
  614MOL0     H81025   3.763  10.918   2.890 -4.2488  1.2925  1.0165
  614MOL0     H81026   3.644  10.860   2.684  1.4890  1.4756  2.4491
  614MOL0     H81027   3.810  10.803   2.686  1.4227 -1.1795  0.2887
  614MOL0     H81028   3.550  10.633   2.748 -0.0634  0.3206  1.7435
  614MOL0     H81029   3.706  10.562   2.732 -1.9230 -0.3271 -1.0756
  614MOL0     H81030   3.968  10.796   3.498 -2.3029 -1.6401  1.8381
  614MOL0     H81031   4.159  10.822   3.650  1.3641  1.9093  3.4046
  614MOL0     H81032   4.321  11.318   4.043  0.2074 -0.3061 -0.6235
  614MOL0     H81033   4.463  11.308   4.246 -0.7758  0.5645  0.8554
  614MOL0     H81034   5.892  10.357   4.431 -1.9192 -1.6216 -0.7319
  614MOL0     H81035   6.053  10.220   4.546 -0.5193 -1.4439  0.2807
  614MOL0     H81036   6.174   9.810   4.756 -0.2952  0.0548 -1.1494
  614MOL0     H81037   6.360   9.630   4.814  0.9594  0.9061  1.7842
  614MOL0     H81038   6.751   9.652   4.608 -4.5400  2.9648 -5.2974
  614MOL0     H81039   6.653   9.557   4.520 -0.8726 -1.1332 -0.0502
  614MOL0     H81040   6.719   9.430   4.792 -0.3749 -2.5788 -0.1469
  614MOL0     H81041   6.681   9.361   4.641 -0.7654 -0.2024 -0.9944
  614MOL0     H81042   6.903   9.467   4.544 -2.8791 -1.9732 -0.8455
  614MOL0     H81043   6.920   9.325   4.644 -1.7502 -1.1765 -4.3387
  614MOL0     H81044   6.956   9.459   4.849 -1.5390 -0.2201 -0.2839
  614MOL0     H81045   7.087   9.458   4.715 -0.4860 -0.2998 -3.6087
  614MOL0     H81046   7.003   9.848   4.644  2.6611 -1.1830 -1.6005
  614MOL0     H81047   6.602   9.802   4.522 -0.9369 -0.6610 -1.2967
  614MOL0     H81048   6.434   9.969   4.464 -0.5536 -0.0514  0.3205
  615MOL0     O81049  11.238   6.902   5.265 -0.7140 -0.5411  0.2308
  615MOL0     C81050  11.190   6.980   5.177 -0.4698 -0.3043  0.3925
  615MOL0     O81051  11.211   6.966   5.042 -0.6302 -0.3729  0.0260
  615MOL0     C81052  11.306   6.892   4.985  0.4972  0.5093 -0.5865
  615MOL0     C81053  11.424   6.859   5.037 -0.9485  0.2984 -0.5294
  615MOL0     C81054  11.508   6.763   4.984 -0.8855  0.0480 -0.3947
  615MOL0     C81055  11.472   6.701   4.866  0.6489  0.2332  0.9097
  615MOL0     O81056  11.542   6.607   4.794  0.3235  0.6475 -0.6732
  615MOL0     C81057  11.644   6.531   4.872 -0.3886  0.3761  0.0497
  615MOL0     C81058  11.708   6.428   4.775 -1.4032  0.6237 -0.0239
  615MOL0     C81059  11.600   6.373   4.687 -0.1805  1.7177 -0.5283
  615MOL0     C81060  11.662   6.251   4.612  0.3125  1.0395  0.3753
  615MOL0     C81061  11.555   6.200   4.507 -0.5275  0.2491 -1.1080
  615MOL0     C81062  11.610   6.069   4.441  1.4345  0.3922  1.4518
  615MOL0     C81063  11.524   6.037   4.318 -0.1114  0.3461 -0.1960
  615MOL0     C81064  11.384   6.015   4.345 -0.7372  0.6105 -0.1141
  615MOL0     N81065  11.306   5.980   4.226  0.0692  0.1470 -0.4875
  615MOL0     C81066  11.227   5.861   4.194  0.0100  0.9695  0.0173
  615MOL0     C81067  11.185   5.883   4.065 -0.9665  0.4860  0.1809
  615MOL0     C81068  11.085   5.784   3.999 -0.6666  0.1309  0.0409
  615MOL0     C81069  11.166   5.658   3.965  0.1382 -0.3102 -0.1579
  615MOL0     C81070  11.211   5.674   3.821  0.6053  0.5208  0.5727
  615MOL0     C81071  11.099   5.681   3.709 -0.7201  0.6245 -0.5747
  615MOL0     O81072  11.064   5.562   3.658 -0.0435  0.7912  0.3304
  615MOL0     C81073  10.929   5.527   3.664 -0.0336  0.5054 -0.6628
  615MOL0     C81074  10.902   5.463   3.787  0.5607 -0.3541  0.1368
  615MOL0     C81075  10.783   5.391   3.804  0.3843  0.1793  0.1740
  615MOL0     C81076  10.683   5.398   3.707 -0.4811  0.6245 -1.0957
  615MOL0     C81077  10.553   5.341   3.733 -0.7079  0.2903 -0.2228
  615MOL0     O81078  10.511   5.345   3.867 -0.2341  0.0200  0.4628
  615MOL0     C81079  10.384   5.326   3.894 -0.1978 -0.4688  0.2718
  615MOL0     C81080  10.338   5.239   3.995  0.1860 -0.1275  0.1080
  615MOL0     C81081  10.198   5.212   4.011 -0.3447 -0.4362 -0.0637
  615MOL0     C81082  10.103   5.292   3.943 -0.2669  0.0242 -0.0669
  615MOL0     O81083   9.970   5.260   3.957 -0.2213  0.2876 -0.1036
  615MOL0     C81084   9.872   5.336   3.885  0.1848 -0.4338  0.0637
  615MOL0     C81085   9.864   5.275   3.748 -0.2581  0.2314  0.2551
  615MOL0     C81086   9.736   5.330   3.682 -0.2167 -0.0021  2.0806
  615MOL0     C81087   9.757   5.479   3.664  0.3939 -0.3615 -0.4257
  615MOL0     C81088   9.651   5.516   3.561 -0.4144  0.6914 -0.1839
  615MOL0     C81089   9.649   5.664   3.539  0.1098 -0.3041  0.2690
  615MOL0     C81090   9.621   5.700   3.396 -0.1531  0.2126  0.4984
  615MOL0     C81091   9.584   5.852   3.386 -0.3357  0.3243  0.6607
  615MOL0    Cl81092   9.729   5.937   3.438  0.4357  0.5223  0.5723
  615MOL0     C81093  10.152   5.391   3.859  0.6630  0.3901  0.4336
  615MOL0     C81094  10.290   5.403   3.829  0.6657  0.4265 -0.0753
  615MOL0     O81095  10.494   5.300   3.631 -0.7875  0.1881 -0.0962
  615MOL0     C81096  10.708   5.463   3.590  0.0432 -0.3564 -0.3331
  615MOL0     C81097  10.837   5.518   3.561 -0.7121 -0.6797 -0.4265
  615MOL0     N81098  11.236   6.002   4.023  0.8412 -0.1675 -0.1729
  615MOL0     N81099  11.309   6.056   4.117 -0.7119  0.4987  0.9457
  615MOL0     C81100  11.351   6.742   4.804  0.8826  0.4745 -0.3915
  615MOL0     C81101  11.266   6.824   4.868  0.0279  0.0625 -1.4598
  615MOL0     C81102  11.111   7.099   5.216  0.9538 -0.1304 -0.7048
  615MOL0     C81103  11.097   7.138   5.352  0.2653 -0.3563  0.1382
  615MOL0     C81104  11.039   7.244   5.403  0.9027 -0.1403 -0.0045
  615MOL0     C81105  10.977   7.340   5.315  0.0770  0.3888 -0.0752
  615MOL0     O81106  10.929   7.456   5.354 -0.0403 -0.6444 -0.0579
  615MOL0     C81107  10.835   7.458   5.462  0.3012 -0.3508 -0.2740
  615MOL0     C81108  10.767   7.598   5.462 -1.1210  0.1857  0.3191
  615MOL0     C81109  10.647   7.590   5.552 -0.3078 -0.2890 -0.1190
  615MOL0     C81110  10.585   7.732   5.548  0.1665 -0.3560 -0.1670
  615MOL0     C81111  10.513   7.748   5.678  0.0588 -0.7351 -0.6843
  615MOL0     C81112  10.439   7.770   5.774 -0.2754  0.5385  0.0491
  615MOL0     C81113  10.984   7.305   5.175  0.1125 -0.3596 -0.9088
  615MOL0     C81114  11.043   7.190   5.127 -0.1354  1.0200 -0.7529
  615MOL0     H81115  11.453   6.899   5.134  0.5230  2.7066 -1.8668
  615MOL0     H81116  11.608   6.742   5.020 -1.0490 -0.4712 -0.2290
  615MOL0     H81117  11.594   6.470   4.948  1.2661  0.5068  1.2891
  615MOL0     H81118  11.713   6.594   4.928 -2.2099  1.8511  0.7440
  615MOL0     H81119  11.753   6.340   4.822 -1.4913 -1.4218 -3.4809
  615MOL0     H81120  11.786   6.476   4.716  1.9998 -0.2659  3.3297
  615MOL0     H81121  11.558   6.449   4.621 -2.7661  2.5097  1.8299
  615MOL0     H81122  11.516   6.338   4.748  1.5155  0.9535  1.5176
  615MOL0     H81123  11.752   6.288   4.562  0.1626  0.8582 -0.0322
  615MOL0     H81124  11.686   6.177   4.689 -1.8846  1.7068  1.7724
  615MOL0     H81125  11.528   6.279   4.435  0.4535  2.0351  0.3888
  615MOL0     H81126  11.463   6.177   4.561  2.3132 -3.3747  2.8247
  615MOL0     H81127  11.600   5.990   4.516 -0.6597  0.9779  1.8345
  615MOL0     H81128  11.718   6.066   4.420  0.9161 -1.1758 -1.4728
  615MOL0     H81129  11.540   6.114   4.243  1.7839 -2.1118 -2.5090
  615MOL0     H81130  11.551   5.938   4.279 -1.3609  0.6168 -1.8759
  615MOL0     H81131  11.339   6.099   4.399  3.7539  2.1462  1.6997
  615MOL0     H81132  11.368   5.927   4.408  2.2451 -1.6287 -2.1897
  615MOL0     H81133  11.208   5.776   4.259 -1.8179  3.2974  2.8219
  615MOL0     H81134  11.033   5.837   3.919 -0.2873  2.5441  1.2772
  615MOL0     H81135  11.008   5.760   4.072 -1.3442 -0.1200 -0.7432
  615MOL0     H81136  11.100   5.571   3.975 -1.0451  0.4391 -1.1912
  615MOL0     H81137  11.245   5.648   4.041 -1.7135 -2.0919  1.6609
  615MOL0     H81138  11.260   5.771   3.815  2.5890 -0.3908  1.3016
  615MOL0     H81139  11.281   5.594   3.797 -1.9962 -0.7261 -4.0288
  615MOL0     H81140  11.126   5.750   3.628  1.5936  0.8612  0.3215
  615MOL0     H81141  11.010   5.726   3.753  0.9182  2.5443  0.9539
  615MOL0     H81142  10.978   5.452   3.864  0.6386 -1.1000 -0.0366
  615MOL0     H81143  10.764   5.329   3.890  0.9917  1.5362  1.3194
  615MOL0     H81144  10.406   5.183   4.059  0.1884 -1.7866 -1.2641
  615MOL0     H81145  10.171   5.127   4.072 -0.5736 -2.3260 -2.6597
  615MOL0     H81146   9.886   5.444   3.893 -2.6481 -0.1114  5.4739
  615MOL0     H81147   9.781   5.314   3.942 -0.3024  1.1812 -0.0419
  615MOL0     H81148   9.853   5.166   3.759  1.4408  0.2260  2.6948
  615MOL0     H81149   9.946   5.317   3.689  1.2123 -0.5006  1.6768
  615MOL0     H81150   9.644   5.314   3.739 -2.8825  1.6604 -1.3405
  615MOL0     H81151   9.722   5.287   3.583  0.8283 -1.6992  2.6313
  615MOL0     H81152   9.731   5.524   3.760  0.8374 -0.7193 -0.1331
  615MOL0     H81153   9.862   5.495   3.638  1.1721 -4.1781 -0.2762
  615MOL0     H81154   9.554   5.480   3.598 -0.6160  0.9702 -0.4350
  615MOL0     H81155   9.682   5.462   3.472 -0.7342  0.7443 -0.3292
  615MOL0     H81156   9.744   5.711   3.562  1.2175 -2.8892  1.3895
  615MOL0     H81157   9.571   5.709   3.602  3.2414  3.0428  2.0857
  615MOL0     H81158   9.718   5.702   3.345 -1.8241  2.8582 -2.9721
  615MOL0     H81159   9.547   5.640   3.343  0.1008 -2.2562  2.7749
  615MOL0     H81160   9.506   5.874   3.459 -1.6641 -2.9452  0.3922
  615MOL0     H81161   9.566   5.895   3.287  0.5042  0.0195  0.3655
  615MOL0     H81162  10.078   5.452   3.809  1.5330  1.1358  0.0097
  615MOL0     H81163  10.311   5.488   3.765 -0.4194  1.6784  1.1437
  615MOL0     H81164  10.629   5.491   3.521  1.8066 -0.7456 -2.6495
  615MOL0     H81165  10.853   5.545   3.457 -1.2593 -2.3085 -0.9656
  615MOL0     H81166  11.325   6.690   4.711  0.7875  0.1930 -0.2097
  615MOL0     H81167  11.166   6.825   4.824 -0.9307  1.6993  0.5861
  615MOL0     H81168  11.136   7.076   5.431 -2.0186  1.6772  3.1066
  615MOL0     H81169  11.037   7.265   5.509  1.9462  2.4677 -0.4255
  615MOL0     H81170  10.902   7.444   5.547  1.1276 -0.8506 -0.9794
  615MOL0     H81171  10.759   7.380   5.449 -0.2860  0.3367 -1.1071
  615MOL0     H81172  10.846   7.657   5.510  0.5068 -2.1715  0.6962
  615MOL0     H81173  10.744   7.632   5.360 -1.0055 -1.3222 -0.2282
  615MOL0     H81174  10.677   7.547   5.648 -3.0746  2.2593  2.0663
  615MOL0     H81175  10.573   7.523   5.508 -1.8146  0.6298  0.9411
  615MOL0     H81176  10.661   7.810   5.536 -0.6636  0.2604 -1.6376
  615MOL0     H81177  10.508   7.752   5.472  1.3505  0.9460 -1.0768
  615MOL0     H81178  10.379   7.765   5.863  0.8311  0.6407  0.8157
  615MOL0     H81179  10.937   7.374   5.106  1.4844  3.9523  2.0510
  615MOL0     H81180  11.057   7.185   5.019 -0.6753  0.5848 -0.8008
  616MOL0     O81181   2.158   0.551   0.534 -1.0652 -0.0263 -0.1188
  616MOL0     C81182   2.064   0.556   0.611  0.2192 -0.3736  0.2151
  616MOL0     O81183   2.047   0.476   0.732 -0.9118 -0.1345  0.3329
  616MOL0     C81184   2.150   0.391   0.766 -0.7285 -0.2130  0.4363
  616MOL0     C81185   2.280   0.450   0.799 -1.0725 -0.7524  0.0294
  616MOL0     C81186   2.392   0.371   0.842  0.1640 -0.1291  0.4351
  616MOL0     C81187   2.379   0.246   0.877 -0.4658  0.4125 -0.3165
  616MOL0     O81188   2.496   0.197   0.932 -0.3347  0.5185  1.4109
  616MOL0     C81189   2.484   0.089   1.016  0.3192 -0.8190 -0.2192
  616MOL0     C81190   2.626   0.075   1.075  0.0204  0.4554 -0.1636
  616MOL0     C81191   2.649  -0.060   1.156 -0.4626  0.5202  0.2991
  616MOL0     C81192   2.613  -0.190   1.084  0.4551  0.0066  0.3334
  616MOL0     C81193   2.608  -0.315   1.165  0.2327 -0.7119 -0.6439
  616MOL0     C81194   2.747  -0.374   1.183 -0.0436  0.0288  0.9290
  616MOL0     C81195   2.731  -0.508   1.255 -0.1222 -0.2049 -0.3679
  616MOL0     C81196   2.652  -0.503   1.387 -0.3679  1.0437  0.1447
  616MOL0     N81197   2.654  -0.631   1.475 -0.1434  0.6009 -0.0896
  616MOL0     C81198   2.763  -0.665   1.540 -0.1933 -0.8082 -0.4715
  616MOL0     C81199   2.736  -0.786   1.603 -0.4326  0.7947 -0.6109
  616MOL0     C81200   2.843  -0.869   1.684  0.5797 -0.0401  0.5972
  616MOL0     C81201   2.808  -0.908   1.825  0.1021  0.4508  1.2430
  616MOL0     C81202   2.923  -1.000   1.880  0.6257 -0.7188  0.0535
  616MOL0     C81203   2.878  -1.101   1.987 -0.6628 -0.0634 -0.3073
  616MOL0     O81204   2.994  -1.158   2.042 -0.2627 -0.6214  0.4866
  616MOL0     C81205   2.967  -1.242   2.148  0.9874 -0.1029 -0.0036
  616MOL0     C81206   2.841  -1.270   2.204 -0.5245 -0.3159  0.7043
  616MOL0     C81207   2.838  -1.363   2.309 -0.0774  0.0471  0.5727
  616MOL0     C81208   2.953  -1.400   2.376 -0.0760  0.2889 -0.7373
  616MOL0     C81209   2.949  -1.478   2.497  0.8606  0.3191  0.3967
  616MOL0     O81210   2.834  -1.544   2.525  1.0056 -0.2039  0.1741
  616MOL0     C81211   2.824  -1.605   2.652  0.7140 -0.1552  0.5489
  616MOL0     C81212   2.826  -1.537   2.777  0.8364 -0.4111  0.7993
  616MOL0     C81213   2.794  -1.605   2.896  0.8105 -0.8543  0.4636
  616MOL0     C81214   2.772  -1.735   2.902  0.6788  0.4048 -0.2566
  616MOL0     O81215   2.743  -1.789   3.026 -0.3825  0.1986 -0.1246
  616MOL0     C81216   2.752  -1.929   3.045  0.2985 -0.4072  0.4677
  616MOL0     C81217   2.764  -1.967   3.191  0.0747  0.2407 -1.1773
  616MOL0     C81218   2.632  -2.001   3.261 -0.1817 -0.8374 -0.3716
  616MOL0     C81219   2.670  -2.024   3.410 -0.3322  0.5371 -0.2117
  616MOL0     C81220   2.555  -2.016   3.514  0.8741  0.0421 -0.0028
  616MOL0     C81221   2.543  -1.866   3.556  0.1983 -0.8768  0.9149
  616MOL0     C81222   2.436  -1.840   3.657 -0.4098  0.7220 -0.5038
  616MOL0     C81223   2.437  -1.698   3.712 -1.0957 -0.2503 -0.4522
  616MOL0    Cl81224   2.583  -1.676   3.806 -1.0091 -0.1965 -0.6401
  616MOL0     C81225   2.785  -1.810   2.786  0.6211 -0.8377 -0.2660
  616MOL0     C81226   2.810  -1.747   2.660 -1.0420  0.0330 -1.0232
  616MOL0     O81227   3.050  -1.470   2.575 -0.6939  0.3254  0.0609
  616MOL0     C81228   3.079  -1.358   2.322 -0.4188 -0.7397 -0.4675
  616MOL0     C81229   3.076  -1.285   2.208 -0.6657  0.1571 -0.0314
  616MOL0     N81230   2.603  -0.822   1.577  0.7727 -0.0633  0.8438
  616MOL0     N81231   2.557  -0.727   1.496  0.8496 -0.7038 -0.0829
  616MOL0     C81232   2.248   0.185   0.853 -0.0564 -0.2117 -0.4535
  616MOL0     C81233   2.140   0.252   0.783  0.4649  0.3855  0.8029
  616MOL0     C81234   1.957   0.652   0.578  0.2118 -0.0191  0.2301
  616MOL0     C81235   1.838   0.659   0.643  0.1127 -0.7368 -0.0612
  616MOL0     C81236   1.741   0.753   0.606 -0.5570 -0.8655  0.2357
  616MOL0     C81237   1.768   0.850   0.508  1.5339  0.5918 -0.1698
  616MOL0     O81238   1.673   0.937   0.473  0.4866  0.8879  0.6111
  616MOL0     C81239   1.533   0.900   0.458 -0.0615 -0.4717 -0.0937
  616MOL0     C81240   1.486   0.947   0.322 -0.0389 -0.3712  0.0967
  616MOL0     C81241   1.341   0.957   0.314  0.6163  0.0798 -0.5461
  616MOL0     C81242   1.297   1.026   0.195  0.6232 -0.9190  0.7749
  616MOL0     C81243   1.174   1.094   0.214 -0.2834 -0.0870 -0.5588
  616MOL0     C81244   1.060   1.133   0.246 -0.2654 -0.9423 -0.1506
  616MOL0     C81245   1.891   0.843   0.449  0.5591 -0.0439 -0.3332
  616MOL0     C81246   1.989   0.751   0.483  0.4148 -0.7683  0.3164
  616MOL0     H81247   2.305   0.554   0.781 -0.7223 -1.2338 -2.6759
  616MOL0     H81248   2.489   0.419   0.855  1.5944 -3.0057  1.3666
  616MOL0     H81249   2.459  -0.005   0.965 -3.9039  0.3774 -0.7946
  616MOL0     H81250   2.400   0.096   1.086 -1.1944  0.2161 -2.0557
  616MOL0     H81251   2.653   0.164   1.132  0.0508  2.2387 -2.7638
  616MOL0     H81252   2.700   0.072   0.995  0.9617 -3.1067  0.6580
  616MOL0     H81253   2.586  -0.047   1.244  1.4334  0.7589  1.6959
  616MOL0     H81254   2.755  -0.058   1.183 -1.0759  2.9523  3.0848
  616MOL0     H81255   2.513  -0.180   1.041  1.0519 -0.0487 -1.0926
  616MOL0     H81256   2.678  -0.202   0.997 -1.0048 -0.2621 -0.7555
  616MOL0     H81257   2.548  -0.392   1.117  2.0820 -2.2267 -0.6506
  616MOL0     H81258   2.546  -0.295   1.252 -1.1001 -3.2432 -0.9081
  616MOL0     H81259   2.813  -0.306   1.238 -1.3057  0.9836  1.3370
  616MOL0     H81260   2.790  -0.378   1.083  1.9083  0.0178  1.7237
  616MOL0     H81261   2.711  -0.596   1.194 -0.0600 -2.4091  2.5501
  616MOL0     H81262   2.833  -0.530   1.287 -1.4233 -2.9599  2.5141
  616MOL0     H81263   2.548  -0.475   1.367 -0.6661 -0.7237 -1.0346
  616MOL0     H81264   2.708  -0.429   1.444  1.3882 -2.3805  3.3216
  616MOL0     H81265   2.854  -0.606   1.533 -1.8136  2.0923  0.9881
  616MOL0     H81266   2.939  -0.819   1.670  0.6282  1.3947  4.8369
  616MOL0     H81267   2.843  -0.962   1.627  1.4200 -0.1977  0.8484
  616MOL0     H81268   2.709  -0.953   1.830 -1.7192  3.7143 -0.9577
  616MOL0     H81269   2.805  -0.813   1.879 -0.2618  1.4873 -0.5095
  616MOL0     H81270   2.968  -1.059   1.799 -0.5883  0.4442 -1.5487
  616MOL0     H81271   3.004  -0.936   1.914 -0.1925 -1.0770  2.9348
  616MOL0     H81272   2.807  -1.173   1.944  0.6590 -0.0778 -2.6711
  616MOL0     H81273   2.843  -1.047   2.075  1.4609 -0.9571  1.1631
  616MOL0     H81274   2.754  -1.242   2.145  0.7662 -0.9849 -1.6214
  616MOL0     H81275   2.742  -1.387   2.353 -0.3302  3.9067  2.4800
  616MOL0     H81276   2.842  -1.429   2.775  1.8116 -0.5509  0.4800
  616MOL0     H81277   2.789  -1.539   2.982  1.0734  2.0471 -1.6375
  616MOL0     H81278   2.828  -1.963   2.974 -3.2239 -1.2170 -3.2707
  616MOL0     H81279   2.666  -1.975   2.996  0.5754 -0.1796 -0.2439
  616MOL0     H81280   2.808  -1.884   3.247 -5.4225  3.3441 -0.7366
  616MOL0     H81281   2.829  -2.054   3.181  0.1108  0.2684 -1.1847
  616MOL0     H81282   2.586  -2.090   3.217 -0.9329 -1.4225  1.5068
  616MOL0     H81283   2.556  -1.925   3.240 -1.6603 -2.4535 -1.2085
  616MOL0     H81284   2.704  -2.128   3.422  0.6297  0.6124 -1.9456
  616MOL0     H81285   2.750  -1.959   3.445 -0.0979 -1.2649  2.9844
  616MOL0     H81286   2.582  -2.076   3.600 -0.0176 -0.3832 -0.0051
  616MOL0     H81287   2.461  -2.049   3.468 -2.0875  2.3094  3.8278
  616MOL0     H81288   2.509  -1.803   3.474 -4.2466 -1.0285  2.3828
  616MOL0     H81289   2.642  -1.840   3.594  0.7549  0.2974 -1.1743
  616MOL0     H81290   2.335  -1.866   3.626 -0.3784  1.1311 -0.9698
  616MOL0     H81291   2.458  -1.911   3.737  3.4921  1.4841 -0.6643
  616MOL0     H81292   2.356  -1.672   3.779 -0.9638  2.2378 -1.1582
  616MOL0     H81293   2.432  -1.628   3.628 -1.5060 -0.9576 -1.0278
  616MOL0     H81294   2.757  -1.914   2.786  1.4471 -1.0844  1.4694
  616MOL0     H81295   2.811  -1.810   2.572 -0.7434 -2.0504  0.3985
  616MOL0     H81296   3.174  -1.374   2.371 -0.7241  0.7557  0.6597
  616MOL0     H81297   3.164  -1.248   2.156  0.2956 -0.4212  1.1374
  616MOL0     H81298   2.232   0.087   0.897  3.6417 -0.0911  1.5496
  616MOL0     H81299   2.048   0.196   0.771 -0.5135  1.0849  3.9487
  616MOL0     H81300   1.832   0.579   0.716 -1.3776  1.1326  1.9825
  616MOL0     H81301   1.648   0.760   0.661 -0.9298 -1.0251 -0.3586
  616MOL0     H81302   1.476   0.957   0.532 -0.5407  0.5908 -1.2547
  616MOL0     H81303   1.526   0.792   0.478 -1.3761  0.3869  6.2240
  616MOL0     H81304   1.525   1.049   0.321 -0.2553 -0.2796  0.4768
  616MOL0     H81305   1.520   0.878   0.244 -1.1679 -1.2186  0.3119
  616MOL0     H81306   1.310   1.006   0.407 -4.0168 -1.5794 -0.9474
  616MOL0     H81307   1.294   0.858   0.317 -0.6148  0.6089 -1.4048
  616MOL0     H81308   1.367   1.104   0.162 -0.4587 -0.5551 -0.8092
  616MOL0     H81309   1.279   0.953   0.115  1.1709 -0.5517  0.3015
  616MOL0     H81310   0.971   1.180   0.284  0.9790  0.8025  0.7006
  616MOL0     H81311   1.908   0.915   0.369 -1.7168  1.2438  0.2658
  616MOL0     H81312   2.089   0.775   0.449  0.4663  0.0907  1.0334
  617MOL0     O81313   2.866   0.768   8.576 -0.0907  0.3431 -0.2029
  617MOL0     C81314   2.981   0.761   8.535  0.6450  0.1097  1.2177
  617MOL0     O81315   3.040   0.846   8.451 -0.2812 -0.0221  0.5332
  617MOL0     C81316   2.960   0.940   8.392 -0.0324 -0.2952  0.6532
  617MOL0     C81317   2.953   1.071   8.438  0.0557 -0.2887  0.0684
  617MOL0     C81318   2.883   1.169   8.372  0.0242 -0.0828  1.0364
  617MOL0     C81319   2.807   1.137   8.262  1.0422  0.0917  0.3156
  617MOL0     O81320   2.710   1.221   8.221  0.1056 -0.2787 -0.2766
  617MOL0     C81321   2.585   1.162   8.179  0.2816  0.5775 -0.8364
  617MOL0     C81322   2.492   1.272   8.134  0.0860 -0.1702  0.1547
  617MOL0     C81323   2.422   1.337   8.245  0.0454 -0.2323  0.3121
  617MOL0     C81324   2.499   1.463   8.300  0.1798  0.0893  0.3841
  617MOL0     C81325   2.434   1.516   8.427 -0.4753  0.1874 -0.1173
  617MOL0     C81326   2.505   1.627   8.499 -0.2535  0.4446  0.4997
  617MOL0     C81327   2.414   1.678   8.629 -0.1574  0.1592 -0.5413
  617MOL0     C81328   2.477   1.793   8.713 -0.2443  0.5717 -0.0190
  617MOL0     N81329   2.395   1.837   8.835  0.3515  0.4827  0.1545
  617MOL0     C81330   2.428   1.824   8.965  0.9905  0.9405  0.0015
  617MOL0     C81331   2.320   1.854   9.047 -0.0377 -0.0094 -0.0424
  617MOL0     C81332   2.304   1.855   9.187  0.6027  0.1395 -0.2225
  617MOL0     C81333   2.370   1.971   9.254  0.3611 -0.7625 -1.0280
  617MOL0     C81334   2.378   1.977   9.409  0.5298 -0.2250  0.1651
  617MOL0     C81335   2.400   1.854   9.477  0.1337 -0.1677  0.5352
  617MOL0     O81336   2.432   1.876   9.616  0.9021 -0.0617  0.1544
  617MOL0     C81337   2.329   1.869   9.709 -0.8381 -0.6936 -0.7352
  617MOL0     C81338   2.366   1.927   9.837  0.4413  0.2535  1.3976
  617MOL0     C81339   2.260   1.924   9.931  0.4207 -0.4732 -0.2340
  617MOL0     C81340   2.128   1.882   9.907 -0.9984  1.3253  1.5082
  617MOL0     C81341   2.020   1.891  10.010 -0.6672 -0.3961 -0.0258
  617MOL0     O81342   2.033   1.959  10.129 -0.4522  0.5151 -0.5810
  617MOL0     C81343   1.918   1.978  10.195  1.2066 -0.1772 -0.5963
  617MOL0     C81344   1.889   1.901  10.309 -0.4054  0.6593 -0.3156
  617MOL0     C81345   1.780   1.922  10.382 -0.0947 -0.0893 -0.8800
  617MOL0     C81346   1.706   2.033  10.359  0.6256  0.5556  0.0497
  617MOL0     O81347   1.612   2.053  10.467 -0.0114 -0.1890  1.0154
  617MOL0     C81348   1.557   2.186  10.469 -0.7745 -0.4389  0.3162
  617MOL0     C81349   1.444   2.189  10.575  0.0615 -0.8547  1.0035
  617MOL0     C81350   1.367   2.322  10.547 -0.3364  0.2106  0.2221
  617MOL0     C81351   1.263   2.325  10.425 -1.2833 -0.1039  1.1911
  617MOL0     C81352   1.183   2.458  10.401 -0.1981  0.9891 -1.2189
  617MOL0     C81353   1.042   2.430  10.445  1.5769  0.1267  0.7241
  617MOL0     C81354   1.032   2.391  10.595 -0.1206  0.4089 -0.2189
  617MOL0     C81355   0.884   2.367  10.617 -0.5065 -0.6854  0.3663
  617MOL0    Cl81356   0.834   2.219  10.540 -0.0780  0.1259 -0.3277
  617MOL0     C81357   1.733   2.121  10.252 -0.1465  0.3277 -0.3397
  617MOL0     C81358   1.844   2.096  10.175  0.4660  0.1981 -0.6398
  617MOL0     O81359   1.915   1.837   9.968 -0.1788 -0.4327 -0.0922
  617MOL0     C81360   2.100   1.838   9.774 -0.2782  0.3534 -0.5589
  617MOL0     C81361   2.196   1.832   9.676 -0.1916  0.2032 -0.2576
  617MOL0     N81362   2.213   1.881   8.958 -0.9565 -0.1268 -0.1616
  617MOL0     N81363   2.260   1.873   8.836 -0.2596  0.1522  0.1600
  617MOL0     C81364   2.805   1.004   8.210 -0.6022 -0.4094 -0.2901
  617MOL0     C81365   2.887   0.905   8.278 -0.3162 -0.2716  0.3854
  617MOL0     C81366   3.061   0.649   8.585 -0.3242 -0.7721  0.5242
  617MOL0     C81367   3.005   0.531   8.636  0.7325  0.7353  0.3299
  617MOL0     C81368   3.076   0.444   8.713 -0.6385 -0.0236  0.1599
  617MOL0     C81369   3.211   0.454   8.727 -0.7177 -0.1287 -1.0785
  617MOL0     O81370   3.277   0.354   8.803  0.6227  0.2267 -0.6484
  617MOL0     C81371   3.422   0.338   8.794 -0.8544 -0.3179 -0.0337
  617MOL0     C81372   3.450   0.247   8.670 -1.7031  0.0668 -1.1766
  617MOL0     C81373   3.603   0.215   8.640 -0.0785  0.4835 -0.8863
  617MOL0     C81374   3.669   0.336   8.558 -0.0110 -0.4426 -1.3793
  617MOL0     C81375   3.808   0.309   8.530 -0.2621 -0.2225 -0.2613
  617MOL0     C81376   3.930   0.297   8.524  0.0631  1.2740  0.5187
  617MOL0     C81377   3.272   0.565   8.671 -0.1815 -0.1785 -1.0551
  617MOL0     C81378   3.199   0.666   8.608 -0.4652  0.8431  0.4117
  617MOL0     H81379   3.003   1.103   8.529 -1.8135  0.7725  0.7772
  617MOL0     H81380   2.893   1.273   8.401 -1.3714 -0.4853  3.2377
  617MOL0     H81381   2.537   1.105   8.259  0.7030  1.3314 -0.0333
  617MOL0     H81382   2.584   1.102   8.087  0.6869  1.3255 -1.3417
  617MOL0     H81383   2.428   1.242   8.051  1.2130  3.7778 -2.4346
  617MOL0     H81384   2.555   1.339   8.075  0.9440 -1.5184 -0.5174
  617MOL0     H81385   2.393   1.270   8.327 -2.4163  1.2856  0.7911
  617MOL0     H81386   2.330   1.372   8.198  2.0084  2.7011 -1.6068
  617MOL0     H81387   2.599   1.430   8.329  0.1155 -0.9349 -0.4907
  617MOL0     H81388   2.508   1.542   8.225 -0.2813  2.6334  2.8300
  617MOL0     H81389   2.429   1.426   8.488  0.8492 -0.6032 -1.1223
  617MOL0     H81390   2.336   1.550   8.391  1.2069  2.5369 -2.9744
  617MOL0     H81391   2.517   1.712   8.431 -1.7166  1.8332  1.8958
  617MOL0     H81392   2.606   1.598   8.530 -0.8555 -1.0017  1.2048
  617MOL0     H81393   2.316   1.710   8.593 -1.9755 -2.4864  1.6689
  617MOL0     H81394   2.395   1.591   8.693 -0.0698  1.6727  1.6689
  617MOL0     H81395   2.496   1.879   8.649 -1.0023  2.4534  2.1319
  617MOL0     H81396   2.575   1.766   8.754 -1.4352 -0.7294  2.2029
  617MOL0     H81397   2.529   1.805   8.998  0.3493  0.3531  1.7122
  617MOL0     H81398   2.342   1.760   9.227 -0.5395 -0.0300  0.5129
  617MOL0     H81399   2.198   1.865   9.213  0.9145  0.7277  0.8745
  617MOL0     H81400   2.318   2.063   9.226 -1.3582  0.4995  5.0196
  617MOL0     H81401   2.471   1.959   9.213  0.9307  0.3474 -0.0024
  617MOL0     H81402   2.458   2.046   9.438  1.3955  0.2185 -2.9174
  617MOL0     H81403   2.285   2.022   9.444 -0.9034 -0.6699 -2.8044
  617MOL0     H81404   2.492   1.823   9.428 -0.5926  1.9278 -2.4539
  617MOL0     H81405   2.318   1.788   9.447 -2.7571  3.4903 -0.4765
  617MOL0     H81406   2.465   1.968   9.847  1.3837 -1.0622 -1.3663
  617MOL0     H81407   2.269   1.969  10.029 -3.0336  2.2702 -0.9686
  617MOL0     H81408   1.954   1.816  10.325 -0.3814  0.4840 -1.2838
  617MOL0     H81409   1.749   1.860  10.466  2.7279 -2.2503 -1.2841
  617MOL0     H81410   1.506   2.201  10.372 -0.1708  2.2464  0.3346
  617MOL0     H81411   1.634   2.262  10.486 -2.1302  1.7300 -2.3183
  617MOL0     H81412   1.480   2.182  10.678 -1.4978  1.7432  1.8134
  617MOL0     H81413   1.382   2.102  10.551  1.1614 -1.3319 -0.2284
  617MOL0     H81414   1.438   2.404  10.528  0.8337 -1.2012 -1.9967
  617MOL0     H81415   1.306   2.345  10.634 -2.7008 -1.4195 -0.9049
  617MOL0     H81416   1.327   2.303  10.339 -3.7851 -0.1871 -0.7595
  617MOL0     H81417   1.204   2.234  10.421  1.3466 -1.8833 -0.7014
  617MOL0     H81418   1.175   2.487  10.295  3.0925  2.4766 -1.1819
  617MOL0     H81419   1.224   2.545  10.453 -0.5267  0.2851  0.2671
  617MOL0     H81420   0.996   2.357  10.377 -1.6953  0.9742  1.8181
  617MOL0     H81421   1.000   2.530  10.434 -1.9956 -1.2836  0.1088
  617MOL0     H81422   1.098   2.308  10.622 -0.4729 -0.2646 -1.3490
  617MOL0     H81423   1.071   2.466  10.664  1.9770  0.2173 -1.1093
  617MOL0     H81424   0.832   2.459  10.589  3.3386  0.9663 -2.0970
  617MOL0     H81425   0.866   2.366  10.725  0.7872  3.0768  0.7587
  617MOL0     H81426   1.664   2.204  10.236 -0.2834  0.4645  0.9141
  617MOL0     H81427   1.888   2.163  10.102  4.7364 -1.7330 -0.1344
  617MOL0     H81428   1.999   1.801   9.755 -0.2481 -1.1375  1.8493
  617MOL0     H81429   2.164   1.813   9.574  0.4870  0.8653 -0.6038
  617MOL0     H81430   2.746   0.977   8.123 -0.8623 -1.3590  0.1718
  617MOL0     H81431   2.881   0.802   8.242  0.5194  0.9754 -3.9395
  617MOL0     H81432   2.898   0.509   8.638  0.8083  0.4035  2.4462
  617MOL0     H81433   3.021   0.360   8.756 -1.1479 -1.4334 -2.9062
  617MOL0     H81434   3.461   0.295   8.887 -1.8258 -0.2699  0.4127
  617MOL0     H81435   3.478   0.432   8.786  1.2494 -1.4111  0.9638
  617MOL0     H81436   3.403   0.153   8.702 -1.2527 -0.1815 -1.2207
  617MOL0     H81437   3.400   0.293   8.585 -0.7463 -0.8431 -2.2708
  617MOL0     H81438   3.594   0.125   8.580 -1.2938 -0.5693  0.7831
  617MOL0     H81439   3.671   0.202   8.725  3.0484  2.7097 -2.8267
  617MOL0     H81440   3.610   0.360   8.470 -1.1211  1.1293 -0.2581
  617MOL0     H81441   3.669   0.425   8.622 -0.3395 -1.3686 -0.0459
  617MOL0     H81442   4.037   0.306   8.522  0.1731  0.3108  1.1932
  617MOL0     H81443   3.374   0.590   8.700 -0.6690 -2.5006  3.7804
  617MOL0     H81444   3.251   0.746   8.557 -1.6501  0.2476 -1.8323
  618MOL0     O81445   9.576   0.452   4.821 -0.3417 -0.5053 -0.9827
  618MOL0     C81446   9.571   0.552   4.758 -0.4208 -0.7178  0.3619
  618MOL0     O81447   9.512   0.558   4.634 -0.0216  0.0650  0.2697
  618MOL0     C81448   9.451   0.456   4.573 -0.0119  0.5554 -0.7488
  618MOL0     C81449   9.511   0.327   4.557 -0.1974  0.2094 -0.3118
  618MOL0     C81450   9.432   0.229   4.482  0.2771 -0.2261  0.4505
  618MOL0     C81451   9.307   0.255   4.426  0.1137 -0.8620 -0.6521
  618MOL0     O81452   9.231   0.160   4.369  0.9200  0.0650 -0.8769
  618MOL0     C81453   9.288   0.119   4.249  0.0880  0.7342  0.0013
  618MOL0     C81454   9.213  -0.010   4.205 -0.3896 -0.8755 -0.2295
  618MOL0     C81455   9.214  -0.131   4.298 -0.2120 -0.2205 -0.0271
  618MOL0     C81456   9.132  -0.252   4.252  0.2814  0.0631 -0.3983
  618MOL0     C81457   9.166  -0.305   4.109 -0.2509 -0.8911  0.9643
  618MOL0     C81458   9.297  -0.375   4.120 -0.3363 -0.0477  0.4167
  618MOL0     C81459   9.338  -0.444   3.991  1.3504 -0.0345  1.0881
  618MOL0     C81460   9.458  -0.527   4.024 -0.1396 -0.2413 -0.4802
  618MOL0     N81461   9.527  -0.602   3.914  0.0112  0.7887 -0.8592
  618MOL0     C81462   9.634  -0.674   3.942 -1.2147  0.0009 -0.2273
  618MOL0     C81463   9.678  -0.721   3.821 -0.2053 -0.8966 -0.9464
  618MOL0     C81464   9.785  -0.827   3.822  0.3931  0.8469  0.2825
  618MOL0     C81465   9.922  -0.797   3.763  0.1463  0.1589 -0.3710
  618MOL0     C81466  10.005  -0.704   3.847  0.3683  0.1185 -0.3338
  618MOL0     C81467   9.977  -0.552   3.865  0.0582 -0.6286  0.0482
  618MOL0     O81468   9.956  -0.483   3.739 -0.4467 -0.5477  0.7793
  618MOL0     C81469  10.064  -0.429   3.664  0.4822 -0.6644 -0.3535
  618MOL0     C81470  10.194  -0.427   3.702 -0.0736  0.9806  0.2056
  618MOL0     C81471  10.292  -0.360   3.631  0.1554  0.2039  0.4419
  618MOL0     C81472  10.257  -0.304   3.504 -0.0851  0.0270 -0.5526
  618MOL0     C81473  10.364  -0.240   3.432 -0.5305 -0.0439  0.5388
  618MOL0     O81474  10.338  -0.150   3.330  0.6941  0.4587  0.9754
  618MOL0     C81475  10.428  -0.132   3.224  0.8222 -0.7717 -0.3643
  618MOL0     C81476  10.526  -0.218   3.169 -0.4099 -0.7327 -1.4276
  618MOL0     C81477  10.594  -0.187   3.056 -0.2787  0.5327  0.8973
  618MOL0     C81478  10.562  -0.080   2.980  1.2682 -0.6865  0.3751
  618MOL0     O81479  10.608  -0.062   2.850  1.9206  0.0953 -0.1681
  618MOL0     C81480  10.727  -0.134   2.802 -0.0311 -0.2928  0.7628
  618MOL0     C81481  10.757  -0.105   2.647  0.3360  0.3016 -0.8485
  618MOL0     C81482  10.863  -0.187   2.594 -0.3263 -0.2369  0.3037
  618MOL0     C81483  10.985  -0.163   2.676  0.6690  0.0218  0.0169
  618MOL0     C81484  11.031  -0.017   2.687  1.8843 -0.3334  0.4831
  618MOL0     C81485  11.165  -0.002   2.753 -0.0349  0.3936  0.1829
  618MOL0     C81486  11.274  -0.069   2.679 -0.7816  0.3700  1.0988
  618MOL0     C81487  11.284  -0.037   2.533  0.1692  0.1545 -0.8376
  618MOL0    Cl81488  11.301   0.143   2.508  0.0657  0.0131  0.0709
  618MOL0     C81489  10.464   0.010   3.036 -0.6503 -0.5872  0.0553
  618MOL0     C81490  10.404  -0.012   3.159  0.8869 -0.4436  0.6227
  618MOL0     O81491  10.474  -0.297   3.452  0.2236  0.0683 -0.2975
  618MOL0     C81492  10.126  -0.299   3.468 -0.0921 -0.0080  0.5127
  618MOL0     C81493  10.031  -0.350   3.548  1.7043  0.0273  0.2937
  618MOL0     N81494   9.602  -0.670   3.725 -0.3992  0.0479 -0.0767
  618MOL0     N81495   9.508  -0.590   3.777  0.2861 -0.1626  0.3011
  618MOL0     C81496   9.244   0.383   4.459 -0.5661  0.4013 -0.0074
  618MOL0     C81497   9.314   0.470   4.536  0.1090  0.0601  0.2157
  618MOL0     C81498   9.630   0.678   4.816 -0.1557 -0.5133  0.3375
  618MOL0     C81499   9.573   0.797   4.772 -0.8027  0.6834  0.7570
  618MOL0     C81500   9.610   0.917   4.826 -0.3278  0.2227 -0.7137
  618MOL0     C81501   9.719   0.914   4.921 -0.3368  0.5990 -0.3393
  618MOL0     O81502   9.771   1.022   4.988  0.1526  1.0793 -0.8273
  618MOL0     C81503   9.700   1.149   4.963  0.0794 -0.5444  0.3514
  618MOL0     C81504   9.758   1.266   5.047 -0.0260 -0.2300  0.4820
  618MOL0     C81505   9.657   1.385   5.053 -0.0620 -0.3434 -0.4607
  618MOL0     C81506   9.547   1.369   5.162  0.1995 -0.6492 -0.0106
  618MOL0     C81507   9.597   1.403   5.301  0.4771  0.0243 -0.3250
  618MOL0     C81508   9.646   1.436   5.414 -0.1854  0.4652  1.1314
  618MOL0     C81509   9.771   0.804   4.982 -0.7017  1.1206  0.2852
  618MOL0     C81510   9.717   0.683   4.929 -0.0867  0.0125  0.6540
  618MOL0     H81511   9.606   0.298   4.601 -1.4267 -0.3553  2.1408
  618MOL0     H81512   9.471   0.128   4.476  0.9788  0.1122 -1.8312
  618MOL0     H81513   9.393   0.091   4.251 -0.0475  0.0571 -1.3172
  618MOL0     H81514   9.271   0.199   4.175 -1.6917 -0.8552 -1.4216
  618MOL0     H81515   9.251  -0.027   4.104  2.7469  0.6186  0.5964
  618MOL0     H81516   9.111   0.018   4.176  0.3783  2.7020  0.0336
  618MOL0     H81517   9.160  -0.087   4.383 -2.1414 -1.0822 -0.7502
  618MOL0     H81518   9.309  -0.178   4.325 -0.3566 -1.7742 -1.9946
  618MOL0     H81519   9.145  -0.331   4.326 -0.2036 -0.6673 -1.0816
  618MOL0     H81520   9.027  -0.223   4.256 -0.7761 -3.2793 -0.4442
  618MOL0     H81521   9.158  -0.234   4.026  2.3207  0.4144  1.7444
  618MOL0     H81522   9.085  -0.373   4.080 -0.5135  0.8436 -2.9220
  618MOL0     H81523   9.281  -0.459   4.188  2.4777 -0.3967  0.7820
  618MOL0     H81524   9.376  -0.316   4.168 -0.0294 -0.1087 -0.0038
  618MOL0     H81525   9.258  -0.506   3.949  0.4444  1.0403  1.1620
  618MOL0     H81526   9.370  -0.364   3.923  1.7596  1.1107  2.5634
  618MOL0     H81527   9.426  -0.591   4.107  1.6640  1.2880  1.5139
  618MOL0     H81528   9.529  -0.460   4.073 -0.3368 -1.2936  1.3529
  618MOL0     H81529   9.673  -0.706   4.038  3.5863 -2.3783 -2.6542
  618MOL0     H81530   9.741  -0.902   3.755  1.3088  1.5924 -1.2261
  618MOL0     H81531   9.796  -0.869   3.922 -0.7429 -0.4198 -0.0862
  618MOL0     H81532   9.915  -0.763   3.659  0.2614 -1.5637 -0.9839
  618MOL0     H81533   9.973  -0.893   3.748  0.0399  0.3803 -2.4596
  618MOL0     H81534  10.003  -0.737   3.951  0.4416 -0.0207 -0.3752
  618MOL0     H81535  10.112  -0.720   3.829  0.7795  0.2560  1.7784
  618MOL0     H81536  10.064  -0.505   3.912  1.0189 -2.7001  0.4313
  618MOL0     H81537   9.893  -0.539   3.934 -2.1710  0.5458 -2.6630
  618MOL0     H81538  10.233  -0.466   3.796 -0.9437  0.4153  0.3335
  618MOL0     H81539  10.393  -0.366   3.670 -0.4416  0.6524  2.1188
  618MOL0     H81540  10.551  -0.312   3.218 -0.8793 -0.8145 -1.3350
  618MOL0     H81541  10.654  -0.265   3.012 -1.0102  1.1724 -1.3927
  618MOL0     H81542  10.699  -0.237   2.824 -2.0684 -0.3696 -1.8214
  618MOL0     H81543  10.809  -0.098   2.865  0.9389 -0.4093 -0.3978
  618MOL0     H81544  10.775   0.002   2.636  0.0340  0.3039 -1.3036
  618MOL0     H81545  10.665  -0.139   2.599 -0.3620  1.1186 -0.1269
  618MOL0     H81546  10.876  -0.156   2.490 -3.3557  1.3655  0.2863
  618MOL0     H81547  10.830  -0.290   2.607 -2.6369  0.2150 -1.3469
  618MOL0     H81548  10.970  -0.219   2.769 -1.3189  0.4341 -0.0021
  618MOL0     H81549  11.067  -0.218   2.628  3.1877  2.6367  1.0812
  618MOL0     H81550  10.966   0.048   2.746 -0.5902 -0.0681 -2.3138
  618MOL0     H81551  11.035   0.036   2.592 -0.2361  0.5893  0.8606
  618MOL0     H81552  11.155  -0.045   2.853 -0.4463  0.1794  0.0524
  618MOL0     H81553  11.207   0.099   2.759  2.1026 -0.3322 -1.2504
  618MOL0     H81554  11.368  -0.033   2.720 -0.7387  2.0777 -0.3738
  618MOL0     H81555  11.273  -0.175   2.707  1.8470  0.2348  0.9384
  618MOL0     H81556  11.195  -0.069   2.478 -0.4877  0.8790 -0.2168
  618MOL0     H81557  11.374  -0.082   2.491  0.1471  1.4022 -2.3085
  618MOL0     H81558  10.437   0.105   2.990 -1.5703 -0.6447  0.4526
  618MOL0     H81559  10.330   0.057   3.198 -0.2715  0.4432 -2.7219
  618MOL0     H81560  10.098  -0.267   3.368 -0.4088 -0.6319  0.3970
  618MOL0     H81561   9.925  -0.350   3.524  1.0729 -0.7329  2.7270
  618MOL0     H81562   9.145   0.415   4.430 -0.2104  0.1307 -1.6418
  618MOL0     H81563   9.258   0.555   4.574 -2.1777 -1.5917  0.7886
  618MOL0     H81564   9.495   0.812   4.698 -0.0013  0.3927 -0.1496
  618MOL0     H81565   9.573   1.006   4.776 -0.2801 -1.0437 -3.1564
  618MOL0     H81566   9.599   1.138   5.004 -0.1892  0.8327  0.1275
  618MOL0     H81567   9.706   1.174   4.856 -0.6772  0.9718  0.6404
  618MOL0     H81568   9.778   1.234   5.150 -1.6949  0.6293  1.1159
  618MOL0     H81569   9.854   1.296   5.006 -0.2300 -1.2479 -0.8102
  618MOL0     H81570   9.607   1.405   4.958 -1.1348  0.1523  0.1831
  618MOL0     H81571   9.708   1.479   5.071 -1.5274  0.3792  0.1020
  618MOL0     H81572   9.466   1.432   5.125  0.7560 -1.1457 -2.2313
  618MOL0     H81573   9.520   1.263   5.166  1.1931 -0.9410 -0.5296
  618MOL0     H81574   9.692   1.465   5.506 -1.2108 -0.4628  1.9637
  618MOL0     H81575   9.847   0.802   5.060  1.9310  0.3305 -2.1424
  618MOL0     H81576   9.746   0.591   4.980 -0.1942 -0.2056  0.3242
  619MOL0     O81577  11.158   5.367   2.083 -0.2984 -0.5271  1.1658
  619MOL0     C81578  11.256   5.342   2.007 -0.1702 -0.3079 -0.1857
  619MOL0     O81579  11.275   5.219   1.951 -0.0282 -0.1515  0.0017
  619MOL0     C81580  11.182   5.123   1.990 -0.2880  0.8016  0.0129
  619MOL0     C81581  11.122   5.044   1.887  0.0659  0.2025  0.0780
  619MOL0     C81582  11.043   4.931   1.925  0.9093  0.0974  0.6223
  619MOL0     C81583  11.032   4.890   2.056 -0.3317 -0.0258 -0.2243
  619MOL0     O81584  10.955   4.777   2.077  0.1034 -0.0406  0.1983
  619MOL0     C81585  10.864   4.785   2.180 -0.8024 -0.6931 -0.0932
  619MOL0     C81586  10.746   4.697   2.150 -0.5193 -0.0087  0.1711
  619MOL0     C81587  10.633   4.734   2.250  0.2165  0.2100 -0.8736
  619MOL0     C81588  10.520   4.624   2.238 -0.7025 -0.2229 -0.1663
  619MOL0     C81589  10.402   4.636   2.344 -0.4827  0.4805 -0.6028
  619MOL0     C81590  10.459   4.626   2.493 -0.0640  0.0194  0.5522
  619MOL0     C81591  10.350   4.647   2.606  0.0702 -0.8419  0.1353
  619MOL0     C81592  10.213   4.580   2.598 -0.1086  0.9944  0.1913
  619MOL0     N81593  10.126   4.596   2.718  0.1130  0.9476 -0.2444
  619MOL0     C81594  10.139   4.540   2.851 -0.9292  0.8004 -0.3265
  619MOL0     C81595  10.070   4.624   2.928 -0.6021  0.1838  0.6530
  619MOL0     C81596  10.080   4.616   3.077  0.5998  0.0278  0.0761
  619MOL0     C81597  10.219   4.662   3.144  0.5975 -0.1567  0.0564
  619MOL0     C81598  10.308   4.762   3.073  1.0035  0.5618 -0.5898
  619MOL0     C81599  10.253   4.901   3.071 -0.1483 -0.1961  0.9495
  619MOL0     O81600  10.244   4.957   3.199  0.4188 -0.0435 -0.8246
  619MOL0     C81601  10.217   5.089   3.221 -1.0509  0.3102 -0.2205
  619MOL0     C81602  10.233   5.133   3.354  0.2382  0.4676  0.0570
  619MOL0     C81603  10.220   5.269   3.390 -0.2461  0.2538 -0.1757
  619MOL0     C81604  10.193   5.368   3.296  0.2134 -0.1264  0.1586
  619MOL0     C81605  10.171   5.507   3.335  0.1899  0.6677 -0.1747
  619MOL0     O81606  10.200   5.542   3.465 -0.9854 -0.1922  0.2914
  619MOL0     C81607  10.207   5.675   3.478 -0.1644  0.7548 -0.6220
  619MOL0     C81608  10.088   5.746   3.499 -0.5136  0.1197  0.4421
  619MOL0     C81609  10.089   5.881   3.494 -0.8909  0.3855  0.3557
  619MOL0     C81610  10.213   5.951   3.474  0.2853 -0.2419 -0.3183
  619MOL0     O81611  10.235   6.089   3.488  1.0437 -0.6953 -0.2098
  619MOL0     C81612  10.114   6.158   3.536 -0.3700 -0.5982 -0.7589
  619MOL0     C81613  10.158   6.300   3.568 -0.6257 -0.2809  0.7152
  619MOL0     C81614  10.047   6.389   3.631  0.4112 -0.5481  0.2495
  619MOL0     C81615  10.097   6.522   3.702  0.8108  0.2365 -0.5178
  619MOL0     C81616   9.983   6.586   3.782 -0.2331 -0.3768 -0.0469
  619MOL0     C81617  10.032   6.702   3.872  0.2901 -1.3390 -0.8932
  619MOL0     C81618   9.926   6.767   3.961  0.4991 -0.7046 -0.0280
  619MOL0     C81619   9.917   6.922   3.947  0.8677 -0.2974 -0.9523
  619MOL0    Cl81620  10.065   7.011   3.945  0.1112  0.2178 -0.1318
  619MOL0     C81621  10.333   5.874   3.463  0.3267  0.1120 -0.6424
  619MOL0     C81622  10.336   5.738   3.465  0.3181  0.7313  0.3640
  619MOL0     O81623  10.158   5.584   3.239 -0.1082 -0.0467 -0.6494
  619MOL0     C81624  10.169   5.325   3.162  0.3130  0.7930  0.2608
  619MOL0     C81625  10.198   5.189   3.124 -0.7832 -0.6855  0.5226
  619MOL0     N81626   9.992   4.713   2.855  0.6866 -0.4030 -0.1349
  619MOL0     N81627  10.022   4.695   2.731  0.1179  0.4807  1.2731
  619MOL0     C81628  11.111   4.949   2.146 -0.2983 -0.2088 -0.5162
  619MOL0     C81629  11.178   5.069   2.118 -0.1628 -0.6114 -1.0975
  619MOL0     C81630  11.349   5.452   1.979  0.1118  0.3796  0.8013
  619MOL0     C81631  11.442   5.440   1.882 -0.0587  0.4494  0.1830
  619MOL0     C81632  11.532   5.542   1.861  0.1578 -0.3828  1.3881
  619MOL0     C81633  11.538   5.653   1.950 -0.4865  0.3831  0.6889
  619MOL0     O81634  11.630   5.752   1.963  0.2610 -0.3489  0.0515
  619MOL0     C81635  11.689   5.800   1.842  0.5108  0.3865 -1.0339
  619MOL0     C81636  11.590   5.913   1.793  0.5458  0.3254  0.6180
  619MOL0     C81637  11.566   6.003   1.918 -0.2710 -0.7605  0.3302
  619MOL0     C81638  11.547   6.152   1.882 -0.5935  0.2084  1.1064
  619MOL0     C81639  11.509   6.211   2.011 -0.1807 -0.5246  0.4382
  619MOL0     C81640  11.476   6.272   2.116 -0.1558  0.2235  0.2860
  619MOL0     C81641  11.438   5.673   2.037  0.1154  0.2391 -0.9818
  619MOL0     C81642  11.345   5.572   2.053  0.6784 -0.8878  0.4865
  619MOL0     H81643  11.139   5.069   1.782  0.7564 -0.4192  0.0357
  619MOL0     H81644  10.988   4.896   1.838  1.3511  2.8519 -0.8729
  619MOL0     H81645  10.833   4.889   2.196  0.8900  0.2928 -2.5896
  619MOL0     H81646  10.912   4.747   2.271 -0.6442 -1.7195 -0.5989
  619MOL0     H81647  10.777   4.593   2.156  1.8299  0.0188 -5.5131
  619MOL0     H81648  10.706   4.708   2.049 -0.1084 -3.6563 -0.5260
  619MOL0     H81649  10.592   4.832   2.222  1.4817  2.6600  4.4943
  619MOL0     H81650  10.674   4.751   2.350  0.1425  1.6944 -1.0732
  619MOL0     H81651  10.495   4.618   2.132  1.1488 -2.2951 -0.5591
  619MOL0     H81652  10.569   4.527   2.252 -0.3816 -0.0405 -0.0122
  619MOL0     H81653  10.338   4.548   2.330 -4.5889  3.2425 -0.8351
  619MOL0     H81654  10.343   4.724   2.318 -1.9258 -0.3414 -0.2337
  619MOL0     H81655  10.539   4.692   2.528  1.0611 -1.2732  0.5004
  619MOL0     H81656  10.504   4.527   2.503 -0.3822 -0.3038 -0.9388
  619MOL0     H81657  10.400   4.615   2.698 -0.6136  1.3934  1.3533
  619MOL0     H81658  10.326   4.751   2.630 -5.3086 -1.8668  0.4207
  619MOL0     H81659  10.224   4.473   2.578  1.8158  0.8257  1.7522
  619MOL0     H81660  10.171   4.620   2.505  0.4561  1.9151  0.3156
  619MOL0     H81661  10.202   4.455   2.876  1.2454  1.2001 -3.8019
  619MOL0     H81662  10.053   4.517   3.114 -1.8853  0.9531  0.9888
  619MOL0     H81663  10.008   4.687   3.120  0.6981 -1.4236  2.8364
  619MOL0     H81664  10.273   4.567   3.148  0.9250  0.0706  1.2474
  619MOL0     H81665  10.188   4.684   3.246  0.0806 -3.6465  0.7714
  619MOL0     H81666  10.409   4.746   3.111  1.1606 -1.7212 -1.8428
  619MOL0     H81667  10.313   4.739   2.967 -1.4515 -1.8086 -0.2840
  619MOL0     H81668  10.150   4.902   3.036 -0.7151  3.0352  2.3614
  619MOL0     H81669  10.312   4.965   3.005  2.2534 -1.1268  2.0557
  619MOL0     H81670  10.255   5.082   3.447  0.9580  0.6250 -0.0200
  619MOL0     H81671  10.234   5.312   3.489  0.7141  1.0068 -0.6205
  619MOL0     H81672   9.993   5.694   3.511  0.0520 -0.4544  3.0750
  619MOL0     H81673  10.000   5.944   3.497 -0.0982  1.8617 -2.8412
  619MOL0     H81674  10.083   6.110   3.629 -0.8635  1.7864  0.3770
  619MOL0     H81675  10.041   6.155   3.455 -3.4770  1.3361  1.7280
  619MOL0     H81676  10.183   6.346   3.472 -4.4636  1.6738  0.4283
  619MOL0     H81677  10.248   6.289   3.629  1.7780  1.3115 -2.3064
  619MOL0     H81678   9.994   6.328   3.704  0.6301  0.0035  0.8833
  619MOL0     H81679   9.975   6.420   3.554  0.9269 -2.3310 -1.0277
  619MOL0     H81680  10.173   6.491   3.774  2.9341  0.9167 -2.3607
  619MOL0     H81681  10.139   6.594   3.632 -0.8700  1.0725 -0.7057
  619MOL0     H81682   9.964   6.511   3.859 -1.3250 -0.6705 -0.5859
  619MOL0     H81683   9.900   6.615   3.718 -0.3646 -0.6323  0.0056
  619MOL0     H81684  10.080   6.774   3.805 -2.3802 -0.4826 -2.0357
  619MOL0     H81685  10.110   6.657   3.935 -1.0455 -1.6382  0.6177
  619MOL0     H81686   9.826   6.725   3.947  0.5379 -0.9091  0.2970
  619MOL0     H81687   9.952   6.748   4.066 -0.3217  2.6194  0.8990
  619MOL0     H81688   9.849   6.966   4.021  0.3627  2.7495 -3.0510
  619MOL0     H81689   9.866   6.951   3.855 -0.1491 -0.2501 -0.3965
  619MOL0     H81690  10.423   5.935   3.463  0.2473  0.2553 -1.7787
  619MOL0     H81691  10.436   5.697   3.454 -0.8446 -2.0042 -0.8516
  619MOL0     H81692  10.133   5.385   3.079  2.5281 -0.4582 -1.7195
  619MOL0     H81693  10.200   5.157   3.020 -0.7793 -4.1192  1.4801
  619MOL0     H81694  11.126   4.904   2.244 -0.3252 -1.6171 -1.1370
  619MOL0     H81695  11.240   5.118   2.192 -0.4831  1.5123 -2.1423
  619MOL0     H81696  11.441   5.348   1.825  1.5616  1.2273 -1.1765
  619MOL0     H81697  11.610   5.526   1.788 -0.1671 -0.5446  1.0758
  619MOL0     H81698  11.693   5.723   1.764 -2.9996 -0.5972 -0.4230
  619MOL0     H81699  11.781   5.852   1.871 -1.4043  1.3668  4.5632
  619MOL0     H81700  11.629   5.977   1.713 -0.0715  1.4336  1.1863
  619MOL0     H81701  11.503   5.852   1.767  0.9472  0.2798 -0.7040
  619MOL0     H81702  11.659   6.004   1.976 -0.3585 -0.9778  0.4767
  619MOL0     H81703  11.477   5.977   1.977 -1.7718  0.6974 -1.1777
  619MOL0     H81704  11.642   6.195   1.847 -0.2141 -1.2187  0.3215
  619MOL0     H81705  11.473   6.174   1.805 -0.2181  0.3092  0.7718
  619MOL0     H81706  11.459   6.310   2.215  0.3990 -0.3492  0.6166
  619MOL0     H81707  11.431   5.751   2.111 -2.0848 -1.6707  0.9910
  619MOL0     H81708  11.266   5.599   2.123  1.5755 -1.0257  1.5660
  620MOL0     O81709   8.959   4.137   0.765  0.2946 -0.0981 -1.1165
  620MOL0     C81710   9.007   4.020   0.784  0.2660  0.2293  0.7278
  620MOL0     O81711   8.958   3.936   0.883 -0.2444  0.9279 -0.2732
  620MOL0     C81712   8.856   3.970   0.967 -0.2435 -0.4256 -0.3537
  620MOL0     C81713   8.850   4.099   1.020 -0.1167 -0.0341  0.3596
  620MOL0     C81714   8.743   4.126   1.109 -1.0170 -0.1101  0.9025
  620MOL0     C81715   8.648   4.038   1.136 -0.6411  0.1169 -0.8056
  620MOL0     O81716   8.552   4.061   1.231 -0.4113  0.0971 -0.4644
  620MOL0     C81717   8.452   4.159   1.208  0.2053 -1.1111 -0.3039
  620MOL0     C81718   8.330   4.108   1.283 -0.0714 -0.7065  0.0426
  620MOL0     C81719   8.206   4.193   1.280  0.7035  0.8133 -0.7619
  620MOL0     C81720   8.078   4.134   1.343 -0.3359 -0.1819 -0.3874
  620MOL0     C81721   7.984   4.244   1.387 -1.0781 -0.0949  0.1538
  620MOL0     C81722   7.913   4.301   1.264  0.6075  0.9312  0.6491
  620MOL0     C81723   7.782   4.376   1.287  0.0495 -0.9007  0.1597
  620MOL0     C81724   7.685   4.368   1.162 -0.0387 -0.2509  0.1865
  620MOL0     N81725   7.565   4.462   1.158 -0.3486 -0.7937  0.3478
  620MOL0     C81726   7.462   4.447   1.242 -0.6150  0.3406 -0.4437
  620MOL0     C81727   7.366   4.534   1.197  0.2071  0.1126  0.0508
  620MOL0     C81728   7.234   4.556   1.268  0.0262  0.2108 -0.3818
  620MOL0     C81729   7.157   4.678   1.215 -0.4723  0.2399  0.4380
  620MOL0     C81730   7.023   4.689   1.285 -0.2548 -0.5141 -0.2158
  620MOL0     C81731   6.935   4.782   1.206 -0.0448  0.0053  0.1899
  620MOL0     O81732   6.980   4.921   1.211 -0.5708 -0.2821  0.0526
  620MOL0     C81733   6.949   4.997   1.318 -0.2340 -0.3065 -0.9582
  620MOL0     C81734   7.014   5.120   1.332 -0.2203  0.6050 -0.6453
  620MOL0     C81735   6.982   5.211   1.436  0.4649  0.6461  0.0600
  620MOL0     C81736   6.907   5.149   1.543  0.3580  0.3967 -0.1410
  620MOL0     C81737   6.900   5.221   1.677  0.1333  0.9522  0.3064
  620MOL0     O81738   6.953   5.347   1.695 -0.4820  0.2212  0.2567
  620MOL0     C81739   6.964   5.424   1.805  0.8382  0.5476  1.1198
  620MOL0     C81740   6.860   5.432   1.899 -0.2834  0.6201  0.1980
  620MOL0     C81741   6.865   5.533   2.003  0.5579  0.3094  0.3025
  620MOL0     C81742   6.978   5.609   2.010 -0.3139 -1.4486  0.0022
  620MOL0     O81743   7.000   5.719   2.096  0.1026  0.0232  0.4730
  620MOL0     C81744   6.884   5.765   2.179 -0.4913  0.0133  1.4193
  620MOL0     C81745   6.931   5.891   2.249  0.4482 -0.9978 -1.1210
  620MOL0     C81746   6.812   5.988   2.289  0.1106 -0.1712  0.3783
  620MOL0     C81747   6.846   6.132   2.310 -1.0761 -0.3613  0.2927
  620MOL0     C81748   6.735   6.195   2.404  0.8911  0.2450  0.6887
  620MOL0     C81749   6.621   6.255   2.308 -0.3902 -0.4742  0.8868
  620MOL0     C81750   6.501   6.305   2.378 -0.0502 -0.4270 -0.0155
  620MOL0     C81751   6.425   6.412   2.291  0.7385  0.4928 -0.0109
  620MOL0    Cl81752   6.484   6.575   2.336  0.1258 -0.2100  0.2935
  620MOL0     C81753   7.088   5.598   1.928  0.0283  1.0460  0.3507
  620MOL0     C81754   7.080   5.493   1.829 -0.1172 -0.6984  0.1225
  620MOL0     O81755   6.868   5.153   1.771 -0.4610 -0.2004 -0.0929
  620MOL0     C81756   6.847   5.021   1.532 -0.5343  0.0823 -0.3718
  620MOL0     C81757   6.868   4.952   1.418  0.8031 -0.1614 -0.3181
  620MOL0     N81758   7.423   4.603   1.081  0.2638  0.5069 -0.4230
  620MOL0     N81759   7.542   4.560   1.065  0.2835  0.4312  0.0816
  620MOL0     C81760   8.654   3.911   1.087 -0.8911 -0.4692 -0.7183
  620MOL0     C81761   8.760   3.873   0.998 -0.4474 -0.3425 -0.9355
  620MOL0     C81762   9.114   3.967   0.702  0.6807 -1.0601 -0.0166
  620MOL0     C81763   9.165   4.045   0.599  0.2266  1.0485  0.6904
  620MOL0     C81764   9.261   3.988   0.516 -0.5038 -0.2986 -0.4164
  620MOL0     C81765   9.324   3.871   0.551  0.2574 -0.3349  0.6926
  620MOL0     O81766   9.422   3.834   0.465  0.2014  0.0108  0.8201
  620MOL0     C81767   9.501   3.712   0.486 -0.1044  0.2224  0.1461
  620MOL0     C81768   9.581   3.684   0.358 -0.4389  0.3203  0.2075
  620MOL0     C81769   9.675   3.796   0.328 -0.0359  0.2423  0.7346
  620MOL0     C81770   9.783   3.786   0.211  0.2848 -0.0831  1.4915
  620MOL0     C81771   9.838   3.924   0.192 -0.0616  0.7253  0.5704
  620MOL0     C81772   9.874   4.036   0.174 -0.3207  0.1962  0.3978
  620MOL0     C81773   9.277   3.799   0.671  0.8488 -0.1815 -0.6732
  620MOL0     C81774   9.175   3.843   0.743  0.7949 -0.4389  0.7162
  620MOL0     H81775   8.916   4.182   0.997  2.1419 -1.4312  1.4043
  620MOL0     H81776   8.745   4.220   1.164  1.1760  0.2229  0.3802
  620MOL0     H81777   8.432   4.162   1.100  2.7618  2.1587 -0.8339
  620MOL0     H81778   8.489   4.257   1.239 -0.2088 -0.5189 -1.6059
  620MOL0     H81779   8.350   4.093   1.390  0.6549 -0.0734  0.0030
  620MOL0     H81780   8.300   4.008   1.251 -0.4825  0.0766 -2.1674
  620MOL0     H81781   8.181   4.217   1.177  0.4265 -1.0758 -1.1642
  620MOL0     H81782   8.233   4.282   1.339  3.8408 -0.6751  0.2058
  620MOL0     H81783   8.027   4.062   1.278  0.7879 -0.8546 -0.5521
  620MOL0     H81784   8.110   4.083   1.435  1.7019 -0.8247 -1.3747
  620MOL0     H81785   8.028   4.318   1.455  0.4951  0.2986 -1.2336
  620MOL0     H81786   7.901   4.212   1.452 -0.6750  1.2248  1.3748
  620MOL0     H81787   7.890   4.219   1.195  2.3402  0.8437  0.1260
  620MOL0     H81788   7.976   4.372   1.210 -1.1334  2.2399  0.2632
  620MOL0     H81789   7.734   4.335   1.377  0.7247 -3.3669 -0.5247
  620MOL0     H81790   7.808   4.480   1.307 -1.9343  0.1299 -2.1964
  620MOL0     H81791   7.647   4.266   1.151 -0.0620 -0.5028  2.2068
  620MOL0     H81792   7.736   4.386   1.067  2.4974  1.5764  1.7476
  620MOL0     H81793   7.453   4.376   1.324 -1.1181  0.5146 -0.3479
  620MOL0     H81794   7.241   4.555   1.377 -0.6870 -0.2308 -0.3375
  620MOL0     H81795   7.176   4.465   1.250  2.5133 -1.7756  0.9390
  620MOL0     H81796   7.152   4.661   1.107  0.9050  1.1822  0.1974
  620MOL0     H81797   7.226   4.757   1.248  4.1755 -2.1931 -2.2969
  620MOL0     H81798   6.967   4.595   1.296  0.7713 -0.8573  2.8576
  620MOL0     H81799   7.037   4.739   1.381 -3.4215  0.1878  0.0061
  620MOL0     H81800   6.833   4.781   1.247  0.0899 -1.1338  0.5314
  620MOL0     H81801   6.940   4.746   1.103  1.0483 -1.0988  0.6030
  620MOL0     H81802   7.066   5.153   1.243 -0.9399  1.7042 -0.6806
  620MOL0     H81803   7.000   5.318   1.430  0.7890  0.5284 -3.4595
  620MOL0     H81804   6.774   5.365   1.902 -0.1971  0.5024  0.0343
  620MOL0     H81805   6.779   5.542   2.069  0.0464  0.0897 -0.3263
  620MOL0     H81806   6.848   5.697   2.257 -1.0304 -1.5278 -0.1046
  620MOL0     H81807   6.802   5.792   2.111 -0.5432 -0.1772  1.4056
  620MOL0     H81808   6.996   5.952   2.185 -0.2462  1.3404  0.2918
  620MOL0     H81809   6.979   5.866   2.344  0.6492  0.3925 -0.8331
  620MOL0     H81810   6.771   5.957   2.386  0.1323  1.7672  1.0329
  620MOL0     H81811   6.731   5.987   2.216 -4.2385  1.4301  4.6679
  620MOL0     H81812   6.937   6.146   2.367  0.0399 -0.1230 -1.4720
  620MOL0     H81813   6.855   6.178   2.211  0.3836  0.9456  0.9986
  620MOL0     H81814   6.784   6.279   2.455  2.5383 -1.3449  1.8484
  620MOL0     H81815   6.699   6.129   2.483  0.1754 -2.7587 -1.9593
  620MOL0     H81816   6.569   6.171   2.261 -3.0232  0.0243  2.6747
  620MOL0     H81817   6.659   6.327   2.235 -0.8500  0.3488  1.4385
  620MOL0     H81818   6.439   6.218   2.399  0.1270 -0.3243  0.9829
  620MOL0     H81819   6.534   6.356   2.469 -1.1264  1.7168 -0.7584
  620MOL0     H81820   6.320   6.419   2.318  0.6699  3.7608 -0.5987
  620MOL0     H81821   6.434   6.391   2.184  0.1741 -0.3095  0.0967
  620MOL0     H81822   7.181   5.654   1.926 -0.2401  1.7241 -4.5820
  620MOL0     H81823   7.165   5.478   1.763 -0.8731  0.7015 -1.2289
  620MOL0     H81824   6.778   4.990   1.610 -0.3879  0.5940 -0.0329
  620MOL0     H81825   6.811   4.859   1.424 -0.6744  0.6740 -0.8583
  620MOL0     H81826   8.582   3.835   1.115 -0.5973 -1.6849 -3.0268
  620MOL0     H81827   8.775   3.770   0.968 -0.8464 -0.4579 -0.7495
  620MOL0     H81828   9.129   4.146   0.581  0.7131  1.4093  1.6668
  620MOL0     H81829   9.289   4.049   0.431 -0.9396  2.4261  1.2357
  620MOL0     H81830   9.439   3.624   0.504  1.2672 -0.3210  2.7197
  620MOL0     H81831   9.570   3.729   0.569  0.2375  1.1984 -0.3241
  620MOL0     H81832   9.636   3.590   0.371 -0.9304  0.0793  0.5761
  620MOL0     H81833   9.519   3.672   0.268  0.7762  0.2525 -0.6435
  620MOL0     H81834   9.730   3.814   0.422 -1.3008 -0.4777  1.6396
  620MOL0     H81835   9.606   3.878   0.306  1.7607  1.1007 -2.2121
  620MOL0     H81836   9.855   3.708   0.238  0.5977  0.4335  2.1955
  620MOL0     H81837   9.737   3.762   0.115  5.3513  1.5204 -1.7710
  620MOL0     H81838   9.898   4.138   0.150  0.1541  0.4283  1.8155
  620MOL0     H81839   9.315   3.707   0.713  0.6498  0.5141  1.0931
  620MOL0     H81840   9.147   3.785   0.831 -0.3002 -2.1030 -0.6720
  621MOL0     O81841   6.869   6.865   9.146 -0.0088 -0.0581 -0.3425
  621MOL0     C81842   6.991   6.852   9.142 -0.5501 -0.0252  0.4682
  621MOL0     O81843   7.082   6.936   9.098 -0.7072 -0.8321  0.8459
  621MOL0     C81844   7.041   7.037   9.018  0.0755  0.8047 -1.5372
  621MOL0     C81845   7.026   7.164   9.064 -0.5528  0.1107 -0.1430
  621MOL0     C81846   7.004   7.268   8.978 -0.1787  0.0662  0.2357
  621MOL0     C81847   6.998   7.248   8.842 -0.4501 -0.3509  0.5237
  621MOL0     O81848   6.985   7.362   8.760  1.0647  0.5029  0.1255
  621MOL0     C81849   7.076   7.358   8.648  1.5969 -1.3442 -0.4408
  621MOL0     C81850   7.080   7.492   8.576 -0.1780  0.5143  0.1748
  621MOL0     C81851   7.124   7.598   8.676 -0.2082 -0.9440 -0.1666
  621MOL0     C81852   7.278   7.591   8.708 -0.4620  0.1829  0.7174
  621MOL0     C81853   7.324   7.698   8.824  0.0999  0.4741  0.1798
  621MOL0     C81854   7.290   7.653   8.971 -1.8142 -0.2532  0.5270
  621MOL0     C81855   7.356   7.524   9.028  0.2082  1.1136  0.3662
  621MOL0     C81856   7.508   7.537   9.023 -0.0329  0.1916 -0.3727
  621MOL0     N81857   7.580   7.443   9.109 -0.3760 -0.0529  0.6753
  621MOL0     C81858   7.605   7.320   9.064  0.2573  0.6821 -0.0350
  621MOL0     C81859   7.673   7.264   9.164 -0.7591  0.1019  0.1407
  621MOL0     C81860   7.716   7.114   9.164  0.3163  0.2934  0.9046
  621MOL0     C81861   7.832   7.086   9.259  0.2638 -1.5626  0.8050
  621MOL0     C81862   7.970   7.153   9.222 -0.8245 -1.7332  0.5823
  621MOL0     C81863   7.981   7.249   9.104 -0.3481 -0.3710  0.7411
  621MOL0     O81864   7.935   7.202   8.974  0.0812 -0.0990  0.6560
  621MOL0     C81865   7.981   7.255   8.855  0.1628 -0.0117  0.0183
  621MOL0     C81866   8.101   7.307   8.838  0.4301  0.0034  0.3360
  621MOL0     C81867   8.130   7.368   8.718  0.4413 -0.4440 -0.2136
  621MOL0     C81868   8.038   7.375   8.613  1.2785  0.2943  0.2773
  621MOL0     C81869   8.081   7.441   8.484  0.6247  0.9078 -0.5462
  621MOL0     O81870   7.994   7.466   8.387  0.3780 -0.0422  0.0344
  621MOL0     C81871   8.038   7.528   8.271  0.9377  0.4414  0.2467
  621MOL0     C81872   8.134   7.626   8.255  0.3477 -1.0662  0.1878
  621MOL0     C81873   8.156   7.696   8.136 -0.3997 -0.0660  0.1792
  621MOL0     C81874   8.075   7.666   8.020 -0.7257 -0.4813  0.0061
  621MOL0     O81875   8.093   7.731   7.899  0.4337 -0.1997 -0.3802
  621MOL0     C81876   8.203   7.826   7.896  0.2581  0.4686  0.8792
  621MOL0     C81877   8.209   7.900   7.765  0.3242  0.2661 -0.4412
  621MOL0     C81878   8.270   8.045   7.782  0.6064 -1.2249 -0.3656
  621MOL0     C81879   8.317   8.104   7.644 -0.9407  0.1477  0.3253
  621MOL0     C81880   8.371   8.247   7.672  0.9824  0.4181  1.5410
  621MOL0     C81881   8.524   8.267   7.664 -0.4389  0.4842 -0.1385
  621MOL0     C81882   8.607   8.187   7.775 -0.8454 -0.0577  0.6563
  621MOL0     C81883   8.644   8.275   7.889 -0.0839  0.2393 -0.4658
  621MOL0    Cl81884   8.689   8.147   8.001 -0.1586 -0.4175 -0.0870
  621MOL0     C81885   7.975   7.567   8.031  0.3228  0.6947  0.4101
  621MOL0     C81886   7.954   7.499   8.156 -0.6801 -1.7832 -0.0343
  621MOL0     O81887   8.203   7.454   8.470  0.1179 -0.0126  0.2975
  621MOL0     C81888   7.909   7.320   8.626 -0.5200 -0.0144  0.0250
  621MOL0     C81889   7.881   7.256   8.752 -0.4779 -0.0177  0.2537
  621MOL0     N81890   7.679   7.347   9.274 -0.1815  1.2345  0.6695
  621MOL0     N81891   7.610   7.452   9.241  0.3127 -0.2024  0.5122
  621MOL0     C81892   6.990   7.115   8.791 -0.2602 -0.8933 -0.1178
  621MOL0     C81893   7.014   7.011   8.882  0.5684  0.1722 -0.4386
  621MOL0     C81894   7.038   6.718   9.181 -0.5456 -0.5727  0.4450
  621MOL0     C81895   7.177   6.701   9.215 -1.2136  0.0085  0.0037
  621MOL0     C81896   7.229   6.574   9.249 -0.4783 -0.4617  0.3366
  621MOL0     C81897   7.139   6.466   9.256  0.3731  0.5731  0.3053
  621MOL0     O81898   7.172   6.342   9.312 -0.4523  0.1856  0.8544
  621MOL0     C81899   7.247   6.259   9.225  0.1805  0.2354 -0.3968
  621MOL0     C81900   7.267   6.125   9.287 -0.2399 -0.0512 -0.6135
  621MOL0     C81901   7.154   6.050   9.358 -0.6374 -0.4452  0.5648
  621MOL0     C81902   7.223   5.940   9.447 -1.0050  0.3422  0.5623
  621MOL0     C81903   7.286   5.832   9.367 -0.2663  0.0872 -0.0442
  621MOL0     C81904   7.319   5.739   9.302 -0.0502 -0.1816 -0.8707
  621MOL0     C81905   7.001   6.484   9.213 -0.8310 -0.6329  0.1314
  621MOL0     C81906   6.954   6.608   9.175 -0.0367 -0.4876 -0.7772
  621MOL0     H81907   7.034   7.177   9.172  2.0362  0.2818 -0.2932
  621MOL0     H81908   7.002   7.369   9.017  0.9608  1.7253 -3.5370
  621MOL0     H81909   7.051   7.285   8.572 -2.7995  1.0714 -1.6196
  621MOL0     H81910   7.169   7.336   8.702  1.3677 -2.0066 -0.3163
  621MOL0     H81911   6.982   7.512   8.532 -0.1324  1.2531  0.3975
  621MOL0     H81912   7.154   7.489   8.495 -1.5603 -0.3646 -1.1136
  621MOL0     H81913   7.052   7.600   8.759 -1.0939  2.9459 -0.8315
  621MOL0     H81914   7.108   7.695   8.629 -0.2641  1.5903  4.4793
  621MOL0     H81915   7.307   7.487   8.726  0.1243  0.0041 -1.0166
  621MOL0     H81916   7.325   7.598   8.609 -2.9527 -2.7401 -0.8140
  621MOL0     H81917   7.279   7.793   8.796  0.7465  0.2614 -1.7194
  621MOL0     H81918   7.433   7.703   8.820  0.1595 -1.1760 -1.8672
  621MOL0     H81919   7.181   7.651   8.974 -1.9094  1.0065 -1.0956
  621MOL0     H81920   7.321   7.735   9.037 -0.6474 -0.8618  0.7775
  621MOL0     H81921   7.312   7.493   9.123 -0.0607 -1.5006 -0.5203
  621MOL0     H81922   7.329   7.438   8.966 -0.4272  0.8019  1.0569
  621MOL0     H81923   7.544   7.633   9.061  1.8589 -0.0153 -1.5324
  621MOL0     H81924   7.553   7.528   8.924  0.3881  1.7309 -0.3387
  621MOL0     H81925   7.579   7.270   8.971 -3.2397  0.5413  0.8715
  621MOL0     H81926   7.747   7.085   9.063  2.8216  0.5531  1.5300
  621MOL0     H81927   7.625   7.061   9.197  1.8173 -1.5831  2.3071
  621MOL0     H81928   7.843   6.985   9.300  1.9895 -2.2793 -1.2410
  621MOL0     H81929   7.797   7.138   9.349 -1.2111  2.3792 -1.7972
  621MOL0     H81930   8.008   7.210   9.307 -1.1399  0.4953 -0.6973
  621MOL0     H81931   8.045   7.073   9.217  2.6355  1.1339  1.8471
  621MOL0     H81932   8.089   7.267   9.099  0.0506 -2.5413  0.4853
  621MOL0     H81933   7.922   7.339   9.120  0.4243  0.3204 -0.1873
  621MOL0     H81934   8.166   7.305   8.924 -0.5586 -1.3765  1.0801
  621MOL0     H81935   8.235   7.394   8.720  0.1108  0.9103  0.4979
  621MOL0     H81936   8.195   7.659   8.337 -0.9498 -1.0091  1.1612
  621MOL0     H81937   8.239   7.767   8.142  2.4014 -3.1966  1.8686
  621MOL0     H81938   8.298   7.775   7.913 -0.2637 -1.2831 -1.1130
  621MOL0     H81939   8.193   7.901   7.975 -0.4204  0.6919  0.5931
  621MOL0     H81940   8.112   7.922   7.721  1.4018  2.7400 -1.8114
  621MOL0     H81941   8.264   7.833   7.697 -0.4480  0.0686 -0.8864
  621MOL0     H81942   8.354   8.042   7.851  0.1456 -0.1294  0.2686
  621MOL0     H81943   8.192   8.112   7.819  1.1547  0.7918 -2.6350
  621MOL0     H81944   8.395   8.041   7.599 -2.6834 -2.3697  0.6494
  621MOL0     H81945   8.240   8.096   7.567  3.0932 -6.9575 -4.0310
  621MOL0     H81946   8.331   8.279   7.769  0.5493 -1.5295  2.0617
  621MOL0     H81947   8.317   8.315   7.605  0.1093  0.3705  2.1758
  621MOL0     H81948   8.552   8.372   7.672  1.5820 -0.0840  1.0439
  621MOL0     H81949   8.555   8.228   7.566 -2.8449 -1.2537 -0.2930
  621MOL0     H81950   8.547   8.104   7.814 -0.8784  0.5007  1.8370
  621MOL0     H81951   8.702   8.155   7.730 -0.4992 -0.1283  1.4165
  621MOL0     H81952   8.555   8.331   7.920  0.7174  1.8508 -0.9721
  621MOL0     H81953   8.728   8.338   7.858 -0.0622 -0.6578 -2.3486
  621MOL0     H81954   7.912   7.538   7.948  2.0302  2.3285 -1.5738
  621MOL0     H81955   7.860   7.445   8.153 -1.0746 -1.1715  0.8313
  621MOL0     H81956   7.842   7.327   8.540  2.6550  0.6251 -2.5851
  621MOL0     H81957   7.785   7.210   8.771 -0.2346 -0.6810 -0.1047
  621MOL0     H81958   6.967   7.099   8.686 -1.1691  0.5323 -0.1618
  621MOL0     H81959   7.008   6.905   8.858 -1.4596 -1.5293  5.7619
  621MOL0     H81960   7.248   6.782   9.224 -0.5701 -0.6241  0.7673
  621MOL0     H81961   7.331   6.569   9.286  0.0209 -1.6837 -1.0809
  621MOL0     H81962   7.348   6.300   9.213 -0.0842  1.6908  1.8670
  621MOL0     H81963   7.202   6.244   9.126  2.2353 -1.6032 -1.1459
  621MOL0     H81964   7.302   6.055   9.211 -3.9163 -2.5654 -0.2379
  621MOL0     H81965   7.346   6.152   9.357 -0.4562  1.9709 -1.0961
  621MOL0     H81966   7.086   6.010   9.282  0.0143 -0.4405 -0.0354
  621MOL0     H81967   7.123   6.126   9.429  2.5304  1.5638  0.0094
  621MOL0     H81968   7.295   5.994   9.510  0.2399 -1.5193  0.8133
  621MOL0     H81969   7.140   5.899   9.505 -2.4901  1.0867 -0.9462
  621MOL0     H81970   7.326   5.642   9.258 -1.0943 -0.5230 -0.3273
  621MOL0     H81971   6.940   6.393   9.210  0.9993 -1.8876 -2.0900
  621MOL0     H81972   6.853   6.620   9.139 -1.3815 -0.1805  2.6798
  622MOL0     O81973   2.700   7.254   3.265  0.1063 -0.0166 -0.1946
  622MOL0     C81974   2.676   7.162   3.344  0.2266  0.1385 -0.0536
  622MOL0     O81975   2.693   7.175   3.487 -0.0264  0.0225  0.5108
  622MOL0     C81976   2.737   7.301   3.537 -0.1215 -0.0105  1.1460
  622MOL0     C81977   2.825   7.295   3.645  0.2070  0.4143 -0.8314
  622MOL0     C81978   2.868   7.404   3.712 -0.2669 -0.1985 -1.1891
  622MOL0     C81979   2.830   7.534   3.669 -0.1012  0.2536  0.2798
  622MOL0     O81980   2.888   7.636   3.743  1.1355 -0.0695 -0.3869
  622MOL0     C81981   2.855   7.767   3.714  0.7201 -0.2390  0.9012
  622MOL0     C81982   2.895   7.869   3.816 -1.0411  0.9799 -0.5401
  622MOL0     C81983   2.836   8.007   3.808  0.6787 -0.0416 -1.2565
  622MOL0     C81984   2.874   8.099   3.929 -0.3644 -0.2958  0.4868
  622MOL0     C81985   2.801   8.229   3.904 -0.2626  0.7632 -0.7730
  622MOL0     C81986   2.841   8.343   4.003 -0.1304  0.7066 -0.6076
  622MOL0     C81987   2.980   8.407   3.986 -0.5928  0.3091  0.2726
  622MOL0     C81988   3.000   8.524   4.078 -0.2237 -0.5453 -0.7666
  622MOL0     N81989   2.926   8.638   4.027  0.5991  0.4555  0.3993
  622MOL0     C81990   2.878   8.744   4.103 -1.5233 -0.5301  0.4931
  622MOL0     C81991   2.837   8.835   4.012 -0.4465 -0.4874 -0.5921
  622MOL0     C81992   2.789   8.966   4.058  0.0940 -0.3977 -0.2235
  622MOL0     C81993   2.633   8.967   4.067  0.0512 -0.0519  0.1745
  622MOL0     C81994   2.565   9.099   4.125  0.3390 -0.5380 -0.4591
  622MOL0     C81995   2.619   9.227   4.075  0.1218 -0.0343 -0.4049
  622MOL0     O81996   2.595   9.228   3.935 -0.8925  0.3819 -0.0126
  622MOL0     C81997   2.683   9.287   3.854 -0.4664 -0.1900  0.8471
  622MOL0     C81998   2.746   9.206   3.749  0.0026  0.3991  0.7414
  622MOL0     C81999   2.829   9.265   3.651 -0.3260  0.3604 -0.0052
  622MOL0     C82000   2.873   9.397   3.673 -0.8640 -0.6869  0.3523
  622MOL0     C82001   2.989   9.450   3.594 -0.8490 -0.2450  0.2660
  622MOL0     O82002   3.040   9.370   3.498  0.0481  1.2141  0.4094
  622MOL0     C82003   3.147   9.403   3.422  0.0095  0.2332  0.5172
  622MOL0     C82004   3.154   9.339   3.299 -0.6116  0.3857  1.0272
  622MOL0     C82005   3.262   9.361   3.211 -0.2009 -0.6612  0.5927
  622MOL0     C82006   3.364   9.444   3.246  0.1450  0.1546  1.1588
  622MOL0     O82007   3.473   9.462   3.163  0.4005 -0.5260 -0.2960
  622MOL0     C82008   3.554   9.580   3.171  0.4282 -0.4928  0.6766
  622MOL0     C82009   3.648   9.585   3.055  0.1876 -0.6378  0.3798
  622MOL0     C82010   3.755   9.691   3.072 -0.1489  0.1597 -0.0007
  622MOL0     C82011   3.848   9.693   2.947 -0.1411  0.4437 -1.0482
  622MOL0     C82012   3.942   9.815   2.941  0.8737  0.2795  0.0534
  622MOL0     C82013   3.999   9.820   2.806 -0.2176  0.0629 -0.2215
  622MOL0     C82014   4.106   9.935   2.807 -0.9199 -0.6770  0.0775
  622MOL0     C82015   4.190   9.923   2.676  0.9087 -0.5660 -0.3673
  622MOL0    Cl82016   4.337  10.014   2.664  0.4373  0.7870 -0.4940
  622MOL0     C82017   3.361   9.512   3.371 -0.3288  0.5498  0.2476
  622MOL0     C82018   3.252   9.491   3.457  0.1103  0.3400 -0.3770
  622MOL0     O82019   3.025   9.565   3.627  0.9376  0.4750  0.7058
  622MOL0     C82020   2.809   9.472   3.768 -0.0406 -0.2328  0.4029
  622MOL0     C82021   2.704   9.423   3.845 -0.4497 -0.6670  0.2444
  622MOL0     N82022   2.851   8.786   3.889 -0.1408  0.0537 -0.2540
  622MOL0     N82023   2.895   8.666   3.899  0.0033  0.2258  0.0554
  622MOL0     C82024   2.748   7.544   3.561  1.2741 -0.4824 -0.3226
  622MOL0     C82025   2.694   7.434   3.494  0.1530 -0.7676 -0.0770
  622MOL0     C82026   2.618   7.039   3.288 -0.2127 -0.4524 -1.0888
  622MOL0     C82027   2.569   7.037   3.160  0.8479  0.7711 -0.2038
  622MOL0     C82028   2.514   6.918   3.118  1.1169  0.0192 -1.0325
  622MOL0     C82029   2.515   6.798   3.189  0.3705  0.0305  0.6655
  622MOL0     O82030   2.458   6.686   3.132 -0.6748  0.3414 -1.1604
  622MOL0     C82031   2.525   6.559   3.161  0.3024 -0.2831  0.2836
  622MOL0     C82032   2.491   6.457   3.038 -0.0497 -0.2149 -0.5790
  622MOL0     C82033   2.351   6.389   3.044 -0.0825 -0.7665  0.2466
  622MOL0     C82034   2.242   6.486   3.008  0.8549  1.0463 -0.0435
  622MOL0     C82035   2.114   6.429   2.993  0.2694  0.0705 -1.4482
  622MOL0     C82036   2.008   6.371   2.971  0.3770  0.7845  0.3112
  622MOL0     C82037   2.565   6.806   3.319  0.3451  0.2988 -0.0475
  622MOL0     C82038   2.607   6.921   3.372 -1.0532 -0.0691  0.0429
  622MOL0     H82039   2.842   7.193   3.677 -0.1935  1.0251  1.4886
  622MOL0     H82040   2.935   7.393   3.796  1.6567  0.5962 -2.5517
  622MOL0     H82041   2.746   7.778   3.704  0.5491 -1.6392  0.9769
  622MOL0     H82042   2.898   7.802   3.620  1.1397 -1.2309  0.7098
  622MOL0     H82043   3.003   7.881   3.806 -1.1489  0.2345 -3.7598
  622MOL0     H82044   2.864   7.826   3.911 -0.5624 -0.0413 -0.8346
  622MOL0     H82045   2.727   8.000   3.804  0.7393 -0.9452 -1.5814
  622MOL0     H82046   2.868   8.061   3.719 -1.4619  2.9754 -0.3939
  622MOL0     H82047   2.847   8.053   4.024  0.1846 -3.2214 -0.6615
  622MOL0     H82048   2.981   8.119   3.921 -0.3124 -1.2136 -2.0880
  622MOL0     H82049   2.696   8.205   3.920  0.2018 -2.7323 -2.1491
  622MOL0     H82050   2.836   8.265   3.807  3.1512 -3.9976 -1.7157
  622MOL0     H82051   2.846   8.304   4.105 -0.4392  3.0966  0.3956
  622MOL0     H82052   2.765   8.418   3.981  2.0761  2.6577 -2.0623
  622MOL0     H82053   3.057   8.332   4.009 -1.9351 -1.4039 -0.5780
  622MOL0     H82054   3.005   8.441   3.885  2.9174  1.4666  1.3861
  622MOL0     H82055   3.106   8.550   4.089 -0.6874  0.9320  0.7263
  622MOL0     H82056   2.968   8.502   4.181  5.0105 -1.1584  1.0254
  622MOL0     H82057   2.888   8.779   4.206 -0.6309  3.4059 -0.7653
  622MOL0     H82058   2.840   9.044   4.001  1.0409  1.3208  2.7535
  622MOL0     H82059   2.815   8.975   4.164  1.4300  2.1719 -0.6973
  622MOL0     H82060   2.600   8.878   4.122 -0.3518  0.4365  0.7446
  622MOL0     H82061   2.599   8.951   3.965 -1.5087 -2.8835  1.0181
  622MOL0     H82062   2.456   9.103   4.112  0.4004  1.5928 -0.6439
  622MOL0     H82063   2.586   9.095   4.233  0.4269 -2.6822 -0.5101
  622MOL0     H82064   2.726   9.213   4.096 -0.2485 -0.9124  1.0023
  622MOL0     H82065   2.582   9.320   4.118  1.4059  1.5791 -2.5697
  622MOL0     H82066   2.720   9.101   3.748  0.1634  0.3145 -2.1159
  622MOL0     H82067   2.867   9.211   3.565  1.0775  1.6702 -0.2422
  622MOL0     H82068   3.075   9.274   3.265  1.0677 -1.6516  0.7846
  622MOL0     H82069   3.253   9.324   3.110 -1.4255  2.0115 -0.3798
  622MOL0     H82070   3.614   9.563   3.261 -1.0714  0.8343  1.9763
  622MOL0     H82071   3.497   9.671   3.189 -0.1703 -0.0051 -3.0020
  622MOL0     H82072   3.597   9.594   2.959 -1.4436  1.2925  1.3371
  622MOL0     H82073   3.690   9.487   3.035  2.0636  0.1189  0.4345
  622MOL0     H82074   3.816   9.661   3.158  1.6471 -0.3065 -1.3940
  622MOL0     H82075   3.714   9.790   3.095 -0.2796 -0.3606  2.2968
  622MOL0     H82076   3.902   9.598   2.935  0.2090  0.3585  0.9401
  622MOL0     H82077   3.778   9.700   2.864 -1.7857 -0.0174  0.2558
  622MOL0     H82078   4.016   9.813   3.021  2.5809  3.3216 -1.2858
  622MOL0     H82079   3.879   9.902   2.962 -1.3279 -0.8928 -1.3546
  622MOL0     H82080   3.913   9.845   2.744 -1.9387  1.8568  2.6401
  622MOL0     H82081   4.043   9.725   2.774 -2.1434 -0.3090 -1.9626
  622MOL0     H82082   4.052  10.029   2.815  2.8121  1.7603 -0.8329
  622MOL0     H82083   4.175   9.936   2.892 -1.0154  2.2763  0.2081
  622MOL0     H82084   4.123   9.949   2.594 -1.8567 -0.4778  1.8022
  622MOL0     H82085   4.212   9.816   2.673 -0.9405 -1.1075  1.9820
  622MOL0     H82086   3.448   9.569   3.404  1.1445 -1.1566 -0.5398
  622MOL0     H82087   3.254   9.530   3.558 -0.6794  0.2457 -0.3154
  622MOL0     H82088   2.830   9.578   3.767 -1.7740  0.2050  2.6639
  622MOL0     H82089   2.652   9.493   3.909  2.7723  1.6168  0.5925
  622MOL0     H82090   2.714   7.642   3.528 -1.5136 -2.6592 -4.9442
  622MOL0     H82091   2.632   7.456   3.407 -1.1566 -0.3561  0.9369
  622MOL0     H82092   2.569   7.126   3.098  0.8806  0.6280 -0.4120
  622MOL0     H82093   2.462   6.917   3.023 -1.3690  1.0073  0.1981
  622MOL0     H82094   2.515   6.521   3.263 -1.7982  1.4878  0.8050
  622MOL0     H82095   2.632   6.580   3.155  0.5954 -0.9558  2.4334
  622MOL0     H82096   2.504   6.505   2.941  0.5779  1.6341  0.3624
  622MOL0     H82097   2.567   6.378   3.042  0.6078  0.4312  1.7897
  622MOL0     H82098   2.348   6.355   3.148  1.5492 -1.9356 -0.0412
  622MOL0     H82099   2.358   6.307   2.972 -1.1877 -0.7912  0.1612
  622MOL0     H82100   2.233   6.572   3.075 -0.0282  0.9356 -0.0069
  622MOL0     H82101   2.258   6.505   2.901  0.5757 -1.8393 -0.6737
  622MOL0     H82102   1.929   6.303   2.946  1.3775  0.2020 -1.4432
  622MOL0     H82103   2.545   6.710   3.367 -2.0373  1.2342  0.9559
  622MOL0     H82104   2.649   6.925   3.472 -2.4010 -2.1576  0.7571
  623MOL0     O82105  10.681   4.349   5.907 -0.3408  0.1118 -0.8133
  623MOL0     C82106  10.763   4.349   5.818 -0.3676  0.8272 -0.4826
  623MOL0     O82107  10.738   4.333   5.686  0.3761  0.5600  0.1563
  623MOL0     C82108  10.609   4.324   5.648  0.7204  0.1040  0.2079
  623MOL0     C82109  10.574   4.201   5.612  0.1945  0.7653  0.2353
  623MOL0     C82110  10.448   4.178   5.571  0.1215  0.3662  0.4113
  623MOL0     C82111  10.356   4.290   5.571 -0.3602 -0.2869  0.3177
  623MOL0     O82112  10.232   4.295   5.522 -0.1943 -0.6120 -0.6862
  623MOL0     C82113  10.174   4.171   5.472  0.7101 -0.1801  0.0243
  623MOL0     C82114  10.218   4.128   5.336 -0.3981 -0.2733  0.5195
  623MOL0     C82115  10.111   4.141   5.235 -0.4360  0.1174  0.0225
  623MOL0     C82116  10.134   4.080   5.095 -0.3845  0.5768  0.6714
  623MOL0     C82117  10.098   4.160   4.970  0.3599 -0.0811 -0.4759
  623MOL0     C82118  10.178   4.287   4.953  0.8695 -0.6970 -0.4894
  623MOL0     C82119  10.131   4.362   4.825  0.6967  0.3548 -0.7639
  623MOL0     C82120  10.178   4.514   4.819  0.4667  0.0828 -0.6257
  623MOL0     N82121  10.312   4.536   4.775 -0.7529  0.0299  0.1585
  623MOL0     C82122  10.343   4.568   4.644 -0.1884  0.8974  0.2505
  623MOL0     C82123  10.483   4.581   4.654  1.2885 -0.5947 -0.7383
  623MOL0     C82124  10.568   4.601   4.525  0.0599  0.5992 -0.9694
  623MOL0     C82125  10.640   4.464   4.488  1.0383 -0.7203 -0.2806
  623MOL0     C82126  10.738   4.402   4.586 -0.0178  0.4582  0.6644
  623MOL0     C82127  10.867   4.484   4.597  1.1014 -0.3603  0.4455
  623MOL0     O82128  10.900   4.548   4.468  0.6853 -0.1944  0.0777
  623MOL0     C82129  11.027   4.545   4.427  0.1476 -0.5733 -0.0267
  623MOL0     C82130  11.134   4.547   4.501 -0.4332 -0.3542  0.1971
  623MOL0     C82131  11.261   4.564   4.440  1.2413 -0.0956 -1.5018
  623MOL0     C82132  11.275   4.590   4.295 -0.2317  0.3265 -0.0498
  623MOL0     C82133  11.416   4.594   4.247 -0.2454  1.0359 -0.0628
  623MOL0     O82134  11.515   4.598   4.343 -0.0337 -0.3804  0.4241
  623MOL0     C82135  11.653   4.604   4.313  0.0633  0.5585 -0.3632
  623MOL0     C82136  11.747   4.518   4.371  0.4410 -1.3074  0.1518
  623MOL0     C82137  11.886   4.521   4.343  0.2996 -0.5492 -0.0886
  623MOL0     C82138  11.928   4.624   4.254 -0.5863  0.8348 -0.2664
  623MOL0     O82139  12.058   4.667   4.237 -0.6284  0.2334 -0.2329
  623MOL0     C82140  12.163   4.609   4.315 -0.1879 -0.3675  0.4731
  623MOL0     C82141  12.296   4.679   4.273  0.6207 -0.2791  0.0366
  623MOL0     C82142  12.326   4.634   4.136  0.5381  0.4854  0.9944
  623MOL0     C82143  12.465   4.661   4.079  0.9018 -0.3622 -0.8795
  623MOL0     C82144  12.515   4.802   4.099  0.0279 -0.7622 -0.4224
  623MOL0     C82145  12.603   4.834   4.226 -0.2229 -0.9734 -0.1823
  623MOL0     C82146  12.572   4.964   4.297 -0.2330 -0.0080  0.4522
  623MOL0     C82147  12.600   5.087   4.214  0.1081 -0.2924 -0.2925
  623MOL0    Cl82148  12.516   5.235   4.292  0.6835 -0.7543  0.0170
  623MOL0     C82149  11.827   4.696   4.185 -0.2923  1.5920  0.9124
  623MOL0     C82150  11.690   4.694   4.220  0.3572  0.3651  0.8218
  623MOL0     O82151  11.431   4.602   4.122  0.4155 -0.2328  0.5398
  623MOL0     C82152  11.157   4.581   4.225  0.0567 -0.1352 -0.2934
  623MOL0     C82153  11.028   4.566   4.289 -0.0588 -1.2451 -1.0460
  623MOL0     N82154  10.523   4.557   4.792 -1.0673 -0.2535  0.2620
  623MOL0     N82155  10.421   4.543   4.852 -0.1553 -0.1604 -0.0510
  623MOL0     C82156  10.398   4.416   5.604 -0.4365 -0.1438  0.4426
  623MOL0     C82157  10.529   4.437   5.650 -0.1382  0.8569 -0.2438
  623MOL0     C82158  10.909   4.339   5.849  0.0368 -0.7622 -0.7473
  623MOL0     C82159  11.012   4.370   5.755  0.0137  0.5264 -0.9904
  623MOL0     C82160  11.145   4.356   5.780  0.1367  0.2636  0.5504
  623MOL0     C82161  11.183   4.323   5.907  0.1408 -0.3632 -0.2035
  623MOL0     O82162  11.318   4.305   5.917 -0.0812  0.1123 -1.4020
  623MOL0     C82163  11.372   4.296   6.046  0.7158  0.3278 -0.5118
  623MOL0     C82164  11.527   4.297   6.052  0.5119  0.5963  0.0052
  623MOL0     C82165  11.588   4.293   6.193  0.6808  0.7676 -0.6995
  623MOL0     C82166  11.733   4.316   6.184  0.1798  0.0959 -0.2406
  623MOL0     C82167  11.756   4.462   6.153  1.0820 -0.0031 -0.6053
  623MOL0     C82168  11.785   4.578   6.129  0.5356  0.4450 -0.1303
  623MOL0     C82169  11.088   4.299   6.009  0.2527  0.0586  0.3661
  623MOL0     C82170  10.957   4.317   5.984  0.5341  0.4727 -0.6230
  623MOL0     H82171  10.639   4.114   5.612  0.5136  0.9531 -2.2953
  623MOL0     H82172  10.425   4.077   5.541 -0.4268 -1.2841  5.5053
  623MOL0     H82173  10.069   4.192   5.492  0.1774 -3.9432  2.0970
  623MOL0     H82174  10.204   4.098   5.547 -0.3901 -0.0076  0.6465
  623MOL0     H82175  10.244   4.021   5.341  0.4801 -0.0207  2.0217
  623MOL0     H82176  10.311   4.181   5.310  0.4841 -2.7105 -1.8374
  623MOL0     H82177  10.075   4.244   5.227 -1.2574  0.0136  1.8754
  623MOL0     H82178  10.023   4.090   5.274 -0.6052 -2.2704 -3.0359
  623MOL0     H82179  10.237   4.042   5.090 -1.2254 -1.8474  0.4471
  623MOL0     H82180  10.077   3.987   5.105  0.1267  0.3372  1.4630
  623MOL0     H82181   9.989   4.172   4.971  0.3348 -0.3147 -0.2054
  623MOL0     H82182  10.123   4.099   4.883  1.0400 -1.2751  0.5126
  623MOL0     H82183  10.285   4.263   4.958  0.6168 -1.5393  2.0977
  623MOL0     H82184  10.156   4.355   5.036 -1.4185 -1.3751 -0.4786
  623MOL0     H82185  10.160   4.307   4.735 -2.5987 -1.2183 -1.0325
  623MOL0     H82186  10.023   4.343   4.832  0.8991 -0.6989 -0.4044
  623MOL0     H82187  10.152   4.562   4.914  0.1120  0.7199 -1.0363
  623MOL0     H82188  10.108   4.560   4.749 -1.8933 -0.5591  1.1827
  623MOL0     H82189  10.281   4.582   4.557  0.4890 -2.7371 -0.9757
  623MOL0     H82190  10.634   4.689   4.526  2.0647 -0.8244 -1.1111
  623MOL0     H82191  10.496   4.618   4.444 -0.6640 -0.4618 -0.5672
  623MOL0     H82192  10.694   4.486   4.395 -0.7261  0.3875 -1.1053
  623MOL0     H82193  10.560   4.391   4.471  0.8210 -0.3039 -1.0989
  623MOL0     H82194  10.695   4.390   4.686 -1.1803  0.6557  0.1965
  623MOL0     H82195  10.773   4.303   4.554 -0.3191  0.5978 -0.1117
  623MOL0     H82196  10.948   4.416   4.626  0.3206 -0.2036  3.3481
  623MOL0     H82197  10.841   4.551   4.679 -1.1444 -1.8109  1.0106
  623MOL0     H82198  11.116   4.522   4.605 -1.8186 -1.4978 -0.2709
  623MOL0     H82199  11.343   4.567   4.511  0.9203  4.4963 -1.0081
  623MOL0     H82200  11.719   4.433   4.433 -3.7234 -1.6953 -1.8765
  623MOL0     H82201  11.956   4.470   4.408 -1.9126  0.2152  3.0990
  623MOL0     H82202  12.164   4.502   4.293 -2.4901 -0.0739 -1.4747
  623MOL0     H82203  12.148   4.622   4.423  0.3255  1.0020  0.4072
  623MOL0     H82204  12.371   4.646   4.346  0.1494 -1.4228  0.0249
  623MOL0     H82205  12.300   4.788   4.285 -1.3192 -0.2634  0.9552
  623MOL0     H82206  12.259   4.688   4.069  0.3671 -0.9350 -0.0267
  623MOL0     H82207  12.298   4.528   4.127 -0.5578  0.5413  3.0914
  623MOL0     H82208  12.531   4.593   4.134  0.4247 -0.5197 -0.4952
  623MOL0     H82209  12.465   4.619   3.978 -4.0112 -4.1361  0.2871
  623MOL0     H82210  12.433   4.875   4.101  2.2027  1.8490  0.7315
  623MOL0     H82211  12.583   4.839   4.021 -0.6957 -0.9220 -1.1410
  623MOL0     H82212  12.709   4.835   4.198 -0.3662 -2.1264 -0.8446
  623MOL0     H82213  12.598   4.748   4.293  1.8126  0.2054  1.5903
  623MOL0     H82214  12.470   4.947   4.334 -0.6041 -1.8033 -1.1996
  623MOL0     H82215  12.636   4.965   4.386  1.8002 -1.1766 -0.9352
  623MOL0     H82216  12.560   5.069   4.114 -2.4759 -1.2793  0.8036
  623MOL0     H82217  12.704   5.116   4.197  0.1531 -1.2554 -1.7895
  623MOL0     H82218  11.868   4.755   4.103 -0.1017 -0.6429 -0.6773
  623MOL0     H82219  11.620   4.767   4.181  0.6906  1.5583  2.3633
  623MOL0     H82220  11.173   4.579   4.118 -1.1419  0.4621 -0.4978
  623MOL0     H82221  10.938   4.561   4.227 -0.6552 -3.7830 -0.1073
  623MOL0     H82222  10.320   4.492   5.610  1.0495  1.4454  0.3115
  623MOL0     H82223  10.563   4.535   5.684  0.9910  0.2079  0.5458
  623MOL0     H82224  11.003   4.393   5.649 -2.8788  1.7703 -0.5644
  623MOL0     H82225  11.218   4.354   5.700  0.5435 -1.8326  0.9311
  623MOL0     H82226  11.327   4.217   6.107 -0.1093  0.5331 -0.8557
  623MOL0     H82227  11.346   4.388   6.098 -1.1699 -0.1542 -0.5426
  623MOL0     H82228  11.555   4.205   6.000  0.4735 -0.1715  1.3232
  623MOL0     H82229  11.564   4.389   6.004  0.6589 -0.2131 -1.5017
  623MOL0     H82230  11.574   4.194   6.239 -0.7055  2.2122  2.2828
  623MOL0     H82231  11.534   4.362   6.259  1.2561 -1.0056  1.8046
  623MOL0     H82232  11.788   4.294   6.277 -1.4020 -2.7432  0.1174
  623MOL0     H82233  11.780   4.248   6.113  1.4032  0.2324  0.3986
  623MOL0     H82234  11.811   4.676   6.096  0.7929  0.2288 -0.5720
  623MOL0     H82235  11.131   4.257   6.100 -0.4092 -2.8047 -0.5314
  623MOL0     H82236  10.887   4.294   6.064  0.4559  0.4932 -0.6860
  624MOL0     O82237   8.943   5.137   3.568  0.7489  0.1772 -0.3948
  624MOL0     C82238   8.950   5.015   3.581 -0.5473  0.2682  0.2302
  624MOL0     O82239   9.016   4.924   3.496 -0.1810 -0.4586 -0.6437
  624MOL0     C82240   9.050   4.954   3.365  0.1992  0.6526  0.4856
  624MOL0     C82241   9.026   5.064   3.287 -0.1492 -0.5263  0.2738
  624MOL0     C82242   9.047   5.086   3.150  0.7180  0.0394 -0.8512
  624MOL0     C82243   9.090   4.975   3.081 -1.2523 -0.1960 -0.5650
  624MOL0     O82244   9.103   4.980   2.944 -0.1180  0.1485  0.2827
  624MOL0     C82245   9.207   5.071   2.903 -1.4762  0.4057  0.6320
  624MOL0     C82246   9.288   5.014   2.785 -0.9363 -0.1143  0.8652
  624MOL0     C82247   9.197   5.019   2.656 -1.1182  0.0672  1.2123
  624MOL0     C82248   9.280   4.979   2.539 -0.2763 -0.3063  0.5420
  624MOL0     C82249   9.193   4.975   2.414  0.4876 -0.3317  0.4538
  624MOL0     C82250   9.276   4.984   2.283 -0.4161 -1.4961  0.3026
  624MOL0     C82251   9.364   4.868   2.244 -0.2846  0.1536  0.5560
  624MOL0     C82252   9.433   4.897   2.107 -0.1831  0.0708  0.0377
  624MOL0     N82253   9.505   5.026   2.087  0.3292  0.1061  0.3419
  624MOL0     C82254   9.610   5.082   2.168  0.2101  0.4271 -0.8552
  624MOL0     C82255   9.617   5.205   2.107  0.6217 -0.5212  0.3767
  624MOL0     C82256   9.694   5.318   2.157  0.4468  0.9015  0.1776
  624MOL0     C82257   9.840   5.271   2.193  0.1071 -0.3280 -0.6759
  624MOL0     C82258   9.901   5.388   2.282  0.7362 -0.6213  0.2785
  624MOL0     C82259  10.001   5.475   2.206 -0.3304  0.2303 -0.7696
  624MOL0     O82260  10.093   5.536   2.300  1.2753  0.1886 -0.5727
  624MOL0     C82261  10.183   5.634   2.269  0.3247  0.5423  0.7348
  624MOL0     C82262  10.186   5.704   2.145  0.0125  0.2339 -0.1386
  624MOL0     C82263  10.285   5.802   2.125  0.2138 -0.1754 -0.2291
  624MOL0     C82264  10.374   5.837   2.234  0.4765 -0.8262 -0.7909
  624MOL0     C82265  10.476   5.943   2.220 -0.4475 -0.5400  0.6975
  624MOL0     O82266  10.445   6.043   2.125  0.9338  0.2268  0.3111
  624MOL0     C82267  10.519   6.148   2.113  0.6121 -0.6529 -1.3769
  624MOL0     C82268  10.439   6.265   2.113  0.7473 -0.3904 -0.0499
  624MOL0     C82269  10.502   6.386   2.108 -0.5741  0.3568  0.2759
  624MOL0     C82270  10.644   6.388   2.092  1.1678  0.4620 -0.4813
  624MOL0     O82271  10.686   6.515   2.083  0.9378 -0.6830 -0.6550
  624MOL0     C82272  10.755   6.538   1.958 -1.2738 -0.4362 -0.2967
  624MOL0     C82273  10.746   6.682   1.895 -0.3767  0.2553 -0.9106
  624MOL0     C82274  10.862   6.777   1.937  0.3051 -0.9418 -0.3460
  624MOL0     C82275  10.863   6.905   1.857  0.2857  0.0742 -0.3532
  624MOL0     C82276  10.944   7.016   1.923  0.5290 -0.6894  0.4448
  624MOL0     C82277  10.983   7.126   1.832  1.5996 -1.2239 -0.4123
  624MOL0     C82278  11.032   7.249   1.918  0.4911 -0.4627  0.1128
  624MOL0     C82279  11.140   7.240   2.029 -0.0667 -1.1018 -0.2825
  624MOL0    Cl82280  11.088   7.160   2.188 -0.1116  0.3330 -0.4585
  624MOL0     C82281  10.718   6.269   2.075  0.1910  0.6253 -0.1941
  624MOL0     C82282  10.651   6.149   2.080 -0.9470 -1.1273 -0.4901
  624MOL0     O82283  10.579   5.943   2.288  0.4486  1.0559 -0.2012
  624MOL0     C82284  10.367   5.769   2.356  0.0129 -0.5559  0.0857
  624MOL0     C82285  10.272   5.669   2.368  0.1200  0.0883  0.2714
  624MOL0     N82286   9.551   5.208   1.993 -0.4772 -0.5337  0.1149
  624MOL0     N82287   9.482   5.107   1.986 -0.1205  0.0785 -0.6977
  624MOL0     C82288   9.132   4.860   3.154 -0.1316 -0.0264 -0.4181
  624MOL0     C82289   9.103   4.848   3.292  0.3367  0.2153 -0.3837
  624MOL0     C82290   8.893   4.956   3.700 -0.1911  0.1281 -0.1679
  624MOL0     C82291   8.892   4.811   3.716 -0.8871 -0.5373 -0.3377
  624MOL0     C82292   8.855   4.754   3.839  0.9367 -0.9084 -0.7154
  624MOL0     C82293   8.821   4.842   3.949  0.0108  0.2790  0.2313
  624MOL0     O82294   8.773   4.777   4.063 -0.9412 -0.1464  0.2579
  624MOL0     C82295   8.882   4.732   4.151 -0.2310 -0.0481 -0.4362
  624MOL0     C82296   8.829   4.670   4.278  0.5012  0.2540  0.0629
  624MOL0     C82297   8.758   4.537   4.257 -0.2480  0.1938  0.0195
  624MOL0     C82298   8.733   4.460   4.388 -0.1636  0.4354 -0.3913
  624MOL0     C82299   8.655   4.523   4.496  0.2808  0.2970  0.6486
  624MOL0     C82300   8.593   4.564   4.587  0.9153 -0.6774 -0.3145
  624MOL0     C82301   8.830   4.980   3.924  1.3389 -0.4601 -0.1186
  624MOL0     C82302   8.860   5.039   3.806 -0.1918 -0.3412 -0.5228
  624MOL0     H82303   9.018   5.162   3.334  0.1270 -0.9115  1.1456
  624MOL0     H82304   9.015   5.182   3.109  5.2221  1.2391 -2.1657
  624MOL0     H82305   9.275   5.091   2.987 -0.8792  0.5245  0.1268
  624MOL0     H82306   9.166   5.168   2.872  1.1941  2.2221  2.3523
  624MOL0     H82307   9.338   4.917   2.797  0.6348 -0.3866 -4.8002
  624MOL0     H82308   9.370   5.085   2.774  0.0626 -1.2386  0.7807
  624MOL0     H82309   9.174   5.122   2.628  2.0925  0.5560 -0.0294
  624MOL0     H82310   9.102   4.966   2.664 -0.7454 -1.3024 -1.9850
  624MOL0     H82311   9.360   5.053   2.529 -1.7501  1.7995  2.9903
  624MOL0     H82312   9.329   4.882   2.553 -1.0807 -1.0450 -1.4542
  624MOL0     H82313   9.125   5.061   2.410  1.1563  0.1811 -0.4316
  624MOL0     H82314   9.138   4.881   2.412  0.9458 -0.6063  0.5901
  624MOL0     H82315   9.341   5.072   2.285 -0.6903 -1.2631  2.6799
  624MOL0     H82316   9.202   4.985   2.203  2.2919 -1.8324 -2.3898
  624MOL0     H82317   9.442   4.857   2.319  2.4720  3.1641 -1.6087
  624MOL0     H82318   9.311   4.773   2.232  1.8843 -1.0368 -0.2751
  624MOL0     H82319   9.380   4.880   2.014 -0.8538  1.8031  0.0698
  624MOL0     H82320   9.506   4.815   2.101 -1.6213 -1.2186 -0.4645
  624MOL0     H82321   9.663   5.047   2.255 -1.0636  0.6958  0.0577
  624MOL0     H82322   9.630   5.345   2.241 -0.0882 -1.2177  0.5109
  624MOL0     H82323   9.684   5.404   2.090 -2.3635  0.3475 -0.2338
  624MOL0     H82324   9.911   5.251   2.112  0.1880  0.6772 -0.8597
  624MOL0     H82325   9.840   5.184   2.259 -0.3653  1.2858  1.5555
  624MOL0     H82326   9.817   5.455   2.302 -1.3067 -3.7035  3.0637
  624MOL0     H82327   9.938   5.353   2.379 -1.6417 -2.2858  0.6756
  624MOL0     H82328   9.967   5.559   2.145  0.7385  0.5961 -0.8899
  624MOL0     H82329  10.055   5.407   2.140  0.4011  2.6827 -2.8878
  624MOL0     H82330  10.123   5.677   2.061  1.4992  0.2124 -1.2849
  624MOL0     H82331  10.273   5.849   2.028 -3.3790  2.7639  1.4080
  624MOL0     H82332  10.331   6.257   2.123  0.6994 -0.3933 -0.5650
  624MOL0     H82333  10.449   6.481   2.115 -0.2608  0.8799 -3.0152
  624MOL0     H82334  10.696   6.483   1.884 -2.2360 -3.0485  2.2079
  624MOL0     H82335  10.858   6.503   1.964 -1.5712 -1.1854  0.7587
  624MOL0     H82336  10.650   6.717   1.936 -0.4113 -2.0814  1.2522
  624MOL0     H82337  10.741   6.677   1.786  1.3158  2.3786 -1.1623
  624MOL0     H82338  10.961   6.733   1.929  0.0336 -1.4948 -0.7169
  624MOL0     H82339  10.844   6.813   2.038 -1.0117  0.5009 -1.0535
  624MOL0     H82340  10.896   6.887   1.755  4.8312  1.5237  0.6598
  624MOL0     H82341  10.761   6.942   1.839  0.7835  0.3066 -3.0804
  624MOL0     H82342  11.032   6.972   1.969 -1.7764 -0.8484  5.3589
  624MOL0     H82343  10.884   7.044   2.011 -0.5334 -2.4587  0.3226
  624MOL0     H82344  10.903   7.161   1.767  1.1149 -1.5289  0.0183
  624MOL0     H82345  11.068   7.084   1.777  2.0126 -0.2152 -0.5734
  624MOL0     H82346  11.066   7.326   1.848  0.8949  2.8197  3.5659
  624MOL0     H82347  10.937   7.283   1.958 -0.4768 -0.5346 -1.9752
  624MOL0     H82348  11.175   7.340   2.057 -0.2696 -2.1097  4.3808
  624MOL0     H82349  11.219   7.188   1.973 -0.0608  0.2330 -1.5971
  624MOL0     H82350  10.826   6.276   2.069  0.2162  0.2860 -0.1512
  624MOL0     H82351  10.696   6.050   2.076 -0.8555 -1.1895  1.2626
  624MOL0     H82352  10.443   5.786   2.431  0.9365  4.2859 -1.6115
  624MOL0     H82353  10.252   5.615   2.460 -5.6831 -1.2906 -1.3937
  624MOL0     H82354   9.174   4.770   3.110  0.6128 -0.1780  0.5616
  624MOL0     H82355   9.130   4.759   3.349 -0.5699  0.9681  1.3067
  624MOL0     H82356   8.932   4.743   3.641 -0.8067  1.1187 -1.8781
  624MOL0     H82357   8.837   4.647   3.843  0.8147 -0.9879 -2.4839
  624MOL0     H82358   8.955   4.811   4.169  1.2001 -0.7584 -2.7846
  624MOL0     H82359   8.945   4.669   4.089  0.0233  0.3595 -0.5954
  624MOL0     H82360   8.918   4.652   4.339 -2.1267  0.4287  4.3546
  624MOL0     H82361   8.764   4.745   4.323  0.7668  1.3571 -1.3094
  624MOL0     H82362   8.820   4.476   4.191  0.9080 -1.6570  2.6111
  624MOL0     H82363   8.668   4.546   4.196  0.1721 -0.0469 -0.6514
  624MOL0     H82364   8.682   4.367   4.364  0.9441 -0.6347  1.2028
  624MOL0     H82365   8.834   4.430   4.418  0.9252  0.9385 -3.2818
  624MOL0     H82366   8.527   4.607   4.660  0.5716  1.5219 -1.7925
  624MOL0     H82367   8.805   5.051   4.002 -3.6495 -2.4294  0.4898
  624MOL0     H82368   8.862   5.146   3.791 -0.6418 -0.3824 -0.9151
  625MOL0     O82369   4.172   2.959   8.371  0.0662  0.2840  0.1137
  625MOL0     C82370   4.127   2.859   8.315 -0.2520  0.2563  0.1980
  625MOL0     O82371   4.165   2.807   8.197  0.2287  0.3691  0.0903
  625MOL0     C82372   4.252   2.866   8.115 -0.0507 -0.6124  0.9887
  625MOL0     C82373   4.239   2.999   8.083  0.2099 -0.0682 -0.6673
  625MOL0     C82374   4.326   3.053   7.984 -1.0383 -1.0622  0.5893
  625MOL0     C82375   4.423   2.977   7.926  0.2155 -0.4764 -0.0952
  625MOL0     O82376   4.490   3.037   7.820 -0.6138  1.3101 -0.6618
  625MOL0     C82377   4.626   3.060   7.842 -1.1276 -0.7985 -0.2887
  625MOL0     C82378   4.640   3.155   7.964  0.3257  0.9233  0.1749
  625MOL0     C82379   4.771   3.225   7.997  0.1094 -0.5148  0.3711
  625MOL0     C82380   4.887   3.136   7.973 -0.1363 -0.3272 -0.1706
  625MOL0     C82381   5.014   3.198   8.042  0.6412  0.0886 -0.3319
  625MOL0     C82382   5.079   3.320   7.971 -0.5288  0.6039  0.1588
  625MOL0     C82383   5.173   3.385   8.069  0.4086  0.1109  0.0131
  625MOL0     C82384   5.264   3.491   7.993  0.5472 -0.6055  0.1557
  625MOL0     N82385   5.336   3.572   8.085 -0.4447  0.3069  0.2405
  625MOL0     C82386   5.448   3.523   8.151 -0.5368 -0.1973  0.6152
  625MOL0     C82387   5.489   3.628   8.234 -0.3827 -0.8919 -1.1504
  625MOL0     C82388   5.602   3.623   8.341  0.7133 -0.0909 -0.2882
  625MOL0     C82389   5.651   3.484   8.362  1.5708 -0.2684 -0.8529
  625MOL0     C82390   5.730   3.486   8.495  0.2932 -1.1907 -0.0296
  625MOL0     C82391   5.854   3.570   8.492 -0.3201  0.6567 -0.0897
  625MOL0     O82392   5.949   3.543   8.599 -0.1077 -0.1564  0.4837
  625MOL0     C82393   6.083   3.561   8.564  0.6927 -0.1165  0.3091
  625MOL0     C82394   6.142   3.674   8.502 -0.0067  1.3091  0.1648
  625MOL0     C82395   6.276   3.681   8.463 -0.6643  0.0020  0.3973
  625MOL0     C82396   6.356   3.584   8.512 -0.6195  1.3514  0.0983
  625MOL0     C82397   6.504   3.585   8.497 -0.1769 -0.3055 -0.2927
  625MOL0     O82398   6.550   3.720   8.481  0.6386  0.1180 -0.7868
  625MOL0     C82399   6.688   3.738   8.486 -0.3648  0.5406  0.3247
  625MOL0     C82400   6.756   3.789   8.371 -0.6401 -0.1490 -0.2883
  625MOL0     C82401   6.902   3.808   8.369  0.9664  0.4905 -0.1684
  625MOL0     C82402   6.981   3.775   8.485 -0.8882  0.0651  0.3911
  625MOL0     O82403   7.117   3.796   8.477 -0.3712 -0.3373 -0.0196
  625MOL0     C82404   7.207   3.754   8.584  0.2083 -0.3544 -0.2031
  625MOL0     C82405   7.229   3.868   8.694  0.4460  0.0564 -1.2461
  625MOL0     C82406   7.334   3.976   8.665  0.3955  0.3991  0.4184
  625MOL0     C82407   7.320   4.081   8.780 -0.3456 -0.1816  0.6756
  625MOL0     C82408   7.404   4.197   8.744 -1.1425 -0.7082 -0.2264
  625MOL0     C82409   7.367   4.317   8.834 -0.0933  0.7198 -0.0891
  625MOL0     C82410   7.492   4.401   8.836  0.1129 -1.3697 -0.0994
  625MOL0     C82411   7.444   4.543   8.854  0.1491 -0.2036 -0.1954
  625MOL0    Cl82412   7.408   4.561   9.034 -0.0998 -0.3575 -0.3257
  625MOL0     C82413   6.906   3.725   8.605 -0.7829  0.2865  0.2217
  625MOL0     C82414   6.767   3.705   8.600 -0.1612 -0.2833 -0.8396
  625MOL0     O82415   6.578   3.488   8.518 -0.2712  0.0202 -0.4532
  625MOL0     C82416   6.303   3.478   8.589  0.0810 -0.0794 -1.1294
  625MOL0     C82417   6.165   3.471   8.615 -0.5196 -0.1113  0.6558
  625MOL0     N82418   5.399   3.731   8.209 -0.4441 -0.4024 -0.6016
  625MOL0     N82419   5.312   3.699   8.124  0.7969 -0.4538  0.5658
  625MOL0     C82420   4.442   2.847   7.957 -0.9702 -0.6202  0.7030
  625MOL0     C82421   4.354   2.797   8.042  1.5696 -0.1257 -0.2441
  625MOL0     C82422   4.021   2.784   8.380 -0.0656  0.3833  0.5515
  625MOL0     C82423   3.952   2.678   8.314  0.4813 -0.3064  0.1235
  625MOL0     C82424   3.852   2.605   8.379  0.0588 -0.0291 -0.6536
  625MOL0     C82425   3.799   2.652   8.496  1.0365 -0.0293 -0.2054
  625MOL0     O82426   3.687   2.590   8.550  0.2968  0.0996  0.6771
  625MOL0     C82427   3.577   2.674   8.520  0.5356  0.3520 -0.0003
  625MOL0     C82428   3.440   2.614   8.559  0.5580 -0.8807 -0.4190
  625MOL0     C82429   3.432   2.597   8.712 -1.0709  0.1561  0.1961
  625MOL0     C82430   3.281   2.552   8.749 -0.1071 -0.2154 -0.1926
  625MOL0     C82431   3.286   2.474   8.878  0.1037  0.5392  0.3872
  625MOL0     C82432   3.306   2.420   8.982 -0.2668 -0.2103 -0.7828
  625MOL0     C82433   3.862   2.750   8.561 -0.0102  0.2417 -0.0356
  625MOL0     C82434   3.978   2.817   8.514 -0.7916 -0.4702  0.0148
  625MOL0     H82435   4.157   3.054   8.126 -2.2468 -2.8168 -1.4952
  625MOL0     H82436   4.305   3.157   7.960  0.0278 -0.6175  1.4867
  625MOL0     H82437   4.677   3.100   7.754 -1.1780  1.0670  0.4861
  625MOL0     H82438   4.679   2.966   7.861  2.7394  0.7361 -2.5174
  625MOL0     H82439   4.636   3.082   8.046  2.5254  0.2930 -0.2341
  625MOL0     H82440   4.571   3.240   7.967  1.5929  1.9535  1.1280
  625MOL0     H82441   4.770   3.266   8.099 -1.1318 -0.2733  0.2797
  625MOL0     H82442   4.775   3.312   7.930 -2.0102 -0.5115  0.1746
  625MOL0     H82443   4.878   3.039   8.023  3.1302 -2.4159 -3.1075
  625MOL0     H82444   4.904   3.106   7.869  1.7680  1.9639 -0.6262
  625MOL0     H82445   5.095   3.126   8.062  2.9922  2.1987 -1.7042
  625MOL0     H82446   4.983   3.233   8.141  2.9845  0.4168  0.3549
  625MOL0     H82447   5.001   3.391   7.942  1.1903  1.3374 -3.2352
  625MOL0     H82448   5.130   3.295   7.878  2.8018  4.3133  0.6935
  625MOL0     H82449   5.114   3.434   8.147  2.1313 -0.3501  1.6926
  625MOL0     H82450   5.234   3.309   8.118 -0.8144 -1.7007 -1.1568
  625MOL0     H82451   5.196   3.559   7.943  0.7310 -1.6688 -1.6194
  625MOL0     H82452   5.326   3.440   7.918 -0.8952 -2.8786  0.4208
  625MOL0     H82453   5.509   3.434   8.139  0.8845  0.1684  3.9099
  625MOL0     H82454   5.574   3.672   8.434  1.3422  2.4155 -1.3524
  625MOL0     H82455   5.682   3.692   8.311 -0.2792  1.1716 -0.0651
  625MOL0     H82456   5.716   3.451   8.281  2.8931 -0.4287  0.2362
  625MOL0     H82457   5.561   3.426   8.380 -0.1859  2.6331  0.4938
  625MOL0     H82458   5.668   3.537   8.569  0.5855 -1.1305  0.1764
  625MOL0     H82459   5.757   3.388   8.536 -0.0671 -1.1454  0.3242
  625MOL0     H82460   5.832   3.676   8.508  0.1428  1.0277 -1.7239
  625MOL0     H82461   5.902   3.563   8.394 -1.8435 -3.1335 -0.7357
  625MOL0     H82462   6.073   3.749   8.465 -2.0916 -0.6766 -0.2070
  625MOL0     H82463   6.324   3.763   8.412 -0.1901 -0.7594 -0.3978
  625MOL0     H82464   6.693   3.829   8.293 -1.3435 -1.5406 -0.4621
  625MOL0     H82465   6.956   3.858   8.290  0.2637  0.3890 -0.7255
  625MOL0     H82466   7.306   3.736   8.542 -0.7983  2.6917 -4.6693
  625MOL0     H82467   7.172   3.666   8.637 -1.4788  2.0735  3.1229
  625MOL0     H82468   7.249   3.830   8.794  2.4314  2.7998 -0.4663
  625MOL0     H82469   7.134   3.922   8.702  0.7080  0.3932 -0.2891
  625MOL0     H82470   7.319   4.026   8.569 -2.1677 -3.0092 -1.2108
  625MOL0     H82471   7.436   3.936   8.661 -0.5387 -2.7723  3.6268
  625MOL0     H82472   7.214   4.110   8.784  0.3615  2.5237  1.2354
  625MOL0     H82473   7.349   4.052   8.882  0.8193 -1.7599 -0.0663
  625MOL0     H82474   7.403   4.214   8.636  0.9647  0.1676 -0.1658
  625MOL0     H82475   7.507   4.165   8.763 -0.6634 -0.6057 -2.3915
  625MOL0     H82476   7.337   4.282   8.934  1.0133  0.0637  0.0225
  625MOL0     H82477   7.283   4.360   8.779 -2.7038 -3.4496  0.1591
  625MOL0     H82478   7.552   4.370   8.922  1.1628  1.6663  0.3846
  625MOL0     H82479   7.549   4.397   8.743  0.8178  2.5844  0.0080
  625MOL0     H82480   7.352   4.567   8.800 -1.0471  2.2019  2.6275
  625MOL0     H82481   7.516   4.622   8.832  0.7365 -1.1624 -2.0019
  625MOL0     H82482   6.979   3.695   8.679  1.8469 -4.1798 -3.6224
  625MOL0     H82483   6.716   3.660   8.684 -3.5944  0.1618 -2.4988
  625MOL0     H82484   6.372   3.402   8.623  0.6326 -0.1081 -2.2684
  625MOL0     H82485   6.119   3.381   8.655  0.9374 -0.2669  2.0888
  625MOL0     H82486   4.515   2.781   7.912 -1.8743 -0.2903 -1.3709
  625MOL0     H82487   4.345   2.694   8.074 -0.5649  0.2454  0.5026
  625MOL0     H82488   3.987   2.637   8.220 -1.8286  1.7292 -1.7330
  625MOL0     H82489   3.798   2.533   8.318  1.8881  0.7973 -3.4336
  625MOL0     H82490   3.569   2.698   8.414 -1.9950  1.5770  0.3996
  625MOL0     H82491   3.586   2.774   8.563  0.1164  0.7090 -0.7346
  625MOL0     H82492   3.359   2.683   8.532 -0.3390 -0.9290  1.8831
  625MOL0     H82493   3.430   2.519   8.508 -0.4797 -0.4315 -1.0870
  625MOL0     H82494   3.472   2.684   8.765  0.3071  0.9530 -2.0096
  625MOL0     H82495   3.498   2.516   8.741  0.8148  2.2052  2.0086
  625MOL0     H82496   3.217   2.640   8.755  0.4123  0.1132  0.6883
  625MOL0     H82497   3.260   2.489   8.662  1.5062 -2.1056  0.6979
  625MOL0     H82498   3.324   2.351   9.062  2.2331  2.5470  1.2857
  625MOL0     H82499   3.823   2.790   8.654  0.3403 -2.5408  1.4164
  625MOL0     H82500   4.028   2.900   8.563  2.4080 -0.0214 -3.5743
  626MOL0     O82501   2.846   9.041   5.680  0.2743 -0.4104  0.0710
  626MOL0     C82502   2.823   9.027   5.801 -0.6580 -1.0155  1.3523
  626MOL0     O82503   2.884   8.941   5.880 -0.0319 -0.1317  0.1302
  626MOL0     C82504   3.004   8.886   5.844 -0.0829  0.0260 -0.6671
  626MOL0     C82505   3.039   8.753   5.874 -0.2610  0.1450  1.1799
  626MOL0     C82506   3.157   8.701   5.831 -0.8960  0.3490 -0.6786
  626MOL0     C82507   3.250   8.780   5.764 -0.1807 -0.0100  0.0787
  626MOL0     O82508   3.374   8.750   5.732  0.5815  0.4016 -0.0635
  626MOL0     C82509   3.432   8.630   5.779  0.2195 -0.3676  0.7725
  626MOL0     C82510   3.566   8.611   5.708 -0.0176 -0.9615 -0.0761
  626MOL0     C82511   3.535   8.556   5.575  0.9819  0.1791  0.1953
  626MOL0     C82512   3.644   8.583   5.478  0.1647 -0.2734 -0.2875
  626MOL0     C82513   3.777   8.495   5.505  1.5642 -0.1498 -0.1568
  626MOL0     C82514   3.767   8.345   5.527 -0.3573  0.2384  0.3171
  626MOL0     C82515   3.686   8.274   5.421 -0.5923  0.6420  0.1228
  626MOL0     C82516   3.678   8.120   5.445  0.3152 -0.4649 -0.5120
  626MOL0     N82517   3.604   8.078   5.569 -0.0677  0.1680  1.0529
  626MOL0     C82518   3.482   8.117   5.603 -0.5473 -1.1502  1.2087
  626MOL0     C82519   3.487   8.110   5.733 -1.2779  0.1346 -0.1933
  626MOL0     C82520   3.371   8.145   5.830 -0.6171  0.2292 -0.2203
  626MOL0     C82521   3.319   8.021   5.901  0.6198 -0.1270  0.5593
  626MOL0     C82522   3.236   8.061   6.021  0.1205  0.5640 -0.1743
  626MOL0     C82523   3.209   7.951   6.121  0.3841 -0.6586  0.3483
  626MOL0     O82524   3.157   7.825   6.063  0.3736 -0.0613  0.5374
  626MOL0     C82525   3.019   7.823   6.054  0.0191  1.0987  0.4076
  626MOL0     C82526   2.959   7.833   5.932 -0.3846  0.3774 -1.3700
  626MOL0     C82527   2.817   7.844   5.919  0.4760 -0.1086  1.3594
  626MOL0     C82528   2.729   7.853   6.032  1.0025  0.4298  0.2857
  626MOL0     C82529   2.582   7.864   6.031 -0.5128  0.2296 -0.0489
  626MOL0     O82530   2.526   7.915   6.144  0.2699 -0.6846 -1.1697
  626MOL0     C82531   2.390   7.915   6.168  0.2781  0.7943  1.0442
  626MOL0     C82532   2.288   7.905   6.071 -0.7349  0.1581 -0.4611
  626MOL0     C82533   2.147   7.902   6.105 -0.5120 -1.0131 -0.2250
  626MOL0     C82534   2.114   7.921   6.237  0.2020  0.1367 -0.0739
  626MOL0     O82535   1.980   7.942   6.257  0.1238 -0.2662 -0.0068
  626MOL0     C82536   1.923   7.929   6.391 -0.4505  0.5939  0.1944
  626MOL0     C82537   1.776   7.979   6.386  0.2941  0.4534 -0.6457
  626MOL0     C82538   1.684   7.900   6.289 -0.2294  1.0745  0.2450
  626MOL0     C82539   1.558   7.977   6.250  0.3738  0.4697  0.5371
  626MOL0     C82540   1.503   7.921   6.117  0.5415  0.5874 -0.7685
  626MOL0     C82541   1.582   7.941   5.989  0.8695 -1.3646 -0.0241
  626MOL0     C82542   1.492   7.892   5.868 -0.7095 -0.0537  0.2010
  626MOL0     C82543   1.456   7.736   5.861 -0.3486 -0.0963  0.1442
  626MOL0    Cl82544   1.378   7.701   5.699 -0.7807  0.6100 -0.4083
  626MOL0     C82545   2.216   7.942   6.334  0.2854 -0.6950  0.0393
  626MOL0     C82546   2.350   7.944   6.297  0.4907 -0.5215  1.0370
  626MOL0     O82547   2.516   7.800   5.952 -0.3240  0.3997  0.9659
  626MOL0     C82548   2.793   7.836   6.155 -0.1278  0.0108 -0.1169
  626MOL0     C82549   2.929   7.830   6.170  0.3790 -0.1494 -0.5685
  626MOL0     N82550   3.609   8.062   5.774 -0.5977  0.3598 -0.0854
  626MOL0     N82551   3.680   8.040   5.670  0.6604  0.6512  0.0739
  626MOL0     C82552   3.222   8.906   5.740  0.2214  0.2265 -0.4868
  626MOL0     C82553   3.098   8.959   5.777 -0.2287  0.3320  0.0809
  626MOL0     C82554   2.709   9.107   5.859  0.9245 -0.9727  0.3529
  626MOL0     C82555   2.619   9.054   5.950 -0.0982  0.7253 -0.6258
  626MOL0     C82556   2.524   9.134   6.021  0.0016  1.1175 -0.5690
  626MOL0     C82557   2.507   9.266   5.992 -0.5897 -0.1371 -0.6684
  626MOL0     O82558   2.414   9.354   6.046 -0.3386 -0.3575  0.0173
  626MOL0     C82559   2.308   9.302   6.124  0.1078  0.3793 -0.0953
  626MOL0     C82560   2.209   9.230   6.033 -0.1670  0.5774  0.5817
  626MOL0     C82561   2.126   9.315   5.932  0.2824 -0.8723  0.3988
  626MOL0     C82562   2.012   9.237   5.863 -0.1603 -0.8239  0.3012
  626MOL0     C82563   1.958   9.305   5.739 -0.4867 -0.5965 -0.5194
  626MOL0     C82564   1.917   9.346   5.636 -0.1761 -0.3235  0.7044
  626MOL0     C82565   2.593   9.322   5.889  1.1179  0.3600  0.2220
  626MOL0     C82566   2.686   9.248   5.822 -0.9936  0.9751  0.0328
  626MOL0     H82567   2.975   8.688   5.934 -0.3190 -0.8146  0.1243
  626MOL0     H82568   3.187   8.601   5.861 -0.2325  0.2349 -1.6759
  626MOL0     H82569   3.373   8.545   5.743 -2.0798  2.3176 -2.4486
  626MOL0     H82570   3.451   8.631   5.886 -0.1580  2.0043  0.8675
  626MOL0     H82571   3.636   8.543   5.756  2.8861  1.8754  0.0079
  626MOL0     H82572   3.616   8.708   5.710 -0.3510 -0.8010  1.4458
  626MOL0     H82573   3.458   8.614   5.524  1.0049 -0.1551 -0.2184
  626MOL0     H82574   3.519   8.448   5.576  1.0876  0.1645  0.2772
  626MOL0     H82575   3.606   8.573   5.376  1.1955  1.0297 -0.8193
  626MOL0     H82576   3.676   8.687   5.469  0.5153 -0.3187  0.4199
  626MOL0     H82577   3.813   8.525   5.604  2.1301  0.5841 -0.5776
  626MOL0     H82578   3.849   8.522   5.428 -1.1535 -1.0186 -3.2086
  626MOL0     H82579   3.732   8.324   5.628  1.9916  1.8798  1.5746
  626MOL0     H82580   3.867   8.300   5.520 -2.0585 -4.2544  1.8657
  626MOL0     H82581   3.581   8.307   5.422 -1.3380 -1.4633 -1.2179
  626MOL0     H82582   3.729   8.289   5.321  0.7954 -2.1008  0.2266
  626MOL0     H82583   3.779   8.079   5.453  0.8162  0.7381 -0.5637
  626MOL0     H82584   3.633   8.060   5.365  0.6266  2.1533 -2.7969
  626MOL0     H82585   3.408   8.167   5.541  2.1259  1.3510 -0.2454
  626MOL0     H82586   3.289   8.182   5.767 -1.2498 -0.4012  0.2126
  626MOL0     H82587   3.411   8.216   5.903  1.1921 -2.8541  2.0126
  626MOL0     H82588   3.411   7.966   5.922  3.3194  2.2499 -3.5725
  626MOL0     H82589   3.250   7.983   5.825 -2.4004  0.0622  2.9827
  626MOL0     H82590   3.280   8.143   6.078  0.7561  1.1266 -1.4388
  626MOL0     H82591   3.141   8.100   5.984 -1.6117 -2.4025  0.7831
  626MOL0     H82592   3.139   8.000   6.188  0.6372  0.8154 -0.4138
  626MOL0     H82593   3.295   7.932   6.186 -1.2883 -0.0901  2.8696
  626MOL0     H82594   3.009   7.820   5.837  1.6282  0.7791 -0.4096
  626MOL0     H82595   2.775   7.846   5.819 -3.2177  0.1666  2.7577
  626MOL0     H82596   2.319   7.892   5.968  0.5782 -0.3281 -0.0118
  626MOL0     H82597   2.070   7.888   6.030 -0.6002  0.1440 -0.3789
  626MOL0     H82598   1.979   8.002   6.450 -1.1557  1.3914 -0.1034
  626MOL0     H82599   1.934   7.836   6.448  1.3467 -0.0494 -1.1131
  626MOL0     H82600   1.791   8.081   6.349  2.3748  0.4238 -0.0076
  626MOL0     H82601   1.739   7.985   6.489  4.4907  1.2747  1.0169
  626MOL0     H82602   1.644   7.807   6.329 -0.9646  0.7948 -1.0612
  626MOL0     H82603   1.743   7.883   6.198 -0.5502  3.2070 -0.4303
  626MOL0     H82604   1.481   7.975   6.329 -3.9683  0.7373 -3.2781
  626MOL0     H82605   1.587   8.082   6.240  1.3711  0.7199  4.2715
  626MOL0     H82606   1.401   7.960   6.106  0.4440  0.4703 -0.3213
  626MOL0     H82607   1.471   7.817   6.125 -3.1052  1.6966  3.1760
  626MOL0     H82608   1.672   7.879   5.989  1.1659 -1.0982 -2.9800
  626MOL0     H82609   1.612   8.046   5.978 -0.9787 -0.8504 -0.3718
  626MOL0     H82610   1.397   7.946   5.862 -0.7169 -0.2156 -1.3084
  626MOL0     H82611   1.558   7.914   5.784 -0.2255 -0.9387  0.3441
  626MOL0     H82612   1.383   7.708   5.937 -3.4348  1.1917 -2.1239
  626MOL0     H82613   1.547   7.677   5.874  1.0092  2.5090  4.0158
  626MOL0     H82614   2.179   7.958   6.435 -1.2480  1.9843 -0.8283
  626MOL0     H82615   2.423   7.953   6.377  2.6556 -0.3024 -0.8403
  626MOL0     H82616   2.739   7.837   6.249  1.4441  0.1267  0.8318
  626MOL0     H82617   2.974   7.818   6.269  1.3778  0.7055 -0.8969
  626MOL0     H82618   3.289   8.977   5.692  1.4526 -0.7636 -0.2787
  626MOL0     H82619   3.088   9.066   5.758  2.0096  0.7792  1.1270
  626MOL0     H82620   2.630   8.947   5.963 -1.4301  0.3304 -2.3176
  626MOL0     H82621   2.485   9.078   6.106  2.6520 -0.7919 -0.4924
  626MOL0     H82622   2.274   9.389   6.181 -1.0815  0.3270 -0.6826
  626MOL0     H82623   2.348   9.227   6.193 -0.3402  1.3642  1.2785
  626MOL0     H82624   2.256   9.144   5.986  0.6900  0.5811  1.3999
  626MOL0     H82625   2.142   9.185   6.107 -0.5454 -1.7667 -1.1029
  626MOL0     H82626   2.196   9.352   5.857 -1.6040 -0.1482 -1.0957
  626MOL0     H82627   2.087   9.405   5.981 -0.1319 -1.8731  2.0017
  626MOL0     H82628   2.058   9.141   5.838 -1.3795 -2.9775  5.1355
  626MOL0     H82629   1.922   9.216   5.921 -2.0610 -0.8263 -2.4595
  626MOL0     H82630   1.899   9.374   5.534 -1.9486 -0.5917  0.9201
  626MOL0     H82631   2.589   9.429   5.870 -1.2731  0.1472 -0.8308
  626MOL0     H82632   2.748   9.293   5.745  4.4236 -0.6772  2.9469
  627MOL0     O82633   7.548   7.570   4.693  0.4869 -0.2512  0.2616
  627MOL0     C82634   7.644   7.626   4.637 -0.0873 -0.3085 -1.6191
  627MOL0     O82635   7.773   7.636   4.694  0.5034  0.6849 -0.6249
  627MOL0     C82636   7.773   7.615   4.831 -0.0535 -0.3968 -0.9564
  627MOL0     C82637   7.669   7.663   4.917  0.3702  1.5859  0.8163
  627MOL0     C82638   7.688   7.659   5.059  0.9887  0.3843  0.0590
  627MOL0     C82639   7.807   7.611   5.113 -0.2902  0.4088 -0.3940
  627MOL0     O82640   7.812   7.620   5.255  0.0212 -0.0076  0.1446
  627MOL0     C82641   7.941   7.568   5.296 -0.9907 -0.0930  0.3236
  627MOL0     C82642   7.952   7.574   5.445 -0.4580 -0.6392 -0.0153
  627MOL0     C82643   7.873   7.462   5.525 -0.1442 -0.4201  0.2154
  627MOL0     C82644   7.863   7.471   5.681  0.0869 -0.2468 -0.3618
  627MOL0     C82645   7.765   7.369   5.730 -1.2092  1.0805  0.2784
  627MOL0     C82646   7.622   7.398   5.738 -0.0404  0.4274  0.1403
  627MOL0     C82647   7.538   7.269   5.769 -0.8203 -0.1151  0.8565
  627MOL0     C82648   7.389   7.289   5.801 -0.2756  1.1180 -0.3447
  627MOL0     N82649   7.382   7.311   5.946 -0.0505  0.2245  0.0197
  627MOL0     C82650   7.358   7.431   5.992  1.0548 -0.7651  0.0650
  627MOL0     C82651   7.352   7.422   6.126  0.6053 -0.3509  0.6007
  627MOL0     C82652   7.319   7.532   6.221 -0.6684 -0.4855 -0.5623
  627MOL0     C82653   7.413   7.657   6.221 -0.8132  0.9231  1.0160
  627MOL0     C82654   7.541   7.638   6.302 -0.1786  0.2928  0.4030
  627MOL0     C82655   7.514   7.659   6.449 -0.0363  0.5396 -0.1845
  627MOL0     O82656   7.634   7.646   6.527 -0.0793  0.4171  0.3717
  627MOL0     C82657   7.694   7.526   6.538 -1.2684  0.4981 -0.6925
  627MOL0     C82658   7.637   7.401   6.503  0.3780  1.2149  0.5422
  627MOL0     C82659   7.697   7.274   6.539  0.0898  0.1646  0.5696
  627MOL0     C82660   7.821   7.261   6.591 -0.0780  0.6568 -0.0049
  627MOL0     C82661   7.873   7.124   6.630 -0.3753  0.3782 -0.0042
  627MOL0     O82662   7.808   7.009   6.578  0.1002 -0.5933 -0.5741
  627MOL0     C82663   7.860   6.885   6.573 -0.6360 -0.2922  0.6479
  627MOL0     C82664   7.990   6.844   6.529 -0.5900  0.1254 -0.4139
  627MOL0     C82665   8.026   6.706   6.517  0.0516  0.0425 -0.0895
  627MOL0     C82666   7.926   6.604   6.537  0.3147 -0.8005 -1.6616
  627MOL0     O82667   7.963   6.473   6.554 -0.2776  0.1852 -0.5387
  627MOL0     C82668   7.877   6.386   6.613  0.2120  0.7909 -0.9375
  627MOL0     C82669   7.956   6.260   6.628  0.2117  0.5043 -0.0076
  627MOL0     C82670   7.988   6.187   6.491  0.3079 -1.1593  0.1170
  627MOL0     C82671   8.049   6.049   6.519  0.0799 -0.4080 -0.5182
  627MOL0     C82672   8.086   5.978   6.390 -0.6736 -0.6198  0.3449
  627MOL0     C82673   8.115   5.822   6.408  0.3454 -0.5049  0.4469
  627MOL0     C82674   8.261   5.807   6.412 -1.8043  0.0199  0.9888
  627MOL0     C82675   8.312   5.661   6.434  0.2441  0.2678 -0.8992
  627MOL0    Cl82676   8.260   5.568   6.299  0.3849  0.4336 -0.1630
  627MOL0     C82677   7.792   6.648   6.559 -1.0092 -0.1220  0.2164
  627MOL0     C82678   7.765   6.782   6.581  0.7111 -0.2459  0.6112
  627MOL0     O82679   7.967   7.111   6.704 -0.7918 -0.1684  0.1185
  627MOL0     C82680   7.883   7.388   6.626 -0.2001  0.0107  0.5470
  627MOL0     C82681   7.816   7.513   6.610 -0.2995 -0.1140 -0.0573
  627MOL0     N82682   7.386   7.294   6.159  0.5245  0.0534  0.0414
  627MOL0     N82683   7.402   7.228   6.046  0.1801  0.6694 -0.2886
  627MOL0     C82684   7.908   7.561   5.023 -0.8314 -0.3962 -0.7454
  627MOL0     C82685   7.889   7.562   4.883 -0.2091  0.0285  0.3165
  627MOL0     C82686   7.630   7.674   4.501 -0.0714  0.0683  0.3033
  627MOL0     C82687   7.518   7.643   4.422  0.0657  0.2339  1.0642
  627MOL0     C82688   7.507   7.707   4.289 -0.4264  0.0336 -0.8107
  627MOL0     C82689   7.605   7.800   4.247  0.4610  0.0499 -0.9999
  627MOL0     O82690   7.590   7.841   4.121  0.3859  0.5936 -0.5592
  627MOL0     C82691   7.687   7.914   4.051 -0.1613  0.6086  0.3485
  627MOL0     C82692   7.636   7.955   3.910  0.0886 -0.1019  0.1805
  627MOL0     C82693   7.759   8.019   3.844 -0.8054  0.0130 -0.0556
  627MOL0     C82694   7.868   7.921   3.776  0.4739  0.2219 -0.1518
  627MOL0     C82695   7.819   7.825   3.674 -0.9026 -0.2682  0.7973
  627MOL0     C82696   7.767   7.761   3.585  0.9218  0.4371  0.3930
  627MOL0     C82697   7.715   7.820   4.331 -0.6318 -0.3887 -0.4522
  627MOL0     C82698   7.724   7.767   4.452 -0.0922  1.1529  0.4806
  627MOL0     H82699   7.574   7.711   4.897 -1.0451 -1.1427  0.5429
  627MOL0     H82700   7.618   7.697   5.132  0.0801 -2.4415  0.7786
  627MOL0     H82701   8.030   7.619   5.258  0.0798 -0.5743  2.0538
  627MOL0     H82702   7.943   7.466   5.257  2.4894 -1.1408  2.7102
  627MOL0     H82703   7.917   7.671   5.484  1.9146  1.1507 -2.0027
  627MOL0     H82704   8.060   7.559   5.452  0.0453  1.4154 -2.1137
  627MOL0     H82705   7.919   7.368   5.493  0.0951  0.6995 -3.1091
  627MOL0     H82706   7.767   7.465   5.497  0.1774 -3.5014 -1.7024
  627MOL0     H82707   7.959   7.452   5.731 -0.1672 -0.7257 -0.0461
  627MOL0     H82708   7.820   7.566   5.712 -4.7024 -2.2032 -0.2491
  627MOL0     H82709   7.799   7.331   5.827  0.1551 -2.1647 -1.2946
  627MOL0     H82710   7.782   7.278   5.672 -0.0306  0.7370  1.1281
  627MOL0     H82711   7.586   7.443   5.645 -2.9690 -0.8920  0.5454
  627MOL0     H82712   7.605   7.475   5.813  0.3998  0.5834  0.0839
  627MOL0     H82713   7.555   7.213   5.676  1.7614  2.8752 -0.6704
  627MOL0     H82714   7.587   7.209   5.846  1.6475 -0.3574 -0.7957
  627MOL0     H82715   7.342   7.193   5.780  2.0156  0.0960 -1.1218
  627MOL0     H82716   7.343   7.369   5.742 -0.3667  0.0005 -1.8433
  627MOL0     H82717   7.332   7.523   5.941  0.3901 -0.1763  1.4139
  627MOL0     H82718   7.294   7.491   6.320 -2.6743 -2.4623 -1.7986
  627MOL0     H82719   7.220   7.574   6.201 -1.0070 -0.7115  0.5441
  627MOL0     H82720   7.353   7.738   6.264 -3.4058 -0.1909 -0.2730
  627MOL0     H82721   7.430   7.691   6.118 -1.3771  2.1495  1.3134
  627MOL0     H82722   7.573   7.535   6.280  2.8212  1.1586  0.3072
  627MOL0     H82723   7.619   7.702   6.261 -2.9701  4.5969  1.2008
  627MOL0     H82724   7.422   7.603   6.469 -0.8938  1.3056 -1.7858
  627MOL0     H82725   7.488   7.764   6.463  1.8786  0.6620  3.6881
  627MOL0     H82726   7.538   7.383   6.462  1.3245  0.6486 -1.6322
  627MOL0     H82727   7.636   7.184   6.527 -1.2718  0.8453  1.9503
  627MOL0     H82728   8.075   6.911   6.519  0.3984 -1.1478 -0.7962
  627MOL0     H82729   8.130   6.680   6.497 -0.3876 -2.8904  0.9758
  627MOL0     H82730   7.785   6.362   6.561  0.6974 -1.3372 -0.8894
  627MOL0     H82731   7.853   6.425   6.713  0.4544  1.2851 -1.0680
  627MOL0     H82732   7.899   6.187   6.687  0.8460  0.6803  0.8429
  627MOL0     H82733   8.047   6.299   6.675 -0.4598  2.7920 -0.4577
  627MOL0     H82734   8.065   6.242   6.435 -0.1150  0.1985  0.8286
  627MOL0     H82735   7.900   6.205   6.429  1.1860  2.4122 -0.2893
  627MOL0     H82736   8.144   6.052   6.572  1.8292  4.0168 -3.3649
  627MOL0     H82737   7.980   6.001   6.589  1.0756 -4.6415 -2.1688
  627MOL0     H82738   8.164   6.035   6.339 -0.7241 -1.6673 -0.9800
  627MOL0     H82739   8.002   5.988   6.321 -0.4140 -2.3630 -0.2681
  627MOL0     H82740   8.068   5.769   6.325  0.3553 -4.6538  2.8315
  627MOL0     H82741   8.091   5.771   6.502  3.3223 -0.4718  1.3400
  627MOL0     H82742   8.297   5.839   6.314 -3.1662  0.8910  0.7434
  627MOL0     H82743   8.288   5.869   6.498  1.2104 -1.6539  1.3733
  627MOL0     H82744   8.271   5.622   6.528  0.7388  1.1898 -0.2902
  627MOL0     H82745   8.421   5.654   6.439  0.1896  0.2678  0.8253
  627MOL0     H82746   7.708   6.581   6.542  0.1028 -1.7027  0.7264
  627MOL0     H82747   7.660   6.804   6.597  0.1027 -0.4706 -2.3458
  627MOL0     H82748   7.970   7.384   6.690 -0.9959 -0.7285  1.6127
  627MOL0     H82749   7.847   7.612   6.644  3.4838 -1.6966  1.5634
  627MOL0     H82750   8.004   7.523   5.057 -0.4424 -0.2524 -1.6509
  627MOL0     H82751   7.961   7.534   4.808 -0.5433  2.4757 -1.0251
  627MOL0     H82752   7.433   7.587   4.460 -2.2151  1.5075 -1.7521
  627MOL0     H82753   7.422   7.699   4.223 -0.2642  1.7870 -1.2939
  627MOL0     H82754   7.776   7.854   4.032 -0.4459 -0.2348  1.5989
  627MOL0     H82755   7.726   7.992   4.117  2.8610 -0.1983 -0.3476
  627MOL0     H82756   7.616   7.864   3.852  2.9387 -0.6579 -0.0990
  627MOL0     H82757   7.545   8.015   3.917 -0.8752 -1.6898  1.9652
  627MOL0     H82758   7.807   8.102   3.898  2.8066 -0.3855 -2.3120
  627MOL0     H82759   7.722   8.070   3.755  0.1630 -1.9038 -1.6331
  627MOL0     H82760   7.941   7.984   3.724 -0.5879  1.0293 -0.7104
  627MOL0     H82761   7.910   7.875   3.866 -1.8675 -3.6336 -0.7608
  627MOL0     H82762   7.736   7.694   3.508 -0.6225  1.1511  0.3670
  627MOL0     H82763   7.802   7.877   4.297  0.0936 -2.4139 -2.2162
  627MOL0     H82764   7.815   7.777   4.511  0.4262 -2.1315  0.4631
  628MOL0     O82765   4.909   7.044   2.729  0.3192  0.0263  0.5521
  628MOL0     C82766   4.827   7.115   2.667 -0.0195 -0.1907  0.0729
  628MOL0     O82767   4.828   7.141   2.530 -0.4922  0.1155  0.7287
  628MOL0     C82768   4.927   7.092   2.448 -0.6448  0.7945 -0.4365
  628MOL0     C82769   5.047   7.157   2.441  0.1063 -0.1357  0.9913
  628MOL0     C82770   5.151   7.110   2.359  0.1329 -0.4518 -0.4850
  628MOL0     C82771   5.134   6.990   2.290  0.6046  0.5166 -0.7986
  628MOL0     O82772   5.234   6.963   2.207 -0.3105 -0.2718 -0.0594
  628MOL0     C82773   5.266   6.828   2.163 -0.1751 -0.5155  0.3666
  628MOL0     C82774   5.410   6.817   2.148 -0.6954 -0.4122 -0.1937
  628MOL0     C82775   5.455   6.686   2.088 -1.0776  0.9380 -0.5779
  628MOL0     C82776   5.471   6.696   1.939  0.4559  1.2364  1.3542
  628MOL0     C82777   5.472   6.558   1.864  0.7247 -0.5142 -0.4994
  628MOL0     C82778   5.516   6.563   1.724 -0.0921 -0.5871  0.1944
  628MOL0     C82779   5.417   6.636   1.633 -0.2139  0.6812 -0.4205
  628MOL0     C82780   5.455   6.643   1.484  0.3812  0.3716 -0.3826
  628MOL0     N82781   5.355   6.704   1.402  0.3244  0.2446 -0.1567
  628MOL0     C82782   5.231   6.654   1.373 -0.5532 -0.2765 -1.0155
  628MOL0     C82783   5.161   6.760   1.306 -0.7045 -0.3051 -0.7949
  628MOL0     C82784   5.015   6.749   1.262  0.1551 -0.4185  0.1311
  628MOL0     C82785   4.982   6.803   1.120  0.5193 -0.2927  1.0949
  628MOL0     C82786   4.830   6.855   1.121 -0.6121  0.8603  0.0059
  628MOL0     C82787   4.780   6.862   0.981  0.5650  0.6752 -0.4941
  628MOL0     O82788   4.640   6.880   0.988 -0.5561 -0.1433 -0.5661
  628MOL0     C82789   4.562   6.878   0.875  1.0811 -0.4261  0.0192
  628MOL0     C82790   4.549   6.979   0.783  0.3357 -0.1767  0.5711
  628MOL0     C82791   4.445   6.966   0.687  0.3168 -0.7122 -0.4587
  628MOL0     C82792   4.357   6.865   0.672  0.1051 -0.3079  0.1995
  628MOL0     C82793   4.256   6.856   0.557 -0.7453 -0.9443 -1.0653
  628MOL0     O82794   4.192   6.736   0.567  0.0757 -0.6796  0.4880
  628MOL0     C82795   4.113   6.699   0.466  0.2705 -0.9665 -0.1668
  628MOL0     C82796   4.148   6.592   0.390 -1.4111  0.1466 -0.1814
  628MOL0     C82797   4.053   6.524   0.311 -0.0650 -0.4671 -0.3456
  628MOL0     C82798   3.926   6.582   0.288 -0.5437 -0.5333 -0.0371
  628MOL0     O82799   3.822   6.527   0.215 -0.5672  0.0331 -0.0055
  628MOL0     C82800   3.855   6.411   0.142 -0.0470  0.3330  0.4392
  628MOL0     C82801   3.738   6.350   0.066 -0.7998 -0.1462 -0.0626
  628MOL0     C82802   3.619   6.296   0.135 -0.6869 -0.0163  0.0738
  628MOL0     C82803   3.632   6.158   0.194 -0.3810 -0.3445  0.5291
  628MOL0     C82804   3.523   6.097   0.291  0.2838  0.5194 -0.3537
  628MOL0     C82805   3.383   6.137   0.240  0.3504 -0.4732  0.4842
  628MOL0     C82806   3.279   6.087   0.335 -0.5913  0.0018 -0.3001
  628MOL0     C82807   3.156   6.026   0.277  0.1847 -0.3869 -0.5600
  628MOL0    Cl82808   3.046   5.972   0.411 -0.1889 -0.7636  0.0855
  628MOL0     C82809   3.894   6.706   0.356 -0.1230  1.6239  0.6683
  628MOL0     C82810   3.989   6.752   0.444  1.0278  0.8312 -0.0881
  628MOL0     O82811   4.234   6.944   0.473  0.0018  0.2399 -0.6009
  628MOL0     C82812   4.379   6.755   0.763 -0.8960 -0.6687 -0.4169
  628MOL0     C82813   4.471   6.771   0.870 -0.0041 -0.7968  0.7928
  628MOL0     N82814   5.254   6.867   1.298 -0.9527 -0.1118  0.1964
  628MOL0     N82815   5.365   6.836   1.356  0.3572 -0.1160  0.6386
  628MOL0     C82816   5.015   6.916   2.313 -0.8481 -0.1344  0.5856
  628MOL0     C82817   4.911   6.961   2.391  0.5041  0.0105  0.0026
  628MOL0     C82818   4.726   7.185   2.744  0.4708  0.0189  0.5828
  628MOL0     C82819   4.642   7.279   2.683 -0.3777  0.7085 -0.3031
  628MOL0     C82820   4.544   7.345   2.760 -0.0855  0.9224  0.0313
  628MOL0     C82821   4.515   7.320   2.891 -0.3337 -0.1675  0.1198
  628MOL0     O82822   4.410   7.370   2.967 -0.3752 -0.0648 -0.2258
  628MOL0     C82823   4.362   7.507   2.944  0.4512 -0.0561 -0.2134
  628MOL0     C82824   4.464   7.608   2.977 -0.8794  0.2758 -0.8000
  628MOL0     C82825   4.397   7.748   3.000  0.4671  0.0799  0.1883
  628MOL0     C82826   4.483   7.856   3.049 -0.1934 -0.3863  0.1214
  628MOL0     C82827   4.548   7.817   3.181  0.1774  0.5192 -0.0634
  628MOL0     C82828   4.602   7.791   3.286  0.3960  0.1110 -0.4630
  628MOL0     C82829   4.581   7.203   2.941 -0.1221 -0.3783 -0.3070
  628MOL0     C82830   4.694   7.145   2.875 -0.3059  0.6252  0.3942
  628MOL0     H82831   5.049   7.260   2.475  1.9213  0.6679 -1.2806
  628MOL0     H82832   5.238   7.174   2.348  1.9737 -2.6925  0.1127
  628MOL0     H82833   5.208   6.818   2.071 -3.2504 -0.0705  2.1232
  628MOL0     H82834   5.236   6.752   2.236  2.0166 -1.5220  0.2978
  628MOL0     H82835   5.447   6.830   2.251 -0.4341  1.6797 -0.5073
  628MOL0     H82836   5.458   6.895   2.089 -3.7695  0.5217 -1.6473
  628MOL0     H82837   5.396   6.598   2.115  3.1691 -2.2878 -0.6732
  628MOL0     H82838   5.554   6.654   2.123 -0.3859 -1.8827 -4.4033
  628MOL0     H82839   5.382   6.753   1.912  0.2109  1.1261  1.9209
  628MOL0     H82840   5.561   6.758   1.926  2.3701 -1.2462  2.0377
  628MOL0     H82841   5.365   6.537   1.875  0.7473 -0.0709  0.8084
  628MOL0     H82842   5.540   6.490   1.915  0.5602 -1.1896 -1.1654
  628MOL0     H82843   5.543   6.464   1.685 -1.8473 -1.1491  0.3249
  628MOL0     H82844   5.607   6.623   1.710  1.3150 -2.5563  0.4789
  628MOL0     H82845   5.321   6.585   1.644 -0.6310  1.5166 -0.0694
  628MOL0     H82846   5.409   6.742   1.658  0.7225  1.1384 -1.9006
  628MOL0     H82847   5.460   6.543   1.441 -1.5729  0.9560 -2.1552
  628MOL0     H82848   5.545   6.703   1.468  0.6129  0.2212  0.2937
  628MOL0     H82849   5.192   6.553   1.388  1.4102 -0.8751  0.4920
  628MOL0     H82850   4.960   6.813   1.331 -0.6871  0.1154 -1.0010
  628MOL0     H82851   4.968   6.651   1.278  0.1052 -0.7558 -1.8651
  628MOL0     H82852   4.986   6.721   1.048 -0.3770 -0.7083  1.5118
  628MOL0     H82853   5.035   6.893   1.085 -3.4968  1.0885 -2.3097
  628MOL0     H82854   4.771   6.782   1.176  0.4142  2.6257  3.7504
  628MOL0     H82855   4.820   6.946   1.180 -2.1355  0.6452  0.1091
  628MOL0     H82856   4.801   6.768   0.930  1.8842  0.5325  0.2711
  628MOL0     H82857   4.835   6.937   0.923  1.3102 -0.1626 -0.8995
  628MOL0     H82858   4.633   7.048   0.781 -0.0903  0.4741 -4.0005
  628MOL0     H82859   4.439   7.045   0.614  2.6054  0.2962  0.3608
  628MOL0     H82860   4.253   6.565   0.393 -0.8031  2.4032  1.4954
  628MOL0     H82861   4.096   6.438   0.261  2.0118  0.1841  0.2175
  628MOL0     H82862   3.886   6.329   0.208 -0.8727 -2.5200 -2.4474
  628MOL0     H82863   3.931   6.441   0.070  0.7231 -0.0307  1.0936
  628MOL0     H82864   3.776   6.260   0.016 -0.0583  0.5272 -0.7341
  628MOL0     H82865   3.709   6.418  -0.014 -0.9814 -0.3996 -0.2118
  628MOL0     H82866   3.533   6.310   0.068 -0.5814  1.9671  0.2829
  628MOL0     H82867   3.608   6.365   0.219  0.8757  0.2485  0.0792
  628MOL0     H82868   3.648   6.079   0.120  2.1931  1.5210 -1.0564
  628MOL0     H82869   3.714   6.157   0.267 -2.1597 -1.3699  2.6347
  628MOL0     H82870   3.520   6.150   0.387 -1.7764  0.1489 -0.1783
  628MOL0     H82871   3.535   5.988   0.302 -1.7654 -0.1012 -3.1575
  628MOL0     H82872   3.365   6.094   0.141  1.1514 -0.9717  0.5423
  628MOL0     H82873   3.355   6.243   0.239  1.7285 -0.0618 -1.3423
  628MOL0     H82874   3.329   6.010   0.395  0.1561  0.6915 -0.0271
  628MOL0     H82875   3.252   6.170   0.400 -3.4755 -2.7454  2.3519
  628MOL0     H82876   3.180   5.935   0.221 -3.2410 -1.5898 -0.3097
  628MOL0     H82877   3.113   6.097   0.205  0.2039 -1.4416 -1.6637
  628MOL0     H82878   3.797   6.753   0.341  0.7344  2.9352 -1.1738
  628MOL0     H82879   3.950   6.842   0.491  0.9703  1.2051 -0.8348
  628MOL0     H82880   4.310   6.671   0.758 -0.7010 -1.5602  5.3111
  628MOL0     H82881   4.470   6.698   0.951  1.4515  0.0759  1.6510
  628MOL0     H82882   5.012   6.813   2.278  1.2825  0.3689 -1.3090
  628MOL0     H82883   4.824   6.902   2.418  0.0712  1.4415  2.0079
  628MOL0     H82884   4.652   7.309   2.579 -0.0126  0.8359 -0.2334
  628MOL0     H82885   4.481   7.419   2.712 -2.9557 -1.0503  0.5859
  628MOL0     H82886   4.277   7.526   3.010  0.4355  0.1955 -0.3066
  628MOL0     H82887   4.318   7.511   2.844 -1.9342 -1.2326  0.6952
  628MOL0     H82888   4.507   7.567   3.069  0.3377 -0.9491 -1.8776
  628MOL0     H82889   4.539   7.609   2.898  1.5725 -5.3564  0.9903
  628MOL0     H82890   4.324   7.741   3.081  2.3894  1.5507  2.1692
  628MOL0     H82891   4.356   7.785   2.905 -0.1673  3.0899  1.5285
  628MOL0     H82892   4.559   7.875   2.973 -1.3767  0.9585 -0.7909
  628MOL0     H82893   4.419   7.945   3.057 -1.7390 -1.3015 -1.2446
  628MOL0     H82894   4.627   7.766   3.387 -0.6396  2.4401  0.4421
  628MOL0     H82895   4.559   7.152   3.034 -0.3724  0.2225 -0.0323
  628MOL0     H82896   4.743   7.062   2.924 -1.2674 -0.2104 -0.0255
  629MOL0     O82897   4.321   9.732   7.264 -0.2116 -0.0825  0.2205
  629MOL0     C82898   4.410   9.699   7.189  0.0139  0.6353  0.0160
  629MOL0     O82899   4.458   9.777   7.086 -0.2692  0.4241  0.1811
  629MOL0     C82900   4.378   9.887   7.075  0.4942  0.4295  0.7322
  629MOL0     C82901   4.267   9.874   6.993 -1.4750  0.6282 -1.0623
  629MOL0     C82902   4.199   9.982   6.959  1.2026  0.2219 -0.0849
  629MOL0     C82903   4.237  10.113   6.993  0.7416 -0.7864  0.2084
  629MOL0     O82904   4.156  10.220   6.968  1.3462 -0.1117 -0.1996
  629MOL0     C82905   4.020  10.205   7.028 -0.2433 -0.6355  0.3430
  629MOL0     C82906   4.034  10.264   7.164 -0.6729 -0.5068 -0.0036
  629MOL0     C82907   4.034  10.419   7.156 -0.4646  0.6045 -0.0296
  629MOL0     C82908   4.176  10.483   7.156  0.2537 -0.3360 -0.1395
  629MOL0     C82909   4.171  10.635   7.156 -0.5980 -0.1361  0.2184
  629MOL0     C82910   4.198  10.686   7.013 -0.0559  0.1717  0.4579
  629MOL0     C82911   4.345  10.681   6.967  0.6493  0.3895 -0.2586
  629MOL0     C82912   4.360  10.787   6.854 -0.0681 -0.5976 -0.3096
  629MOL0     N82913   4.388  10.924   6.908  0.1390 -0.5050  0.4662
  629MOL0     C82914   4.328  11.040   6.847  0.3187 -0.4612 -1.2038
  629MOL0     C82915   4.402  11.146   6.889  0.0316  0.1038 -0.1078
  629MOL0     C82916   4.365  11.284   6.844 -0.6854 -1.1149  1.1790
  629MOL0     C82917   4.449  11.344   6.724 -0.3274  0.3385 -0.0754
  629MOL0     C82918   4.600  11.379   6.761  0.9242  0.9602  0.5147
  629MOL0     C82919   4.672  11.401   6.631 -0.1711  0.2740  0.4110
  629MOL0     O82920   4.669  11.530   6.574  0.3030  0.1293 -0.3345
  629MOL0     C82921   4.713  11.548   6.444 -0.3744  0.1436 -0.1131
  629MOL0     C82922   4.795  11.464   6.368  0.3365  0.3614 -0.0745
  629MOL0     C82923   4.850  11.495   6.245  0.0700 -0.0395 -0.0268
  629MOL0     C82924   4.822  11.613   6.188 -0.1437  0.6648  0.7612
  629MOL0     C82925   4.892  11.662   6.058  0.6846 -0.2795 -1.0690
  629MOL0     O82926   4.864  11.792   6.018  0.6049  0.6652  0.5704
  629MOL0     C82927   4.947  11.860   5.923 -0.1223  0.5910 -1.1125
  629MOL0     C82928   5.091  11.843   5.931 -0.9216 -0.6020  0.3419
  629MOL0     C82929   5.176  11.931   5.861  0.4383  0.1149 -0.1413
  629MOL0     C82930   5.120  12.014   5.766 -0.9277 -0.0685  0.0734
  629MOL0     O82931   5.193  12.095   5.685 -0.0911  0.5721 -0.6199
  629MOL0     C82932   5.285  12.180   5.744  0.4266 -0.6407 -1.1961
  629MOL0     C82933   5.402  12.215   5.653 -0.7814  0.0255  0.4133
  629MOL0     C82934   5.412  12.358   5.599  0.2295  0.0429 -0.1500
  629MOL0     C82935   5.494  12.354   5.466 -0.0084  0.9601 -0.9684
  629MOL0     C82936   5.499  12.495   5.404  1.0542 -0.1911  0.6143
  629MOL0     C82937   5.540  12.492   5.259 -0.1793 -0.3257 -0.2671
  629MOL0     C82938   5.508  12.622   5.185  0.2397  0.2215  0.5512
  629MOL0     C82939   5.383  12.597   5.094  0.3893  0.8128 -1.0329
  629MOL0    Cl82940   5.404  12.456   4.977 -0.4338 -0.6131  0.2102
  629MOL0     C82941   4.987  12.038   5.765 -0.2263  0.0311 -0.5375
  629MOL0     C82942   4.897  11.957   5.844 -0.3220 -0.2121  0.0015
  629MOL0     O82943   4.967  11.581   6.001 -0.2002  0.9139  0.6868
  629MOL0     C82944   4.722  11.690   6.247  0.4124  0.2161 -0.5503
  629MOL0     C82945   4.679  11.666   6.375  0.4706  0.4506  0.3141
  629MOL0     N82946   4.507  11.092   6.962 -0.1505 -0.3638 -0.5239
  629MOL0     N82947   4.492  10.963   6.977 -0.6366  0.0843 -0.0222
  629MOL0     C82948   4.356  10.128   7.053  0.1441 -0.0220 -0.0047
  629MOL0     C82949   4.423  10.014   7.106  0.5391 -0.5545 -0.2309
  629MOL0     C82950   4.453   9.560   7.196  0.7251 -0.6209  0.0950
  629MOL0     C82951   4.391   9.466   7.292 -0.1447  0.1444 -0.4777
  629MOL0     C82952   4.452   9.346   7.313  0.3740  0.6928 -0.8592
  629MOL0     C82953   4.551   9.294   7.222 -0.3203 -0.3512 -0.2147
  629MOL0     O82954   4.600   9.166   7.226  0.7268 -0.1395  0.2104
  629MOL0     C82955   4.602   9.083   7.348  0.8377 -0.5101  0.8406
  629MOL0     C82956   4.742   9.025   7.370 -0.0877  0.3004 -0.9471
  629MOL0     C82957   4.751   8.961   7.515  0.7573 -0.1235  0.0407
  629MOL0     C82958   4.823   8.830   7.540 -0.3562 -0.2639  0.0278
  629MOL0     C82959   4.779   8.717   7.460  0.0682 -0.7592  0.9926
  629MOL0     C82960   4.746   8.612   7.411 -0.5937 -0.7590 -0.0590
  629MOL0     C82961   4.592   9.366   7.108  0.0342  0.0041  0.5875
  629MOL0     C82962   4.545   9.501   7.096  1.3114  0.7165 -0.4128
  629MOL0     H82963   4.237   9.778   6.953 -4.4206 -0.0660  2.3082
  629MOL0     H82964   4.116   9.981   6.889  0.0021  0.0581  1.2683
  629MOL0     H82965   3.970  10.108   7.030  0.5789 -1.1035 -0.8658
  629MOL0     H82966   3.945  10.267   6.978  0.7295 -1.5006 -2.3202
  629MOL0     H82967   4.128  10.240   7.214  0.3952  2.0012 -0.6990
  629MOL0     H82968   3.950  10.234   7.229  0.1544 -3.0835  0.0183
  629MOL0     H82969   3.980  10.439   7.249 -1.5337 -1.9401 -0.0297
  629MOL0     H82970   3.966  10.452   7.077 -1.6342  4.5866  2.3089
  629MOL0     H82971   4.234  10.444   7.240  2.3494 -1.1454 -1.8681
  629MOL0     H82972   4.223  10.445   7.064 -1.2181 -0.7160 -0.7688
  629MOL0     H82973   4.251  10.666   7.224 -0.7217  2.1600 -0.5758
  629MOL0     H82974   4.075  10.672   7.194 -0.1296  1.0568  0.2908
  629MOL0     H82975   4.166  10.790   7.004  0.9018  0.3286 -1.5597
  629MOL0     H82976   4.133  10.634   6.942  1.7079 -2.3200  0.5548
  629MOL0     H82977   4.422  10.717   7.036  1.5696  1.2221 -1.6641
  629MOL0     H82978   4.365  10.577   6.937 -3.7586 -0.6059 -0.3871
  629MOL0     H82979   4.279  10.783   6.780  0.1562 -3.4389 -0.4937
  629MOL0     H82980   4.452  10.751   6.806  1.6113  0.3349  2.0042
  629MOL0     H82981   4.232  11.043   6.795 -1.5070 -2.4377  1.7687
  629MOL0     H82982   4.365  11.350   6.931  0.8970 -0.2310  0.5446
  629MOL0     H82983   4.257  11.285   6.824 -0.9730  0.6359  2.6393
  629MOL0     H82984   4.389  11.432   6.701 -3.0411  0.0533  4.6590
  629MOL0     H82985   4.435  11.272   6.643 -0.8188 -1.0750  1.2196
  629MOL0     H82986   4.596  11.475   6.812  0.2842  2.3578 -1.9558
  629MOL0     H82987   4.632  11.302   6.832 -1.8366  2.6423  3.8741
  629MOL0     H82988   4.634  11.320   6.568  0.9623 -0.9841  1.2856
  629MOL0     H82989   4.778  11.379   6.647 -0.9533 -2.5903  2.5010
  629MOL0     H82990   4.812  11.367   6.414 -1.2444 -0.5100 -1.2239
  629MOL0     H82991   4.921  11.429   6.195 -0.0384 -1.4074  1.5550
  629MOL0     H82992   5.120  11.760   5.995 -1.0685 -0.8053  0.1418
  629MOL0     H82993   5.284  11.919   5.861  0.5109  0.6886 -1.0042
  629MOL0     H82994   5.318  12.148   5.843 -4.2265  2.8463  1.9426
  629MOL0     H82995   5.235  12.272   5.775 -0.4235 -2.0415  1.9670
  629MOL0     H82996   5.391  12.142   5.572 -0.7055  1.5746 -1.0516
  629MOL0     H82997   5.499  12.202   5.702 -0.8077 -5.4368 -0.3502
  629MOL0     H82998   5.472  12.414   5.671  2.1020  0.0579 -1.6584
  629MOL0     H82999   5.317  12.411   5.590  0.0891  0.0927  1.4118
  629MOL0     H83000   5.593  12.318   5.498 -1.6487 -0.3147  3.3997
  629MOL0     H83001   5.450  12.281   5.398  1.0640 -0.5011 -0.1633
  629MOL0     H83002   5.571  12.550   5.465 -1.4600  1.7684  2.0213
  629MOL0     H83003   5.400  12.541   5.411  0.6908 -0.8375 -0.1380
  629MOL0     H83004   5.489  12.412   5.204  1.9103 -1.1834 -1.0673
  629MOL0     H83005   5.646  12.468   5.271 -0.0246  1.3967  2.5667
  629MOL0     H83006   5.489  12.708   5.250 -0.5261 -1.3471  2.5204
  629MOL0     H83007   5.590  12.645   5.117  0.0113  0.1979  0.2680
  629MOL0     H83008   5.357  12.687   5.038  0.9029  0.4696 -1.8323
  629MOL0     H83009   5.295  12.588   5.160 -1.1984  1.6520 -2.9292
  629MOL0     H83010   4.942  12.110   5.697 -0.5057  0.4325  0.0645
  629MOL0     H83011   4.790  11.971   5.835  0.0718  2.2217 -1.7537
  629MOL0     H83012   4.683  11.781   6.202 -1.0252  0.3247  0.8446
  629MOL0     H83013   4.620  11.749   6.413 -0.0773  0.2100 -0.0125
  629MOL0     H83014   4.405  10.224   7.063 -0.6701  0.3278  0.7685
  629MOL0     H83015   4.520  10.019   7.154 -0.0094 -1.2343  0.9960
  629MOL0     H83016   4.297   9.491   7.341 -0.3788  1.6494 -1.6222
  629MOL0     H83017   4.405   9.292   7.394  0.5804 -0.6751 -1.6240
  629MOL0     H83018   4.533   8.998   7.344  0.7004 -0.4696  2.0502
  629MOL0     H83019   4.575   9.137   7.440 -2.6225  1.6498 -1.2086
  629MOL0     H83020   4.751   8.943   7.298 -1.7452 -2.5197  1.7748
  629MOL0     H83021   4.820   9.102   7.366  1.5060 -1.2160 -0.4419
  629MOL0     H83022   4.646   8.945   7.541  0.8354 -0.5475  0.1025
  629MOL0     H83023   4.781   9.028   7.596 -1.0788 -0.4194  1.0385
  629MOL0     H83024   4.930   8.848   7.534  0.4183 -4.4735 -2.3320
  629MOL0     H83025   4.817   8.800   7.645  2.3766 -0.0080  0.3230
  629MOL0     H83026   4.700   8.522   7.377  0.9634 -1.1092 -1.3587
  629MOL0     H83027   4.668   9.319   7.046 -0.9641  0.9258 -1.4435
  629MOL0     H83028   4.586   9.556   7.012  3.4191  0.7133  0.5544
  630MOL0     O83029   8.463   9.566   0.397 -0.4363 -0.4596  0.1682
  630MOL0     C83030   8.498   9.683   0.430 -0.0134 -0.2796 -1.2709
  630MOL0     O83031   8.401   9.779   0.464 -0.4190  0.8369  0.1998
  630MOL0     C83032   8.268   9.760   0.419 -0.1455 -0.7746  0.6195
  630MOL0     C83033   8.157   9.784   0.504  0.7007 -0.3621 -0.1575
  630MOL0     C83034   8.026   9.792   0.457  0.6024 -0.4110 -0.0259
  630MOL0     C83035   7.998   9.764   0.325 -0.6391  0.0282  1.2238
  630MOL0     O83036   7.877   9.765   0.256  0.3589  0.6973 -0.0173
  630MOL0     C83037   7.761   9.835   0.312 -0.3824 -0.6147 -0.7305
  630MOL0     C83038   7.652   9.855   0.209 -0.4210  0.7737  0.6165
  630MOL0     C83039   7.706   9.902   0.074 -0.4882  0.9570  0.2497
  630MOL0     C83040   7.751  10.047   0.092 -0.4146  0.7638 -0.5275
  630MOL0     C83041   7.798  10.108  -0.039 -0.8179  0.7483  0.7392
  630MOL0     C83042   7.777  10.261  -0.065  0.5902  0.4066  0.5332
  630MOL0     C83043   7.865  10.311  -0.181  0.6163  0.9699 -0.3880
  630MOL0     C83044   7.786  10.281  -0.310  0.8896 -0.8042  1.0732
  630MOL0     N83045   7.839  10.195  -0.410  0.3537  0.0174 -0.2274
  630MOL0     C83046   7.862  10.061  -0.397 -0.2177  0.7699  0.1192
  630MOL0     C83047   7.893  10.022  -0.528  1.5717 -0.3389 -0.4065
  630MOL0     C83048   7.909   9.881  -0.574  0.5222  0.0502 -0.5363
  630MOL0     C83049   7.780   9.792  -0.596  0.1767  1.1074  0.7219
  630MOL0     C83050   7.649   9.823  -0.516  0.1290 -0.5319 -0.0167
  630MOL0     C83051   7.629   9.750  -0.388  0.4615  0.0785 -0.9911
  630MOL0     O83052   7.541   9.837  -0.309 -0.4007  0.3391 -0.4491
  630MOL0     C83053   7.408   9.851  -0.339  0.4999  0.1053 -1.1279
  630MOL0     C83054   7.342   9.768  -0.431 -0.1502 -0.7155 -0.3632
  630MOL0     C83055   7.208   9.781  -0.441  0.4370 -0.0129  0.1188
  630MOL0     C83056   7.135   9.882  -0.372 -0.7091  0.6269  0.1172
  630MOL0     C83057   6.993   9.890  -0.404  0.2890  0.0857 -0.0936
  630MOL0     O83058   6.946   9.793  -0.478  0.4867  0.0404 -0.2300
  630MOL0     C83059   6.811   9.801  -0.517 -0.0367 -0.6066  0.1360
  630MOL0     C83060   6.713   9.745  -0.431  1.3266 -0.0136 -0.6946
  630MOL0     C83061   6.579   9.759  -0.477  0.8210  0.2932 -0.2017
  630MOL0     C83062   6.534   9.819  -0.599 -0.8335  0.8775 -0.2498
  630MOL0     O83063   6.400   9.827  -0.629  0.5798 -0.3485 -0.1145
  630MOL0     C83064   6.366   9.914  -0.743 -0.0493  0.7726 -0.3055
  630MOL0     C83065   6.370   9.840  -0.883 -0.2807  0.4897 -0.1301
  630MOL0     C83066   6.318   9.935  -0.991 -0.5776  0.3204 -0.1480
  630MOL0     C83067   6.279   9.861  -1.126 -0.4152  0.5910  0.7994
  630MOL0     C83068   6.260   9.954  -1.249  0.6292 -0.0386 -0.0029
  630MOL0     C83069   6.122  10.028  -1.234 -1.1652 -0.0391  0.1996
  630MOL0     C83070   6.071  10.078  -1.367 -0.3695  0.1104  0.0476
  630MOL0     C83071   5.963  10.186  -1.350 -0.3882 -0.5916  0.0040
  630MOL0    Cl83072   6.018  10.346  -1.281  0.3937  0.1031  0.2984
  630MOL0     C83073   6.637   9.861  -0.682 -0.3351  0.2709 -0.1059
  630MOL0     C83074   6.774   9.852  -0.639 -0.0869  0.6617  0.0629
  630MOL0     O83075   6.926   9.981  -0.354 -0.8840  0.5619  0.4340
  630MOL0     C83076   7.192   9.965  -0.285 -0.4044  0.5853  0.9694
  630MOL0     C83077   7.336   9.947  -0.270  0.7168  0.1534  0.1205
  630MOL0     N83078   7.898  10.123  -0.612 -0.1028 -0.3541  0.3807
  630MOL0     N83079   7.872  10.227  -0.543  0.6857 -0.5894 -0.9224
  630MOL0     C83080   8.111   9.741   0.238 -0.4989  0.5222  0.0105
  630MOL0     C83081   8.248   9.754   0.282 -0.2904  1.0460 -0.0386
  630MOL0     C83082   8.636   9.719   0.466  0.8384  0.1819  0.6634
  630MOL0     C83083   8.671   9.846   0.512 -0.2670 -0.0001  0.4670
  630MOL0     C83084   8.801   9.877   0.550 -1.1800  0.5218 -0.0701
  630MOL0     C83085   8.909   9.782   0.538 -0.6877  0.3268 -0.4415
  630MOL0     O83086   9.042   9.826   0.553 -0.0163 -0.0022  1.0445
  630MOL0     C83087   9.148   9.737   0.565 -0.8726  0.5105 -1.1698
  630MOL0     C83088   9.233   9.759   0.437  0.5072  0.7144  0.3524
  630MOL0     C83089   9.287   9.903   0.408  0.5027  0.5992  0.0922
  630MOL0     C83090   9.407   9.955   0.487 -0.6852 -0.5244  0.0392
  630MOL0     C83091   9.392  10.087   0.543  1.1426 -0.0021  0.1346
  630MOL0     C83092   9.395  10.201   0.582  0.2334 -0.1298  0.9217
  630MOL0     C83093   8.872   9.654   0.497  0.1046  0.3938  0.6986
  630MOL0     C83094   8.738   9.625   0.461  1.1689 -0.7063  0.8854
  630MOL0     H83095   8.195   9.799   0.605  1.2451 -1.2745 -0.2159
  630MOL0     H83096   7.939   9.812   0.518  1.8930  0.1390  1.7015
  630MOL0     H83097   7.800   9.928   0.354 -0.5346  0.2874 -2.4826
  630MOL0     H83098   7.709   9.794   0.398 -0.7249  2.6472  0.7482
  630MOL0     H83099   7.584   9.927   0.255 -0.2139  1.0793  0.4495
  630MOL0     H83100   7.608   9.758   0.186  2.5706 -0.4131 -0.7082
  630MOL0     H83101   7.629   9.896  -0.004 -0.5602  3.5049  0.0518
  630MOL0     H83102   7.778   9.833   0.030 -1.4310 -0.2528  0.5353
  630MOL0     H83103   7.666  10.108   0.124  1.9059  3.7131  0.3639
  630MOL0     H83104   7.832  10.056   0.164 -0.6931 -0.6720  0.0049
  630MOL0     H83105   7.744  10.059  -0.121 -1.5223  0.2693  1.4781
  630MOL0     H83106   7.903  10.082  -0.052 -1.7460 -3.5409  0.2408
  630MOL0     H83107   7.804  10.322   0.022  1.5211  1.4024 -0.4297
  630MOL0     H83108   7.671  10.287  -0.073  0.1296 -1.4717 -0.0643
  630MOL0     H83109   7.895  10.416  -0.176  1.2771  0.7907 -0.5526
  630MOL0     H83110   7.962  10.263  -0.167  0.3751  1.1960  2.8200
  630MOL0     H83111   7.770  10.377  -0.359  2.8508 -0.2870  1.3883
  630MOL0     H83112   7.683  10.245  -0.299 -0.0455  1.8028  1.6721
  630MOL0     H83113   7.841   9.992  -0.316  2.9420  0.3253  0.7049
  630MOL0     H83114   7.963   9.818  -0.502  0.0676  1.9449  1.5661
  630MOL0     H83115   7.970   9.890  -0.664 -1.5432  1.3551 -1.8876
  630MOL0     H83116   7.814   9.688  -0.587  1.3708  1.6233  2.5313
  630MOL0     H83117   7.753   9.794  -0.702  1.8646 -1.5459  0.1447
  630MOL0     H83118   7.650   9.931  -0.499 -3.0529  0.0025 -2.3950
  630MOL0     H83119   7.561   9.805  -0.578 -0.5952 -0.7467  1.0366
  630MOL0     H83120   7.727   9.735  -0.342 -0.9511 -0.5349  2.0568
  630MOL0     H83121   7.590   9.650  -0.410 -2.1348  0.7834 -0.0046
  630MOL0     H83122   7.403   9.687  -0.472  1.1345 -0.8297  1.6294
  630MOL0     H83123   7.156   9.719  -0.513  1.2929 -0.3874 -0.1894
  630MOL0     H83124   6.720   9.708  -0.329  1.2774 -1.7316 -1.2947
  630MOL0     H83125   6.494   9.723  -0.419  1.1877  0.8079  0.6857
  630MOL0     H83126   6.435   9.999  -0.740  1.8100 -0.6724  1.9396
  630MOL0     H83127   6.276   9.973  -0.727 -0.3611  1.0432 -2.7641
  630MOL0     H83128   6.310   9.749  -0.886  2.0790 -1.1279 -1.0633
  630MOL0     H83129   6.476   9.817  -0.898 -0.8909 -3.3711  0.4193
  630MOL0     H83130   6.401  10.005  -1.003  2.3761 -3.0830 -1.4685
  630MOL0     H83131   6.232   9.990  -0.951 -1.7767  0.8926 -3.2219
  630MOL0     H83132   6.366   9.797  -1.146  1.0434  2.8500 -0.4957
  630MOL0     H83133   6.188   9.800  -1.122 -0.2405 -0.6954 -5.0942
  630MOL0     H83134   6.277   9.894  -1.338  0.0242 -0.4739  0.1667
  630MOL0     H83135   6.330  10.038  -1.250  0.5224  0.0478 -0.6491
  630MOL0     H83136   6.137  10.112  -1.166 -0.2850  0.5751 -0.7154
  630MOL0     H83137   6.053   9.952  -1.197 -1.3551 -0.3590 -0.7739
  630MOL0     H83138   6.155  10.107  -1.430 -0.2488 -0.2979  0.0179
  630MOL0     H83139   6.016   9.991  -1.406  0.8299 -0.7044  0.1226
  630MOL0     H83140   5.882  10.142  -1.290  1.0597 -2.6334  0.5553
  630MOL0     H83141   5.931  10.214  -1.451  1.3200 -2.4209 -1.1244
  630MOL0     H83142   6.634   9.907  -0.781 -1.1260 -0.3564 -0.3869
  630MOL0     H83143   6.840   9.902  -0.710 -0.3180  0.2784 -0.4301
  630MOL0     H83144   7.131  10.049  -0.253 -3.9836 -0.8281 -1.4970
  630MOL0     H83145   7.392  10.008  -0.199  0.2793  0.6031  0.0854
  630MOL0     H83146   8.086   9.739   0.133 -2.3312  3.3641  0.2772
  630MOL0     H83147   8.327   9.754   0.208 -0.7170 -0.0812 -0.5211
  630MOL0     H83148   8.604   9.932   0.521  0.4317  0.3120  4.6038
  630MOL0     H83149   8.820   9.978   0.587  0.6317 -0.7025  2.6947
  630MOL0     H83150   9.111   9.634   0.575 -0.4696  0.3126 -1.6692
  630MOL0     H83151   9.216   9.764   0.646 -0.2338 -1.8411 -0.8549
  630MOL0     H83152   9.304   9.678   0.421  0.2659  0.7378 -0.9062
  630MOL0     H83153   9.160   9.742   0.357 -0.3718 -2.6642  1.6984
  630MOL0     H83154   9.199   9.969   0.413 -2.3268 -2.9287  0.8487
  630MOL0     H83155   9.313   9.902   0.302 -0.0753 -0.1416 -0.0511
  630MOL0     H83156   9.413   9.883   0.569 -0.1484 -0.9094 -0.3318
  630MOL0     H83157   9.495   9.939   0.425  0.9901 -1.2569  2.4770
  630MOL0     H83158   9.407  10.299   0.622 -1.8634  0.7494 -0.4517
  630MOL0     H83159   8.946   9.578   0.475 -1.7361 -1.1783 -0.4491
  630MOL0     H83160   8.706   9.527   0.429 -0.7415 -0.0783  0.7520
  631MOL0     O83161  11.193   0.910   5.391 -0.8016 -0.4829  0.3468
  631MOL0     C83162  11.270   1.001   5.352  0.2571 -0.2334  0.0111
  631MOL0     O83163  11.276   1.136   5.403  0.0936 -0.5828 -0.6262
  631MOL0     C83164  11.162   1.193   5.464 -1.0857 -0.0654 -0.2145
  631MOL0     C83165  11.192   1.288   5.566 -1.0287  0.5731 -0.0827
  631MOL0     C83166  11.084   1.347   5.636 -0.0846 -0.2995  0.4209
  631MOL0     C83167  10.950   1.319   5.606 -0.5163  0.7010 -0.4393
  631MOL0     O83168  10.847   1.389   5.672  0.1760 -0.2371  0.2357
  631MOL0     C83169  10.753   1.308   5.748 -0.0241  0.1648  0.4445
  631MOL0     C83170  10.648   1.412   5.785  0.2356  0.9213  1.0069
  631MOL0     C83171  10.510   1.357   5.824  0.8829 -0.4654  0.2269
  631MOL0     C83172  10.433   1.484   5.846 -0.4431 -0.2685 -0.4090
  631MOL0     C83173  10.288   1.448   5.859  0.5540  0.0128 -0.0719
  631MOL0     C83174  10.192   1.575   5.846 -1.0201  0.0159 -0.3714
  631MOL0     C83175  10.056   1.532   5.889  1.3060  0.5483  0.0668
  631MOL0     C83176   9.945   1.641   5.881  0.2245  0.5538 -0.0494
  631MOL0     N83177   9.817   1.574   5.913 -0.3054 -0.1629  0.6531
  631MOL0     C83178   9.722   1.509   5.836  0.5228 -0.0704  0.4878
  631MOL0     C83179   9.621   1.474   5.916  0.3471  1.0425 -0.1489
  631MOL0     C83180   9.496   1.389   5.877  0.5214  0.7969  0.5178
  631MOL0     C83181   9.544   1.260   5.797 -0.6440  0.5518  0.4587
  631MOL0     C83182   9.678   1.181   5.843 -0.2540  0.3679  0.9710
  631MOL0     C83183   9.782   1.180   5.724  0.0566 -0.4540 -0.2047
  631MOL0     O83184   9.743   1.092   5.614  0.7572 -0.1658 -1.0839
  631MOL0     C83185   9.844   1.037   5.539  0.3055 -1.2471 -0.6332
  631MOL0     C83186   9.841   1.055   5.404 -0.0568  0.6193 -0.0049
  631MOL0     C83187   9.953   1.008   5.330  0.4701 -0.6435  0.0397
  631MOL0     C83188  10.047   0.921   5.382 -0.0103  0.2316 -0.2064
  631MOL0     C83189  10.150   0.869   5.290 -0.7657 -0.4701 -1.1462
  631MOL0     O83190  10.137   0.881   5.157  0.4113 -1.0480  0.6844
  631MOL0     C83191  10.236   0.849   5.072  0.0703  0.5704 -0.4968
  631MOL0     C83192  10.376   0.847   5.097 -0.5934  0.6784  0.0195
  631MOL0     C83193  10.474   0.811   5.009 -0.1975 -0.5404 -0.0413
  631MOL0     C83194  10.435   0.780   4.879  0.4153  0.7632 -0.5293
  631MOL0     O83195  10.531   0.746   4.785  0.3939  0.2166 -0.8623
  631MOL0     C83196  10.675   0.758   4.813  0.1179 -0.0484  0.4159
  631MOL0     C83197  10.754   0.694   4.691 -0.3692  0.8428 -0.4299
  631MOL0     C83198  10.766   0.783   4.568 -0.0944  0.0944 -0.2918
  631MOL0     C83199  10.859   0.715   4.470 -0.2750  0.6062  0.1033
  631MOL0     C83200  10.883   0.768   4.328  0.2850  0.0016  0.7448
  631MOL0     C83201  10.767   0.776   4.234 -0.7860 -0.4551 -0.6571
  631MOL0     C83202  10.728   0.628   4.177  0.2047 -0.2031  0.0603
  631MOL0     C83203  10.632   0.555   4.269  0.4808  0.1998 -0.0375
  631MOL0    Cl83204  10.481   0.644   4.281 -0.2134 -0.1810 -0.3809
  631MOL0     C83205  10.300   0.780   4.829 -0.8394 -0.4939 -0.3213
  631MOL0     C83206  10.199   0.818   4.932 -0.9379  0.2091  0.9581
  631MOL0     O83207  10.233   0.800   5.346  0.1688  0.6469 -0.7166
  631MOL0     C83208  10.028   0.880   5.510 -0.3363  0.7620 -0.3317
  631MOL0     C83209   9.934   0.948   5.588 -0.0499 -0.2182 -0.3775
  631MOL0     N83210   9.641   1.518   6.047 -0.6434  0.6868  1.1490
  631MOL0     N83211   9.765   1.578   6.043  0.4301 -0.5925  0.5106
  631MOL0     C83212  10.927   1.228   5.504 -1.4182 -0.4392  0.2416
  631MOL0     C83213  11.029   1.171   5.426 -0.7859  0.8760  0.4477
  631MOL0     C83214  11.362   0.986   5.232  0.3063 -0.1695  0.3332
  631MOL0     C83215  11.430   1.095   5.181 -0.9490 -0.3698 -0.0683
  631MOL0     C83216  11.544   1.074   5.093  0.5662 -0.9354  0.0324
  631MOL0     C83217  11.592   0.941   5.063  0.1934  0.9024  0.5238
  631MOL0     O83218  11.697   0.915   4.980  0.0819 -0.3425  0.3794
  631MOL0     C83219  11.780   1.021   4.926  0.5729  0.3816  0.5909
  631MOL0     C83220  11.921   0.966   4.886 -1.0177 -0.4759  0.4732
  631MOL0     C83221  11.980   0.900   5.013  0.0835  0.0807 -0.1535
  631MOL0     C83222  12.120   0.835   4.979  1.0184  0.1877  0.1439
  631MOL0     C83223  12.171   0.746   5.084  0.8202  0.8283  0.1416
  631MOL0     C83224  12.210   0.663   5.166  0.1101 -0.0505 -0.8724
  631MOL0     C83225  11.508   0.841   5.108 -0.7675  0.2417  0.8184
  631MOL0     C83226  11.396   0.861   5.188 -0.1147  0.7112  0.4452
  631MOL0     H83227  11.292   1.305   5.603  0.3589 -1.5544 -2.5633
  631MOL0     H83228  11.102   1.419   5.716 -1.7443 -1.5264  1.9876
  631MOL0     H83229  10.798   1.265   5.837 -1.2294  0.8726  1.4208
  631MOL0     H83230  10.718   1.222   5.690  0.7820  0.9157 -1.2356
  631MOL0     H83231  10.630   1.471   5.695 -0.5942 -2.5552 -1.3454
  631MOL0     H83232  10.681   1.472   5.870  0.9363  0.6358  0.9503
  631MOL0     H83233  10.514   1.293   5.913  3.7788  1.8186  1.9681
  631MOL0     H83234  10.459   1.305   5.744 -1.3081  1.3906  0.3231
  631MOL0     H83235  10.477   1.538   5.930  1.9136  2.4824 -3.1562
  631MOL0     H83236  10.441   1.555   5.763  0.5719 -1.1017 -1.0490
  631MOL0     H83237  10.269   1.402   5.956 -1.1175 -1.9325 -1.2338
  631MOL0     H83238  10.264   1.367   5.791 -2.7993  0.3858  0.5217
  631MOL0     H83239  10.195   1.617   5.745 -2.2154 -0.5556 -0.6638
  631MOL0     H83240  10.224   1.648   5.921  1.6489 -1.8249  0.4401
  631MOL0     H83241  10.031   1.448   5.824  3.1799 -1.0225  1.2717
  631MOL0     H83242  10.055   1.500   5.994  3.4146 -1.1000 -0.3417
  631MOL0     H83243   9.943   1.690   5.783  0.1346  1.3319  0.3346
  631MOL0     H83244   9.967   1.717   5.956 -1.0338  1.3593 -0.4679
  631MOL0     H83245   9.744   1.489   5.732  1.9838 -0.9033  0.9267
  631MOL0     H83246   9.435   1.452   5.812 -0.1522  1.7293  1.9868
  631MOL0     H83247   9.445   1.366   5.971 -0.1342  0.0074 -0.0273
  631MOL0     H83248   9.554   1.287   5.692  0.2753 -3.2420 -0.5793
  631MOL0     H83249   9.463   1.187   5.800 -1.5267  1.4528 -0.6298
  631MOL0     H83250   9.732   1.225   5.927 -1.4516  1.2392  1.2920
  631MOL0     H83251   9.664   1.077   5.872  0.5293  0.3340  1.2677
  631MOL0     H83252   9.884   1.155   5.753  0.4310  1.0285 -0.1989
  631MOL0     H83253   9.782   1.279   5.678 -3.3680  0.0578  0.5690
  631MOL0     H83254   9.759   1.117   5.368  1.1697  3.3493  1.5884
  631MOL0     H83255   9.965   1.048   5.230 -1.7017  1.8489  0.6584
  631MOL0     H83256  10.402   0.868   5.200 -1.0625  1.5347 -0.0248
  631MOL0     H83257  10.575   0.807   5.049 -0.2392  1.9983  0.4995
  631MOL0     H83258  10.697   0.702   4.905 -1.6035 -1.6770 -0.1130
  631MOL0     H83259  10.708   0.862   4.812  3.1903 -0.9217 -0.2542
  631MOL0     H83260  10.702   0.606   4.655 -0.0397  0.9141 -1.0935
  631MOL0     H83261  10.858   0.665   4.708  0.1666  1.2148 -2.6969
  631MOL0     H83262  10.797   0.885   4.595  0.9205 -0.3594  0.3458
  631MOL0     H83263  10.666   0.780   4.525 -0.4923 -0.1620  0.6399
  631MOL0     H83264  10.956   0.735   4.516  1.1342 -1.7050 -1.6336
  631MOL0     H83265  10.853   0.606   4.474  2.9199  0.3648  2.9676
  631MOL0     H83266  10.970   0.724   4.279 -0.8184 -0.2939 -0.9935
  631MOL0     H83267  10.911   0.874   4.338 -1.4438  0.8938 -2.4943
  631MOL0     H83268  10.785   0.836   4.144 -1.6044 -0.8670 -1.1040
  631MOL0     H83269  10.681   0.822   4.283  0.5497  0.7725  0.6501
  631MOL0     H83270  10.692   0.634   4.074  3.2301  0.3768 -1.0858
  631MOL0     H83271  10.823   0.579   4.152  2.2778  2.7692  1.5454
  631MOL0     H83272  10.679   0.532   4.365  0.4787  0.7571  0.1013
  631MOL0     H83273  10.605   0.467   4.211 -0.9874  1.6239 -1.6455
  631MOL0     H83274  10.279   0.752   4.726  1.1908 -1.3549 -0.5471
  631MOL0     H83275  10.095   0.811   4.902 -0.0986 -0.8666 -2.1604
  631MOL0     H83276  10.096   0.810   5.558 -0.8317 -0.8576 -1.9079
  631MOL0     H83277   9.915   0.930   5.693 -1.1443  3.4820  0.1890
  631MOL0     H83278  10.822   1.216   5.476 -1.8891  3.0851  0.0371
  631MOL0     H83279  11.009   1.110   5.338 -0.3511  1.3833 -0.0102
  631MOL0     H83280  11.398   1.196   5.203  0.4674  1.1107 -3.9624
  631MOL0     H83281  11.601   1.155   5.048 -4.0371  0.9694 -3.1605
  631MOL0     H83282  11.801   1.092   5.006 -2.2265 -0.8887  2.6353
  631MOL0     H83283  11.737   1.066   4.836  1.8785 -0.1744 -0.3375
  631MOL0     H83284  11.916   0.891   4.806 -2.8615 -1.2339  1.2600
  631MOL0     H83285  11.981   1.050   4.849  0.4662 -1.5226  0.4057
  631MOL0     H83286  11.919   0.815   5.043  1.5063 -1.7158 -2.0718
  631MOL0     H83287  11.983   0.972   5.095 -1.4482  0.4757 -0.4158
  631MOL0     H83288  12.114   0.776   4.886  3.2691  0.1791 -0.0385
  631MOL0     H83289  12.198   0.905   4.949 -0.8919  1.4947 -2.0802
  631MOL0     H83290  12.254   0.607   5.246 -3.2717  0.3736  1.4948
  631MOL0     H83291  11.534   0.737   5.091  1.1990  0.9931 -1.1429
  631MOL0     H83292  11.341   0.772   5.217 -0.2987  0.0723 -1.7083
  632MOL0     O83293   8.984   9.623  11.445  0.2688  0.3685  0.5606
  632MOL0     C83294   8.941   9.667  11.339 -0.4286  1.1838 -0.5536
  632MOL0     O83295   8.837   9.761  11.324 -0.3161 -0.4684  0.3383
  632MOL0     C83296   8.787   9.826  11.438 -0.6908 -0.7360  0.0599
  632MOL0     C83297   8.844   9.831  11.568  0.3223  0.8433 -0.5905
  632MOL0     C83298   8.804   9.937  11.655 -0.1800 -0.9002  0.2851
  632MOL0     C83299   8.702  10.013  11.622  0.3526  0.4075 -0.9174
  632MOL0     O83300   8.662  10.087  11.734  0.1500  0.1633  0.7182
  632MOL0     C83301   8.567  10.203  11.717 -1.5467  0.1558  0.1818
  632MOL0     C83302   8.429  10.146  11.746 -0.1057 -0.0579 -0.1299
  632MOL0     C83303   8.308  10.247  11.757  1.4219 -0.0011  0.5711
  632MOL0     C83304   8.190  10.177  11.815  0.1801  0.5543  0.7869
  632MOL0     C83305   8.061  10.242  11.770 -0.1536 -0.3261  0.7021
  632MOL0     C83306   7.948  10.223  11.875 -0.1453 -0.3459  0.2261
  632MOL0     C83307   7.921  10.347  11.962 -0.0296 -0.5234 -0.0577
  632MOL0     C83308   7.836  10.450  11.893 -0.6134 -0.6815 -0.4950
  632MOL0     N83309   7.699  10.405  11.869  0.7589  0.3979  0.0678
  632MOL0     C83310   7.593  10.445  11.952  0.3973 -0.1910 -0.3215
  632MOL0     C83311   7.488  10.402  11.886 -0.3936  1.6517 -1.0253
  632MOL0     C83312   7.348  10.438  11.895 -1.0726 -0.1855 -0.2624
  632MOL0     C83313   7.304  10.533  11.777  0.5310  0.2534  0.3366
  632MOL0     C83314   7.393  10.661  11.783 -0.5250  0.3920 -0.4188
  632MOL0     C83315   7.322  10.782  11.719  1.1760  0.4669  0.1477
  632MOL0     O83316   7.240  10.748  11.603  0.6924  0.0822 -0.7913
  632MOL0     C83317   7.269  10.794  11.478  0.6058 -0.7985 -0.1541
  632MOL0     C83318   7.379  10.863  11.431 -1.1364  0.5891  0.4647
  632MOL0     C83319   7.405  10.893  11.297 -0.0433  1.1112 -0.2602
  632MOL0     C83320   7.314  10.875  11.200  0.7382 -0.5590 -0.1198
  632MOL0     C83321   7.341  10.910  11.056  0.5293  0.0893 -0.6869
  632MOL0     O83322   7.234  10.893  10.973  0.4007 -0.1893 -0.0083
  632MOL0     C83323   7.266  10.882  10.840 -0.0697 -0.7553 -0.6688
  632MOL0     C83324   7.202  10.973  10.756  0.1307 -0.9328 -0.6931
  632MOL0     C83325   7.230  10.965  10.624 -0.5678  0.4399  0.5962
  632MOL0     C83326   7.324  10.869  10.575 -0.0845 -0.2175 -0.0418
  632MOL0     O83327   7.345  10.858  10.436 -0.0758 -0.0655  0.5563
  632MOL0     C83328   7.338  10.980  10.349 -0.4814  0.1853 -0.5072
  632MOL0     C83329   7.381  10.950  10.208 -0.3238  0.0294  0.3895
  632MOL0     C83330   7.535  10.957  10.194 -0.2280 -0.3713  0.5376
  632MOL0     C83331   7.572  10.968  10.046 -0.5137 -0.5543  0.3839
  632MOL0     C83332   7.632  10.855   9.968  0.0506  0.3068 -0.1919
  632MOL0     C83333   7.551  10.727   9.963  0.8707  0.7044 -0.8231
  632MOL0     C83334   7.604  10.614   9.872 -0.0013 -0.5287  0.1223
  632MOL0     C83335   7.752  10.584   9.887 -0.0895 -0.3687  1.0209
  632MOL0    Cl83336   7.788  10.432   9.803 -0.0276  0.0350 -0.3395
  632MOL0     C83337   7.383  10.777  10.660  0.0372 -0.4245  0.9399
  632MOL0     C83338   7.360  10.782  10.796 -0.0331  0.3798  0.1434
  632MOL0     O83339   7.450  10.959  11.033  0.4778  0.4062 -0.4773
  632MOL0     C83340   7.195  10.810  11.246 -0.2593 -0.7875 -0.0942
  632MOL0     C83341   7.172  10.767  11.383 -0.0043 -0.8437 -0.2396
  632MOL0     N83342   7.528  10.334  11.773 -0.0461 -0.1015  0.0086
  632MOL0     N83343   7.656  10.340  11.759  0.1182 -0.0198 -0.2405
  632MOL0     C83344   8.629  10.002  11.510 -0.6167 -0.7031 -0.1146
  632MOL0     C83345   8.678   9.905  11.419  0.0566 -0.1917  0.6660
  632MOL0     C83346   8.997   9.608  11.220 -0.1993 -0.2256  0.0789
  632MOL0     C83347   8.954   9.670  11.097  0.8422  0.2183  0.5712
  632MOL0     C83348   8.995   9.611  10.978 -0.8024 -0.3089  0.1889
  632MOL0     C83349   9.086   9.510  10.978 -0.2322  0.1417 -0.5989
  632MOL0     O83350   9.122   9.473  10.852 -0.5834 -0.2391  0.1556
  632MOL0     C83351   9.244   9.404  10.821  0.3217  0.1045  0.5891
  632MOL0     C83352   9.253   9.386  10.666  0.8050  0.0205 -0.2024
  632MOL0     C83353   9.138   9.298  10.614 -0.6984 -0.3410  1.6532
  632MOL0     C83354   9.117   9.292  10.456 -0.1502  0.0026  0.6443
  632MOL0     C83355   9.236   9.224  10.394 -0.0999  0.2249  0.0494
  632MOL0     C83356   9.320   9.158  10.335  0.2440  0.3259  0.1692
  632MOL0     C83357   9.137   9.448  11.092 -0.3068 -0.0789 -0.2963
  632MOL0     C83358   9.091   9.497  11.210  1.0816 -1.3441  0.7853
  632MOL0     H83359   8.938   9.787  11.599 -0.2153  1.7829  2.8221
  632MOL0     H83360   8.857   9.964  11.745  0.0709  1.1646 -0.4299
  632MOL0     H83361   8.582  10.247  11.618 -0.7903  1.0599  0.6842
  632MOL0     H83362   8.577  10.268  11.805 -4.7818 -0.3069  1.0513
  632MOL0     H83363   8.427  10.093  11.842  0.5695 -2.1606 -1.2198
  632MOL0     H83364   8.407  10.073  11.668  1.1756  1.0362 -1.5801
  632MOL0     H83365   8.279  10.275  11.655  0.8027 -1.3427  0.3609
  632MOL0     H83366   8.320  10.334  11.823  3.4380 -2.6622  4.0537
  632MOL0     H83367   8.198  10.075  11.778  4.4285  0.9354  0.1295
  632MOL0     H83368   8.198  10.176  11.924 -2.1929  0.3968  1.0118
  632MOL0     H83369   8.018  10.191  11.684 -0.9242 -0.8542  1.3912
  632MOL0     H83370   8.071  10.343  11.730  2.4049 -1.6283 -2.4612
  632MOL0     H83371   7.988  10.145  11.941 -2.3877 -2.7362 -1.0311
  632MOL0     H83372   7.851  10.193  11.834 -0.2214  0.2176 -0.0138
  632MOL0     H83373   7.872  10.309  12.053  1.9454 -2.6457  0.2062
  632MOL0     H83374   8.018  10.377  12.003 -1.0452 -1.2120  3.1547
  632MOL0     H83375   7.873  10.468  11.791 -1.3966  1.1643 -0.5015
  632MOL0     H83376   7.852  10.538  11.956 -0.0483 -1.4478  0.4560
  632MOL0     H83377   7.591  10.507  12.041 -2.7312 -1.5271  0.6779
  632MOL0     H83378   7.328  10.483  11.993 -3.2650 -1.5197 -0.0263
  632MOL0     H83379   7.277  10.355  11.896 -2.7168  1.1278  1.7888
  632MOL0     H83380   7.197  10.554  11.773 -0.3014 -3.4870 -1.5959
  632MOL0     H83381   7.313  10.475  11.684 -3.9202 -0.6830  0.2731
  632MOL0     H83382   7.433  10.683  11.882  2.1958 -2.4627 -0.7205
  632MOL0     H83383   7.487  10.646  11.730  0.0177  2.3547 -0.0775
  632MOL0     H83384   7.393  10.861  11.692  0.6537  0.4182 -1.4833
  632MOL0     H83385   7.263  10.813  11.806  0.0145 -2.0847  0.3475
  632MOL0     H83386   7.452  10.886  11.508 -0.4667  1.2238 -0.3330
  632MOL0     H83387   7.505  10.914  11.261  0.7871 -0.6357  0.8633
  632MOL0     H83388   7.136  11.047  10.801 -0.6771 -3.4243  2.6237
  632MOL0     H83389   7.194  11.039  10.553  4.1715  0.2144 -2.4613
  632MOL0     H83390   7.383  11.066  10.400  0.9273 -0.5129 -0.5227
  632MOL0     H83391   7.231  11.004  10.346 -0.6821 -0.2225  1.7724
  632MOL0     H83392   7.340  11.026  10.141  0.0121 -1.0925 -1.1592
  632MOL0     H83393   7.352  10.852  10.168 -0.0583 -0.5210  1.5217
  632MOL0     H83394   7.589  10.869  10.230  1.7506 -0.2808 -1.9939
  632MOL0     H83395   7.568  11.050  10.240 -0.9228  1.0640 -1.7024
  632MOL0     H83396   7.485  11.009   9.993 -2.2972 -1.4929  2.4534
  632MOL0     H83397   7.642  11.051  10.030 -0.0517 -0.7621  1.2856
  632MOL0     H83398   7.730  10.842  10.015  0.4775  2.7067 -0.3090
  632MOL0     H83399   7.646  10.888   9.865 -3.4542 -0.4827 -1.0327
  632MOL0     H83400   7.449  10.750   9.929  0.6623  3.0143  1.0777
  632MOL0     H83401   7.541  10.681  10.062  1.0985  1.5064 -0.4171
  632MOL0     H83402   7.531  10.535   9.890 -2.1724  1.6094  1.2400
  632MOL0     H83403   7.582  10.647   9.770 -1.0533 -3.2949 -0.6310
  632MOL0     H83404   7.778  10.568   9.992  1.9406  1.4396  0.8644
  632MOL0     H83405   7.813  10.664   9.844 -2.0156  0.5470 -0.1821
  632MOL0     H83406   7.453  10.700  10.629  0.0646 -0.6104  1.4608
  632MOL0     H83407   7.418  10.714  10.858  2.1233  1.5268 -0.4920
  632MOL0     H83408   7.118  10.816  11.169 -1.9677 -0.9911  1.5289
  632MOL0     H83409   7.080  10.722  11.418  0.7614 -2.0026  0.3526
  632MOL0     H83410   8.541  10.058  11.482 -1.8563  0.8338  5.5535
  632MOL0     H83411   8.637   9.901  11.319  2.7471  1.9746 -0.6729
  632MOL0     H83412   8.867   9.735  11.094  1.8471  1.5799 -0.0077
  632MOL0     H83413   8.953   9.647  10.885 -0.4391  0.9978  0.5174
  632MOL0     H83414   9.232   9.304  10.864 -0.8475  0.1612  0.4292
  632MOL0     H83415   9.341   9.442  10.856  0.2075 -1.9299  3.5236
  632MOL0     H83416   9.250   9.484  10.619 -1.2275 -0.7219 -1.7975
  632MOL0     H83417   9.349   9.348  10.630  1.5303 -1.4357  2.8894
  632MOL0     H83418   9.044   9.335  10.655 -0.9835 -1.2685  1.8612
  632MOL0     H83419   9.170   9.203  10.658  0.8066 -0.1455  1.0657
  632MOL0     H83420   9.031   9.229  10.427  0.8372  0.0114 -2.7442
  632MOL0     H83421   9.118   9.391  10.409  1.7524 -0.9712 -1.5869
  632MOL0     H83422   9.405   9.127  10.277  1.8409  0.6457  2.2104
  632MOL0     H83423   9.210   9.369  11.097  0.7910  0.8963 -0.5398
  632MOL0     H83424   9.121   9.446  11.301 -2.3672 -3.2084  1.0323
  633MOL0     O83425   6.016   8.181  11.391 -0.8298  0.5076 -0.5485
  633MOL0     C83426   5.974   8.124  11.294  0.6475  0.2553 -0.2644
  633MOL0     O83427   5.849   8.136  11.238  0.6234  0.8260 -0.3035
  633MOL0     C83428   5.755   8.229  11.277  0.6785  1.0043 -0.0390
  633MOL0     C83429   5.772   8.328  11.372 -0.2323 -0.6912  0.8169
  633MOL0     C83430   5.663   8.404  11.408  0.3461 -0.3493  0.2280
  633MOL0     C83431   5.537   8.389  11.344 -0.5727 -0.1429 -0.2733
  633MOL0     O83432   5.437   8.469  11.383  0.1936 -0.5160  0.3871
  633MOL0     C83433   5.308   8.455  11.324 -0.1683 -0.2488 -0.3612
  633MOL0     C83434   5.205   8.551  11.400 -0.1353 -0.4216 -0.3705
  633MOL0     C83435   5.242   8.702  11.406  0.6911 -0.0399 -0.0513
  633MOL0     C83436   5.230   8.768  11.543 -0.3718 -0.6597  0.3926
  633MOL0     C83437   5.087   8.766  11.592  0.1448 -0.1608 -0.6833
  633MOL0     C83438   5.077   8.866  11.708  0.3448  0.9346 -0.0591
  633MOL0     C83439   4.925   8.883  11.734  0.1855 -0.7832 -0.1090
  633MOL0     C83440   4.897   8.984  11.842  0.6857 -0.1471  0.3910
  633MOL0     N83441   4.754   8.991  11.892 -0.2714  0.6751  0.9856
  633MOL0     C83442   4.656   8.897  11.915 -0.4349  0.2383  0.3477
  633MOL0     C83443   4.552   8.969  11.952  0.8694  0.5298 -0.4548
  633MOL0     C83444   4.417   8.894  11.987  0.7200 -0.2188  0.0958
  633MOL0     C83445   4.439   8.795  12.104 -1.3528 -0.3847 -0.4747
  633MOL0     C83446   4.504   8.864  12.225 -0.6696  0.0996  0.4075
  633MOL0     C83447   4.522   8.779  12.344 -0.0875 -0.1093 -1.6338
  633MOL0     O83448   4.641   8.828  12.414 -0.8466 -0.7554 -0.7138
  633MOL0     C83449   4.765   8.770  12.394  0.5437  0.8216  0.0446
  633MOL0     C83450   4.817   8.724  12.507  0.8866 -0.0428  1.4081
  633MOL0     C83451   4.934   8.650  12.503 -0.3972  0.7708 -0.4012
  633MOL0     C83452   4.994   8.609  12.380 -0.1154  0.2674  0.5035
  633MOL0     C83453   5.117   8.520  12.394 -0.4983  0.6816  0.0006
  633MOL0     O83454   5.154   8.477  12.268 -0.0596 -0.2916  0.2125
  633MOL0     C83455   5.261   8.387  12.249 -0.2744  0.3356 -0.5261
  633MOL0     C83456   5.391   8.428  12.263  1.1534  0.9435 -0.8748
  633MOL0     C83457   5.494   8.346  12.230 -0.3321  0.9150 -0.2753
  633MOL0     C83458   5.475   8.218  12.183  1.1047  0.2072 -0.0462
  633MOL0     O83459   5.586   8.143  12.164  0.0100 -0.6967  1.2516
  633MOL0     C83460   5.583   8.020  12.089 -0.2680  0.1699  0.2080
  633MOL0     C83461   5.728   7.972  12.082 -1.0437  1.0272  1.0256
  633MOL0     C83462   5.833   8.082  12.019 -0.3551  0.3900  0.2883
  633MOL0     C83463   5.967   8.021  12.040 -0.2997 -0.4776 -0.0217
  633MOL0     C83464   6.088   8.123  12.018 -0.2662 -0.1669  0.5787
  633MOL0     C83465   6.222   8.066  12.056 -0.3426 -0.6231 -0.0381
  633MOL0     C83466   6.334   8.153  12.014 -1.0096 -0.9095  0.0414
  633MOL0     C83467   6.473   8.086  12.045 -1.1214 -0.3351 -0.3580
  633MOL0    Cl83468   6.604   8.197  11.998 -0.2772  0.2068  0.2505
  633MOL0     C83469   5.340   8.183  12.143  0.5395 -0.3743 -0.0796
  633MOL0     C83470   5.235   8.268  12.180  0.3662 -0.1362 -0.1770
  633MOL0     O83471   5.172   8.495  12.497 -0.7704  0.0809 -0.0852
  633MOL0     C83472   4.931   8.647  12.263 -0.0346  0.4585  0.0201
  633MOL0     C83473   4.812   8.722  12.271 -0.4581 -0.9566 -0.4462
  633MOL0     N83474   4.568   9.101  11.947 -0.0482 -0.9840  0.0588
  633MOL0     N83475   4.688   9.109  11.904 -0.1113 -1.3048  0.5751
  633MOL0     C83476   5.518   8.289  11.257 -0.3089 -0.2254 -0.0067
  633MOL0     C83477   5.634   8.215  11.216  0.0326  0.1475 -0.2642
  633MOL0     C83478   6.055   8.027  11.215 -0.1903 -0.7498  0.7647
  633MOL0     C83479   6.034   7.999  11.078 -0.0314 -1.3381  0.3626
  633MOL0     C83480   6.122   7.923  11.001  0.4536  0.4576 -0.4387
  633MOL0     C83481   6.242   7.882  11.060 -0.3662 -0.1593 -0.3577
  633MOL0     O83482   6.324   7.807  10.981  0.8020 -0.4300 -0.9632
  633MOL0     C83483   6.459   7.780  11.028  0.6025 -0.6147  0.5646
  633MOL0     C83484   6.459   7.641  11.097 -1.2616 -0.3935 -0.3448
  633MOL0     C83485   6.598   7.625  11.169  0.2412 -0.4734  0.0714
  633MOL0     C83486   6.617   7.491  11.240 -0.7411 -0.0050  0.0211
  633MOL0     C83487   6.583   7.376  11.153  0.3152  0.1756  0.0226
  633MOL0     C83488   6.562   7.264  11.100 -0.2492 -0.5658  0.0487
  633MOL0     C83489   6.264   7.911  11.202  0.6725  0.1993  0.8378
  633MOL0     C83490   6.168   7.971  11.279 -0.1793  0.3258 -0.4693
  633MOL0     H83491   5.866   8.353  11.421  0.4853 -0.0492 -0.8191
  633MOL0     H83492   5.685   8.471  11.491  2.9083  0.2124 -0.8258
  633MOL0     H83493   5.279   8.349  11.327  2.2128 -0.9741 -0.6675
  633MOL0     H83494   5.305   8.473  11.216 -0.8043 -2.9119 -0.8592
  633MOL0     H83495   5.199   8.513  11.502  0.1357  0.2339 -0.1062
  633MOL0     H83496   5.112   8.538  11.343 -1.6980  0.1325  1.8855
  633MOL0     H83497   5.193   8.760  11.327 -0.1041  3.2801  2.6180
  633MOL0     H83498   5.346   8.705  11.373 -0.0065  2.0174 -2.4086
  633MOL0     H83499   5.304   8.718  11.606  0.7701  0.6432  0.1407
  633MOL0     H83500   5.263   8.871  11.523 -0.1558 -0.6447  0.8236
  633MOL0     H83501   5.065   8.664  11.628  1.3423 -0.3805 -0.5326
  633MOL0     H83502   5.020   8.804  11.516 -2.4554  1.7528  2.3111
  633MOL0     H83503   5.124   8.962  11.685  1.7865  0.9807  2.5995
  633MOL0     H83504   5.123   8.818  11.796 -1.6468  0.5183  0.8217
  633MOL0     H83505   4.868   8.919  11.648  0.5014 -0.4544 -0.1795
  633MOL0     H83506   4.883   8.789  11.772 -0.1422 -0.7070 -0.2789
  633MOL0     H83507   4.921   9.079  11.795  1.4420 -2.3834 -4.2473
  633MOL0     H83508   4.970   8.959  11.920  1.1613 -0.8066 -0.2541
  633MOL0     H83509   4.667   8.789  11.916  2.6472  0.2980  5.0001
  633MOL0     H83510   4.383   8.840  11.899 -3.2075 -0.8843  1.8131
  633MOL0     H83511   4.345   8.973  12.010 -0.3741 -0.6466 -1.7037
  633MOL0     H83512   4.499   8.713  12.064 -0.3863 -1.1914  2.3979
  633MOL0     H83513   4.349   8.744  12.140  0.4127 -2.0615  1.8655
  633MOL0     H83514   4.604   8.901  12.199  0.2352  0.6835  4.1110
  633MOL0     H83515   4.437   8.944  12.258 -2.3398 -0.3743 -1.6491
  633MOL0     H83516   4.549   8.674  12.326  2.1568  0.0836  0.2045
  633MOL0     H83517   4.425   8.792  12.393  0.9608  2.8774 -0.1466
  633MOL0     H83518   4.780   8.757  12.604  2.8188  0.4017  2.0334
  633MOL0     H83519   4.983   8.628  12.597 -0.5528  1.1860 -0.2200
  633MOL0     H83520   5.412   8.526  12.304 -0.9052  0.5101  1.4932
  633MOL0     H83521   5.597   8.381  12.238 -0.6838  1.8642  0.2799
  633MOL0     H83522   5.544   8.032  11.988  1.5459  0.0653 -0.5242
  633MOL0     H83523   5.522   7.944  12.140 -0.5191  1.3792  1.8012
  633MOL0     H83524   5.719   7.877  12.029 -0.4722  1.7608 -0.4268
  633MOL0     H83525   5.774   7.945  12.178  0.6222 -2.6066 -0.6089
  633MOL0     H83526   5.827   8.172  12.081  1.1923  1.3751 -0.9266
  633MOL0     H83527   5.816   8.112  11.915  0.8824 -2.5331 -0.8693
  633MOL0     H83528   5.966   7.983  12.143 -4.4103  1.5785  0.8854
  633MOL0     H83529   5.976   7.934  11.973  2.3065  1.4817 -2.4752
  633MOL0     H83530   6.078   8.210  12.083 -0.3835  0.6797 -0.5543
  633MOL0     H83531   6.096   8.145  11.911  3.2370 -1.0070  0.5571
  633MOL0     H83532   6.224   7.961  12.024 -2.6903 -1.9208  3.4233
  633MOL0     H83533   6.241   8.072  12.163  0.2251 -0.6807 -0.1365
  633MOL0     H83534   6.330   8.178  11.908  1.2620  2.5819  0.6040
  633MOL0     H83535   6.327   8.249  12.067 -0.1412 -1.1790  0.6667
  633MOL0     H83536   6.488   8.003  11.976 -0.9760 -0.1413 -0.5611
  633MOL0     H83537   6.483   8.041  12.144 -0.9992 -1.9104 -1.0511
  633MOL0     H83538   5.320   8.097  12.081  2.6050 -0.3209 -0.9102
  633MOL0     H83539   5.134   8.228  12.170 -0.1559  1.2880 -0.9517
  633MOL0     H83540   4.982   8.629  12.169 -0.2286 -3.2144  0.4835
  633MOL0     H83541   4.771   8.762  12.178  0.1053 -0.6146 -0.5520
  633MOL0     H83542   5.430   8.269  11.197 -0.3431 -3.1411  0.8384
  633MOL0     H83543   5.631   8.137  11.141  0.9858  2.3863 -2.8009
  633MOL0     H83544   5.947   8.049  11.036  0.7228 -0.7486 -0.5300
  633MOL0     H83545   6.098   7.892  10.900 -0.9000 -1.2159  0.3411
  633MOL0     H83546   6.504   7.854  11.095  2.9115 -0.8908 -0.5847
  633MOL0     H83547   6.524   7.779  10.940  1.4774 -2.0300  1.1969
  633MOL0     H83548   6.387   7.641  11.180  0.0696 -0.9636  0.8513
  633MOL0     H83549   6.431   7.562  11.027  1.2306 -1.7927  0.1516
  633MOL0     H83550   6.620   7.705  11.241  1.5873  0.4094 -1.2724
  633MOL0     H83551   6.674   7.639  11.092 -1.8306 -3.1505 -2.7171
  633MOL0     H83552   6.719   7.477  11.278 -0.9557 -2.7139 -0.1944
  633MOL0     H83553   6.553   7.485  11.328 -2.1842 -0.5677 -1.0226
  633MOL0     H83554   6.545   7.169  11.053  1.3510 -1.7399  1.6763
  633MOL0     H83555   6.351   7.877  11.258 -0.5621 -1.8474  1.5974
  633MOL0     H83556   6.186   7.962  11.386  2.6344 -3.8959 -1.0619
  634MOL0     O83557   9.564   4.166   0.620 -0.4522 -0.4883 -0.2445
  634MOL0     C83558   9.593   4.072   0.690  0.5195  0.7921 -0.6506
  634MOL0     O83559   9.694   3.978   0.673 -0.6170  0.5398  0.0957
  634MOL0     C83560   9.815   4.010   0.612  0.3051 -0.5505 -0.4994
  634MOL0     C83561   9.857   4.138   0.565  0.1084  0.3211 -1.2497
  634MOL0     C83562   9.993   4.151   0.513 -0.2785 -0.2142 -0.1339
  634MOL0     C83563  10.080   4.036   0.509  0.0257 -0.1396  0.1016
  634MOL0     O83564  10.206   4.038   0.459  0.1812 -0.1516 -0.1749
  634MOL0     C83565  10.218   4.096   0.330 -0.3145  0.0201 -0.4070
  634MOL0     C83566  10.357   4.063   0.279 -0.8134 -0.0272  0.0235
  634MOL0     C83567  10.382   4.120   0.139  0.3429  0.4615  0.4403
  634MOL0     C83568  10.524   4.142   0.096  0.3056 -0.5242  0.2499
  634MOL0     C83569  10.530   4.203  -0.045  0.7576 -0.0711 -0.0565
  634MOL0     C83570  10.490   4.102  -0.152  0.1853  0.4603 -0.1568
  634MOL0     C83571  10.500   4.155  -0.294 -0.1302 -0.5237  0.8700
  634MOL0     C83572  10.426   4.291  -0.320 -0.2014 -1.1537 -0.4376
  634MOL0     N83573  10.279   4.282  -0.285 -0.2370  0.2854 -0.2213
  634MOL0     C83574  10.190   4.198  -0.348  0.8890 -0.4699  0.5230
  634MOL0     C83575  10.069   4.212  -0.279  0.7398  0.3232 -0.6933
  634MOL0     C83576   9.937   4.132  -0.298 -0.2927 -0.2185  0.1377
  634MOL0     C83577   9.899   4.164  -0.440  0.4756 -0.2450 -0.0105
  634MOL0     C83578   9.763   4.110  -0.483 -0.8195  0.4947  0.3057
  634MOL0     C83579   9.719   4.148  -0.620  0.9066 -0.7994 -0.0395
  634MOL0     O83580   9.581   4.097  -0.627  0.2521  0.3010 -1.0417
  634MOL0     C83581   9.505   4.137  -0.735  0.7031 -0.3545 -0.9004
  634MOL0     C83582   9.367   4.104  -0.717  0.6451  0.2170 -0.2806
  634MOL0     C83583   9.268   4.135  -0.812  0.3801  0.4277 -0.7976
  634MOL0     C83584   9.303   4.209  -0.926 -0.9865 -0.7724  0.4113
  634MOL0     C83585   9.213   4.220  -1.043  1.0617  0.6121 -0.9519
  634MOL0     O83586   9.223   4.318  -1.133  0.4337  0.0849 -0.2974
  634MOL0     C83587   9.108   4.368  -1.186 -0.3473  0.4292  0.5347
  634MOL0     C83588   9.082   4.498  -1.178  1.0469  0.7000 -0.1951
  634MOL0     C83589   8.982   4.554  -1.243  1.6803 -0.1426  0.1966
  634MOL0     C83590   8.900   4.485  -1.336 -0.1358 -1.4146 -0.6179
  634MOL0     O83591   8.786   4.548  -1.374 -0.0827  0.7127  0.0301
  634MOL0     C83592   8.672   4.457  -1.368  0.1944  0.6819  0.1789
  634MOL0     C83593   8.543   4.532  -1.317  0.2540  0.5210  0.0301
  634MOL0     C83594   8.479   4.630  -1.421  0.3300 -0.7914 -0.4135
  634MOL0     C83595   8.379   4.716  -1.340 -1.0886  0.3853  0.0966
  634MOL0     C83596   8.302   4.816  -1.429  0.4349 -0.4579  0.3095
  634MOL0     C83597   8.227   4.751  -1.548  0.4308 -0.3446  0.0724
  634MOL0     C83598   8.127   4.661  -1.486 -0.6624  0.9955  0.5187
  634MOL0     C83599   8.013   4.630  -1.584 -0.2031 -0.4755  0.6459
  634MOL0    Cl83600   8.078   4.537  -1.727 -0.2703  0.3864 -0.2673
  634MOL0     C83601   8.939   4.351  -1.366 -0.4836  0.0105  0.6742
  634MOL0     C83602   9.045   4.292  -1.287 -0.1461  0.4219  0.4390
  634MOL0     O83603   9.132   4.130  -1.044  0.6177  0.5951  0.2789
  634MOL0     C83604   9.437   4.246  -0.944 -0.1216  0.7007  0.5182
  634MOL0     C83605   9.538   4.213  -0.845  0.5341  0.3356  0.7415
  634MOL0     N83606  10.099   4.294  -0.172  0.6517  0.1063  0.6888
  634MOL0     N83607  10.227   4.335  -0.174  1.0396 -0.7556 -0.3514
  634MOL0     C83608  10.034   3.916   0.558  0.3789  0.9240 -0.1191
  634MOL0     C83609   9.904   3.903   0.605 -0.4483  0.1351  0.0552
  634MOL0     C83610   9.515   4.056   0.814  1.4274  0.1240 -0.8608
  634MOL0     C83611   9.421   4.152   0.863 -0.4006  0.1685  0.5726
  634MOL0     C83612   9.356   4.130   0.986 -0.6307 -0.4581  0.3740
  634MOL0     C83613   9.384   4.023   1.074 -1.0332 -0.1629 -0.3164
  634MOL0     O83614   9.349   4.016   1.205 -0.4886  0.6218  0.1661
  634MOL0     C83615   9.266   3.904   1.246 -0.3277  0.1073  0.6128
  634MOL0     C83616   9.277   3.912   1.403  0.0587  0.4199  0.2210
  634MOL0     C83617   9.426   3.868   1.443  0.6288  0.4624  0.3671
  634MOL0     C83618   9.424   3.858   1.595  0.5905 -0.4393 -0.6666
  634MOL0     C83619   9.352   3.740   1.637 -0.5565 -0.7699  0.1801
  634MOL0     C83620   9.288   3.648   1.672 -0.2584 -0.4129  0.2144
  634MOL0     C83621   9.468   3.932   1.018 -0.2093  0.4122 -0.0998
  634MOL0     C83622   9.545   3.953   0.901 -0.2794  0.2217 -0.4685
  634MOL0     H83623   9.785   4.219   0.568 -0.6015 -0.3306 -0.2819
  634MOL0     H83624  10.033   4.243   0.471  1.9508 -1.9234 -1.9299
  634MOL0     H83625  10.207   4.205   0.332  0.6461  0.1794 -1.9624
  634MOL0     H83626  10.146   4.058   0.256  0.3148  0.2652 -1.1578
  634MOL0     H83627  10.381   3.956   0.279  1.7964  0.3513  3.9107
  634MOL0     H83628  10.436   4.107   0.341  0.6294  0.3388 -1.9625
  634MOL0     H83629  10.325   4.211   0.118  0.8258  0.1351 -2.8411
  634MOL0     H83630  10.329   4.060   0.065  1.0843 -0.6447  0.7812
  634MOL0     H83631  10.560   4.224   0.160  0.4408 -0.3564 -0.0412
  634MOL0     H83632  10.591   4.055   0.096 -1.3798 -1.8866 -1.3700
  634MOL0     H83633  10.633   4.238  -0.061 -0.0534  1.7064 -1.7712
  634MOL0     H83634  10.458   4.284  -0.048  1.4141  0.4965 -1.3841
  634MOL0     H83635  10.392   4.054  -0.147  1.8512 -3.3956 -1.3776
  634MOL0     H83636  10.560   4.019  -0.142 -0.3734 -0.3685 -2.4189
  634MOL0     H83637  10.606   4.173  -0.314  0.3199 -4.9234 -1.8952
  634MOL0     H83638  10.466   4.072  -0.356 -0.1521 -1.6075  2.2957
  634MOL0     H83639  10.440   4.320  -0.425  0.6814 -3.6917 -1.0888
  634MOL0     H83640  10.479   4.369  -0.263  1.7587 -1.2289 -2.0229
  634MOL0     H83641  10.202   4.133  -0.434 -1.3417  1.5033 -1.4224
  634MOL0     H83642   9.869   4.179  -0.226 -0.4947 -0.1509 -0.0975
  634MOL0     H83643   9.951   4.026  -0.273  2.5597 -0.0877 -0.5702
  634MOL0     H83644   9.976   4.129  -0.509  1.1275  0.4673  0.3392
  634MOL0     H83645   9.898   4.274  -0.446 -1.6898 -0.2911 -1.5441
  634MOL0     H83646   9.751   4.002  -0.473 -1.0497  0.4789 -0.1592
  634MOL0     H83647   9.698   4.153  -0.407  0.2359 -1.1834  2.2815
  634MOL0     H83648   9.766   4.093  -0.702 -1.7480 -0.2719 -2.0332
  634MOL0     H83649   9.733   4.250  -0.656  1.6612 -2.2717 -4.5200
  634MOL0     H83650   9.345   4.053  -0.623 -0.6427  2.6303  0.8364
  634MOL0     H83651   9.163   4.117  -0.788  0.3833  1.8934  0.5069
  634MOL0     H83652   9.140   4.562  -1.112  0.7310  2.6017 -1.6843
  634MOL0     H83653   8.968   4.658  -1.215  1.1076  0.5495 -2.4030
  634MOL0     H83654   8.678   4.371  -1.301  0.9724 -0.0059 -0.7477
  634MOL0     H83655   8.646   4.410  -1.463  0.2244 -3.0020  1.8266
  634MOL0     H83656   8.574   4.581  -1.224  0.8933 -1.1956  0.7637
  634MOL0     H83657   8.465   4.457  -1.297  0.5302  0.7284  2.0687
  634MOL0     H83658   8.451   4.575  -1.511  2.7434 -0.8842 -1.1924
  634MOL0     H83659   8.552   4.699  -1.464 -0.3730  0.3928  0.2247
  634MOL0     H83660   8.307   4.648  -1.292  0.2656 -0.4910  0.9413
  634MOL0     H83661   8.426   4.774  -1.261 -2.1708  2.2447 -0.5542
  634MOL0     H83662   8.364   4.897  -1.469 -0.4106  1.4474  2.6656
  634MOL0     H83663   8.235   4.863  -1.357  1.2219  0.8434  0.2299
  634MOL0     H83664   8.292   4.690  -1.611 -0.3076 -1.1590  0.0791
  634MOL0     H83665   8.168   4.808  -1.621 -1.8370  3.3359  4.2809
  634MOL0     H83666   8.172   4.563  -1.470  1.0312  1.4655 -1.0775
  634MOL0     H83667   8.079   4.704  -1.397  0.7828  0.3956  1.6267
  634MOL0     H83668   7.966   4.724  -1.617  1.6559 -0.3306 -1.8229
  634MOL0     H83669   7.929   4.573  -1.541 -0.4756 -0.6192 -0.0705
  634MOL0     H83670   8.893   4.299  -1.450 -2.1851 -1.8200  2.6261
  634MOL0     H83671   9.076   4.190  -1.309  2.6483  1.3538 -0.4083
  634MOL0     H83672   9.469   4.310  -1.026 -3.5008 -0.7959 -2.2522
  634MOL0     H83673   9.625   4.275  -0.866  0.4610  0.0655 -0.4245
  634MOL0     H83674  10.093   3.825   0.565  2.4572  2.2622  0.7283
  634MOL0     H83675   9.862   3.807   0.633  0.4794  0.1501  1.5869
  634MOL0     H83676   9.387   4.235   0.802 -0.6020  0.0055  0.4600
  634MOL0     H83677   9.286   4.206   1.020  0.4884  0.3593  0.9038
  634MOL0     H83678   9.322   3.816   1.213  0.5808  1.3261 -1.2620
  634MOL0     H83679   9.165   3.889   1.207 -0.7452 -1.2976  2.1403
  634MOL0     H83680   9.251   4.013   1.436  0.3724  0.6805 -0.3111
  634MOL0     H83681   9.211   3.837   1.448  2.4580 -1.2652  1.1445
  634MOL0     H83682   9.507   3.938   1.418  0.4710  0.4479 -0.1906
  634MOL0     H83683   9.451   3.773   1.396 -2.8090  0.4796 -1.8176
  634MOL0     H83684   9.524   3.847   1.637  0.1050  1.8198  1.3165
  634MOL0     H83685   9.383   3.946   1.645 -0.3964 -1.8110  1.0875
  634MOL0     H83686   9.230   3.564   1.704 -0.7528 -0.8457 -1.7202
  634MOL0     H83687   9.496   3.844   1.076  0.4558 -0.0796 -1.1396
  634MOL0     H83688   9.624   3.882   0.880  0.2033  0.5736  0.1385
  635MOL0     O83689   5.396   3.259   2.900  0.4934  1.4140  0.2096
  635MOL0     C83690   5.446   3.335   2.983 -0.5509  0.4197 -0.0956
  635MOL0     O83691   5.590   3.350   2.996  0.0742  0.7740 -0.4413
  635MOL0     C83692   5.667   3.279   2.908 -0.3251 -0.0578  0.1391
  635MOL0     C83693   5.771   3.345   2.838  0.6709  0.6662 -0.1375
  635MOL0     C83694   5.862   3.275   2.762  0.6826  0.5538  0.5939
  635MOL0     C83695   5.846   3.130   2.760 -1.0224 -0.8933 -0.7209
  635MOL0     O83696   5.917   3.044   2.674 -0.9242 -0.5290 -0.9790
  635MOL0     C83697   6.011   3.106   2.597 -0.0861 -0.6016  1.0818
  635MOL0     C83698   6.106   3.014   2.514  0.5901 -1.1425 -0.4157
  635MOL0     C83699   6.204   2.945   2.613 -0.3837  0.5080  1.0364
  635MOL0     C83700   6.331   3.022   2.628  0.6326  0.2174  0.4040
  635MOL0     C83701   6.433   2.961   2.730 -0.4727 -0.1494 -0.0409
  635MOL0     C83702   6.413   3.015   2.875 -0.1888  0.5982  0.1553
  635MOL0     C83703   6.504   2.931   2.970  0.3736 -0.3140  0.2998
  635MOL0     C83704   6.513   2.974   3.114  0.4244  0.5470  0.0509
  635MOL0     N83705   6.570   3.112   3.122 -0.0013  0.0922 -0.1114
  635MOL0     C83706   6.703   3.139   3.081  0.5529  0.2258  0.2951
  635MOL0     C83707   6.704   3.275   3.088 -0.3175 -0.0003 -0.9126
  635MOL0     C83708   6.817   3.375   3.055  0.4095  0.5858 -0.4859
  635MOL0     C83709   6.785   3.471   2.933 -0.7809  1.1817 -0.2041
  635MOL0     C83710   6.786   3.620   2.967  1.2225  0.1657 -0.9260
  635MOL0     C83711   6.652   3.681   3.015  0.2092 -1.1455 -0.0199
  635MOL0     O83712   6.678   3.801   3.099  0.1284 -0.5419  0.4988
  635MOL0     C83713   6.607   3.840   3.217 -0.4409  0.5680 -0.4239
  635MOL0     C83714   6.652   3.952   3.288 -0.5604  0.0226 -0.3456
  635MOL0     C83715   6.589   3.988   3.409  1.1584  0.6840 -0.2674
  635MOL0     C83716   6.474   3.920   3.456  0.6924  0.0697 -0.4127
  635MOL0     C83717   6.398   3.946   3.585 -0.9619 -0.1356 -0.6656
  635MOL0     O83718   6.459   4.040   3.666  0.4477 -0.0303  0.5237
  635MOL0     C83719   6.413   4.036   3.798 -0.5938 -1.4728  0.6027
  635MOL0     C83720   6.385   4.155   3.859 -0.6410  0.3034  0.8380
  635MOL0     C83721   6.335   4.159   3.988  0.4277 -1.5341 -0.6287
  635MOL0     C83722   6.322   4.048   4.067 -0.5296 -0.5555 -0.4611
  635MOL0     O83723   6.276   4.041   4.200 -0.6375 -0.1308  0.1286
  635MOL0     C83724   6.259   4.159   4.276 -0.2233  0.5766  0.1605
  635MOL0     C83725   6.149   4.134   4.378  0.5472 -0.4193 -0.6974
  635MOL0     C83726   6.180   4.032   4.488 -0.4086 -0.8897  0.4559
  635MOL0     C83727   6.065   4.008   4.591 -0.7378  0.5379 -0.7133
  635MOL0     C83728   6.106   3.940   4.729  0.4175 -0.0444 -0.1975
  635MOL0     C83729   5.985   3.933   4.818 -0.3998 -0.0091 -0.6943
  635MOL0     C83730   6.009   3.840   4.942 -0.3442 -0.4500 -0.1142
  635MOL0     C83731   5.875   3.831   5.028  0.2095  0.7447  0.4878
  635MOL0    Cl83732   5.809   3.986   5.075  0.4556  0.6043 -0.1837
  635MOL0     C83733   6.353   3.929   4.004  1.3654 -0.2130  0.4245
  635MOL0     C83734   6.400   3.924   3.877  0.7641  0.6778 -0.1429
  635MOL0     O83735   6.301   3.880   3.614  0.0895 -0.1297 -0.2623
  635MOL0     C83736   6.425   3.820   3.373  0.3843 -0.1287  0.2726
  635MOL0     C83737   6.482   3.785   3.255 -0.5090  0.7101 -0.8751
  635MOL0     N83738   6.577   3.324   3.128 -0.5036 -0.3920  0.2056
  635MOL0     N83739   6.499   3.228   3.159 -0.7479  0.4316 -0.8240
  635MOL0     C83740   5.746   3.065   2.835 -0.8647 -0.5344  0.8420
  635MOL0     C83741   5.661   3.139   2.908  0.0800 -0.1968 -0.0375
  635MOL0     C83742   5.358   3.368   3.092  0.3770  0.1008 -0.7044
  635MOL0     C83743   5.411   3.432   3.213  0.3394 -0.7458  0.3744
  635MOL0     C83744   5.335   3.476   3.316 -0.0979  0.0585  0.5113
  635MOL0     C83745   5.197   3.451   3.307  0.1864 -0.7667 -1.3001
  635MOL0     O83746   5.109   3.482   3.412  0.4191 -0.2374  0.0908
  635MOL0     C83747   5.011   3.586   3.380 -0.0065  0.0986  0.6841
  635MOL0     C83748   4.878   3.546   3.437 -0.3439  0.0854  0.3485
  635MOL0     C83749   4.832   3.404   3.395 -0.5621  0.4011  0.4019
  635MOL0     C83750   4.718   3.351   3.482  0.2326  0.3052 -0.5268
  635MOL0     C83751   4.605   3.448   3.494 -0.2812 -0.6537  0.7273
  635MOL0     C83752   4.527   3.545   3.508  0.5665  0.5729 -0.4943
  635MOL0     C83753   5.136   3.380   3.196 -0.2630 -0.2202 -0.2100
  635MOL0     C83754   5.218   3.342   3.092 -0.2382 -0.2478  0.6179
  635MOL0     H83755   5.755   3.452   2.848 -0.3359  0.3858  2.0090
  635MOL0     H83756   5.919   3.332   2.689 -0.5378  2.0794  0.7629
  635MOL0     H83757   6.079   3.172   2.652  0.9624 -0.2847 -0.5345
  635MOL0     H83758   5.962   3.164   2.518  1.6754  0.9435  1.0568
  635MOL0     H83759   6.135   3.072   2.426 -2.3530 -0.8437 -1.2724
  635MOL0     H83760   6.044   2.941   2.462 -1.4907  2.8107 -4.0852
  635MOL0     H83761   6.231   2.846   2.577  2.2377  0.8128  1.9355
  635MOL0     H83762   6.166   2.926   2.714  0.0312 -0.6430  0.9787
  635MOL0     H83763   6.384   3.032   2.533  2.2779 -2.7623  0.8659
  635MOL0     H83764   6.307   3.124   2.658 -2.1207 -0.6226  1.4165
  635MOL0     H83765   6.535   2.985   2.699  0.3031 -4.1620 -1.2418
  635MOL0     H83766   6.435   2.852   2.733  1.1205 -0.3172 -2.9566
  635MOL0     H83767   6.314   3.001   2.920  0.9855  1.5012  3.2444
  635MOL0     H83768   6.438   3.121   2.882 -0.7082  0.7842 -0.6423
  635MOL0     H83769   6.463   2.831   2.984 -0.9639  0.4185  1.8275
  635MOL0     H83770   6.606   2.916   2.932  1.9982  0.7381  3.8371
  635MOL0     H83771   6.577   2.906   3.170  3.0674  2.4300 -0.4519
  635MOL0     H83772   6.414   2.978   3.160  0.2336  3.3208 -0.3992
  635MOL0     H83773   6.787   3.082   3.042  0.8338  1.6104 -1.2017
  635MOL0     H83774   6.919   3.336   3.056  1.2981  2.7903  0.4094
  635MOL0     H83775   6.799   3.432   3.147 -0.9070  2.4491 -1.8326
  635MOL0     H83776   6.696   3.447   2.875  0.8141  0.7962 -2.6687
  635MOL0     H83777   6.870   3.449   2.867  0.7751 -2.2349  2.6169
  635MOL0     H83778   6.864   3.635   3.043 -0.9690  1.4837  1.1948
  635MOL0     H83779   6.820   3.679   2.882 -1.2714  0.3604 -1.8590
  635MOL0     H83780   6.612   3.600   3.078  3.3421 -4.4044 -1.8900
  635MOL0     H83781   6.589   3.706   2.929  2.5108 -1.3986 -1.8634
  635MOL0     H83782   6.740   4.001   3.246 -2.0448  0.6911 -2.8406
  635MOL0     H83783   6.637   4.071   3.459  3.2092 -0.0248 -0.9685
  635MOL0     H83784   6.402   4.251   3.810  1.3059  0.9036  2.5335
  635MOL0     H83785   6.319   4.256   4.034 -1.1377 -2.4723  0.9248
  635MOL0     H83786   6.220   4.244   4.220  0.2958  1.3019  0.8899
  635MOL0     H83787   6.353   4.199   4.314  2.3895 -2.7156 -2.1468
  635MOL0     H83788   6.054   4.111   4.330 -0.6038 -1.6824  1.9664
  635MOL0     H83789   6.134   4.226   4.436 -0.4544 -0.9219 -0.1377
  635MOL0     H83790   6.274   4.059   4.537 -0.9375 -0.6845  1.3790
  635MOL0     H83791   6.204   3.938   4.438 -1.2558 -1.4537  1.0996
  635MOL0     H83792   6.021   4.107   4.610 -1.3414  0.0360  0.5662
  635MOL0     H83793   5.989   3.937   4.556  1.4373 -3.0938  1.3289
  635MOL0     H83794   6.195   3.989   4.771  0.2003  0.7867 -0.7022
  635MOL0     H83795   6.134   3.835   4.711  3.3350  0.8081 -1.2379
  635MOL0     H83796   5.903   3.882   4.767 -0.8937 -0.1536  0.2251
  635MOL0     H83797   5.954   4.035   4.842 -2.1532  0.1050 -3.1197
  635MOL0     H83798   6.039   3.742   4.904 -1.7368 -0.8735 -0.1835
  635MOL0     H83799   6.088   3.882   5.005  0.2264  0.2883 -1.2973
  635MOL0     H83800   5.890   3.775   5.121 -0.1188  1.6708  1.1216
  635MOL0     H83801   5.796   3.767   4.987 -0.0983  0.7942  0.9939
  635MOL0     H83802   6.337   3.840   4.064  2.3870 -1.6436 -1.3246
  635MOL0     H83803   6.432   3.827   3.842  1.1963  0.7954 -0.0738
  635MOL0     H83804   6.343   3.757   3.406  0.5530  0.1310  1.1968
  635MOL0     H83805   6.432   3.695   3.219 -0.7542  0.2559  0.5511
  635MOL0     H83806   5.760   2.958   2.839  3.1736 -0.2534 -0.8973
  635MOL0     H83807   5.592   3.088   2.974  2.0792 -1.6715  1.0053
  635MOL0     H83808   5.517   3.450   3.224  1.0213 -3.7707 -0.4648
  635MOL0     H83809   5.368   3.544   3.394 -2.5575 -0.2397  1.9109
  635MOL0     H83810   4.994   3.604   3.274  3.6686 -1.9198 -0.4648
  635MOL0     H83811   5.053   3.675   3.428  0.9003  0.5709 -0.9182
  635MOL0     H83812   4.879   3.579   3.542  2.1311  4.2733 -0.7248
  635MOL0     H83813   4.806   3.615   3.392 -3.3313 -4.7449 -3.1677
  635MOL0     H83814   4.909   3.328   3.414 -0.9327  0.2237  1.2323
  635MOL0     H83815   4.804   3.413   3.290  4.0981 -0.5237 -1.1910
  635MOL0     H83816   4.676   3.264   3.431 -2.3777  2.8933 -3.2536
  635MOL0     H83817   4.757   3.335   3.583  0.3267 -3.3327 -1.0228
  635MOL0     H83818   4.444   3.612   3.502 -1.4415 -1.8427 -1.5171
  635MOL0     H83819   5.034   3.350   3.177 -0.3322 -1.4292  1.8193
  635MOL0     H83820   5.183   3.303   2.998 -3.4999  2.1900  0.6334
  636MOL0     O83821   1.195   3.071   4.820  0.2161  0.1346 -0.2173
  636MOL0     C83822   1.250   2.965   4.788 -1.1408  0.0685  0.1006
  636MOL0     O83823   1.227   2.836   4.841 -0.1269  0.5002  0.5128
  636MOL0     C83824   1.116   2.817   4.927 -0.3005 -0.5351 -0.8177
  636MOL0     C83825   1.145   2.771   5.060  0.5776  0.2436  0.4972
  636MOL0     C83826   1.043   2.771   5.151  0.2846 -0.6384  0.6459
  636MOL0     C83827   0.912   2.805   5.117 -0.5020  0.7002 -0.7723
  636MOL0     O83828   0.822   2.796   5.225 -0.0632 -0.1844 -0.0503
  636MOL0     C83829   0.678   2.801   5.200 -0.0814 -0.3384  0.1344
  636MOL0     C83830   0.613   2.841   5.333 -0.3896  1.0532 -0.0317
  636MOL0     C83831   0.633   2.741   5.443 -0.1773  0.4099  0.4994
  636MOL0     C83832   0.541   2.779   5.563 -0.9837 -0.2136 -0.8763
  636MOL0     C83833   0.561   2.690   5.675 -0.0696  0.1576 -0.6754
  636MOL0     C83834   0.448   2.701   5.774 -0.6709 -0.5749  0.3005
  636MOL0     C83835   0.449   2.585   5.880  0.0559  0.2328 -0.7200
  636MOL0     C83836   0.510   2.629   6.007 -0.6889  0.2538  0.4047
  636MOL0     N83837   0.511   2.535   6.117  0.6660 -0.2631 -0.9735
  636MOL0     C83838   0.422   2.527   6.217  0.2722  0.3568  0.7940
  636MOL0     C83839   0.463   2.423   6.297 -0.6460 -0.3179 -0.8241
  636MOL0     C83840   0.408   2.403   6.425  0.4278  0.0631  0.6522
  636MOL0     C83841   0.396   2.263   6.473 -0.8272  0.0389  0.2742
  636MOL0     C83842   0.321   2.242   6.602 -0.5529 -0.9168 -0.1130
  636MOL0     C83843   0.417   2.240   6.724  0.1625 -0.3522 -0.3707
  636MOL0     O83844   0.334   2.175   6.818  0.5350 -0.2519  0.1229
  636MOL0     C83845   0.364   2.198   6.950  0.4505 -1.3332 -0.2982
  636MOL0     C83846   0.312   2.301   7.031  0.3858 -1.0466 -0.4120
  636MOL0     C83847   0.332   2.296   7.175 -1.5009  0.7493  0.5924
  636MOL0     C83848   0.423   2.203   7.235  0.4659  0.5406  0.4464
  636MOL0     C83849   0.439   2.190   7.378  0.0634  0.1446  0.4327
  636MOL0     O83850   0.561   2.150   7.423 -0.6919 -0.2849  0.3178
  636MOL0     C83851   0.591   2.120   7.554  0.2011  0.5445  0.3510
  636MOL0     C83852   0.704   2.039   7.576  0.4718 -0.0324 -0.0683
  636MOL0     C83853   0.751   2.031   7.710  0.3070 -0.6397  0.9337
  636MOL0     C83854   0.695   2.095   7.817 -0.1999 -0.5312  0.1239
  636MOL0     O83855   0.762   2.081   7.936 -0.1195  0.0886 -0.0901
  636MOL0     C83856   0.718   2.155   8.051 -0.5875  0.3711  0.1040
  636MOL0     C83857   0.805   2.152   8.180  0.2744  0.2002 -0.4719
  636MOL0     C83858   0.736   2.220   8.300  0.8412  0.3431 -0.8312
  636MOL0     C83859   0.829   2.198   8.429  0.3152 -0.0367 -0.5910
  636MOL0     C83860   0.763   2.268   8.541  0.6730 -0.6109 -0.8840
  636MOL0     C83861   0.833   2.229   8.678  0.9227 -0.7188  1.0069
  636MOL0     C83862   0.737   2.239   8.805  0.0592  0.2393 -0.0406
  636MOL0     C83863   0.792   2.178   8.928  0.3756 -0.2358 -0.7319
  636MOL0    Cl83864   0.657   2.112   9.037  0.5488  0.1647  0.2254
  636MOL0     C83865   0.573   2.167   7.789  0.3547 -0.2385 -0.0898
  636MOL0     C83866   0.519   2.177   7.662 -0.7479 -0.4985  0.8139
  636MOL0     O83867   0.342   2.232   7.439 -0.9366  0.0141 -0.0176
  636MOL0     C83868   0.483   2.105   7.147  1.3476 -0.3130 -0.0393
  636MOL0     C83869   0.451   2.109   7.007  0.5300 -0.1741  0.4128
  636MOL0     N83870   0.573   2.369   6.233 -0.2165  0.8891  0.9546
  636MOL0     N83871   0.603   2.439   6.132  0.2103  0.5767 -0.4280
  636MOL0     C83872   0.887   2.848   4.987  0.6014 -0.1933  0.3641
  636MOL0     C83873   0.991   2.863   4.892 -0.3084  1.1570 -0.2276
  636MOL0     C83874   1.386   2.967   4.728 -0.4212  0.1667  0.2571
  636MOL0     C83875   1.451   3.088   4.695  0.8688  0.3550  0.7488
  636MOL0     C83876   1.592   3.083   4.666  0.4357 -0.0165  0.1300
  636MOL0     C83877   1.660   2.964   4.642  0.5948 -0.3437  0.5306
  636MOL0     O83878   1.800   2.976   4.617 -0.1835 -0.6094  0.1111
  636MOL0     C83879   1.876   2.876   4.548  1.0489  0.0988  0.0193
  636MOL0     C83880   2.015   2.919   4.520 -0.5335 -0.4241 -0.1974
  636MOL0     C83881   2.025   3.053   4.446 -0.2871  0.2664 -0.1470
  636MOL0     C83882   2.180   3.087   4.431  0.6822 -0.1748 -0.1660
  636MOL0     C83883   2.192   3.227   4.386  1.1953  0.0514  0.0571
  636MOL0     C83884   2.203   3.343   4.363 -0.9305 -0.1218  0.3661
  636MOL0     C83885   1.594   2.849   4.663  0.4804  0.2528 -0.8871
  636MOL0     C83886   1.454   2.850   4.696  0.0298 -0.5472  0.6436
  636MOL0     H83887   1.247   2.752   5.090  0.8136 -3.9372 -2.2189
  636MOL0     H83888   1.077   2.742   5.250  1.1039  0.5169  0.7386
  636MOL0     H83889   0.639   2.701   5.175 -0.6462 -0.6288  1.9966
  636MOL0     H83890   0.657   2.872   5.121 -0.8444 -2.1863 -1.3908
  636MOL0     H83891   0.504   2.840   5.320 -0.5172 -3.4314  0.0753
  636MOL0     H83892   0.647   2.941   5.363 -1.7781  1.5707 -0.1236
  636MOL0     H83893   0.741   2.733   5.461 -0.1580 -1.3648 -0.1597
  636MOL0     H83894   0.609   2.638   5.414  1.7843  0.1494 -0.3804
  636MOL0     H83895   0.565   2.879   5.600  4.4796 -1.4246 -0.3311
  636MOL0     H83896   0.437   2.776   5.530 -0.6016  0.1634 -2.1897
  636MOL0     H83897   0.652   2.702   5.735 -0.8903 -0.3256  0.7245
  636MOL0     H83898   0.550   2.591   5.629 -1.8284  1.5772 -3.5804
  636MOL0     H83899   0.355   2.679   5.722  0.1738 -1.0309 -1.0563
  636MOL0     H83900   0.435   2.799   5.821 -2.6100 -1.5313  1.9451
  636MOL0     H83901   0.344   2.559   5.898 -0.7935  1.0172 -3.9870
  636MOL0     H83902   0.503   2.497   5.842 -0.9606 -1.4254  1.4198
  636MOL0     H83903   0.454   2.709   6.057 -2.0056 -1.2641  1.4601
  636MOL0     H83904   0.615   2.647   5.981 -0.3966 -2.0672 -0.2026
  636MOL0     H83905   0.340   2.597   6.226 -0.5580 -0.0709 -2.1839
  636MOL0     H83906   0.301   2.425   6.416 -0.2583 -2.8866  0.5167
  636MOL0     H83907   0.467   2.466   6.492 -2.2199  3.5304 -0.0196
  636MOL0     H83908   0.497   2.222   6.474 -1.0707 -0.6451 -0.9250
  636MOL0     H83909   0.348   2.202   6.396 -0.7996 -2.5357  2.1541
  636MOL0     H83910   0.241   2.317   6.602 -0.5104 -0.8075  2.2551
  636MOL0     H83911   0.286   2.138   6.593  1.0128 -1.4952  0.2770
  636MOL0     H83912   0.436   2.343   6.754 -0.1620 -0.3801 -0.0610
  636MOL0     H83913   0.510   2.183   6.712 -0.2845 -1.4924  1.1530
  636MOL0     H83914   0.244   2.375   6.992  0.7215 -0.8314 -0.5910
  636MOL0     H83915   0.281   2.372   7.233  1.1814  2.5437  0.7805
  636MOL0     H83916   0.751   1.995   7.488 -1.1581 -0.3221 -0.8277
  636MOL0     H83917   0.844   1.975   7.709  1.0907  0.6460  0.0832
  636MOL0     H83918   0.617   2.118   8.067 -1.3141  2.5579  0.9226
  636MOL0     H83919   0.709   2.256   8.009 -2.0132 -0.3613 -1.4838
  636MOL0     H83920   0.902   2.201   8.167 -0.0213  0.8775 -0.1184
  636MOL0     H83921   0.810   2.047   8.212  1.2411  0.4930  0.3862
  636MOL0     H83922   0.642   2.171   8.324 -0.0383  0.6538 -3.3529
  636MOL0     H83923   0.717   2.326   8.278 -2.3250 -0.5810 -3.2356
  636MOL0     H83924   0.846   2.092   8.446  0.3219 -0.1324 -1.1715
  636MOL0     H83925   0.931   2.233   8.410  1.6272 -2.6528  1.1067
  636MOL0     H83926   0.655   2.257   8.547  0.0673  3.3868 -1.3173
  636MOL0     H83927   0.771   2.377   8.533  0.6337 -0.6522 -1.5036
  636MOL0     H83928   0.921   2.294   8.687 -1.0053  2.2062 -0.1003
  636MOL0     H83929   0.860   2.124   8.664 -1.9458 -1.5572  1.1495
  636MOL0     H83930   0.717   2.345   8.825 -1.6052  0.2878 -1.6467
  636MOL0     H83931   0.643   2.185   8.792 -1.8459  1.9655  4.5579
  636MOL0     H83932   0.836   2.252   8.995  1.2679 -2.9885  1.9168
  636MOL0     H83933   0.878   2.113   8.914 -0.2396 -1.3903  0.6613
  636MOL0     H83934   0.522   2.224   7.866  0.9897  0.7596 -0.3858
  636MOL0     H83935   0.446   2.255   7.642  2.3001  3.0997  2.4835
  636MOL0     H83936   0.541   2.024   7.191  0.7327 -0.4844  0.4651
  636MOL0     H83937   0.508   2.044   6.942 -1.3042 -2.1274  0.6591
  636MOL0     H83938   0.787   2.888   4.970 -1.1895 -3.8847  1.1029
  636MOL0     H83939   0.967   2.926   4.806 -1.1945  0.9624 -0.1259
  636MOL0     H83940   1.397   3.182   4.706 -0.0700 -0.1656  0.5862
  636MOL0     H83941   1.655   3.171   4.676  1.1472 -0.1038 -2.6749
  636MOL0     H83942   1.816   2.835   4.466  1.3094 -0.0343 -0.1080
  636MOL0     H83943   1.871   2.799   4.625 -1.3000 -0.7141 -0.8523
  636MOL0     H83944   2.064   2.923   4.617  1.0242 -1.0063 -0.9204
  636MOL0     H83945   2.068   2.848   4.455 -1.3422 -0.6124 -0.6641
  636MOL0     H83946   1.988   3.137   4.506 -1.1947 -0.8586  0.9092
  636MOL0     H83947   1.967   3.053   4.353 -0.3284  0.8859 -0.1293
  636MOL0     H83948   2.216   3.073   4.533  0.7001  0.6813 -0.0470
  636MOL0     H83949   2.222   3.010   4.366 -1.2955 -5.5264  4.1345
  636MOL0     H83950   2.195   3.447   4.341 -3.8894  0.1516  2.1594
  636MOL0     H83951   1.647   2.754   4.654  0.0044  0.0229 -1.3355
  636MOL0     H83952   1.412   2.750   4.709 -1.6738  0.0383 -0.0754
  637MOL0     O83953   3.513   9.025   3.392 -0.0044 -0.0574  0.3847
  637MOL0     C83954   3.498   9.135   3.443 -0.1327  0.6009 -0.4548
  637MOL0     O83955   3.568   9.248   3.417  0.1248  0.0885  0.0973
  637MOL0     C83956   3.661   9.265   3.315 -0.7994  0.4390  0.3864
  637MOL0     C83957   3.663   9.179   3.202 -0.3329 -0.3755 -0.3888
  637MOL0     C83958   3.762   9.184   3.109  0.3545  0.2902  0.6123
  637MOL0     C83959   3.875   9.264   3.131 -0.5116  0.3151 -0.2823
  637MOL0     O83960   3.995   9.254   3.059 -0.2373  0.4253  0.2031
  637MOL0     C83961   4.067   9.374   3.033 -0.1561 -0.5036 -0.1505
  637MOL0     C83962   4.196   9.338   2.969 -0.3412  1.0423  1.2521
  637MOL0     C83963   4.261   9.450   2.869 -0.0116  1.1777 -0.2167
  637MOL0     C83964   4.301   9.585   2.934 -0.4592 -0.0041 -0.1275
  637MOL0     C83965   4.397   9.569   3.059  0.1140  0.0634 -0.5918
  637MOL0     C83966   4.438   9.706   3.111 -0.0666 -0.3326 -0.2980
  637MOL0     C83967   4.318   9.773   3.184  0.2296  0.4292  0.2456
  637MOL0     C83968   4.267   9.711   3.311 -0.3720 -0.4735  0.2295
  637MOL0     N83969   4.153   9.782   3.372  0.4555 -0.5356 -0.4132
  637MOL0     C83970   4.157   9.897   3.451 -0.1682 -0.3401 -0.4616
  637MOL0     C83971   4.024   9.909   3.483  0.4226  0.6343  0.6339
  637MOL0     C83972   3.943   9.987   3.582 -0.1923 -0.2690 -0.1876
  637MOL0     C83973   3.886  10.126   3.534 -0.3688  0.7294  0.0307
  637MOL0     C83974   3.994  10.213   3.473  1.3753 -0.3755  0.0684
  637MOL0     C83975   3.931  10.351   3.449 -0.9498  0.3786 -0.6428
  637MOL0     O83976   3.891  10.429   3.562 -0.4877  0.7582  0.6786
  637MOL0     C83977   3.989  10.465   3.647 -0.5976 -0.4345  0.5876
  637MOL0     C83978   4.125  10.455   3.632 -0.4717  0.2402  0.5353
  637MOL0     C83979   4.212  10.502   3.739 -0.4583  0.2736  0.1970
  637MOL0     C83980   4.156  10.552   3.856  0.1672  0.2908  0.5906
  637MOL0     C83981   4.250  10.584   3.971  0.1495  0.7001  0.4431
  637MOL0     O83982   4.183  10.634   4.087 -0.5955  0.8623 -0.2343
  637MOL0     C83983   4.250  10.639   4.213  0.2446  0.4240  0.5132
  637MOL0     C83984   4.366  10.575   4.246  0.0840  0.3768  0.4160
  637MOL0     C83985   4.409  10.581   4.382 -0.7419 -0.6336  0.1015
  637MOL0     C83986   4.345  10.644   4.488  1.0047 -0.7941 -0.6597
  637MOL0     O83987   4.388  10.639   4.608 -0.4799  0.4640 -0.1944
  637MOL0     C83988   4.302  10.655   4.723 -0.8541 -0.1477  0.3456
  637MOL0     C83989   4.391  10.622   4.841  0.1411  0.5469 -0.6197
  637MOL0     C83990   4.440  10.469   4.844 -0.3875 -0.0380 -1.3525
  637MOL0     C83991   4.539  10.464   4.963  0.5670 -1.8376 -1.0390
  637MOL0     C83992   4.587  10.329   4.997 -0.4238 -0.4669  0.5092
  637MOL0     C83993   4.715  10.341   5.077 -0.0470 -0.3517  0.0386
  637MOL0     C83994   4.799  10.210   5.078 -0.2905  0.4966 -0.0313
  637MOL0     C83995   4.746  10.100   5.181 -0.7457  0.1994 -0.6490
  637MOL0    Cl83996   4.854   9.969   5.209  0.3215  0.2154  0.3959
  637MOL0     C83997   4.230  10.713   4.451 -0.4622  0.6756 -0.6309
  637MOL0     C83998   4.185  10.710   4.316  0.0576  0.4342  0.7791
  637MOL0     O83999   4.359  10.554   3.960 -0.3116  0.0650  0.0747
  637MOL0     C84000   4.022  10.562   3.865  0.3004 -0.7346 -0.2827
  637MOL0     C84001   3.939  10.524   3.759 -0.0297 -0.6580  1.1829
  637MOL0     N84002   3.947   9.820   3.407  1.0664 -0.3231  0.5100
  637MOL0     N84003   4.021   9.738   3.357 -0.8448 -0.2422 -0.7267
  637MOL0     C84004   3.876   9.340   3.244  0.3477 -0.5246  0.4313
  637MOL0     C84005   3.765   9.359   3.334  0.1101 -0.5998  0.4847
  637MOL0     C84006   3.408   9.144   3.556  0.7831  0.2566  0.7676
  637MOL0     C84007   3.294   9.063   3.558 -0.3034  0.1921 -0.3960
  637MOL0     C84008   3.217   9.066   3.673  0.6058  0.6689 -0.0147
  637MOL0     C84009   3.228   9.174   3.760  0.1107 -0.0777 -0.0520
  637MOL0     O84010   3.126   9.183   3.853  0.2635  0.5436 -0.2049
  637MOL0     C84011   3.125   9.288   3.955  0.3581 -0.7619  0.0471
  637MOL0     C84012   3.014   9.275   4.053 -0.6574 -0.0182 -0.0019
  637MOL0     C84013   3.049   9.353   4.188  0.4383 -0.2484 -0.6272
  637MOL0     C84014   3.112   9.268   4.301 -0.2960 -0.8318  0.3216
  637MOL0     C84015   3.027   9.162   4.334  1.0978 -0.7804  0.0511
  637MOL0     C84016   2.943   9.089   4.375 -0.2594  0.1257  0.9623
  637MOL0     C84017   3.326   9.274   3.747  0.1947 -1.1343  0.0658
  637MOL0     C84018   3.421   9.256   3.638 -0.0292 -0.4928 -0.2256
  637MOL0     H84019   3.586   9.105   3.181  1.9704 -2.5994 -1.4400
  637MOL0     H84020   3.763   9.109   3.031  1.7849 -0.6832  1.5253
  637MOL0     H84021   4.093   9.436   3.119 -1.5592 -2.3501  1.7171
  637MOL0     H84022   4.009   9.438   2.967 -1.7769 -0.7786  0.9314
  637MOL0     H84023   4.185   9.241   2.919  0.8554  1.5075  0.0434
  637MOL0     H84024   4.257   9.321   3.058  2.5494 -2.4808 -1.0719
  637MOL0     H84025   4.189   9.467   2.788  0.1128  2.1683 -0.1418
  637MOL0     H84026   4.346   9.411   2.812 -1.4445  2.0251 -3.1417
  637MOL0     H84027   4.355   9.632   2.851  1.7556 -1.9391  0.1068
  637MOL0     H84028   4.213   9.643   2.965 -2.3509 -1.3444 -2.6787
  637MOL0     H84029   4.479   9.508   3.019 -0.6345 -0.2608 -1.6898
  637MOL0     H84030   4.358   9.514   3.145  3.4079  0.0921  1.0810
  637MOL0     H84031   4.472   9.774   3.032  0.5375  0.3760  0.5431
  637MOL0     H84032   4.523   9.697   3.180 -1.8316 -0.1022  2.0184
  637MOL0     H84033   4.347   9.877   3.197 -0.9885  0.4593  3.7044
  637MOL0     H84034   4.233   9.776   3.115 -1.1037 -2.0103  1.6297
  637MOL0     H84035   4.339   9.706   3.393 -2.5999 -1.4036  2.2676
  637MOL0     H84036   4.219   9.620   3.275 -4.5684  2.0697 -1.3817
  637MOL0     H84037   4.235   9.961   3.490 -0.8244 -0.1102  0.5336
  637MOL0     H84038   4.016   9.999   3.662  1.1735 -2.2220 -1.0628
  637MOL0     H84039   3.858   9.926   3.617 -0.1341 -1.6292 -2.2140
  637MOL0     H84040   3.836  10.176   3.618  0.6972 -0.8864  1.7088
  637MOL0     H84041   3.815  10.105   3.453  1.2708 -0.3929 -1.1699
  637MOL0     H84042   4.073  10.210   3.549  0.7948 -0.4458  0.6795
  637MOL0     H84043   4.038  10.188   3.376  0.1789  0.4412 -0.7082
  637MOL0     H84044   3.844  10.336   3.385 -1.3294 -0.3191  0.0148
  637MOL0     H84045   4.000  10.407   3.385  0.2769 -2.2216 -1.7338
  637MOL0     H84046   4.159  10.403   3.543 -1.2235  1.2550 -0.3768
  637MOL0     H84047   4.318  10.480   3.748 -0.6045  0.4407  5.1118
  637MOL0     H84048   4.431  10.518   4.181  0.4986 -0.0159  1.1528
  637MOL0     H84049   4.509  10.548   4.408 -0.1247  1.5224  0.6302
  637MOL0     H84050   4.223  10.580   4.711  1.2226 -2.0781 -3.0047
  637MOL0     H84051   4.254  10.752   4.736  0.3584  0.4409  0.4801
  637MOL0     H84052   4.335  10.640   4.933 -2.8509 -1.2230 -1.9199
  637MOL0     H84053   4.477  10.688   4.829  0.2015  0.1923 -2.4508
  637MOL0     H84054   4.492  10.439   4.752  1.3567  2.9559 -1.5024
  637MOL0     H84055   4.355  10.405   4.869 -2.2126  3.4838  2.8228
  637MOL0     H84056   4.628  10.522   4.938  1.7552 -2.1219  2.0903
  637MOL0     H84057   4.494  10.514   5.049 -0.9342 -0.1751 -2.6969
  637MOL0     H84058   4.612  10.279   4.903 -0.7633  0.7833 -0.2611
  637MOL0     H84059   4.501  10.276   5.041 -1.7726  2.8470  2.1995
  637MOL0     H84060   4.684  10.369   5.178  2.8584  4.2184 -0.0255
  637MOL0     H84061   4.785  10.420   5.048 -0.1497  0.3867  1.6548
  637MOL0     H84062   4.809  10.150   4.987  1.1748 -0.9492  1.0146
  637MOL0     H84063   4.895  10.246   5.117 -0.7390 -1.1536  2.8317
  637MOL0     H84064   4.654  10.063   5.136  0.2594  0.4592 -3.1155
  637MOL0     H84065   4.738  10.160   5.272  0.2996  2.9066 -2.1849
  637MOL0     H84066   4.175  10.773   4.524 -1.0714 -3.3116  2.5510
  637MOL0     H84067   4.093  10.760   4.287  0.2801 -0.2692 -1.2491
  637MOL0     H84068   3.974  10.600   3.954 -0.6028 -1.6835 -0.3500
  637MOL0     H84069   3.833  10.535   3.776  0.4709  3.7236  2.7587
  637MOL0     H84070   3.968   9.396   3.255  1.0911 -0.9347 -2.6436
  637MOL0     H84071   3.757   9.437   3.408  2.4808  0.7378 -0.5631
  637MOL0     H84072   3.275   8.991   3.480 -1.6491  1.5407 -1.3798
  637MOL0     H84073   3.149   8.986   3.702  1.7644 -0.5612 -0.5534
  637MOL0     H84074   3.128   9.385   3.904 -3.6910 -1.4373 -1.8585
  637MOL0     H84075   3.220   9.275   4.008  0.7685 -1.3015 -0.7861
  637MOL0     H84076   2.926   9.315   4.001 -0.2122 -1.0995 -1.6694
  637MOL0     H84077   2.994   9.171   4.082 -4.2033  0.6234  0.2150
  637MOL0     H84078   2.956   9.402   4.218  1.9297  3.5392 -1.6971
  637MOL0     H84079   3.104   9.447   4.188  1.8202 -0.9933  1.0776
  637MOL0     H84080   3.209   9.225   4.273 -0.6664 -1.5914  0.1646
  637MOL0     H84081   3.113   9.329   4.391  2.3655 -0.1815 -0.0608
  637MOL0     H84082   2.857   9.026   4.387 -0.5582  0.0429 -1.2705
  637MOL0     H84083   3.335   9.371   3.795 -0.5569 -0.7439 -0.5523
  637MOL0     H84084   3.503   9.327   3.633 -0.3515 -0.1168 -0.2298
  638MOL0     O84085  10.320   0.731   3.622 -0.0424  0.8344  0.0743
  638MOL0     C84086  10.211   0.783   3.653 -1.4875 -1.3781  0.3189
  638MOL0     O84087  10.090   0.724   3.690 -0.6953  0.3120  0.5136
  638MOL0     C84088  10.072   0.591   3.690 -0.0051  0.0176  0.2828
  638MOL0     C84089   9.973   0.537   3.772  0.4316 -0.1055 -1.1521
  638MOL0     C84090   9.937   0.400   3.773  0.1582  0.1132  0.1583
  638MOL0     C84091  10.005   0.318   3.686 -0.1617  0.5525  0.6095
  638MOL0     O84092   9.988   0.181   3.701  0.4881 -0.1152 -0.0080
  638MOL0     C84093  10.015   0.083   3.597 -0.6546 -0.4879 -0.5622
  638MOL0     C84094   9.895   0.075   3.505  0.8461  0.9193  0.7637
  638MOL0     C84095   9.910  -0.046   3.424 -0.6186  0.8954  0.5352
  638MOL0     C84096   9.804  -0.051   3.307  0.3691  0.5910 -0.4105
  638MOL0     C84097   9.859  -0.169   3.218 -0.4489 -0.0473 -1.2444
  638MOL0     C84098   9.750  -0.221   3.123 -0.4695  0.2384 -0.2270
  638MOL0     C84099   9.769  -0.160   2.979  0.5352  0.4694 -0.0419
  638MOL0     C84100   9.874  -0.237   2.895  0.3342  0.0894  0.4358
  638MOL0     N84101   9.880  -0.196   2.751 -0.7925 -0.3393  0.7281
  638MOL0     C84102   9.878  -0.069   2.693  0.6344 -0.0124  0.8926
  638MOL0     C84103   9.931  -0.084   2.568  0.9581  0.8774 -0.4097
  638MOL0     C84104   9.936   0.019   2.458 -0.0770 -0.4407  0.8518
  638MOL0     C84105  10.056  -0.008   2.362  0.1032  1.0928  0.0118
  638MOL0     C84106  10.054   0.075   2.235  0.4993  0.1461 -0.2787
  638MOL0     C84107  10.072   0.218   2.262 -0.1836 -0.5990 -0.2947
  638MOL0     O84108   9.968   0.273   2.350 -0.2055  0.0989  0.5130
  638MOL0     C84109   9.990   0.379   2.438  0.3166  0.3000  0.6977
  638MOL0     C84110  10.106   0.457   2.436 -0.0921 -0.4043  0.0897
  638MOL0     C84111  10.126   0.551   2.546  0.3138  0.0954  0.7603
  638MOL0     C84112  10.022   0.586   2.631  0.2143 -0.6892  0.4784
  638MOL0     C84113  10.037   0.697   2.727 -0.3686  0.9422  0.3014
  638MOL0     O84114   9.941   0.705   2.818 -0.3767  0.8231 -0.5807
  638MOL0     C84115   9.966   0.785   2.928 -1.4077  0.0491  0.2524
  638MOL0     C84116   9.956   0.923   2.926 -0.3476  0.2697  0.3675
  638MOL0     C84117   9.980   0.995   3.041  1.2988 -0.5539 -0.0680
  638MOL0     C84118  10.017   0.939   3.168 -0.6911  0.2267  1.1366
  638MOL0     O84119  10.036   1.007   3.286 -0.2052 -0.9188 -0.5858
  638MOL0     C84120  10.074   1.151   3.267 -0.1565  0.0651 -0.2058
  638MOL0     C84121  10.205   1.164   3.179 -0.2374 -0.6093  0.4854
  638MOL0     C84122  10.312   1.052   3.189 -0.7676 -0.2641  0.2982
  638MOL0     C84123  10.413   1.063   3.072  1.1517 -0.8557  0.2238
  638MOL0     C84124  10.358   1.026   2.932  0.6651 -0.2248 -0.5632
  638MOL0     C84125  10.451   1.053   2.822  0.0164 -0.2312  0.3915
  638MOL0     C84126  10.568   0.961   2.806 -0.6446 -1.4108  0.5318
  638MOL0     C84127  10.518   0.819   2.773 -0.1098 -0.4363  0.7921
  638MOL0    Cl84128  10.669   0.719   2.765  0.2514  0.3866  0.1788
  638MOL0     C84129  10.029   0.798   3.165 -0.4521 -1.0138  0.8817
  638MOL0     C84130   9.999   0.721   3.047  0.7721  0.2983  0.0634
  638MOL0     O84131  10.131   0.771   2.717  0.2915 -0.0302  1.4131
  638MOL0     C84132   9.897   0.509   2.622  0.4007 -0.7151 -0.4008
  638MOL0     C84133   9.880   0.414   2.525 -1.5404  0.8705  0.2099
  638MOL0     N84134   9.961  -0.217   2.555  0.1000  0.1137  0.6604
  638MOL0     N84135   9.929  -0.288   2.655  0.1147  0.1104  0.3118
  638MOL0     C84136  10.088   0.368   3.590 -0.3380 -0.7784 -0.4782
  638MOL0     C84137  10.121   0.506   3.592 -0.3705 -0.1254 -0.2615
  638MOL0     C84138  10.206   0.933   3.655  0.3110  1.1042 -0.4325
  638MOL0     C84139  10.296   0.996   3.583 -0.5964  0.2230  1.2683
  638MOL0     C84140  10.320   1.138   3.600 -0.8267  1.5351 -0.5257
  638MOL0     C84141  10.232   1.207   3.693 -1.2945 -0.2328 -0.9595
  638MOL0     O84142  10.253   1.344   3.716 -0.1836  0.2065 -0.0604
  638MOL0     C84143  10.232   1.402   3.854 -0.5307  0.3307  0.8975
  638MOL0     C84144  10.338   1.504   3.879  0.7114 -0.0967 -0.7070
  638MOL0     C84145  10.339   1.617   3.773 -0.0643 -0.0252  0.0802
  638MOL0     C84146  10.427   1.726   3.822  0.2072  0.3355  0.3217
  638MOL0     C84147  10.385   1.808   3.933 -0.0573 -0.0576  0.0535
  638MOL0     C84148  10.364   1.892   4.015 -0.0432  0.1956 -0.2679
  638MOL0     C84149  10.134   1.132   3.755 -0.6171 -0.4883 -0.6749
  638MOL0     C84150  10.127   0.994   3.745  0.9741 -0.1080 -1.1492
  638MOL0     H84151   9.925   0.617   3.827  0.0733 -0.6827 -0.6188
  638MOL0     H84152   9.866   0.359   3.844 -3.4921  0.7527 -2.8099
  638MOL0     H84153  10.034  -0.010   3.651  1.1725  0.0651 -0.1909
  638MOL0     H84154  10.107   0.111   3.545 -1.2772  2.4326 -0.2529
  638MOL0     H84155   9.875   0.159   3.438  0.1537 -1.0696 -1.6864
  638MOL0     H84156   9.799   0.063   3.556  0.0918 -1.9990 -1.1153
  638MOL0     H84157   9.904  -0.136   3.485  4.7174 -0.4494 -0.4129
  638MOL0     H84158  10.010  -0.048   3.381 -0.5616 -2.5154  0.6094
  638MOL0     H84159   9.715  -0.079   3.364  1.4968  1.8276  2.0965
  638MOL0     H84160   9.786   0.035   3.241  0.7922  0.9407 -0.0679
  638MOL0     H84161   9.877  -0.253   3.287 -1.7523 -1.7185 -2.8209
  638MOL0     H84162   9.953  -0.138   3.173  0.9371  0.5154  1.7996
  638MOL0     H84163   9.654  -0.197   3.170 -0.7749 -4.5463  2.1935
  638MOL0     H84164   9.748  -0.330   3.116  0.7953  0.2118 -0.3029
  638MOL0     H84165   9.675  -0.156   2.923  0.3160 -4.9654 -0.6429
  638MOL0     H84166   9.799  -0.056   2.992 -2.8936  1.8027 -1.6828
  638MOL0     H84167   9.868  -0.346   2.902  1.4955  0.0907  2.0715
  638MOL0     H84168   9.969  -0.203   2.938  1.2859  2.2485 -3.0010
  638MOL0     H84169   9.835   0.021   2.737  0.7058 -0.1500  1.2455
  638MOL0     H84170   9.949   0.115   2.509 -0.5350 -0.2233  0.5681
  638MOL0     H84171   9.849   0.001   2.394  0.9366 -2.6368  0.0038
  638MOL0     H84172  10.053  -0.115   2.342  0.6870  0.9627  0.5812
  638MOL0     H84173  10.156  -0.007   2.406  0.1322 -1.8475  0.2070
  638MOL0     H84174  10.133   0.039   2.170 -1.2223 -3.6608 -0.5145
  638MOL0     H84175   9.952   0.064   2.195 -1.6557 -0.9972  4.7490
  638MOL0     H84176  10.077   0.261   2.161 -0.0734 -0.8362 -0.3895
  638MOL0     H84177  10.163   0.240   2.319 -1.4325  1.8418  0.8879
  638MOL0     H84178  10.183   0.450   2.361 -0.3960 -1.0131 -0.1702
  638MOL0     H84179  10.211   0.616   2.564 -1.2355  2.1407  1.0878
  638MOL0     H84180   9.925   0.974   2.836 -0.3612  0.3186  0.3999
  638MOL0     H84181   9.973   1.103   3.029 -2.3952 -0.7337 -0.5030
  638MOL0     H84182  10.092   1.193   3.366  2.0289 -0.4108 -0.3376
  638MOL0     H84183   9.991   1.207   3.223  0.5916  1.4585  0.0986
  638MOL0     H84184  10.253   1.262   3.184  1.8048 -1.5159 -0.2656
  638MOL0     H84185  10.171   1.171   3.075  0.5908  0.4134  0.2736
  638MOL0     H84186  10.264   0.954   3.197 -1.0882  0.0205  2.1108
  638MOL0     H84187  10.370   1.065   3.281  0.9287 -0.8347 -0.6365
  638MOL0     H84188  10.450   1.165   3.061  0.1449 -0.5568 -0.5384
  638MOL0     H84189  10.505   1.007   3.090  1.1763 -0.7697  0.3684
  638MOL0     H84190  10.272   1.091   2.913  1.7447  1.6200  0.5900
  638MOL0     H84191  10.328   0.922   2.916 -0.0314  0.2758 -3.0067
  638MOL0     H84192  10.493   1.154   2.832  1.0898 -0.6235  0.0129
  638MOL0     H84193  10.394   1.036   2.731  1.4252 -0.9009 -0.3969
  638MOL0     H84194  10.633   0.990   2.723 -0.6632 -1.4257  0.5123
  638MOL0     H84195  10.636   0.966   2.891  0.8350  1.3120 -0.6850
  638MOL0     H84196  10.470   0.815   2.675 -0.3242  0.0008  0.8789
  638MOL0     H84197  10.449   0.786   2.851  0.3628 -0.6630  1.1209
  638MOL0     H84198  10.059   0.736   3.249 -0.3487 -1.9768  0.1647
  638MOL0     H84199   9.995   0.612   3.046 -1.3469  0.2743  2.2433
  638MOL0     H84200   9.824   0.552   2.690  1.9450  1.8490 -0.1928
  638MOL0     H84201   9.787   0.360   2.511 -1.2675  0.3782  0.2574
  638MOL0     H84202  10.147   0.302   3.526 -0.3425 -1.7862  0.5349
  638MOL0     H84203  10.196   0.545   3.524 -1.1475 -0.6014 -1.4133
  638MOL0     H84204  10.362   0.945   3.513 -0.9225  0.8130  0.5180
  638MOL0     H84205  10.384   1.195   3.534 -0.5612 -0.1535 -1.7986
  638MOL0     H84206  10.238   1.318   3.924  1.9524 -2.0530 -1.9100
  638MOL0     H84207  10.131   1.445   3.851 -0.9315 -0.6011  0.3913
  638MOL0     H84208  10.316   1.546   3.978 -1.0881  1.4036 -1.6658
  638MOL0     H84209  10.439   1.465   3.891  0.7143  0.6607  2.6523
  638MOL0     H84210  10.238   1.658   3.770  0.0928  0.4733  1.0861
  638MOL0     H84211  10.359   1.578   3.673 -1.0777 -1.7398  0.5059
  638MOL0     H84212  10.527   1.684   3.841  0.0985 -0.1817 -0.2088
  638MOL0     H84213  10.443   1.789   3.735 -2.1518 -1.8095 -1.8293
  638MOL0     H84214  10.356   1.963   4.094 -0.4231 -0.9263  0.7265
  638MOL0     H84215  10.067   1.177   3.828  0.8092  0.2711  0.2209
  638MOL0     H84216  10.062   0.943   3.815  0.2314  0.7703 -1.1705
  639MOL0     O84217   4.283   5.773  11.100  0.7099 -0.4395 -0.3959
  639MOL0     C84218   4.331   5.697  11.024  0.6286  0.5141 -0.3201
  639MOL0     O84219   4.283   5.569  11.005 -0.6824  0.1839 -0.6541
  639MOL0     C84220   4.156   5.542  11.031 -0.6316  0.6889 -0.4840
  639MOL0     C84221   4.054   5.608  10.966 -0.7625  0.3978  0.2626
  639MOL0     C84222   3.929   5.587  11.017  0.7866  0.5669 -0.0846
  639MOL0     C84223   3.896   5.482  11.111 -0.4494  0.0153 -0.1511
  639MOL0     O84224   3.779   5.465  11.181 -0.3948 -0.0156  0.4862
  639MOL0     C84225   3.672   5.563  11.162  0.2306  0.3557 -0.2760
  639MOL0     C84226   3.528   5.526  11.215  0.0447  0.7125 -1.0342
  639MOL0     C84227   3.434   5.633  11.162 -0.4310 -0.3304 -0.8778
  639MOL0     C84228   3.400   5.616  11.016  0.1994 -0.0317 -0.8173
  639MOL0     C84229   3.277   5.686  10.960  0.1331 -1.4281  0.1035
  639MOL0     C84230   3.277   5.835  10.984  0.0548  0.2016 -0.2575
  639MOL0     C84231   3.396   5.909  10.917 -0.5551 -0.1723  0.2432
  639MOL0     C84232   3.413   6.052  10.955  0.2498 -0.3004 -0.0780
  639MOL0     N84233   3.513   6.072  11.066 -0.1659 -0.1610  0.0967
  639MOL0     C84234   3.647   6.058  11.055 -0.8108 -0.4046 -0.1378
  639MOL0     C84235   3.699   6.060  11.180 -0.1201 -0.7188  0.0803
  639MOL0     C84236   3.849   6.056  11.211 -0.4958 -0.1310 -0.0925
  639MOL0     C84237   3.884   5.966  11.323 -0.1261  0.2026  0.1233
  639MOL0     C84238   4.028   5.953  11.362 -0.3643 -0.6373  0.5715
  639MOL0     C84239   4.130   6.070  11.353  0.8983 -0.1986  0.2734
  639MOL0     O84240   4.115   6.130  11.477  0.6219 -0.3512  0.1412
  639MOL0     C84241   4.203   6.223  11.521  0.3517 -1.3701  0.3901
  639MOL0     C84242   4.265   6.320  11.440  0.1195 -0.7622 -0.1177
  639MOL0     C84243   4.375   6.403  11.476 -0.2189 -0.7794 -0.0282
  639MOL0     C84244   4.418   6.403  11.606  0.1492  0.3986 -0.0358
  639MOL0     C84245   4.522   6.497  11.657  0.7637  0.0025 -0.7065
  639MOL0     O84246   4.518   6.536  11.787 -0.2728  0.4774  0.3723
  639MOL0     C84247   4.619   6.589  11.865 -0.5106 -0.1125  0.3723
  639MOL0     C84248   4.601   6.585  12.008 -0.1853 -0.6482  0.4420
  639MOL0     C84249   4.715   6.612  12.091  0.4444 -0.6049 -0.1069
  639MOL0     C84250   4.838   6.658  12.038 -0.7815  0.4356  0.1121
  639MOL0     O84251   4.949   6.695  12.126 -1.4454  0.5813 -0.2155
  639MOL0     C84252   5.034   6.803  12.090 -0.6078 -0.1309  0.3396
  639MOL0     C84253   5.105   6.862  12.211  0.2083  0.2780  0.4211
  639MOL0     C84254   5.205   6.763  12.278  0.3776 -0.2337 -0.7903
  639MOL0     C84255   5.318   6.833  12.355 -0.1363  0.1266 -0.2598
  639MOL0     C84256   5.446   6.741  12.379 -0.8383 -0.2197  0.3173
  639MOL0     C84257   5.410   6.610  12.449 -0.3533 -0.6616  0.3245
  639MOL0     C84258   5.522   6.545  12.527  1.2785  1.2238 -0.3705
  639MOL0     C84259   5.634   6.516  12.428  0.0583 -0.6472  0.3259
  639MOL0    Cl84260   5.739   6.384  12.474 -0.2043 -0.4382  0.0158
  639MOL0     C84261   4.842   6.677  11.906 -0.2138  0.1251  0.3866
  639MOL0     C84262   4.731   6.647  11.818 -0.0762  0.3524  0.3849
  639MOL0     O84263   4.610   6.526  11.581 -0.0164 -0.0390  0.0623
  639MOL0     C84264   4.347   6.315  11.698  0.4913  0.4896  1.3360
  639MOL0     C84265   4.245   6.222  11.660 -0.9196  0.0385 -0.0872
  639MOL0     N84266   3.602   6.075  11.264  0.3454 -0.3689  0.7063
  639MOL0     N84267   3.489   6.077  11.196  0.2033 -1.2847  0.2517
  639MOL0     C84268   4.004   5.401  11.142 -0.8995  0.6138 -0.3570
  639MOL0     C84269   4.133   5.433  11.112  1.3002  0.1431  0.5066
  639MOL0     C84270   4.469   5.723  10.963  0.3138 -0.8597  1.0180
  639MOL0     C84271   4.525   5.845  10.919 -0.1226 -0.0374 -0.1722
  639MOL0     C84272   4.655   5.857  10.871  0.3867 -0.5403 -0.1572
  639MOL0     C84273   4.737   5.749  10.858  0.0109  0.0982  0.7498
  639MOL0     O84274   4.863   5.785  10.813 -0.6734 -0.7563  0.7062
  639MOL0     C84275   4.915   5.690  10.716 -0.1166  0.1881 -0.3870
  639MOL0     C84276   4.847   5.685  10.585 -0.9081  0.9895  0.1025
  639MOL0     C84277   4.904   5.581  10.490  0.2153 -0.1004  0.2363
  639MOL0     C84278   4.834   5.452  10.496  1.3938  0.5813  0.2753
  639MOL0     C84279   4.700   5.456  10.443 -0.0091 -0.7685 -0.2844
  639MOL0     C84280   4.585   5.485  10.401 -0.1735  0.3078  0.3279
  639MOL0     C84281   4.684   5.620  10.897 -0.2820  0.2522  0.2975
  639MOL0     C84282   4.555   5.613  10.953  0.2762 -0.7201 -1.5744
  639MOL0     H84283   4.076   5.691  10.900 -1.5797 -0.5328 -1.2383
  639MOL0     H84284   3.865   5.664  10.977  2.0603  1.6703 -0.0724
  639MOL0     H84285   3.662   5.573  11.053  0.6191  0.3119 -0.3158
  639MOL0     H84286   3.697   5.662  11.202 -1.1296  1.4201 -1.9019
  639MOL0     H84287   3.508   5.528  11.323 -2.0710  1.7744 -1.3831
  639MOL0     H84288   3.506   5.423  11.185  1.3172 -0.5288  1.9107
  639MOL0     H84289   3.476   5.732  11.182  3.1578 -1.7818 -0.3320
  639MOL0     H84290   3.344   5.646  11.222  2.2884  2.6997  3.0169
  639MOL0     H84291   3.490   5.648  10.963 -0.7789  0.4259 -2.2230
  639MOL0     H84292   3.385   5.508  11.002 -0.0631 -0.2173  0.7085
  639MOL0     H84293   3.191   5.640  11.009  0.5677 -1.6989  0.6170
  639MOL0     H84294   3.283   5.679  10.851  2.4459  1.2981 -0.0571
  639MOL0     H84295   3.276   5.871  11.088  1.2004 -2.6026  0.8245
  639MOL0     H84296   3.184   5.867  10.936  0.3247 -1.1380 -1.7316
  639MOL0     H84297   3.493   5.859  10.931 -1.1191 -1.3648  0.0007
  639MOL0     H84298   3.375   5.903  10.810  0.1682 -1.7151  0.1525
  639MOL0     H84299   3.317   6.101  10.971 -0.4605 -0.5357 -2.9821
  639MOL0     H84300   3.447   6.106  10.866  0.7800 -3.1347 -1.7203
  639MOL0     H84301   3.697   6.049  10.959  2.1094  3.8586  0.7060
  639MOL0     H84302   3.888   6.157  11.227  1.8235 -1.3304  2.7104
  639MOL0     H84303   3.905   6.019  11.124 -0.5394  3.1222 -1.6449
  639MOL0     H84304   3.849   5.863  11.312 -2.4312  0.7132  1.7638
  639MOL0     H84305   3.834   6.006  11.412  0.5447 -1.3842  1.2504
  639MOL0     H84306   4.025   5.919  11.466  1.2140  0.1540  0.9004
  639MOL0     H84307   4.071   5.864  11.315 -1.2758 -0.4860 -0.6001
  639MOL0     H84308   4.095   6.134  11.272 -4.7192  2.0822  3.8440
  639MOL0     H84309   4.230   6.029  11.340 -0.0406 -1.9045 -2.1904
  639MOL0     H84310   4.236   6.311  11.336 -2.2617  2.2301  0.1312
  639MOL0     H84311   4.420   6.470  11.403 -2.9342  0.5530 -0.5996
  639MOL0     H84312   4.508   6.565  12.060 -0.0435  1.6792  1.6857
  639MOL0     H84313   4.708   6.595  12.198 -1.7230  0.1813 -0.0725
  639MOL0     H84314   4.984   6.896  12.061  3.0410  1.8593 -0.0909
  639MOL0     H84315   5.102   6.777  12.009  1.0174 -0.9723  1.8977
  639MOL0     H84316   5.030   6.880  12.289 -3.5918 -2.3365 -2.2439
  639MOL0     H84317   5.156   6.955  12.185  0.8887 -0.1602  0.1707
  639MOL0     H84318   5.248   6.683  12.217  0.1901 -2.9574  2.3689
  639MOL0     H84319   5.149   6.706  12.353 -1.2994  0.8369 -1.1756
  639MOL0     H84320   5.341   6.928  12.308  0.3323  1.4112  2.3647
  639MOL0     H84321   5.285   6.862  12.456  1.8954  1.8582 -0.0451
  639MOL0     H84322   5.516   6.797  12.443 -0.3396  2.9937 -2.7495
  639MOL0     H84323   5.497   6.717  12.285  1.2719 -3.7374  2.1398
  639MOL0     H84324   5.368   6.539  12.377 -1.1462 -1.9271  1.9703
  639MOL0     H84325   5.342   6.651  12.524  3.3285  3.9788  1.5753
  639MOL0     H84326   5.547   6.603  12.617 -1.5125 -2.8977  3.4909
  639MOL0     H84327   5.491   6.450  12.570  1.3056  1.2188 -0.3628
  639MOL0     H84328   5.686   6.606  12.393  2.2493 -2.0781 -0.3686
  639MOL0     H84329   5.593   6.480  12.333  2.5158  2.0195 -1.9304
  639MOL0     H84330   4.941   6.702  11.870 -0.3846  0.9346  0.4779
  639MOL0     H84331   4.752   6.643  11.712  0.1587 -2.4015  0.4565
  639MOL0     H84332   4.371   6.316  11.804  2.3870 -2.6549  1.0492
  639MOL0     H84333   4.204   6.164  11.742 -2.0099  2.2101  1.0069
  639MOL0     H84334   3.988   5.319  11.211 -1.6758  2.1942  1.4472
  639MOL0     H84335   4.224   5.392  11.155  0.7900 -0.8199  0.6948
  639MOL0     H84336   4.484   5.945  10.930 -0.2759 -0.2661  1.5926
  639MOL0     H84337   4.692   5.954  10.840 -0.8576  1.0247  2.8546
  639MOL0     H84338   4.916   5.586  10.751  1.6096  0.0906 -0.6353
  639MOL0     H84339   5.020   5.710  10.695  0.7704 -0.3741  2.9418
  639MOL0     H84340   4.741   5.657  10.596 -0.7560  0.3885  0.0951
  639MOL0     H84341   4.839   5.781  10.534 -2.2028  1.7427  1.6214
  639MOL0     H84342   5.009   5.563  10.514 -0.5519  0.9047  5.9111
  639MOL0     H84343   4.905   5.614  10.386 -0.8500 -3.4604 -0.9981
  639MOL0     H84344   4.893   5.377  10.442  3.3149  0.1547  2.7690
  639MOL0     H84345   4.836   5.421  10.601 -1.1959 -3.2051 -0.5700
  639MOL0     H84346   4.481   5.491  10.379 -0.0561  1.3437  0.0286
  639MOL0     H84347   4.743   5.529  10.888 -1.0085 -0.1877 -0.1008
  639MOL0     H84348   4.527   5.512  10.980  0.8190  0.0683  2.6084
  640MOL0     O84349  10.759   4.955   4.804  0.0056  0.6980  0.1511
  640MOL0     C84350  10.695   5.052   4.846 -0.5806 -0.0675  0.1608
  640MOL0     O84351  10.748   5.174   4.889 -0.4350  0.0134 -0.1158
  640MOL0     C84352  10.879   5.199   4.903  0.5872 -0.1692  1.1164
  640MOL0     C84353  10.986   5.118   4.850  0.3948  0.1055  0.2432
  640MOL0     C84354  11.121   5.169   4.858  0.3815 -0.0321  0.7443
  640MOL0     C84355  11.147   5.305   4.894  0.5820  0.3075  0.0044
  640MOL0     O84356  11.281   5.352   4.881  0.3179  0.6447 -0.8053
  640MOL0     C84357  11.293   5.421   4.760 -0.4379 -0.0249  0.5160
  640MOL0     C84358  11.401   5.380   4.668 -0.6217 -0.1492  0.2519
  640MOL0     C84359  11.405   5.472   4.540 -0.0199  0.0742 -0.3929
  640MOL0     C84360  11.498   5.592   4.554  0.1483  0.4849  0.5356
  640MOL0     C84361  11.547   5.660   4.422 -0.1522  0.0845 -0.0987
  640MOL0     C84362  11.612   5.575   4.312 -0.3998 -0.2230  0.8815
  640MOL0     C84363  11.722   5.475   4.366  0.6696 -0.4492  0.1512
  640MOL0     C84364  11.770   5.365   4.258  0.0857  0.4784 -0.1834
  640MOL0     N84365  11.825   5.437   4.140  0.1441 -0.8720 -0.2996
  640MOL0     C84366  11.954   5.441   4.102 -1.4000  0.1659 -0.1158
  640MOL0     C84367  11.942   5.503   3.979 -0.6165 -0.0852 -0.6764
  640MOL0     C84368  12.048   5.519   3.875 -0.5633  0.1748  0.5133
  640MOL0     C84369  12.172   5.616   3.909  0.5116 -0.0939 -0.0474
  640MOL0     C84370  12.198   5.697   3.785  0.7116  0.0337 -0.7254
  640MOL0     C84371  12.258   5.827   3.829 -0.5370 -0.4390 -1.2400
  640MOL0     O84372  12.393   5.803   3.891  0.1276 -0.5056 -0.6339
  640MOL0     C84373  12.487   5.789   3.801  0.2674 -0.4960 -0.0599
  640MOL0     C84374  12.548   5.668   3.774  0.0308 -0.5009  0.0501
  640MOL0     C84375  12.648   5.648   3.673 -0.5088 -0.5890  0.7764
  640MOL0     C84376  12.689   5.762   3.604 -0.2862 -0.1584  0.5870
  640MOL0     C84377  12.791   5.752   3.493 -0.6315  0.7630 -0.4810
  640MOL0     O84378  12.812   5.863   3.415 -0.4246 -0.1906  0.2068
  640MOL0     C84379  12.904   5.855   3.312 -0.1847  0.0516 -1.4075
  640MOL0     C84380  12.903   5.765   3.210  0.2146 -0.0476  0.4195
  640MOL0     C84381  12.987   5.777   3.097 -0.5943 -0.1107  0.8209
  640MOL0     C84382  13.066   5.896   3.083  0.4654  0.0725 -0.3197
  640MOL0     O84383  13.134   5.927   2.969  0.1359  1.4841 -0.0426
  640MOL0     C84384  13.205   5.815   2.911  0.3413  0.6441  0.4464
  640MOL0     C84385  13.268   5.840   2.774 -0.2342  0.6049 -0.0120
  640MOL0     C84386  13.354   5.962   2.763 -0.5571  1.0611 -0.0304
  640MOL0     C84387  13.504   5.923   2.781  0.0453 -1.0807  0.1482
  640MOL0     C84388  13.558   5.941   2.928 -0.6814  0.8632  0.4649
  640MOL0     C84389  13.711   5.943   2.933 -0.7323 -0.4692  0.6784
  640MOL0     C84390  13.759   5.995   3.074  0.3613 -0.6463 -0.0533
  640MOL0     C84391  13.912   5.985   3.090 -0.2044  0.4386 -0.7248
  640MOL0    Cl84392  14.007   6.109   3.008  0.2643 -0.8663 -0.2867
  640MOL0     C84393  13.063   5.990   3.186 -1.0199 -0.4938 -0.4854
  640MOL0     C84394  12.990   5.968   3.308 -0.6659 -0.2782  0.7896
  640MOL0     O84395  12.842   5.642   3.474 -0.4698  0.1192  0.8289
  640MOL0     C84396  12.629   5.883   3.636 -1.2877 -0.8240 -0.4733
  640MOL0     C84397  12.538   5.903   3.736  0.5364 -0.8546  0.1615
  640MOL0     N84398  11.813   5.522   3.943 -0.1362 -0.7882  0.3535
  640MOL0     N84399  11.743   5.484   4.042 -0.0087  0.5009 -0.5154
  640MOL0     C84400  11.042   5.382   4.944  0.4224  0.0699  0.0301
  640MOL0     C84401  10.911   5.332   4.951  0.3791 -0.2879 -0.3294
  640MOL0     C84402  10.549   5.029   4.859  1.0824  0.6453  1.9542
  640MOL0     C84403  10.501   4.892   4.856  0.3474 -0.8358  0.4154
  640MOL0     C84404  10.366   4.886   4.859 -0.3070 -0.0391  0.3572
  640MOL0     C84405  10.283   5.000   4.850  1.0039  0.6027 -0.1079
  640MOL0     O84406  10.149   4.970   4.850  0.2522 -0.0075  0.1580
  640MOL0     C84407  10.066   5.071   4.780 -0.6925 -0.4657  0.3411
  640MOL0     C84408   9.946   5.014   4.725  0.8788 -0.9209 -1.1021
  640MOL0     C84409   9.975   4.873   4.660 -0.0602 -0.1480  0.3393
  640MOL0     C84410  10.019   4.885   4.514  0.7235  1.2042  0.3014
  640MOL0     C84411  10.155   4.905   4.489 -0.5825  0.3677  0.5415
  640MOL0     C84412  10.274   4.915   4.464  0.2167 -1.3480  0.1859
  640MOL0     C84413  10.332   5.124   4.845  0.2174 -0.6406 -1.3508
  640MOL0     C84414  10.469   5.145   4.857  1.1314  0.6150 -0.7322
  640MOL0     H84415  10.977   5.025   4.793  1.9304  1.4074 -2.2946
  640MOL0     H84416  11.204   5.103   4.834  0.6711  0.8315 -0.7668
  640MOL0     H84417  11.299   5.529   4.774 -0.6779  0.2740 -1.4079
  640MOL0     H84418  11.197   5.423   4.708  0.3622 -2.2118 -1.2040
  640MOL0     H84419  11.392   5.276   4.636 -0.5136 -0.6579  1.7791
  640MOL0     H84420  11.497   5.379   4.721 -1.3210 -0.7637  1.5619
  640MOL0     H84421  11.302   5.504   4.518 -0.4374  0.4831  1.9107
  640MOL0     H84422  11.437   5.409   4.456 -0.4122  1.6489 -1.7762
  640MOL0     H84423  11.442   5.666   4.611 -1.4623 -0.4173  0.2062
  640MOL0     H84424  11.585   5.563   4.613 -2.1896 -0.8158  3.6430
  640MOL0     H84425  11.628   5.729   4.448 -0.8225  1.2130 -0.9425
  640MOL0     H84426  11.460   5.715   4.385  0.1364  1.4592  1.1594
  640MOL0     H84427  11.650   5.635   4.228 -1.0063 -1.8248 -0.6126
  640MOL0     H84428  11.525   5.522   4.269  1.1330 -0.2024 -2.6024
  640MOL0     H84429  11.806   5.530   4.409  1.2130 -0.9761 -0.2274
  640MOL0     H84430  11.687   5.408   4.446  2.7671 -0.1035  1.4157
  640MOL0     H84431  11.682   5.305   4.234  1.6378 -1.9279 -0.1484
  640MOL0     H84432  11.841   5.290   4.294 -1.7562 -1.4280 -0.3774
  640MOL0     H84433  12.043   5.433   4.164 -0.7294  2.1827 -0.7462
  640MOL0     H84434  11.997   5.547   3.783  0.4579  1.8020  0.4166
  640MOL0     H84435  12.088   5.417   3.865  2.0323  1.2322 -0.8912
  640MOL0     H84436  12.254   5.551   3.941  0.4611  0.4221  1.2182
  640MOL0     H84437  12.151   5.679   3.996  0.4277  0.9695 -0.8101
  640MOL0     H84438  12.254   5.641   3.709 -1.4346 -0.8085 -1.7767
  640MOL0     H84439  12.103   5.727   3.742 -0.6681 -3.9022 -0.8646
  640MOL0     H84440  12.194   5.873   3.905 -0.3894 -0.9303 -0.8093
  640MOL0     H84441  12.260   5.884   3.736  0.1574  0.8946 -0.4358
  640MOL0     H84442  12.508   5.576   3.816 -0.8680 -0.3401 -0.4466
  640MOL0     H84443  12.676   5.548   3.640 -0.9757  0.2479 -2.4793
  640MOL0     H84444  12.846   5.674   3.220  0.1990 -0.1379 -0.4811
  640MOL0     H84445  12.974   5.699   3.022  0.3423 -0.5307  1.0693
  640MOL0     H84446  13.135   5.733   2.892  4.0417 -1.9260 -4.3225
  640MOL0     H84447  13.285   5.789   2.982  1.5062 -1.9303 -1.6370
  640MOL0     H84448  13.182   5.855   2.708  0.4279  0.6530 -0.8870
  640MOL0     H84449  13.331   5.753   2.754 -0.5487  0.0541  1.2775
  640MOL0     H84450  13.320   6.042   2.829  3.9866  2.7379  0.6772
  640MOL0     H84451  13.342   6.003   2.662 -0.0871  2.6024  0.5100
  640MOL0     H84452  13.532   5.825   2.742 -1.2781 -2.1380  1.7138
  640MOL0     H84453  13.555   5.993   2.715 -1.2472 -0.1842  0.0556
  640MOL0     H84454  13.524   5.866   3.000  3.6208  1.6632  3.7852
  640MOL0     H84455  13.522   6.035   2.971 -0.4473  0.1634  2.2904
  640MOL0     H84456  13.748   6.005   2.850  0.8421  0.3885  1.9730
  640MOL0     H84457  13.761   5.848   2.916  0.3219  0.2516 -0.4068
  640MOL0     H84458  13.720   6.096   3.086 -0.9159 -1.0189 -0.9192
  640MOL0     H84459  13.712   5.927   3.146  1.7040 -2.7536 -1.0515
  640MOL0     H84460  13.938   5.888   3.045 -0.4246  0.1867 -0.3227
  640MOL0     H84461  13.927   5.988   3.198 -1.9968  1.3048 -0.4668
  640MOL0     H84462  13.127   6.078   3.184 -1.0228 -0.4978 -1.6063
  640MOL0     H84463  13.002   6.040   3.389  0.0111  1.0809 -0.4514
  640MOL0     H84464  12.642   5.962   3.563 -2.7674  0.4745  0.6038
  640MOL0     H84465  12.498   6.001   3.759  1.0095 -1.2915  3.3175
  640MOL0     H84466  11.057   5.483   4.981  0.2039 -0.0090  0.3385
  640MOL0     H84467  10.827   5.388   4.992 -0.6850 -2.9704  1.4647
  640MOL0     H84468  10.563   4.804   4.842  0.7625 -0.3972 -0.5988
  640MOL0     H84469  10.317   4.790   4.848 -0.4260  0.0477  0.1123
  640MOL0     H84470  10.127   5.108   4.696  0.6773 -0.5556  1.2632
  640MOL0     H84471  10.036   5.157   4.841 -1.2978 -0.8088  0.5289
  640MOL0     H84472   9.873   5.008   4.806 -0.2818 -2.0136 -2.1737
  640MOL0     H84473   9.897   5.089   4.661  2.9764  3.1152  1.6240
  640MOL0     H84474   9.882   4.816   4.656 -0.0995 -0.0004 -1.2317
  640MOL0     H84475  10.056   4.823   4.715 -0.7805 -0.4965  1.0960
  640MOL0     H84476   9.990   4.789   4.470 -1.4508  0.4603  3.0509
  640MOL0     H84477   9.972   4.974   4.471  2.3131  0.8137 -2.4305
  640MOL0     H84478  10.379   4.907   4.442  0.1079 -1.7372 -0.2007
  640MOL0     H84479  10.268   5.211   4.858  1.4153 -0.0565  1.7083
  640MOL0     H84480  10.508   5.245   4.876 -4.3089  2.6763  1.8311
  641MOL0     O84481   8.155   8.348   3.801 -0.5352 -0.0988  0.7512
  641MOL0     C84482   8.164   8.405   3.913  0.5680  0.3250 -0.6701
  641MOL0     O84483   8.229   8.341   4.025 -0.4546 -0.1519 -0.2277
  641MOL0     C84484   8.265   8.207   4.011 -0.2920 -0.2258  0.9262
  641MOL0     C84485   8.390   8.159   4.014  1.2379  0.3362 -0.1324
  641MOL0     C84486   8.418   8.021   4.009  0.0331  0.6135 -1.4408
  641MOL0     C84487   8.315   7.931   4.001  0.3156 -1.3276 -0.9775
  641MOL0     O84488   8.324   7.793   4.006  0.0976 -0.6071  0.6600
  641MOL0     C84489   8.424   7.743   4.096 -0.5880 -0.6422 -0.0550
  641MOL0     C84490   8.546   7.696   4.023  1.0954  0.3891 -0.0364
  641MOL0     C84491   8.680   7.719   4.098  0.1752 -0.1693  1.1528
  641MOL0     C84492   8.689   7.609   4.205  0.5442 -0.0227 -0.7511
  641MOL0     C84493   8.816   7.636   4.290 -0.1814 -0.1404 -0.4396
  641MOL0     C84494   8.800   7.728   4.413 -0.0698  1.2850  0.8583
  641MOL0     C84495   8.726   7.652   4.528 -0.9290 -0.4080 -0.9463
  641MOL0     C84496   8.792   7.526   4.573  0.1772  0.2045  0.1392
  641MOL0     N84497   8.936   7.569   4.602  0.1835  0.2345 -0.3814
  641MOL0     C84498   8.974   7.638   4.711 -0.1110 -0.0484  0.2178
  641MOL0     C84499   9.108   7.633   4.706 -0.1497 -0.5207 -0.3860
  641MOL0     C84500   9.194   7.713   4.804 -0.0173 -0.7627 -0.1119
  641MOL0     C84501   9.220   7.850   4.737  1.0511 -0.3190  0.9861
  641MOL0     C84502   9.305   7.927   4.830 -0.0397 -0.9307 -0.8343
  641MOL0     C84503   9.335   8.060   4.757 -0.9774  0.8151  0.0430
  641MOL0     O84504   9.400   8.157   4.840 -0.3136  0.4501 -0.3916
  641MOL0     C84505   9.540   8.150   4.848  0.0760  0.2040  0.7279
  641MOL0     C84506   9.601   8.261   4.891  0.2255  0.0270 -0.4596
  641MOL0     C84507   9.744   8.268   4.910  0.0060 -1.0450  1.2408
  641MOL0     C84508   9.825   8.160   4.877 -0.5849 -0.1482  0.1969
  641MOL0     C84509   9.967   8.174   4.885 -0.5874 -0.4041  0.6172
  641MOL0     O84510  10.036   8.077   4.828  0.0718 -0.7857  0.0126
  641MOL0     C84511  10.170   8.035   4.845  0.6245  0.2833  0.2363
  641MOL0     C84512  10.237   8.042   4.963  0.0758 -0.6178 -1.1330
  641MOL0     C84513  10.363   7.990   4.994 -0.3217  0.5471  0.8176
  641MOL0     C84514  10.441   7.941   4.885  0.2309 -1.1012  0.2480
  641MOL0     O84515  10.569   7.917   4.915 -0.0223 -0.5743 -0.7086
  641MOL0     C84516  10.661   7.889   4.818 -0.4660 -0.2008 -0.7035
  641MOL0     C84517  10.794   7.841   4.877  0.1337  0.1900  0.1920
  641MOL0     C84518  10.875   7.948   4.932  0.6024 -0.7929 -0.4260
  641MOL0     C84519  10.972   7.900   5.043 -0.2033 -0.1844  0.5911
  641MOL0     C84520  11.045   8.005   5.126  0.2049 -0.5023 -1.1470
  641MOL0     C84521  11.164   8.082   5.053  1.1393  0.2706 -0.0527
  641MOL0     C84522  11.234   8.174   5.148  1.4537 -0.2454 -0.1729
  641MOL0     C84523  11.314   8.109   5.251 -1.0140  1.0086 -0.2797
  641MOL0    Cl84524  11.431   8.212   5.335  0.1745  0.5594  0.3628
  641MOL0     C84525  10.370   7.911   4.769  0.9916 -0.3781  0.7426
  641MOL0     C84526  10.242   7.967   4.749  0.4319  0.5190  0.1682
  641MOL0     O84527  10.017   8.260   4.966  0.5993 -0.1644  0.1948
  641MOL0     C84528   9.755   8.049   4.828  0.2959 -0.0724  0.4247
  641MOL0     C84529   9.619   8.046   4.808 -1.3208  0.1669  0.4164
  641MOL0     N84530   9.149   7.555   4.601 -0.2544  0.4950 -0.2756
  641MOL0     N84531   9.045   7.505   4.542  0.2887 -0.7077 -0.6986
  641MOL0     C84532   8.189   7.986   3.994 -0.3910  0.5103  0.2841
  641MOL0     C84533   8.159   8.120   4.003  0.1333  0.1755 -0.0098
  641MOL0     C84534   8.125   8.543   3.925  0.5509 -0.0895 -0.2086
  641MOL0     C84535   8.112   8.593   4.055 -0.7157  0.5313  0.3402
  641MOL0     C84536   8.094   8.725   4.073 -0.1119 -0.8622 -0.4578
  641MOL0     C84537   8.090   8.820   3.973  0.9030  0.6486  0.6053
  641MOL0     O84538   8.077   8.952   3.996  0.2081 -0.6352 -0.6172
  641MOL0     C84539   8.097   9.058   3.901  0.9684  0.2671 -0.2975
  641MOL0     C84540   8.241   9.064   3.865  0.1556 -0.1422 -0.1123
  641MOL0     C84541   8.266   9.149   3.742 -0.1332  0.5638  0.3197
  641MOL0     C84542   8.217   9.291   3.743 -0.5475  0.5789  0.3046
  641MOL0     C84543   8.077   9.308   3.698 -0.6813 -0.9630  0.1787
  641MOL0     C84544   7.961   9.314   3.668  0.6993 -0.0438  0.9298
  641MOL0     C84545   8.106   8.768   3.839 -0.2105  0.1270  0.3243
  641MOL0     C84546   8.130   8.626   3.816  1.4098 -0.3085  1.2137
  641MOL0     H84547   8.467   8.234   4.030 -0.7350  2.7981 -1.6594
  641MOL0     H84548   8.521   7.989   4.017 -0.2552 -0.2274 -0.9961
  641MOL0     H84549   8.390   7.656   4.153  1.8329 -1.7038 -0.0973
  641MOL0     H84550   8.447   7.819   4.171  0.6505 -1.2664  0.2217
  641MOL0     H84551   8.550   7.765   3.939 -0.4373  0.8649  0.2514
  641MOL0     H84552   8.519   7.598   3.982  1.7672  0.9226 -1.8194
  641MOL0     H84553   8.683   7.811   4.156  0.8045  0.9286 -0.5506
  641MOL0     H84554   8.768   7.715   4.033 -0.1058 -1.3521  0.8106
  641MOL0     H84555   8.593   7.609   4.259  0.2224 -2.4724 -1.1842
  641MOL0     H84556   8.698   7.508   4.163 -1.9821 -1.3371  1.5329
  641MOL0     H84557   8.896   7.679   4.229 -0.8378 -0.1982 -1.3580
  641MOL0     H84558   8.856   7.540   4.326 -1.6068 -0.6431 -0.0870
  641MOL0     H84559   8.744   7.822   4.404 -3.4528 -0.6150  0.3668
  641MOL0     H84560   8.900   7.759   4.446  0.0885 -1.4497  3.3507
  641MOL0     H84561   8.711   7.703   4.623 -1.6081 -6.0144  2.4484
  641MOL0     H84562   8.623   7.634   4.495 -0.0485 -4.6608 -2.0239
  641MOL0     H84563   8.791   7.451   4.493  0.2023  0.1422  0.1978
  641MOL0     H84564   8.746   7.480   4.661 -1.9847 -1.8695 -1.9241
  641MOL0     H84565   8.918   7.688   4.789  1.4970  1.1380  0.6719
  641MOL0     H84566   9.292   7.664   4.796  1.3936  2.2387 -3.9145
  641MOL0     H84567   9.166   7.709   4.910  1.1301 -0.3042  0.2308
  641MOL0     H84568   9.127   7.907   4.732  0.5479 -0.9825  2.1807
  641MOL0     H84569   9.267   7.833   4.639 -1.8715 -2.1335 -0.2380
  641MOL0     H84570   9.248   7.952   4.920 -0.3993  1.7890 -1.7500
  641MOL0     H84571   9.402   7.881   4.855  0.3112  0.8590  1.4577
  641MOL0     H84572   9.243   8.104   4.719 -0.9572  0.5030 -0.3721
  641MOL0     H84573   9.396   8.038   4.669  1.1658  1.1224  1.3666
  641MOL0     H84574   9.544   8.348   4.922 -0.0537 -0.5276  0.6504
  641MOL0     H84575   9.798   8.356   4.944 -1.7642 -0.0614  1.6354
  641MOL0     H84576  10.193   8.107   5.037 -0.7540 -0.5614 -1.6713
  641MOL0     H84577  10.412   8.012   5.089  3.4736 -0.8622 -0.6232
  641MOL0     H84578  10.680   7.974   4.752 -3.0918  1.9992  1.1385
  641MOL0     H84579  10.636   7.804   4.754  0.9036 -2.7879  1.9133
  641MOL0     H84580  10.849   7.790   4.798  1.3671  3.6513 -1.4162
  641MOL0     H84581  10.785   7.775   4.964 -2.1322  0.1544 -0.0103
  641MOL0     H84582  10.810   8.023   4.978  3.4464  0.8254  1.2425
  641MOL0     H84583  10.939   7.988   4.853  2.2310 -1.6261  0.4304
  641MOL0     H84584  10.909   7.835   5.105 -3.2106  3.5881  1.8408
  641MOL0     H84585  11.040   7.830   4.994  0.1842 -1.6993  3.1261
  641MOL0     H84586  11.093   7.959   5.213 -0.7605 -0.4386 -0.5711
  641MOL0     H84587  10.971   8.077   5.163  0.1496 -1.6902  1.2529
  641MOL0     H84588  11.123   8.145   4.974 -0.1178  0.2314  0.5412
  641MOL0     H84589  11.234   8.012   5.007  0.9863 -0.5630  0.9421
  641MOL0     H84590  11.299   8.239   5.089 -2.1473  2.8385 -1.1262
  641MOL0     H84591  11.165   8.249   5.187  1.6152  0.6098 -1.4745
  641MOL0     H84592  11.374   8.026   5.212 -3.5107 -0.2078 -1.8234
  641MOL0     H84593  11.252   8.070   5.332 -0.6149 -0.3007 -0.5731
  641MOL0     H84594  10.421   7.867   4.683  2.3490  2.7891 -0.2537
  641MOL0     H84595  10.174   7.951   4.666 -2.0283 -0.2484  2.1877
  641MOL0     H84596   9.817   7.967   4.794 -0.1667 -0.0191 -0.5695
  641MOL0     H84597   9.586   7.958   4.754 -0.0061  0.9690 -1.8534
  641MOL0     H84598   8.109   7.913   3.986  2.2214 -2.6464  0.7210
  641MOL0     H84599   8.058   8.159   4.014  0.6181  0.6957  4.1839
  641MOL0     H84600   8.089   8.539   4.146 -3.1070 -0.9212 -1.0122
  641MOL0     H84601   8.074   8.762   4.173  2.0924  2.5000 -1.0907
  641MOL0     H84602   8.069   9.154   3.946 -3.0157 -1.5257  1.5707
  641MOL0     H84603   8.042   9.031   3.810 -1.1995 -1.5982  1.4412
  641MOL0     H84604   8.305   9.101   3.946 -0.8250  0.5223  0.3917
  641MOL0     H84605   8.277   8.962   3.851  0.8190 -0.3252  2.3489
  641MOL0     H84606   8.210   9.096   3.664 -2.6562 -1.7306  3.3993
  641MOL0     H84607   8.375   9.148   3.739 -0.1517  0.8573 -0.6279
  641MOL0     H84608   8.227   9.324   3.847  2.7788 -0.8115  0.5627
  641MOL0     H84609   8.270   9.353   3.671 -2.0843 -1.1135 -2.4456
  641MOL0     H84610   7.857   9.310   3.644  1.1306 -0.0396 -1.0819
  641MOL0     H84611   8.107   8.844   3.761 -2.5679 -0.4389 -0.3413
  641MOL0     H84612   8.140   8.589   3.714 -1.9683 -0.8089  0.9175
  642MOL0     O84613   4.930   1.745   3.910 -0.4058  1.0756 -0.3200
  642MOL0     C84614   4.834   1.805   3.952 -0.2771 -0.5917  0.4719
  642MOL0     O84615   4.699   1.791   3.914  1.1001 -0.0014 -0.4393
  642MOL0     C84616   4.656   1.684   3.841 -0.0501  0.1177 -0.4945
  642MOL0     C84617   4.716   1.660   3.720 -0.3920  0.5888 -0.4207
  642MOL0     C84618   4.662   1.566   3.627 -0.2763 -0.0417 -0.1010
  642MOL0     C84619   4.547   1.497   3.666 -1.2819  0.4419  0.1031
  642MOL0     O84620   4.492   1.409   3.584  0.2741 -0.5178  0.6154
  642MOL0     C84621   4.430   1.478   3.474  0.6974 -0.4421 -0.4675
  642MOL0     C84622   4.329   1.390   3.411  0.5368  0.2663 -0.2460
  642MOL0     C84623   4.223   1.478   3.332  0.5775  0.6127  0.6769
  642MOL0     C84624   4.244   1.485   3.169 -1.5739 -0.4144  0.1127
  642MOL0     C84625   4.220   1.347   3.119  0.6005  0.7389 -0.2208
  642MOL0     C84626   4.223   1.357   2.965 -0.0180  0.1975  0.4822
  642MOL0     C84627   4.180   1.216   2.907 -0.4416  0.5576 -0.1748
  642MOL0     C84628   4.079   1.250   2.802 -0.3470 -0.1001  1.0165
  642MOL0     N84629   4.035   1.138   2.713  0.2234  0.2933 -1.5657
  642MOL0     C84630   3.948   1.040   2.760 -0.3915 -0.0110 -0.5230
  642MOL0     C84631   3.918   0.970   2.647 -0.6190  0.2803  0.1584
  642MOL0     C84632   3.826   0.854   2.639  0.1303  1.3482  0.3843
  642MOL0     C84633   3.896   0.722   2.680 -0.0497 -0.4915  0.0273
  642MOL0     C84634   3.790   0.620   2.723 -0.5797  0.5310 -0.9096
  642MOL0     C84635   3.692   0.562   2.617  0.0824  0.8770  0.5347
  642MOL0     O84636   3.779   0.495   2.527  0.7508 -0.2040  0.7282
  642MOL0     C84637   3.716   0.488   2.401 -1.0832  0.0188  0.4560
  642MOL0     C84638   3.766   0.579   2.301  0.2263  0.3153 -0.0754
  642MOL0     C84639   3.707   0.570   2.174  0.4961 -1.3294  0.1578
  642MOL0     C84640   3.594   0.501   2.147  0.3899  0.0893  0.4934
  642MOL0     C84641   3.531   0.518   2.006  0.1806  0.3040  0.9054
  642MOL0     O84642   3.559   0.636   1.935  0.6227  0.6902  0.0150
  642MOL0     C84643   3.494   0.658   1.817 -0.6090 -0.7425  0.2447
  642MOL0     C84644   3.397   0.579   1.749  0.4481 -0.0278  1.3453
  642MOL0     C84645   3.354   0.614   1.618  1.0559  1.4001 -0.5557
  642MOL0     C84646   3.387   0.733   1.559 -0.4012 -0.3184 -1.0055
  642MOL0     O84647   3.339   0.777   1.434  0.1151  1.0116 -0.3190
  642MOL0     C84648   3.443   0.809   1.345 -0.0930  0.1893  0.0434
  642MOL0     C84649   3.397   0.772   1.204  0.2984 -0.8417  0.2087
  642MOL0     C84650   3.334   0.637   1.188 -0.4634 -0.3141  1.1601
  642MOL0     C84651   3.226   0.628   1.082 -0.1955 -0.1359 -0.1670
  642MOL0     C84652   3.099   0.692   1.149  0.5998 -0.2140  0.2512
  642MOL0     C84653   2.977   0.689   1.055 -1.0401 -0.0991  0.4240
  642MOL0     C84654   2.997   0.766   0.914 -1.3812  0.4590 -0.1267
  642MOL0     C84655   2.864   0.791   0.846 -0.6315 -0.2520  0.0013
  642MOL0    Cl84656   2.862   0.888   0.699 -0.1381  0.1525 -0.4663
  642MOL0     C84657   3.474   0.828   1.631  0.0215  0.3311 -0.8469
  642MOL0     C84658   3.524   0.779   1.752 -1.4831 -1.2272 -1.4383
  642MOL0     O84659   3.440   0.432   1.987  0.2126 -1.0728  0.2284
  642MOL0     C84660   3.548   0.405   2.242 -0.0057  0.1351  0.0688
  642MOL0     C84661   3.610   0.400   2.366  0.2001 -0.1330 -0.1042
  642MOL0     N84662   3.990   1.015   2.538 -0.3666 -0.2319 -0.6959
  642MOL0     N84663   4.067   1.115   2.579 -0.2745  0.5078 -0.2670
  642MOL0     C84664   4.494   1.514   3.799 -0.2144 -0.2980  0.3006
  642MOL0     C84665   4.547   1.607   3.884 -1.2029  0.0595  0.3916
  642MOL0     C84666   4.863   1.919   4.044  0.5796  0.6485  0.8275
  642MOL0     C84667   4.991   1.969   4.074 -0.6495  0.8882  0.4547
  642MOL0     C84668   5.003   2.072   4.169 -0.3328  0.2656 -0.4183
  642MOL0     C84669   4.895   2.124   4.242 -0.3482 -0.8672  0.1262
  642MOL0     O84670   4.914   2.228   4.330  0.5935  0.1051 -0.3345
  642MOL0     C84671   4.833   2.229   4.452 -0.0705  0.3127  0.0389
  642MOL0     C84672   4.776   2.372   4.472  0.3451  0.1447  0.1584
  642MOL0     C84673   4.695   2.393   4.603  0.2429  0.6459  1.0427
  642MOL0     C84674   4.752   2.357   4.742 -0.6060 -0.7164 -0.2298
  642MOL0     C84675   4.900   2.357   4.738  0.0543 -0.8128  0.0281
  642MOL0     C84676   5.018   2.348   4.738  0.0497 -0.6049  1.2079
  642MOL0     C84677   4.770   2.067   4.213  0.6701 -0.5415  0.1843
  642MOL0     C84678   4.744   1.979   4.107 -0.3787  0.7160 -0.0589
  642MOL0     H84679   4.802   1.715   3.683  1.2642 -1.3069  0.4937
  642MOL0     H84680   4.721   1.541   3.539 -0.9289 -0.5376 -0.4077
  642MOL0     H84681   4.502   1.499   3.394 -0.4621 -0.6675 -1.6233
  642MOL0     H84682   4.386   1.572   3.510  0.6881  0.2990 -2.2955
  642MOL0     H84683   4.286   1.337   3.497  0.4389 -1.4286 -1.2989
  642MOL0     H84684   4.368   1.319   3.338 -2.4480 -0.2079 -1.5021
  642MOL0     H84685   4.218   1.579   3.375 -2.4468  1.0923 -0.5177
  642MOL0     H84686   4.125   1.429   3.341  0.6753 -0.0199 -1.2972
  642MOL0     H84687   4.185   1.553   3.107  1.3548 -1.2895 -4.0575
  642MOL0     H84688   4.347   1.512   3.146 -2.8379  4.9547 -0.5652
  642MOL0     H84689   4.122   1.315   3.155  0.2333  1.0226 -0.9593
  642MOL0     H84690   4.298   1.280   3.157  0.1892  0.9212  1.0085
  642MOL0     H84691   4.327   1.375   2.935 -0.4903  0.8519 -0.8123
  642MOL0     H84692   4.157   1.437   2.932 -1.4013 -1.3924 -0.8329
  642MOL0     H84693   4.265   1.162   2.863 -2.7618 -3.1982 -0.5205
  642MOL0     H84694   4.129   1.169   2.991  1.2179  3.2255  2.5038
  642MOL0     H84695   4.114   1.339   2.749 -2.7608  0.1144 -0.3312
  642MOL0     H84696   3.988   1.279   2.856 -1.7442 -0.5061 -0.9918
  642MOL0     H84697   3.909   1.033   2.861  0.6385  0.8719 -0.0410
  642MOL0     H84698   3.796   0.849   2.533 -1.3766 -0.5524  0.8426
  642MOL0     H84699   3.738   0.879   2.698 -1.6156  0.4223 -1.6633
  642MOL0     H84700   3.970   0.738   2.759 -2.1288 -2.1060  2.4703
  642MOL0     H84701   3.964   0.684   2.603 -0.0450 -1.4451  0.4900
  642MOL0     H84702   3.837   0.536   2.775  2.8082  2.3507 -0.7046
  642MOL0     H84703   3.729   0.678   2.794  1.5691  2.6639 -0.6857
  642MOL0     H84704   3.621   0.638   2.584 -2.0309 -0.5334  1.5363
  642MOL0     H84705   3.632   0.483   2.663 -0.1208  0.5402 -0.2825
  642MOL0     H84706   3.848   0.643   2.330  0.1433  1.2464 -1.8099
  642MOL0     H84707   3.756   0.630   2.097  0.8019 -0.8462  0.7162
  642MOL0     H84708   3.355   0.490   1.794 -2.0023 -0.6488 -1.8340
  642MOL0     H84709   3.288   0.553   1.557 -0.3893  1.3297  1.0166
  642MOL0     H84710   3.533   0.749   1.363 -1.7101 -2.8211 -1.1487
  642MOL0     H84711   3.464   0.917   1.349 -1.0618  0.3436  2.2518
  642MOL0     H84712   3.486   0.767   1.141  0.8994 -3.0985  1.1157
  642MOL0     H84713   3.327   0.850   1.171  1.7837 -0.4721 -2.3030
  642MOL0     H84714   3.303   0.602   1.287 -0.5904  4.1594  2.9215
  642MOL0     H84715   3.414   0.568   1.158 -1.5035 -0.4265 -1.6690
  642MOL0     H84716   3.269   0.676   0.994  2.9164  0.2676  1.4196
  642MOL0     H84717   3.193   0.526   1.062 -0.2103  0.1007 -1.4283
  642MOL0     H84718   3.114   0.796   1.182  0.7137  0.2498 -1.2046
  642MOL0     H84719   3.080   0.638   1.242  1.1580 -0.8348  0.0135
  642MOL0     H84720   2.897   0.738   1.112  0.8067  2.5455  0.9688
  642MOL0     H84721   2.957   0.582   1.045 -1.0948  0.0461 -1.3278
  642MOL0     H84722   3.048   0.862   0.925  1.3558 -0.9394  0.1975
  642MOL0     H84723   3.045   0.700   0.841 -0.6732 -1.6088  2.1000
  642MOL0     H84724   2.801   0.840   0.922 -1.6457 -0.5957 -0.5931
  642MOL0     H84725   2.822   0.694   0.818 -0.0997 -0.7727  0.9438
  642MOL0     H84726   3.503   0.923   1.588  0.9565 -0.5088 -2.1385
  642MOL0     H84727   3.582   0.842   1.817 -1.2139 -0.8147 -2.0669
  642MOL0     H84728   3.470   0.341   2.203 -0.4326  1.1292 -0.7488
  642MOL0     H84729   3.563   0.340   2.443 -1.1673  0.1430 -0.6853
  642MOL0     H84730   4.408   1.450   3.818 -0.9425  0.8850  1.1784
  642MOL0     H84731   4.508   1.623   3.984  1.9481  0.6291  1.6455
  642MOL0     H84732   5.075   1.933   4.015 -2.6982  1.5420 -3.2116
  642MOL0     H84733   5.102   2.108   4.197 -1.4585  0.3235  4.2958
  642MOL0     H84734   4.910   2.197   4.522  0.5563 -1.5585 -1.4196
  642MOL0     H84735   4.755   2.152   4.454 -1.9477  2.1362  1.8466
  642MOL0     H84736   4.863   2.439   4.475 -0.6565  1.5214 -0.5376
  642MOL0     H84737   4.711   2.393   4.387  1.0838 -3.1235 -1.3599
  642MOL0     H84738   4.599   2.344   4.589  1.4027 -1.2932 -0.5568
  642MOL0     H84739   4.676   2.501   4.608  3.7905  1.6209 -2.0870
  642MOL0     H84740   4.716   2.421   4.823 -3.0590 -3.6533  1.2174
  642MOL0     H84741   4.714   2.262   4.782 -0.0137 -0.4098  1.1164
  642MOL0     H84742   5.124   2.330   4.738  0.0414 -0.9961  3.7773
  642MOL0     H84743   4.685   2.119   4.256  1.6757  2.3066 -1.0135
  642MOL0     H84744   4.641   1.946   4.099 -0.2163  0.6823 -3.5792
  643MOL0     O84745   0.133   9.632   4.978 -0.7018  0.2735 -0.0891
  643MOL0     C84746   0.143   9.585   4.863  0.0362 -0.4779 -0.0234
  643MOL0     O84747   0.262   9.580   4.790 -0.0173 -0.5909 -0.1019
  643MOL0     C84748   0.376   9.557   4.861 -0.0817  0.2770  0.5094
  643MOL0     C84749   0.434   9.649   4.948  0.4565  0.8059  0.4202
  643MOL0     C84750   0.540   9.605   5.027  0.6648  0.1556  0.3494
  643MOL0     C84751   0.584   9.477   5.021 -0.5637  0.0058  0.3304
  643MOL0     O84752   0.699   9.466   5.084  0.5876 -0.2175  0.6323
  643MOL0     C84753   0.789   9.363   5.053  0.0607  0.8430 -0.0215
  643MOL0     C84754   0.880   9.296   5.172  0.1289 -0.7470 -0.0634
  643MOL0     C84755   0.813   9.191   5.264 -0.1986  0.6427  0.6964
  643MOL0     C84756   0.733   9.268   5.367  0.1238  0.7537  0.3881
  643MOL0     C84757   0.653   9.167   5.448  0.6418 -0.7009  0.6187
  643MOL0     C84758   0.735   9.054   5.517  0.2588 -0.5938  0.6533
  643MOL0     C84759   0.858   9.096   5.590  0.2907 -0.3589  0.4128
  643MOL0     C84760   0.875   9.014   5.721 -0.4004  0.5402  0.4868
  643MOL0     N84761   0.931   8.876   5.688  0.0485 -0.0344 -0.8207
  643MOL0     C84762   0.861   8.764   5.654  0.4709 -0.7457 -0.2478
  643MOL0     C84763   0.952   8.666   5.641  0.1426  0.0834 -0.4679
  643MOL0     C84764   0.909   8.517   5.609 -0.1840 -1.0304  0.3006
  643MOL0     C84765   1.003   8.451   5.510  0.2428 -0.2691 -0.4818
  643MOL0     C84766   0.957   8.311   5.483 -0.0915  0.3051  0.3728
  643MOL0     C84767   1.069   8.243   5.390  0.4002 -0.5861  0.2954
  643MOL0     O84768   1.186   8.208   5.467  0.6165  0.4200  0.1519
  643MOL0     C84769   1.282   8.140   5.398  0.1902 -0.6118  0.6711
  643MOL0     C84770   1.367   8.063   5.469 -0.0643 -0.2845  0.6808
  643MOL0     C84771   1.472   8.002   5.410  0.0305  0.5814  0.7946
  643MOL0     C84772   1.507   8.037   5.278 -0.4137  0.3808 -0.4156
  643MOL0     C84773   1.624   7.969   5.199  0.0811 -0.3167 -0.1670
  643MOL0     O84774   1.674   7.860   5.261 -0.1449  0.0180  0.2008
  643MOL0     C84775   1.769   7.790   5.193 -0.8819  0.0017 -0.0260
  643MOL0     C84776   1.772   7.653   5.222 -0.7187 -0.1726 -0.1103
  643MOL0     C84777   1.869   7.564   5.171 -0.9051  0.2649 -0.3407
  643MOL0     C84778   1.983   7.619   5.101  1.2010  0.6161 -0.8234
  643MOL0     O84779   2.084   7.549   5.052 -0.4097  0.2424  0.7402
  643MOL0     C84780   2.042   7.486   4.935  0.2976 -0.1613  0.2589
  643MOL0     C84781   2.140   7.524   4.826 -0.6408 -0.3320  1.1210
  643MOL0     C84782   2.136   7.670   4.763 -0.4331  0.1854  0.1899
  643MOL0     C84783   1.994   7.708   4.734  0.2384 -0.1266 -0.0559
  643MOL0     C84784   1.979   7.849   4.668 -0.5212 -1.0078 -0.0838
  643MOL0     C84785   1.860   7.933   4.714 -0.0659  0.2107 -0.1079
  643MOL0     C84786   1.878   8.068   4.651 -0.6842 -1.3054 -0.1203
  643MOL0     C84787   1.778   8.163   4.703  0.7410  0.0583  0.6162
  643MOL0    Cl84788   1.737   8.292   4.589 -0.4234  0.2007 -0.2026
  643MOL0     C84789   1.985   7.751   5.074 -0.1906  0.4158 -0.5682
  643MOL0     C84790   1.886   7.835   5.127  0.5543  0.2184 -0.0535
  643MOL0     O84791   1.667   8.021   5.097 -0.4513  0.1751  0.2411
  643MOL0     C84792   1.429   8.119   5.203  0.3038  0.4669  0.5649
  643MOL0     C84793   1.306   8.160   5.256  0.1803  0.3014  0.3343
  643MOL0     N84794   1.074   8.720   5.668 -1.3758  0.3635 -0.0898
  643MOL0     N84795   1.063   8.845   5.703  0.4873 -0.1766 -0.2440
  643MOL0     C84796   0.524   9.379   4.942 -0.1770  0.2473  1.0692
  643MOL0     C84797   0.421   9.422   4.854  0.1719  0.0186 -0.1957
  643MOL0     C84798   0.014   9.560   4.786 -1.1495  0.6562 -0.2019
  643MOL0     C84799  -0.112   9.576   4.857 -0.0712  0.0959  0.8986
  643MOL0     C84800  -0.225   9.565   4.786  0.5729 -0.2860  0.3466
  643MOL0     C84801  -0.232   9.512   4.652  0.3485 -0.5908 -0.2507
  643MOL0     O84802  -0.342   9.527   4.578  0.0651 -0.0397 -0.0810
  643MOL0     C84803  -0.462   9.474   4.630  0.7472 -0.2566 -0.1670
  643MOL0     C84804  -0.461   9.320   4.610 -0.5069 -0.1609  0.8567
  643MOL0     C84805  -0.579   9.248   4.551 -0.4061 -1.1744 -0.9887
  643MOL0     C84806  -0.557   9.101   4.524  0.6234 -0.3236 -0.7935
  643MOL0     C84807  -0.454   9.086   4.417 -0.7811 -0.0824  1.0922
  643MOL0     C84808  -0.377   9.086   4.323 -0.5183  0.0348  0.0917
  643MOL0     C84809  -0.107   9.492   4.592  0.1665  0.3170  0.4021
  643MOL0     C84810   0.015   9.501   4.665  0.8640 -0.4054 -0.4364
  643MOL0     H84811   0.393   9.749   4.960 -0.9436  0.1136  1.7531
  643MOL0     H84812   0.592   9.675   5.092  0.3561  0.3682  0.3718
  643MOL0     H84813   0.855   9.391   4.970  0.7545  1.6197  0.7811
  643MOL0     H84814   0.733   9.276   5.017  0.3229  0.7898 -0.3122
  643MOL0     H84815   0.920   9.383   5.224  1.8084 -0.4163 -1.7929
  643MOL0     H84816   0.961   9.247   5.116 -0.6625 -2.3291  0.1234
  643MOL0     H84817   0.892   9.137   5.317  0.1337 -0.2149 -0.6269
  643MOL0     H84818   0.757   9.119   5.204 -1.1453  1.8392  0.0849
  643MOL0     H84819   0.794   9.330   5.433  0.3795 -0.6588  1.5173
  643MOL0     H84820   0.657   9.328   5.316 -0.7750 -1.1460 -0.5826
  643MOL0     H84821   0.583   9.125   5.376  1.4942  1.2327 -1.4481
  643MOL0     H84822   0.596   9.218   5.527 -1.6669 -2.7068  0.3489
  643MOL0     H84823   0.775   8.986   5.442  0.8903 -1.3268  1.6230
  643MOL0     H84824   0.677   8.993   5.588 -2.3467  1.4787  0.4709
  643MOL0     H84825   0.945   9.095   5.524  0.8151 -1.6121  1.0903
  643MOL0     H84826   0.847   9.200   5.621 -0.8208 -0.5814  0.8185
  643MOL0     H84827   0.778   9.002   5.771  1.2491 -3.7357  3.1937
  643MOL0     H84828   0.943   9.073   5.782  3.2776 -0.4587 -2.2789
  643MOL0     H84829   0.758   8.743   5.625  1.3379 -4.4586 -1.1914
  643MOL0     H84830   0.811   8.525   5.560  0.4496 -2.8751 -1.4070
  643MOL0     H84831   0.894   8.458   5.699  0.6781 -1.2074  0.3325
  643MOL0     H84832   1.102   8.435   5.552  0.4702  1.9820 -0.0556
  643MOL0     H84833   1.013   8.510   5.419 -3.3035 -0.4226 -1.1218
  643MOL0     H84834   0.948   8.260   5.579  1.2117 -1.3878 -0.3747
  643MOL0     H84835   0.857   8.308   5.438  0.2691 -0.7072 -0.3716
  643MOL0     H84836   1.092   8.316   5.313 -3.2454  0.6083  0.1396
  643MOL0     H84837   1.034   8.155   5.336  0.7075 -1.5221  1.5544
  643MOL0     H84838   1.347   8.041   5.574 -0.2163 -0.9864  0.5150
  643MOL0     H84839   1.528   7.933   5.472  1.1896 -0.1149 -0.9267
  643MOL0     H84840   1.701   7.608   5.291 -0.2195  0.8350  1.0913
  643MOL0     H84841   1.865   7.456   5.188  1.4384 -0.0310 -1.3047
  643MOL0     H84842   1.936   7.499   4.913 -0.0189 -1.0919  1.1798
  643MOL0     H84843   2.042   7.378   4.951 -2.6712 -0.9729 -3.5815
  643MOL0     H84844   2.116   7.456   4.743  1.0878 -1.1786  1.2736
  643MOL0     H84845   2.245   7.497   4.833 -0.3667  0.2679 -0.3861
  643MOL0     H84846   2.188   7.662   4.667 -1.3624  2.8874 -0.6339
  643MOL0     H84847   2.196   7.737   4.826 -0.7343 -1.2503  2.0901
  643MOL0     H84848   1.949   7.623   4.683 -1.0943 -0.1581  1.1313
  643MOL0     H84849   1.941   7.707   4.830 -0.8967  1.2338 -0.6407
  643MOL0     H84850   1.978   7.833   4.560 -2.9113  0.7741 -0.4176
  643MOL0     H84851   2.065   7.913   4.688  0.1741 -2.0344  0.3107
  643MOL0     H84852   1.858   7.952   4.822 -0.0759  0.1734 -0.1012
  643MOL0     H84853   1.771   7.878   4.681 -1.4437  2.7195 -0.8548
  643MOL0     H84854   1.976   8.116   4.662 -0.8460 -1.2554  1.2253
  643MOL0     H84855   1.858   8.062   4.543  1.0525  0.2422 -0.5814
  643MOL0     H84856   1.804   8.198   4.803 -1.9064  2.2675  0.6616
  643MOL0     H84857   1.689   8.100   4.713  1.4873 -0.9325  1.2047
  643MOL0     H84858   2.064   7.801   5.018  0.3475  1.4543  1.0310
  643MOL0     H84859   1.902   7.936   5.092  2.4462 -0.1700 -0.4355
  643MOL0     H84860   1.468   8.142   5.104  1.4379 -0.9710  0.6365
  643MOL0     H84861   1.235   8.210   5.191  0.0025  2.1033  1.8375
  643MOL0     H84862   0.553   9.275   4.928 -2.3858 -0.1974 -0.9854
  643MOL0     H84863   0.376   9.362   4.775  1.3821  1.1661 -1.8396
  643MOL0     H84864  -0.109   9.616   4.957  1.4072  1.0465  0.5118
  643MOL0     H84865  -0.314   9.594   4.841 -0.7961 -2.8958 -0.3788
  643MOL0     H84866  -0.547   9.511   4.571  0.9047 -0.1840 -0.3469
  643MOL0     H84867  -0.487   9.500   4.733 -0.2193 -3.0883  0.4032
  643MOL0     H84868  -0.372   9.302   4.549 -1.4353  3.3786 -1.9267
  643MOL0     H84869  -0.445   9.271   4.706  1.9268  2.2122  1.7753
  643MOL0     H84870  -0.604   9.293   4.454 -1.5571 -0.6027 -0.4493
  643MOL0     H84871  -0.659   9.270   4.623  0.7711  2.1713 -0.5100
  643MOL0     H84872  -0.534   9.052   4.619 -0.3685 -2.6814 -1.7040
  643MOL0     H84873  -0.648   9.062   4.478  1.4580 -0.8395 -2.0640
  643MOL0     H84874  -0.322   9.087   4.231 -1.9351  2.0028 -0.7968
  643MOL0     H84875  -0.108   9.453   4.491 -1.7864 -0.5863  0.7220
  643MOL0     H84876   0.109   9.476   4.618  0.7347 -0.8163 -0.4793
  644MOL0     O84877   7.278  10.086   7.472  0.0874  0.4404 -0.1729
  644MOL0     C84878   7.202  10.103   7.376 -0.9947  0.5804 -0.2935
  644MOL0     O84879   7.171  10.002   7.281 -0.6562 -0.5405  0.4801
  644MOL0     C84880   7.201   9.874   7.303  0.3911  0.6979  0.6806
  644MOL0     C84881   7.104   9.782   7.266  0.5321 -0.5104  0.5163
  644MOL0     C84882   7.122   9.643   7.292 -0.4321  0.0279  0.6652
  644MOL0     C84883   7.237   9.594   7.345  0.3276  0.5361  0.5428
  644MOL0     O84884   7.250   9.459   7.343 -0.3965 -0.3113  0.0992
  644MOL0     C84885   7.298   9.416   7.465  0.2852  0.8222  0.8018
  644MOL0     C84886   7.444   9.381   7.469  0.5844 -0.2188 -0.1773
  644MOL0     C84887   7.453   9.269   7.364 -0.3341  0.0977  0.0347
  644MOL0     C84888   7.584   9.189   7.367  0.1496  0.7507 -0.0424
  644MOL0     C84889   7.650   9.204   7.226  0.1926  0.0057  0.5180
  644MOL0     C84890   7.568   9.137   7.110 -1.1474  0.0522  0.9229
  644MOL0     C84891   7.642   9.164   6.979 -0.2299  0.5487 -0.1283
  644MOL0     C84892   7.556   9.124   6.859 -0.1703  0.2501 -0.3798
  644MOL0     N84893   7.523   8.973   6.859 -0.4239 -0.6259  0.4235
  644MOL0     C84894   7.590   8.864   6.912 -0.4685 -0.2301 -0.0611
  644MOL0     C84895   7.509   8.759   6.874 -0.4465  0.1790 -0.0968
  644MOL0     C84896   7.553   8.616   6.877  0.6582  0.0530  1.2340
  644MOL0     C84897   7.624   8.575   6.747  0.0612  0.2978 -0.5499
  644MOL0     C84898   7.549   8.603   6.623  0.2064  1.3328  0.3496
  644MOL0     C84899   7.624   8.533   6.515 -0.3684  0.3380  0.3966
  644MOL0     O84900   7.630   8.387   6.525  0.1985  0.1695  0.4146
  644MOL0     C84901   7.534   8.309   6.470  0.0844  0.0235  0.4726
  644MOL0     C84902   7.407   8.359   6.444 -0.2897 -0.4548  0.0952
  644MOL0     C84903   7.299   8.276   6.417 -0.4478  0.8778  0.7768
  644MOL0     C84904   7.314   8.136   6.418 -0.2701 -0.5217  0.0583
  644MOL0     C84905   7.202   8.049   6.405 -0.3816 -0.0943 -0.6487
  644MOL0     O84906   7.234   7.914   6.411 -0.0305  0.5313 -0.3474
  644MOL0     C84907   7.138   7.822   6.404  1.0076  0.1651  0.4341
  644MOL0     C84908   7.064   7.812   6.289  0.6587 -0.1172  0.8284
  644MOL0     C84909   6.967   7.714   6.270 -0.1336  0.2374  0.2248
  644MOL0     C84910   6.932   7.635   6.373  0.1873  0.0016 -0.5587
  644MOL0     O84911   6.816   7.554   6.367 -0.2201  0.5088  0.2695
  644MOL0     C84912   6.785   7.456   6.466  0.3405  0.5049 -0.0852
  644MOL0     C84913   6.686   7.367   6.402 -0.0110  0.5587  0.9605
  644MOL0     C84914   6.668   7.233   6.468 -0.4050 -0.7736  1.2694
  644MOL0     C84915   6.619   7.233   6.610 -0.4918 -0.6119  0.4646
  644MOL0     C84916   6.573   7.090   6.648  0.8325  0.1415  0.2998
  644MOL0     C84917   6.430   7.044   6.600  0.2562  0.5845  0.5432
  644MOL0     C84918   6.325   7.161   6.620 -0.1877 -0.2324  0.7489
  644MOL0     C84919   6.191   7.088   6.610  0.0900 -0.2027  0.4915
  644MOL0    Cl84920   6.057   7.202   6.637 -0.2482 -0.4538 -0.0006
  644MOL0     C84921   7.015   7.631   6.489  0.3609  0.1816  0.1227
  644MOL0     C84922   7.121   7.722   6.499 -0.2412  1.0045  0.4846
  644MOL0     O84923   7.089   8.098   6.398  0.3127 -0.0109  1.0212
  644MOL0     C84924   7.446   8.089   6.423  0.1166 -0.0314 -0.5132
  644MOL0     C84925   7.554   8.172   6.452 -0.2401 -0.0275 -1.2533
  644MOL0     N84926   7.393   8.797   6.815  0.6053 -0.5938 -1.1990
  644MOL0     N84927   7.402   8.928   6.811 -0.2281 -0.2653 -0.1252
  644MOL0     C84928   7.335   9.686   7.381 -0.5587 -0.5994 -1.0534
  644MOL0     C84929   7.322   9.824   7.356  0.5495  0.7140  0.5373
  644MOL0     C84930   7.126  10.227   7.366 -0.1108 -0.5947  0.7737
  644MOL0     C84931   7.165  10.333   7.450 -0.1580  1.1848  0.3006
  644MOL0     C84932   7.079  10.443   7.444  0.0349 -0.0654 -0.7566
  644MOL0     C84933   6.973  10.458   7.356 -0.5140 -0.0314  0.2356
  644MOL0     O84934   6.906  10.574   7.361 -0.3881 -0.0354 -0.4767
  644MOL0     C84935   6.776  10.588   7.292  0.7266  0.1487  0.8352
  644MOL0     C84936   6.720  10.729   7.289  0.2805 -0.3120  0.5706
  644MOL0     C84937   6.690  10.768   7.429 -0.0016  0.3202  0.0812
  644MOL0     C84938   6.650  10.918   7.444 -0.2105 -0.3525 -0.0824
  644MOL0     C84939   6.531  10.926   7.534  0.1297 -1.0805  0.1886
  644MOL0     C84940   6.442  10.903   7.610  0.8547  0.7239  0.9004
  644MOL0     C84941   6.942  10.356   7.271 -0.8921  0.5313 -0.6711
  644MOL0     C84942   7.020  10.239   7.268 -1.1917  0.1425 -0.9599
  644MOL0     H84943   7.012   9.810   7.216  1.2605  0.4534 -0.3212
  644MOL0     H84944   7.051   9.570   7.255 -1.6052  1.3970  0.1388
  644MOL0     H84945   7.250   9.320   7.487  1.3091  0.2843  0.7544
  644MOL0     H84946   7.285   9.477   7.555  0.2864  2.8095 -0.4845
  644MOL0     H84947   7.455   9.342   7.570 -1.5016 -0.9918 -0.1938
  644MOL0     H84948   7.508   9.466   7.441  2.3342 -2.0932 -2.3000
  644MOL0     H84949   7.439   9.312   7.264 -1.1736 -2.0597 -0.8343
  644MOL0     H84950   7.377   9.190   7.362 -0.8468  0.4620  2.1941
  644MOL0     H84951   7.644   9.222   7.452  1.7594  0.5591 -1.0642
  644MOL0     H84952   7.557   9.087   7.393  0.9390  0.6783  0.5232
  644MOL0     H84953   7.749   9.158   7.227  1.3605  2.2463 -1.1119
  644MOL0     H84954   7.660   9.308   7.194  2.2653 -0.7334 -1.5759
  644MOL0     H84955   7.467   9.175   7.095 -0.9585 -0.4974 -2.7029
  644MOL0     H84956   7.564   9.030   7.132 -1.7196  0.3726  2.5116
  644MOL0     H84957   7.655   9.272   6.970 -0.6707  0.7433  1.2823
  644MOL0     H84958   7.741   9.118   6.984 -0.0518  0.7512 -1.3965
  644MOL0     H84959   7.618   9.134   6.770 -0.5306  0.0114 -0.6592
  644MOL0     H84960   7.469   9.189   6.865  0.8599  1.8011 -1.5023
  644MOL0     H84961   7.685   8.863   6.964 -1.7705 -0.6622  2.4501
  644MOL0     H84962   7.463   8.557   6.893  1.0807 -0.8775  0.2821
  644MOL0     H84963   7.620   8.594   6.960  1.5977 -1.9809  0.0016
  644MOL0     H84964   7.639   8.467   6.755 -1.6712 -0.0896 -1.7796
  644MOL0     H84965   7.713   8.637   6.736  0.8157 -0.4496  0.9769
  644MOL0     H84966   7.445   8.571   6.631  0.6644  0.1427  2.3517
  644MOL0     H84967   7.555   8.712   6.616  0.8619  1.3745  1.2770
  644MOL0     H84968   7.724   8.577   6.523 -0.9000  1.7995 -0.6717
  644MOL0     H84969   7.596   8.565   6.415  0.8442  3.5077  0.9638
  644MOL0     H84970   7.386   8.465   6.453  1.0165  0.4019 -4.3119
  644MOL0     H84971   7.198   8.312   6.396  0.1666  0.6424 -3.4838
  644MOL0     H84972   7.072   7.882   6.206 -2.3253  0.7154  1.1498
  644MOL0     H84973   6.903   7.725   6.183  0.7920 -1.9343 -0.8244
  644MOL0     H84974   6.733   7.495   6.554 -1.9396 -0.4635 -0.9135
  644MOL0     H84975   6.875   7.406   6.502  1.2065  3.6851  2.6514
  644MOL0     H84976   6.711   7.341   6.299 -2.8166  2.2187 -0.2515
  644MOL0     H84977   6.590   7.420   6.397  1.0942  2.5356 -0.8204
  644MOL0     H84978   6.768   7.187   6.469  2.2171  4.2590  1.1863
  644MOL0     H84979   6.609   7.176   6.396  0.4237 -0.3115  0.2028
  644MOL0     H84980   6.699   7.262   6.679 -1.0000  1.8900  0.0868
  644MOL0     H84981   6.540   7.307   6.628  1.1147  1.2331  0.2368
  644MOL0     H84982   6.586   7.074   6.755 -2.5607  0.1051  0.8163
  644MOL0     H84983   6.643   7.018   6.605 -0.6216 -0.7770 -0.6366
  644MOL0     H84984   6.411   6.954   6.658 -1.1876  0.7392  0.3459
  644MOL0     H84985   6.432   7.015   6.495 -2.1029 -0.1933  0.6556
  644MOL0     H84986   6.337   7.196   6.723  4.1357 -2.5842  1.2908
  644MOL0     H84987   6.335   7.230   6.536  0.3584 -1.5156 -0.2792
  644MOL0     H84988   6.184   7.025   6.700 -1.7510 -1.2370 -0.3164
  644MOL0     H84989   6.181   7.023   6.522  0.6738  0.5730 -0.1574
  644MOL0     H84990   6.989   7.569   6.574 -0.0412  0.1343 -0.0337
  644MOL0     H84991   7.186   7.712   6.585  0.2547 -0.1134  0.0013
  644MOL0     H84992   7.454   7.982   6.413 -2.3147 -0.6055  2.1722
  644MOL0     H84993   7.648   8.131   6.487  0.5987  3.7623  1.5403
  644MOL0     H84994   7.436   9.657   7.408 -0.6890  0.1463  0.2713
  644MOL0     H84995   7.401   9.893   7.386  2.3784 -1.2667  0.4742
  644MOL0     H84996   7.250  10.330   7.516 -0.3762 -1.8412  0.5628
  644MOL0     H84997   7.102  10.522   7.514  3.7941  1.1115 -3.0209
  644MOL0     H84998   6.707  10.518   7.340  1.3593 -0.1442  1.3304
  644MOL0     H84999   6.778  10.548   7.191 -1.0910  0.9411  0.4499
  644MOL0     H85000   6.797  10.795   7.248 -1.5554  0.0347 -2.6218
  644MOL0     H85001   6.632  10.742   7.226  3.1476 -1.2722 -4.1017
  644MOL0     H85002   6.779  10.741   7.486  0.5714 -2.7417 -2.0539
  644MOL0     H85003   6.609  10.700   7.456 -1.5138  1.4426 -1.3970
  644MOL0     H85004   6.713  10.988   7.501 -1.8065  2.1134 -1.2222
  644MOL0     H85005   6.638  10.948   7.340  1.0722 -2.1402 -0.7954
  644MOL0     H85006   6.354  10.881   7.667  1.1520 -2.3624  0.3507
  644MOL0     H85007   6.870  10.364   7.191 -1.4015 -1.0348 -0.4162
  644MOL0     H85008   6.995  10.171   7.187 -0.1222  0.2201 -1.3737
  645MOL0     O85009  10.427   8.528   7.832  1.2214  0.1484  0.1435
  645MOL0     C85010  10.429   8.412   7.801 -0.6605 -0.4642  0.1106
  645MOL0     O85011  10.521   8.325   7.856  0.1948 -0.7716 -0.3315
  645MOL0     C85012  10.607   8.361   7.962  0.5401 -1.1586  1.3436
  645MOL0     C85013  10.677   8.481   7.962  0.7115  0.0188  0.1058
  645MOL0     C85014  10.786   8.508   8.052  0.8054 -0.1531  0.4591
  645MOL0     C85015  10.824   8.412   8.144 -0.2875  0.1509  0.2680
  645MOL0     O85016  10.938   8.430   8.206  0.0698 -0.5001 -0.4310
  645MOL0     C85017  10.934   8.417   8.344  0.4069 -0.8235 -0.0715
  645MOL0     C85018  10.902   8.551   8.411  0.4639 -0.0439 -0.2390
  645MOL0     C85019  10.750   8.570   8.421  0.8881  0.0687  0.4016
  645MOL0     C85020  10.717   8.715   8.486 -0.6514  0.3562 -0.3723
  645MOL0     C85021  10.573   8.770   8.479 -0.2428  0.0728 -0.6912
  645MOL0     C85022  10.478   8.697   8.577  0.3005 -0.2787  0.5967
  645MOL0     C85023  10.323   8.728   8.564  0.1728  1.0087 -0.3456
  645MOL0     C85024  10.240   8.657   8.678 -1.1684  0.8450 -0.0100
  645MOL0     N85025  10.102   8.632   8.638 -0.4038 -0.8797  0.0202
  645MOL0     C85026  10.062   8.550   8.535 -0.2253  0.3893 -0.8923
  645MOL0     C85027   9.927   8.567   8.514 -0.0380  0.0705  0.2297
  645MOL0     C85028   9.850   8.493   8.411 -0.2311 -0.3036  0.1678
  645MOL0     C85029   9.881   8.342   8.425 -0.3138  0.1479 -0.0393
  645MOL0     C85030   9.824   8.284   8.555  0.1215  0.6720 -0.7144
  645MOL0     C85031   9.927   8.243   8.661 -0.6766  0.1853  0.2810
  645MOL0     O85032   9.888   8.162   8.771  0.8500 -0.4131 -0.2945
  645MOL0     C85033   9.865   8.024   8.755  0.2343 -0.9172  0.4881
  645MOL0     C85034   9.807   7.968   8.861  1.1368 -0.1651 -0.0901
  645MOL0     C85035   9.754   7.840   8.850  0.8378  0.5467  0.7492
  645MOL0     C85036   9.754   7.767   8.729  0.6473  0.2179  0.5551
  645MOL0     C85037   9.705   7.627   8.727  0.1162  0.2178 -0.1482
  645MOL0     O85038   9.748   7.539   8.631 -0.5722  0.0114 -0.3672
  645MOL0     C85039   9.697   7.408   8.616  0.4886  0.5226  0.6350
  645MOL0     C85040   9.607   7.323   8.689  0.2992  0.7719 -0.9937
  645MOL0     C85041   9.579   7.192   8.648 -0.0237  0.0690 -0.1678
  645MOL0     C85042   9.635   7.141   8.528  0.5141 -0.5046 -0.0697
  645MOL0     O85043   9.606   7.024   8.473 -0.1166 -0.4711  0.0856
  645MOL0     C85044   9.593   6.910   8.566  0.0100 -0.6751 -0.0298
  645MOL0     C85045   9.443   6.881   8.584  0.5570  0.7415 -0.3994
  645MOL0     C85046   9.377   6.810   8.457  0.8724  0.6476  0.1920
  645MOL0     C85047   9.228   6.829   8.461  0.0202 -0.3035 -0.2276
  645MOL0     C85048   9.172   6.806   8.324 -0.1362  0.7344  0.9074
  645MOL0     C85049   9.015   6.833   8.335  0.1347 -0.0032 -0.6097
  645MOL0     C85050   8.938   6.852   8.200 -0.0951  0.7667  0.6034
  645MOL0     C85051   8.928   6.721   8.122 -0.1955  0.4800  0.0556
  645MOL0    Cl85052   8.905   6.756   7.941  0.1779  0.5403  0.2633
  645MOL0     C85053   9.732   7.217   8.461 -1.0006  0.2349 -0.3192
  645MOL0     C85054   9.769   7.347   8.515 -0.0053  0.1065  0.2662
  645MOL0     O85055   9.618   7.604   8.811  0.2111  0.8250 -0.3298
  645MOL0     C85056   9.809   7.828   8.621 -0.1186 -0.3693 -0.1475
  645MOL0     C85057   9.872   7.958   8.633  0.5582  0.2530  0.6725
  645MOL0     N85058   9.879   8.667   8.599  0.2326 -1.2306 -0.5091
  645MOL0     N85059   9.981   8.704   8.670 -0.0209 -0.5064 -0.1250
  645MOL0     C85060  10.759   8.286   8.142  0.1222 -0.2873 -1.1711
  645MOL0     C85061  10.647   8.262   8.054 -0.2975  0.0115 -0.2144
  645MOL0     C85062  10.347   8.364   7.693  0.1562  1.2616  0.9804
  645MOL0     C85063  10.271   8.449   7.606  0.4965 -0.4921 -0.3622
  645MOL0     C85064  10.191   8.396   7.494 -0.6629  0.6244  0.2429
  645MOL0     C85065  10.188   8.258   7.474 -0.4304 -0.9341 -0.3275
  645MOL0     O85066  10.097   8.219   7.376 -0.1714  0.4076 -0.8323
  645MOL0     C85067  10.157   8.218   7.248  0.4158  0.5185 -0.3914
  645MOL0     C85068  10.145   8.357   7.184  0.3714 -0.7239 -0.4920
  645MOL0     C85069  10.143   8.343   7.041  0.0156 -0.0198 -0.2523
  645MOL0     C85070  10.148   8.485   6.985  0.5601 -0.1839 -0.7403
  645MOL0     C85071  10.138   8.478   6.837  0.8369 -0.9283 -0.2359
  645MOL0     C85072  10.147   8.467   6.719 -0.0899  1.1244  0.4908
  645MOL0     C85073  10.269   8.174   7.553  0.5497  0.4435  1.2269
  645MOL0     C85074  10.346   8.224   7.664  0.6763  0.8028 -0.1020
  645MOL0     H85075  10.668   8.551   7.880  2.8247 -2.1345 -2.1282
  645MOL0     H85076  10.856   8.591   8.043  0.8735 -0.2238  0.3404
  645MOL0     H85077  11.035   8.391   8.376  1.6231  2.4226 -0.8282
  645MOL0     H85078  10.873   8.335   8.382  0.8622 -0.4818  1.4736
  645MOL0     H85079  10.950   8.639   8.368 -1.6872  1.4727  0.2913
  645MOL0     H85080  10.927   8.543   8.518 -0.7953 -3.5216 -0.0671
  645MOL0     H85081  10.714   8.487   8.483  1.3183 -0.2844  0.1764
  645MOL0     H85082  10.706   8.565   8.321  1.6329  1.4026 -0.0209
  645MOL0     H85083  10.756   8.718   8.588  1.8189 -0.0439 -1.2335
  645MOL0     H85084  10.784   8.774   8.424  0.1512 -1.1949 -1.0548
  645MOL0     H85085  10.536   8.768   8.376  1.7796  0.4547 -1.4941
  645MOL0     H85086  10.580   8.874   8.513 -1.6658  0.5581 -1.7795
  645MOL0     H85087  10.508   8.729   8.677  0.0081  3.4463 -0.3764
  645MOL0     H85088  10.493   8.589   8.570  1.0773 -0.0331 -3.5198
  645MOL0     H85089  10.294   8.833   8.567 -2.4099  0.3290  0.5142
  645MOL0     H85090  10.290   8.689   8.467  1.9552  1.3108 -1.1134
  645MOL0     H85091  10.249   8.713   8.771 -0.2160 -0.4977  0.7356
  645MOL0     H85092  10.290   8.563   8.700  2.8641  2.9208  0.7708
  645MOL0     H85093  10.140   8.489   8.490  1.2043  0.5491  1.2474
  645MOL0     H85094   9.890   8.528   8.315 -0.0464  3.6698  1.5313
  645MOL0     H85095   9.742   8.500   8.423 -0.8098 -4.3499 -0.9869
  645MOL0     H85096   9.989   8.326   8.412 -0.7374 -0.7378 -3.3064
  645MOL0     H85097   9.851   8.281   8.340 -1.8697 -1.4364  1.5777
  645MOL0     H85098   9.751   8.349   8.604  0.6325  1.0381 -0.4328
  645MOL0     H85099   9.768   8.196   8.521  1.2686  0.1952 -1.4630
  645MOL0     H85100   9.947   8.336   8.715 -1.1829  1.4099 -1.5485
  645MOL0     H85101  10.022   8.219   8.612 -0.8062  0.2009  0.0242
  645MOL0     H85102   9.799   8.012   8.959 -0.5650  0.9165 -0.6678
  645MOL0     H85103   9.708   7.791   8.935 -2.8847 -0.0957 -1.4140
  645MOL0     H85104   9.547   7.350   8.775  0.0758  0.9977 -1.2210
  645MOL0     H85105   9.499   7.144   8.703  0.5616 -0.6893  0.0378
  645MOL0     H85106   9.650   6.940   8.655 -1.6000 -0.4807  0.9752
  645MOL0     H85107   9.646   6.818   8.539 -1.5589 -1.7322  0.3770
  645MOL0     H85108   9.394   6.973   8.618  0.3795 -0.7599  4.0666
  645MOL0     H85109   9.433   6.819   8.673  2.2786  3.3731  1.8121
  645MOL0     H85110   9.410   6.706   8.448 -1.9160 -0.1815 -1.6164
  645MOL0     H85111   9.411   6.868   8.370 -1.7746 -0.1049 -1.4463
  645MOL0     H85112   9.177   6.758   8.527 -1.8930 -0.3113 -1.6333
  645MOL0     H85113   9.200   6.930   8.493 -0.1844 -0.6643  0.7614
  645MOL0     H85114   9.178   6.703   8.287 -1.4417  0.0263  2.5657
  645MOL0     H85115   9.226   6.870   8.253  2.3686 -3.6289 -1.6125
  645MOL0     H85116   9.001   6.924   8.393  0.3745  0.5861 -1.4425
  645MOL0     H85117   8.968   6.758   8.399 -0.2950  0.7276 -0.0580
  645MOL0     H85118   8.830   6.866   8.211 -0.7218 -2.4987 -0.3303
  645MOL0     H85119   8.990   6.928   8.141 -1.1820  0.3921 -0.8950
  645MOL0     H85120   8.841   6.667   8.159 -1.3552  2.2821  0.1032
  645MOL0     H85121   9.028   6.679   8.138 -0.5318  0.1340  1.3042
  645MOL0     H85122   9.769   7.179   8.366 -2.4339 -0.7268 -0.5211
  645MOL0     H85123   9.844   7.390   8.450 -1.9345  0.2267 -1.9811
  645MOL0     H85124   9.800   7.780   8.524 -3.3701 -2.8782  1.2040
  645MOL0     H85125   9.919   7.987   8.540 -0.7400  0.4476  0.0559
  645MOL0     H85126  10.797   8.222   8.221 -2.6498 -1.5558 -0.7412
  645MOL0     H85127  10.591   8.170   8.069 -0.2518  0.2779  1.7926
  645MOL0     H85128  10.265   8.554   7.630 -1.6197 -0.1206 -2.1907
  645MOL0     H85129  10.127   8.470   7.447 -1.5748 -1.7831 -2.5755
  645MOL0     H85130  10.110   8.137   7.191  1.8352 -0.0154 -0.8607
  645MOL0     H85131  10.259   8.180   7.243 -0.5553 -2.2260 -0.9172
  645MOL0     H85132  10.049   8.405   7.206  1.4384  2.5284 -2.2210
  645MOL0     H85133  10.229   8.421   7.214 -0.7785 -0.1892  1.8026
  645MOL0     H85134  10.058   8.280   7.014  1.6036 -3.3464  1.7794
  645MOL0     H85135  10.235   8.286   7.019 -1.5484 -3.0170  0.4302
  645MOL0     H85136  10.062   8.541   7.023  0.7533  0.8866 -1.8440
  645MOL0     H85137  10.239   8.536   7.018  0.5997 -0.3912 -0.5239
  645MOL0     H85138  10.170   8.474   6.614 -0.7673  1.6609  0.3700
  645MOL0     H85139  10.254   8.069   7.529 -2.4440  0.9214  0.5476
  645MOL0     H85140  10.399   8.153   7.727  0.4508  0.0834 -0.7098
  646MOL0     O85141   9.741  11.202   3.903 -0.0968 -0.8861 -0.6802
  646MOL0     C85142   9.685  11.293   3.850  0.5357  0.8790  0.0941
  646MOL0     O85143   9.660  11.411   3.909  0.3724  0.7012  0.4421
  646MOL0     C85144   9.702  11.426   4.037  0.5787  0.3854  0.0245
  646MOL0     C85145   9.614  11.400   4.141  0.5401  0.0447  0.6703
  646MOL0     C85146   9.665  11.386   4.274  0.7782  0.4472 -0.7688
  646MOL0     C85147   9.786  11.418   4.318 -0.5717 -0.0380  0.3255
  646MOL0     O85148   9.816  11.410   4.451  0.0781 -0.1525 -0.1501
  646MOL0     C85149   9.950  11.440   4.497  0.4953 -0.0455  1.1288
  646MOL0     C85150   9.941  11.411   4.647  0.3939 -0.2380  0.1119
  646MOL0     C85151   9.830  11.486   4.723  0.6332  0.3547  0.2398
  646MOL0     C85152   9.810  11.431   4.866 -0.8789 -0.5127  0.4907
  646MOL0     C85153   9.666  11.462   4.923  0.3799  0.1780 -0.2890
  646MOL0     C85154   9.636  11.372   5.043  0.5616 -0.5443  0.3149
  646MOL0     C85155   9.520  11.439   5.123  1.0090  0.2182  0.0362
  646MOL0     C85156   9.483  11.340   5.234 -0.0442 -0.7888  0.0433
  646MOL0     N85157   9.435  11.207   5.194 -0.1379  1.0001 -0.6777
  646MOL0     C85158   9.506  11.088   5.224 -1.0161 -0.1875 -0.2139
  646MOL0     C85159   9.429  10.994   5.176  0.4043 -0.0012  0.2566
  646MOL0     C85160   9.447  10.851   5.176 -0.0187  0.3309 -0.9213
  646MOL0     C85161   9.455  10.789   5.315  0.2753 -0.1102  0.4682
  646MOL0     C85162   9.496  10.642   5.312 -1.5111  0.2776  0.2389
  646MOL0     C85163   9.523  10.591   5.459 -0.8157 -0.5771  0.0613
  646MOL0     O85164   9.569  10.455   5.447  0.2759 -0.2068  0.4290
  646MOL0     C85165   9.701  10.426   5.438 -0.1814 -0.7270  0.7866
  646MOL0     C85166   9.798  10.485   5.518 -1.2233 -0.4092  0.1589
  646MOL0     C85167   9.937  10.447   5.506 -0.1937 -0.2270 -0.7741
  646MOL0     C85168   9.982  10.375   5.399  0.3522  0.4456  0.7215
  646MOL0     C85169  10.129  10.341   5.375 -0.5035 -0.9507 -0.8451
  646MOL0     O85170  10.219  10.386   5.468  0.5536  0.2739  0.7139
  646MOL0     C85171  10.347  10.384   5.440 -0.1283  0.3128 -0.8925
  646MOL0     C85172  10.393  10.495   5.368 -0.0986  0.3011  0.9480
  646MOL0     C85173  10.530  10.494   5.336 -0.0556  0.0028  0.2472
  646MOL0     C85174  10.619  10.402   5.384  0.2544 -0.1049 -0.0816
  646MOL0     O85175  10.753  10.413   5.337  0.3412  0.0457 -0.0287
  646MOL0     C85176  10.818  10.296   5.278  0.1727 -1.0206  0.1446
  646MOL0     C85177  10.966  10.329   5.248  0.0621  0.7965  0.0415
  646MOL0     C85178  11.000  10.403   5.121  0.5988  1.0139  0.7074
  646MOL0     C85179  11.149  10.429   5.113 -0.1814  0.0306  0.2163
  646MOL0     C85180  11.180  10.503   4.981 -0.1350 -0.0096 -0.0531
  646MOL0     C85181  11.329  10.473   4.950  0.9382  0.8297 -0.0228
  646MOL0     C85182  11.362  10.527   4.812  0.1476 -0.0392  0.3723
  646MOL0     C85183  11.399  10.420   4.710 -0.4770 -0.1402 -0.4807
  646MOL0    Cl85184  11.447  10.490   4.550 -0.0730  0.1494 -0.3754
  646MOL0     C85185  10.570  10.294   5.454  0.1785  0.9435  0.6870
  646MOL0     C85186  10.434  10.274   5.478  0.7011 -0.1610  0.0675
  646MOL0     O85187  10.150  10.301   5.264  0.1559 -0.7207  0.2584
  646MOL0     C85188   9.880  10.316   5.316 -0.0987  0.1833  0.8216
  646MOL0     C85189   9.746  10.342   5.342  0.9606  0.1936  0.4536
  646MOL0     N85190   9.314  11.050   5.128  0.4406  0.8898 -0.2043
  646MOL0     N85191   9.320  11.181   5.133  0.6133 -0.3448  0.0923
  646MOL0     C85192   9.877  11.453   4.215 -0.0851 -0.4785  0.0878
  646MOL0     C85193   9.835  11.452   4.082 -0.2280 -0.5591  0.5449
  646MOL0     C85194   9.616  11.272   3.722  0.0567  0.1090 -0.2160
  646MOL0     C85195   9.582  11.373   3.647  0.3856 -0.4183 -0.3074
  646MOL0     C85196   9.522  11.355   3.521  0.1874  0.7488 -0.3341
  646MOL0     C85197   9.488  11.226   3.474 -0.1896 -0.7078  0.2539
  646MOL0     O85198   9.409  11.220   3.363 -0.3469  0.5067  1.0352
  646MOL0     C85199   9.321  11.109   3.354  0.2061  0.4365 -0.2282
  646MOL0     C85200   9.248  11.120   3.214  0.1177  0.0198 -0.0751
  646MOL0     C85201   9.130  11.022   3.183  0.8737 -0.5086  0.3368
  646MOL0     C85202   9.027  11.007   3.297  0.1940 -0.8091 -1.0061
  646MOL0     C85203   8.931  10.901   3.266 -0.2640 -0.4713 -0.7141
  646MOL0     C85204   8.835  10.830   3.239 -0.3093 -0.5970 -0.2928
  646MOL0     C85205   9.544  11.121   3.545 -0.0392 -0.2869 -0.3603
  646MOL0     C85206   9.610  11.141   3.665  0.4919  0.8105  0.2355
  646MOL0     H85207   9.512  11.374   4.114  0.3720  1.8530 -0.6621
  646MOL0     H85208   9.593  11.359   4.351 -1.7801  0.1690 -3.1401
  646MOL0     H85209   9.973  11.544   4.472  1.8639 -0.8339 -1.2066
  646MOL0     H85210  10.025  11.374   4.452  1.1706  0.3776  1.6130
  646MOL0     H85211  10.045  11.429   4.678  0.4707  1.4221 -0.9542
  646MOL0     H85212   9.924  11.304   4.656  3.2457 -0.6986  1.0998
  646MOL0     H85213   9.734  11.461   4.677  0.7145 -1.8617  1.1660
  646MOL0     H85214   9.841  11.595   4.731  1.5885  0.6468 -3.3830
  646MOL0     H85215   9.829  11.324   4.857 -3.3201 -0.8259 -2.6796
  646MOL0     H85216   9.883  11.482   4.930 -0.8601  0.2182 -0.0932
  646MOL0     H85217   9.583  11.452   4.853 -0.2416 -2.0833  0.6786
  646MOL0     H85218   9.670  11.565   4.961  1.8212 -0.7766  2.4510
  646MOL0     H85219   9.717  11.342   5.110  0.2927 -1.7279  0.1451
  646MOL0     H85220   9.599  11.281   4.994 -1.7846 -2.0292  4.2925
  646MOL0     H85221   9.567  11.535   5.150 -0.9367  1.1172  0.4335
  646MOL0     H85222   9.429  11.458   5.065  0.6751  1.3325  0.8811
  646MOL0     H85223   9.414  11.385   5.306 -2.2623 -0.4474 -2.1521
  646MOL0     H85224   9.579  11.330   5.286  1.4845 -0.6125 -2.5831
  646MOL0     H85225   9.594  11.058   5.279 -0.2482 -4.2599 -3.1509
  646MOL0     H85226   9.536  10.849   5.111 -1.3000 -0.4370 -2.7288
  646MOL0     H85227   9.367  10.797   5.125  0.5454 -1.2849 -0.1685
  646MOL0     H85228   9.356  10.801   5.362  0.8073  3.4211  0.9133
  646MOL0     H85229   9.537  10.837   5.369  0.4739 -1.5534  1.5388
  646MOL0     H85230   9.419  10.581   5.264  0.1095  0.2201 -2.4934
  646MOL0     H85231   9.583  10.625   5.249 -1.0795 -0.0791  0.9151
  646MOL0     H85232   9.434  10.594   5.522  0.3770  0.3169  1.8081
  646MOL0     H85233   9.608  10.645   5.502 -1.0386  2.1595 -2.5563
  646MOL0     H85234   9.778  10.560   5.594  1.4323  2.6893 -1.8833
  646MOL0     H85235  10.012  10.463   5.583  1.2570 -1.5546 -1.8449
  646MOL0     H85236  10.315  10.558   5.328 -2.4148 -1.5250  2.3071
  646MOL0     H85237  10.566  10.572   5.269 -1.9224  0.9257  0.2449
  646MOL0     H85238  10.762  10.262   5.190  1.2241  1.2814 -1.5326
  646MOL0     H85239  10.816  10.216   5.352  1.1477  0.2795  1.6356
  646MOL0     H85240  11.024  10.236   5.253  1.1353  1.4479  0.2956
  646MOL0     H85241  11.003  10.389   5.332  0.3266 -1.9883  2.0320
  646MOL0     H85242  10.951  10.501   5.111  0.0288  0.7207  0.5799
  646MOL0     H85243  10.974  10.343   5.033  1.9552 -0.3864  1.2197
  646MOL0     H85244  11.186  10.492   5.194  2.7911 -1.4026  0.0973
  646MOL0     H85245  11.200  10.333   5.119 -0.5230 -0.3298 -1.7517
  646MOL0     H85246  11.163  10.610   4.999  0.3163 -0.2071  1.7480
  646MOL0     H85247  11.114  10.476   4.898  1.1759  0.4754 -1.2806
  646MOL0     H85248  11.345  10.365   4.950 -2.0491  0.2313  2.6261
  646MOL0     H85249  11.394  10.519   5.025 -1.0510  4.2904 -0.1811
  646MOL0     H85250  11.281  10.583   4.764 -0.1963 -0.2794  0.6615
  646MOL0     H85251  11.436  10.606   4.825  0.0540  0.3747 -1.4052
  646MOL0     H85252  11.312  10.354   4.701  1.1369 -2.6391  0.8160
  646MOL0     H85253  11.486  10.364   4.747  0.9184  2.1218 -0.1072
  646MOL0     H85254  10.638  10.222   5.499 -1.0705 -0.7458 -0.0104
  646MOL0     H85255  10.382  10.196   5.532  0.0728  0.5346  0.4891
  646MOL0     H85256   9.898  10.242   5.239 -0.6501  1.6622 -0.7836
  646MOL0     H85257   9.664  10.295   5.289 -2.1360  6.4222 -1.3367
  646MOL0     H85258   9.984  11.464   4.229  0.7962 -2.4592 -3.8056
  646MOL0     H85259   9.908  11.466   4.002 -0.2906  0.0269  0.5815
  646MOL0     H85260   9.577  11.473   3.689 -0.3959 -1.3201  1.8930
  646MOL0     H85261   9.480  11.438   3.465  0.2009  0.3827 -0.8981
  646MOL0     H85262   9.249  11.123   3.435 -0.6258  2.3443 -1.2403
  646MOL0     H85263   9.371  11.013   3.369  1.5491  1.2566  0.8917
  646MOL0     H85264   9.216  11.221   3.188  0.3102 -0.3709 -1.9805
  646MOL0     H85265   9.320  11.094   3.136 -0.6759  1.2998 -1.2933
  646MOL0     H85266   9.171  10.922   3.174 -2.3454 -2.0234  0.8439
  646MOL0     H85267   9.075  11.056   3.095  0.9278  1.4902  1.0049
  646MOL0     H85268   9.077  10.988   3.392  1.2669 -0.0859 -1.4162
  646MOL0     H85269   8.972  11.101   3.310  1.8193  0.1792 -1.0503
  646MOL0     H85270   8.758  10.761   3.214  0.4393 -1.3651 -0.5391
  646MOL0     H85271   9.523  11.021   3.509 -0.0141 -0.0408 -1.0631
  646MOL0     H85272   9.644  11.052   3.717 -2.3727 -1.2636 -1.1099
  647MOL0     O85273   7.908   6.123   6.922 -0.3516 -0.5606 -0.3461
  647MOL0     C85274   7.906   6.003   6.907  0.4206 -0.3696  0.4949
  647MOL0     O85275   7.799   5.924   6.934 -0.1861  0.0897  0.6163
  647MOL0     C85276   7.686   5.980   6.980  0.4713  0.9567  0.5230
  647MOL0     C85277   7.620   6.074   6.902 -0.2051  0.5571 -0.0514
  647MOL0     C85278   7.494   6.124   6.943 -0.8721 -1.0647  0.6197
  647MOL0     C85279   7.425   6.071   7.051  0.2876  0.4051 -0.0671
  647MOL0     O85280   7.314   6.138   7.089 -0.1418 -0.9861  0.0906
  647MOL0     C85281   7.212   6.073   7.155 -0.1052  0.2776 -0.2947
  647MOL0     C85282   7.091   6.177   7.172  0.2398  0.0228  0.2694
  647MOL0     C85283   7.015   6.187   7.039 -0.6468  0.3706  0.7061
  647MOL0     C85284   6.894   6.285   7.061 -0.5465 -0.2591 -0.2877
  647MOL0     C85285   6.792   6.290   6.952  0.9736 -0.0731  0.7332
  647MOL0     C85286   6.724   6.150   6.944  0.3876  0.3549 -0.1417
  647MOL0     C85287   6.603   6.173   6.845  0.0391  0.2076  0.4908
  647MOL0     C85288   6.513   6.057   6.817 -0.9486 -0.4218  0.3642
  647MOL0     N85289   6.450   6.084   6.682 -0.3647  0.0861  0.5093
  647MOL0     C85290   6.507   6.074   6.558 -0.3554 -0.6874 -0.7642
  647MOL0     C85291   6.398   6.094   6.466  0.2538 -0.8976  0.1750
  647MOL0     C85292   6.404   6.081   6.320 -0.4373 -0.3721  0.2634
  647MOL0     C85293   6.472   5.950   6.278  1.0455 -0.7027  0.5166
  647MOL0     C85294   6.489   5.947   6.126 -0.4787  0.1596  1.1728
  647MOL0     C85295   6.549   5.816   6.070 -0.8874 -0.8405  0.6732
  647MOL0     O85296   6.452   5.705   6.092  0.0439 -0.5661  0.3165
  647MOL0     C85297   6.509   5.587   6.123 -0.0466 -0.3422  0.1218
  647MOL0     C85298   6.641   5.542   6.083  0.6684  0.5186  0.6464
  647MOL0     C85299   6.694   5.421   6.123  0.5807 -0.3687 -1.1992
  647MOL0     C85300   6.628   5.331   6.210 -0.4109 -0.6337 -0.7413
  647MOL0     C85301   6.688   5.203   6.245  1.0586  0.8388  0.6297
  647MOL0     O85302   6.609   5.124   6.325 -0.2126 -0.2469  0.5637
  647MOL0     C85303   6.628   4.991   6.348 -0.1301 -0.9079 -0.1973
  647MOL0     C85304   6.740   4.899   6.320 -1.2505  0.6148  0.2739
  647MOL0     C85305   6.735   4.765   6.349  0.1810 -0.5991 -0.4161
  647MOL0     C85306   6.616   4.708   6.383  0.9011 -0.9341 -0.6670
  647MOL0     O85307   6.586   4.574   6.404 -0.2541 -0.0993  0.2818
  647MOL0     C85308   6.582   4.522   6.537  0.2927 -0.8878 -0.4147
  647MOL0     C85309   6.517   4.387   6.528 -0.2751 -0.0736 -1.0149
  647MOL0     C85310   6.608   4.277   6.474 -0.2432 -0.6676 -0.8218
  647MOL0     C85311   6.525   4.148   6.487 -0.6891  1.4188  0.5433
  647MOL0     C85312   6.592   4.021   6.456 -1.7569  0.5359  0.6942
  647MOL0     C85313   6.493   3.901   6.482  0.0583  0.3951  0.4839
  647MOL0     C85314   6.419   3.868   6.358  0.8305 -0.2076  0.1036
  647MOL0     C85315   6.327   3.751   6.390  0.0700  0.4492 -0.6143
  647MOL0    Cl85316   6.166   3.779   6.479 -0.0325  0.0009  0.3790
  647MOL0     C85317   6.515   4.795   6.432 -0.1622 -0.2725 -0.1286
  647MOL0     C85318   6.521   4.931   6.414 -0.1533 -0.4827 -0.0742
  647MOL0     O85319   6.776   5.160   6.170  0.2256 -0.4507  0.6522
  647MOL0     C85320   6.510   5.382   6.266  0.6743 -0.1055 -0.7551
  647MOL0     C85321   6.452   5.506   6.216  0.9212  0.1106 -0.3597
  647MOL0     N85322   6.290   6.126   6.548  0.2250  0.2652  0.0861
  647MOL0     N85323   6.321   6.111   6.675  0.1563  0.0687  0.2053
  647MOL0     C85324   7.482   5.958   7.120 -0.2541 -0.2752 -0.2526
  647MOL0     C85325   7.610   5.921   7.086  0.0291  0.4262 -0.7207
  647MOL0     C85326   8.040   5.933   6.876 -0.1304  0.0269 -0.1225
  647MOL0     C85327   8.156   6.005   6.848  0.1007  0.1506  0.1915
  647MOL0     C85328   8.272   5.937   6.801 -0.0839 -0.2912 -0.2384
  647MOL0     C85329   8.279   5.791   6.791  0.6438 -0.7342  0.2207
  647MOL0     O85330   8.385   5.708   6.766  0.4164 -0.1047  0.1065
  647MOL0     C85331   8.500   5.772   6.717  0.4968 -0.4900  0.4682
  647MOL0     C85332   8.628   5.679   6.710  0.2118 -0.4035  0.1224
  647MOL0     C85333   8.734   5.770   6.670 -0.4726  0.1569 -0.0600
  647MOL0     C85334   8.864   5.696   6.657 -0.5658  0.0138 -0.0708
  647MOL0     C85335   8.984   5.787   6.660  1.1857  0.2054 -1.0883
  647MOL0     C85336   9.087   5.852   6.660 -0.1101 -0.1050 -0.4189
  647MOL0     C85337   8.159   5.730   6.821  0.1616  0.2658  0.4190
  647MOL0     C85338   8.040   5.793   6.859  0.0742  0.8050  0.2929
  647MOL0     H85339   7.672   6.122   6.819  3.9661 -0.6869  1.5793
  647MOL0     H85340   7.459   6.205   6.880  2.5854 -1.3191 -1.9628
  647MOL0     H85341   7.255   6.049   7.252  1.9144 -0.0505 -1.2137
  647MOL0     H85342   7.178   5.984   7.100  1.4014 -0.6768  0.2687
  647MOL0     H85343   7.137   6.272   7.198  0.5880 -0.2815  0.7778
  647MOL0     H85344   7.033   6.144   7.259 -0.2196  0.2878  0.0682
  647MOL0     H85345   6.979   6.090   7.004  0.1894  1.4029 -3.5443
  647MOL0     H85346   7.079   6.226   6.959  0.2273 -0.7098  0.8568
  647MOL0     H85347   6.841   6.264   7.154 -2.4547 -1.3743 -1.5691
  647MOL0     H85348   6.940   6.383   7.075 -0.2648 -0.5842  1.1817
  647MOL0     H85349   6.844   6.324   6.861 -3.2783  2.7755 -0.9589
  647MOL0     H85350   6.722   6.372   6.970  1.0035  0.5427 -1.5906
  647MOL0     H85351   6.686   6.113   7.040  0.6450 -1.4861 -0.7144
  647MOL0     H85352   6.785   6.066   6.911 -0.9471 -0.6295 -0.1994
  647MOL0     H85353   6.547   6.257   6.888 -1.1742 -0.9348  1.2157
  647MOL0     H85354   6.646   6.185   6.745 -0.7901  0.4631  0.1570
  647MOL0     H85355   6.441   6.050   6.899 -0.5678 -4.9373  0.5893
  647MOL0     H85356   6.581   5.971   6.815 -0.1412  0.2140 -0.7411
  647MOL0     H85357   6.607   6.057   6.520 -0.6197 -0.7293 -1.4388
  647MOL0     H85358   6.450   6.167   6.273 -1.2520  1.1539  2.1135
  647MOL0     H85359   6.308   6.100   6.271  0.3843  2.9067 -0.2924
  647MOL0     H85360   6.403   5.868   6.301  0.9988 -0.8628 -0.1839
  647MOL0     H85361   6.572   5.932   6.317  2.7296  0.4770 -2.8433
  647MOL0     H85362   6.392   5.950   6.076 -0.5695  0.7739  1.3845
  647MOL0     H85363   6.549   6.037   6.107  0.0823  0.2740  3.2222
  647MOL0     H85364   6.650   5.809   6.111  0.0054 -2.0367 -1.5404
  647MOL0     H85365   6.568   5.828   5.963 -1.0105 -1.6157  0.5616
  647MOL0     H85366   6.677   5.602   6.000 -0.8030 -0.0111 -0.4214
  647MOL0     H85367   6.789   5.393   6.079  1.3217 -1.5128  0.9801
  647MOL0     H85368   6.833   4.936   6.278 -0.8050 -1.7640 -0.9750
  647MOL0     H85369   6.815   4.693   6.334  0.4522 -0.0104 -2.0090
  647MOL0     H85370   6.521   4.587   6.600  3.0313 -1.0472  2.7178
  647MOL0     H85371   6.682   4.519   6.581  0.8144 -1.8655 -1.6024
  647MOL0     H85372   6.422   4.406   6.476 -0.1437  2.2568 -0.5069
  647MOL0     H85373   6.489   4.379   6.633  1.0981  1.3589 -0.5035
  647MOL0     H85374   6.696   4.275   6.539 -0.0946  0.5535 -0.9650
  647MOL0     H85375   6.632   4.308   6.372  1.0221  3.2676  0.4850
  647MOL0     H85376   6.476   4.138   6.584 -1.0580  3.2315  0.5760
  647MOL0     H85377   6.435   4.162   6.428  0.2043  2.6137 -0.6006
  647MOL0     H85378   6.681   4.013   6.520 -1.0123 -0.4761 -0.4176
  647MOL0     H85379   6.644   4.012   6.360 -2.4341  1.5362  0.2290
  647MOL0     H85380   6.432   3.927   6.569  0.8611  0.0191  1.1762
  647MOL0     H85381   6.554   3.814   6.507  0.5519 -0.2275 -2.4563
  647MOL0     H85382   6.342   3.944   6.337 -0.2806 -1.5027 -0.7106
  647MOL0     H85383   6.481   3.864   6.268 -1.3812  0.6269 -1.5782
  647MOL0     H85384   6.381   3.670   6.440 -1.6586 -0.9786 -0.9320
  647MOL0     H85385   6.307   3.707   6.292 -0.6266  1.1611 -0.8044
  647MOL0     H85386   6.428   4.758   6.487 -1.0836 -2.2230 -2.6884
  647MOL0     H85387   6.440   4.996   6.447 -0.2744 -0.1350 -1.0324
  647MOL0     H85388   6.455   5.326   6.341 -1.2660  3.6098  0.8349
  647MOL0     H85389   6.350   5.540   6.235  0.6262 -0.5585 -0.7038
  647MOL0     H85390   7.443   5.897   7.201  1.9649  0.0246  1.1165
  647MOL0     H85391   7.662   5.840   7.136 -0.7552  1.8236  2.5627
  647MOL0     H85392   8.163   6.112   6.866  1.9883  0.3440 -1.2616
  647MOL0     H85393   8.355   6.002   6.777  1.1088 -2.0621 -1.1305
  647MOL0     H85394   8.518   5.861   6.779 -3.4143  0.4036  0.5811
  647MOL0     H85395   8.481   5.811   6.617 -1.4284  0.8668  1.2833
  647MOL0     H85396   8.641   5.631   6.808 -0.3827  2.3347  1.6805
  647MOL0     H85397   8.628   5.609   6.627  3.8362  3.2713 -3.4733
  647MOL0     H85398   8.748   5.853   6.740  2.8381 -1.6150  1.6621
  647MOL0     H85399   8.696   5.818   6.579 -2.5550 -2.5218 -0.7302
  647MOL0     H85400   8.893   5.614   6.723 -1.0823 -1.9218 -2.1219
  647MOL0     H85401   8.876   5.649   6.559  1.0481 -3.9439  1.8122
  647MOL0     H85402   9.180   5.905   6.672  0.7448 -1.9230  1.6960
  647MOL0     H85403   8.152   5.624   6.797 -1.8773 -0.0614  2.1115
  647MOL0     H85404   7.949   5.735   6.869  0.1616  0.4075 -0.9753
  648MOL0     O85405   8.525   2.035   2.316  0.6491  0.0568  0.2772
  648MOL0     C85406   8.484   2.136   2.362  0.8391 -0.2916  0.2700
  648MOL0     O85407   8.544   2.223   2.441 -0.2713  0.4949 -0.4823
  648MOL0     C85408   8.673   2.202   2.482  0.0454 -0.9170  0.0700
  648MOL0     C85409   8.737   2.074   2.502  0.3218 -0.3852 -0.0145
  648MOL0     C85410   8.874   2.070   2.548  0.1621  0.0280  0.1084
  648MOL0     C85411   8.952   2.182   2.565  0.7419 -0.1553 -0.0765
  648MOL0     O85412   9.078   2.182   2.612 -0.1975  0.5431 -0.5255
  648MOL0     C85413   9.096   2.079   2.709  0.4420 -0.1986 -0.9808
  648MOL0     C85414   9.232   2.100   2.776 -0.9295 -0.2751 -0.5255
  648MOL0     C85415   9.267   1.981   2.870  0.0743 -0.0913  0.8961
  648MOL0     C85416   9.400   1.994   2.947 -0.0657  0.4467  0.6944
  648MOL0     C85417   9.398   2.087   3.066  0.4348 -0.1743  0.0794
  648MOL0     C85418   9.542   2.139   3.104  0.1144  0.3695  0.0018
  648MOL0     C85419   9.556   2.184   3.250 -0.3761 -1.1263  0.4881
  648MOL0     C85420   9.699   2.254   3.278 -0.0179 -0.5771  0.6195
  648MOL0     N85421   9.710   2.397   3.240  0.1474 -0.9756  0.5446
  648MOL0     C85422   9.824   2.468   3.249 -0.2266  0.3402  0.1023
  648MOL0     C85423   9.794   2.589   3.200  0.1660 -0.2892 -0.6545
  648MOL0     C85424   9.904   2.694   3.192 -0.0192  0.1429  0.3103
  648MOL0     C85425   9.934   2.774   3.321  0.2753  0.3229 -0.4185
  648MOL0     C85426   9.813   2.836   3.387  0.0932  0.1862 -0.4604
  648MOL0     C85427   9.761   2.973   3.347 -0.0355  0.5804 -0.1960
  648MOL0     O85428   9.668   3.020   3.454  0.1363  0.5127  0.0710
  648MOL0     C85429   9.566   3.111   3.419 -0.0865  1.3169 -1.1518
  648MOL0     C85430   9.595   3.199   3.314 -0.0591 -0.5774  0.0996
  648MOL0     C85431   9.508   3.304   3.272 -0.6546 -0.1630  0.0545
  648MOL0     C85432   9.392   3.327   3.350  1.2266 -0.5531 -0.2023
  648MOL0     C85433   9.293   3.435   3.306  0.8983  0.0032  0.0978
  648MOL0     O85434   9.331   3.524   3.218  0.1055  0.4291  0.0928
  648MOL0     C85435   9.255   3.622   3.157  0.1802 -0.1735 -0.5451
  648MOL0     C85436   9.114   3.650   3.173 -1.6768  0.3504  1.0374
  648MOL0     C85437   9.056   3.764   3.116  0.0062  0.5417  0.5304
  648MOL0     C85438   9.133   3.852   3.033 -0.4572  0.5501 -0.4742
  648MOL0     O85439   9.056   3.958   2.992 -0.1421 -0.1920 -0.3138
  648MOL0     C85440   9.140   4.070   2.947  0.4216 -0.0854 -1.0116
  648MOL0     C85441   9.041   4.189   2.939  0.1000 -0.0594 -0.1314
  648MOL0     C85442   9.117   4.316   2.909  0.1835 -0.8201  0.1965
  648MOL0     C85443   9.025   4.436   2.932  0.2273 -0.5656  0.2771
  648MOL0     C85444   9.090   4.570   2.892  0.8747  0.2029 -0.5720
  648MOL0     C85445   9.058   4.633   2.754 -0.9715 -0.5595  0.2143
  648MOL0     C85446   9.095   4.534   2.641 -0.3617  0.1501 -0.1130
  648MOL0     C85447   9.084   4.605   2.503  0.1194 -0.8344 -0.0880
  648MOL0    Cl85448   8.922   4.648   2.436 -0.1313  0.1773  0.2297
  648MOL0     C85449   9.266   3.830   3.006 -0.1471  0.3014 -0.2347
  648MOL0     C85450   9.324   3.720   3.075  0.1826  0.0796  0.3484
  648MOL0     O85451   9.190   3.445   3.362 -1.4937 -0.4673 -1.0760
  648MOL0     C85452   9.361   3.246   3.462 -0.0456  0.5950 -0.4435
  648MOL0     C85453   9.442   3.131   3.491  0.9596 -0.0556  0.6256
  648MOL0     N85454   9.654   2.588   3.166 -0.0202  0.3809 -0.7299
  648MOL0     N85455   9.601   2.478   3.202  0.9318 -0.2544  0.0217
  648MOL0     C85456   8.886   2.310   2.552  0.2339 -0.1225 -0.2885
  648MOL0     C85457   8.747   2.316   2.507  0.5942 -0.0486 -0.0371
  648MOL0     C85458   8.340   2.164   2.345 -0.0741 -0.0629 -0.7515
  648MOL0     C85459   8.283   2.268   2.419  0.0807 -0.1283  0.4378
  648MOL0     C85460   8.136   2.294   2.408  0.1287 -0.7328 -1.1683
  648MOL0     C85461   8.055   2.202   2.343  0.5411 -0.3393 -0.2909
  648MOL0     O85462   7.917   2.218   2.339 -0.4606  0.2454  0.4602
  648MOL0     C85463   7.821   2.128   2.288 -0.5119 -0.5396 -0.4991
  648MOL0     C85464   7.803   2.140   2.129 -0.5326  0.2848 -0.5225
  648MOL0     C85465   7.729   2.268   2.093 -0.0294 -0.4247  0.5622
  648MOL0     C85466   7.755   2.318   1.949 -0.7784 -0.2873  1.0062
  648MOL0     C85467   7.703   2.224   1.848 -0.0229  0.7500 -0.3996
  648MOL0     C85468   7.681   2.127   1.769 -0.2060 -0.0151  0.3495
  648MOL0     C85469   8.114   2.103   2.262  0.8066  0.3999  0.1046
  648MOL0     C85470   8.255   2.086   2.266  0.3417  0.5285 -0.2072
  648MOL0     H85471   8.687   1.983   2.469 -0.2329  0.3518 -1.3028
  648MOL0     H85472   8.908   1.968   2.540 -0.2289 -0.0647 -0.4255
  648MOL0     H85473   9.106   1.987   2.649  0.7765 -1.0697  0.3694
  648MOL0     H85474   9.014   2.082   2.781  1.6042  0.1511  0.3703
  648MOL0     H85475   9.229   2.191   2.836 -3.0589 -1.1365  0.7935
  648MOL0     H85476   9.318   2.103   2.708 -1.4940  1.2769 -1.1974
  648MOL0     H85477   9.292   1.906   2.795 -0.0976  2.0419 -1.4587
  648MOL0     H85478   9.190   1.953   2.943  0.5917 -1.3142  0.9875
  648MOL0     H85479   9.426   1.899   2.996 -5.1793 -1.8491 -0.3245
  648MOL0     H85480   9.482   2.027   2.883  1.3525  1.8497  3.1175
  648MOL0     H85481   9.351   2.059   3.160 -1.4296  1.7824 -0.1865
  648MOL0     H85482   9.337   2.172   3.035  0.8361  0.3701  0.7477
  648MOL0     H85483   9.581   2.221   3.042  2.0267  0.8313  1.7010
  648MOL0     H85484   9.610   2.055   3.091  1.6016  1.9171 -3.1784
  648MOL0     H85485   9.475   2.254   3.273  2.1523  1.9263  0.7484
  648MOL0     H85486   9.549   2.096   3.314 -2.1939 -0.4767  1.2534
  648MOL0     H85487   9.785   2.201   3.237  0.1841 -2.2955  3.0185
  648MOL0     H85488   9.716   2.254   3.387  1.0458 -1.7133  0.4801
  648MOL0     H85489   9.911   2.431   3.302 -3.4662  0.2423  6.4364
  648MOL0     H85490   9.896   2.765   3.110  3.2773  0.8672  0.4825
  648MOL0     H85491   9.995   2.637   3.168 -0.8649 -1.4499  0.7253
  648MOL0     H85492  10.001   2.860   3.313  2.0553 -0.5230  3.2018
  648MOL0     H85493   9.992   2.715   3.392  1.0504  0.1938 -1.1379
  648MOL0     H85494   9.731   2.765   3.369  1.4220 -1.2403 -1.0875
  648MOL0     H85495   9.818   2.845   3.496 -0.9796 -0.3563 -0.3454
  648MOL0     H85496   9.720   2.969   3.246 -2.0404  1.3433  0.5354
  648MOL0     H85497   9.837   3.052   3.345 -1.1216  1.7047  0.7367
  648MOL0     H85498   9.685   3.188   3.254 -0.1325 -0.7476  0.0206
  648MOL0     H85499   9.528   3.369   3.187 -2.3413 -0.1997 -0.4092
  648MOL0     H85500   9.048   3.587   3.233  1.1332 -2.0161  1.8989
  648MOL0     H85501   8.950   3.783   3.130 -0.3576 -3.0897  5.1998
  648MOL0     H85502   9.186   4.057   2.848 -1.7366 -1.5256 -1.9015
  648MOL0     H85503   9.218   4.095   3.019 -1.3806  0.9441  0.6793
  648MOL0     H85504   8.980   4.209   3.027 -1.1044 -0.6657 -0.8001
  648MOL0     H85505   8.975   4.169   2.854  1.2787  1.6217 -1.5268
  648MOL0     H85506   9.159   4.314   2.808  0.0663 -0.4172  0.1392
  648MOL0     H85507   9.202   4.324   2.978  0.1688  0.2246  0.0980
  648MOL0     H85508   8.946   4.436   2.857  1.4894  1.2604 -1.1572
  648MOL0     H85509   8.993   4.448   3.036 -2.0340 -1.6936 -0.2186
  648MOL0     H85510   9.198   4.551   2.890  1.0172  1.0199 -2.2735
  648MOL0     H85511   9.067   4.640   2.972  1.1104 -2.3919  1.9023
  648MOL0     H85512   9.130   4.714   2.738  1.1180 -2.6320 -1.5879
  648MOL0     H85513   8.954   4.666   2.743 -0.9765 -1.0242 -1.4433
  648MOL0     H85514   9.199   4.504   2.656 -0.2482  1.8638  3.8632
  648MOL0     H85515   9.038   4.441   2.653 -0.2669  0.1433  0.3111
  648MOL0     H85516   9.133   4.552   2.420 -1.1614  1.0089 -2.1306
  648MOL0     H85517   9.143   4.697   2.505  0.0496 -0.7640 -0.8271
  648MOL0     H85518   9.328   3.888   2.938  1.5233 -0.1744  0.8181
  648MOL0     H85519   9.432   3.706   3.064 -0.4819 -4.5505 -3.7545
  648MOL0     H85520   9.263   3.254   3.508  0.1472 -2.7938  0.8309
  648MOL0     H85521   9.414   3.061   3.569 -0.5597 -0.3589 -0.1616
  648MOL0     H85522   8.941   2.396   2.589  1.2427 -2.2453  3.7348
  648MOL0     H85523   8.682   2.403   2.508 -0.7518 -1.0204 -0.5335
  648MOL0     H85524   8.345   2.318   2.493  1.1876 -2.3185  1.0539
  648MOL0     H85525   8.080   2.353   2.480 -2.9399 -2.8033 -1.6772
  648MOL0     H85526   7.719   2.148   2.325 -1.2153 -1.1324 -2.0708
  648MOL0     H85527   7.852   2.030   2.324 -0.3992 -0.2556  0.2118
  648MOL0     H85528   7.901   2.141   2.081 -0.1755  3.1944  0.0582
  648MOL0     H85529   7.738   2.061   2.090 -1.9456  1.0191  0.2733
  648MOL0     H85530   7.755   2.346   2.165  1.8157  2.4391 -2.8853
  648MOL0     H85531   7.622   2.250   2.108 -0.8205  0.6764 -2.8449
  648MOL0     H85532   7.699   2.411   1.935 -0.6719 -0.4091 -0.3576
  648MOL0     H85533   7.861   2.335   1.926 -0.4190 -1.6074  1.5792
  648MOL0     H85534   7.645   2.039   1.719 -1.5647 -0.3084  1.7589
  648MOL0     H85535   8.048   2.041   2.203 -2.4462  3.1042  0.6066
  648MOL0     H85536   8.311   2.011   2.211  0.7450  1.5623 -1.2507
  649MOL0     O85537   1.654   3.773   1.637  0.0078 -0.0185 -0.0751
  649MOL0     C85538   1.767   3.814   1.662 -0.5822  1.0158  1.2679
  649MOL0     O85539   1.815   3.831   1.791 -0.0718  0.0630  0.1577
  649MOL0     C85540   1.723   3.831   1.893  0.0466 -0.0080  0.2675
  649MOL0     C85541   1.683   3.949   1.961 -0.4646 -0.0408  0.5505
  649MOL0     C85542   1.586   3.944   2.064 -1.0239  0.2096  1.3881
  649MOL0     C85543   1.546   3.814   2.111 -0.0193 -0.1670 -0.0649
  649MOL0     O85544   1.449   3.809   2.212  1.1377  0.0459  0.4945
  649MOL0     C85545   1.358   3.698   2.221 -0.1490  0.2506  0.2754
  649MOL0     C85546   1.259   3.720   2.333 -0.2001 -0.3382  0.3349
  649MOL0     C85547   1.308   3.688   2.471 -0.7216  0.6923 -0.4231
  649MOL0     C85548   1.193   3.627   2.557 -0.7342  0.7514  0.6575
  649MOL0     C85549   1.206   3.646   2.705 -0.8065  0.3740  0.0489
  649MOL0     C85550   1.220   3.782   2.760  0.6387 -0.9156 -1.4172
  649MOL0     C85551   1.176   3.790   2.912 -0.3801 -0.1337  1.1008
  649MOL0     C85552   1.022   3.833   2.904  0.3377 -0.9218 -0.4392
  649MOL0     N85553   0.945   3.792   3.023 -0.3744 -1.0894  0.6547
  649MOL0     C85554   0.890   3.675   3.028  0.3653  0.7598 -0.5578
  649MOL0     C85555   0.831   3.676   3.151  0.7114  0.6965  0.6866
  649MOL0     C85556   0.760   3.575   3.225  0.1015 -0.2746 -0.7222
  649MOL0     C85557   0.842   3.442   3.254 -0.7204 -0.6973 -0.0507
  649MOL0     C85558   0.978   3.481   3.303 -1.0610 -0.5845 -0.5951
  649MOL0     C85559   1.043   3.361   3.370  0.6876  0.2231 -0.2298
  649MOL0     O85560   1.054   3.263   3.264 -0.8512  0.4480 -0.1620
  649MOL0     C85561   1.180   3.220   3.266 -0.3895  0.3494  0.3496
  649MOL0     C85562   1.222   3.123   3.363  0.8646 -0.9096 -1.2881
  649MOL0     C85563   1.348   3.063   3.373  0.3406 -0.6929 -0.2983
  649MOL0     C85564   1.440   3.106   3.274 -0.7309 -0.1687 -0.7423
  649MOL0     C85565   1.582   3.052   3.284  0.6952  0.1915 -0.0731
  649MOL0     O85566   1.594   2.922   3.339  0.5654 -0.3114  0.5322
  649MOL0     C85567   1.714   2.854   3.345 -0.0786 -0.1191  1.6098
  649MOL0     C85568   1.817   2.858   3.247  0.0828 -0.6458  0.6842
  649MOL0     C85569   1.934   2.790   3.259  0.5272  0.1985  0.1106
  649MOL0     C85570   1.951   2.717   3.380  0.3074 -0.1719  0.2424
  649MOL0     O85571   2.066   2.649   3.404  1.1968  0.4422 -0.0842
  649MOL0     C85572   2.192   2.712   3.364  0.0978 -0.8791  0.5475
  649MOL0     C85573   2.295   2.677   3.467 -0.1943  0.3354 -0.2115
  649MOL0     C85574   2.288   2.775   3.578  0.3310  0.2745 -0.2844
  649MOL0     C85575   2.374   2.718   3.684 -0.7016 -0.0340 -0.2895
  649MOL0     C85576   2.404   2.838   3.781  0.4959  1.2544  0.1964
  649MOL0     C85577   2.522   2.820   3.871  0.6748  0.0863  0.0690
  649MOL0     C85578   2.664   2.856   3.815 -0.7291 -0.1935  0.5373
  649MOL0     C85579   2.778   2.773   3.873  0.6569 -0.1506 -0.3439
  649MOL0    Cl85580   2.746   2.605   3.818 -0.2945  0.2280  0.3412
  649MOL0     C85581   1.856   2.718   3.481  0.5022 -0.4264 -0.3268
  649MOL0     C85582   1.731   2.777   3.453 -0.8094  0.2254 -0.0047
  649MOL0     O85583   1.669   3.125   3.242  0.1202 -0.6056 -0.8269
  649MOL0     C85584   1.406   3.207   3.179 -0.8447 -0.3570  0.0430
  649MOL0     C85585   1.276   3.256   3.171 -0.6090 -0.1285  0.1849
  649MOL0     N85586   0.857   3.796   3.209  0.6085  0.4780 -0.3110
  649MOL0     N85587   0.921   3.877   3.131  0.3505 -0.6656 -0.5419
  649MOL0     C85588   1.596   3.694   2.058 -0.7253 -0.7466 -0.2031
  649MOL0     C85589   1.685   3.705   1.946  0.2868 -0.9088  0.9976
  649MOL0     C85590   1.844   3.837   1.538 -0.1780 -0.9109 -0.4726
  649MOL0     C85591   1.945   3.940   1.539  0.2494 -0.5124  0.5637
  649MOL0     C85592   2.018   3.974   1.423 -0.3783 -0.0080  0.2064
  649MOL0     C85593   2.001   3.903   1.301  1.5795 -0.1785 -0.0884
  649MOL0     O85594   2.074   3.929   1.189 -0.0008 -0.1500 -0.1554
  649MOL0     C85595   2.123   3.822   1.105 -0.4370 -0.6104  0.3866
  649MOL0     C85596   2.068   3.831   0.963 -0.4933  0.1571  0.6718
  649MOL0     C85597   2.127   3.708   0.874 -0.1295 -1.0652 -0.6343
  649MOL0     C85598   2.096   3.716   0.723 -0.1488 -0.2556  0.9248
  649MOL0     C85599   2.155   3.588   0.676 -0.4003 -0.7281  0.1824
  649MOL0     C85600   2.194   3.472   0.664 -1.2140  0.0404  0.9223
  649MOL0     C85601   1.889   3.805   1.296  0.6848  0.0802  0.0721
  649MOL0     C85602   1.820   3.774   1.411  0.0158  0.0732 -0.2940
  649MOL0     H85603   1.705   4.042   1.911 -0.0454 -0.4416 -0.0205
  649MOL0     H85604   1.533   4.032   2.099 -2.4790 -0.3425  0.6599
  649MOL0     H85605   1.410   3.606   2.248  3.9199  1.7253 -1.7728
  649MOL0     H85606   1.307   3.679   2.126 -2.1056 -0.1451  1.3480
  649MOL0     H85607   1.172   3.659   2.306  0.1944 -0.0048 -1.9390
  649MOL0     H85608   1.225   3.824   2.333 -1.9724 -0.8280  2.3736
  649MOL0     H85609   1.348   3.774   2.527  1.0297 -0.3547  0.0194
  649MOL0     H85610   1.399   3.628   2.459 -0.4698  1.4073 -2.5180
  649MOL0     H85611   1.098   3.668   2.523 -0.7013 -0.3007 -0.7883
  649MOL0     H85612   1.202   3.519   2.539  1.7732  1.3312 -2.6028
  649MOL0     H85613   1.289   3.582   2.736  0.3373  2.4489  1.4748
  649MOL0     H85614   1.113   3.602   2.743 -1.8904 -0.0801 -2.8285
  649MOL0     H85615   1.168   3.852   2.694  1.7762 -0.0974 -1.4782
  649MOL0     H85616   1.326   3.806   2.748  0.3410  0.6174 -1.2346
  649MOL0     H85617   1.176   3.695   2.965 -2.5606 -0.5423  0.4619
  649MOL0     H85618   1.236   3.868   2.961 -0.1628  0.6457 -0.3588
  649MOL0     H85619   0.979   3.793   2.811 -0.7382  1.3272 -0.9842
  649MOL0     H85620   1.016   3.943   2.905 -1.3172 -0.9861  1.4663
  649MOL0     H85621   0.882   3.593   2.956 -2.2079  0.4771 -0.0568
  649MOL0     H85622   0.664   3.546   3.181 -0.3002  0.0957 -0.1172
  649MOL0     H85623   0.733   3.621   3.321  0.9100  2.7309 -1.8320
  649MOL0     H85624   0.856   3.383   3.163 -1.5042  1.4250 -1.6231
  649MOL0     H85625   0.787   3.378   3.324 -1.9364 -2.2714 -2.2921
  649MOL0     H85626   1.047   3.508   3.222  1.1636 -4.3200 -0.1873
  649MOL0     H85627   0.975   3.561   3.377 -0.5512 -0.4820 -0.6789
  649MOL0     H85628   0.977   3.326   3.450 -3.0434  0.2599 -2.9940
  649MOL0     H85629   1.141   3.397   3.402  1.2051 -1.4236  0.1138
  649MOL0     H85630   1.146   3.099   3.437  1.9657 -0.8027 -0.0956
  649MOL0     H85631   1.375   2.994   3.453 -0.0229  1.0072  1.3579
  649MOL0     H85632   1.811   2.910   3.152 -1.6326 -0.0678  1.0611
  649MOL0     H85633   2.018   2.799   3.192  0.1847  0.0264 -0.3422
  649MOL0     H85634   2.178   2.820   3.353 -1.7362 -1.0303  1.0497
  649MOL0     H85635   2.220   2.669   3.268 -2.2628 -3.1699  0.7667
  649MOL0     H85636   2.390   2.650   3.419 -0.6088 -1.0583 -0.2842
  649MOL0     H85637   2.268   2.578   3.503  2.0374 -1.0477 -2.0803
  649MOL0     H85638   2.187   2.786   3.619 -0.8954 -1.6787 -2.5725
  649MOL0     H85639   2.314   2.875   3.541 -0.5924  0.2829 -0.9526
  649MOL0     H85640   2.329   2.635   3.739  0.4105  1.6848  3.6056
  649MOL0     H85641   2.473   2.688   3.649  0.5679 -0.2169  3.0658
  649MOL0     H85642   2.314   2.842   3.841  0.5853  2.4736  0.2578
  649MOL0     H85643   2.423   2.930   3.724 -0.3299  0.8684 -0.7379
  649MOL0     H85644   2.519   2.723   3.922 -1.1495  1.2291  2.3423
  649MOL0     H85645   2.507   2.899   3.945  1.0247 -0.6352  0.9233
  649MOL0     H85646   2.669   2.838   3.707 -1.5414  0.6261  0.3562
  649MOL0     H85647   2.697   2.958   3.836  1.7363 -0.7926 -0.0972
  649MOL0     H85648   2.781   2.783   3.982 -1.6122 -3.0826  0.1098
  649MOL0     H85649   2.859   2.818   3.814 -1.2579  0.6273 -2.5195
  649MOL0     H85650   1.856   2.676   3.581 -2.7781  1.2622  0.4982
  649MOL0     H85651   1.648   2.765   3.523 -0.4445  0.1673  0.4194
  649MOL0     H85652   1.472   3.243   3.101  0.3970  0.6826  1.5226
  649MOL0     H85653   1.240   3.318   3.089 -0.4149  0.0663  0.2448
  649MOL0     H85654   1.586   3.592   2.094 -0.7041 -1.0177 -0.9472
  649MOL0     H85655   1.719   3.622   1.885 -4.4250 -1.6038 -1.1746
  649MOL0     H85656   1.966   3.994   1.631  1.6719  0.1701 -0.1234
  649MOL0     H85657   2.087   4.057   1.417 -1.3674  0.8667  0.5621
  649MOL0     H85658   2.109   3.723   1.150  0.7227 -0.2498  1.6055
  649MOL0     H85659   2.228   3.840   1.080 -1.1172  2.4079 -0.7463
  649MOL0     H85660   1.961   3.812   0.966 -1.2500  3.4099 -0.8444
  649MOL0     H85661   2.074   3.932   0.920 -1.4345 -0.5109 -1.1452
  649MOL0     H85662   2.078   3.620   0.915  2.7296 -1.0307  3.4161
  649MOL0     H85663   2.234   3.711   0.895  0.3427  2.7918 -2.5305
  649MOL0     H85664   1.994   3.729   0.687  0.5579  1.2068 -0.6926
  649MOL0     H85665   2.156   3.797   0.681  1.1298 -2.2877 -1.4303
  649MOL0     H85666   2.220   3.369   0.651 -1.5245  0.2027 -1.6444
  649MOL0     H85667   1.873   3.736   1.213  0.2596 -3.4222  2.8411
  649MOL0     H85668   1.747   3.694   1.398 -0.0413  0.1739 -0.5977
  650MOL0     O85669   6.616   0.863   9.321 -0.6723 -0.2802  0.7119
  650MOL0     C85670   6.718   0.821   9.372 -0.5560 -0.1225 -0.9661
  650MOL0     O85671   6.843   0.835   9.328  0.0324  0.5685  0.4548
  650MOL0     C85672   6.891   0.925   9.232  0.7342 -0.1460 -1.0823
  650MOL0     C85673   6.829   1.026   9.160  0.0599  0.0953  0.4124
  650MOL0     C85674   6.898   1.104   9.075 -0.7974 -0.7950  0.2881
  650MOL0     C85675   7.042   1.094   9.060  0.9347  0.5858 -0.3554
  650MOL0     O85676   7.118   1.183   8.984  0.3592 -0.5688  0.4150
  650MOL0     C85677   7.054   1.306   8.953  1.3342  0.2262  0.3827
  650MOL0     C85678   7.152   1.402   8.883  0.4613  0.6328  0.1778
  650MOL0     C85679   7.088   1.526   8.828 -0.3194 -0.6834 -0.7425
  650MOL0     C85680   7.018   1.606   8.933 -0.2412  0.1504 -0.3889
  650MOL0     C85681   7.017   1.751   8.897  0.3694  0.3796 -0.7113
  650MOL0     C85682   6.935   1.793   8.775 -0.2470  0.4857  0.0893
  650MOL0     C85683   7.011   1.760   8.645  0.2523 -1.0083 -0.7275
  650MOL0     C85684   6.965   1.869   8.545  0.0371  0.2806 -0.2118
  650MOL0     N85685   7.008   1.875   8.404 -0.6237 -0.0056  0.4496
  650MOL0     C85686   7.134   1.908   8.359 -0.1469  0.6374 -0.7624
  650MOL0     C85687   7.141   1.864   8.229  0.8117  0.0561  0.1098
  650MOL0     C85688   7.254   1.870   8.136 -0.1955  0.0976 -0.1339
  650MOL0     C85689   7.227   1.871   7.990  0.5885  0.6122 -0.0618
  650MOL0     C85690   7.177   2.009   7.947 -0.3825  0.1358  0.8888
  650MOL0     C85691   7.164   2.023   7.798  0.0125 -0.2991 -0.0484
  650MOL0     O85692   7.032   2.087   7.764 -0.2652 -0.5210 -0.3161
  650MOL0     C85693   6.998   2.219   7.783  0.1604  1.0939 -0.7494
  650MOL0     C85694   6.879   2.269   7.727  0.3861 -0.5984 -0.8154
  650MOL0     C85695   6.861   2.413   7.732  0.4636  0.6352  0.2139
  650MOL0     C85696   6.950   2.502   7.799  0.1209  0.4914  1.0471
  650MOL0     C85697   6.952   2.649   7.771  0.6064  0.5700 -0.5634
  650MOL0     O85698   6.829   2.691   7.730 -0.1058 -0.2846  1.0547
  650MOL0     C85699   6.828   2.818   7.685  0.0483 -0.3937 -0.4986
  650MOL0     C85700   6.741   2.909   7.765  0.0757  0.6181  0.2202
  650MOL0     C85701   6.735   3.047   7.745  0.3183  0.5481 -0.9763
  650MOL0     C85702   6.815   3.093   7.639  0.5068 -0.4630 -0.5271
  650MOL0     O85703   6.811   3.227   7.605  0.0872  0.9748 -0.4445
  650MOL0     C85704   6.797   3.326   7.707  0.1678  0.0764  0.7341
  650MOL0     C85705   6.854   3.445   7.650  0.1003 -0.5257  0.1844
  650MOL0     C85706   6.815   3.567   7.740 -0.7927  1.4281  0.8304
  650MOL0     C85707   6.868   3.703   7.700  0.3072  1.0611 -0.4475
  650MOL0     C85708   6.825   3.809   7.796  0.9269 -0.9506 -0.6239
  650MOL0     C85709   6.837   3.779   7.946  0.3008  0.4614  0.2849
  650MOL0     C85710   6.983   3.773   7.990  0.8500 -1.1485 -0.3286
  650MOL0     C85711   7.044   3.919   8.006  0.3556 -0.7707  0.0264
  650MOL0    Cl85712   7.092   4.001   7.846  0.2960 -0.1136  0.8801
  650MOL0     C85713   6.916   3.015   7.570  0.5012 -1.4517 -1.0197
  650MOL0     C85714   6.913   2.875   7.584 -0.1030  0.3604  0.1092
  650MOL0     O85715   7.059   2.706   7.762  0.1753  0.3717  0.8273
  650MOL0     C85716   7.060   2.444   7.872  0.7331 -0.4366  0.2473
  650MOL0     C85717   7.081   2.311   7.854  0.0038 -0.2801  0.1559
  650MOL0     N85718   7.021   1.799   8.195  0.7466  0.5572 -0.2141
  650MOL0     N85719   6.947   1.804   8.305 -0.8986  1.2024  0.3853
  650MOL0     C85720   7.107   0.993   9.139 -0.0492 -0.7507  0.1381
  650MOL0     C85721   7.029   0.907   9.217  0.1374  0.3227 -0.4138
  650MOL0     C85722   6.696   0.750   9.491 -0.5818  0.8327 -0.2463
  650MOL0     C85723   6.591   0.778   9.575 -0.2943 -0.1474  0.4263
  650MOL0     C85724   6.575   0.716   9.697  0.7967  0.8657  0.1653
  650MOL0     C85725   6.665   0.610   9.734  0.3471 -0.4319 -0.4608
  650MOL0     O85726   6.644   0.526   9.839 -0.0337 -0.6233  0.8490
  650MOL0     C85727   6.513   0.508   9.882  0.7565 -0.0586  0.6996
  650MOL0     C85728   6.515   0.371   9.935 -0.4325  0.5505 -0.3414
  650MOL0     C85729   6.407   0.322  10.033 -0.4823 -0.2404 -0.0104
  650MOL0     C85730   6.330   0.422  10.118 -0.1302 -0.0711 -0.3476
  650MOL0     C85731   6.443   0.502  10.190  0.9856  0.9364 -0.6047
  650MOL0     C85732   6.536   0.545  10.250  0.2211  0.3903  0.4116
  650MOL0     C85733   6.772   0.586   9.649 -0.8477  1.2936  0.2363
  650MOL0     C85734   6.789   0.653   9.529 -0.3667 -0.6237 -0.2891
  650MOL0     H85735   6.723   1.052   9.162  0.2287  0.8172  0.0887
  650MOL0     H85736   6.841   1.184   9.029  2.0270  1.9174  1.0774
  650MOL0     H85737   7.001   1.359   9.033  2.3818 -0.2415  1.4137
  650MOL0     H85738   6.979   1.277   8.879  2.7379 -2.2992 -0.1753
  650MOL0     H85739   7.208   1.345   8.808 -1.0041 -2.5939  1.3530
  650MOL0     H85740   7.228   1.433   8.955  1.0099 -2.2679  0.9497
  650MOL0     H85741   7.015   1.498   8.751  0.1095 -2.5219 -0.5368
  650MOL0     H85742   7.166   1.588   8.783 -0.4030  0.6965  0.9099
  650MOL0     H85743   6.913   1.579   8.918  0.2939 -1.9845 -0.6558
  650MOL0     H85744   7.050   1.588   9.037 -1.0371  0.9985  0.0052
  650MOL0     H85745   7.117   1.794   8.898  0.0175  1.2248  0.2778
  650MOL0     H85746   6.975   1.811   8.978 -0.7647  2.1150 -2.4967
  650MOL0     H85747   6.910   1.899   8.786  1.6586  1.1462 -1.3233
  650MOL0     H85748   6.841   1.738   8.773  1.1514 -2.0441 -1.0711
  650MOL0     H85749   7.120   1.767   8.656  0.6713 -4.9803 -0.8544
  650MOL0     H85750   6.993   1.659   8.608  3.1714 -1.4257 -1.2406
  650MOL0     H85751   7.019   1.955   8.585  2.2764 -2.4107  3.2374
  650MOL0     H85752   6.859   1.894   8.550  0.1440  0.6481  0.2564
  650MOL0     H85753   7.217   1.949   8.416 -0.0303 -1.2847  0.5454
  650MOL0     H85754   7.330   1.793   8.151  0.4172  0.0358 -3.0857
  650MOL0     H85755   7.293   1.971   8.150  0.2501  0.0451 -0.9585
  650MOL0     H85756   7.145   1.811   7.949  3.9039 -4.5955  0.1257
  650MOL0     H85757   7.316   1.843   7.934  0.1513 -1.5524  0.2344
  650MOL0     H85758   7.095   2.043   8.010  0.5827  0.0534  2.2281
  650MOL0     H85759   7.246   2.087   7.980 -0.6869  0.4530  0.7744
  650MOL0     H85760   7.166   1.919   7.765 -2.4338  0.0793 -1.6241
  650MOL0     H85761   7.255   2.072   7.761 -0.7165  2.2221  1.2614
  650MOL0     H85762   6.807   2.212   7.669 -0.3957 -0.4695 -0.0028
  650MOL0     H85763   6.794   2.465   7.664 -0.7192 -0.4312  0.5240
  650MOL0     H85764   6.675   2.869   7.841 -2.3834  0.9108 -1.6321
  650MOL0     H85765   6.671   3.103   7.813  0.0165 -1.5343  0.5436
  650MOL0     H85766   6.852   3.305   7.799  2.7730  0.9911 -0.5132
  650MOL0     H85767   6.691   3.345   7.727  0.6906  1.6669  2.1808
  650MOL0     H85768   6.806   3.456   7.551  2.0411 -1.5994 -0.9277
  650MOL0     H85769   6.962   3.438   7.636  0.4017  3.6057 -1.1323
  650MOL0     H85770   6.854   3.525   7.834  0.5825 -0.1825 -0.4015
  650MOL0     H85771   6.706   3.570   7.747 -0.9998  0.4935 -1.2945
  650MOL0     H85772   6.977   3.701   7.704  0.4746  3.7557 -1.7956
  650MOL0     H85773   6.846   3.730   7.596  0.8464  4.3417  0.1997
  650MOL0     H85774   6.718   3.820   7.776  0.7484  1.5366  1.1897
  650MOL0     H85775   6.877   3.900   7.764  2.7561 -2.3088 -1.7432
  650MOL0     H85776   6.800   3.678   7.966  0.4762  0.1935 -0.6832
  650MOL0     H85777   6.785   3.846   8.014 -0.4167 -2.0883  2.4337
  650MOL0     H85778   6.981   3.739   8.094  0.0403  0.6143  0.2588
  650MOL0     H85779   7.049   3.711   7.928  1.2407 -1.0249 -0.0448
  650MOL0     H85780   7.139   3.911   8.058  2.3155 -0.7757 -3.2828
  650MOL0     H85781   6.976   3.980   8.067  1.6124 -1.0640  1.7554
  650MOL0     H85782   6.970   3.064   7.490 -1.3070  1.4559 -0.6222
  650MOL0     H85783   6.987   2.817   7.529 -2.3561  0.5707 -3.4360
  650MOL0     H85784   7.129   2.509   7.924 -1.2519  0.2146  2.2392
  650MOL0     H85785   7.181   2.281   7.884  0.3896  1.4179  0.6780
  650MOL0     H85786   7.214   0.986   9.124 -0.2546  0.5492 -2.4407
  650MOL0     H85787   7.064   0.807   9.242 -0.3101 -0.1110 -1.4373
  650MOL0     H85788   6.506   0.832   9.533  0.6841  1.7037  0.6818
  650MOL0     H85789   6.484   0.737   9.752 -1.7342 -3.1528 -1.9723
  650MOL0     H85790   6.438   0.516   9.803  1.0679 -0.6619  0.3364
  650MOL0     H85791   6.482   0.583   9.955  0.1950  0.9624 -0.5517
  650MOL0     H85792   6.518   0.310   9.845  1.3971  1.1795 -0.7584
  650MOL0     H85793   6.601   0.356  10.001 -3.2114  0.8322  3.6851
  650MOL0     H85794   6.439   0.243  10.101 -2.8157 -0.5415  0.8131
  650MOL0     H85795   6.334   0.270   9.970 -0.2155 -1.8157  0.9427
  650MOL0     H85796   6.272   0.492  10.057 -0.5141  1.0094  1.1767
  650MOL0     H85797   6.263   0.368  10.186  2.8602 -1.6763  1.5680
  650MOL0     H85798   6.629   0.571  10.297  0.1334 -0.1637  0.9011
  650MOL0     H85799   6.836   0.505   9.683 -1.5312  0.5363 -0.2543
  650MOL0     H85800   6.867   0.616   9.464  1.6657  4.2303 -1.1065
  651MOL0     O85801   7.075  11.304   7.646 -0.5253  0.4773  0.2838
  651MOL0     C85802   7.129  11.410   7.654  0.6952 -1.6679  0.2780
  651MOL0     O85803   7.259  11.426   7.686 -1.3968 -0.3162  0.0955
  651MOL0     C85804   7.342  11.321   7.703 -0.4564  0.5255  0.1571
  651MOL0     C85805   7.339  11.236   7.812 -0.0185  0.2479 -0.3993
  651MOL0     C85806   7.437  11.140   7.831 -0.6078  0.4590 -0.4553
  651MOL0     C85807   7.539  11.125   7.733  0.2211  0.4830 -0.8115
  651MOL0     O85808   7.638  11.040   7.739 -0.5106 -0.0720 -0.1365
  651MOL0     C85809   7.619  10.903   7.774 -0.1101  0.2438 -0.6507
  651MOL0     C85810   7.709  10.854   7.882 -0.0299  0.1224 -0.2416
  651MOL0     C85811   7.696  10.925   8.018  0.1317  0.1609  0.2059
  651MOL0     C85812   7.802  10.887   8.110  0.3702 -0.2433 -0.1822
  651MOL0     C85813   7.769  10.943   8.254  1.6525 -1.2664 -0.6963
  651MOL0     C85814   7.869  10.892   8.359 -0.3027  1.7624  0.1197
  651MOL0     C85815   7.812  10.894   8.501  0.1807 -0.0910 -0.2228
  651MOL0     C85816   7.882  10.809   8.607 -0.7898  0.6495  0.1899
  651MOL0     N85817   7.795  10.807   8.729 -0.2005  0.7837 -0.2703
  651MOL0     C85818   7.836  10.853   8.847 -0.6952 -0.0804 -0.6932
  651MOL0     C85819   7.734  10.829   8.931  0.2270 -0.2939  1.1196
  651MOL0     C85820   7.765  10.836   9.082  0.2378  0.5060  0.8360
  651MOL0     C85821   7.735  10.972   9.141  0.3302 -1.3071 -0.5823
  651MOL0     C85822   7.792  10.987   9.282  0.9074  0.9112  0.2639
  651MOL0     C85823   7.754  11.128   9.338 -1.0772 -0.4150  0.5384
  651MOL0     O85824   7.809  11.137   9.469  0.4605 -0.0280 -0.2640
  651MOL0     C85825   7.732  11.199   9.572  0.1504  0.2317  0.2339
  651MOL0     C85826   7.638  11.304   9.546  0.5521  0.2124  0.1542
  651MOL0     C85827   7.567  11.362   9.649  0.0494  0.0767 -0.2571
  651MOL0     C85828   7.581  11.322   9.784  0.5396 -0.5001 -1.1146
  651MOL0     C85829   7.489  11.373   9.890  0.0273  1.0118 -1.4122
  651MOL0     O85830   7.508  11.310  10.018  0.0730  0.7406  0.1630
  651MOL0     C85831   7.408  11.338  10.112 -0.4493  0.0134  0.6603
  651MOL0     C85832   7.276  11.295  10.108  0.0976  0.6217  0.0913
  651MOL0     C85833   7.177  11.340  10.198 -0.4097 -1.2414  0.9538
  651MOL0     C85834   7.207  11.434  10.297 -0.6479  0.0846 -0.1076
  651MOL0     O85835   7.113  11.498  10.373 -1.0192  0.7412 -0.4075
  651MOL0     C85836   7.055  11.418  10.477 -0.1251  0.2066  0.0903
  651MOL0     C85837   6.998  11.501  10.579  0.6900 -0.6733 -0.2782
  651MOL0     C85838   6.864  11.443  10.635 -0.1735 -0.4761  0.0661
  651MOL0     C85839   6.800  11.556  10.706 -0.6430  0.2869  0.1992
  651MOL0     C85840   6.666  11.515  10.766  0.6652  0.1557  0.2490
  651MOL0     C85841   6.601  11.634  10.834 -0.0518  1.0877 -0.2054
  651MOL0     C85842   6.660  11.637  10.973  0.0133  1.0109  0.1553
  651MOL0     C85843   6.643  11.771  11.046  0.0428  0.0591 -0.0542
  651MOL0    Cl85844   6.737  11.784  11.205  0.0503 -0.1061  0.3152
  651MOL0     C85845   7.347  11.483  10.302  0.4216  0.1154  0.1905
  651MOL0     C85846   7.434  11.430  10.203 -0.1634 -0.8995  0.2676
  651MOL0     O85847   7.399  11.446   9.860  0.7220 -0.0853 -0.0151
  651MOL0     C85848   7.681  11.226   9.810  1.1637  0.0962 -0.1748
  651MOL0     C85849   7.757  11.166   9.703 -0.0729 -0.2095 -0.5344
  651MOL0     N85850   7.632  10.763   8.862 -0.5280  1.1091  0.2579
  651MOL0     N85851   7.678  10.745   8.743  0.5190 -0.5317  0.1615
  651MOL0     C85852   7.534  11.203   7.624 -0.6041 -0.6844  0.1798
  651MOL0     C85853   7.441  11.304   7.608 -1.0205  0.3396  0.3637
  651MOL0     C85854   7.046  11.530   7.617 -0.7579  0.6996 -1.1103
  651MOL0     C85855   6.907  11.537   7.613 -0.7925  0.6399 -0.6406
  651MOL0     C85856   6.844  11.656   7.583  0.4040 -0.1633 -0.3527
  651MOL0     C85857   6.905  11.775   7.564  0.6679  0.4049 -1.1249
  651MOL0     O85858   6.845  11.886   7.519 -0.1289 -0.3888 -0.9670
  651MOL0     C85859   6.723  11.924   7.580  0.0991  0.2070 -0.5018
  651MOL0     C85860   6.716  12.071   7.528  1.2305  0.0200  0.0087
  651MOL0     C85861   6.810  12.161   7.606  0.5211  0.4807  1.0432
  651MOL0     C85862   6.751  12.206   7.733  0.5013 -0.2158 -1.4236
  651MOL0     C85863   6.672  12.335   7.712 -0.6377 -0.2231 -0.3840
  651MOL0     C85864   6.616  12.440   7.678 -0.7888  0.2336  0.0711
  651MOL0     C85865   7.044  11.775   7.574 -0.0967  0.8337 -0.2317
  651MOL0     C85866   7.110  11.656   7.587 -0.2564  0.1412 -0.9414
  651MOL0     H85867   7.266  11.249   7.892 -0.0684  1.0428 -0.5645
  651MOL0     H85868   7.443  11.077   7.919  2.6331 -0.0425 -0.9171
  651MOL0     H85869   7.622  10.840   7.684 -2.7613 -1.4523  0.3443
  651MOL0     H85870   7.520  10.884   7.816  1.2613  1.0436  3.3634
  651MOL0     H85871   7.809  10.868   7.841 -0.5223 -0.7027 -1.7979
  651MOL0     H85872   7.696  10.749   7.910  0.2031  0.7913  2.7339
  651MOL0     H85873   7.607  10.884   8.065 -0.6990  0.0100 -1.4368
  651MOL0     H85874   7.689  11.034   8.012  2.2636  0.4696  1.9368
  651MOL0     H85875   7.809  10.778   8.118  1.3041 -0.1449  0.6179
  651MOL0     H85876   7.901  10.921   8.080  1.4889 -0.4942  2.7961
  651MOL0     H85877   7.671  10.911   8.290  1.9078 -0.2000  1.0619
  651MOL0     H85878   7.760  11.051   8.242  0.9608 -1.1317  0.8411
  651MOL0     H85879   7.956  10.958   8.366 -0.2280  1.6606  0.1317
  651MOL0     H85880   7.893  10.788   8.337 -2.7746  0.6047  2.3645
  651MOL0     H85881   7.808  10.997   8.538  3.6910 -0.0581  0.4082
  651MOL0     H85882   7.708  10.863   8.496  0.0862  0.4376 -2.2052
  651MOL0     H85883   7.974  10.858   8.639  0.1491 -1.7272  1.4432
  651MOL0     H85884   7.905  10.710   8.566  1.2031  0.7277  1.0017
  651MOL0     H85885   7.919  10.916   8.877 -1.4005 -0.6319  2.8955
  651MOL0     H85886   7.870  10.815   9.106  0.8073 -0.0744 -1.8471
  651MOL0     H85887   7.697  10.762   9.126 -0.0358 -0.8136 -1.6074
  651MOL0     H85888   7.630  11.002   9.138 -0.6173 -3.8965  1.7278
  651MOL0     H85889   7.786  11.053   9.090 -2.6354 -0.3209 -2.2299
  651MOL0     H85890   7.741  10.913   9.343 -1.3246  0.4307 -2.0493
  651MOL0     H85891   7.900  10.968   9.286  1.2307  0.8266 -3.9597
  651MOL0     H85892   7.646  11.143   9.338 -1.1864 -1.0720  2.0562
  651MOL0     H85893   7.796  11.198   9.265 -4.9261 -0.1573 -1.6558
  651MOL0     H85894   7.613  11.343   9.448 -1.0738  0.3261  0.5816
  651MOL0     H85895   7.484  11.428   9.623 -0.3286  0.2181  1.1827
  651MOL0     H85896   7.246  11.225  10.031 -0.2753  1.2181 -0.3176
  651MOL0     H85897   7.075  11.311  10.173 -0.8016  0.3103  0.6197
  651MOL0     H85898   7.128  11.352  10.525  0.3326 -0.3692 -1.3388
  651MOL0     H85899   6.990  11.343  10.429  2.2286 -2.4464  0.7773
  651MOL0     H85900   6.960  11.593  10.535 -0.8284 -0.2589  1.7622
  651MOL0     H85901   7.067  11.524  10.660 -2.8816  1.3388  2.4910
  651MOL0     H85902   6.867  11.356  10.700  0.0227 -2.5203 -2.5393
  651MOL0     H85903   6.785  11.431  10.561 -2.6462 -1.4525  2.7065
  651MOL0     H85904   6.871  11.583  10.785 -0.2538  2.1429 -0.7467
  651MOL0     H85905   6.785  11.635  10.632  0.5968 -0.1090 -0.5043
  651MOL0     H85906   6.678  11.430  10.834 -0.2587  0.2276  0.5062
  651MOL0     H85907   6.609  11.483  10.679  1.1582 -0.2989  0.0842
  651MOL0     H85908   6.493  11.618  10.843 -0.3600  1.7529 -2.1465
  651MOL0     H85909   6.619  11.730  10.785  5.2619  2.1858  3.1668
  651MOL0     H85910   6.612  11.560  11.033  0.2039  0.7818  0.0174
  651MOL0     H85911   6.768  11.617  10.976 -0.5244 -3.2815 -2.0143
  651MOL0     H85912   6.538  11.775  11.075  0.2543  0.4673  0.6804
  651MOL0     H85913   6.669  11.855  10.981  2.7324  1.5845  2.7230
  651MOL0     H85914   7.364  11.561  10.375 -3.1876  2.8944 -1.6424
  651MOL0     H85915   7.538  11.458  10.219 -0.1073 -1.9618  2.0182
  651MOL0     H85916   7.703  11.190   9.911  3.4167  1.4106 -0.1372
  651MOL0     H85917   7.836  11.094   9.723 -1.2396 -1.2036  0.6873
  651MOL0     H85918   7.613  11.203   7.550  0.3309 -0.6019  1.1518
  651MOL0     H85919   7.436  11.374   7.524 -2.1831 -0.3162 -0.1346
  651MOL0     H85920   6.847  11.450   7.636 -1.8372  2.0112  2.3289
  651MOL0     H85921   6.737  11.643   7.571  0.5551 -1.8267 -0.1038
  651MOL0     H85922   6.724  11.920   7.690  0.9850  0.6883 -0.4839
  651MOL0     H85923   6.636  11.866   7.548 -1.3042  1.8740  0.1164
  651MOL0     H85924   6.737  12.079   7.422  0.0770 -0.4372 -0.2723
  651MOL0     H85925   6.619  12.114   7.554  1.2439  0.3022 -0.4073
  651MOL0     H85926   6.837  12.240   7.536  2.4958  0.5005  1.7568
  651MOL0     H85927   6.896  12.100   7.636  0.3999 -0.6617 -0.7089
  651MOL0     H85928   6.679  12.141   7.784 -0.0490  0.6305 -1.0923
  651MOL0     H85929   6.834  12.221   7.802 -0.2580 -0.5467 -0.4092
  651MOL0     H85930   6.574  12.526   7.628 -0.5536  0.9934  1.1531
  651MOL0     H85931   7.100  11.868   7.574  1.3064  0.0172 -1.0075
  651MOL0     H85932   7.218  11.657   7.589 -0.2552  1.9794 -0.7005
  652MOL0     O85933   6.147   9.509   2.041 -0.1501 -0.6809 -0.5818
  652MOL0     C85934   6.134   9.584   2.136 -0.9578  0.0413 -0.1672
  652MOL0     O85935   6.235   9.663   2.188 -0.1511  0.4713 -0.4823
  652MOL0     C85936   6.341   9.695   2.113  0.0114 -1.1314  0.3251
  652MOL0     C85937   6.469   9.679   2.157 -0.7707  0.8533 -0.5982
  652MOL0     C85938   6.580   9.720   2.091  0.1045 -1.5186  0.4992
  652MOL0     C85939   6.568   9.784   1.971  0.5654  0.3042  0.1705
  652MOL0     O85940   6.677   9.829   1.899  0.4807  0.8255 -0.4070
  652MOL0     C85941   6.792   9.739   1.904  1.0502 -0.0221 -0.2895
  652MOL0     C85942   6.904   9.780   1.815 -0.6598 -1.1301 -0.1342
  652MOL0     C85943   6.985   9.892   1.881  0.2292 -0.0025 -0.1658
  652MOL0     C85944   7.119   9.900   1.797  0.8042  0.1542 -0.5851
  652MOL0     C85945   7.154  10.052   1.789 -0.0465 -0.6154 -0.0426
  652MOL0     C85946   7.270  10.089   1.702 -0.5046  1.0113 -0.2019
  652MOL0     C85947   7.259  10.018   1.571  0.4705  0.1880 -0.6149
  652MOL0     C85948   7.328  10.092   1.457 -0.3179 -0.8791  0.6509
  652MOL0     N85949   7.233  10.179   1.385  0.1651 -1.2626  0.6190
  652MOL0     C85950   7.131  10.143   1.305 -0.8897  0.1592  0.8439
  652MOL0     C85951   7.060  10.258   1.290  0.3428  0.4357 -0.5148
  652MOL0     C85952   6.933  10.263   1.212 -0.9160  0.2282 -0.0068
  652MOL0     C85953   6.848  10.395   1.221 -0.4447 -0.0734 -0.1657
  652MOL0     C85954   6.701  10.374   1.281  0.4785 -0.0311  0.3754
  652MOL0     C85955   6.615  10.318   1.171  0.0815 -0.2105  0.4875
  652MOL0     O85956   6.471  10.298   1.195  0.2918 -0.3788 -0.4461
  652MOL0     C85957   6.408  10.402   1.255  0.5767 -0.0491  0.0758
  652MOL0     C85958   6.356  10.507   1.188  0.7543  0.0780  1.0500
  652MOL0     C85959   6.275  10.606   1.239  0.0072 -0.2269 -0.9877
  652MOL0     C85960   6.255  10.599   1.380 -1.0015  0.5403 -0.7460
  652MOL0     C85961   6.179  10.706   1.454  1.3404  1.2257  0.1209
  652MOL0     O85962   6.087  10.780   1.382 -0.1105  0.0443  0.1691
  652MOL0     C85963   6.008  10.867   1.452  0.1317  0.4186 -0.6271
  652MOL0     C85964   5.872  10.851   1.449  0.4574 -1.0254  0.4162
  652MOL0     C85965   5.785  10.953   1.492  0.2980  0.0023  0.0082
  652MOL0     C85966   5.845  11.063   1.559 -0.8229 -0.3238 -0.3009
  652MOL0     O85967   5.756  11.149   1.610 -0.2868  0.3269 -0.1989
  652MOL0     C85968   5.770  11.216   1.733  0.4111  0.9684  0.0508
  652MOL0     C85969   5.837  11.352   1.710  0.6583  0.2354  0.0187
  652MOL0     C85970   5.866  11.427   1.846  0.4473  0.0062  0.2374
  652MOL0     C85971   5.981  11.526   1.844  0.2790  0.6014  0.4055
  652MOL0     C85972   6.015  11.574   1.983 -0.0339 -0.3367 -0.3020
  652MOL0     C85973   6.128  11.677   1.968 -0.4015 -0.1885  0.5562
  652MOL0     C85974   6.083  11.813   1.916 -0.7382  1.2438 -0.1954
  652MOL0     C85975   6.188  11.919   1.937 -0.7499 -0.1664  0.2500
  652MOL0    Cl85976   6.330  11.879   1.835 -0.0383 -0.1304  0.8675
  652MOL0     C85977   5.985  11.068   1.568 -0.2912  0.3510 -0.9658
  652MOL0     C85978   6.072  10.976   1.512  0.2571 -0.1846  0.3420
  652MOL0     O85979   6.198  10.713   1.573 -0.8616  0.0835 -0.1277
  652MOL0     C85980   6.319  10.499   1.453 -0.5024 -1.2011 -0.2169
  652MOL0     C85981   6.398  10.404   1.395 -0.1269  1.0943 -0.5880
  652MOL0     N85982   7.118  10.363   1.355  0.5314  0.5104 -0.1830
  652MOL0     N85983   7.224  10.315   1.408 -0.7468  0.1333 -0.1398
  652MOL0     C85984   6.440   9.812   1.916  0.5655  0.3999  0.4712
  652MOL0     C85985   6.326   9.771   1.988 -0.0261  0.6831 -0.8222
  652MOL0     C85986   6.010   9.586   2.221 -0.3398 -0.4377  0.4107
  652MOL0     C85987   5.986   9.692   2.310 -0.1321 -0.2691 -0.2822
  652MOL0     C85988   5.860   9.705   2.368  1.4196 -0.4586  0.2860
  652MOL0     C85989   5.762   9.603   2.360 -0.6477  0.2315 -0.1833
  652MOL0     O85990   5.640   9.623   2.427  0.0946  0.3912 -0.5283
  652MOL0     C85991   5.528   9.530   2.417  0.0889 -0.1712 -0.5109
  652MOL0     C85992   5.483   9.493   2.558  0.3622  0.1986 -0.1663
  652MOL0     C85993   5.359   9.406   2.562 -0.1681  0.2312  0.4259
  652MOL0     C85994   5.282   9.425   2.689  0.8139  0.5855  0.3695
  652MOL0     C85995   5.356   9.373   2.812 -0.7888  0.2098  0.8169
  652MOL0     C85996   5.419   9.320   2.900 -0.2581  0.0565 -0.6070
  652MOL0     C85997   5.801   9.484   2.288 -0.1965  0.7446 -0.0865
  652MOL0     C85998   5.914   9.483   2.203 -0.8300 -0.2128 -0.5804
  652MOL0     H85999   6.480   9.629   2.252  0.2070 -2.1227 -2.1568
  652MOL0     H86000   6.675   9.719   2.143 -0.9864  1.4913  2.8874
  652MOL0     H86001   6.768   9.636   1.879  1.3191  0.7960 -4.7392
  652MOL0     H86002   6.831   9.733   2.006 -1.9206 -1.0256  0.8883
  652MOL0     H86003   6.854   9.808   1.722 -1.0897  4.1223  1.3650
  652MOL0     H86004   6.972   9.696   1.795 -0.6606 -1.4732  1.2135
  652MOL0     H86005   7.014   9.851   1.978 -3.9036 -0.7703  0.9439
  652MOL0     H86006   6.930   9.986   1.892  1.4449  0.5507  1.5929
  652MOL0     H86007   7.199   9.852   1.855  1.4445  3.5447  1.6085
  652MOL0     H86008   7.114   9.850   1.700 -0.6455  0.2210 -0.5699
  652MOL0     H86009   7.169  10.085   1.892 -0.1011  0.7675 -0.4504
  652MOL0     H86010   7.066  10.101   1.745  1.3963  0.7415 -1.5654
  652MOL0     H86011   7.361  10.048   1.746 -1.1552 -0.5471 -0.2235
  652MOL0     H86012   7.288  10.197   1.694  2.8866  0.4514 -2.1391
  652MOL0     H86013   7.302   9.919   1.588 -2.4034 -0.6337  3.1564
  652MOL0     H86014   7.153  10.006   1.547  0.4773 -0.7352 -0.2252
  652MOL0     H86015   7.369  10.026   1.380 -0.2433 -0.5749  0.4250
  652MOL0     H86016   7.413  10.152   1.491 -1.2868  0.8630  0.1343
  652MOL0     H86017   7.087  10.063   1.245 -2.0628  3.9083 -3.9410
  652MOL0     H86018   6.869  10.178   1.239  0.5338 -1.4086 -1.4130
  652MOL0     H86019   6.967  10.261   1.107 -0.5497 -1.3021  0.1027
  652MOL0     H86020   6.848  10.446   1.125  2.9179 -2.4959 -1.6917
  652MOL0     H86021   6.894  10.461   1.295 -0.0788 -3.1803  2.6370
  652MOL0     H86022   6.696  10.304   1.365  1.4449  0.8491  1.1923
  652MOL0     H86023   6.671  10.470   1.322  0.3864  0.6256 -1.1534
  652MOL0     H86024   6.651  10.218   1.144 -0.5992 -0.2095 -0.4744
  652MOL0     H86025   6.635  10.388   1.089 -2.0839 -2.4401 -2.1540
  652MOL0     H86026   6.380  10.504   1.082  0.7160  1.1393  1.0016
  652MOL0     H86027   6.237  10.691   1.184 -0.8736  0.8777  1.1994
  652MOL0     H86028   5.827  10.762   1.406 -5.4231  2.2769 -1.4139
  652MOL0     H86029   5.681  10.921   1.486  1.0114 -2.2002 -3.3057
  652MOL0     H86030   5.829  11.160   1.805  0.4570  3.1785  1.8597
  652MOL0     H86031   5.673  11.240   1.778  0.3064  0.7954 -0.0793
  652MOL0     H86032   5.766  11.415   1.655  0.3690  0.3226  0.4825
  652MOL0     H86033   5.922  11.341   1.642  0.3585 -1.3717 -0.1233
  652MOL0     H86034   5.884  11.350   1.921  0.4678 -2.1243 -1.8460
  652MOL0     H86035   5.774  11.484   1.863  0.8287  0.8307 -0.3826
  652MOL0     H86036   6.065  11.480   1.791 -0.0129  2.2122 -1.6030
  652MOL0     H86037   5.949  11.607   1.778  0.8519  0.9255  0.5250
  652MOL0     H86038   6.047  11.493   2.048 -1.4705  0.7125  1.8717
  652MOL0     H86039   5.929  11.623   2.030 -1.1882 -2.5144 -0.0190
  652MOL0     H86040   6.202  11.649   1.892 -1.8311 -0.2062 -0.8934
  652MOL0     H86041   6.170  11.693   2.067  0.9382  0.0684 -0.0242
  652MOL0     H86042   6.066  11.816   1.808  0.3695 -0.7601 -0.4540
  652MOL0     H86043   5.999  11.854   1.973 -0.2277  3.0098 -0.6488
  652MOL0     H86044   6.220  11.910   2.041  1.6930 -1.2042 -0.5153
  652MOL0     H86045   6.153  12.018   1.909  1.2783 -0.2180 -2.9831
  652MOL0     H86046   6.040  11.147   1.619 -1.9773 -0.6763  2.8268
  652MOL0     H86047   6.179  10.976   1.527  0.3659 -2.2183 -0.1020
  652MOL0     H86048   6.319  10.500   1.562  0.0604 -0.7425 -0.2164
  652MOL0     H86049   6.443  10.322   1.451  0.9074  1.3343 -1.0338
  652MOL0     H86050   6.439   9.872   1.825 -3.5153 -0.8003 -0.4492
  652MOL0     H86051   6.227   9.799   1.952 -1.1092 -0.7645  0.8229
  652MOL0     H86052   6.056   9.775   2.311  0.1042 -0.4130  2.3215
  652MOL0     H86053   5.835   9.797   2.420  3.1118  2.2581 -3.2544
  652MOL0     H86054   5.548   9.435   2.368 -2.5061  0.1733 -2.4394
  652MOL0     H86055   5.445   9.576   2.362  1.4970  1.5094 -1.3253
  652MOL0     H86056   5.561   9.433   2.607  0.1438  0.2793  0.2899
  652MOL0     H86057   5.467   9.585   2.615 -2.6499  1.1868 -2.3371
  652MOL0     H86058   5.394   9.302   2.563  2.4351  1.0026 -0.6272
  652MOL0     H86059   5.302   9.431   2.472  1.1901  1.2025 -0.2035
  652MOL0     H86060   5.267   9.532   2.702  0.5510  0.9161 -2.2896
  652MOL0     H86061   5.182   9.381   2.677 -0.6532  3.3404  1.6256
  652MOL0     H86062   5.466   9.274   2.984  0.4973 -0.2515 -1.1837
  652MOL0     H86063   5.731   9.405   2.262  0.0880  1.2737 -2.8083
  652MOL0     H86064   5.945   9.404   2.135  0.7401  0.2353 -0.4308
  653MOL0     O86065   8.141   3.313   0.093 -0.2832 -0.0109 -0.1056
  653MOL0     C86066   8.044   3.298   0.020 -0.0837 -0.7113  0.3550
  653MOL0     O86067   8.041   3.339  -0.113  0.6263  0.1775 -0.8754
  653MOL0     C86068   8.129   3.434  -0.155 -0.5573 -0.5897 -0.1660
  653MOL0     C86069   8.077   3.544  -0.224  0.5567  0.2496  0.3708
  653MOL0     C86070   8.157   3.643  -0.274 -0.8834 -0.2336  0.4979
  653MOL0     C86071   8.302   3.636  -0.261  1.2407  0.4785  0.5823
  653MOL0     O86072   8.373   3.718  -0.343  0.0430  0.1221  0.1523
  653MOL0     C86073   8.382   3.844  -0.274  0.0929  1.5486 -0.4090
  653MOL0     C86074   8.521   3.869  -0.228  0.9890 -0.0415 -0.4104
  653MOL0     C86075   8.570   3.786  -0.116  1.1957  0.2175 -0.3453
  653MOL0     C86076   8.496   3.796   0.020 -0.0403  0.1744  1.3791
  653MOL0     C86077   8.548   3.717   0.134 -0.0382 -0.5082  0.1203
  653MOL0     C86078   8.502   3.567   0.118 -0.1473  0.6249 -0.0026
  653MOL0     C86079   8.544   3.483   0.238  0.4800 -0.6444 -0.0989
  653MOL0     C86080   8.552   3.328   0.208 -0.1879 -0.6465 -0.3774
  653MOL0     N86081   8.635   3.291   0.089 -1.2190 -0.0592  0.2226
  653MOL0     C86082   8.766   3.337   0.063 -1.1227  0.7441 -1.2260
  653MOL0     C86083   8.817   3.262  -0.041 -1.2463  1.5451  0.3390
  653MOL0     C86084   8.949   3.277  -0.109 -0.2204 -1.0135 -0.6181
  653MOL0     C86085   8.961   3.178  -0.217 -0.3073 -0.2100 -0.0399
  653MOL0     C86086   9.101   3.191  -0.285  0.7203  0.1259  0.8419
  653MOL0     C86087   9.098   3.295  -0.406 -0.9903  0.1259  0.8337
  653MOL0     O86088   9.218   3.286  -0.485  0.5403  0.3011 -0.2357
  653MOL0     C86089   9.313   3.364  -0.431 -0.7335  0.5045 -0.2996
  653MOL0     C86090   9.306   3.503  -0.413  0.1660 -0.2390  0.4985
  653MOL0     C86091   9.413   3.566  -0.352 -0.6003  0.2933 -0.6263
  653MOL0     C86092   9.543   3.502  -0.328  0.1176 -0.1644 -0.3633
  653MOL0     C86093   9.658   3.573  -0.264 -0.4925  0.5041 -0.0947
  653MOL0     O86094   9.768   3.502  -0.223  0.4459 -0.1375  0.7095
  653MOL0     C86095   9.891   3.556  -0.200  0.1822  0.7810  0.1704
  653MOL0     C86096   9.906   3.682  -0.154  0.1725  0.1107  0.0915
  653MOL0     C86097  10.037   3.734  -0.145  0.6240 -0.0531 -0.6306
  653MOL0     C86098  10.153   3.655  -0.181 -1.4479  0.5748 -0.0776
  653MOL0     O86099  10.283   3.686  -0.154  0.2467 -0.7660 -0.5754
  653MOL0     C86100  10.312   3.767  -0.044  1.1834 -0.0853  0.3638
  653MOL0     C86101  10.462   3.753  -0.025 -0.1073  0.6980 -0.2841
  653MOL0     C86102  10.503   3.628   0.054  1.0817  0.2113 -0.8217
  653MOL0     C86103  10.655   3.609   0.061  0.7694 -0.3254  1.2231
  653MOL0     C86104  10.730   3.721   0.130 -0.3961  0.0522 -1.3421
  653MOL0     C86105  10.706   3.730   0.279  0.0838 -0.1356  0.6735
  653MOL0     C86106  10.809   3.826   0.340  0.2283  0.1586  0.0674
  653MOL0     C86107  10.781   3.857   0.485 -0.2604  0.3076 -0.4900
  653MOL0    Cl86108  10.622   3.950   0.502  0.3106  0.5402 -0.1960
  653MOL0     C86109  10.136   3.530  -0.230 -0.8297 -0.1537 -0.0186
  653MOL0     C86110  10.010   3.479  -0.237 -0.1841 -0.0986 -0.4480
  653MOL0     O86111   9.656   3.693  -0.286  0.3765 -0.5290 -0.3366
  653MOL0     C86112   9.547   3.365  -0.340  0.2580  0.7312 -0.8207
  653MOL0     C86113   9.429   3.293  -0.390 -0.6447 -0.1678 -0.8741
  653MOL0     N86114   8.713   3.176  -0.079  0.3544 -0.0291 -0.2424
  653MOL0     N86115   8.608   3.182  -0.002  0.5457 -0.2587  0.2240
  653MOL0     C86116   8.354   3.518  -0.206 -0.7638  0.6676 -0.1518
  653MOL0     C86117   8.271   3.427  -0.147  0.7244  0.0751 -0.4383
  653MOL0     C86118   7.923   3.241   0.081  0.2914  1.0808  0.1868
  653MOL0     C86119   7.817   3.185  -0.000  0.1644 -0.2951  0.1416
  653MOL0     C86120   7.715   3.120   0.053  0.6810 -0.6516  0.1669
  653MOL0     C86121   7.683   3.103   0.180  0.6594 -0.0267 -1.1062
  653MOL0     O86122   7.568   3.041   0.225  0.0662 -0.3472 -0.9222
  653MOL0     C86123   7.448   3.091   0.170  0.2138 -0.5965 -0.0495
  653MOL0     C86124   7.334   3.065   0.262 -0.2396 -0.2718 -0.1714
  653MOL0     C86125   7.205   3.125   0.191  0.4467 -0.0689 -0.3409
  653MOL0     C86126   7.086   3.137   0.280  0.0579 -0.1825 -0.3998
  653MOL0     C86127   6.970   3.168   0.202 -0.1532  0.6218 -0.3775
  653MOL0     C86128   6.873   3.186   0.135 -1.0271 -0.0901  0.2703
  653MOL0     C86129   7.781   3.151   0.264 -0.5126  0.5332 -1.4571
  653MOL0     C86130   7.895   3.220   0.221  0.3638 -0.6500 -0.1311
  653MOL0     H86131   7.971   3.566  -0.233  0.8071  1.2937 -0.0895
  653MOL0     H86132   8.107   3.732  -0.309 -1.4610  0.8518  3.7792
  653MOL0     H86133   8.309   3.865  -0.196  1.1139  1.0836  0.7089
  653MOL0     H86134   8.371   3.922  -0.350  1.4927  0.8834 -1.3402
  653MOL0     H86135   8.530   3.967  -0.181  2.1921 -0.9001  1.2602
  653MOL0     H86136   8.587   3.871  -0.315 -0.2607 -0.2151 -1.3984
  653MOL0     H86137   8.675   3.811  -0.097  1.1658 -1.2032  2.0767
  653MOL0     H86138   8.567   3.679  -0.138  0.1945 -1.2495  5.1987
  653MOL0     H86139   8.494   3.902   0.046 -1.4790  0.9621 -1.4854
  653MOL0     H86140   8.392   3.770  -0.002  0.2081  0.9326 -0.9825
  653MOL0     H86141   8.509   3.766   0.223  1.9459 -4.0521  3.2276
  653MOL0     H86142   8.657   3.731   0.135  0.2462 -1.9936 -2.0742
  653MOL0     H86143   8.552   3.526   0.029 -1.8538 -0.0509 -0.7024
  653MOL0     H86144   8.393   3.565   0.106 -0.2447 -1.5606  0.8127
  653MOL0     H86145   8.642   3.522   0.267 -1.8818  2.7539  4.7178
  653MOL0     H86146   8.472   3.506   0.318  0.1152  1.6852 -1.0062
  653MOL0     H86147   8.454   3.281   0.194  0.6778 -1.8083 -3.3108
  653MOL0     H86148   8.615   3.292   0.290  2.7339  0.3413 -2.0518
  653MOL0     H86149   8.831   3.404   0.118  0.5862 -0.6483 -1.4351
  653MOL0     H86150   9.028   3.267  -0.035  0.7955  1.8770 -1.1585
  653MOL0     H86151   8.961   3.379  -0.149 -0.8292 -0.1209  1.3589
  653MOL0     H86152   8.889   3.198  -0.297 -0.1672 -1.9195 -0.6356
  653MOL0     H86153   8.932   3.081  -0.177  1.6607  0.0128  2.0950
  653MOL0     H86154   9.180   3.202  -0.209  1.5530 -0.7608  0.1382
  653MOL0     H86155   9.116   3.093  -0.332  0.1496 -0.2775  1.4915
  653MOL0     H86156   9.092   3.392  -0.356  1.4142  0.7997 -0.0293
  653MOL0     H86157   9.019   3.294  -0.482 -2.2641 -0.3593  2.1348
  653MOL0     H86158   9.223   3.568  -0.440 -0.1603 -2.0815 -3.9403
  653MOL0     H86159   9.418   3.673  -0.336  0.5476  0.4931 -2.1483
  653MOL0     H86160   9.821   3.742  -0.122  1.3045  1.3459  0.8887
  653MOL0     H86161  10.043   3.830  -0.095 -2.3621 -1.0552  1.9857
  653MOL0     H86162  10.261   3.735   0.047 -1.0753 -2.3630 -1.5593
  653MOL0     H86163  10.281   3.872  -0.049  2.6746  0.3248 -3.4270
  653MOL0     H86164  10.503   3.836   0.033  1.3130  0.4368 -0.8896
  653MOL0     H86165  10.510   3.761  -0.122 -1.2670  0.4793 -0.8926
  653MOL0     H86166  10.451   3.547   0.003  0.9316  1.0656 -2.0709
  653MOL0     H86167  10.470   3.622   0.158  1.1548 -1.7666 -0.8817
  653MOL0     H86168  10.695   3.511   0.090  2.6657 -0.5948 -1.8677
  653MOL0     H86169  10.683   3.599  -0.044 -0.3282  1.8067  0.6855
  653MOL0     H86170  10.700   3.812   0.077 -1.3249 -0.6238 -2.0183
  653MOL0     H86171  10.837   3.709   0.112  0.6357  4.7992  0.0067
  653MOL0     H86172  10.705   3.629   0.321 -0.2896 -1.5342 -2.4192
  653MOL0     H86173  10.602   3.760   0.287  0.8960  3.2449  0.1381
  653MOL0     H86174  10.909   3.783   0.339  0.0477 -0.2673 -0.2190
  653MOL0     H86175  10.815   3.917   0.279 -0.2963  0.3250  0.2571
  653MOL0     H86176  10.866   3.908   0.532 -1.2410  0.6936  0.9409
  653MOL0     H86177  10.760   3.766   0.542 -1.8157  0.5835 -0.5573
  653MOL0     H86178  10.227   3.473  -0.250  0.8995  1.1343  3.4199
  653MOL0     H86179   9.997   3.378  -0.275 -1.9524 -0.8067  1.8283
  653MOL0     H86180   9.641   3.313  -0.325  1.4858  3.1324  0.4473
  653MOL0     H86181   9.440   3.186  -0.400  0.3971 -0.1736  0.2103
  653MOL0     H86182   8.462   3.510  -0.206 -0.7297 -0.6759  3.2699
  653MOL0     H86183   8.298   3.333  -0.100 -1.6710  0.1195  1.1678
  653MOL0     H86184   7.819   3.203  -0.107 -4.4453  0.6629  0.0337
  653MOL0     H86185   7.639   3.094  -0.021  0.6754 -1.2182  0.3671
  653MOL0     H86186   7.443   3.049   0.069  0.6004  2.2093 -1.3335
  653MOL0     H86187   7.454   3.199   0.154  1.0869 -0.2577  2.2445
  653MOL0     H86188   7.310   2.959   0.275 -3.0785  0.2781 -0.4073
  653MOL0     H86189   7.361   3.117   0.354 -1.0148 -0.7887  0.3574
  653MOL0     H86190   7.189   3.059   0.105  0.4554  0.6726 -0.9152
  653MOL0     H86191   7.219   3.223   0.146 -1.5965  1.2043  1.6282
  653MOL0     H86192   7.072   3.040   0.329  1.0790 -0.9300 -1.5302
  653MOL0     H86193   7.098   3.219   0.352  0.4959 -1.7543  1.3945
  653MOL0     H86194   6.785   3.227   0.089 -0.5060  1.0885  0.2676
  653MOL0     H86195   7.767   3.134   0.371 -1.4412 -0.1620 -1.6751
  653MOL0     H86196   7.972   3.257   0.287  0.9933  3.9034 -2.9928
  654MOL0     O86197   8.812   2.325   8.478  0.0658  0.2402 -0.2643
  654MOL0     C86198   8.841   2.257   8.376  0.0245 -1.3160 -1.0450
  654MOL0     O86199   8.755   2.174   8.311  0.0689 -0.4277 -0.7112
  654MOL0     C86200   8.659   2.106   8.382 -0.1012  0.5164 -0.6285
  654MOL0     C86201   8.680   2.070   8.514  0.0734 -0.1538 -0.6059
  654MOL0     C86202   8.576   1.991   8.576 -0.6660  0.4683 -0.3221
  654MOL0     C86203   8.466   1.940   8.503  0.0770  0.4868 -0.1982
  654MOL0     O86204   8.383   1.852   8.560 -0.1617 -0.1882  0.7443
  654MOL0     C86205   8.248   1.862   8.521  0.7375  0.2617  0.0417
  654MOL0     C86206   8.175   1.986   8.586  0.6509  0.3412  0.3824
  654MOL0     C86207   8.178   1.979   8.736  0.2532  0.9779 -0.5861
  654MOL0     C86208   8.091   2.080   8.805  0.3412 -0.8950  0.5741
  654MOL0     C86209   8.133   2.101   8.951  0.1608  1.3787 -1.0679
  654MOL0     C86210   8.045   2.177   9.038  0.7359 -0.0420 -0.1450
  654MOL0     C86211   8.039   2.323   9.002 -0.0577 -0.0752  0.2214
  654MOL0     C86212   7.954   2.408   9.095 -0.2462  0.2165 -0.1600
  654MOL0     N86213   7.995   2.551   9.098  0.9121 -0.6203  0.3205
  654MOL0     C86214   7.960   2.639   8.996  0.2541  0.2413 -0.1423
  654MOL0     C86215   8.029   2.753   9.022 -0.2239  0.0656  0.2676
  654MOL0     C86216   8.001   2.875   8.950 -1.0202 -0.1032  0.5316
  654MOL0     C86217   7.974   3.007   9.029 -0.5143  0.3496 -0.7806
  654MOL0     C86218   8.076   3.052   9.135  0.3313  0.3978  0.1060
  654MOL0     C86219   8.057   3.201   9.163 -0.2794 -0.0360  0.3285
  654MOL0     O86220   7.925   3.238   9.198  0.2693 -0.1885 -0.8047
  654MOL0     C86221   7.883   3.208   9.326 -0.4353 -0.4478 -0.2920
  654MOL0     C86222   7.961   3.159   9.426  1.0442  0.0250 -1.1880
  654MOL0     C86223   7.904   3.130   9.555  0.4951 -0.5316 -0.1928
  654MOL0     C86224   7.769   3.155   9.589  1.0600 -0.1558  0.4254
  654MOL0     C86225   7.720   3.134   9.732  0.2502 -0.2734  0.2629
  654MOL0     O86226   7.590   3.164   9.751  0.0683  0.0594 -0.2896
  654MOL0     C86227   7.546   3.162   9.876  0.1955  0.2295 -1.3447
  654MOL0     C86228   7.454   3.061   9.916  0.5058 -1.1865  0.0142
  654MOL0     C86229   7.418   3.057  10.048 -0.5373 -0.8012  0.6281
  654MOL0     C86230   7.475   3.143  10.139 -0.2814 -0.3513  0.7170
  654MOL0     O86231   7.432   3.147  10.267  0.2388 -1.2618 -0.0792
  654MOL0     C86232   7.503   3.043  10.342  0.5799  0.4144 -0.3660
  654MOL0     C86233   7.400   2.970  10.425 -0.1127 -0.0865 -0.2738
  654MOL0     C86234   7.478   2.859  10.506 -0.3467  0.3102  0.1972
  654MOL0     C86235   7.386   2.793  10.612  0.2758 -0.6938  0.4259
  654MOL0     C86236   7.469   2.694  10.711 -0.5550 -0.7568  0.3699
  654MOL0     C86237   7.379   2.637  10.822  0.7509 -0.9159 -0.4667
  654MOL0     C86238   7.360   2.490  10.805  0.1416 -0.3541 -0.1363
  654MOL0     C86239   7.280   2.430  10.925  0.5376  0.0251 -0.2551
  654MOL0    Cl86240   7.359   2.454  11.082 -1.1650 -0.0425  0.0800
  654MOL0     C86241   7.566   3.239  10.104  0.6132 -0.1119 -0.2646
  654MOL0     C86242   7.593   3.247   9.970  0.2406  0.2386  0.3571
  654MOL0     O86243   7.791   3.081   9.808 -0.3150 -0.4204  0.2462
  654MOL0     C86244   7.690   3.223   9.493 -0.3687 -0.1551 -0.1204
  654MOL0     C86245   7.749   3.246   9.362  0.2204 -0.4122 -0.7144
  654MOL0     N86246   8.099   2.734   9.141  0.1103  0.6636 -0.2449
  654MOL0     N86247   8.081   2.613   9.178 -0.5316  0.2018  0.4185
  654MOL0     C86248   8.457   1.982   8.366 -0.7450 -0.4615  0.3712
  654MOL0     C86249   8.548   2.063   8.311 -0.3164 -0.4076 -0.0580
  654MOL0     C86250   8.955   2.307   8.288  0.5126 -0.4392 -0.0390
  654MOL0     C86251   9.030   2.430   8.323 -0.1124  0.1795  0.2294
  654MOL0     C86252   9.124   2.490   8.233  0.8228  0.9368  0.4149
  654MOL0     C86253   9.163   2.415   8.118  0.1886 -0.7103  0.2233
  654MOL0     O86254   9.247   2.464   8.026  0.0566  0.3921  0.4203
  654MOL0     C86255   9.284   2.610   8.047 -0.9040  0.2049 -0.4439
  654MOL0     C86256   9.371   2.676   7.944 -0.4148 -0.1548 -0.0522
  654MOL0     C86257   9.493   2.606   7.883 -0.3995  0.1661 -0.4574
  654MOL0     C86258   9.547   2.673   7.760 -0.7429 -0.9769  0.5788
  654MOL0     C86259   9.649   2.769   7.793 -0.0918 -0.1033  0.1374
  654MOL0     C86260   9.743   2.846   7.807  0.4509  0.0902 -0.3104
  654MOL0     C86261   9.090   2.294   8.088  1.1096 -0.2297  0.6526
  654MOL0     C86262   8.977   2.246   8.161 -0.9627  1.0352 -0.5429
  654MOL0     H86263   8.764   2.108   8.571 -0.7732  1.6869 -0.5098
  654MOL0     H86264   8.567   1.979   8.684 -0.5307 -1.0286 -0.4600
  654MOL0     H86265   8.201   1.771   8.558  2.8985 -1.9099 -2.1340
  654MOL0     H86266   8.221   1.871   8.415  0.3502 -1.7970 -0.0768
  654MOL0     H86267   8.074   1.984   8.544  2.1003  0.4198 -3.4408
  654MOL0     H86268   8.229   2.076   8.557  2.0936 -0.4585  0.4577
  654MOL0     H86269   8.279   1.982   8.778  0.4307 -0.2936 -0.8725
  654MOL0     H86270   8.131   1.885   8.767 -3.4391  2.5535 -0.8318
  654MOL0     H86271   8.104   2.172   8.747  0.7307 -3.4664 -3.8960
  654MOL0     H86272   7.986   2.051   8.803  0.3860 -1.1432  1.5425
  654MOL0     H86273   8.215   2.173   8.962  0.1162  1.1642  1.2502
  654MOL0     H86274   8.155   2.012   9.011 -0.2004  3.4573  2.4171
  654MOL0     H86275   8.091   2.178   9.137  1.0727  2.0841 -0.2783
  654MOL0     H86276   7.943   2.138   9.039  0.3326  0.9555  1.2777
  654MOL0     H86277   8.140   2.358   9.024 -0.0509  1.0534 -1.4752
  654MOL0     H86278   8.009   2.331   8.897 -0.7547  0.4310  0.4533
  654MOL0     H86279   7.965   2.368   9.197 -2.2244  2.3293  0.9757
  654MOL0     H86280   7.849   2.402   9.067 -0.6201  4.3365 -0.2427
  654MOL0     H86281   7.880   2.630   8.923 -0.2276  1.1217  0.2609
  654MOL0     H86282   7.915   2.865   8.883  0.0428  2.7262 -1.4252
  654MOL0     H86283   8.088   2.896   8.888 -2.9003  0.7824 -1.9565
  654MOL0     H86284   7.870   2.998   9.063  0.5407 -0.3252  2.6046
  654MOL0     H86285   7.964   3.080   8.948 -1.4643 -0.9695 -1.8986
  654MOL0     H86286   8.067   2.997   9.229  0.5925  0.3763  0.1207
  654MOL0     H86287   8.179   3.031   9.106  0.1293 -1.6141  0.7059
  654MOL0     H86288   8.098   3.253   9.076  0.8857 -1.9100 -0.3062
  654MOL0     H86289   8.126   3.227   9.243 -1.2106 -1.8080  1.8018
  654MOL0     H86290   8.058   3.116   9.407  0.5636 -1.1152 -1.1272
  654MOL0     H86291   7.980   3.103   9.628  0.0894  0.4410  0.6188
  654MOL0     H86292   7.425   2.985   9.844  0.7774 -1.8509  0.5905
  654MOL0     H86293   7.369   2.965  10.080 -3.2606  0.6420  0.8916
  654MOL0     H86294   7.565   3.105  10.407 -2.0130  3.5867 -0.6695
  654MOL0     H86295   7.559   2.971  10.281 -0.9351  0.2806 -1.6768
  654MOL0     H86296   7.315   2.939  10.362  0.4340 -3.3099  0.3772
  654MOL0     H86297   7.357   3.042  10.495  0.9256 -0.6776  1.0007
  654MOL0     H86298   7.561   2.909  10.558  1.4875 -0.0595 -2.1772
  654MOL0     H86299   7.524   2.788  10.436  0.4462  0.3373  0.6680
  654MOL0     H86300   7.330   2.864  10.674  2.1644 -0.2764  1.7270
  654MOL0     H86301   7.312   2.730  10.563  0.2616  1.3570 -2.4672
  654MOL0     H86302   7.550   2.749  10.759  0.2915 -1.3811 -0.3184
  654MOL0     H86303   7.515   2.618  10.647 -1.5129 -0.7668 -0.3233
  654MOL0     H86304   7.287   2.696  10.813 -0.0540 -2.2530 -1.2775
  654MOL0     H86305   7.425   2.650  10.921 -0.9576 -3.8230  0.8734
  654MOL0     H86306   7.300   2.480  10.714 -1.8161 -1.6799  1.2031
  654MOL0     H86307   7.453   2.439  10.780 -1.6579 -3.4553 -1.0783
  654MOL0     H86308   7.261   2.323  10.910 -0.6611  0.0102  1.2310
  654MOL0     H86309   7.183   2.479  10.932 -0.3414 -1.7872  1.0425
  654MOL0     H86310   7.616   3.309  10.171 -1.6430  3.5988 -2.1202
  654MOL0     H86311   7.657   3.329   9.941 -0.8801  0.7127 -0.8397
  654MOL0     H86312   7.586   3.247   9.511 -0.8233 -0.0876 -2.5496
  654MOL0     H86313   7.695   3.297   9.282  2.8199  0.3606 -2.0802
  654MOL0     H86314   8.373   1.959   8.301  0.3717 -1.3070 -0.8122
  654MOL0     H86315   8.520   2.102   8.214 -3.8637 -0.7922  0.6670
  654MOL0     H86316   9.002   2.482   8.414 -3.1910 -1.9486  0.6403
  654MOL0     H86317   9.162   2.588   8.259  0.4681  1.5113 -1.1082
  654MOL0     H86318   9.366   2.615   8.120 -1.3857 -1.1635  0.2277
  654MOL0     H86319   9.202   2.676   8.074 -1.7108  0.3116 -2.9271
  654MOL0     H86320   9.299   2.701   7.865 -1.8702 -4.6788 -0.4506
  654MOL0     H86321   9.404   2.769   7.991 -0.2335 -0.4080  0.3147
  654MOL0     H86322   9.468   2.506   7.848 -0.1141 -1.5784  3.7977
  654MOL0     H86323   9.573   2.590   7.956 -0.8583 -0.4821 -0.0899
  654MOL0     H86324   9.590   2.600   7.691  2.3236  0.0166  1.2536
  654MOL0     H86325   9.468   2.730   7.712  0.7616 -0.2057 -1.1095
  654MOL0     H86326   9.835   2.899   7.805  0.2441  0.4960  0.4113
  654MOL0     H86327   9.094   2.246   7.991 -0.0265 -2.1814  1.5239
  654MOL0     H86328   8.919   2.158   8.135 -0.1823  0.4890 -0.4620
  655MOL0     O86329   9.102  10.207   4.447  0.0017  0.4832  0.5342
  655MOL0     C86330   9.054  10.304   4.392 -0.1358 -0.2754  0.3937
  655MOL0     O86331   9.013  10.418   4.455 -0.4153  1.2646  0.5807
  655MOL0     C86332   9.020  10.442   4.588  0.0988 -0.3205 -1.0271
  655MOL0     C86333   9.011  10.347   4.683  0.3070 -0.9937 -0.7249
  655MOL0     C86334   8.990  10.383   4.817  0.3331  0.3082  0.4629
  655MOL0     C86335   8.999  10.509   4.856 -1.0029  0.1777 -0.4756
  655MOL0     O86336   9.000  10.526   4.994  0.5120 -1.0705  0.6852
  655MOL0     C86337   8.973  10.658   5.057  0.4524  0.2226 -0.2872
  655MOL0     C86338   8.933  10.607   5.195  0.4983 -0.6973 -0.4490
  655MOL0     C86339   8.952  10.718   5.309 -0.7807  1.0630  0.0514
  655MOL0     C86340   8.843  10.823   5.310  0.3666  0.5148 -0.2333
  655MOL0     C86341   8.871  10.946   5.390  0.2082  0.1994 -0.2332
  655MOL0     C86342   8.889  10.922   5.540 -0.2525 -0.4665 -0.2745
  655MOL0     C86343   8.777  10.846   5.622 -0.3904 -0.2702  0.5916
  655MOL0     C86344   8.821  10.802   5.763 -0.1179 -1.0038 -0.1350
  655MOL0     N86345   8.878  10.910   5.838 -0.9584 -0.0707 -0.0956
  655MOL0     C86346   9.003  10.898   5.887 -0.7422 -0.5732 -0.2845
  655MOL0     C86347   9.017  11.012   5.962 -0.0057 -0.2434 -0.2114
  655MOL0     C86348   9.137  11.042   6.056 -0.0041  0.4160 -0.7442
  655MOL0     C86349   9.110  10.976   6.190  0.7354 -0.3630 -0.0606
  655MOL0     C86350   9.226  10.995   6.288 -0.0680  0.3985  0.0334
  655MOL0     C86351   9.312  11.122   6.271  0.5011  0.5196  0.0677
  655MOL0     O86352   9.412  11.113   6.167  1.0597 -0.1356  0.1367
  655MOL0     C86353   9.476  11.230   6.145 -0.0901 -0.7946  0.0782
  655MOL0     C86354   9.545  11.300   6.245  0.8704  0.2088  0.7381
  655MOL0     C86355   9.618  11.415   6.216  0.3851 -0.3669  0.4072
  655MOL0     C86356   9.627  11.456   6.076  0.1806 -0.1860 -0.0975
  655MOL0     C86357   9.721  11.564   6.039 -0.8800 -1.0226 -0.9216
  655MOL0     O86358   9.750  11.580   5.912  0.3124  0.4428  0.0350
  655MOL0     C86359   9.851  11.648   5.851  1.1839  0.3703  0.3005
  655MOL0     C86360   9.877  11.602   5.726 -0.3914 -0.5421  0.8911
  655MOL0     C86361   9.980  11.657   5.656 -0.4016  0.5946  0.3467
  655MOL0     C86362  10.060  11.761   5.702  0.2037 -0.1973  0.0271
  655MOL0     O86363  10.176  11.805   5.636  0.8818  0.9628 -0.1532
  655MOL0     C86364  10.190  11.948   5.624 -0.4395  0.3912 -0.1300
  655MOL0     C86365  10.336  11.965   5.570  0.3715 -0.3598 -0.2991
  655MOL0     C86366  10.452  11.948   5.676 -0.6050 -0.6535 -0.1197
  655MOL0     C86367  10.437  12.037   5.800 -0.1870 -0.2861  0.4522
  655MOL0     C86368  10.483  12.171   5.782 -0.5382 -0.0685 -0.1628
  655MOL0     C86369  10.476  12.259   5.905 -0.3602 -1.3728 -0.7558
  655MOL0     C86370  10.534  12.398   5.890  0.0808 -1.2619  0.1834
  655MOL0     C86371  10.479  12.463   5.760 -0.5130 -0.7218 -1.0420
  655MOL0    Cl86372  10.305  12.487   5.758 -0.1414  0.6247  0.4466
  655MOL0     C86373  10.031  11.808   5.831  1.5741 -0.2034  0.3329
  655MOL0     C86374   9.923  11.754   5.904  0.2823 -0.5025 -0.4888
  655MOL0     O86375   9.787  11.623   6.127  0.2311 -0.0548  0.6303
  655MOL0     C86376   9.552  11.389   5.985 -0.3059 -0.9200 -0.4878
  655MOL0     C86377   9.485  11.273   6.019  0.0580 -0.1035  0.2994
  655MOL0     N86378   8.897  11.079   5.970  0.2296 -0.2323  0.1049
  655MOL0     N86379   8.813  11.016   5.885 -0.7365  0.3031  0.7225
  655MOL0     C86380   9.025  10.611   4.770  0.1507 -0.2562 -0.0465
  655MOL0     C86381   9.016  10.580   4.632  0.2433  0.5311 -0.1899
  655MOL0     C86382   9.022  10.304   4.247  0.3526 -0.7586  0.1962
  655MOL0     C86383   9.026  10.180   4.184  0.4604 -0.1277  1.0180
  655MOL0     C86384   8.994  10.169   4.051  0.3916 -0.6176  0.0266
  655MOL0     C86385   8.945  10.284   3.977 -0.9884 -0.0208 -0.1873
  655MOL0     O86386   8.902  10.280   3.851  0.5831 -0.0980  0.0959
  655MOL0     C86387   8.987  10.354   3.754  0.0395 -0.3998 -0.3139
  655MOL0     C86388   8.988  10.280   3.621  0.0102  0.3763  0.8732
  655MOL0     C86389   8.862  10.319   3.542 -0.5999 -0.0891  0.6494
  655MOL0     C86390   8.812  10.207   3.454  0.3092  0.9749  0.3457
  655MOL0     C86391   8.729  10.265   3.350 -0.9850  0.5638  0.0045
  655MOL0     C86392   8.662  10.341   3.276  0.4460 -0.2186  0.0016
  655MOL0     C86393   8.953  10.405   4.039  0.1583 -0.2014  0.3150
  655MOL0     C86394   8.983  10.416   4.172 -0.3434  0.4175  1.1181
  655MOL0     H86395   9.003  10.241   4.661 -0.1027 -0.7137 -2.0582
  655MOL0     H86396   8.957  10.313   4.894 -3.6143  0.9837 -0.3928
  655MOL0     H86397   8.890  10.716   5.016 -2.0179  0.0029  3.7714
  655MOL0     H86398   9.067  10.712   5.053  1.1408 -0.8119  1.0167
  655MOL0     H86399   8.992  10.521   5.228  0.7506  0.4539  2.4000
  655MOL0     H86400   8.828  10.580   5.203  0.3078  0.4850  2.0124
  655MOL0     H86401   9.054  10.756   5.318 -1.8503  4.3528 -0.4187
  655MOL0     H86402   8.945  10.667   5.406  1.2310 -1.8177 -1.1516
  655MOL0     H86403   8.812  10.846   5.207  0.1118 -0.4460 -0.3839
  655MOL0     H86404   8.753  10.778   5.354  1.5673  1.1260  3.1416
  655MOL0     H86405   8.784  11.010   5.371  0.9240  0.2083 -4.5193
  655MOL0     H86406   8.958  10.999   5.349  1.2087 -0.6547  0.7560
  655MOL0     H86407   8.901  11.019   5.590  2.0393  0.0280 -1.6608
  655MOL0     H86408   8.983  10.866   5.544  1.4969  2.3378  1.8235
  655MOL0     H86409   8.692  10.913   5.625 -0.5549 -0.4882  0.9187
  655MOL0     H86410   8.738  10.762   5.563 -1.3622  0.7505 -0.2577
  655MOL0     H86411   8.897  10.726   5.746  1.9412  1.3478 -2.3106
  655MOL0     H86412   8.730  10.762   5.809 -2.0754  1.8077 -1.2742
  655MOL0     H86413   9.082  10.824   5.877  2.7158  2.8325 -0.3972
  655MOL0     H86414   9.159  11.150   6.060 -1.1815  0.6932 -1.1862
  655MOL0     H86415   9.224  10.998   6.007 -1.6961 -0.1483 -3.4490
  655MOL0     H86416   9.103  10.868   6.172  0.7765 -0.1368 -1.5924
  655MOL0     H86417   9.022  11.016   6.241  3.0128  0.6688  3.3939
  655MOL0     H86418   9.177  10.993   6.386  1.8844  1.2765  1.0821
  655MOL0     H86419   9.284  10.904   6.265 -3.0940 -1.4221 -0.9432
  655MOL0     H86420   9.352  11.136   6.372 -0.9388 -0.9180  0.8915
  655MOL0     H86421   9.237  11.200   6.254 -1.2744 -1.3472 -1.1285
  655MOL0     H86422   9.545  11.269   6.349  2.3895 -2.1836  0.0978
  655MOL0     H86423   9.682  11.450   6.296 -0.1514 -2.6526  1.9383
  655MOL0     H86424   9.833  11.515   5.678  0.1952 -2.4147  3.5132
  655MOL0     H86425  10.002  11.616   5.558 -0.0814  1.1810  0.1688
  655MOL0     H86426  10.168  12.008   5.713 -1.1734 -1.0650  0.7068
  655MOL0     H86427  10.112  11.985   5.556 -0.2318  3.8715  1.3343
  655MOL0     H86428  10.349  12.066   5.532  2.4679 -0.1851  0.7567
  655MOL0     H86429  10.350  11.884   5.497 -1.2559 -4.5141  3.4946
  655MOL0     H86430  10.549  11.974   5.632 -0.3664  0.4166  0.9693
  655MOL0     H86431  10.464  11.842   5.698 -1.3962 -0.9543 -1.0441
  655MOL0     H86432  10.330  12.033   5.821 -0.8971 -3.4043 -2.8126
  655MOL0     H86433  10.492  11.987   5.880 -0.7262  0.2901  1.1998
  655MOL0     H86434  10.421  12.217   5.704 -1.2921  3.1444  2.1153
  655MOL0     H86435  10.591  12.175   5.767 -0.0481 -2.2038  2.1813
  655MOL0     H86436  10.514  12.217   5.999  0.1671 -0.5663 -0.6021
  655MOL0     H86437  10.371  12.283   5.922  0.6580  2.4173  1.3720
  655MOL0     H86438  10.509  12.470   5.968  0.8621 -0.0253 -0.6781
  655MOL0     H86439  10.642  12.383   5.891  0.2206 -0.2455  0.9453
  655MOL0     H86440  10.514  12.420   5.665  1.3333  4.0744 -2.8366
  655MOL0     H86441  10.531  12.559   5.756  3.0386 -2.4745 -0.6039
  655MOL0     H86442  10.089  11.888   5.877  3.9717 -0.9291 -1.2141
  655MOL0     H86443   9.905  11.808   5.997  1.0172  1.5114 -1.4639
  655MOL0     H86444   9.543  11.424   5.882  2.6720 -3.1749 -1.6631
  655MOL0     H86445   9.431  11.223   5.939  2.9174  0.6146 -2.2529
  655MOL0     H86446   9.047  10.717   4.784  0.6267 -0.3736  0.1298
  655MOL0     H86447   9.017  10.669   4.569 -2.4986  0.8248  0.0571
  655MOL0     H86448   9.073  10.094   4.229  1.4908  0.3605  0.9181
  655MOL0     H86449   8.988  10.067   4.014  0.2727 -0.3766 -0.6318
  655MOL0     H86450   9.091  10.352   3.786  0.5270 -1.8370 -1.8943
  655MOL0     H86451   8.950  10.457   3.746 -0.6034 -0.3892  2.0193
  655MOL0     H86452   9.073  10.309   3.558 -1.6406 -1.2990 -2.3682
  655MOL0     H86453   8.986  10.171   3.632 -1.0371  0.3446  0.4779
  655MOL0     H86454   8.878  10.400   3.470 -2.5160 -1.0836 -1.0047
  655MOL0     H86455   8.781  10.347   3.610 -0.8259 -3.0268  1.7317
  655MOL0     H86456   8.894  10.148   3.413  0.5921  0.9661  0.9233
  655MOL0     H86457   8.748  10.140   3.512  1.9913 -1.7856 -0.7773
  655MOL0     H86458   8.615  10.419   3.220  1.1020 -1.5274 -2.5218
  655MOL0     H86459   8.910  10.488   3.984  3.0326  1.1333 -0.1003
  655MOL0     H86460   8.973  10.511   4.224  1.9416  1.0468  0.5347
  656MOL0     O86461   7.014   5.506   9.639 -0.3878  0.5063 -0.0631
  656MOL0     C86462   7.043   5.529   9.518  0.2964  0.4940  0.8122
  656MOL0     O86463   7.158   5.503   9.455  0.0295 -0.2862  0.5647
  656MOL0     C86464   7.270   5.459   9.515  0.6363  0.4281 -0.1818
  656MOL0     C86465   7.291   5.463   9.649  0.5830  0.2633 -0.0070
  656MOL0     C86466   7.416   5.417   9.698 -0.5938  0.1720  0.1166
  656MOL0     C86467   7.500   5.340   9.621 -0.2418  0.7009  0.2718
  656MOL0     O86468   7.602   5.258   9.671 -0.0260 -0.7555 -0.0980
  656MOL0     C86469   7.607   5.216   9.799 -0.1904  0.2806 -0.1574
  656MOL0     C86470   7.520   5.089   9.840  0.9440  0.7307 -0.7193
  656MOL0     C86471   7.376   5.102   9.827 -0.8420 -0.2258  0.7102
  656MOL0     C86472   7.304   4.982   9.887  0.5031  0.0851  0.3318
  656MOL0     C86473   7.159   4.992   9.858  0.9101  0.5857 -0.3833
  656MOL0     C86474   7.087   4.857   9.886 -0.6812  0.6421  0.6172
  656MOL0     C86475   7.118   4.766   9.757  0.0753  0.2935  1.0568
  656MOL0     C86476   7.047   4.633   9.765 -0.0490  0.1388  0.2140
  656MOL0     N86477   7.054   4.539   9.644 -0.3529 -0.0517  0.2125
  656MOL0     C86478   7.162   4.526   9.555  0.4047  0.4798 -0.5459
  656MOL0     C86479   7.108   4.458   9.452  0.8724  0.3570 -0.8269
  656MOL0     C86480   7.185   4.442   9.319  0.6005 -0.4906 -0.1295
  656MOL0     C86481   7.189   4.300   9.256  0.2476  0.3929  0.4521
  656MOL0     C86482   7.048   4.229   9.229  0.4747 -1.5383  0.6399
  656MOL0     C86483   7.076   4.096   9.149  0.3459  0.2099 -0.0206
  656MOL0     O86484   6.954   4.015   9.138 -0.3664 -0.4402 -1.0231
  656MOL0     C86485   6.970   3.887   9.076 -0.1230  0.0419 -0.3135
  656MOL0     C86486   6.848   3.826   9.047 -0.3684 -0.5305 -0.6053
  656MOL0     C86487   6.837   3.697   8.994  0.4519 -0.6857 -0.0781
  656MOL0     C86488   6.953   3.634   8.969 -0.0485 -0.1319 -0.9044
  656MOL0     C86489   6.953   3.511   8.897  0.1299  0.2511  0.6249
  656MOL0     O86490   6.833   3.435   8.900  0.4640 -0.1010  0.1168
  656MOL0     C86491   6.859   3.309   8.858  0.2100  1.0360  0.3794
  656MOL0     C86492   6.784   3.262   8.750 -0.0847  0.9871 -0.6244
  656MOL0     C86493   6.784   3.128   8.711  0.1323  0.1083  0.0653
  656MOL0     C86494   6.849   3.032   8.789 -0.4303 -0.5571 -0.2613
  656MOL0     O86495   6.845   2.901   8.772 -0.1320 -0.0277 -0.9424
  656MOL0     C86496   6.760   2.842   8.673  0.1831  0.0996  0.3564
  656MOL0     C86497   6.757   2.694   8.683  0.2825 -0.1264  0.7334
  656MOL0     C86498   6.690   2.643   8.814 -0.6762 -0.1821  0.4255
  656MOL0     C86499   6.692   2.489   8.818 -0.6239  0.3571 -0.1852
  656MOL0     C86500   6.587   2.439   8.923 -0.0835 -0.0015 -0.8247
  656MOL0     C86501   6.585   2.283   8.947 -0.0217 -0.1363 -0.9166
  656MOL0     C86502   6.545   2.199   8.829 -0.6077  0.0373  0.3741
  656MOL0     C86503   6.658   2.090   8.809  0.3846  0.1364 -0.5903
  656MOL0    Cl86504   6.818   2.176   8.771 -0.2272  0.3941 -0.4206
  656MOL0     C86505   6.932   3.071   8.890 -0.4640 -0.2708 -0.0398
  656MOL0     C86506   6.940   3.215   8.923 -0.5070  0.5007  0.2628
  656MOL0     O86507   7.053   3.491   8.825 -0.4292  0.1732  0.3466
  656MOL0     C86508   7.087   3.689   8.984  0.5821 -0.5177  0.3679
  656MOL0     C86509   7.091   3.814   9.037  0.1070 -0.0164  0.4334
  656MOL0     N86510   6.970   4.433   9.481 -0.3297  0.1191  0.0353
  656MOL0     N86511   6.939   4.485   9.592  0.0010 -0.1710  0.2305
  656MOL0     C86512   7.473   5.333   9.482  0.4379 -0.0273  0.2623
  656MOL0     C86513   7.360   5.397   9.433 -0.1649  0.3617 -0.0180
  656MOL0     C86514   6.923   5.574   9.429 -1.1708 -0.3418 -0.1044
  656MOL0     C86515   6.792   5.574   9.464  0.0491 -0.0368  0.2663
  656MOL0     C86516   6.701   5.605   9.372 -0.1312  0.1843  0.8793
  656MOL0     C86517   6.725   5.665   9.248 -0.8230  0.0978  0.6446
  656MOL0     O86518   6.624   5.710   9.171  0.6409 -0.2787  0.3973
  656MOL0     C86519   6.597   5.843   9.200  0.1873 -1.0023  0.3525
  656MOL0     C86520   6.493   5.917   9.108 -0.6907 -0.4800 -0.0440
  656MOL0     C86521   6.478   6.055   9.180  0.7129 -0.5145  0.0609
  656MOL0     C86522   6.359   6.130   9.118  1.3825 -0.3579  0.1017
  656MOL0     C86523   6.361   6.188   8.984  0.3026  0.6278  0.3670
  656MOL0     C86524   6.386   6.225   8.871  0.2725 -0.2112  0.6673
  656MOL0     C86525   6.857   5.687   9.216 -0.3284  0.9532 -0.3542
  656MOL0     C86526   6.963   5.639   9.303 -0.2679  0.0606  0.4039
  656MOL0     H86527   7.233   5.520   9.721  1.1091 -0.8163  1.3120
  656MOL0     H86528   7.434   5.443   9.802 -1.2752  1.3053 -0.0363
  656MOL0     H86529   7.580   5.298   9.866  0.3745 -0.3774  0.9106
  656MOL0     H86530   7.710   5.181   9.814 -0.7302 -1.1839  0.3509
  656MOL0     H86531   7.544   5.072   9.946 -2.2951  0.3507  0.0531
  656MOL0     H86532   7.551   5.001   9.783 -0.5746 -0.0408 -0.4099
  656MOL0     H86533   7.346   5.120   9.724 -3.3211 -2.1020  1.0157
  656MOL0     H86534   7.343   5.198   9.869 -0.8074  0.7021 -1.2762
  656MOL0     H86535   7.362   4.900   9.844  1.8414  1.8308 -1.3388
  656MOL0     H86536   7.324   4.981   9.995 -0.2610  1.6523  0.5233
  656MOL0     H86537   7.149   5.010   9.751  3.8759  1.2758 -0.6417
  656MOL0     H86538   7.103   5.073   9.906 -2.2782 -1.8741  0.4469
  656MOL0     H86539   6.979   4.871   9.895 -0.5048  0.8890  2.7677
  656MOL0     H86540   7.121   4.798   9.971 -0.4393  2.2326  1.6665
  656MOL0     H86541   7.080   4.817   9.668 -1.2570 -0.6577  1.0534
  656MOL0     H86542   7.223   4.740   9.739 -1.3324 -4.0379 -2.9005
  656MOL0     H86543   6.940   4.648   9.782 -1.2355 -5.5148 -0.4293
  656MOL0     H86544   7.090   4.590   9.855 -1.1057 -0.2825  0.5369
  656MOL0     H86545   7.260   4.571   9.566  1.1575 -1.2006 -0.0811
  656MOL0     H86546   7.288   4.467   9.344 -0.9248  3.5804  3.4907
  656MOL0     H86547   7.133   4.510   9.251 -2.3320  0.1834  2.5058
  656MOL0     H86548   7.245   4.232   9.322  0.8352  0.4573  0.0355
  656MOL0     H86549   7.243   4.299   9.160  0.7636  1.2526  0.7242
  656MOL0     H86550   7.004   4.209   9.327  2.2577 -1.9213  1.3954
  656MOL0     H86551   6.985   4.285   9.158  2.2686  0.2560  0.3738
  656MOL0     H86552   7.149   4.043   9.212  1.5911  1.0153 -0.7409
  656MOL0     H86553   7.127   4.111   9.054  1.3555 -0.1158  0.4494
  656MOL0     H86554   6.754   3.875   9.071  1.3905  2.8694  0.1132
  656MOL0     H86555   6.735   3.668   8.971  0.3916  0.5416 -1.5465
  656MOL0     H86556   6.707   3.330   8.714  0.9766  3.8436  2.0402
  656MOL0     H86557   6.719   3.105   8.628 -0.9051  0.2545  0.8120
  656MOL0     H86558   6.806   2.855   8.574 -0.2938  1.1287  0.2572
  656MOL0     H86559   6.663   2.891   8.680  0.3500  0.8521 -1.8313
  656MOL0     H86560   6.858   2.657   8.660 -0.7709 -2.8502  0.0974
  656MOL0     H86561   6.691   2.660   8.603  1.5098 -0.6208 -0.1063
  656MOL0     H86562   6.583   2.666   8.812 -0.8321 -0.8952  0.1913
  656MOL0     H86563   6.740   2.692   8.898  2.7311 -0.9573 -0.9580
  656MOL0     H86564   6.678   2.447   8.718  2.1431  0.8247 -0.8415
  656MOL0     H86565   6.790   2.458   8.855 -2.1422 -1.2587  2.8909
  656MOL0     H86566   6.488   2.474   8.894  0.2258  0.4828 -1.3113
  656MOL0     H86567   6.620   2.474   9.021  1.3288 -3.5290  0.1229
  656MOL0     H86568   6.503   2.286   9.019 -2.7413  0.8219 -3.8586
  656MOL0     H86569   6.675   2.255   9.004  0.2623  1.8246 -0.3075
  656MOL0     H86570   6.443   2.164   8.849  0.2964 -0.8255  4.2385
  656MOL0     H86571   6.543   2.268   8.745 -1.3759  1.2655  1.3766
  656MOL0     H86572   6.630   2.026   8.725 -1.2485  1.2115 -0.9054
  656MOL0     H86573   6.658   2.026   8.897 -3.8830 -1.5628 -1.5741
  656MOL0     H86574   6.987   2.999   8.950 -0.0632  0.5313  0.5733
  656MOL0     H86575   7.013   3.258   8.990  0.0452 -0.5850  0.3786
  656MOL0     H86576   7.184   3.653   8.953  0.7592 -0.0509  0.3788
  656MOL0     H86577   7.193   3.852   9.034  0.0006  0.2619  0.2916
  656MOL0     H86578   7.527   5.264   9.418 -1.8071 -0.7923 -0.8859
  656MOL0     H86579   7.325   5.384   9.331  0.8132 -0.6629 -0.2427
  656MOL0     H86580   6.769   5.527   9.559 -0.4088 -0.2187  0.0709
  656MOL0     H86581   6.595   5.606   9.396 -0.5226  0.9896 -0.7392
  656MOL0     H86582   6.688   5.902   9.211 -0.5268  0.2208  0.0015
  656MOL0     H86583   6.551   5.848   9.300 -1.4952  1.4054 -0.4438
  656MOL0     H86584   6.513   5.929   9.001 -0.4414  4.5345  0.3301
  656MOL0     H86585   6.395   5.871   9.119 -0.7753 -0.0023  1.4810
  656MOL0     H86586   6.571   6.105   9.151  0.6268 -0.4790 -0.1549
  656MOL0     H86587   6.463   6.032   9.286  2.7493  0.9217  0.7205
  656MOL0     H86588   6.268   6.070   9.122 -1.9429  4.1395  0.8244
  656MOL0     H86589   6.344   6.218   9.182  0.3224 -0.6540  0.2885
  656MOL0     H86590   6.426   6.261   8.778  2.9773  2.1769  2.5763
  656MOL0     H86591   6.893   5.719   9.119  0.2850 -1.6990 -1.0750
  656MOL0     H86592   7.068   5.649   9.278 -0.5175  1.8432 -0.0517
  657MOL0     O86593   4.325   1.946   0.250  0.7924  0.3443  0.1429
  657MOL0     C86594   4.416   1.936   0.170 -1.0402  0.5854  0.6579
  657MOL0     O86595   4.457   2.039   0.079 -0.1407  0.0414 -1.2580
  657MOL0     C86596   4.417   2.165   0.106  0.1844 -0.7964  0.6070
  657MOL0     C86597   4.359   2.243   0.002  0.4991  0.3789 -0.4965
  657MOL0     C86598   4.340   2.378   0.017 -0.3254  0.1178  0.0972
  657MOL0     C86599   4.385   2.446   0.136  0.2300  0.2800  0.4759
  657MOL0     O86600   4.399   2.581   0.166  0.5983 -0.1888  0.2936
  657MOL0     C86601   4.345   2.667   0.070 -0.0015  0.6606  0.0537
  657MOL0     C86602   4.387   2.809   0.104  0.9571 -0.3451 -0.9779
  657MOL0     C86603   4.341   2.857   0.244  0.2117 -0.4463  0.7709
  657MOL0     C86604   4.395   2.995   0.272  0.4530 -0.4785  0.0132
  657MOL0     C86605   4.305   3.072   0.374 -0.3651 -0.9189 -0.3156
  657MOL0     C86606   4.168   3.114   0.322  0.6527  0.8950  0.0631
  657MOL0     C86607   4.161   3.226   0.218 -0.0140  0.1621 -0.5112
  657MOL0     C86608   4.193   3.362   0.293 -0.4787  0.1458  0.6980
  657MOL0     N86609   4.185   3.483   0.213 -1.2894 -0.3453 -0.3549
  657MOL0     C86610   4.292   3.564   0.174  0.1062 -0.4016 -0.6765
  657MOL0     C86611   4.230   3.671   0.129 -0.3029  0.7445  0.7307
  657MOL0     C86612   4.296   3.783   0.046 -0.6889  0.6862 -0.3511
  657MOL0     C86613   4.237   3.807  -0.097 -0.2234 -1.0568  0.1762
  657MOL0     C86614   4.307   3.917  -0.179 -1.4757  0.7512 -0.0816
  657MOL0     C86615   4.274   3.941  -0.327  0.4042  0.8775 -0.0967
  657MOL0     O86616   4.310   3.830  -0.417  0.3126  0.0858 -0.3110
  657MOL0     C86617   4.371   3.838  -0.535 -0.7584 -0.5662  0.9978
  657MOL0     C86618   4.346   3.947  -0.625 -0.2149  0.7475 -0.0882
  657MOL0     C86619   4.403   3.939  -0.752  0.0922 -0.8112 -0.0205
  657MOL0     C86620   4.482   3.835  -0.791 -0.4737 -0.5619  0.8141
  657MOL0     C86621   4.546   3.833  -0.934 -0.1657  0.7050 -0.3975
  657MOL0     O86622   4.618   3.718  -0.957  0.1691  0.3636 -0.0589
  657MOL0     C86623   4.682   3.710  -1.076  0.9252  0.2876 -0.6129
  657MOL0     C86624   4.627   3.623  -1.176  0.7702 -1.5909  0.0241
  657MOL0     C86625   4.681   3.629  -1.304  0.1596  0.1463 -0.5404
  657MOL0     C86626   4.784   3.721  -1.335  0.1004 -0.1014  0.2412
  657MOL0     O86627   4.826   3.735  -1.463 -0.6476 -0.2608  0.0889
  657MOL0     C86628   4.970   3.736  -1.478  0.2702 -0.2417 -0.7909
  657MOL0     C86629   4.999   3.640  -1.591 -0.7557  0.1475  0.0740
  657MOL0     C86630   5.005   3.485  -1.567 -0.7216 -0.4669 -0.0350
  657MOL0     C86631   5.060   3.416  -1.681 -0.2172  0.5781  0.2929
  657MOL0     C86632   5.093   3.268  -1.649  0.0227  0.6113  0.2448
  657MOL0     C86633   5.170   3.191  -1.755 -0.1159  0.5861 -0.2542
  657MOL0     C86634   5.187   3.046  -1.699 -0.6350 -0.8570  0.3661
  657MOL0     C86635   5.213   2.950  -1.811  0.0333 -0.1521 -0.0744
  657MOL0    Cl86636   5.273   2.782  -1.778 -0.2552  0.0743  0.1044
  657MOL0     C86637   4.843   3.794  -1.233  0.6214 -0.1383 -0.7326
  657MOL0     C86638   4.782   3.797  -1.106 -0.2466  0.2374 -0.0091
  657MOL0     O86639   4.526   3.929  -1.013  0.0967  0.5323  0.6268
  657MOL0     C86640   4.508   3.729  -0.698  0.2713 -0.7849  0.0415
  657MOL0     C86641   4.450   3.730  -0.571 -0.0030 -0.1344 -0.4225
  657MOL0     N86642   4.092   3.668   0.147 -0.0685 -0.3471 -0.1644
  657MOL0     N86643   4.073   3.559   0.203  0.0942  0.4909 -0.1787
  657MOL0     C86644   4.429   2.364   0.247  0.6088  0.2108  0.2538
  657MOL0     C86645   4.451   2.225   0.224 -0.3814 -0.8488 -0.1793
  657MOL0     C86646   4.482   1.799   0.150 -0.8849  0.5886 -0.2018
  657MOL0     C86647   4.568   1.762   0.039  0.3780 -0.0858  0.5274
  657MOL0     C86648   4.619   1.630   0.029  0.3103 -0.6885 -0.7416
  657MOL0     C86649   4.614   1.538   0.142  0.7327  0.4985 -0.0213
  657MOL0     O86650   4.681   1.418   0.149 -0.2356  0.2971 -0.4088
  657MOL0     C86651   4.716   1.355   0.028 -0.4175 -0.0296 -0.2010
  657MOL0     C86652   4.792   1.226   0.059  0.1584 -0.2281  0.3307
  657MOL0     C86653   4.690   1.122   0.108 -0.5090 -0.9897 -0.6223
  657MOL0     C86654   4.733   0.974   0.104  1.1011 -0.3031 -0.8882
  657MOL0     C86655   4.638   0.879   0.164  0.9305 -0.1590 -0.0661
  657MOL0     C86656   4.544   0.811   0.200 -0.0328  0.7710 -0.5940
  657MOL0     C86657   4.526   1.575   0.245 -0.5883  0.1948  0.5039
  657MOL0     C86658   4.463   1.696   0.255  0.6100 -0.8990  0.3901
  657MOL0     H86659   4.348   2.191  -0.093 -0.1942 -1.9674  0.7850
  657MOL0     H86660   4.303   2.429  -0.072 -0.4744 -2.0383 -1.1550
  657MOL0     H86661   4.241   2.633   0.063  1.0603 -2.6495 -1.8937
  657MOL0     H86662   4.388   2.649  -0.029  1.9635 -4.2604  1.4920
  657MOL0     H86663   4.345   2.883   0.035  0.2113  2.6872  2.4594
  657MOL0     H86664   4.496   2.802   0.100  0.9287 -0.7990 -4.6278
  657MOL0     H86665   4.384   2.784   0.314  3.0513  0.2278 -0.1282
  657MOL0     H86666   4.233   2.848   0.257 -0.1469  1.9395 -0.1794
  657MOL0     H86667   4.496   2.987   0.312 -0.3506 -0.3063  2.2334
  657MOL0     H86668   4.384   3.053   0.180  0.9434 -1.8613 -0.9447
  657MOL0     H86669   4.361   3.163   0.396  0.1751 -1.5914  1.2853
  657MOL0     H86670   4.290   3.029   0.474 -0.0683  1.1894  0.7038
  657MOL0     H86671   4.109   3.131   0.412  1.1971 -1.4306  0.9433
  657MOL0     H86672   4.122   3.025   0.277 -1.6018  2.1493 -0.2676
  657MOL0     H86673   4.223   3.201   0.131  0.8777 -0.0610  0.1787
  657MOL0     H86674   4.055   3.236   0.190 -0.5923 -2.3710  0.5311
  657MOL0     H86675   4.293   3.358   0.337  0.8500  0.8946 -2.0363
  657MOL0     H86676   4.123   3.383   0.374  0.1950  2.4108  0.7704
  657MOL0     H86677   4.396   3.534   0.172 -0.6887 -3.5169 -0.7916
  657MOL0     H86678   4.405   3.779   0.040 -0.5691  1.5158  0.8030
  657MOL0     H86679   4.290   3.866   0.118 -0.7340  0.7056 -0.3774
  657MOL0     H86680   4.132   3.836  -0.090  0.0227 -0.0190 -0.1632
  657MOL0     H86681   4.248   3.712  -0.150  0.3380  0.4847 -2.6599
  657MOL0     H86682   4.296   4.011  -0.125  1.4989  1.0163  0.2036
  657MOL0     H86683   4.409   3.878  -0.172 -1.6481 -0.5940 -3.3637
  657MOL0     H86684   4.324   4.035  -0.354  1.2450 -0.1354 -2.3960
  657MOL0     H86685   4.166   3.958  -0.324  0.4478  1.0788  0.2712
  657MOL0     H86686   4.289   4.035  -0.599 -1.2769 -0.0869  0.4991
  657MOL0     H86687   4.378   4.018  -0.823 -1.6681 -0.7746  0.6001
  657MOL0     H86688   4.544   3.558  -1.150  0.9492 -2.3140 -1.1553
  657MOL0     H86689   4.647   3.559  -1.380 -1.7692  0.4987 -0.0763
  657MOL0     H86690   5.016   3.701  -1.384 -1.5757  0.3782  0.3932
  657MOL0     H86691   5.009   3.836  -1.499 -1.0455  0.6151  0.6740
  657MOL0     H86692   5.106   3.659  -1.603 -0.7087 -0.2444 -0.1281
  657MOL0     H86693   4.945   3.675  -1.679  2.0713  3.7168 -0.4646
  657MOL0     H86694   4.900   3.460  -1.546 -2.6920  4.4278 -2.4213
  657MOL0     H86695   5.069   3.462  -1.482 -1.3454  2.2464  1.2830
  657MOL0     H86696   4.986   3.427  -1.761  2.6960 -0.0581 -2.7710
  657MOL0     H86697   5.155   3.465  -1.707 -2.0878  3.4251 -1.7375
  657MOL0     H86698   4.993   3.227  -1.632  0.1808  0.4877  0.9131
  657MOL0     H86699   5.157   3.261  -1.561  0.2805  2.6436  0.2541
  657MOL0     H86700   5.269   3.236  -1.766  1.5331 -2.0754  2.2770
  657MOL0     H86701   5.120   3.192  -1.852  0.3138 -0.5618 -0.4944
  657MOL0     H86702   5.270   3.037  -1.629  0.3397  2.2392 -0.2557
  657MOL0     H86703   5.089   3.027  -1.654 -1.8203  0.7177 -1.4104
  657MOL0     H86704   5.286   2.997  -1.876 -1.0954 -2.4173 -3.2575
  657MOL0     H86705   5.120   2.937  -1.868 -0.2695  0.0912  0.3555
  657MOL0     H86706   4.929   3.860  -1.240  2.1698 -1.8006  1.2360
  657MOL0     H86707   4.821   3.856  -1.024 -2.6362  0.4129  1.0787
  657MOL0     H86708   4.562   3.639  -0.725 -1.4216 -1.6213 -0.6559
  657MOL0     H86709   4.463   3.651  -0.497 -1.1368  0.0825  0.0353
  657MOL0     H86710   4.460   2.412   0.339  4.2464 -4.4124  1.8155
  657MOL0     H86711   4.504   2.162   0.294  1.2568  0.9418  0.2529
  657MOL0     H86712   4.567   1.826  -0.048 -0.7606  0.1741  0.7162
  657MOL0     H86713   4.680   1.605  -0.057 -0.9366  0.9662 -2.1695
  657MOL0     H86714   4.771   1.420  -0.041 -1.2531  0.8271 -0.0905
  657MOL0     H86715   4.637   1.332  -0.043 -0.0699 -0.5631 -0.4177
  657MOL0     H86716   4.852   1.192  -0.026  1.4557  1.6266  0.4396
  657MOL0     H86717   4.858   1.239   0.146  0.6955  2.4462 -0.3835
  657MOL0     H86718   4.594   1.139   0.057 -1.1531 -0.0346  0.8607
  657MOL0     H86719   4.681   1.150   0.213  0.2611  3.3902 -1.5211
  657MOL0     H86720   4.755   0.938   0.003  0.2220  1.5498 -1.7905
  657MOL0     H86721   4.823   0.959   0.164  1.2599 -0.7596 -1.2355
  657MOL0     H86722   4.460   0.751   0.230 -0.0877 -0.0525 -2.2728
  657MOL0     H86723   4.505   1.504   0.325  0.1880  0.1607  0.6869
  657MOL0     H86724   4.406   1.721   0.344 -0.3061 -0.0084 -0.4140
  658MOL0     O86725   1.351  10.086  10.061 -0.2352 -0.3973  0.9972
  658MOL0     C86726   1.256  10.001  10.050 -1.1607 -0.8368 -0.3407
  658MOL0     O86727   1.234   9.923   9.947  0.5555  0.2071  0.0245
  658MOL0     C86728   1.325   9.911   9.840 -0.0690 -0.4553 -0.2922
  658MOL0     C86729   1.459   9.896   9.852 -0.5169 -0.3789  0.1338
  658MOL0     C86730   1.539   9.867   9.744 -0.0885  0.5128  1.2710
  658MOL0     C86731   1.481   9.852   9.625  0.6859 -0.7499  0.8830
  658MOL0     O86732   1.562   9.809   9.526 -0.3082  0.1841 -0.2325
  658MOL0     C86733   1.539   9.826   9.389 -0.3645 -0.0249  0.5644
  658MOL0     C86734   1.649   9.753   9.318  0.7396 -0.1755 -0.8244
  658MOL0     C86735   1.657   9.760   9.167  0.2250 -0.9103  0.1197
  658MOL0     C86736   1.779   9.719   9.081  0.1047  0.2687  0.7943
  658MOL0     C86737   1.809   9.571   9.069  0.4895  0.1368  0.4342
  658MOL0     C86738   1.701   9.500   8.982  0.8462  0.7599 -0.5173
  658MOL0     C86739   1.754   9.357   8.954 -0.4330 -1.0701 -0.7365
  658MOL0     C86740   1.647   9.271   8.911 -0.2746 -0.1219  0.1086
  658MOL0     N86741   1.693   9.134   8.899 -0.1228  0.0879  0.4893
  658MOL0     C86742   1.703   9.063   8.778  0.8081 -0.7815 -0.1404
  658MOL0     C86743   1.742   8.940   8.819  0.9399  0.2155  0.5081
  658MOL0     C86744   1.752   8.831   8.719  0.2489  0.1141 -0.9262
  658MOL0     C86745   1.887   8.765   8.756 -0.0386 -0.4245 -0.5081
  658MOL0     C86746   1.942   8.691   8.637 -0.0097  0.6492  1.0895
  658MOL0     C86747   2.022   8.762   8.531 -0.8337 -0.2148  0.6675
  658MOL0     O86748   2.100   8.661   8.450 -0.3136 -0.2137 -0.0591
  658MOL0     C86749   2.199   8.703   8.367  0.4033 -0.4384 -0.8369
  658MOL0     C86750   2.239   8.836   8.352  0.5903 -0.6467 -0.5894
  658MOL0     C86751   2.327   8.869   8.247  0.2493  0.8256  0.6387
  658MOL0     C86752   2.396   8.772   8.174  0.0417  0.3048  0.1999
  658MOL0     C86753   2.489   8.813   8.068 -0.5328 -0.8529 -0.0554
  658MOL0     O86754   2.518   8.733   7.963 -1.1259 -0.1952 -0.9810
  658MOL0     C86755   2.581   8.769   7.850  0.4082  0.7236 -0.4491
  658MOL0     C86756   2.679   8.872   7.843 -0.3768  1.1458 -0.1387
  658MOL0     C86757   2.744   8.897   7.723  0.5302  0.2590  0.0585
  658MOL0     C86758   2.692   8.846   7.601 -0.2055 -0.4946 -0.9279
  658MOL0     O86759   2.730   8.905   7.488 -0.3341  0.7610 -0.6847
  658MOL0     C86760   2.867   8.909   7.466 -0.3481 -0.1573  0.0755
  658MOL0     C86761   2.905   8.944   7.324  1.6121  0.4265  0.0180
  658MOL0     C86762   3.029   9.040   7.319  0.3990  0.2009  0.4095
  658MOL0     C86763   3.006   9.189   7.369  0.0140  1.0469  0.5647
  658MOL0     C86764   3.144   9.259   7.357 -1.0152 -0.3312  0.2957
  658MOL0     C86765   3.117   9.401   7.382 -1.0330 -0.8143 -0.3875
  658MOL0     C86766   3.242   9.490   7.406 -0.3390 -0.0849 -0.0804
  658MOL0     C86767   3.214   9.639   7.428 -0.0672 -0.7469 -0.4270
  658MOL0    Cl86768   3.197   9.714   7.266 -0.2032 -0.2144  0.4035
  658MOL0     C86769   2.591   8.753   7.608 -0.3900 -0.7554 -0.8164
  658MOL0     C86770   2.541   8.707   7.732 -0.1465 -0.5926  0.4667
  658MOL0     O86771   2.551   8.919   8.087  0.0157  0.1536 -0.1619
  658MOL0     C86772   2.362   8.643   8.198  0.2667 -0.4014 -0.0107
  658MOL0     C86773   2.265   8.607   8.286  0.9541 -0.4765  0.5470
  658MOL0     N86774   1.738   8.923   8.955  0.0748 -1.0160  0.2842
  658MOL0     N86775   1.713   9.043   8.995 -0.0233 -0.6649 -1.0028
  658MOL0     C86776   1.341   9.881   9.604  0.3996 -0.7662  0.0976
  658MOL0     C86777   1.259   9.910   9.717 -0.0127 -1.0789  0.9288
  658MOL0     C86778   1.164   9.988  10.158  0.5467 -0.2813 -0.5627
  658MOL0     C86779   1.025  10.007  10.128 -0.1464  0.1302  0.5961
  658MOL0     C86780   0.929  10.039  10.229  0.7143 -0.9008  0.7736
  658MOL0     C86781   0.963  10.043  10.367 -0.6612  0.0549  0.9722
  658MOL0     O86782   0.900  10.077  10.482  0.5390  0.3266 -0.7362
  658MOL0     C86783   0.791  10.170  10.470  0.8650 -0.7013  0.1951
  658MOL0     C86784   0.650  10.105  10.433 -0.5455  0.4204 -0.0524
  658MOL0     C86785   0.530  10.190  10.473  0.2673 -0.8797 -0.4247
  658MOL0     C86786   0.514  10.204  10.628  0.1067 -0.4066 -0.2985
  658MOL0     C86787   0.387  10.266  10.653  0.3660  0.4872 -0.4501
  658MOL0     C86788   0.277  10.323  10.666 -0.6646  0.4219  0.5171
  658MOL0     C86789   1.099  10.002  10.402 -0.2438 -0.2732 -0.2407
  658MOL0     C86790   1.192   9.986  10.294  1.1755  0.2945 -0.3621
  658MOL0     H86791   1.483   9.892   9.958 -0.5068 -0.8213  0.1176
  658MOL0     H86792   1.645   9.846   9.752  0.1480  0.8381 -0.5815
  658MOL0     H86793   1.507   9.925   9.355 -1.8373 -1.6466 -3.4179
  658MOL0     H86794   1.452   9.763   9.366  0.9463 -1.1512 -1.5416
  658MOL0     H86795   1.652   9.648   9.350  0.2660  0.1925  0.4896
  658MOL0     H86796   1.735   9.810   9.355 -0.0002  1.2825 -1.2912
  658MOL0     H86797   1.641   9.866   9.143  0.9441 -0.9687 -0.6799
  658MOL0     H86798   1.567   9.716   9.123 -1.1867 -0.5948  2.5040
  658MOL0     H86799   1.754   9.742   8.977 -4.0538 -0.7957  1.3870
  658MOL0     H86800   1.868   9.783   9.091 -0.4522  1.4810 -1.2992
  658MOL0     H86801   1.800   9.529   9.169  2.6758 -1.7645 -0.0832
  658MOL0     H86802   1.911   9.552   9.034 -0.8372 -4.1317 -1.8780
  658MOL0     H86803   1.680   9.545   8.884  0.2239 -0.9132 -1.1834
  658MOL0     H86804   1.608   9.494   9.039  0.9269  0.3494 -0.4300
  658MOL0     H86805   1.828   9.361   8.874  0.9037  3.5051  0.4625
  658MOL0     H86806   1.809   9.327   9.044  0.6565  1.5650 -0.4282
  658MOL0     H86807   1.628   9.297   8.806  1.2614 -0.1138 -0.1926
  658MOL0     H86808   1.558   9.271   8.973 -0.9305  1.4873 -0.7886
  658MOL0     H86809   1.660   9.093   8.683  1.5317  0.5042 -0.0982
  658MOL0     H86810   1.752   8.865   8.615 -2.6040  4.2124  0.1445
  658MOL0     H86811   1.664   8.767   8.719  2.2136 -2.8843  1.5333
  658MOL0     H86812   1.860   8.697   8.838 -3.2978  3.4565  1.9901
  658MOL0     H86813   1.956   8.833   8.807  0.8168 -0.3657 -1.7200
  658MOL0     H86814   2.008   8.611   8.670  1.3431  1.5150  0.5525
  658MOL0     H86815   1.858   8.644   8.585 -1.4233  3.1264  0.9972
  658MOL0     H86816   2.095   8.833   8.572  3.0965 -1.9586 -2.6012
  658MOL0     H86817   1.960   8.819   8.461  1.1155 -0.3109 -1.2581
  658MOL0     H86818   2.198   8.916   8.413 -1.4066 -0.0664 -2.5655
  658MOL0     H86819   2.336   8.973   8.216 -0.0880  1.3041  2.0741
  658MOL0     H86820   2.714   8.920   7.934  1.0202 -3.3261  2.0021
  658MOL0     H86821   2.820   8.975   7.717 -1.0443  1.8286 -0.5253
  658MOL0     H86822   2.903   8.807   7.482  0.7090  0.4929  2.0155
  658MOL0     H86823   2.913   8.985   7.529  0.6393  1.4799 -2.4406
  658MOL0     H86824   2.817   8.985   7.273  2.4614  0.2693 -1.6402
  658MOL0     H86825   2.942   8.853   7.275 -0.6944 -0.5024 -0.1139
  658MOL0     H86826   3.064   9.032   7.216 -2.8989 -3.4060 -0.6699
  658MOL0     H86827   3.100   9.005   7.394  0.9973  1.4116  0.4267
  658MOL0     H86828   2.924   9.233   7.312 -2.0919  0.2814  2.8335
  658MOL0     H86829   2.988   9.185   7.477  0.4990  0.4424  0.6259
  658MOL0     H86830   3.175   9.254   7.252  0.9440  2.2171  0.6542
  658MOL0     H86831   3.226   9.221   7.417 -1.8357  0.7746  2.1969
  658MOL0     H86832   3.040   9.412   7.459 -0.1996  2.7226  0.0833
  658MOL0     H86833   3.070   9.451   7.297  0.9375  1.4293 -0.2423
  658MOL0     H86834   3.303   9.450   7.488 -0.1943 -1.9972 -1.0777
  658MOL0     H86835   3.315   9.473   7.327  0.1470  3.6562 -0.6396
  658MOL0     H86836   3.287   9.694   7.488 -0.6434  1.2866 -1.4882
  658MOL0     H86837   3.121   9.648   7.486 -0.7350  1.8417 -1.7755
  658MOL0     H86838   2.545   8.713   7.518  0.2357  1.1540 -2.0567
  658MOL0     H86839   2.462   8.633   7.728  2.0248 -3.0456 -0.1462
  658MOL0     H86840   2.402   8.561   8.139 -2.0653 -0.6477 -1.3732
  658MOL0     H86841   2.246   8.501   8.276  5.6908 -1.3890 -1.5247
  658MOL0     H86842   1.292   9.875   9.507 -0.6291 -2.8008  0.6863
  658MOL0     H86843   1.151   9.922   9.708 -0.3241 -1.7605  3.0486
  658MOL0     H86844   0.982  10.015  10.028  1.0025 -1.3525 -0.0639
  658MOL0     H86845   0.826  10.061  10.201 -0.0029 -1.5534  2.7140
  658MOL0     H86846   0.814  10.251  10.400  1.3124  0.5693  1.7573
  658MOL0     H86847   0.779  10.223  10.564  1.3296  2.1591 -1.2543
  658MOL0     H86848   0.650  10.082  10.326 -3.3418  1.8246 -0.4364
  658MOL0     H86849   0.644  10.013  10.492  1.9651  1.0207  1.3098
  658MOL0     H86850   0.440  10.142  10.433 -0.1500 -1.2691  0.9396
  658MOL0     H86851   0.536  10.289  10.427 -2.2102  0.6770  2.2688
  658MOL0     H86852   0.520  10.099  10.658  2.0553 -0.5189 -0.9322
  658MOL0     H86853   0.599  10.251  10.676 -0.5766 -1.7067  2.4088
  658MOL0     H86854   0.183  10.372  10.674 -1.1548 -0.2186 -1.0561
  658MOL0     H86855   1.141  10.003  10.502  2.5313  2.3725 -1.2553
  658MOL0     H86856   1.297   9.979  10.320  1.4741  0.5899 -1.4308
  659MOL0     O86857   6.148  11.123   0.993  0.2392  0.3781  0.5638
  659MOL0     C86858   6.159  11.149   1.113  0.2768 -0.3276  0.5037
  659MOL0     O86859   6.077  11.231   1.186  0.6101  0.6383 -0.1603
  659MOL0     C86860   5.963  11.275   1.125 -0.5292 -0.1569  0.1224
  659MOL0     C86861   5.830  11.232   1.154  0.6232 -0.1178  0.0175
  659MOL0     C86862   5.723  11.286   1.078 -0.1165 -0.1691  0.6008
  659MOL0     C86863   5.741  11.387   0.981 -0.9535  0.0867 -0.3533
  659MOL0     O86864   5.635  11.441   0.921  0.3343  0.3615  0.0431
  659MOL0     C86865   5.546  11.517   1.004  0.6121 -0.0764 -0.1981
  659MOL0     C86866   5.609  11.640   1.078  0.5277 -0.7309 -0.1301
  659MOL0     C86867   5.496  11.744   1.135  0.0778  0.1954 -0.2788
  659MOL0     C86868   5.570  11.865   1.187  0.2889  0.0606 -0.0378
  659MOL0     C86869   5.474  11.983   1.240  0.8344 -0.1505  0.4676
  659MOL0     C86870   5.564  12.106   1.250 -0.0495  0.1319  0.4636
  659MOL0     C86871   5.495  12.229   1.311 -0.2473  0.4243  0.3141
  659MOL0     C86872   5.389  12.303   1.224  0.4357  1.3305 -0.1580
  659MOL0     N86873   5.449  12.423   1.164 -0.3612 -0.1899  0.1248
  659MOL0     C86874   5.536  12.419   1.055  0.2670 -0.1517 -0.5711
  659MOL0     C86875   5.556  12.554   1.031 -0.1860 -0.0250  0.6077
  659MOL0     C86876   5.638  12.628   0.925 -0.5643 -0.7916 -0.3176
  659MOL0     C86877   5.786  12.654   0.965  1.7505  0.7269 -0.1378
  659MOL0     C86878   5.860  12.750   0.871  1.3007 -0.1427 -0.3096
  659MOL0     C86879   6.009  12.743   0.876 -0.5161  0.3549 -0.0611
  659MOL0     O86880   6.082  12.859   0.935  0.1386 -0.3239  0.4095
  659MOL0     C86881   6.217  12.874   0.921  0.3332 -1.6539  0.4645
  659MOL0     C86882   6.311  12.768   0.890 -0.2959  0.5614 -0.3606
  659MOL0     C86883   6.441  12.790   0.866  0.6493 -0.0884 -0.5673
  659MOL0     C86884   6.493  12.918   0.878  0.1694 -1.4248  0.4718
  659MOL0     C86885   6.637  12.941   0.843  0.3299  0.0662 -0.6413
  659MOL0     O86886   6.714  12.830   0.813  1.1105 -0.6267  0.7382
  659MOL0     C86887   6.846  12.843   0.773  0.4913 -0.0963 -0.5338
  659MOL0     C86888   6.946  12.872   0.866 -0.1950 -0.0225  0.1959
  659MOL0     C86889   7.081  12.869   0.830 -0.3758  0.3290 -0.9567
  659MOL0     C86890   7.125  12.831   0.704  0.0252 -0.8975  0.6691
  659MOL0     O86891   7.262  12.834   0.685 -0.7668 -0.4665 -0.1343
  659MOL0     C86892   7.308  12.826   0.548  0.1587 -0.5030 -0.3134
  659MOL0     C86893   7.268  12.947   0.457 -0.0483  0.2247 -0.5540
  659MOL0     C86894   7.327  12.940   0.314 -0.2260 -0.6396 -0.4325
  659MOL0     C86895   7.467  12.997   0.327 -0.4695 -1.3194 -0.0986
  659MOL0     C86896   7.536  12.979   0.193 -0.1834 -0.6777 -0.2455
  659MOL0     C86897   7.492  13.079   0.081 -1.0060 -0.0634  0.8038
  659MOL0     C86898   7.465  13.227   0.133  0.5357 -0.5090 -0.4056
  659MOL0     C86899   7.584  13.281   0.209 -0.7331 -0.2735  0.1734
  659MOL0    Cl86900   7.527  13.441   0.259 -0.0200  0.0087 -0.3719
  659MOL0     C86901   7.026  12.809   0.610 -0.0431 -0.5580 -0.2335
  659MOL0     C86902   6.893  12.801   0.645  0.6116  0.4975 -0.4513
  659MOL0     O86903   6.668  13.058   0.836 -0.1341  0.0072  0.3163
  659MOL0     C86904   6.403  13.026   0.906  0.2377 -0.3878  0.2117
  659MOL0     C86905   6.264  13.004   0.909  0.3369  0.1205  0.4127
  659MOL0     N86906   5.493  12.629   1.126 -0.0558  0.7562 -0.2465
  659MOL0     N86907   5.412  12.554   1.198  0.3973  0.2179 -0.2569
  659MOL0     C86908   5.869  11.433   0.955 -0.4372  0.1502  0.6234
  659MOL0     C86909   5.975  11.383   1.032 -0.5230  0.9852 -0.1594
  659MOL0     C86910   6.279  11.077   1.169  0.5351  0.2776  0.1614
  659MOL0     C86911   6.305  11.110   1.304  0.5505  0.3766  0.8498
  659MOL0     C86912   6.406  11.036   1.366 -1.2533 -0.6436 -0.3346
  659MOL0     C86913   6.488  10.940   1.299 -0.0664  0.2626  0.3674
  659MOL0     O86914   6.593  10.895   1.376  0.1879  0.4784  0.5501
  659MOL0     C86915   6.674  10.801   1.307 -0.6019  0.5074  0.5908
  659MOL0     C86916   6.810  10.808   1.371  0.0899 -0.6841  1.1551
  659MOL0     C86917   6.825  10.730   1.509  1.0245  0.1226 -0.3460
  659MOL0     C86918   6.944  10.786   1.597  0.0399 -0.0117  0.6356
  659MOL0     C86919   7.069  10.752   1.537 -1.0078  0.8213  0.3550
  659MOL0     C86920   7.170  10.711   1.479 -0.5207  0.1346 -0.6270
  659MOL0     C86921   6.450  10.901   1.169 -0.3953 -0.1764  0.3342
  659MOL0     C86922   6.341  10.968   1.103  0.1430  0.0043  0.0974
  659MOL0     H86923   5.812  11.161   1.233 -3.7109 -1.2071 -1.6508
  659MOL0     H86924   5.620  11.258   1.095 -0.6174  1.6080  0.7331
  659MOL0     H86925   5.500  11.462   1.087  4.3498  1.3176  3.1129
  659MOL0     H86926   5.462  11.557   0.946 -0.7965  0.0848  1.8197
  659MOL0     H86927   5.663  11.697   1.002 -0.3687 -0.6225 -0.6951
  659MOL0     H86928   5.682  11.610   1.155 -0.5625 -1.6482  0.5747
  659MOL0     H86929   5.439  11.690   1.211  0.9543 -1.3932 -0.6948
  659MOL0     H86930   5.428  11.778   1.056 -1.3568  0.3687  0.9998
  659MOL0     H86931   5.629  11.824   1.269 -2.2928  1.4409  2.7285
  659MOL0     H86932   5.643  11.908   1.119 -0.4607 -1.2691 -1.7560
  659MOL0     H86933   5.415  11.957   1.329 -0.8652  0.1806 -0.5164
  659MOL0     H86934   5.401  12.002   1.161  1.6920 -2.7202 -1.0464
  659MOL0     H86935   5.603  12.132   1.151 -3.4522  3.7958 -0.1782
  659MOL0     H86936   5.649  12.074   1.311 -0.7368 -4.5500 -0.6700
  659MOL0     H86937   5.468  12.204   1.414 -2.8468 -1.3991 -0.7075
  659MOL0     H86938   5.575  12.302   1.328 -0.2187  0.8183 -1.3941
  659MOL0     H86939   5.303  12.335   1.284 -0.6767  1.0759 -1.5828
  659MOL0     H86940   5.342  12.245   1.144  2.0029  1.2988 -1.0904
  659MOL0     H86941   5.588  12.335   1.010  2.2192 -0.0802  1.4062
  659MOL0     H86942   5.585  12.717   0.889 -1.0965 -0.3187  1.5240
  659MOL0     H86943   5.652  12.550   0.850 -0.0068 -2.0105  1.0246
  659MOL0     H86944   5.843  12.560   0.956  3.2458  1.5880  0.0095
  659MOL0     H86945   5.789  12.687   1.069 -0.3299 -3.6107  1.5753
  659MOL0     H86946   5.835  12.723   0.768  1.8513 -1.7399 -0.0395
  659MOL0     H86947   5.832  12.853   0.897  0.4347 -0.3316 -0.4392
  659MOL0     H86948   6.054  12.733   0.777  1.3406  1.6565  0.5807
  659MOL0     H86949   6.032  12.651   0.931  1.5241 -0.0020 -1.3735
  659MOL0     H86950   6.268  12.669   0.892 -2.0846  1.2877 -0.9547
  659MOL0     H86951   6.519  12.719   0.842  0.9014 -0.3846  1.0271
  659MOL0     H86952   6.909  12.895   0.965  0.6522 -1.3538  0.8507
  659MOL0     H86953   7.167  12.865   0.897 -0.5191 -5.4405 -0.6063
  659MOL0     H86954   7.264  12.744   0.491 -1.5232  0.3669 -0.3105
  659MOL0     H86955   7.417  12.817   0.554  0.5164  3.2118  2.5403
  659MOL0     H86956   7.289  13.041   0.509 -1.8776  0.1807  0.3393
  659MOL0     H86957   7.159  12.949   0.449 -0.1108  3.4200 -0.2554
  659MOL0     H86958   7.259  13.006   0.259  2.1172  2.0860 -0.2785
  659MOL0     H86959   7.327  12.837   0.276 -2.8779 -0.3279 -1.4978
  659MOL0     H86960   7.465  13.101   0.360  1.4455 -1.3110  0.0851
  659MOL0     H86961   7.522  12.940   0.402  0.7429 -2.0072 -1.4609
  659MOL0     H86962   7.535  12.878   0.152 -2.0588  0.2935 -2.8744
  659MOL0     H86963   7.643  12.998   0.209 -0.8948  3.6130  0.6728
  659MOL0     H86964   7.401  13.027   0.050  0.6257 -2.7180  0.1429
  659MOL0     H86965   7.559  13.079  -0.006 -1.9971  0.4720  0.0212
  659MOL0     H86966   7.433  13.278   0.042 -0.8194 -0.2498  0.1854
  659MOL0     H86967   7.388  13.217   0.210  4.6081 -1.6857  3.9978
  659MOL0     H86968   7.673  13.281   0.145 -1.4346 -2.9026 -0.9469
  659MOL0     H86969   7.605  13.221   0.298 -0.0679  1.1033  0.9663
  659MOL0     H86970   7.053  12.780   0.509 -3.0698  0.0638 -1.3355
  659MOL0     H86971   6.814  12.759   0.585  0.1830 -2.0029  1.6992
  659MOL0     H86972   6.444  13.126   0.899 -1.5278  0.4074  0.7587
  659MOL0     H86973   6.191  13.085   0.908 -1.9254 -1.7151 -2.7844
  659MOL0     H86974   5.889  11.518   0.889  2.8787 -0.5137  0.6368
  659MOL0     H86975   6.079  11.415   1.026  0.7292 -2.3046  1.4366
  659MOL0     H86976   6.249  11.185   1.359 -0.4323 -0.4395  1.0056
  659MOL0     H86977   6.432  11.080   1.461  4.8047  1.3179 -2.4345
  659MOL0     H86978   6.694  10.811   1.200 -0.4674  1.6107  0.7110
  659MOL0     H86979   6.640  10.701   1.336  1.4673  0.2417  2.2949
  659MOL0     H86980   6.883  10.761   1.305  2.6872 -0.5970  3.7848
  659MOL0     H86981   6.832  10.915   1.383 -2.2056 -0.2547  2.1493
  659MOL0     H86982   6.825  10.622   1.498 -0.0651 -0.2697  2.6505
  659MOL0     H86983   6.729  10.738   1.561  0.6089 -2.2074 -0.6752
  659MOL0     H86984   6.919  10.892   1.582  0.4983 -0.1520 -1.4935
  659MOL0     H86985   6.946  10.742   1.697 -0.3967  0.1034  0.6981
  659MOL0     H86986   7.248  10.675   1.415 -0.7808 -2.3612  0.3542
  659MOL0     H86987   6.497  10.815   1.122 -3.2239 -1.2044 -0.8184
  659MOL0     H86988   6.298  10.934   1.009 -0.4658  1.1998 -0.0756
  660MOL0     O86989   6.122   0.374   6.239  0.2199  0.4697 -0.0108
  660MOL0     C86990   6.164   0.325   6.132 -0.9594 -0.2136 -0.1600
  660MOL0     O86991   6.127   0.210   6.082 -0.9577  0.2208  0.0898
  660MOL0     C86992   6.098   0.105   6.162 -0.4676  0.2925  0.4837
  660MOL0     C86993   6.039   0.104   6.288  0.3736 -1.0511 -0.5607
  660MOL0     C86994   5.986  -0.013   6.347  0.0027 -0.6236  0.2203
  660MOL0     C86995   5.990  -0.128   6.279 -0.6609 -0.2288 -0.4142
  660MOL0     O86996   5.962  -0.243   6.347  0.1406 -0.1717 -0.2275
  660MOL0     C86997   5.980  -0.370   6.278  0.2928 -1.1001 -1.5030
  660MOL0     C86998   5.940  -0.492   6.351 -0.3373  0.3049 -0.0122
  660MOL0     C86999   5.797  -0.505   6.399  0.3832 -0.1274 -0.1005
  660MOL0     C87000   5.775  -0.642   6.483  0.1732  0.1922  0.7189
  660MOL0     C87001   5.640  -0.650   6.564  0.4382  0.0836  0.4610
  660MOL0     C87002   5.617  -0.798   6.603  0.1225 -1.0292  0.8171
  660MOL0     C87003   5.502  -0.797   6.696  0.1790  0.2061 -0.9685
  660MOL0     C87004   5.492  -0.932   6.770  0.5434 -0.2270  1.3665
  660MOL0     N87005   5.382  -1.012   6.715  0.0686 -0.7897 -0.0169
  660MOL0     C87006   5.358  -1.038   6.584 -0.1048  0.5434 -0.2791
  660MOL0     C87007   5.258  -1.125   6.584 -0.5351  0.2090  0.1578
  660MOL0     C87008   5.206  -1.189   6.454 -0.2626  0.9198 -0.6619
  660MOL0     C87009   5.221  -1.344   6.455 -0.8211  0.1865  0.3491
  660MOL0     C87010   5.154  -1.422   6.340  0.5977 -0.9974 -0.5391
  660MOL0     C87011   5.198  -1.572   6.360  0.6634 -0.3616  0.1221
  660MOL0     O87012   5.336  -1.585   6.324 -0.4369  0.1830 -0.0975
  660MOL0     C87013   5.376  -1.715   6.314 -0.9407  0.4014  0.6550
  660MOL0     C87014   5.332  -1.824   6.390  0.5581 -1.0724 -0.7079
  660MOL0     C87015   5.390  -1.948   6.374  0.2312 -0.0113 -0.5169
  660MOL0     C87016   5.480  -1.979   6.269 -0.3594  0.6839 -1.0184
  660MOL0     C87017   5.521  -2.113   6.239  0.2158  0.0738  0.8186
  660MOL0     O87018   5.464  -2.217   6.310 -0.3584  0.7372  0.0956
  660MOL0     C87019   5.497  -2.352   6.293 -0.1789 -0.0010  0.2846
  660MOL0     C87020   5.585  -2.409   6.200 -0.0718 -0.5320 -0.4075
  660MOL0     C87021   5.599  -2.546   6.203 -1.1503  0.2013  0.8659
  660MOL0     C87022   5.535  -2.625   6.297  0.0559  0.1703  0.3977
  660MOL0     O87023   5.554  -2.760   6.301  0.2562  0.4909  0.9418
  660MOL0     C87024   5.630  -2.819   6.196 -0.5408 -0.5639 -1.5235
  660MOL0     C87025   5.648  -2.966   6.226  0.3395  0.8546  0.7805
  660MOL0     C87026   5.746  -2.994   6.341 -0.0662  0.5176 -0.4878
  660MOL0     C87027   5.798  -3.137   6.338  0.5266  1.0131  0.7296
  660MOL0     C87028   5.916  -3.167   6.431 -0.4478 -0.3804 -0.4763
  660MOL0     C87029   5.959  -3.311   6.412  0.2240 -0.4086 -0.2506
  660MOL0     C87030   6.100  -3.320   6.453 -0.9235 -0.2914  0.3272
  660MOL0     C87031   6.140  -3.455   6.530 -0.5033  0.8213 -0.0113
  660MOL0    Cl87032   6.108  -3.598   6.442 -0.5741 -0.2766  0.0987
  660MOL0     C87033   5.458  -2.571   6.397  0.4518 -0.6371  0.4886
  660MOL0     C87034   5.442  -2.433   6.386  0.2005 -1.1312  0.6843
  660MOL0     O87035   5.600  -2.128   6.146 -0.6061 -0.0127  0.2695
  660MOL0     C87036   5.528  -1.873   6.203  0.5046  0.3153  0.7128
  660MOL0     C87037   5.471  -1.744   6.221  0.7788  0.0456 -0.3319
  660MOL0     N87038   5.226  -1.154   6.711  0.1467  0.2987  0.0051
  660MOL0     N87039   5.302  -1.086   6.791  0.0282  0.0542 -0.1101
  660MOL0     C87040   6.044  -0.138   6.145  0.4830 -0.7618  0.0091
  660MOL0     C87041   6.097  -0.020   6.091 -0.5643  0.4446  0.6904
  660MOL0     C87042   6.261   0.413   6.053  0.9649  0.7031 -0.1069
  660MOL0     C87043   6.329   0.375   5.934  0.3550  0.0013  0.3308
  660MOL0     C87044   6.405   0.467   5.854  0.4328 -0.3827 -0.0695
  660MOL0     C87045   6.416   0.607   5.901  0.1822  0.3028 -0.1916
  660MOL0     O87046   6.476   0.697   5.825 -0.1833 -0.0795  0.2276
  660MOL0     C87047   6.562   0.666   5.713 -0.2643  0.9046 -0.2372
  660MOL0     C87048   6.627   0.790   5.652 -0.3137 -0.9527 -0.4403
  660MOL0     C87049   6.739   0.863   5.739  0.3238 -0.1043 -0.3278
  660MOL0     C87050   6.684   0.947   5.862 -0.1847 -0.0278 -0.2079
  660MOL0     C87051   6.799   0.996   5.950 -0.0842 -0.3103 -0.3779
  660MOL0     C87052   6.877   1.038   6.028 -0.2038  0.4055  0.6258
  660MOL0     C87053   6.342   0.640   6.021 -0.2435 -0.6167  0.4990
  660MOL0     C87054   6.271   0.552   6.091 -0.5013 -0.0896  1.5491
  660MOL0     H87055   6.025   0.192   6.349  0.4984  0.7555 -2.9730
  660MOL0     H87056   5.945  -0.008   6.448  0.4257 -1.3199  0.4371
  660MOL0     H87057   6.085  -0.388   6.252  0.7959 -0.7739  0.1777
  660MOL0     H87058   5.928  -0.375   6.181 -1.7559  1.0487 -0.6024
  660MOL0     H87059   6.000  -0.509   6.441 -2.2064 -2.3457  0.8769
  660MOL0     H87060   5.952  -0.575   6.281  0.9638  0.8288 -0.4271
  660MOL0     H87061   5.724  -0.506   6.317 -0.5969 -2.4439  0.6984
  660MOL0     H87062   5.762  -0.417   6.454 -1.0289 -0.3712 -0.5629
  660MOL0     H87063   5.767  -0.719   6.406 -2.0739  0.1321  0.9435
  660MOL0     H87064   5.860  -0.665   6.548  2.2418  1.9541 -1.1936
  660MOL0     H87065   5.565  -0.613   6.494 -1.6900 -0.3467  2.3739
  660MOL0     H87066   5.650  -0.586   6.652 -0.1689  0.9515 -0.0799
  660MOL0     H87067   5.714  -0.811   6.653  1.6719  5.0239  0.2274
  660MOL0     H87068   5.615  -0.878   6.529  0.6867 -1.2714  1.0534
  660MOL0     H87069   5.511  -0.723   6.776 -0.4273  0.5200 -1.1833
  660MOL0     H87070   5.417  -0.758   6.639 -0.0844 -1.9950 -2.1792
  660MOL0     H87071   5.476  -0.916   6.877  2.7584  0.1301  1.6823
  660MOL0     H87072   5.575  -1.003   6.770  0.6086 -0.2297  3.9782
  660MOL0     H87073   5.407  -1.009   6.492 -1.5177  4.4202  0.0152
  660MOL0     H87074   5.262  -1.155   6.366 -2.8826 -0.9124 -3.2246
  660MOL0     H87075   5.102  -1.161   6.436 -1.0514 -2.5814 -2.4091
  660MOL0     H87076   5.186  -1.386   6.550  1.4439  0.1064  1.2152
  660MOL0     H87077   5.327  -1.368   6.461 -0.5539  1.2569  0.0610
  660MOL0     H87078   5.048  -1.394   6.339  1.2132  1.7464  1.1010
  660MOL0     H87079   5.186  -1.378   6.245 -1.7678 -1.1448 -1.4791
  660MOL0     H87080   5.127  -1.630   6.299  0.8169 -0.6643  0.2281
  660MOL0     H87081   5.192  -1.593   6.467  0.7759  3.5746  1.0406
  660MOL0     H87082   5.261  -1.810   6.471  2.2467 -2.8610  1.1982
  660MOL0     H87083   5.363  -2.028   6.443 -1.9446  1.9637  1.0842
  660MOL0     H87084   5.636  -2.356   6.120 -3.0249 -1.1136 -2.8912
  660MOL0     H87085   5.661  -2.575   6.119 -0.9243 -0.1740  1.1587
  660MOL0     H87086   5.731  -2.777   6.203 -0.8774  0.0228  2.7166
  660MOL0     H87087   5.582  -2.802   6.100 -0.5825 -3.7960 -2.2122
  660MOL0     H87088   5.695  -3.013   6.139 -1.0391 -0.0288  0.4727
  660MOL0     H87089   5.553  -3.016   6.249  0.5912  0.5114  1.0932
  660MOL0     H87090   5.712  -2.989   6.445 -1.9826  0.3158 -1.0589
  660MOL0     H87091   5.826  -2.922   6.324 -2.5441  3.7016  0.4781
  660MOL0     H87092   5.714  -3.206   6.342  0.3781  0.7701 -3.1595
  660MOL0     H87093   5.850  -3.158   6.244  0.2034  1.5012  0.4380
  660MOL0     H87094   5.881  -3.143   6.532  1.5421 -0.5429  0.2948
  660MOL0     H87095   5.996  -3.097   6.404 -2.1956  1.8093 -0.2066
  660MOL0     H87096   5.956  -3.343   6.307  0.8377 -0.2272 -0.3267
  660MOL0     H87097   5.907  -3.383   6.476  0.0153  0.9212  1.1116
  660MOL0     H87098   6.149  -3.304   6.357  1.6554  1.8366  1.8171
  660MOL0     H87099   6.135  -3.232   6.508  1.0085  0.2074 -1.5935
  660MOL0     H87100   6.099  -3.468   6.630 -0.2060  0.1584  0.0296
  660MOL0     H87101   6.248  -3.443   6.548 -0.6563  0.7683  1.0103
  660MOL0     H87102   5.425  -2.622   6.487  2.1791 -1.6571  0.5794
  660MOL0     H87103   5.371  -2.393   6.457  1.1232  2.8789 -0.3962
  660MOL0     H87104   5.605  -1.877   6.128 -0.5178  2.6148 -0.5665
  660MOL0     H87105   5.502  -1.653   6.171 -2.0885  0.9331 -0.6556
  660MOL0     H87106   6.059  -0.229   6.089 -1.9378 -1.0014 -0.3376
  660MOL0     H87107   6.136  -0.017   5.990 -3.2796  0.3579 -0.4460
  660MOL0     H87108   6.313   0.275   5.896  1.8834  0.1042 -0.6597
  660MOL0     H87109   6.444   0.419   5.765  1.8953 -0.4750  0.5833
  660MOL0     H87110   6.502   0.613   5.639  1.5199 -1.1462 -0.3214
  660MOL0     H87111   6.641   0.596   5.744 -0.4198  0.3205 -1.1232
  660MOL0     H87112   6.676   0.757   5.560  1.0144  1.0617 -0.5117
  660MOL0     H87113   6.549   0.856   5.612  3.6312  3.4313 -1.6955
  660MOL0     H87114   6.789   0.934   5.672 -3.1753  2.1286 -0.8021
  660MOL0     H87115   6.806   0.785   5.776 -0.5523  0.7292  3.3385
  660MOL0     H87116   6.634   1.037   5.825 -3.6198 -1.0405  1.5058
  660MOL0     H87117   6.614   0.879   5.912 -0.9697  1.3072  0.5745
  660MOL0     H87118   6.953   1.092   6.082  1.1298  1.6152 -2.2134
  660MOL0     H87119   6.342   0.743   6.054  0.4679 -0.4727  0.0549
  660MOL0     H87120   6.211   0.591   6.173  2.7443  5.8331  1.6024
  661MOL0     O87121   9.390   6.347   7.120 -0.0539  1.0561  0.4918
  661MOL0     C87122   9.423   6.237   7.091  0.0079 -0.5561 -1.3022
  661MOL0     O87123   9.484   6.150   7.180  0.1862  0.2385  0.1092
  661MOL0     C87124   9.526   6.190   7.296  0.2542 -0.6506 -0.5686
  661MOL0     C87125   9.658   6.252   7.296  0.4014 -0.1631 -0.3978
  661MOL0     C87126   9.707   6.291   7.421 -0.8404  0.1780 -0.6448
  661MOL0     C87127   9.632   6.298   7.535 -0.0119  0.2765  1.0593
  661MOL0     O87128   9.682   6.336   7.658 -0.5250 -0.6070 -0.0237
  661MOL0     C87129   9.603   6.347   7.776  0.3460 -0.6025  0.5295
  661MOL0     C87130   9.687   6.412   7.883 -0.3159  0.2298 -0.1809
  661MOL0     C87131   9.827   6.343   7.898  0.7384 -0.0943  0.5251
  661MOL0     C87132   9.899   6.400   8.022 -0.4248  0.3510 -0.2917
  661MOL0     C87133  10.038   6.327   8.035  0.8195 -0.0378  0.0627
  661MOL0     C87134  10.147   6.425   8.009 -1.3459 -0.7936  0.2931
  661MOL0     C87135  10.165   6.521   8.128 -0.9887 -0.3596 -0.3554
  661MOL0     C87136  10.299   6.596   8.100  0.0071 -0.3558 -0.4584
  661MOL0     N87137  10.324   6.718   8.182 -0.5813 -0.2532  0.7655
  661MOL0     C87138  10.386   6.740   8.303  0.0573 -0.3930  0.0192
  661MOL0     C87139  10.342   6.865   8.344  0.8363  0.6838  0.4515
  661MOL0     C87140  10.370   6.924   8.478 -0.5443 -0.9065  0.2195
  661MOL0     C87141  10.243   6.946   8.565 -0.5744  0.3521  0.2128
  661MOL0     C87142  10.158   7.068   8.546 -0.1613  0.1321  0.0230
  661MOL0     C87143  10.046   7.098   8.645 -0.5467  0.4270  0.5529
  661MOL0     O87144  10.094   7.075   8.777  0.0100  0.0446  0.5902
  661MOL0     C87145  10.000   7.088   8.877  0.7898  0.0076  0.1596
  661MOL0     C87146   9.882   7.162   8.867 -0.6613 -0.9082  0.3863
  661MOL0     C87147   9.785   7.155   8.971 -0.4253 -0.9646 -0.8209
  661MOL0     C87148   9.807   7.090   9.093  0.1412  0.2557 -0.0480
  661MOL0     C87149   9.714   7.097   9.203 -1.2820  0.4071 -0.0220
  661MOL0     O87150   9.763   7.058   9.328  0.7140  0.9195  0.2400
  661MOL0     C87151   9.678   7.091   9.428 -0.5840  0.3434 -0.4624
  661MOL0     C87152   9.604   6.990   9.490  1.0561 -0.0040  0.8085
  661MOL0     C87153   9.504   7.023   9.580  0.7362 -0.1345 -0.0791
  661MOL0     C87154   9.490   7.156   9.612  0.9131  0.1673 -0.6194
  661MOL0     O87155   9.412   7.200   9.711  0.0793 -0.4373 -0.6773
  661MOL0     C87156   9.279   7.180   9.686  0.6538  0.8376 -0.1432
  661MOL0     C87157   9.209   7.301   9.754  0.6136 -0.0476 -0.7966
  661MOL0     C87158   9.222   7.430   9.675 -0.1886  0.2974 -1.5781
  661MOL0     C87159   9.144   7.546   9.744  0.8296 -0.1102 -1.0748
  661MOL0     C87160   9.204   7.677   9.697  0.0994  0.6872  1.1862
  661MOL0     C87161   9.179   7.789   9.799  0.1109  0.6213  0.6464
  661MOL0     C87162   9.036   7.807   9.807 -0.4589 -1.1202  0.8420
  661MOL0     C87163   9.019   7.934   9.894 -0.7751 -0.5673 -0.4642
  661MOL0    Cl87164   8.848   7.976   9.941 -0.1696 -0.2296 -0.1273
  661MOL0     C87165   9.574   7.257   9.554  0.0482  0.3120  0.1101
  661MOL0     C87166   9.673   7.222   9.463  0.8530 -0.1199  0.9707
  661MOL0     O87167   9.598   7.135   9.183 -0.3166  0.5390 -0.8940
  661MOL0     C87168   9.933   7.023   9.105  0.0813  1.0615  0.8131
  661MOL0     C87169  10.024   7.020   8.999 -0.8120  0.7493 -0.2529
  661MOL0     N87170  10.268   6.918   8.239 -0.7242 -0.3127  0.0608
  661MOL0     N87171  10.252   6.831   8.148 -0.4371 -0.4515  0.2126
  661MOL0     C87172   9.503   6.248   7.524  0.0213  0.1019  0.4538
  661MOL0     C87173   9.451   6.193   7.412  0.4797 -0.7821  0.0763
  661MOL0     C87174   9.403   6.192   6.955  0.4114 -0.3525  0.5689
  661MOL0     C87175   9.320   6.256   6.861 -0.7051 -1.6881  0.4853
  661MOL0     C87176   9.296   6.213   6.733 -1.7063 -0.0352 -0.7750
  661MOL0     C87177   9.369   6.101   6.686  0.7128  0.1240 -0.6015
  661MOL0     O87178   9.377   6.051   6.558 -0.9286 -1.0800  0.8359
  661MOL0     C87179   9.320   6.124   6.454  0.0858  0.6622 -0.6433
  661MOL0     C87180   9.394   6.085   6.317 -1.0578 -0.0939 -0.7256
  661MOL0     C87181   9.347   6.191   6.217 -0.9146 -0.6712 -0.1312
  661MOL0     C87182   9.379   6.152   6.071 -0.1422  1.0026  0.2626
  661MOL0     C87183   9.284   6.042   6.042 -0.5433  0.4435  0.3492
  661MOL0     C87184   9.204   5.956   6.006 -0.4060 -0.1794 -0.6764
  661MOL0     C87185   9.452   6.032   6.776  0.1250  0.0396  0.7248
  661MOL0     C87186   9.468   6.073   6.905  0.3030 -0.4225 -0.4684
  661MOL0     H87187   9.709   6.267   7.202  0.4895 -0.9313 -0.4821
  661MOL0     H87188   9.812   6.313   7.435 -1.1817  2.5060 -1.3082
  661MOL0     H87189   9.573   6.245   7.803  1.9520 -1.2346  0.0470
  661MOL0     H87190   9.513   6.407   7.758  1.6858  0.8695 -1.6845
  661MOL0     H87191   9.642   6.411   7.983  2.0527  1.9874  1.0023
  661MOL0     H87192   9.692   6.519   7.860 -0.5670  0.4266  0.6640
  661MOL0     H87193   9.884   6.370   7.809 -0.2370  2.9910  0.7137
  661MOL0     H87194   9.821   6.234   7.908 -2.3404  0.0069  0.6889
  661MOL0     H87195   9.901   6.509   8.027  0.9927  0.3348 -0.2711
  661MOL0     H87196   9.851   6.369   8.115 -1.5835 -2.2893 -1.6714
  661MOL0     H87197  10.028   6.242   7.967  0.3671  1.0650 -1.2932
  661MOL0     H87198  10.059   6.286   8.135  2.3754 -0.1325 -0.2841
  661MOL0     H87199  10.130   6.481   7.917 -0.2993 -0.5628  0.2190
  661MOL0     H87200  10.244   6.376   7.996 -0.1963  1.6821 -1.0071
  661MOL0     H87201  10.075   6.584   8.129 -2.2734 -2.1134  0.8420
  661MOL0     H87202  10.161   6.470   8.224 -3.5340  1.9301  0.9092
  661MOL0     H87203  10.301   6.621   7.993 -3.5989 -4.0054 -1.6174
  661MOL0     H87204  10.380   6.525   8.116  0.0436 -0.6891 -1.9559
  661MOL0     H87205  10.457   6.674   8.353  1.5437  1.0431 -0.1367
  661MOL0     H87206  10.412   7.023   8.462 -3.6455  0.0078 -3.8799
  661MOL0     H87207  10.447   6.861   8.522  0.8103 -0.0221 -0.8083
  661MOL0     H87208  10.290   6.950   8.664 -0.4916 -4.5082  0.6404
  661MOL0     H87209  10.191   6.850   8.560 -0.5876  0.2988  1.1159
  661MOL0     H87210  10.219   7.158   8.548 -1.7885  1.3251  3.3444
  661MOL0     H87211  10.118   7.065   8.444  4.0508  0.4335 -1.8269
  661MOL0     H87212   9.968   7.024   8.627 -2.2138  2.5609 -1.5581
  661MOL0     H87213  10.015   7.199   8.619 -2.9816 -1.0819 -3.2204
  661MOL0     H87214   9.860   7.214   8.775 -1.9167 -0.4796  0.9122
  661MOL0     H87215   9.682   7.177   8.944  0.4027  0.2258 -3.3411
  661MOL0     H87216   9.616   6.885   9.462  0.0803 -0.3846  1.7707
  661MOL0     H87217   9.444   6.957   9.642 -0.7103  1.7189  0.5846
  661MOL0     H87218   9.247   7.091   9.740 -2.8135  0.8670 -1.8790
  661MOL0     H87219   9.259   7.171   9.579 -0.7512 -1.2265  0.2437
  661MOL0     H87220   9.235   7.316   9.859 -1.8480  1.0173 -0.2712
  661MOL0     H87221   9.102   7.282   9.761  0.6173  0.3875  0.7143
  661MOL0     H87222   9.196   7.409   9.571  0.1594 -0.5169 -1.5047
  661MOL0     H87223   9.328   7.451   9.691 -0.7867  2.0744  0.5946
  661MOL0     H87224   9.039   7.532   9.717  1.1058 -1.2336 -1.6252
  661MOL0     H87225   9.139   7.537   9.853 -0.9639 -1.4101 -1.2106
  661MOL0     H87226   9.165   7.711   9.601  0.2639 -3.4116 -0.5318
  661MOL0     H87227   9.313   7.674   9.705  0.0843 -3.7757  2.3306
  661MOL0     H87228   9.233   7.881   9.778 -2.4406  1.6567 -1.9934
  661MOL0     H87229   9.223   7.742   9.887  2.3226 -1.6919 -1.5016
  661MOL0     H87230   8.987   7.815   9.710  1.2177  1.5734  0.1209
  661MOL0     H87231   8.994   7.719   9.858 -3.6943 -1.2315 -1.6707
  661MOL0     H87232   9.058   8.012   9.828 -0.3961  1.3943  1.9644
  661MOL0     H87233   9.076   7.916   9.986 -0.2772 -2.1144 -1.0462
  661MOL0     H87234   9.566   7.357   9.594 -0.7106 -0.2583  1.4312
  661MOL0     H87235   9.739   7.295   9.418  0.1364 -0.2604 -0.3633
  661MOL0     H87236   9.959   6.968   9.196  2.4321  0.2261 -0.2855
  661MOL0     H87237  10.120   6.969   8.998 -1.4708 -0.9405 -5.0456
  661MOL0     H87238   9.436   6.251   7.609  0.2060  0.4183  0.5918
  661MOL0     H87239   9.352   6.149   7.417  0.3098 -0.3672  0.4448
  661MOL0     H87240   9.264   6.341   6.898 -0.5402 -1.1556 -0.4697
  661MOL0     H87241   9.231   6.270   6.666 -2.8095 -1.4251 -0.9345
  661MOL0     H87242   9.348   6.228   6.472 -1.2552  0.7856  0.9971
  661MOL0     H87243   9.212   6.107   6.464  0.2161  1.3394  3.8272
  661MOL0     H87244   9.501   6.092   6.336 -0.7461  0.5760 -2.5338
  661MOL0     H87245   9.364   5.985   6.286  1.8811 -0.8751 -1.2994
  661MOL0     H87246   9.389   6.291   6.233 -3.2660  0.7235 -2.1102
  661MOL0     H87247   9.239   6.195   6.233 -1.0431  0.6229 -1.1790
  661MOL0     H87248   9.364   6.242   6.011 -0.1371 -0.0652 -1.3882
  661MOL0     H87249   9.483   6.120   6.059 -0.2138  0.9900 -0.3575
  661MOL0     H87250   9.144   5.872   5.978 -0.2283 -0.8702  0.9275
  661MOL0     H87251   9.487   5.939   6.733 -0.0578  0.6955 -0.8945
  661MOL0     H87252   9.532   6.014   6.970 -1.1931  2.3136  3.9205
  662MOL0     O87253   1.854   5.106   7.087 -0.4036 -0.7830 -0.3614
  662MOL0     C87254   1.750   5.048   7.042 -0.9704  0.7209  0.4730
  662MOL0     O87255   1.616   5.093   7.020  0.4742 -0.3210  0.2631
  662MOL0     C87256   1.559   5.183   7.104  0.2578 -0.4349  0.8309
  662MOL0     C87257   1.432   5.246   7.062 -0.2934  0.2944  0.9726
  662MOL0     C87258   1.369   5.350   7.126  0.1466  0.4443 -0.2532
  662MOL0     C87259   1.417   5.392   7.247  0.3457 -0.5354  0.4802
  662MOL0     O87260   1.339   5.501   7.295 -0.8008  0.2431 -0.1848
  662MOL0     C87261   1.414   5.611   7.334 -0.1409  0.1252  0.3236
  662MOL0     C87262   1.326   5.727   7.299  0.0277 -0.0614 -0.3347
  662MOL0     C87263   1.305   5.755   7.153 -0.6809  0.6858 -0.5795
  662MOL0     C87264   1.201   5.858   7.130  0.4476 -0.2374  0.0055
  662MOL0     C87265   1.257   5.997   7.149  0.6440 -1.3209  0.2711
  662MOL0     C87266   1.179   6.090   7.050  0.2977  0.2116 -0.5523
  662MOL0     C87267   1.024   6.073   7.033 -1.1221  0.7860 -0.4160
  662MOL0     C87268   0.957   6.202   6.984 -0.1317  0.8135  0.8987
  662MOL0     N87269   0.811   6.160   6.971  0.0916 -0.4713 -0.9608
  662MOL0     C87270   0.766   6.102   6.861 -0.2919 -0.3094  0.9050
  662MOL0     C87271   0.631   6.103   6.881  0.1095 -0.0150 -0.7026
  662MOL0     C87272   0.545   6.016   6.799 -0.1432 -0.4624 -0.2399
  662MOL0     C87273   0.506   6.106   6.672  0.9959  0.2648  0.6484
  662MOL0     C87274   0.424   6.040   6.559 -0.3622  0.1560  0.3960
  662MOL0     C87275   0.329   5.930   6.604 -0.7713 -0.1011  0.7983
  662MOL0     O87276   0.227   5.993   6.687  0.4460  0.1448 -1.0432
  662MOL0     C87277   0.109   5.921   6.702 -0.3643  0.0514 -0.0161
  662MOL0     C87278   0.101   5.779   6.706 -0.6642 -0.3064  0.1624
  662MOL0     C87279  -0.013   5.710   6.718 -0.2216  0.0433 -0.2861
  662MOL0     C87280  -0.138   5.777   6.723  0.5643 -0.4277  0.6705
  662MOL0     C87281  -0.269   5.710   6.733 -0.9135  0.2930  1.0534
  662MOL0     O87282  -0.289   5.588   6.671 -0.0801  0.3880 -0.2254
  662MOL0     C87283  -0.415   5.526   6.661  0.2181  0.3731 -0.1408
  662MOL0     C87284  -0.433   5.423   6.564 -0.9189 -0.5780 -0.0428
  662MOL0     C87285  -0.560   5.367   6.548 -0.3141 -0.0572  1.0345
  662MOL0     C87286  -0.668   5.392   6.638  0.4312 -0.0254 -0.2701
  662MOL0     O87287  -0.785   5.321   6.639  0.3265  0.9947  0.1857
  662MOL0     C87288  -0.913   5.382   6.656  0.3330  0.3069 -0.4900
  662MOL0     C87289  -0.986   5.419   6.521  0.5312  1.0917 -0.3348
  662MOL0     C87290  -1.134   5.490   6.555 -0.3707 -0.4538  0.0232
  662MOL0     C87291  -1.162   5.578   6.444 -0.1849 -0.3495  0.2454
  662MOL0     C87292  -1.306   5.616   6.458 -0.4860  0.8080 -0.2277
  662MOL0     C87293  -1.367   5.657   6.326 -0.0624  0.0251  1.0303
  662MOL0     C87294  -1.520   5.654   6.321  0.0289  0.4114  1.1874
  662MOL0     C87295  -1.572   5.684   6.181  0.8826 -0.5866  0.6740
  662MOL0    Cl87296  -1.752   5.709   6.170  0.4189  0.1289  0.0290
  662MOL0     C87297  -0.651   5.488   6.730 -0.7016 -0.0904  1.3935
  662MOL0     C87298  -0.533   5.556   6.743 -0.4152  0.5063  0.1657
  662MOL0     O87299  -0.353   5.775   6.772  0.5354  0.5552 -0.9126
  662MOL0     C87300  -0.134   5.921   6.735 -1.2641 -0.3881 -0.0839
  662MOL0     C87301  -0.009   5.993   6.730 -0.4963 -0.2515 -0.1039
  662MOL0     N87302   0.597   6.165   6.993  0.1047  0.1277  0.5870
  662MOL0     N87303   0.704   6.214   7.046 -0.4434  0.6980 -0.2228
  662MOL0     C87304   1.548   5.346   7.300  0.8840 -0.0694 -0.2962
  662MOL0     C87305   1.612   5.242   7.225 -0.3768  0.8076  0.5861
  662MOL0     C87306   1.770   4.897   7.012 -0.8348 -0.4845  0.1234
  662MOL0     C87307   1.880   4.837   7.075 -0.0127  0.0855 -0.0875
  662MOL0     C87308   1.904   4.703   7.041 -0.6464 -0.2415 -0.3729
  662MOL0     C87309   1.812   4.634   6.962 -0.2582 -0.0682  0.4114
  662MOL0     O87310   1.835   4.504   6.924  0.2847  0.0406  0.2637
  662MOL0     C87311   1.955   4.435   6.957  0.2854 -0.2392 -0.6266
  662MOL0     C87312   1.961   4.301   6.893  0.5086 -0.0198  0.0740
  662MOL0     C87313   1.949   4.281   6.739  0.4176 -0.5528 -0.4215
  662MOL0     C87314   2.055   4.360   6.655 -0.5194  0.3708  0.0278
  662MOL0     C87315   2.186   4.309   6.690  0.1453 -0.8329  0.2500
  662MOL0     C87316   2.283   4.252   6.725 -0.4818 -1.9226  0.3946
  662MOL0     C87317   1.697   4.689   6.916  0.2626 -0.5456  0.1592
  662MOL0     C87318   1.678   4.825   6.944  0.6578 -0.3799  1.0234
  662MOL0     H87319   1.387   5.216   6.969  1.4259  0.8047 -0.0694
  662MOL0     H87320   1.282   5.395   7.077 -1.1830 -0.5987  1.0784
  662MOL0     H87321   1.507   5.617   7.277 -1.3467  0.8166 -1.6687
  662MOL0     H87322   1.439   5.615   7.440  1.0572  2.1272  0.0226
  662MOL0     H87323   1.371   5.811   7.353 -1.2129 -1.6301  3.4983
  662MOL0     H87324   1.227   5.705   7.340  0.4819 -0.0610  0.8151
  662MOL0     H87325   1.281   5.660   7.104  1.9799 -0.0697 -0.6138
  662MOL0     H87326   1.402   5.773   7.105 -0.3152 -0.1800 -0.1901
  662MOL0     H87327   1.153   5.845   7.032 -0.9781  1.8432  0.3452
  662MOL0     H87328   1.109   5.842   7.187  1.3940 -0.6027  1.4707
  662MOL0     H87329   1.363   6.001   7.123  0.8565 -0.2353  1.2167
  662MOL0     H87330   1.240   6.033   7.251  0.8729 -0.5149  0.0334
  662MOL0     H87331   1.229   6.072   6.954  2.1112  1.5458  0.0889
  662MOL0     H87332   1.189   6.188   7.095 -2.9400  1.1518 -1.6061
  662MOL0     H87333   0.990   5.984   6.979 -1.0670 -0.3432  1.3389
  662MOL0     H87334   0.989   6.044   7.132  0.3352  2.0878  0.5281
  662MOL0     H87335   0.998   6.236   6.889  2.6438 -1.5012  1.1277
  662MOL0     H87336   0.970   6.286   7.053 -1.4660 -0.6364  3.0510
  662MOL0     H87337   0.818   6.055   6.779  0.1064  3.8175 -1.5160
  662MOL0     H87338   0.454   5.985   6.851  0.8986  0.7085  2.4398
  662MOL0     H87339   0.602   5.925   6.777  0.0155 -0.0447 -1.6698
  662MOL0     H87340   0.595   6.151   6.626  1.1180  0.2568  0.8738
  662MOL0     H87341   0.440   6.190   6.697 -0.5225 -1.5324  3.0522
  662MOL0     H87342   0.354   6.113   6.517  1.2317  1.8247  0.4962
  662MOL0     H87343   0.483   6.008   6.472 -0.6797  0.1716  0.1711
  662MOL0     H87344   0.393   5.858   6.655  2.2973  1.3463 -0.7336
  662MOL0     H87345   0.302   5.881   6.510  2.2369 -1.2513  0.4158
  662MOL0     H87346   0.188   5.718   6.682 -1.0172  0.0452 -2.2698
  662MOL0     H87347  -0.011   5.601   6.724  0.7938 -0.1399 -2.9232
  662MOL0     H87348  -0.348   5.400   6.501 -2.0951  1.6636 -2.6976
  662MOL0     H87349  -0.576   5.287   6.476  2.4674 -2.3869  2.7607
  662MOL0     H87350  -0.900   5.465   6.725  0.2029 -1.4237  1.7236
  662MOL0     H87351  -0.973   5.304   6.704  0.7997 -0.3427 -0.9384
  662MOL0     H87352  -0.995   5.331   6.456 -0.6010  2.2260 -1.8078
  662MOL0     H87353  -0.920   5.491   6.470 -0.1232  0.1191 -2.6813
  662MOL0     H87354  -1.121   5.553   6.643 -0.4574 -0.3480 -0.0407
  662MOL0     H87355  -1.197   5.402   6.573  0.5857 -0.6108  3.1017
  662MOL0     H87356  -1.086   5.654   6.463  2.3274 -2.9673  1.5336
  662MOL0     H87357  -1.134   5.535   6.348 -0.9979  1.0893 -0.6727
  662MOL0     H87358  -1.317   5.688   6.539  0.7594 -2.3299  3.0482
  662MOL0     H87359  -1.354   5.522   6.489  1.5829  0.1312  1.2622
  662MOL0     H87360  -1.330   5.582   6.256  0.2292 -2.8139  3.9565
  662MOL0     H87361  -1.333   5.757   6.298 -1.4190 -0.0398 -1.0353
  662MOL0     H87362  -1.558   5.558   6.355 -0.6070 -1.1358 -3.3230
  662MOL0     H87363  -1.552   5.737   6.385 -0.9527  0.6777  0.3667
  662MOL0     H87364  -1.529   5.601   6.124  1.8292 -0.3333  1.0001
  662MOL0     H87365  -1.543   5.781   6.141 -3.6980  0.6025 -0.3356
  662MOL0     H87366  -0.721   5.503   6.812 -0.9544 -0.6454  1.2838
  662MOL0     H87367  -0.520   5.628   6.824  0.7895 -1.3093  1.6682
  662MOL0     H87368  -0.229   5.972   6.744 -1.8237 -1.7702  2.9782
  662MOL0     H87369  -0.007   6.101   6.739  1.6148  0.2192 -3.9793
  662MOL0     H87370   1.587   5.391   7.391  2.5447  2.8464 -2.3063
  662MOL0     H87371   1.705   5.201   7.263  1.7395  2.9375 -1.9086
  662MOL0     H87372   1.955   4.885   7.137  0.2635 -3.2897  2.5635
  662MOL0     H87373   1.995   4.655   7.074 -0.4393 -0.7785 -1.6712
  662MOL0     H87374   1.961   4.414   7.064  0.0664 -2.9851 -1.0881
  662MOL0     H87375   2.036   4.505   6.937 -0.6973  1.6827  1.5942
  662MOL0     H87376   2.051   4.251   6.930  3.5720  4.1483 -1.0045
  662MOL0     H87377   1.875   4.244   6.929 -0.8359  1.3184 -0.8975
  662MOL0     H87378   1.849   4.306   6.702  0.6679  0.9350 -0.1327
  662MOL0     H87379   1.966   4.174   6.723  1.0072 -0.2789 -1.6943
  662MOL0     H87380   2.050   4.321   6.553  3.5064  3.4251 -1.6122
  662MOL0     H87381   2.044   4.469   6.657  0.7399  0.5083  0.6487
  662MOL0     H87382   2.370   4.195   6.751  1.7439  0.5768 -1.1153
  662MOL0     H87383   1.628   4.632   6.855  2.3020 -5.8268  2.2597
  662MOL0     H87384   1.583   4.864   6.909 -0.2869 -4.3897 -1.6119
  663MOL0     O87385   6.338   3.697   5.910 -0.6691 -0.7201 -0.3689
  663MOL0     C87386   6.306   3.680   5.802 -0.0369 -0.4771  0.5896
  663MOL0     O87387   6.338   3.579   5.724 -0.8779  0.0380 -0.6344
  663MOL0     C87388   6.437   3.490   5.761  0.5633 -1.4325  0.2579
  663MOL0     C87389   6.567   3.492   5.711  0.5514 -0.5448  0.3726
  663MOL0     C87390   6.656   3.401   5.743 -0.8167 -0.5186 -1.1273
  663MOL0     C87391   6.620   3.293   5.821  0.7914  0.3581  0.5057
  663MOL0     O87392   6.724   3.192   5.830  0.0741 -0.3720 -0.1387
  663MOL0     C87393   6.707   3.090   5.931 -0.5916 -0.2173  0.3987
  663MOL0     C87394   6.656   2.967   5.865  0.4567 -0.7121  0.2815
  663MOL0     C87395   6.776   2.871   5.844  0.4078 -0.1107  0.2216
  663MOL0     C87396   6.888   2.926   5.758  1.1767 -0.2178  0.0424
  663MOL0     C87397   6.860   2.943   5.612 -0.1600  0.1646  0.0645
  663MOL0     C87398   6.973   3.013   5.539  0.0377 -0.2962 -0.1489
  663MOL0     C87399   6.961   3.167   5.554 -0.0756 -0.9554  0.2467
  663MOL0     C87400   7.078   3.245   5.488  0.2713 -0.1343 -0.1342
  663MOL0     N87401   7.067   3.382   5.541  0.1293 -0.5010 -0.3546
  663MOL0     C87402   6.965   3.476   5.511 -0.3494 -0.3572  0.2912
  663MOL0     C87403   7.009   3.596   5.569 -0.3844 -0.5679  0.3861
  663MOL0     C87404   6.947   3.736   5.555 -0.2457 -0.4983 -0.6915
  663MOL0     C87405   6.999   3.797   5.429  0.3817 -0.5561  0.2049
  663MOL0     C87406   7.146   3.784   5.383 -0.3844 -0.4637  0.2622
  663MOL0     C87407   7.185   3.877   5.264  0.8166 -1.0064  0.8648
  663MOL0     O87408   7.120   3.823   5.150  0.2992 -0.1337 -0.6450
  663MOL0     C87409   7.095   3.902   5.044 -0.6245 -0.9112  0.1303
  663MOL0     C87410   7.157   4.028   5.025  0.6327 -1.0463  0.0420
  663MOL0     C87411   7.131   4.097   4.910 -0.1518 -0.7142  1.1444
  663MOL0     C87412   7.075   4.033   4.793  0.1275 -0.2028 -0.0123
  663MOL0     C87413   7.104   4.093   4.665 -0.6290  0.1187 -0.7727
  663MOL0     O87414   7.064   4.009   4.563 -0.1753  0.7470 -0.1281
  663MOL0     C87415   7.083   4.039   4.429  0.1659  0.0643 -0.1565
  663MOL0     C87416   7.168   4.138   4.376  0.0442  1.1300  0.7398
  663MOL0     C87417   7.191   4.140   4.241  0.2790 -0.5773  0.5984
  663MOL0     C87418   7.127   4.063   4.146 -0.3261  0.1562 -0.3700
  663MOL0     O87419   7.140   4.076   4.016  0.2335  0.2317 -0.1315
  663MOL0     C87420   7.142   3.961   3.936  0.9681 -0.3219 -0.0450
  663MOL0     C87421   7.017   3.955   3.853  0.4240  0.7028  0.8542
  663MOL0     C87422   7.026   3.850   3.744 -0.4964 -0.4193  0.2975
  663MOL0     C87423   6.889   3.810   3.681  0.3729 -1.1708  0.1402
  663MOL0     C87424   6.913   3.691   3.583  0.5011  0.4546  0.7754
  663MOL0     C87425   7.022   3.687   3.483  0.3337 -0.0052  0.0860
  663MOL0     C87426   7.000   3.795   3.374  0.3251 -0.6316  0.1498
  663MOL0     C87427   7.055   3.757   3.246  0.3828  0.2843  0.6225
  663MOL0    Cl87428   7.238   3.739   3.275  0.1510 -0.2444 -0.0764
  663MOL0     C87429   7.032   3.974   4.201  0.1027 -0.0724 -0.9385
  663MOL0     C87430   7.009   3.953   4.346 -0.4142  0.3363 -0.1117
  663MOL0     O87431   7.146   4.208   4.665 -0.3585 -0.4509  0.1438
  663MOL0     C87432   7.003   3.908   4.817  0.0013 -0.5468 -0.1258
  663MOL0     C87433   7.006   3.851   4.948 -0.3356  0.3793  0.0329
  663MOL0     N87434   7.116   3.558   5.648 -0.0223  0.6103  0.3822
  663MOL0     N87435   7.146   3.441   5.631  0.7710 -0.1921 -0.4068
  663MOL0     C87436   6.489   3.277   5.873  0.1057 -1.1911  0.3102
  663MOL0     C87437   6.399   3.373   5.835 -0.9441  0.5912 -0.2690
  663MOL0     C87438   6.190   3.759   5.747 -0.4716  0.1997  0.4418
  663MOL0     C87439   6.146   3.881   5.805 -0.0599  0.2202  0.5280
  663MOL0     C87440   6.040   3.952   5.745  0.9522 -0.5908  0.5824
  663MOL0     C87441   5.956   3.894   5.637 -0.2866 -0.9126 -0.6026
  663MOL0     O87442   5.847   3.963   5.576  0.4637  0.4368  0.1568
  663MOL0     C87443   5.817   4.094   5.626  0.5531  0.2029 -0.1329
  663MOL0     C87444   5.763   4.199   5.525  0.0234  0.2555 -0.2297
  663MOL0     C87445   5.867   4.233   5.416  1.4792  0.7838  0.3842
  663MOL0     C87446   5.829   4.348   5.325  0.2042 -0.0038  0.2778
  663MOL0     C87447   5.948   4.372   5.240  0.1205  0.8745 -0.2840
  663MOL0     C87448   6.063   4.388   5.183  0.4311  0.7159 -1.2283
  663MOL0     C87449   6.005   3.782   5.573  0.7987 -0.6671 -0.5732
  663MOL0     C87450   6.121   3.726   5.634 -0.2816  0.1483 -0.1700
  663MOL0     H87451   6.587   3.583   5.655 -2.8468  0.1456  0.0090
  663MOL0     H87452   6.760   3.394   5.713  0.5452  3.0495  1.9144
  663MOL0     H87453   6.640   3.129   6.008 -1.4815  0.3000 -0.6118
  663MOL0     H87454   6.799   3.065   5.985  0.6147  2.4037 -0.2738
  663MOL0     H87455   6.604   2.989   5.772  0.3178 -2.4130 -0.0680
  663MOL0     H87456   6.591   2.904   5.926  1.5749 -2.6959 -0.4695
  663MOL0     H87457   6.753   2.773   5.800  2.1008 -0.3215 -0.2620
  663MOL0     H87458   6.814   2.843   5.943  1.4694  0.4928 -0.0023
  663MOL0     H87459   6.901   3.030   5.787  0.4508  0.0455 -0.5461
  663MOL0     H87460   6.983   2.874   5.779  2.6606  2.1423 -0.4438
  663MOL0     H87461   6.762   2.989   5.597 -0.5225 -0.3962  0.6123
  663MOL0     H87462   6.833   2.849   5.563 -1.8858  1.2313 -1.1292
  663MOL0     H87463   6.967   2.983   5.434 -0.4401  0.2431 -0.2781
  663MOL0     H87464   7.071   2.978   5.575  0.1079 -0.6131 -0.6365
  663MOL0     H87465   6.872   3.202   5.502  0.8627  2.2835  0.5944
  663MOL0     H87466   6.965   3.197   5.660 -1.1017 -0.1311  0.0612
  663MOL0     H87467   7.044   3.241   5.384 -0.1715 -0.3639  0.0176
  663MOL0     H87468   7.171   3.188   5.497 -1.6342 -3.1120  3.0682
  663MOL0     H87469   6.881   3.468   5.443 -0.4595 -1.2884  0.5097
  663MOL0     H87470   6.978   3.799   5.639  1.3352 -1.0651 -0.8154
  663MOL0     H87471   6.838   3.724   5.553 -0.0789 -2.2890 -0.4207
  663MOL0     H87472   6.981   3.905   5.426 -0.3087 -0.6867 -0.5757
  663MOL0     H87473   6.945   3.749   5.347  2.9735 -1.2655 -1.1788
  663MOL0     H87474   7.195   3.816   5.475  0.2496 -2.8631  0.8258
  663MOL0     H87475   7.172   3.681   5.357 -1.9046 -0.4444 -1.5738
  663MOL0     H87476   7.292   3.882   5.242  0.4263 -0.4793 -1.0778
  663MOL0     H87477   7.156   3.979   5.293  0.2673 -0.0516 -2.6600
  663MOL0     H87478   7.211   4.085   5.100  0.0948 -1.7858  1.0119
  663MOL0     H87479   7.174   4.196   4.906  1.1109 -1.2597  0.8864
  663MOL0     H87480   7.215   4.214   4.437 -1.7318  3.7633 -0.9448
  663MOL0     H87481   7.270   4.211   4.220 -2.1540  1.5634 -2.1372
  663MOL0     H87482   7.159   3.870   3.994  0.2419 -0.2663  0.2624
  663MOL0     H87483   7.228   3.965   3.868  0.9046 -2.0927 -0.2804
  663MOL0     H87484   7.007   4.047   3.795 -1.0179  0.0010 -0.0580
  663MOL0     H87485   6.932   3.940   3.921 -0.4179  0.2124 -0.2811
  663MOL0     H87486   7.071   3.758   3.782 -1.7185 -1.7191 -1.3044
  663MOL0     H87487   7.087   3.894   3.665 -2.1515  2.5458  0.5042
  663MOL0     H87488   6.824   3.787   3.766 -0.8239 -0.3046 -0.5187
  663MOL0     H87489   6.858   3.894   3.619 -0.3161 -2.7575 -1.7873
  663MOL0     H87490   6.826   3.687   3.518  2.5037  2.2398 -2.2950
  663MOL0     H87491   6.915   3.595   3.635 -2.7610  0.2311  0.6580
  663MOL0     H87492   7.002   3.590   3.437 -0.0791  0.4783 -0.7747
  663MOL0     H87493   7.114   3.685   3.541 -1.0471  0.1428  2.4176
  663MOL0     H87494   6.891   3.802   3.362  0.5890  0.6351 -1.9939
  663MOL0     H87495   7.028   3.897   3.404 -1.4884  0.5050 -1.6962
  663MOL0     H87496   7.037   3.834   3.171 -0.1870  1.5463  2.0001
  663MOL0     H87497   7.014   3.663   3.207  0.9353  0.9150 -1.6163
  663MOL0     H87498   6.962   3.920   4.138 -0.7306 -3.2130  2.3164
  663MOL0     H87499   6.944   3.879   4.392 -0.4349  1.7837  2.3827
  663MOL0     H87500   6.956   3.844   4.743  1.9801  0.3175 -2.2654
  663MOL0     H87501   6.953   3.757   4.957 -0.3281  0.0196 -2.8712
  663MOL0     H87502   6.467   3.189   5.932 -0.0809 -1.0057  0.5156
  663MOL0     H87503   6.298   3.373   5.874 -0.3869 -1.1521  1.2923
  663MOL0     H87504   6.201   3.912   5.893  2.2007  0.2336 -0.8064
  663MOL0     H87505   6.001   4.036   5.802 -0.2205 -0.4968 -0.3158
  663MOL0     H87506   5.906   4.150   5.658 -0.5618  1.2197  1.3298
  663MOL0     H87507   5.754   4.076   5.713  1.7026 -1.0781  0.4700
  663MOL0     H87508   5.668   4.170   5.479 -1.9156  3.1291  1.6195
  663MOL0     H87509   5.737   4.290   5.580 -1.0365 -0.1586 -0.0212
  663MOL0     H87510   5.878   4.148   5.348 -1.9933 -1.3965  2.2540
  663MOL0     H87511   5.959   4.254   5.471 -0.2830  1.6421  3.2237
  663MOL0     H87512   5.743   4.318   5.265  1.6944 -2.1477 -0.9105
  663MOL0     H87513   5.794   4.429   5.390 -0.0671  0.8442 -0.9019
  663MOL0     H87514   6.156   4.399   5.131  1.1693 -0.9678 -0.3336
  663MOL0     H87515   5.949   3.751   5.485 -0.6416  0.3330 -0.0413
  663MOL0     H87516   6.147   3.637   5.576  0.5120 -0.1479  0.6260
  664MOL0     O87517   7.204   5.849   0.200  0.0246 -0.1443 -0.5106
  664MOL0     C87518   7.158   5.743   0.250  0.8162  0.7999 -0.0484
  664MOL0     O87519   7.065   5.737   0.350 -0.0101 -0.6309 -0.4022
  664MOL0     C87520   7.009   5.853   0.406  0.2757  0.9026  0.6377
  664MOL0     C87521   7.089   5.971   0.440  0.1073  0.2261  0.2754
  664MOL0     C87522   7.016   6.085   0.479  0.0104 -0.1102 -0.6691
  664MOL0     C87523   6.881   6.080   0.513  0.4574  0.2018  0.1154
  664MOL0     O87524   6.826   6.199   0.555 -0.2610  0.0408  0.4119
  664MOL0     C87525   6.710   6.202   0.641 -0.3331  0.5468 -0.4722
  664MOL0     C87526   6.671   6.349   0.669 -0.1949  0.3953 -0.3656
  664MOL0     C87527   6.727   6.430   0.787 -0.0040  0.3670  0.1835
  664MOL0     C87528   6.862   6.384   0.851 -0.0571  0.3274  0.9252
  664MOL0     C87529   6.904   6.481   0.961 -0.9895  0.9587  0.5472
  664MOL0     C87530   7.026   6.433   1.042 -0.7524 -0.6243 -0.2756
  664MOL0     C87531   7.146   6.416   0.955 -0.0390 -0.5879  0.6486
  664MOL0     C87532   7.278   6.407   1.021 -0.7861  0.3090  0.2673
  664MOL0     N87533   7.321   6.527   1.103  0.4790 -0.1012  0.2445
  664MOL0     C87534   7.287   6.553   1.230 -0.6120  0.2654 -1.0954
  664MOL0     C87535   7.377   6.649   1.279  0.2578 -0.5607  0.2016
  664MOL0     C87536   7.372   6.706   1.413  0.7344  0.0684 -0.4055
  664MOL0     C87537   7.497   6.649   1.487  0.0788  0.0095 -0.0377
  664MOL0     C87538   7.498   6.725   1.624  0.9889  0.7469  0.1816
  664MOL0     C87539   7.570   6.647   1.739 -0.0719 -1.1258  0.3868
  664MOL0     O87540   7.711   6.654   1.694  0.1785  0.1833  0.7633
  664MOL0     C87541   7.811   6.622   1.780 -0.8796  1.9523  0.5283
  664MOL0     C87542   7.806   6.531   1.895 -0.2339 -0.8118  0.3659
  664MOL0     C87543   7.905   6.524   1.992 -0.4427 -0.2123 -0.1745
  664MOL0     C87544   8.023   6.588   1.976 -0.8171 -1.3739  0.6817
  664MOL0     C87545   8.115   6.591   2.083  0.1542  0.1367 -0.7147
  664MOL0     O87546   8.065   6.574   2.213  0.1416  0.3549  0.1881
  664MOL0     C87547   8.158   6.579   2.311 -0.0902 -0.1419 -1.5845
  664MOL0     C87548   8.206   6.452   2.375  0.0151  0.6119  0.2354
  664MOL0     C87549   8.276   6.446   2.492  0.4125 -0.2404  0.7598
  664MOL0     C87550   8.321   6.576   2.540  0.4742 -1.0948  0.6059
  664MOL0     O87551   8.415   6.593   2.634 -0.1569 -0.1596  0.6539
  664MOL0     C87552   8.500   6.486   2.670  0.2800 -1.0214  0.7667
  664MOL0     C87553   8.593   6.542   2.773 -0.7235  0.0159  0.5453
  664MOL0     C87554   8.711   6.598   2.704  0.0444  1.1846 -0.2790
  664MOL0     C87555   8.800   6.672   2.801  0.1320 -0.0701  0.6023
  664MOL0     C87556   8.933   6.693   2.721 -0.6655  0.0281 -0.5565
  664MOL0     C87557   8.924   6.824   2.642  0.3108 -0.4072  0.5564
  664MOL0     C87558   9.050   6.856   2.562 -0.0318 -0.3666  0.1468
  664MOL0     C87559   9.036   6.962   2.449  1.0340  1.0397 -0.2075
  664MOL0    Cl87560   9.006   7.114   2.536  0.5690  0.3258  0.1857
  664MOL0     C87561   8.265   6.697   2.486  0.6381  0.4085  0.0916
  664MOL0     C87562   8.186   6.700   2.372  1.7247  0.3693 -0.0622
  664MOL0     O87563   8.232   6.609   2.051  0.4076 -0.6900 -0.1287
  664MOL0     C87564   8.042   6.663   1.858 -0.5758 -0.0648 -0.6852
  664MOL0     C87565   7.940   6.675   1.763  0.9537 -1.3313 -0.4784
  664MOL0     N87566   7.454   6.681   1.170  0.3177 -0.5070  1.0424
  664MOL0     N87567   7.427   6.604   1.070 -1.1648  0.1450  0.1886
  664MOL0     C87568   6.812   5.961   0.484 -0.8625 -1.1582 -0.5978
  664MOL0     C87569   6.866   5.849   0.429 -0.5046  0.3723  0.0355
  664MOL0     C87570   7.209   5.608   0.199 -0.5122 -1.1558 -0.3763
  664MOL0     C87571   7.161   5.481   0.248  0.3600 -0.8199 -0.2192
  664MOL0     C87572   7.229   5.367   0.208  1.1105 -0.5406 -0.3762
  664MOL0     C87573   7.323   5.366   0.101  0.2482 -0.0367 -0.0532
  664MOL0     O87574   7.358   5.243   0.078 -0.8942  0.4418 -0.0779
  664MOL0     C87575   7.442   5.221  -0.034  0.1884  0.1258  0.2488
  664MOL0     C87576   7.490   5.073  -0.034 -0.1199 -0.4379  0.1638
  664MOL0     C87577   7.603   5.019   0.057 -1.2653  0.1767 -0.6049
  664MOL0     C87578   7.697   5.124   0.120 -0.3705  0.2142 -0.4358
  664MOL0     C87579   7.773   5.197   0.016 -0.1830 -0.1844 -0.1898
  664MOL0     C87580   7.861   5.233  -0.052  0.2219  0.2347  0.0541
  664MOL0     C87581   7.359   5.488   0.050  0.2133 -1.0761  0.1762
  664MOL0     C87582   7.308   5.607   0.094 -0.3986 -0.2721 -0.1215
  664MOL0     H87583   7.198   5.971   0.436  0.2963  1.0003  3.0239
  664MOL0     H87584   7.064   6.182   0.492 -2.4423  1.1648 -0.5708
  664MOL0     H87585   6.721   6.149   0.736  0.2428  0.0414 -0.8090
  664MOL0     H87586   6.636   6.142   0.587  1.4454 -1.3690 -0.9213
  664MOL0     H87587   6.565   6.352   0.698  0.1953  3.4085  1.1403
  664MOL0     H87588   6.675   6.402   0.573  3.0291 -0.0535 -0.5757
  664MOL0     H87589   6.658   6.450   0.870  2.4934 -1.6274  2.9604
  664MOL0     H87590   6.756   6.529   0.752  0.6686  1.2189  2.8971
  664MOL0     H87591   6.848   6.287   0.900 -0.5558 -0.2350 -0.2839
  664MOL0     H87592   6.937   6.371   0.772 -0.0354 -0.8410  1.1154
  664MOL0     H87593   6.821   6.496   1.031 -1.2453 -0.6549  0.6287
  664MOL0     H87594   6.930   6.575   0.911  2.2577 -1.0918 -2.0606
  664MOL0     H87595   7.011   6.332   1.083  1.7978 -0.7734  0.4560
  664MOL0     H87596   7.045   6.513   1.113 -3.3049  0.1331 -0.3776
  664MOL0     H87597   7.131   6.323   0.900 -0.6355 -0.2973  0.3103
  664MOL0     H87598   7.146   6.499   0.883  1.5162 -0.8984  0.2580
  664MOL0     H87599   7.354   6.394   0.944 -1.6123  1.0744 -0.7012
  664MOL0     H87600   7.285   6.318   1.085 -1.4119  1.8888  2.6824
  664MOL0     H87601   7.211   6.510   1.294  1.3712 -1.1008  0.4258
  664MOL0     H87602   7.291   6.674   1.479  0.8567 -1.9086 -1.1410
  664MOL0     H87603   7.378   6.815   1.410 -3.3925  0.4487 -0.0495
  664MOL0     H87604   7.593   6.655   1.434 -0.0967 -1.9008 -0.6591
  664MOL0     H87605   7.471   6.543   1.498 -0.8933  0.1109 -1.1261
  664MOL0     H87606   7.542   6.825   1.615 -0.1334  1.5376  2.6856
  664MOL0     H87607   7.398   6.752   1.659 -0.1781 -0.4353 -2.0191
  664MOL0     H87608   7.529   6.547   1.759 -2.4393 -0.5367 -1.1181
  664MOL0     H87609   7.546   6.705   1.829 -0.5592 -0.2923 -0.2746
  664MOL0     H87610   7.710   6.479   1.903 -1.3115  1.0777  0.1713
  664MOL0     H87611   7.887   6.480   2.090 -0.3792 -0.6507 -0.3574
  664MOL0     H87612   8.167   6.359   2.334 -1.4259  1.2347  0.1196
  664MOL0     H87613   8.327   6.359   2.533  4.7738  1.6782  0.0060
  664MOL0     H87614   8.548   6.440   2.582  1.4777 -0.9174  1.3413
  664MOL0     H87615   8.449   6.400   2.715 -1.8320 -0.4396 -0.3878
  664MOL0     H87616   8.626   6.464   2.841 -1.3195  0.0748  0.9130
  664MOL0     H87617   8.535   6.626   2.813 -2.2587 -0.4592 -0.5817
  664MOL0     H87618   8.675   6.665   2.625 -4.4640  1.4739  1.7168
  664MOL0     H87619   8.759   6.507   2.668 -1.1123  0.3881  0.1531
  664MOL0     H87620   8.757   6.768   2.833  0.9891  0.7451 -0.5683
  664MOL0     H87621   8.818   6.599   2.879 -0.7227  0.3458  1.2016
  664MOL0     H87622   8.954   6.604   2.662  0.7558 -0.0129 -0.0149
  664MOL0     H87623   9.014   6.703   2.793 -2.3999 -0.0704  1.5297
  664MOL0     H87624   8.895   6.907   2.707 -3.1021 -0.2114 -0.9660
  664MOL0     H87625   8.855   6.812   2.557  0.3386  2.0255  0.1236
  664MOL0     H87626   9.125   6.896   2.632 -0.1386  0.7892 -0.3795
  664MOL0     H87627   9.085   6.760   2.524 -0.3631 -0.6900  0.6522
  664MOL0     H87628   8.945   6.933   2.395  1.8173  0.5084 -1.2950
  664MOL0     H87629   9.120   6.966   2.379 -0.3147 -1.1279 -2.1052
  664MOL0     H87630   8.295   6.794   2.525  1.4643  0.0543  0.3815
  664MOL0     H87631   8.142   6.789   2.327 -0.4755 -2.0905 -3.2415
  664MOL0     H87632   8.141   6.705   1.845 -0.2176  0.0119  1.7366
  664MOL0     H87633   7.965   6.736   1.677 -2.3120 -1.1905 -1.4677
  664MOL0     H87634   6.706   5.964   0.506 -0.2713  0.9313  2.5408
  664MOL0     H87635   6.797   5.766   0.416 -0.8940  0.6764  0.1542
  664MOL0     H87636   7.091   5.486   0.330 -0.3358  3.0084 -0.8200
  664MOL0     H87637   7.192   5.277   0.255 -1.8764  0.3825 -0.7164
  664MOL0     H87638   7.525   5.292  -0.041  1.8154 -1.3037  2.9074
  664MOL0     H87639   7.368   5.244  -0.111 -0.9273 -1.9697  0.6039
  664MOL0     H87640   7.407   5.003  -0.023  0.9857 -1.5736  1.6988
  664MOL0     H87641   7.516   5.056  -0.139  0.9522  5.3048 -0.8208
  664MOL0     H87642   7.658   4.956  -0.014 -3.8920 -0.3219 -2.3059
  664MOL0     H87643   7.572   4.960   0.143  2.7566  0.1855  1.0934
  664MOL0     H87644   7.635   5.191   0.181 -2.4386 -2.2389  0.3097
  664MOL0     H87645   7.772   5.080   0.187 -0.2035 -0.2907 -0.9486
  664MOL0     H87646   7.953   5.229  -0.107  0.9822  1.4202  1.1727
  664MOL0     H87647   7.427   5.487  -0.035 -2.7285 -0.8486 -2.3444
  664MOL0     H87648   7.350   5.697   0.051 -2.1222  0.6854  0.1156
  665MOL0     O87649   8.965   4.267   8.482 -0.6900 -0.2203  0.4858
  665MOL0     C87650   9.074   4.216   8.467  0.0888 -0.2025  0.8928
  665MOL0     O87651   9.086   4.083   8.430 -0.5513 -0.5749 -0.2814
  665MOL0     C87652   8.972   3.998   8.410 -0.9133 -0.3798  0.3540
  665MOL0     C87653   8.838   4.008   8.461 -0.8490  0.3198  0.7021
  665MOL0     C87654   8.753   3.911   8.426  0.7806  0.3411  0.1577
  665MOL0     C87655   8.782   3.802   8.343 -0.3779  0.4371 -0.8748
  665MOL0     O87656   8.676   3.714   8.315 -0.4511 -0.2106 -0.2379
  665MOL0     C87657   8.695   3.620   8.205  0.5464 -0.0791 -0.0798
  665MOL0     C87658   8.570   3.544   8.203  0.0471  0.2251  0.6477
  665MOL0     C87659   8.570   3.431   8.099  0.0981 -0.4789  0.4425
  665MOL0     C87660   8.424   3.395   8.060  0.1254 -0.3505 -0.8347
  665MOL0     C87661   8.405   3.301   7.945 -0.9778 -0.7420 -0.9588
  665MOL0     C87662   8.269   3.299   7.892 -0.1192 -0.7228  0.1730
  665MOL0     C87663   8.259   3.194   7.787 -0.3157 -0.7238 -0.2742
  665MOL0     C87664   8.104   3.187   7.747 -0.4534  1.0519 -0.7517
  665MOL0     N87665   8.063   3.103   7.638 -1.0061 -0.2364  0.1077
  665MOL0     C87666   7.968   3.013   7.635 -0.4396  0.8864  0.5263
  665MOL0     C87667   7.992   2.930   7.533  0.6124  0.0632  0.1991
  665MOL0     C87668   7.920   2.805   7.505  0.2095 -0.1047 -0.1700
  665MOL0     C87669   7.979   2.750   7.374  0.4565 -1.4005 -0.1520
  665MOL0     C87670   7.894   2.647   7.307  0.1998  0.2942  0.2693
  665MOL0     C87671   7.791   2.696   7.203  1.0878 -0.3665 -0.1225
  665MOL0     O87672   7.719   2.578   7.158  0.5369  0.0379 -0.0284
  665MOL0     C87673   7.654   2.579   7.037  0.3189  0.0621  0.9590
  665MOL0     C87674   7.575   2.690   7.003 -0.2855 -0.3049  0.3930
  665MOL0     C87675   7.506   2.714   6.883 -0.2571  0.7731  0.5729
  665MOL0     C87676   7.494   2.608   6.788 -0.1658 -0.2380 -0.6795
  665MOL0     C87677   7.429   2.621   6.660  1.5452 -0.2192  0.4823
  665MOL0     O87678   7.388   2.510   6.583 -0.1227  0.1197 -0.1523
  665MOL0     C87679   7.325   2.536   6.465 -0.4092 -0.0773 -0.8938
  665MOL0     C87680   7.398   2.528   6.343  1.4803  0.5200  0.2401
  665MOL0     C87681   7.324   2.527   6.221  0.5391 -0.0128  0.0980
  665MOL0     C87682   7.183   2.531   6.225 -0.3778  0.6521 -0.4171
  665MOL0     O87683   7.099   2.534   6.109  0.1509  0.0458 -0.5616
  665MOL0     C87684   7.138   2.465   5.988 -0.0209  0.1458 -0.6527
  665MOL0     C87685   7.013   2.453   5.902 -0.2948  0.2213 -0.3090
  665MOL0     C87686   7.032   2.485   5.754  0.6809  0.5697 -0.0238
  665MOL0     C87687   6.897   2.479   5.674  0.1613  1.4737  0.2742
  665MOL0     C87688   6.904   2.523   5.525  0.0631  0.6209  0.3630
  665MOL0     C87689   6.984   2.411   5.443 -0.3281 -0.3269 -0.0721
  665MOL0     C87690   6.985   2.451   5.292  0.9410 -0.1093 -1.1403
  665MOL0     C87691   7.036   2.335   5.207 -0.4285  0.4784 -0.0236
  665MOL0    Cl87692   7.023   2.372   5.028  0.4784  0.1179  0.5310
  665MOL0     C87693   7.122   2.527   6.353  0.4648 -0.4495 -0.4032
  665MOL0     C87694   7.191   2.526   6.473 -0.9756  0.2899  1.2918
  665MOL0     O87695   7.409   2.733   6.624 -0.1762 -0.5034 -0.5874
  665MOL0     C87696   7.572   2.489   6.823  0.4462 -1.0132 -0.2079
  665MOL0     C87697   7.648   2.481   6.941 -0.7190  0.5047 -0.1773
  665MOL0     N87698   8.098   2.986   7.465  0.4072 -0.3409  0.2358
  665MOL0     N87699   8.129   3.102   7.517 -0.7925 -0.8996  0.3535
  665MOL0     C87700   8.917   3.795   8.306  0.5262 -1.4645  0.7156
  665MOL0     C87701   9.009   3.894   8.334 -0.0997  0.1790  0.1837
  665MOL0     C87702   9.196   4.280   8.509  0.0379  0.6252 -0.3866
  665MOL0     C87703   9.305   4.215   8.549 -0.1623  0.6789  0.1178
  665MOL0     C87704   9.420   4.281   8.606  1.0400 -0.9383  0.4208
  665MOL0     C87705   9.420   4.411   8.629 -0.0254  0.4169 -0.1634
  665MOL0     O87706   9.517   4.476   8.700 -0.0676  0.6443 -0.3207
  665MOL0     C87707   9.519   4.456   8.844 -0.9460  0.4821  0.0261
  665MOL0     C87708   9.406   4.518   8.918 -1.0194 -0.5562 -0.5466
  665MOL0     C87709   9.431   4.670   8.965  1.0245  0.2667  0.2169
  665MOL0     C87710   9.316   4.770   8.923 -0.1295  0.4147  0.5002
  665MOL0     C87711   9.198   4.773   9.016  0.5401  0.7747  0.1810
  665MOL0     C87712   9.097   4.771   9.085 -0.1900 -0.3531  0.3873
  665MOL0     C87713   9.308   4.486   8.586  0.5469 -0.0429  0.8736
  665MOL0     C87714   9.202   4.419   8.523 -0.1097 -0.2536 -0.3447
  665MOL0     H87715   8.814   4.096   8.519  1.7335 -0.0914  2.5522
  665MOL0     H87716   8.649   3.918   8.457  0.5473 -0.8057 -0.3142
  665MOL0     H87717   8.772   3.543   8.221  1.3950  0.1435 -2.5756
  665MOL0     H87718   8.716   3.662   8.106 -0.0328 -1.1388 -0.6674
  665MOL0     H87719   8.498   3.619   8.169  1.3294  2.1397  1.9714
  665MOL0     H87720   8.551   3.518   8.308 -2.6341 -1.7379 -0.1882
  665MOL0     H87721   8.626   3.344   8.134  2.4677  0.0355 -1.7315
  665MOL0     H87722   8.607   3.467   8.003 -1.9101  0.6394  0.0368
  665MOL0     H87723   8.358   3.358   8.139 -0.6555  2.0908 -0.2390
  665MOL0     H87724   8.372   3.487   8.030 -2.2001 -1.4036 -0.2598
  665MOL0     H87725   8.428   3.209   8.000 -1.7053 -0.6362 -0.4603
  665MOL0     H87726   8.473   3.310   7.860  1.3322 -0.6853  0.8132
  665MOL0     H87727   8.227   3.395   7.860  2.2893  0.4030  0.1427
  665MOL0     H87728   8.214   3.255   7.975  1.5972 -3.7067 -0.0890
  665MOL0     H87729   8.327   3.206   7.703 -0.8259  1.5922 -0.4240
  665MOL0     H87730   8.288   3.099   7.834 -1.0164 -1.6461 -1.6480
  665MOL0     H87731   8.063   3.287   7.732 -0.6460  0.8320 -1.7264
  665MOL0     H87732   8.056   3.140   7.834 -0.2413 -0.2491 -1.3190
  665MOL0     H87733   7.892   2.985   7.708 -0.2908 -2.4436 -0.4205
  665MOL0     H87734   7.815   2.828   7.487  0.9095  0.8834 -3.8032
  665MOL0     H87735   7.921   2.747   7.598  0.0135 -0.3505 -0.3187
  665MOL0     H87736   8.076   2.707   7.401  1.9188  0.9828 -1.2424
  665MOL0     H87737   7.998   2.831   7.302  1.0819  1.4992  2.9927
  665MOL0     H87738   7.960   2.590   7.242 -2.1558  1.9189 -3.9482
  665MOL0     H87739   7.855   2.581   7.386  1.0637  0.4078  0.8048
  665MOL0     H87740   7.837   2.752   7.121 -2.9407  2.0516 -1.0069
  665MOL0     H87741   7.721   2.765   7.252  1.0737 -3.0594  4.2074
  665MOL0     H87742   7.571   2.775   7.070  2.6509  1.1541 -1.1006
  665MOL0     H87743   7.459   2.811   6.871 -2.3047 -0.2853 -0.4257
  665MOL0     H87744   7.505   2.515   6.356  0.8863 -1.0760  5.6789
  665MOL0     H87745   7.365   2.527   6.121 -1.3213 -1.5393 -0.7358
  665MOL0     H87746   7.203   2.378   6.003  2.6777  1.9514 -1.0602
  665MOL0     H87747   7.214   2.520   5.931 -0.2921 -0.4275 -1.5811
  665MOL0     H87748   6.946   2.523   5.954  0.0561  0.5489 -0.2994
  665MOL0     H87749   6.966   2.355   5.919 -0.8412  0.9609  3.1070
  665MOL0     H87750   7.111   2.426   5.706  0.2737  1.8876 -2.4719
  665MOL0     H87751   7.067   2.588   5.743  1.1379  0.2776 -1.6264
  665MOL0     H87752   6.864   2.375   5.675  3.3051  0.3452  0.5907
  665MOL0     H87753   6.825   2.534   5.735  0.3612  3.5284 -1.2334
  665MOL0     H87754   6.939   2.626   5.511 -0.1129  0.7851  1.0603
  665MOL0     H87755   6.797   2.512   5.508 -0.2151 -3.3256  3.3325
  665MOL0     H87756   6.947   2.310   5.464 -1.9102  0.4223  0.9581
  665MOL0     H87757   7.086   2.417   5.481  0.5206 -2.1317 -1.8821
  665MOL0     H87758   6.880   2.465   5.265  0.5671 -2.6016 -1.2603
  665MOL0     H87759   7.052   2.537   5.281  0.6473 -0.0835 -3.0984
  665MOL0     H87760   6.980   2.247   5.240  0.5357 -0.3113 -0.4369
  665MOL0     H87761   7.138   2.311   5.237  0.4183  3.5852 -0.1334
  665MOL0     H87762   7.014   2.536   6.346  0.5432 -0.9357 -4.7009
  665MOL0     H87763   7.151   2.518   6.574 -1.7207  0.6932  1.0373
  665MOL0     H87764   7.564   2.411   6.748  1.0414 -0.0453 -1.3204
  665MOL0     H87765   7.702   2.389   6.957 -2.6546 -1.0363 -1.8900
  665MOL0     H87766   8.958   3.728   8.231 -1.1277 -0.7519 -0.9115
  665MOL0     H87767   9.114   3.895   8.304  0.1000  0.8345  0.8984
  665MOL0     H87768   9.314   4.107   8.557 -0.8393  0.5492 -0.7611
  665MOL0     H87769   9.509   4.232   8.647  1.0657 -0.1644  1.3405
  665MOL0     H87770   9.614   4.490   8.884  1.0720 -3.4645 -0.8630
  665MOL0     H87771   9.535   4.348   8.855 -0.1536  0.4267 -1.3802
  665MOL0     H87772   9.320   4.517   8.851 -0.7290  4.9499 -1.4109
  665MOL0     H87773   9.395   4.452   9.005  1.9887  0.0447  0.4182
  665MOL0     H87774   9.530   4.706   8.936  1.0862 -1.5713 -2.1454
  665MOL0     H87775   9.428   4.674   9.075 -1.8360  1.8476  0.1820
  665MOL0     H87776   9.370   4.866   8.927  1.0875 -0.2889  1.7405
  665MOL0     H87777   9.284   4.740   8.823  2.8870 -1.6908  0.0139
  665MOL0     H87778   9.011   4.754   9.147 -1.8477 -2.6794 -2.2928
  665MOL0     H87779   9.313   4.593   8.600  0.1592  0.3858 -1.8004
  665MOL0     H87780   9.117   4.472   8.482 -1.8052  1.0712  4.2583
  666MOL0     O87781   7.310   7.807   9.981 -0.3604  0.2811 -0.0997
  666MOL0     C87782   7.417   7.855  10.017  0.1520 -0.7266 -0.5556
  666MOL0     O87783   7.484   7.825  10.127 -0.1277 -0.6174 -0.4831
  666MOL0     C87784   7.420   7.747  10.216  0.6064 -0.0605  0.4207
  666MOL0     C87785   7.471   7.615  10.246  0.1814  0.1092 -0.1156
  666MOL0     C87786   7.408   7.527  10.330  0.9208 -0.3064 -0.2257
  666MOL0     C87787   7.294   7.568  10.399 -0.0368 -0.0336 -0.0015
  666MOL0     O87788   7.230   7.482  10.482 -0.2563 -0.2961  0.3587
  666MOL0     C87789   7.297   7.371  10.546 -0.5814 -0.5932 -0.0915
  666MOL0     C87790   7.417   7.403  10.623  0.7353 -0.5340  0.1003
  666MOL0     C87791   7.453   7.275  10.698 -0.4178 -0.0007 -0.3376
  666MOL0     C87792   7.586   7.296  10.782 -0.1744 -0.6733 -0.5694
  666MOL0     C87793   7.653   7.166  10.824 -0.1954 -0.0373 -0.2613
  666MOL0     C87794   7.577   7.077  10.926 -0.2301 -0.1486 -0.0454
  666MOL0     C87795   7.498   7.155  11.036  0.6318 -0.0294  0.6516
  666MOL0     C87796   7.431   7.076  11.139 -0.3951 -0.1143 -0.5789
  666MOL0     N87797   7.537   7.012  11.228  0.2012  0.7404  1.4237
  666MOL0     C87798   7.623   7.095  11.308  0.3542  0.6266  0.5553
  666MOL0     C87799   7.715   7.003  11.356  0.4156  0.1910 -0.5722
  666MOL0     C87800   7.834   7.046  11.440 -0.4793 -0.9530  0.2277
  666MOL0     C87801   7.904   7.177  11.403 -0.6258  0.2275 -0.4681
  666MOL0     C87802   8.000   7.156  11.292  0.1883 -0.2083 -0.1701
  666MOL0     C87803   8.029   7.280  11.205  0.1042  0.4683  0.1996
  666MOL0     O87804   7.930   7.291  11.116  0.8121 -0.5371 -0.3698
  666MOL0     C87805   7.914   7.410  11.045 -1.0560  0.8605 -0.3292
  666MOL0     C87806   7.792   7.449  11.005 -0.4475  0.9633 -0.1180
  666MOL0     C87807   7.784   7.558  10.922 -0.3193 -0.3161  0.7299
  666MOL0     C87808   7.895   7.648  10.897  0.6381 -0.4580 -0.2685
  666MOL0     C87809   7.883   7.758  10.813 -0.8151 -0.4407 -0.5581
  666MOL0     O87810   7.780   7.760  10.733  0.1754  0.0913  0.5527
  666MOL0     C87811   7.763   7.861  10.640 -0.3699  0.0170  1.0585
  666MOL0     C87812   7.780   8.000  10.676 -0.6468 -0.1472 -0.1038
  666MOL0     C87813   7.748   8.095  10.584  0.8700 -0.1059 -0.8364
  666MOL0     C87814   7.694   8.068  10.462  0.5491  0.8130 -0.1835
  666MOL0     O87815   7.656   8.171  10.382  0.7412 -0.2808  0.8951
  666MOL0     C87816   7.544   8.168  10.293 -0.6226  0.1041  0.0290
  666MOL0     C87817   7.536   8.306  10.223 -0.4476 -0.1691 -0.3143
  666MOL0     C87818   7.420   8.297  10.123 -0.5917 -0.3573 -0.6828
  666MOL0     C87819   7.373   8.436  10.054  0.1247 -0.4396  0.1651
  666MOL0     C87820   7.234   8.435  10.002 -0.4325  1.0081 -0.1174
  666MOL0     C87821   7.205   8.313   9.905  0.4325 -0.5379 -0.5367
  666MOL0     C87822   7.062   8.339   9.848  0.1855  0.3324  0.3496
  666MOL0     C87823   7.008   8.235   9.753  0.8545 -0.3842  0.3464
  666MOL0    Cl87824   7.118   8.230   9.607  0.1050 -0.0506  0.1325
  666MOL0     C87825   7.662   7.929  10.434  0.5406 -0.3498  0.7347
  666MOL0     C87826   7.697   7.831  10.523  0.2380  0.6322 -0.7417
  666MOL0     O87827   7.988   7.829  10.811 -0.2796 -0.0722 -0.4465
  666MOL0     C87828   8.016   7.616  10.958 -0.1642 -0.5259  0.9298
  666MOL0     C87829   8.025   7.501  11.030 -0.1011  0.8141 -0.0593
  666MOL0     N87830   7.676   6.876  11.323  0.5966 -0.1121  0.3504
  666MOL0     N87831   7.574   6.871  11.236 -0.1418 -0.9665  1.2647
  666MOL0     C87832   7.249   7.697  10.369  0.7934  0.3846  0.2845
  666MOL0     C87833   7.304   7.790  10.283 -0.1518  0.0321 -0.0543
  666MOL0     C87834   7.485   7.963   9.936  1.3131  0.5263  0.3130
  666MOL0     C87835   7.602   8.026   9.982  0.4216  0.1698 -0.0563
  666MOL0     C87836   7.651   8.131   9.914 -0.2559 -0.5215  1.0120
  666MOL0     C87837   7.601   8.179   9.795  0.0984  0.6609 -0.9664
  666MOL0     O87838   7.660   8.283   9.736  0.2152  0.5049  0.1608
  666MOL0     C87839   7.579   8.388   9.673 -0.3024 -0.3762  0.3370
  666MOL0     C87840   7.658   8.513   9.645 -0.0585 -0.6741 -0.1330
  666MOL0     C87841   7.736   8.561   9.768  0.5766 -0.1299 -1.1069
  666MOL0     C87842   7.828   8.671   9.736  0.2154  0.5568 -1.2957
  666MOL0     C87843   7.925   8.694   9.843 -0.4249 -0.7402 -0.5332
  666MOL0     C87844   7.997   8.720   9.939 -0.2052  0.8144 -0.6782
  666MOL0     C87845   7.493   8.116   9.734  1.5831  0.8858 -0.2037
  666MOL0     C87846   7.437   8.003   9.800 -0.8414  0.1805  0.6787
  666MOL0     H87847   7.562   7.581  10.197  0.3515 -0.1554  0.3747
  666MOL0     H87848   7.454   7.429  10.327  2.0541  0.2036  0.1111
  666MOL0     H87849   7.310   7.300  10.463  0.9663 -0.3297 -0.1187
  666MOL0     H87850   7.240   7.310  10.616  2.0905 -3.4701 -0.1736
  666MOL0     H87851   7.399   7.485  10.693  0.4455 -0.7498  0.2779
  666MOL0     H87852   7.497   7.448  10.563  0.2627 -0.5576 -0.5665
  666MOL0     H87853   7.474   7.187  10.636 -0.2894  0.3278 -0.7611
  666MOL0     H87854   7.376   7.258  10.774 -0.8182  1.8414 -0.2809
  666MOL0     H87855   7.647   7.360  10.717 -2.3695  2.2257  0.0024
  666MOL0     H87856   7.564   7.360  10.868  3.8779  1.2011 -0.6709
  666MOL0     H87857   7.753   7.185  10.865 -2.1384  0.8466  4.7688
  666MOL0     H87858   7.680   7.104  10.737 -3.0203 -0.3569 -1.0061
  666MOL0     H87859   7.655   7.014  10.969  0.3682 -0.1346 -1.0618
  666MOL0     H87860   7.511   7.023  10.857  0.0100 -1.2170  0.5441
  666MOL0     H87861   7.553   7.241  11.073 -0.0778  0.6274  0.2102
  666MOL0     H87862   7.410   7.200  10.990  1.8416  0.0017 -1.7876
  666MOL0     H87863   7.358   7.008  11.095 -3.5763  1.4405  1.9109
  666MOL0     H87864   7.374   7.146  11.200  0.6468 -1.0045  1.5099
  666MOL0     H87865   7.613   7.200  11.332 -1.8405  0.7552 -0.6210
  666MOL0     H87866   7.907   6.966  11.452  0.5531 -0.1222 -0.3680
  666MOL0     H87867   7.779   7.049  11.535 -1.4682 -0.3795 -0.3422
  666MOL0     H87868   7.961   7.221  11.486  0.0143  2.9550 -2.2281
  666MOL0     H87869   7.839   7.259  11.369 -0.1206  0.7749 -0.1349
  666MOL0     H87870   8.100   7.122  11.318  1.1513  1.8892 -0.8737
  666MOL0     H87871   7.961   7.085  11.220  0.6309 -1.4366  0.7656
  666MOL0     H87872   8.120   7.256  11.148 -0.6838 -1.8279 -0.1899
  666MOL0     H87873   8.053   7.370  11.263  0.7296  0.6602 -0.3423
  666MOL0     H87874   7.711   7.381  11.030  0.4030  0.1649  0.5263
  666MOL0     H87875   7.691   7.582  10.872  0.3959 -1.1189 -1.0760
  666MOL0     H87876   7.813   8.035  10.774 -0.8195  0.8327 -0.3830
  666MOL0     H87877   7.759   8.197  10.622 -1.2856 -0.9580  2.4716
  666MOL0     H87878   7.454   8.169  10.355 -1.8202  3.4708 -1.4836
  666MOL0     H87879   7.554   8.084  10.223  3.1681 -0.9196  1.5241
  666MOL0     H87880   7.626   8.333  10.168 -0.9309 -2.6929 -2.5474
  666MOL0     H87881   7.523   8.376  10.307  2.9971 -0.2388  0.4288
  666MOL0     H87882   7.330   8.246  10.160 -1.0449 -0.1771 -1.5130
  666MOL0     H87883   7.458   8.239  10.040  0.6968  1.5952 -1.5350
  666MOL0     H87884   7.376   8.517  10.128 -3.1247  1.0473 -1.1609
  666MOL0     H87885   7.430   8.463   9.964 -2.9698 -0.2269 -1.8816
  666MOL0     H87886   7.225   8.523   9.938 -0.4056 -0.5154 -2.3474
  666MOL0     H87887   7.162   8.428  10.083  0.4179 -0.8535  0.5473
  666MOL0     H87888   7.208   8.225   9.970 -0.9530  1.0765  1.8625
  666MOL0     H87889   7.286   8.300   9.832  0.4081 -1.3153 -0.4366
  666MOL0     H87890   6.989   8.328   9.929  0.7182 -0.9640  0.6819
  666MOL0     H87891   7.056   8.435   9.795 -0.6739 -0.3983 -0.9413
  666MOL0     H87892   6.902   8.247   9.729  1.0076  1.1260  0.2936
  666MOL0     H87893   7.020   8.143   9.810 -0.5199 -1.3631 -0.8625
  666MOL0     H87894   7.621   7.906  10.337  0.7014  2.9645 -0.2221
  666MOL0     H87895   7.670   7.727  10.507  1.8409 -0.6383  3.4321
  666MOL0     H87896   8.112   7.662  10.939 -0.4529 -0.4340 -0.4619
  666MOL0     H87897   8.119   7.470  11.075 -1.0987 -3.6477 -0.5170
  666MOL0     H87898   7.164   7.722  10.433  0.6399  0.4357  0.0605
  666MOL0     H87899   7.257   7.885  10.259 -1.4582 -0.2357  1.2614
  666MOL0     H87900   7.658   7.990  10.067 -4.1973 -4.5922  1.5163
  666MOL0     H87901   7.746   8.178   9.935 -0.3708  0.6796 -0.9536
  666MOL0     H87902   7.492   8.406   9.737 -1.6972 -1.3235 -1.2344
  666MOL0     H87903   7.531   8.347   9.584  2.3331 -0.8845 -0.9398
  666MOL0     H87904   7.725   8.471   9.569 -1.1259 -2.5835 -0.0557
  666MOL0     H87905   7.600   8.595   9.603 -0.0999 -0.5422  0.1756
  666MOL0     H87906   7.794   8.485   9.822  0.2387  0.7546  0.5442
  666MOL0     H87907   7.661   8.598   9.837 -0.1725 -3.8521  0.3408
  666MOL0     H87908   7.889   8.649   9.647  1.8563  1.0727 -0.3576
  666MOL0     H87909   7.766   8.753   9.699 -1.6182 -1.6772 -3.5606
  666MOL0     H87910   8.071   8.762  10.004  2.5502 -3.0695 -0.9608
  666MOL0     H87911   7.447   8.140   9.639 -2.2019  0.6672  1.4124
  666MOL0     H87912   7.368   7.942   9.743  0.0661  1.3764 -1.8456
  667MOL0     O87913   3.591   1.145   9.311  0.3550 -0.0826  0.3589
  667MOL0     C87914   3.673   1.220   9.355  0.1128 -0.1888 -0.2509
  667MOL0     O87915   3.795   1.251   9.292 -0.1581  0.2483 -0.2520
  667MOL0     C87916   3.840   1.165   9.200  0.7105  0.2278  0.4264
  667MOL0     C87917   3.906   1.047   9.234  0.6395  0.6261  0.0139
  667MOL0     C87918   3.983   0.977   9.133 -0.3598 -1.0063  0.2128
  667MOL0     C87919   3.994   1.028   9.010 -0.0575 -0.2324  0.1435
  667MOL0     O87920   4.064   0.953   8.918 -0.3755 -0.8405 -0.0707
  667MOL0     C87921   4.116   1.022   8.796 -1.1373  0.4194 -0.9580
  667MOL0     C87922   4.256   1.094   8.819 -0.0694  0.6397  0.0538
  667MOL0     C87923   4.352   1.024   8.919  0.1854  0.8617 -0.4086
  667MOL0     C87924   4.474   1.124   8.937  0.0958  0.3814  0.4414
  667MOL0     C87925   4.601   1.052   8.995  0.1330  0.3306 -0.0227
  667MOL0     C87926   4.728   1.141   8.986  0.3682  0.1698 -0.0807
  667MOL0     C87927   4.854   1.063   8.970  0.6822  0.1612 -0.8545
  667MOL0     C87928   4.962   1.171   8.931 -0.2632 -0.0999 -0.3710
  667MOL0     N87929   5.092   1.110   8.899 -0.4862 -0.1539  0.4890
  667MOL0     C87930   5.192   1.069   8.986 -0.4072  0.3897  0.0762
  667MOL0     C87931   5.274   0.985   8.913 -0.2082  0.0783 -0.2943
  667MOL0     C87932   5.402   0.918   8.952 -0.4076  0.7062  0.7783
  667MOL0     C87933   5.368   0.833   9.074  0.2038 -0.0932 -0.4015
  667MOL0     C87934   5.456   0.707   9.071  0.3311  0.2118  0.1173
  667MOL0     C87935   5.443   0.600   8.952  0.0721  0.0711 -1.3430
  667MOL0     O87936   5.344   0.498   8.989 -0.3385  0.0239 -0.2987
  667MOL0     C87937   5.210   0.529   8.998 -0.0190 -0.3743  0.6753
  667MOL0     C87938   5.151   0.620   8.908 -0.0699 -0.0366 -0.2205
  667MOL0     C87939   5.022   0.667   8.935 -0.3507  0.2610  0.1572
  667MOL0     C87940   4.955   0.629   9.050  0.1572  0.7249 -0.0361
  667MOL0     C87941   4.820   0.673   9.080  0.6678 -0.9741  1.1553
  667MOL0     O87942   4.773   0.621   9.191 -0.8218  0.0375  0.1775
  667MOL0     C87943   4.648   0.640   9.247  0.4393  0.3778  0.3566
  667MOL0     C87944   4.624   0.572   9.361 -0.1906  0.5323  0.0068
  667MOL0     C87945   4.497   0.554   9.406 -0.1272 -0.3652 -0.8618
  667MOL0     C87946   4.387   0.631   9.354 -0.4533  0.9350  0.1705
  667MOL0     O87947   4.269   0.614   9.415 -0.4343  0.5156  0.4063
  667MOL0     C87948   4.204   0.484   9.430 -1.1566  1.0841 -0.4271
  667MOL0     C87949   4.056   0.496   9.460 -0.5914 -1.3321 -0.3445
  667MOL0     C87950   4.009   0.626   9.527 -0.1325  0.8394  0.4063
  667MOL0     C87951   3.860   0.622   9.539  0.5159 -0.0084 -0.4892
  667MOL0     C87952   3.803   0.742   9.615 -0.1993  1.0018  0.9909
  667MOL0     C87953   3.672   0.736   9.673 -0.0597 -1.2358 -0.7880
  667MOL0     C87954   3.653   0.865   9.763 -0.4799  0.4597 -0.3194
  667MOL0     C87955   3.531   0.837   9.841 -0.7351  0.0396 -1.0225
  667MOL0    Cl87956   3.510   0.966   9.964  0.1769  0.1778  0.3108
  667MOL0     C87957   4.412   0.716   9.249 -0.3378  0.1160 -0.1038
  667MOL0     C87958   4.538   0.711   9.193  0.2544 -0.1070 -0.4783
  667MOL0     O87959   4.756   0.751   9.000  0.8040 -0.1415 -0.4596
  667MOL0     C87960   5.014   0.526   9.131 -0.6364 -0.8546 -0.0475
  667MOL0     C87961   5.145   0.481   9.108  0.6671  0.1743 -0.4790
  667MOL0     N87962   5.242   1.004   8.790  0.9647  0.7175  0.1340
  667MOL0     N87963   5.139   1.084   8.773 -0.5921  0.4496  0.4552
  667MOL0     C87964   3.924   1.144   8.972 -0.4863  0.2435 -0.5937
  667MOL0     C87965   3.860   1.216   9.072  0.1993  1.5060  0.1821
  667MOL0     C87966   3.636   1.285   9.479  0.1485 -0.4729  0.1193
  667MOL0     C87967   3.717   1.386   9.530  1.1093  0.3834  1.2134
  667MOL0     C87968   3.682   1.472   9.632  0.1086  0.5018 -0.8391
  667MOL0     C87969   3.558   1.453   9.698 -0.1340  1.0670  0.3868
  667MOL0     O87970   3.490   1.526   9.784  0.1464 -0.7725  0.2768
  667MOL0     C87971   3.483   1.664   9.754  0.1525  0.0746  0.3648
  667MOL0     C87972   3.604   1.744   9.813  0.6343  0.1472 -1.2734
  667MOL0     C87973   3.593   1.769   9.962 -0.7859 -0.7834 -1.7311
  667MOL0     C87974   3.718   1.839  10.030  1.3929 -0.2480 -0.0636
  667MOL0     C87975   3.849   1.780  10.015  0.5548  1.0598  0.2228
  667MOL0     C87976   3.950   1.729   9.974  0.7499  0.3971 -0.0016
  667MOL0     C87977   3.480   1.339   9.664  0.1822 -0.8002  0.5485
  667MOL0     C87978   3.508   1.259   9.551 -0.0479  0.4922 -0.2663
  667MOL0     H87979   3.885   1.004   9.332  1.0917 -0.0872 -0.1937
  667MOL0     H87980   4.016   0.874   9.147 -0.2851 -0.6167  3.5126
  667MOL0     H87981   4.033   1.075   8.749  0.1456  2.4650 -1.0398
  667MOL0     H87982   4.148   0.950   8.719 -0.2441 -0.0985 -0.1301
  667MOL0     H87983   4.232   1.196   8.852 -3.5019  0.4134 -1.2909
  667MOL0     H87984   4.300   1.085   8.719 -0.3946 -0.5070  0.0023
  667MOL0     H87985   4.391   0.929   8.882  5.9798  2.6294  0.2554
  667MOL0     H87986   4.291   1.004   9.007 -0.7136 -0.7429 -1.3461
  667MOL0     H87987   4.507   1.153   8.836  1.0212 -1.9570 -0.0141
  667MOL0     H87988   4.446   1.205   9.003 -1.5844 -1.1809  1.7325
  667MOL0     H87989   4.631   0.964   8.938 -0.4263  0.7296 -0.9525
  667MOL0     H87990   4.576   1.020   9.097 -1.6423 -4.0361 -1.6084
  667MOL0     H87991   4.738   1.204   9.074  0.4784  2.2089 -1.4847
  667MOL0     H87992   4.725   1.221   8.912  0.1870 -1.0106 -1.3949
  667MOL0     H87993   4.877   1.034   9.073  1.5494  2.5074 -0.3321
  667MOL0     H87994   4.851   0.976   8.904  3.0617  0.7586 -1.8769
  667MOL0     H87995   4.977   1.239   9.015 -1.0374  0.6083 -0.7927
  667MOL0     H87996   4.923   1.240   8.856 -0.7439  1.6180  1.3559
  667MOL0     H87997   5.202   1.083   9.093  0.6344  3.8730 -0.3492
  667MOL0     H87998   5.474   0.998   8.966  0.8388 -0.6340  2.3556
  667MOL0     H87999   5.449   0.868   8.867  2.1801  0.7085  2.1239
  667MOL0     H88000   5.263   0.806   9.082 -0.4622  2.3474  0.0446
  667MOL0     H88001   5.382   0.898   9.161  0.2455 -0.7991  0.1275
  667MOL0     H88002   5.559   0.742   9.063  0.3417  0.8008  2.2477
  667MOL0     H88003   5.456   0.661   9.171  5.9661 -1.3654 -0.2432
  667MOL0     H88004   5.535   0.540   8.949 -0.7776 -1.7265  2.4508
  667MOL0     H88005   5.425   0.648   8.856  1.5966  0.3736 -1.5069
  667MOL0     H88006   5.209   0.661   8.826  1.9701 -0.6944  0.8368
  667MOL0     H88007   4.971   0.741   8.874 -0.4775  0.3320  0.3479
  667MOL0     H88008   4.699   0.517   9.416 -0.5711 -0.0989 -0.0910
  667MOL0     H88009   4.475   0.489   9.490  2.3020  3.0418  2.7303
  667MOL0     H88010   4.247   0.429   9.514  1.1974 -0.3240 -2.4057
  667MOL0     H88011   4.206   0.421   9.341 -2.1314  3.0429 -1.9235
  667MOL0     H88012   4.030   0.416   9.529  0.6694 -2.4738 -1.1536
  667MOL0     H88013   4.005   0.476   9.366 -1.2656  1.4573 -0.6634
  667MOL0     H88014   4.046   0.712   9.470 -1.9398 -0.3155 -2.7232
  667MOL0     H88015   4.057   0.642   9.624 -0.7858  0.5724  0.7856
  667MOL0     H88016   3.808   0.611   9.444 -3.2999 -0.4685  1.4415
  667MOL0     H88017   3.838   0.534   9.601  1.0737  0.8116  0.9330
  667MOL0     H88018   3.817   0.833   9.555  0.2985  2.9776  3.8672
  667MOL0     H88019   3.869   0.751   9.702  2.0480 -0.0706 -0.5225
  667MOL0     H88020   3.668   0.643   9.730 -1.5333 -0.4392  0.4834
  667MOL0     H88021   3.589   0.743   9.601 -0.9406  0.3265  0.3325
  667MOL0     H88022   3.736   0.865   9.835 -1.1184 -2.5894  0.5422
  667MOL0     H88023   3.649   0.959   9.707 -3.0630  0.4635 -0.2466
  667MOL0     H88024   3.531   0.739   9.891 -2.8567  1.2745  1.7307
  667MOL0     H88025   3.447   0.834   9.770 -0.1065  3.2136 -2.0414
  667MOL0     H88026   4.330   0.763   9.195 -1.5313 -3.3208 -1.5849
  667MOL0     H88027   4.557   0.783   9.114  2.7676 -1.9980 -1.7378
  667MOL0     H88028   4.956   0.481   9.210 -0.6426  3.0761  2.4875
  667MOL0     H88029   5.199   0.410   9.170 -3.8109 -0.7333  2.9690
  667MOL0     H88030   3.934   1.192   8.875  2.9048  0.0238 -0.4715
  667MOL0     H88031   3.817   1.308   9.032 -0.1932  0.0589 -3.0402
  667MOL0     H88032   3.804   1.399   9.466 -0.6971 -3.7049 -2.5925
  667MOL0     H88033   3.763   1.537   9.663 -0.8191  0.4049  2.1048
  667MOL0     H88034   3.389   1.694   9.801 -1.3043 -0.3681 -2.1222
  667MOL0     H88035   3.471   1.684   9.647 -0.7705 -1.8170  0.0729
  667MOL0     H88036   3.699   1.696   9.786  0.8851 -1.9476  2.6385
  667MOL0     H88037   3.603   1.838   9.758  0.9039 -0.9121 -3.1653
  667MOL0     H88038   3.574   1.674  10.013  1.4466  0.2467  1.3191
  667MOL0     H88039   3.506   1.830   9.986  0.1959 -0.0755  0.2419
  667MOL0     H88040   3.709   1.940   9.989 -2.8589  1.0571  3.2741
  667MOL0     H88041   3.689   1.834  10.136 -0.9380 -1.0494 -0.6703
  667MOL0     H88042   4.044   1.692   9.937  1.1446  0.9647  0.4165
  667MOL0     H88043   3.383   1.317   9.706 -1.5424  2.4483 -1.3519
  667MOL0     H88044   3.436   1.181   9.530 -1.0206  0.6754  2.0733
  668MOL0     O88045   0.601  10.097   6.165 -0.5798  0.1866 -0.0063
  668MOL0     C88046   0.512  10.051   6.236 -0.7589 -0.5261 -0.1697
  668MOL0     O88047   0.503  10.096   6.366  0.5287  0.0979 -0.1751
  668MOL0     C88048   0.598  10.175   6.422  0.0713 -0.4669 -0.3728
  668MOL0     C88049   0.569  10.285   6.505 -0.0106  0.0244 -0.2598
  668MOL0     C88050   0.671  10.351   6.581 -0.0332  0.1487  0.0604
  668MOL0     C88051   0.808  10.298   6.577  0.1362 -0.4896  0.7881
  668MOL0     O88052   0.907  10.343   6.659  0.2549  0.2232 -0.1494
  668MOL0     C88053   0.889  10.452   6.758  0.8193  0.8433  0.1213
  668MOL0     C88054   0.915  10.595   6.702  0.1089 -0.5143  0.2953
  668MOL0     C88055   0.802  10.659   6.625  0.5868 -0.3474 -0.3063
  668MOL0     C88056   0.826  10.807   6.587 -0.0062 -0.4328 -1.3498
  668MOL0     C88057   0.958  10.825   6.525 -0.7031 -0.2968  0.1409
  668MOL0     C88058   0.943  10.966   6.472  0.4652 -0.0670 -0.6781
  668MOL0     C88059   1.078  11.032   6.448  0.3848  0.0521 -0.4378
  668MOL0     C88060   1.080  11.134   6.329  0.8346  1.3345  0.1393
  668MOL0     N88061   1.197  11.217   6.329  0.7197 -1.1196  0.1003
  668MOL0     C88062   1.307  11.206   6.238  0.3751 -1.0246  0.1244
  668MOL0     C88063   1.369  11.323   6.242 -0.8191  0.4850  0.2421
  668MOL0     C88064   1.504  11.353   6.179 -1.3680  0.1400 -0.5908
  668MOL0     C88065   1.609  11.251   6.144 -0.2252  0.4327  0.7147
  668MOL0     C88066   1.749  11.315   6.115  0.2937  0.8261 -0.3269
  668MOL0     C88067   1.848  11.211   6.052 -0.2117 -0.5490 -0.6754
  668MOL0     O88068   1.970  11.286   6.023  0.4145  0.3745  0.5255
  668MOL0     C88069   2.085  11.218   5.994  0.0803 -0.3784  0.0871
  668MOL0     C88070   2.104  11.169   5.867  0.4642 -1.0142  0.8119
  668MOL0     C88071   2.225  11.127   5.821 -0.7909 -0.5775 -0.2017
  668MOL0     C88072   2.331  11.102   5.906  0.5617 -0.0177  0.6652
  668MOL0     C88073   2.475  11.057   5.879  0.2664 -0.7969 -0.3349
  668MOL0     O88074   2.530  11.100   5.759 -0.2412 -0.5744 -0.1853
  668MOL0     C88075   2.665  11.063   5.741 -0.2363  0.6162 -0.2302
  668MOL0     C88076   2.706  11.003   5.616  0.0426 -0.4188 -0.4495
  668MOL0     C88077   2.839  10.962   5.597  0.1959  0.2925  0.3756
  668MOL0     C88078   2.934  11.002   5.688 -0.6452  0.2104  0.7377
  668MOL0     O88079   3.067  10.967   5.672  1.1194 -0.1791  1.0986
  668MOL0     C88080   3.096  10.850   5.594 -0.3225  0.0565 -1.2304
  668MOL0     C88081   3.242  10.822   5.636  0.0324 -0.5073 -0.3797
  668MOL0     C88082   3.282  10.730   5.754  0.9923 -0.4919 -0.0336
  668MOL0     C88083   3.224  10.776   5.887 -0.8502 -0.6608 -0.6555
  668MOL0     C88084   3.278  10.695   6.005 -0.3593  0.2121  0.5470
  668MOL0     C88085   3.165  10.657   6.097 -0.8876 -0.1910  0.6851
  668MOL0     C88086   3.215  10.546   6.189 -0.0970  0.6075 -0.1440
  668MOL0     C88087   3.111  10.517   6.297 -0.9205  0.2072  0.5918
  668MOL0    Cl88088   3.179  10.385   6.400  0.1092 -0.2361  0.3049
  668MOL0     C88089   2.900  11.065   5.803  0.9660  0.0932  0.5872
  668MOL0     C88090   2.766  11.091   5.837  0.3175 -0.4788 -0.1442
  668MOL0     O88091   2.529  10.976   5.951 -0.3286 -0.0858 -0.5274
  668MOL0     C88092   2.303  11.138   6.035 -0.4250  0.3221 -1.0119
  668MOL0     C88093   2.192  11.203   6.083  0.2599  0.3168 -0.2802
  668MOL0     N88094   1.311  11.404   6.338 -0.4431 -0.5699 -0.2217
  668MOL0     N88095   1.199  11.349   6.381 -0.4493 -0.3470  0.3951
  668MOL0     C88096   0.839  10.199   6.482  0.6934  0.5076 -0.0713
  668MOL0     C88097   0.730  10.133   6.415 -1.0927 -0.3193 -0.6800
  668MOL0     C88098   0.420   9.951   6.194 -0.1410 -1.0396 -0.1325
  668MOL0     C88099   0.291   9.944   6.242 -1.1310 -0.7020  0.4292
  668MOL0     C88100   0.207   9.840   6.209  0.5396  0.0769 -0.0238
  668MOL0     C88101   0.242   9.747   6.120 -0.9293  0.4614  0.3997
  668MOL0     O88102   0.153   9.660   6.057 -0.9037  0.1500 -0.2215
  668MOL0     C88103   0.060   9.595   6.142  0.0118 -0.1672  0.1694
  668MOL0     C88104  -0.012   9.502   6.050 -0.5418 -0.2129  0.4635
  668MOL0     C88105  -0.125   9.415   6.099  0.0171  0.0561  0.1964
  668MOL0     C88106  -0.251   9.498   6.113 -0.2476  0.1229  0.1076
  668MOL0     C88107  -0.290   9.568   5.995  0.6835 -0.2653 -0.0586
  668MOL0     C88108  -0.329   9.621   5.895  0.2224 -0.2122 -0.1264
  668MOL0     C88109   0.369   9.757   6.057 -0.2291  0.3016 -0.3437
  668MOL0     C88110   0.461   9.859   6.096  0.1869  0.0753  0.0326
  668MOL0     H88111   0.468  10.317   6.529  0.5980  0.2063  2.4028
  668MOL0     H88112   0.644  10.428   6.653 -1.5914 -2.1753  2.1137
  668MOL0     H88113   0.954  10.435   6.845  1.9642  1.5853 -0.5626
  668MOL0     H88114   0.789  10.438   6.799  1.7647 -0.7183  2.0591
  668MOL0     H88115   1.012  10.598   6.652  0.1297  1.8646  0.3379
  668MOL0     H88116   0.919  10.653   6.796 -2.5218  0.7128 -0.2487
  668MOL0     H88117   0.720  10.663   6.697  0.0344 -1.7271 -0.8340
  668MOL0     H88118   0.768  10.600   6.539  1.1908  1.9756 -2.2737
  668MOL0     H88119   0.746  10.837   6.520  0.5535 -0.6607 -2.1324
  668MOL0     H88120   0.808  10.875   6.671  1.5053 -2.7687  1.0342
  668MOL0     H88121   0.953  10.751   6.445  0.3437 -1.6557  1.2773
  668MOL0     H88122   1.038  10.813   6.599 -0.8774  0.0096  0.3798
  668MOL0     H88123   0.893  11.028   6.547  1.3777 -1.4385  1.1460
  668MOL0     H88124   0.881  10.953   6.382  0.5871 -4.0227 -0.3895
  668MOL0     H88125   1.109  11.073   6.544  0.3086  2.0023 -1.2135
  668MOL0     H88126   1.149  10.953   6.421  0.8176  0.6172 -0.9920
  668MOL0     H88127   0.995  11.203   6.334 -1.6070 -1.4159 -0.4597
  668MOL0     H88128   1.055  11.076   6.239 -1.6453  1.3065  0.7621
  668MOL0     H88129   1.333  11.117   6.180  1.5358 -2.3072  2.4649
  668MOL0     H88130   1.559  11.418   6.247  0.0761 -3.0300  1.5228
  668MOL0     H88131   1.484  11.398   6.081  0.3570  2.1922 -0.0879
  668MOL0     H88132   1.564  11.185   6.069 -0.0619  1.3110 -0.1736
  668MOL0     H88133   1.621  11.178   6.224  4.6454 -1.5866 -1.4731
  668MOL0     H88134   1.731  11.392   6.039 -0.8251  1.2510  0.3381
  668MOL0     H88135   1.792  11.357   6.207 -0.0500  2.1765 -0.7566
  668MOL0     H88136   1.806  11.172   5.959  1.3506  0.4278 -1.8312
  668MOL0     H88137   1.862  11.121   6.113 -0.5805 -1.8433 -2.4117
  668MOL0     H88138   2.018  11.164   5.801 -2.3578 -3.7449  4.3126
  668MOL0     H88139   2.240  11.096   5.718 -1.5492 -1.8132  0.0401
  668MOL0     H88140   2.644  10.986   5.529  0.9420  2.6091 -1.8029
  668MOL0     H88141   2.884  10.919   5.508  2.8486 -0.2710  1.8519
  668MOL0     H88142   3.092  10.879   5.489 -0.0420  0.0141 -1.2534
  668MOL0     H88143   3.025  10.772   5.623 -1.5570  0.6229 -2.5708
  668MOL0     H88144   3.283  10.923   5.649 -1.5952  0.1518 -0.1173
  668MOL0     H88145   3.288  10.787   5.543 -0.7367 -1.4123 -0.4357
  668MOL0     H88146   3.390  10.747   5.756  1.0191 -0.3425 -1.5611
  668MOL0     H88147   3.255  10.626   5.732  1.2534 -0.6049  0.1771
  668MOL0     H88148   3.268  10.875   5.901 -2.6932 -0.1639  2.7138
  668MOL0     H88149   3.115  10.782   5.882 -0.7655  0.8180 -1.4866
  668MOL0     H88150   3.353  10.750   6.062  1.0461  0.4632 -1.4306
  668MOL0     H88151   3.325  10.606   5.963 -2.8376 -0.0041 -2.0968
  668MOL0     H88152   3.083  10.617   6.037 -0.6948  0.3116  0.0828
  668MOL0     H88153   3.129  10.748   6.146 -1.5741 -0.1619  0.1379
  668MOL0     H88154   3.226  10.453   6.132 -2.6035  1.1955 -1.7559
  668MOL0     H88155   3.313  10.575   6.227  0.7340  1.7427 -2.9124
  668MOL0     H88156   3.020  10.481   6.249  0.3318 -3.7349  0.8069
  668MOL0     H88157   3.092  10.606   6.358  3.1112  3.1818 -1.9850
  668MOL0     H88158   2.975  11.097   5.875 -0.0531 -2.7411  3.1373
  668MOL0     H88159   2.735  11.141   5.928  1.4831  0.5300 -0.2754
  668MOL0     H88160   2.372  11.130   6.119 -1.1884  2.1265 -0.1564
  668MOL0     H88161   2.182  11.245   6.183 -0.3973  2.5806 -1.2133
  668MOL0     H88162   0.941  10.168   6.463  0.4485  1.4137 -3.5547
  668MOL0     H88163   0.750  10.047   6.352  2.9244  0.9346 -1.4283
  668MOL0     H88164   0.245  10.012   6.312 -0.4636  0.1012  0.1007
  668MOL0     H88165   0.103   9.834   6.238  0.4868 -0.9692 -0.3711
  668MOL0     H88166  -0.017   9.659   6.186  0.3648 -0.1343  0.7440
  668MOL0     H88167   0.110   9.533   6.216  0.1527  0.7294  0.8348
  668MOL0     H88168  -0.049   9.543   5.956 -1.3604 -1.6718  0.1186
  668MOL0     H88169   0.067   9.430   6.025  1.7113  1.6066  1.8880
  668MOL0     H88170  -0.091   9.388   6.199  1.0430  0.6802  0.0316
  668MOL0     H88171  -0.149   9.328   6.038  0.0666 -1.4758  2.2585
  668MOL0     H88172  -0.331   9.445   6.165 -0.1223 -2.1390 -1.8049
  668MOL0     H88173  -0.232   9.577   6.186 -0.7748  2.1746 -1.8546
  668MOL0     H88174  -0.350   9.657   5.796  0.1356 -0.3430 -0.1549
  668MOL0     H88175   0.387   9.690   5.973 -0.4009  1.5233 -1.3787
  668MOL0     H88176   0.566   9.859   6.067  1.0435  4.2776  2.2972
  669MOL0     O88177   7.838   5.313   8.536 -0.3773 -0.0641 -0.6049
  669MOL0     C88178   7.812   5.249   8.436  0.4354 -0.9004 -0.7800
  669MOL0     O88179   7.855   5.273   8.310 -0.5887 -0.2610 -0.7533
  669MOL0     C88180   7.947   5.376   8.294  0.1565 -0.8418  0.4009
  669MOL0     C88181   8.055   5.413   8.375  0.0640  0.0125  0.3674
  669MOL0     C88182   8.138   5.522   8.346 -0.4992 -0.6719 -1.2802
  669MOL0     C88183   8.117   5.600   8.231  0.4743 -0.6830 -0.5582
  669MOL0     O88184   8.220   5.678   8.185  0.2947  0.3758  0.3782
  669MOL0     C88185   8.187   5.752   8.063  0.2322  0.2058 -0.5160
  669MOL0     C88186   8.296   5.855   8.033  1.1880  0.2475 -0.3258
  669MOL0     C88187   8.257   5.928   7.903  0.3116 -0.0049 -0.2161
  669MOL0     C88188   8.165   6.045   7.944 -0.0373  0.1469  0.2424
  669MOL0     C88189   8.087   6.104   7.820 -0.6710  0.4440  0.7658
  669MOL0     C88190   7.992   6.207   7.858  0.1102  0.7023 -0.1571
  669MOL0     C88191   7.906   6.255   7.745 -0.2456 -0.9944 -0.2952
  669MOL0     C88192   7.810   6.367   7.786  0.2471 -0.1376  0.0699
  669MOL0     N88193   7.685   6.327   7.855  0.2675  0.3226  0.7556
  669MOL0     C88194   7.603   6.227   7.829  0.6300  0.1928 -0.8209
  669MOL0     C88195   7.497   6.229   7.919  0.6239  0.3842 -0.2466
  669MOL0     C88196   7.360   6.165   7.888  0.0178  0.3825 -0.5728
  669MOL0     C88197   7.296   6.098   8.013 -0.1491 -0.7768  0.9403
  669MOL0     C88198   7.155   6.049   7.992 -0.9969  0.1720  0.9793
  669MOL0     C88199   7.077   6.024   8.130 -0.1121  0.0243 -0.3492
  669MOL0     O88200   6.940   6.002   8.098  0.1772 -0.5008 -0.9552
  669MOL0     C88201   6.867   5.927   8.196  0.0793 -1.0237 -0.3216
  669MOL0     C88202   6.772   5.836   8.148  0.6115 -0.5352  0.1220
  669MOL0     C88203   6.699   5.764   8.235 -0.2751  1.0725 -0.1855
  669MOL0     C88204   6.729   5.774   8.374 -0.4093  0.8580 -1.3857
  669MOL0     C88205   6.642   5.690   8.460  0.3076  0.5582  0.7034
  669MOL0     O88206   6.664   5.689   8.588 -0.4254  0.4284 -0.1751
  669MOL0     C88207   6.582   5.613   8.668 -1.2266 -0.6017 -0.6176
  669MOL0     C88208   6.558   5.477   8.664 -0.5616 -0.8204  0.7430
  669MOL0     C88209   6.474   5.414   8.757 -0.6105 -0.9617 -0.0434
  669MOL0     C88210   6.418   5.492   8.855  1.7056 -0.4421 -0.4383
  669MOL0     O88211   6.326   5.424   8.934  0.7303 -0.7654 -0.1266
  669MOL0     C88212   6.294   5.474   9.065  0.6328  0.2989 -0.6045
  669MOL0     C88213   6.414   5.460   9.158 -0.2415 -0.1590  0.0964
  669MOL0     C88214   6.451   5.313   9.190 -0.7886 -0.8369 -0.8771
  669MOL0     C88215   6.567   5.321   9.284 -0.4973 -0.4449 -0.0047
  669MOL0     C88216   6.632   5.184   9.310 -0.8182 -0.1710 -0.2826
  669MOL0     C88217   6.760   5.207   9.391 -1.2585 -0.8763 -0.7882
  669MOL0     C88218   6.805   5.086   9.472  0.1065 -0.0085  0.0617
  669MOL0     C88219   6.879   5.119   9.601  0.5900  0.0404 -0.6669
  669MOL0    Cl88220   6.763   5.156   9.732  0.0012 -0.3757  0.3639
  669MOL0     C88221   6.443   5.629   8.872 -0.2793  0.1188 -0.2593
  669MOL0     C88222   6.535   5.681   8.785  0.8672  0.0023  1.2591
  669MOL0     O88223   6.552   5.625   8.402 -0.6451  0.8505 -0.0863
  669MOL0     C88224   6.823   5.868   8.425  0.9502 -0.4116 -0.3355
  669MOL0     C88225   6.900   5.947   8.335  0.1191 -0.2417  0.3601
  669MOL0     N88226   7.536   6.310   8.025 -0.4789 -0.7603 -0.1448
  669MOL0     N88227   7.643   6.374   7.980  0.1064  0.6622  0.2755
  669MOL0     C88228   8.003   5.567   8.158  0.2288 -0.6560 -0.6121
  669MOL0     C88229   7.919   5.458   8.184 -0.8845  0.9063 -0.5725
  669MOL0     C88230   7.704   5.146   8.447 -0.6065  0.9019  0.5936
  669MOL0     C88231   7.641   5.089   8.331 -0.7470 -0.2456  0.6238
  669MOL0     C88232   7.550   4.985   8.340  0.7806 -0.0560  1.3794
  669MOL0     C88233   7.519   4.925   8.470  0.6884  1.0195  0.6203
  669MOL0     O88234   7.430   4.817   8.498 -0.0907  0.3629 -0.5677
  669MOL0     C88235   7.378   4.729   8.393  0.8818  0.7173 -0.7073
  669MOL0     C88236   7.224   4.735   8.359  0.0656 -0.4485  0.2175
  669MOL0     C88237   7.181   4.621   8.265 -0.5232  0.7201  0.5161
  669MOL0     C88238   7.048   4.644   8.196  0.3901 -0.0180 -0.0925
  669MOL0     C88239   6.928   4.647   8.285  0.2861  0.5002 -0.3376
  669MOL0     C88240   6.835   4.650   8.364  0.3896 -0.4126  0.5123
  669MOL0     C88241   7.567   4.989   8.584 -0.1831  0.6319 -0.0590
  669MOL0     C88242   7.666   5.087   8.568  0.2636  0.1239  0.3427
  669MOL0     H88243   8.074   5.339   8.453  1.0582 -0.9155 -0.7134
  669MOL0     H88244   8.222   5.555   8.407 -0.3394  1.1501 -2.4194
  669MOL0     H88245   8.088   5.798   8.070  0.6918  1.1091  0.4316
  669MOL0     H88246   8.180   5.685   7.978  2.3120  0.6549 -1.1157
  669MOL0     H88247   8.397   5.813   8.031  0.5242 -1.5743  1.1814
  669MOL0     H88248   8.292   5.925   8.117  1.3802 -0.4241  0.2519
  669MOL0     H88249   8.197   5.863   7.840 -2.5399  0.2825  1.9583
  669MOL0     H88250   8.338   5.980   7.852  1.1356 -0.1591  0.8862
  669MOL0     H88251   8.104   6.012   8.028  0.3229 -0.5210  0.2541
  669MOL0     H88252   8.225   6.132   7.973 -3.0121  1.5182  2.7064
  669MOL0     H88253   8.029   6.017   7.786 -2.3182  0.9948  2.0729
  669MOL0     H88254   8.147   6.131   7.733 -1.5918  1.9915  0.5865
  669MOL0     H88255   8.055   6.288   7.895  2.3495 -1.4237  0.9737
  669MOL0     H88256   7.944   6.160   7.945  0.5234  0.3047 -0.1379
  669MOL0     H88257   7.974   6.300   7.673  0.5933 -1.3432  0.2655
  669MOL0     H88258   7.851   6.176   7.694 -0.2870 -0.7073 -0.6964
  669MOL0     H88259   7.782   6.420   7.695  0.4066  1.2387  0.7929
  669MOL0     H88260   7.868   6.431   7.853 -0.4703 -0.8811  1.4537
  669MOL0     H88261   7.611   6.158   7.746  0.9075 -1.2662  0.3625
  669MOL0     H88262   7.376   6.103   7.799 -1.1523 -1.2794  0.3407
  669MOL0     H88263   7.291   6.247   7.863 -1.6228  0.0079  2.3640
  669MOL0     H88264   7.290   6.189   8.073  1.8031  0.6185 -0.8314
  669MOL0     H88265   7.366   6.033   8.066  3.0214  1.2899 -0.3946
  669MOL0     H88266   7.102   6.127   7.936 -1.3015  0.1743  1.2636
  669MOL0     H88267   7.151   5.954   7.938 -1.5134  1.0540 -0.6146
  669MOL0     H88268   7.081   6.118   8.185 -3.1152 -0.0070  0.1031
  669MOL0     H88269   7.127   5.943   8.183 -2.1461 -0.3773  1.0748
  669MOL0     H88270   6.760   5.836   8.040  0.4252 -0.2015  0.1403
  669MOL0     H88271   6.632   5.688   8.196 -2.6274  2.8232  0.2224
  669MOL0     H88272   6.604   5.425   8.580  1.2953 -1.0854  1.8786
  669MOL0     H88273   6.445   5.309   8.759 -3.7321 -0.1941  0.6393
  669MOL0     H88274   6.205   5.433   9.113  0.4874  1.7400  0.4231
  669MOL0     H88275   6.274   5.581   9.064 -0.6418  0.2344  3.0950
  669MOL0     H88276   6.400   5.521   9.248 -3.4820 -0.2840 -0.2115
  669MOL0     H88277   6.496   5.514   9.109 -0.6707  3.1608  2.6497
  669MOL0     H88278   6.473   5.258   9.098  1.6196  1.9403 -2.1326
  669MOL0     H88279   6.357   5.272   9.231 -3.0463  2.5280 -2.2311
  669MOL0     H88280   6.643   5.381   9.234  0.3137 -0.3498  1.2898
  669MOL0     H88281   6.537   5.377   9.373  0.7518  0.1082  0.0795
  669MOL0     H88282   6.641   5.145   9.208  0.4892 -0.9065  0.0930
  669MOL0     H88283   6.571   5.119   9.374  1.2298 -0.9300  0.9731
  669MOL0     H88284   6.742   5.289   9.461 -0.8177  0.0460 -1.7317
  669MOL0     H88285   6.840   5.245   9.327 -1.4686 -0.4999 -0.8291
  669MOL0     H88286   6.731   5.013   9.506 -0.0076  0.2724  0.4233
  669MOL0     H88287   6.876   5.034   9.407  0.0417 -0.8590  0.6502
  669MOL0     H88288   6.929   5.215   9.586 -1.7423  1.4598  0.0865
  669MOL0     H88289   6.944   5.041   9.641  2.5317  2.0407  0.2994
  669MOL0     H88290   6.399   5.681   8.957  0.9319 -1.0900  1.1567
  669MOL0     H88291   6.556   5.786   8.799 -0.9487  0.2107  2.9174
  669MOL0     H88292   6.861   5.894   8.524  2.2462  0.9739 -1.1498
  669MOL0     H88293   6.986   6.010   8.357  0.3994  0.6402 -2.7613
  669MOL0     H88294   7.979   5.613   8.062 -2.8295 -0.3209  0.1980
  669MOL0     H88295   7.831   5.432   8.127 -3.4056  1.9680  2.5388
  669MOL0     H88296   7.652   5.129   8.231  3.6203 -1.3981  0.4780
  669MOL0     H88297   7.507   4.945   8.249  2.8577 -0.4617  0.5206
  669MOL0     H88298   7.410   4.629   8.425 -0.4669  0.5823  0.3093
  669MOL0     H88299   7.429   4.740   8.296  0.8638  1.7875 -0.6000
  669MOL0     H88300   7.166   4.725   8.451 -1.7292  1.3361 -0.6485
  669MOL0     H88301   7.190   4.830   8.317 -0.5999  0.5458  2.8248
  669MOL0     H88302   7.177   4.533   8.331 -0.8900  2.1308  2.4419
  669MOL0     H88303   7.255   4.608   8.185 -2.2885 -0.1357 -1.0504
  669MOL0     H88304   7.069   4.737   8.142  1.6283 -1.4588 -2.2227
  669MOL0     H88305   7.041   4.576   8.111 -2.5381  0.3463 -0.2339
  669MOL0     H88306   6.759   4.654   8.439 -1.2594  0.7214 -1.1046
  669MOL0     H88307   7.535   4.951   8.681  0.0813  0.0849 -0.1874
  669MOL0     H88308   7.705   5.125   8.662  0.1123 -1.8598  1.2644
  670MOL0     O88309   5.680   0.944  11.024 -0.1341  0.1292 -0.1368
  670MOL0     C88310   5.577   0.892  11.048  0.1291 -0.1921 -0.4535
  670MOL0     O88311   5.486   0.953  11.140  0.3859  0.0825  0.6790
  670MOL0     C88312   5.538   1.059  11.208  0.0964  1.1092  0.5617
  670MOL0     C88313   5.550   1.184  11.142 -0.8680 -0.2171  0.3331
  670MOL0     C88314   5.594   1.301  11.212  0.8943 -0.5409  0.3477
  670MOL0     C88315   5.635   1.284  11.354  1.4419 -0.4834 -0.8959
  670MOL0     O88316   5.679   1.386  11.439 -0.2385 -0.4714 -0.8305
  670MOL0     C88317   5.725   1.505  11.381  0.2643  0.1450  0.4473
  670MOL0     C88318   5.740   1.617  11.483 -0.0898 -1.3670 -0.4465
  670MOL0     C88319   5.614   1.681  11.525 -0.9407 -0.2586 -0.4806
  670MOL0     C88320   5.633   1.829  11.558  0.5607 -0.5820 -0.0682
  670MOL0     C88321   5.506   1.903  11.592 -0.0496 -0.2663 -0.4099
  670MOL0     C88322   5.528   2.063  11.599  0.1201 -0.0093 -0.6687
  670MOL0     C88323   5.438   2.148  11.691 -0.4185  0.3958 -0.5361
  670MOL0     C88324   5.299   2.158  11.643 -0.0385 -0.5732 -0.2397
  670MOL0     N88325   5.221   2.233  11.740  0.1244 -0.3147  0.0593
  670MOL0     C88326   5.148   2.183  11.844  0.0915 -0.0778 -0.5044
  670MOL0     C88327   5.097   2.292  11.898 -0.0922 -0.1332 -1.4206
  670MOL0     C88328   4.993   2.292  12.020 -0.0798 -0.2749  0.0600
  670MOL0     C88329   4.843   2.279  11.971 -0.0971 -0.3792  0.0553
  670MOL0     C88330   4.747   2.265  12.088 -0.2481 -0.1350 -0.2999
  670MOL0     C88331   4.607   2.215  12.059 -0.2087  0.0560  0.0951
  670MOL0     O88332   4.604   2.067  12.052  0.0723 -0.2357  0.7482
  670MOL0     C88333   4.477   2.016  12.054  0.7796 -0.9503 -1.0155
  670MOL0     C88334   4.356   2.091  12.017  0.5740 -0.3445 -0.4662
  670MOL0     C88335   4.235   2.028  11.997 -0.3323 -0.5335  0.3758
  670MOL0     C88336   4.229   1.886  12.014  0.5551  0.4593  0.9306
  670MOL0     C88337   4.102   1.811  11.992 -0.2233 -0.5802 -0.4397
  670MOL0     O88338   4.092   1.686  12.039 -0.1928 -0.9047  0.5772
  670MOL0     C88339   3.981   1.625  11.998  0.2054  0.5793 -0.5542
  670MOL0     C88340   3.861   1.621  12.062 -0.7359  0.8867  0.3080
  670MOL0     C88341   3.750   1.562  11.996  0.3095 -0.6330  0.2733
  670MOL0     C88342   3.767   1.488  11.879 -0.2884 -1.1775  0.2722
  670MOL0     O88343   3.655   1.434  11.829  0.2103  0.1280  0.2356
  670MOL0     C88344   3.657   1.360  11.698  0.2189  0.8978 -0.3941
  670MOL0     C88345   3.510   1.324  11.663  0.4322  0.6489 -0.6504
  670MOL0     C88346   3.516   1.251  11.529  0.0490  0.1099  0.3516
  670MOL0     C88347   3.374   1.233  11.466  0.4205  0.1675 -0.2068
  670MOL0     C88348   3.305   1.361  11.429 -0.1443 -0.8231 -0.0592
  670MOL0     C88349   3.389   1.461  11.344  0.0021  0.6489  0.4665
  670MOL0     C88350   3.307   1.584  11.325 -0.9784  0.0230  0.0089
  670MOL0     C88351   3.248   1.640  11.452 -0.5848  0.4247 -0.1454
  670MOL0    Cl88352   3.207   1.824  11.444  0.0409  0.9506  0.0530
  670MOL0     C88353   3.893   1.477  11.831  0.3735 -0.9802 -0.1771
  670MOL0     C88354   4.001   1.538  11.889 -0.3451 -0.4351  0.0820
  670MOL0     O88355   4.015   1.881  11.949  0.3290 -0.2574  1.4616
  670MOL0     C88356   4.336   1.814  12.057 -0.2895 -0.0821 -0.1986
  670MOL0     C88357   4.461   1.876  12.079  0.1187 -0.8737  0.1349
  670MOL0     N88358   5.146   2.401  11.844  1.2571 -1.0620  0.0078
  670MOL0     N88359   5.213   2.370  11.737 -0.5741  0.4495  0.0136
  670MOL0     C88360   5.613   1.153  11.412  0.2351 -0.2986 -0.1881
  670MOL0     C88361   5.566   1.039  11.342  0.2759 -0.5867  0.2799
  670MOL0     C88362   5.560   0.750  11.023  0.3028 -0.5694 -0.2620
  670MOL0     C88363   5.656   0.677  10.956 -0.2099 -0.2211 -1.3326
  670MOL0     C88364   5.651   0.541  10.935  0.8413  0.1476 -0.0706
  670MOL0     C88365   5.526   0.472  10.954 -0.3877 -0.4003  0.3103
  670MOL0     O88366   5.508   0.343  10.913 -0.2455  0.3515  0.2525
  670MOL0     C88367   5.392   0.311  10.831 -1.0215 -0.3533 -0.5549
  670MOL0     C88368   5.348   0.424  10.731  0.4251  0.2075  0.0309
  670MOL0     C88369   5.262   0.358  10.618 -0.1121  0.4409 -1.1238
  670MOL0     C88370   5.248   0.456  10.499  1.1562  0.0850 -0.3307
  670MOL0     C88371   5.140   0.557  10.520 -1.4927 -0.6053  0.7205
  670MOL0     C88372   5.085   0.653  10.557  0.2645 -0.0014 -0.3153
  670MOL0     C88373   5.421   0.549  11.011 -1.4546  0.6061  0.4964
  670MOL0     C88374   5.437   0.684  11.047  1.8108  0.0999  0.0710
  670MOL0     H88375   5.521   1.191  11.037 -1.8274  1.6856  0.6704
  670MOL0     H88376   5.604   1.388  11.148  1.2056 -2.6357 -2.6389
  670MOL0     H88377   5.670   1.551  11.299 -0.7545 -0.7228  0.6197
  670MOL0     H88378   5.825   1.497  11.337  0.5102  1.6820  0.6689
  670MOL0     H88379   5.781   1.694  11.417  1.9545  0.4158  2.6507
  670MOL0     H88380   5.817   1.592  11.558 -0.6943  0.6310  0.9106
  670MOL0     H88381   5.583   1.623  11.612  1.6431  2.1364  2.2604
  670MOL0     H88382   5.533   1.678  11.450 -0.5392  1.6162 -1.0530
  670MOL0     H88383   5.689   1.828  11.652 -2.5924 -1.1245  1.9459
  670MOL0     H88384   5.686   1.885  11.479 -0.3584  2.2408  1.1810
  670MOL0     H88385   5.466   1.883  11.692  0.6937  1.3956  0.2586
  670MOL0     H88386   5.425   1.882  11.522  1.1058  1.2985 -2.3372
  670MOL0     H88387   5.515   2.090  11.493  3.5936 -1.2714 -1.5804
  670MOL0     H88388   5.631   2.094  11.621  0.5460 -0.0794 -2.4125
  670MOL0     H88389   5.440   2.114  11.795  0.8187  0.7452 -0.4292
  670MOL0     H88390   5.499   2.239  11.684  4.6639 -2.6415 -0.5028
  670MOL0     H88391   5.245   2.064  11.630  0.7746 -0.7912 -2.7289
  670MOL0     H88392   5.297   2.217  11.550  5.1810 -0.0625 -0.3233
  670MOL0     H88393   5.126   2.082  11.877 -5.3703  0.9494 -0.1869
  670MOL0     H88394   5.010   2.393  12.059 -3.4780  0.2538  0.5011
  670MOL0     H88395   5.005   2.205  12.085 -4.1346 -1.0783 -0.0354
  670MOL0     H88396   4.849   2.195  11.901 -1.4935  0.1527 -0.7437
  670MOL0     H88397   4.817   2.371  11.917 -1.9462  2.8361  5.5704
  670MOL0     H88398   4.795   2.196  12.158  1.9364  0.0320 -1.5356
  670MOL0     H88399   4.729   2.363  12.131 -2.9887 -1.6964  2.5349
  670MOL0     H88400   4.567   2.246  11.962 -1.2895 -0.1753  0.4501
  670MOL0     H88401   4.550   2.259  12.141  0.1784 -1.4396  1.2100
  670MOL0     H88402   4.340   2.190  11.975 -1.1712 -0.7873 -0.9373
  670MOL0     H88403   4.145   2.067  11.949 -0.3728 -1.9154 -0.7358
  670MOL0     H88404   3.856   1.691  12.145  1.6578 -0.2817  1.5497
  670MOL0     H88405   3.651   1.581  12.035  0.8141  1.5845  0.6378
  670MOL0     H88406   3.723   1.273  11.693 -0.6856 -0.0077  1.9592
  670MOL0     H88407   3.678   1.431  11.617 -0.9172  0.3442 -1.1871
  670MOL0     H88408   3.457   1.418  11.644  0.0640 -0.0122 -3.4452
  670MOL0     H88409   3.450   1.271  11.738  0.5389  0.2223 -0.8632
  670MOL0     H88410   3.565   1.154  11.537  4.2109  1.9092 -0.5241
  670MOL0     H88411   3.575   1.305  11.454 -3.1111 -0.1756 -2.6036
  670MOL0     H88412   3.390   1.189  11.367  0.0378 -3.0153  1.0437
  670MOL0     H88413   3.313   1.163  11.524 -0.5387 -0.0503 -1.4354
  670MOL0     H88414   3.283   1.414  11.522  5.8658  0.8812  0.8609
  670MOL0     H88415   3.221   1.341  11.362 -0.3660  0.7341 -0.2826
  670MOL0     H88416   3.418   1.428  11.243 -3.3379  0.8150 -0.6970
  670MOL0     H88417   3.478   1.484  11.402  2.0848 -3.2553 -0.8411
  670MOL0     H88418   3.383   1.659  11.302  1.1755 -1.5868  1.4742
  670MOL0     H88419   3.226   1.584  11.251 -3.8166 -1.9316  2.8372
  670MOL0     H88420   3.320   1.630  11.534 -2.2636 -0.6750  1.2579
  670MOL0     H88421   3.156   1.593  11.489 -0.0746  1.1936  2.3290
  670MOL0     H88422   3.918   1.401  11.757 -0.0593 -0.2798 -1.0647
  670MOL0     H88423   4.100   1.514  11.851 -1.6345 -3.9539 -1.4876
  670MOL0     H88424   4.336   1.707  12.076  0.0058 -0.2889 -1.2970
  670MOL0     H88425   4.542   1.826  12.131 -4.4645 -4.2321  5.1940
  670MOL0     H88426   5.627   1.140  11.519 -2.4492 -1.3849  0.1277
  670MOL0     H88427   5.536   0.949  11.395  0.0916 -2.5849 -2.9406
  670MOL0     H88428   5.752   0.723  10.935 -0.3108  1.1411  0.8843
  670MOL0     H88429   5.743   0.493  10.903  2.6258  0.5070  3.8608
  670MOL0     H88430   5.312   0.281  10.900 -1.3909 -0.3488 -0.9753
  670MOL0     H88431   5.417   0.223  10.771  1.0104 -0.2828  0.1146
  670MOL0     H88432   5.293   0.505  10.779 -0.7391  0.3556 -1.4645
  670MOL0     H88433   5.436   0.462  10.677  0.2693 -3.8144 -3.6778
  670MOL0     H88434   5.162   0.333  10.655  0.0072  2.8670  1.1169
  670MOL0     H88435   5.302   0.265  10.577 -2.0750 -1.4148  0.8921
  670MOL0     H88436   5.344   0.502  10.477  1.6536 -2.7694 -5.9725
  670MOL0     H88437   5.221   0.395  10.412 -0.7558 -0.4043  0.5361
  670MOL0     H88438   5.026   0.734  10.595 -1.3072 -1.5431  0.6906
  670MOL0     H88439   5.334   0.488  11.033 -0.1781 -2.2213 -1.6731
  670MOL0     H88440   5.360   0.735  11.104 -1.2188 -2.3890 -1.4984
  671MOL0     O88441   7.325   1.202   7.480 -0.4516  0.1269  0.1886
  671MOL0     C88442   7.304   1.193   7.361 -0.2575  0.9698  1.7310
  671MOL0     O88443   7.263   1.082   7.293 -0.0623  0.3898  0.5021
  671MOL0     C88444   7.276   0.967   7.366  0.3672  0.8627  0.4829
  671MOL0     C88445   7.167   0.917   7.443  0.3363 -0.1457 -0.7339
  671MOL0     C88446   7.190   0.788   7.500 -0.4133  0.1699  0.3526
  671MOL0     C88447   7.305   0.713   7.474  1.0133 -0.4593  0.4569
  671MOL0     O88448   7.327   0.600   7.543 -1.0108 -0.4177 -1.0223
  671MOL0     C88449   7.451   0.565   7.598  0.7070 -1.3020 -0.1908
  671MOL0     C88450   7.437   0.451   7.706  0.0225 -0.5232  0.1538
  671MOL0     C88451   7.584   0.401   7.757  0.3392  0.0376 -1.0699
  671MOL0     C88452   7.566   0.324   7.892  0.5922  0.0829  0.6324
  671MOL0     C88453   7.681   0.224   7.911 -0.4645 -0.0359 -0.9975
  671MOL0     C88454   7.656   0.080   7.850  0.2319 -1.1260  0.1355
  671MOL0     C88455   7.787   0.005   7.824 -0.0462 -0.0269 -0.2192
  671MOL0     C88456   7.854  -0.032   7.955 -0.5494  0.4676  0.1392
  671MOL0     N88457   7.976  -0.103   7.921  0.3871  0.6383 -0.0348
  671MOL0     C88458   7.986  -0.225   7.852 -0.2104 -0.7865  0.0452
  671MOL0     C88459   8.119  -0.259   7.864  1.0210 -0.0913 -0.1762
  671MOL0     C88460   8.196  -0.378   7.806 -0.5231  0.4178 -0.9955
  671MOL0     C88461   8.116  -0.500   7.867  0.4463  0.4537  0.1710
  671MOL0     C88462   8.217  -0.618   7.893  1.1717 -0.5483  0.0631
  671MOL0     C88463   8.148  -0.733   7.977  0.0378  0.3415  0.3327
  671MOL0     O88464   8.146  -0.715   8.118  0.1217  0.4042 -0.0150
  671MOL0     C88465   8.265  -0.728   8.185  0.4511 -0.7577 -1.2062
  671MOL0     C88466   8.261  -0.678   8.318 -0.1022  0.2291  0.2372
  671MOL0     C88467   8.367  -0.702   8.408 -0.2373  0.2029 -0.5142
  671MOL0     C88468   8.489  -0.749   8.364 -0.4001 -0.4515  0.4966
  671MOL0     C88469   8.617  -0.752   8.454 -0.9874 -0.7625  0.4063
  671MOL0     O88470   8.731  -0.801   8.399 -0.2106 -0.5057  0.0251
  671MOL0     C88471   8.842  -0.837   8.471 -0.2875 -0.3287  0.2450
  671MOL0     C88472   8.908  -0.956   8.454 -0.4478  0.9060  1.3029
  671MOL0     C88473   9.020  -0.987   8.528  0.1650 -0.2306 -0.1071
  671MOL0     C88474   9.070  -0.902   8.621 -1.1108 -0.8058 -0.8205
  671MOL0     O88475   9.183  -0.920   8.700  0.6559 -0.5706 -1.3332
  671MOL0     C88476   9.296  -0.976   8.635 -0.1348  0.4290  0.1355
  671MOL0     C88477   9.354  -1.080   8.729  0.5557 -0.0806  0.6799
  671MOL0     C88478   9.457  -1.171   8.662 -0.1951 -0.3560 -0.2530
  671MOL0     C88479   9.512  -1.282   8.753  0.2865 -0.3397  1.0077
  671MOL0     C88480   9.608  -1.379   8.682 -0.5131  0.2772  0.7829
  671MOL0     C88481   9.626  -1.501   8.770  0.4567  0.1737  0.2564
  671MOL0     C88482   9.775  -1.546   8.767  0.6913 -0.3767 -0.5138
  671MOL0     C88483   9.793  -1.680   8.828  0.1103  1.0201 -0.0660
  671MOL0    Cl88484   9.970  -1.702   8.855  0.1775 -0.3669  0.5010
  671MOL0     C88485   9.009  -0.781   8.643  0.2457  0.5402  0.2187
  671MOL0     C88486   8.896  -0.745   8.560  0.6556  0.2016  0.4663
  671MOL0     O88487   8.597  -0.725   8.570  0.4616  0.1548 -0.0472
  671MOL0     C88488   8.494  -0.786   8.226 -0.7042 -0.2675 -1.2709
  671MOL0     C88489   8.388  -0.772   8.139 -0.5836  1.0136  0.2663
  671MOL0     N88490   8.187  -0.156   7.934  0.5356  0.9890  0.3145
  671MOL0     N88491   8.099  -0.072   7.966 -0.5794  0.2289  0.4144
  671MOL0     C88492   7.409   0.762   7.399 -0.0822  0.5344 -0.0090
  671MOL0     C88493   7.397   0.888   7.337 -1.3569  0.9960 -0.5033
  671MOL0     C88494   7.345   1.307   7.275  0.0445  0.2859  0.0003
  671MOL0     C88495   7.375   1.285   7.141  0.6566  1.2065 -0.7869
  671MOL0     C88496   7.399   1.388   7.049  0.2806 -1.1119 -0.3810
  671MOL0     C88497   7.392   1.519   7.097  0.4628  0.2404 -0.1691
  671MOL0     O88498   7.421   1.617   7.003  0.7813 -0.0841 -0.2321
  671MOL0     C88499   7.445   1.758   7.051  0.1494  0.7066  0.5686
  671MOL0     C88500   7.325   1.843   7.033 -0.8156  0.1240 -1.1387
  671MOL0     C88501   7.299   1.889   6.892  0.5461 -0.6516  0.1971
  671MOL0     C88502   7.412   1.971   6.831  0.5333  0.6259 -1.3004
  671MOL0     C88503   7.374   2.066   6.725  0.3521 -0.1281  0.8857
  671MOL0     C88504   7.359   2.154   6.640 -0.2320 -0.6861  0.2303
  671MOL0     C88505   7.365   1.539   7.235  0.3000  0.9108  0.8844
  671MOL0     C88506   7.345   1.433   7.326  1.0276  1.2426  0.0185
  671MOL0     H88507   7.073   0.969   7.459 -0.0634 -1.1791  0.4358
  671MOL0     H88508   7.115   0.744   7.564 -2.1716  0.5037 -1.3839
  671MOL0     H88509   7.492   0.649   7.655  1.0479 -0.0645 -2.1602
  671MOL0     H88510   7.523   0.533   7.522  0.1007 -0.9073 -0.9447
  671MOL0     H88511   7.385   0.363   7.667  1.7376 -1.7316  0.4813
  671MOL0     H88512   7.383   0.496   7.790  1.6226  2.9261 -0.4945
  671MOL0     H88513   7.648   0.490   7.754 -1.7756  1.6721 -0.4296
  671MOL0     H88514   7.622   0.345   7.671  2.7982  0.0339 -0.0474
  671MOL0     H88515   7.571   0.399   7.972  2.9057 -0.3923  1.0070
  671MOL0     H88516   7.466   0.278   7.892  2.0823 -3.4485  0.9671
  671MOL0     H88517   7.710   0.223   8.017 -3.0532  1.7764 -0.1692
  671MOL0     H88518   7.774   0.255   7.865 -0.3991  1.3377  0.0044
  671MOL0     H88519   7.590   0.082   7.763 -0.9253  1.3871  0.9669
  671MOL0     H88520   7.595   0.027   7.923  2.1719  1.7673  4.3084
  671MOL0     H88521   7.760  -0.092   7.781  1.0671 -0.4783  0.0373
  671MOL0     H88522   7.856   0.055   7.756 -0.0920 -0.1646 -0.3675
  671MOL0     H88523   7.788  -0.103   8.006 -1.8694  2.4107  1.2547
  671MOL0     H88524   7.886   0.049   8.021 -2.5122  0.9513  0.5661
  671MOL0     H88525   7.903  -0.280   7.810 -1.6371  3.1157 -2.9463
  671MOL0     H88526   8.304  -0.375   7.825 -0.3107  1.3408 -2.2566
  671MOL0     H88527   8.190  -0.383   7.697  1.6774 -4.0430 -1.1142
  671MOL0     H88528   8.029  -0.538   7.813 -0.1628 -0.8759  1.9837
  671MOL0     H88529   8.078  -0.470   7.965 -0.8790 -3.2324  0.9460
  671MOL0     H88530   8.234  -0.661   7.793  1.1099 -0.6052  0.0770
  671MOL0     H88531   8.309  -0.580   7.940  0.4072  0.5368  0.7396
  671MOL0     H88532   8.189  -0.832   7.955 -0.5781  0.0798  0.3296
  671MOL0     H88533   8.044  -0.740   7.944  1.1560 -2.1141 -3.2208
  671MOL0     H88534   8.183  -0.631   8.378  0.2961  0.6380  0.4366
  671MOL0     H88535   8.353  -0.680   8.513 -3.5421 -1.6987 -0.4165
  671MOL0     H88536   8.859  -1.017   8.378 -2.6779  1.2911  2.3544
  671MOL0     H88537   9.076  -1.080   8.517 -1.3959 -1.3734  1.0536
  671MOL0     H88538   9.373  -0.900   8.625 -1.5483  2.3213  2.4055
  671MOL0     H88539   9.272  -1.023   8.539 -0.4816 -3.3400  1.8444
  671MOL0     H88540   9.266  -1.142   8.752  0.0091  1.4550  3.0495
  671MOL0     H88541   9.390  -1.058   8.830  2.2087  0.6873 -0.0542
  671MOL0     H88542   9.546  -1.118   8.627  0.0145  0.0452  0.8620
  671MOL0     H88543   9.407  -1.205   8.571 -2.8635  0.2662  0.8730
  671MOL0     H88544   9.571  -1.239   8.835  2.3713 -2.8272  0.9094
  671MOL0     H88545   9.428  -1.329   8.805 -0.2170 -1.2531 -0.5878
  671MOL0     H88546   9.708  -1.336   8.669  0.0857 -1.2146  0.2529
  671MOL0     H88547   9.565  -1.419   8.590 -0.1948 -3.3091  2.0534
  671MOL0     H88548   9.550  -1.575   8.743  1.5715 -0.5199 -1.1407
  671MOL0     H88549   9.598  -1.474   8.872 -4.3985 -4.1486  0.4781
  671MOL0     H88550   9.802  -1.553   8.662  0.4027  3.9103 -1.0455
  671MOL0     H88551   9.840  -1.467   8.805 -0.6201 -0.8163  3.1040
  671MOL0     H88552   9.732  -1.754   8.775 -1.7400  2.2215  0.2844
  671MOL0     H88553   9.759  -1.692   8.931 -0.4001 -0.1721 -0.3519
  671MOL0     H88554   9.044  -0.719   8.724 -0.9974 -0.7423  1.8151
  671MOL0     H88555   8.841  -0.652   8.568  1.4313  0.6025  1.3141
  671MOL0     H88556   8.587  -0.824   8.183  0.8076 -3.0129  3.5877
  671MOL0     H88557   8.411  -0.790   8.034  1.0647  0.2128  0.7332
  671MOL0     H88558   7.508   0.719   7.390 -0.6235 -0.5692 -1.0911
  671MOL0     H88559   7.468   0.940   7.274 -0.7532 -1.9368 -2.4635
  671MOL0     H88560   7.356   1.186   7.101 -0.3753 -1.4892  5.2253
  671MOL0     H88561   7.397   1.358   6.944  1.1164  3.0053 -1.7787
  671MOL0     H88562   7.533   1.792   6.995  2.5824 -1.3808  2.8369
  671MOL0     H88563   7.482   1.755   7.154 -2.9529  0.5580  1.7621
  671MOL0     H88564   7.245   1.775   7.064  0.5230 -1.5556 -1.2189
  671MOL0     H88565   7.339   1.931   7.098  1.0194  0.7957 -2.3624
  671MOL0     H88566   7.200   1.934   6.882  0.4668 -0.9856 -0.5908
  671MOL0     H88567   7.293   1.806   6.821 -0.6673 -0.2916 -0.1247
  671MOL0     H88568   7.457   2.035   6.908 -1.2577  0.1644  0.1994
  671MOL0     H88569   7.491   1.906   6.792 -1.9759 -2.5098 -1.5754
  671MOL0     H88570   7.359   2.245   6.584  0.2940 -0.5201  0.4960
  671MOL0     H88571   7.347   1.641   7.266  1.2243  1.3754 -0.0371
  671MOL0     H88572   7.311   1.469   7.423 -3.8966 -1.9938 -0.1839
  672MOL0     O88573  11.313   6.165   9.121 -0.5660  0.3698  0.1028
  672MOL0     C88574  11.375   6.102   9.036 -0.7456  0.3522  0.1903
  672MOL0     O88575  11.507   6.114   9.007 -0.3063 -0.5382  0.6505
  672MOL0     C88576  11.569   6.222   9.067 -0.3724  0.5786 -0.8227
  672MOL0     C88577  11.605   6.237   9.206 -0.1656 -0.0962  0.5223
  672MOL0     C88578  11.702   6.336   9.252  0.1066  0.3974 -0.2272
  672MOL0     C88579  11.749   6.422   9.155 -0.0875  0.1658  0.3626
  672MOL0     O88580  11.831   6.523   9.204 -0.7359 -0.4238 -0.4127
  672MOL0     C88581  11.834   6.651   9.129 -0.2648  0.2206  0.1160
  672MOL0     C88582  11.848   6.751   9.252  0.5616  0.2320  0.1187
  672MOL0     C88583  11.895   6.889   9.208 -0.4486 -0.7108 -0.3925
  672MOL0     C88584  11.913   7.003   9.319 -0.5383  0.1967  0.3811
  672MOL0     C88585  12.042   6.993   9.406 -0.3076  0.3101  0.0940
  672MOL0     C88586  12.043   7.104   9.511 -0.9225  0.2145 -0.1133
  672MOL0     C88587  12.175   7.124   9.571  0.5190  0.0376 -0.5171
  672MOL0     C88588  12.160   7.215   9.697  0.7141  1.1532  0.3939
  672MOL0     N88589  12.271   7.201   9.788 -0.3808 -0.2330 -0.4895
  672MOL0     C88590  12.293   7.241   9.922  0.4921 -0.4930  0.5208
  672MOL0     C88591  12.425   7.245   9.943  0.5603  0.0340  0.4062
  672MOL0     C88592  12.505   7.270  10.065  0.3948  0.7889 -0.0140
  672MOL0     C88593  12.537   7.140  10.130 -0.5214 -0.1243  0.9645
  672MOL0     C88594  12.646   7.159  10.233 -0.1513 -0.3650 -0.4804
  672MOL0     C88595  12.596   7.202  10.371 -0.5614 -0.5154  0.3760
  672MOL0     O88596  12.536   7.332  10.364 -0.3483  0.2094  0.7162
  672MOL0     C88597  12.456   7.375  10.465  0.2393  0.0916 -0.2612
  672MOL0     C88598  12.478   7.336  10.593 -0.3535  0.5548 -0.1358
  672MOL0     C88599  12.390   7.378  10.692 -0.0003  0.2986  0.3835
  672MOL0     C88600  12.273   7.449  10.657 -0.1254 -1.0054 -0.0652
  672MOL0     C88601  12.161   7.488  10.752  0.7501 -0.0430  0.4106
  672MOL0     O88602  12.156   7.422  10.876  0.5769 -0.1350  0.1686
  672MOL0     C88603  12.068   7.458  10.977  0.0250 -0.2808 -0.9841
  672MOL0     C88604  12.064   7.588  11.037  0.1674 -0.3898  0.4200
  672MOL0     C88605  11.965   7.632  11.121  0.5867  0.1705 -0.7618
  672MOL0     C88606  11.859   7.538  11.143  1.1115  1.0933 -0.3409
  672MOL0     O88607  11.745   7.558  11.222  0.2791 -0.9600  0.1415
  672MOL0     C88608  11.747   7.684  11.302  0.2594  0.0110  0.3107
  672MOL0     C88609  11.624   7.693  11.398  0.2157  0.1686 -0.3796
  672MOL0     C88610  11.488   7.654  11.342 -0.3137  0.3517 -0.2285
  672MOL0     C88611  11.377   7.701  11.431 -1.2736 -0.0475  0.4270
  672MOL0     C88612  11.236   7.710  11.366  0.2647 -1.0834  0.8601
  672MOL0     C88613  11.127   7.752  11.475 -0.3437 -0.6131  0.4421
  672MOL0     C88614  11.001   7.774  11.401  0.7413  0.8246  0.1880
  672MOL0     C88615  10.894   7.769  11.513  0.4423  0.6304 -0.2980
  672MOL0    Cl88616  10.722   7.771  11.444  0.0501  0.0157 -0.2409
  672MOL0     C88617  11.864   7.410  11.083  0.2111 -0.1695  0.1717
  672MOL0     C88618  11.965   7.370  11.003 -0.2573 -0.1241 -0.6853
  672MOL0     O88619  12.080   7.573  10.720 -0.2919  0.0552  0.0384
  672MOL0     C88620  12.262   7.496  10.523 -0.2148 -0.3146 -0.3018
  672MOL0     C88621  12.359   7.464  10.431  0.9153  0.7147  0.3500
  672MOL0     N88622  12.483   7.184   9.832 -0.4823 -0.3719 -0.3521
  672MOL0     N88623  12.395   7.164   9.741 -0.5376  0.9333  0.0647
  672MOL0     C88624  11.713   6.417   9.019 -0.0080  1.4674 -0.1303
  672MOL0     C88625  11.623   6.317   8.979  0.0777  0.7959  1.4005
  672MOL0     C88626  11.313   5.984   8.965 -0.9920  0.3430  0.2029
  672MOL0     C88627  11.393   5.879   8.905 -0.7484 -0.1025 -0.4441
  672MOL0     C88628  11.335   5.765   8.852 -0.1710  0.3044 -0.5788
  672MOL0     C88629  11.197   5.762   8.825 -0.0098  0.4802  1.0665
  672MOL0     O88630  11.127   5.665   8.756 -0.0281  0.0219  0.7146
  672MOL0     C88631  11.142   5.530   8.800 -0.2731  0.0964  0.2247
  672MOL0     C88632  11.028   5.486   8.899 -0.0960 -0.2085  0.4899
  672MOL0     C88633  11.086   5.364   8.973 -0.2767  1.1310 -0.5188
  672MOL0     C88634  10.979   5.311   9.073 -0.6745  0.1313 -0.4845
  672MOL0     C88635  11.038   5.194   9.145  0.4264 -0.4724 -0.0431
  672MOL0     C88636  11.081   5.100   9.206 -0.1078 -0.3493  1.3224
  672MOL0     C88637  11.113   5.867   8.876  0.0170 -0.1611  0.1443
  672MOL0     C88638  11.173   5.967   8.955  0.2854  1.0468 -0.0996
  672MOL0     H88639  11.566   6.158   9.270  0.9775 -1.0402  0.0842
  672MOL0     H88640  11.730   6.338   9.357 -0.2987  0.1009 -0.1107
  672MOL0     H88641  11.738   6.673   9.080 -1.0263 -2.1629  0.4200
  672MOL0     H88642  11.919   6.661   9.062 -0.5674 -1.7112 -0.6094
  672MOL0     H88643  11.914   6.711   9.330 -1.6910 -2.0836  0.9899
  672MOL0     H88644  11.751   6.760   9.302  0.3052  0.6188 -0.4472
  672MOL0     H88645  11.829   6.928   9.131  2.3761  0.6481 -2.3090
  672MOL0     H88646  11.987   6.854   9.162 -1.0352 -1.0619 -1.3126
  672MOL0     H88647  11.902   7.094   9.259  0.3795 -1.0607 -1.7953
  672MOL0     H88648  11.836   6.983   9.394  0.9390 -2.3728  1.3384
  672MOL0     H88649  12.131   6.990   9.342 -0.9235  3.0975 -1.0215
  672MOL0     H88650  12.032   6.903   9.467  0.6668 -0.7068 -1.1874
  672MOL0     H88651  11.973   7.090   9.593  0.3268  2.1352  1.3730
  672MOL0     H88652  12.020   7.202   9.467 -0.8555  0.1133 -0.3798
  672MOL0     H88653  12.229   7.031   9.589 -0.4023 -0.4038  0.0309
  672MOL0     H88654  12.241   7.171   9.497  1.8293  0.5863  0.9451
  672MOL0     H88655  12.071   7.194   9.758  1.2282  1.9043  1.4528
  672MOL0     H88656  12.151   7.322   9.673  1.9406  1.2335  0.2599
  672MOL0     H88657  12.226   7.281   9.997  2.1617 -1.4472  2.6420
  672MOL0     H88658  12.451   7.347  10.121  1.2907  3.8700 -3.0446
  672MOL0     H88659  12.597   7.310  10.022  0.5236 -0.2929 -0.8056
  672MOL0     H88660  12.584   7.079  10.052 -0.8401 -0.2369  0.8620
  672MOL0     H88661  12.449   7.091  10.172  0.0096 -1.1921  0.8609
  672MOL0     H88662  12.695   7.061  10.238 -1.8277 -1.2114  0.3679
  672MOL0     H88663  12.714   7.241  10.212  0.5324 -0.7673  0.1055
  672MOL0     H88664  12.686   7.213  10.432  1.1923  1.1676 -2.2797
  672MOL0     H88665  12.531   7.127  10.415  2.8886 -2.7556  2.0757
  672MOL0     H88666  12.563   7.272  10.616  0.1888  1.2846 -0.0501
  672MOL0     H88667  12.404   7.341  10.794  0.1402 -0.1588  0.2024
  672MOL0     H88668  12.147   7.651  11.007 -0.4577 -1.0794 -3.3158
  672MOL0     H88669  11.972   7.734  11.156 -0.6182  0.4663 -1.3112
  672MOL0     H88670  11.750   7.770  11.235  2.4763 -1.3522 -1.4847
  672MOL0     H88671  11.830   7.694  11.372 -0.9000  0.3247  1.6929
  672MOL0     H88672  11.623   7.794  11.439  0.8949 -1.3237  3.7387
  672MOL0     H88673  11.642   7.625  11.481  1.0242 -0.5335 -1.1100
  672MOL0     H88674  11.485   7.545  11.340 -1.8905  0.2833  2.0667
  672MOL0     H88675  11.489   7.698  11.241  1.5100  1.7979  0.3537
  672MOL0     H88676  11.388   7.643  11.523  0.5183 -0.0541  0.2444
  672MOL0     H88677  11.402   7.806  11.453 -2.5263  0.0015  1.7661
  672MOL0     H88678  11.198   7.612  11.338 -4.8274  0.6036  0.9789
  672MOL0     H88679  11.226   7.764  11.272 -2.0307 -2.4288  0.2571
  672MOL0     H88680  11.163   7.847  11.516  0.6200  0.0359 -1.7424
  672MOL0     H88681  11.124   7.675  11.551  3.1542 -0.0417  1.3448
  672MOL0     H88682  11.003   7.875  11.361 -0.7209 -0.0962 -2.4300
  672MOL0     H88683  10.993   7.695  11.326  3.4510  3.7733 -3.5525
  672MOL0     H88684  10.896   7.852  11.584  1.4634 -0.1377  0.6018
  672MOL0     H88685  10.901   7.679  11.574 -1.5400  0.1770 -0.6701
  672MOL0     H88686  11.784   7.339  11.101 -1.7642  2.3368  2.1374
  672MOL0     H88687  11.962   7.267  10.967 -0.1430  0.1813 -1.6043
  672MOL0     H88688  12.174   7.556  10.501 -1.2768 -1.5247  0.5414
  672MOL0     H88689  12.349   7.500  10.330 -0.1695 -3.7962 -1.3792
  672MOL0     H88690  11.771   6.468   8.943  2.4320 -1.9911 -0.8463
  672MOL0     H88691  11.591   6.300   8.876  4.3980  1.0330 -0.1788
  672MOL0     H88692  11.500   5.899   8.910 -0.6401 -0.9995  2.6899
  672MOL0     H88693  11.404   5.689   8.816  1.4154  1.5375 -0.2536
  672MOL0     H88694  11.237   5.510   8.850 -0.8195 -1.4198  0.7109
  672MOL0     H88695  11.144   5.464   8.714  1.9469 -2.0578  1.8026
  672MOL0     H88696  11.009   5.568   8.969  2.8170  0.1111  1.0016
  672MOL0     H88697  10.937   5.460   8.843 -0.5654 -1.1961  1.6505
  672MOL0     H88698  11.181   5.384   9.023 -0.6414  1.5393  0.0172
  672MOL0     H88699  11.103   5.278   8.907  1.7417  1.8136 -0.9582
  672MOL0     H88700  10.951   5.389   9.145  1.0612  1.5318 -1.2536
  672MOL0     H88701  10.887   5.279   9.022  0.4208 -1.3140 -1.6136
  672MOL0     H88702  11.113   5.019   9.269  3.2079  1.1512  1.7847
  672MOL0     H88703  11.007   5.872   8.855  0.4240  1.4257 -1.9206
  672MOL0     H88704  11.095   6.029   8.998  0.6922  0.7731  1.0725
  673MOL0     O88705   7.401   4.144   6.785 -0.9333 -0.5131 -0.4043
  673MOL0     C88706   7.378   4.029   6.744  0.3560 -0.3155 -0.3346
  673MOL0     O88707   7.374   3.914   6.821  0.2926  0.2441 -0.3770
  673MOL0     C88708   7.381   3.923   6.959 -0.2609 -1.3725 -0.2586
  673MOL0     C88709   7.280   3.884   7.051  0.2270 -1.0894  1.2018
  673MOL0     C88710   7.275   3.921   7.182 -0.5776  1.0784  0.6042
  673MOL0     C88711   7.383   3.997   7.235 -0.6561  0.5652  0.7749
  673MOL0     O88712   7.404   4.008   7.363 -0.1470  0.2835 -0.3849
  673MOL0     C88713   7.329   3.917   7.456 -0.2962  0.0842  0.5659
  673MOL0     C88714   7.376   3.953   7.597 -0.1852 -0.7565  0.5868
  673MOL0     C88715   7.520   3.944   7.624  0.2392 -0.5264 -0.7786
  673MOL0     C88716   7.551   4.014   7.755  0.6321  0.2272 -0.5195
  673MOL0     C88717   7.697   4.037   7.775 -0.6232  0.7560  0.7718
  673MOL0     C88718   7.725   4.062   7.921  0.6060  0.4080  0.3734
  673MOL0     C88719   7.873   4.089   7.939 -0.3381 -0.7188  0.2267
  673MOL0     C88720   7.912   4.117   8.078  0.0159 -0.1906 -0.2155
  673MOL0     N88721   8.051   4.170   8.095 -0.0199  0.3124  0.2497
  673MOL0     C88722   8.108   4.294   8.079 -0.9337 -0.6938  0.5298
  673MOL0     C88723   8.251   4.280   8.101  0.5404 -0.0623  0.2151
  673MOL0     C88724   8.342   4.391   8.116  0.5791  0.1128  0.4277
  673MOL0     C88725   8.480   4.348   8.147  0.4300 -0.2977 -0.4553
  673MOL0     C88726   8.561   4.308   8.022 -0.3722  0.4707  0.5270
  673MOL0     C88727   8.709   4.321   8.057  1.2627 -0.6467  0.1955
  673MOL0     O88728   8.760   4.440   8.121  0.3987 -1.1770 -0.3140
  673MOL0     C88729   8.895   4.453   8.156  0.6959 -0.0882  0.6701
  673MOL0     C88730   8.986   4.354   8.161 -0.5507 -0.1642  0.4527
  673MOL0     C88731   9.123   4.386   8.173 -0.6490  0.3620 -0.2283
  673MOL0     C88732   9.165   4.517   8.206  0.4661  0.5066  0.6581
  673MOL0     C88733   9.313   4.545   8.232  0.1920 -0.3875  0.4207
  673MOL0     O88734   9.406   4.451   8.207 -0.3424 -0.6164  0.5386
  673MOL0     C88735   9.540   4.477   8.234  0.6006  0.1503 -0.4086
  673MOL0     C88736   9.609   4.584   8.171  0.5956 -0.3812  0.9590
  673MOL0     C88737   9.750   4.595   8.183 -0.3121 -0.2697  0.0174
  673MOL0     C88738   9.814   4.505   8.281  0.1542 -1.1445  1.1377
  673MOL0     O88739   9.945   4.525   8.305  0.6858 -0.0088 -0.4685
  673MOL0     C88740   9.960   4.648   8.380  1.4357  0.6298  1.0028
  673MOL0     C88741   9.908   4.665   8.531  0.5680  0.8748  0.4937
  673MOL0     C88742   9.965   4.558   8.629  0.1610 -0.1350 -0.0040
  673MOL0     C88743   9.879   4.550   8.752  0.6514  0.2012  0.0328
  673MOL0     C88744   9.909   4.444   8.852  0.6581  0.0283 -1.1254
  673MOL0     C88745  10.036   4.487   8.924 -0.4749 -0.0578 -0.1294
  673MOL0     C88746  10.063   4.395   9.042 -0.5564 -0.4255  0.3749
  673MOL0     C88747  10.148   4.475   9.141 -0.0020 -1.2584 -0.1224
  673MOL0    Cl88748  10.206   4.365   9.268 -0.3059 -0.2014  0.6396
  673MOL0     C88749   9.747   4.390   8.328 -1.3473 -0.4015  0.1240
  673MOL0     C88750   9.613   4.376   8.302  0.4702 -0.1449 -0.2854
  673MOL0     O88751   9.332   4.646   8.296 -0.0556  0.0206  0.7755
  673MOL0     C88752   9.064   4.615   8.202  0.9564 -0.5106  0.2511
  673MOL0     C88753   8.933   4.586   8.174 -0.5297  0.0812  1.0119
  673MOL0     N88754   8.263   4.158   8.145  0.3910  0.1326 -0.1298
  673MOL0     N88755   8.150   4.093   8.145  0.3834 -0.1769  0.2473
  673MOL0     C88756   7.498   4.014   7.157  0.3519 -0.6557  0.0682
  673MOL0     C88757   7.499   3.981   7.016  0.4112  0.1788 -0.0714
  673MOL0     C88758   7.311   4.020   6.610  0.5851 -0.4459  0.4262
  673MOL0     C88759   7.307   4.135   6.523  0.5767 -0.1552 -0.1916
  673MOL0     C88760   7.247   4.128   6.395 -0.1138  0.3239 -0.1759
  673MOL0     C88761   7.174   4.013   6.359 -0.1588  0.1887  0.0688
  673MOL0     O88762   7.133   3.973   6.232  0.0841  0.6408  0.1915
  673MOL0     C88763   7.110   4.060   6.123 -0.4093 -0.4370  0.4787
  673MOL0     C88764   7.034   3.991   6.007  0.5322 -0.7691 -0.4120
  673MOL0     C88765   6.911   3.914   6.036  0.7227 -0.7220  0.1600
  673MOL0     C88766   6.836   3.887   5.910  0.2821 -0.8802 -0.3768
  673MOL0     C88767   6.715   3.825   5.958 -0.0374  0.5741  0.8798
  673MOL0     C88768   6.618   3.759   5.989  0.3850  0.3470 -0.4689
  673MOL0     C88769   7.174   3.908   6.448 -0.3839  0.3504 -0.6593
  673MOL0     C88770   7.244   3.904   6.569  1.1185  0.7631  1.1847
  673MOL0     H88771   7.198   3.827   7.008  0.7153 -0.0849 -1.2380
  673MOL0     H88772   7.188   3.886   7.238 -0.3618 -4.4374 -1.8287
  673MOL0     H88773   7.377   3.820   7.437  2.6786  1.6398 -0.4944
  673MOL0     H88774   7.222   3.914   7.435 -0.1068  2.5725 -1.2266
  673MOL0     H88775   7.329   3.882   7.666 -0.7045 -0.1596  0.8484
  673MOL0     H88776   7.333   4.052   7.609  0.1483 -0.4063 -0.9398
  673MOL0     H88777   7.577   3.997   7.547  0.2715  0.0129 -0.3888
  673MOL0     H88778   7.562   3.843   7.631 -1.1394 -1.3110 -2.8587
  673MOL0     H88779   7.488   4.101   7.770 -0.3398  0.1645 -3.6332
  673MOL0     H88780   7.511   3.940   7.825  4.2712 -0.3986  1.1808
  673MOL0     H88781   7.745   4.100   7.700 -1.1657 -0.3154 -0.5048
  673MOL0     H88782   7.736   3.936   7.761 -0.5987  0.3873  3.0320
  673MOL0     H88783   7.696   3.982   7.989  0.2875 -1.7258 -2.1161
  673MOL0     H88784   7.676   4.156   7.949 -0.1282  0.6187 -1.4630
  673MOL0     H88785   7.927   4.003   7.897  0.2169  0.5125 -1.7477
  673MOL0     H88786   7.886   4.175   7.873 -3.7298  0.5593  1.0042
  673MOL0     H88787   7.898   4.022   8.130 -1.8012  0.0092 -0.2534
  673MOL0     H88788   7.839   4.192   8.111 -2.0686 -1.7720 -0.9842
  673MOL0     H88789   8.066   4.394   8.068  0.3466 -0.0099  1.5700
  673MOL0     H88790   8.296   4.453   8.194 -3.9514  0.0821 -1.9010
  673MOL0     H88791   8.347   4.443   8.020 -1.0608 -4.7382 -2.6600
  673MOL0     H88792   8.476   4.271   8.224  1.7784 -1.1916 -1.2464
  673MOL0     H88793   8.519   4.438   8.196 -3.0276  0.3699  1.4385
  673MOL0     H88794   8.554   4.201   7.999 -3.0105  1.1120 -2.3215
  673MOL0     H88795   8.538   4.357   7.927 -0.9834 -1.4449 -0.3603
  673MOL0     H88796   8.769   4.299   7.968  1.5368 -0.5989  0.3678
  673MOL0     H88797   8.728   4.235   8.121 -0.7034  1.9206  4.6574
  673MOL0     H88798   8.956   4.250   8.156  1.7812 -0.9158  0.8921
  673MOL0     H88799   9.200   4.309   8.173 -0.3339  0.4122  4.2835
  673MOL0     H88800   9.551   4.637   8.097  0.1205 -2.9186 -0.5901
  673MOL0     H88801   9.804   4.682   8.149 -0.7277  0.1468  0.4121
  673MOL0     H88802   9.922   4.729   8.317  3.4617  0.0916 -1.0464
  673MOL0     H88803  10.068   4.660   8.388  1.3659  1.7538  0.5512
  673MOL0     H88804   9.799   4.658   8.536  0.6411 -0.9882  0.3471
  673MOL0     H88805   9.947   4.763   8.558  1.5164  2.6209 -5.6539
  673MOL0     H88806  10.069   4.570   8.659  0.6605 -2.3215 -0.6989
  673MOL0     H88807   9.963   4.462   8.577 -0.2925 -1.5831  2.5733
  673MOL0     H88808   9.868   4.654   8.785 -0.1672  0.8625 -2.1503
  673MOL0     H88809   9.782   4.517   8.714  1.1338 -0.4408 -0.6654
  673MOL0     H88810   9.897   4.340   8.821 -1.4936 -0.3886  0.7952
  673MOL0     H88811   9.829   4.452   8.927  2.9396  1.8019  1.3294
  673MOL0     H88812  10.021   4.589   8.960  0.6401  0.4716 -1.0744
  673MOL0     H88813  10.127   4.495   8.864  1.0718  0.8726  2.2004
  673MOL0     H88814   9.968   4.366   9.088  1.5589 -1.3553  4.6461
  673MOL0     H88815  10.128   4.314   9.007 -0.9010  0.7244 -3.4457
  673MOL0     H88816  10.087   4.551   9.191 -0.2062 -0.0890 -2.0361
  673MOL0     H88817  10.221   4.534   9.086 -3.2716  2.0930 -1.3024
  673MOL0     H88818   9.794   4.314   8.389  1.1454 -0.1264 -1.3230
  673MOL0     H88819   9.554   4.290   8.335 -0.1858  0.4191  0.0383
  673MOL0     H88820   9.091   4.719   8.216 -4.0208  0.9764  0.7516
  673MOL0     H88821   8.855   4.662   8.170 -0.1831  0.4978  1.8147
  673MOL0     H88822   7.590   4.054   7.199  0.9378 -2.5308  0.6637
  673MOL0     H88823   7.587   4.005   6.957 -0.6327  2.1705 -0.8921
  673MOL0     H88824   7.357   4.227   6.550 -1.9952  1.1408  0.4939
  673MOL0     H88825   7.253   4.214   6.329  2.9516  0.1430 -0.2729
  673MOL0     H88826   7.205   4.098   6.083 -0.4299 -0.8651  0.0046
  673MOL0     H88827   7.056   4.145   6.166  1.8910 -0.1959  3.2062
  673MOL0     H88828   7.020   4.075   5.938  3.2616  2.2928  2.4087
  673MOL0     H88829   7.109   3.921   5.970 -0.9967 -3.2806  1.0007
  673MOL0     H88830   6.855   3.987   6.095  1.9232  0.3293  0.0500
  673MOL0     H88831   6.937   3.827   6.098  2.6918  0.6519  1.3876
  673MOL0     H88832   6.814   3.974   5.848 -0.8219 -2.2088 -1.9362
  673MOL0     H88833   6.885   3.807   5.854  1.6066 -1.0587  0.9460
  673MOL0     H88834   6.533   3.707   6.028  0.7535 -0.6585 -0.9655
  673MOL0     H88835   7.101   3.835   6.416  0.0984  1.0204 -3.6622
  673MOL0     H88836   7.242   3.812   6.628  0.1848  0.3849  0.5902
  674MOL0     O88837   0.163   8.989   6.336  0.8267  0.2534  0.2903
  674MOL0     C88838   0.052   9.042   6.357 -0.7272  0.5907 -0.1643
  674MOL0     O88839   0.034   9.156   6.425 -0.5758  0.0618  0.3208
  674MOL0     C88840   0.132   9.250   6.441 -0.2119  0.0917 -1.2288
  674MOL0     C88841   0.257   9.223   6.498 -0.0287 -0.6008  0.0444
  674MOL0     C88842   0.349   9.323   6.528  0.6150  0.8398 -0.2338
  674MOL0     C88843   0.315   9.456   6.507  0.2030  0.1119  0.3350
  674MOL0     O88844   0.409   9.550   6.531  0.0754  0.7225  0.2431
  674MOL0     C88845   0.417   9.672   6.462 -0.3484 -0.1639  0.3943
  674MOL0     C88846   0.531   9.756   6.523 -0.1556 -0.0858 -0.1545
  674MOL0     C88847   0.501   9.809   6.661  0.5786 -0.4217 -0.5369
  674MOL0     C88848   0.612   9.906   6.717 -0.4268 -0.7230  0.9571
  674MOL0     C88849   0.578   9.968   6.859  0.4641  0.1372  0.1712
  674MOL0     C88850   0.674  10.077   6.891 -0.0984  0.7747 -0.4032
  674MOL0     C88851   0.658  10.146   7.022  0.1383  0.6662 -0.0808
  674MOL0     C88852   0.746  10.277   7.019 -0.0706  1.2325 -0.4778
  674MOL0     N88853   0.669  10.402   7.029 -0.1118 -0.2602  0.1244
  674MOL0     C88854   0.749  10.509   7.065  0.3358 -0.2113 -0.0383
  674MOL0     C88855   0.688  10.619   7.004 -0.2285 -1.1043  1.0241
  674MOL0     C88856   0.728  10.765   7.021 -0.2069  0.4570 -0.8609
  674MOL0     C88857   0.800  10.808   7.151 -0.4785  0.0269  0.8250
  674MOL0     C88858   0.954  10.834   7.139  0.0308  0.3690 -0.2921
  674MOL0     C88859   1.013  10.895   7.270  0.1737 -0.0158 -0.3672
  674MOL0     O88860   0.961  11.027   7.295  0.5050 -0.1702  0.0019
  674MOL0     C88861   0.999  11.141   7.219  1.1726 -0.3999 -0.4757
  674MOL0     C88862   0.911  11.252   7.230  0.1889 -0.1415  0.3665
  674MOL0     C88863   0.952  11.363   7.154 -0.2853  0.3776  0.2076
  674MOL0     C88864   1.066  11.365   7.077  0.8002 -0.2433 -0.4991
  674MOL0     C88865   1.095  11.485   6.995  0.5113 -0.2076 -1.2080
  674MOL0     O88866   1.221  11.482   6.932  0.4261  0.4103 -0.5540
  674MOL0     C88867   1.241  11.570   6.829 -0.0966  0.3113 -0.5383
  674MOL0     C88868   1.250  11.704   6.862 -0.9808  0.1560  0.2603
  674MOL0     C88869   1.257  11.806   6.758 -0.7455  0.4925  0.0640
  674MOL0     C88870   1.246  11.762   6.623  0.0472  0.3182  0.7461
  674MOL0     O88871   1.246  11.857   6.522 -0.3228 -0.2304  0.6667
  674MOL0     C88872   1.198  11.829   6.392  0.3841  0.4190 -0.2882
  674MOL0     C88873   1.180  11.960   6.327  0.5362  0.2304  0.2316
  674MOL0     C88874   1.164  11.952   6.182  0.2314  0.4825 -0.5274
  674MOL0     C88875   1.044  11.879   6.128 -0.6245  0.4238  0.9611
  674MOL0     C88876   1.072  11.732   6.101 -0.7487 -0.8003  0.1945
  674MOL0     C88877   0.949  11.634   6.112 -0.1183  0.2760 -0.3810
  674MOL0     C88878   0.984  11.491   6.078 -0.4130  0.2085  0.5733
  674MOL0     C88879   0.867  11.397   6.062 -0.3568  0.6049 -0.5237
  674MOL0    Cl88880   0.766  11.404   6.209 -0.0834 -0.2240 -0.0643
  674MOL0     C88881   1.223  11.619   6.601  0.0381 -0.8220  0.7702
  674MOL0     C88882   1.228  11.526   6.701 -0.3884 -0.4278 -0.9098
  674MOL0     O88883   1.021  11.584   7.005  0.3789 -0.4400  0.3496
  674MOL0     C88884   1.145  11.251   7.066 -0.4104 -0.3348  0.8020
  674MOL0     C88885   1.120  11.140   7.137  0.4465 -0.4224 -0.3816
  674MOL0     N88886   0.579  10.566   6.944 -0.1405  0.0425  0.7265
  674MOL0     N88887   0.559  10.429   6.961 -0.1438 -1.0571 -0.3585
  674MOL0     C88888   0.188   9.490   6.475 -0.3179 -0.1993 -0.1189
  674MOL0     C88889   0.088   9.387   6.447 -0.2033  0.3728 -0.1247
  674MOL0     C88890  -0.056   8.977   6.291 -0.0755  0.0982 -0.1075
  674MOL0     C88891  -0.044   8.846   6.245  0.5884 -0.2741  0.6695
  674MOL0     C88892  -0.154   8.780   6.191  0.4056  0.4551 -0.0646
  674MOL0     C88893  -0.274   8.855   6.173 -0.1729  0.8739  0.7357
  674MOL0     O88894  -0.392   8.793   6.141 -0.5221 -0.3436  0.5877
  674MOL0     C88895  -0.372   8.667   6.061  0.1736 -0.9098  0.6052
  674MOL0     C88896  -0.506   8.631   5.991  0.5516 -0.0059 -0.1284
  674MOL0     C88897  -0.596   8.570   6.100 -0.1832 -1.1176 -0.7930
  674MOL0     C88898  -0.735   8.504   6.054 -0.3925  0.1830 -0.0531
  674MOL0     C88899  -0.837   8.598   5.996 -0.6810 -0.7959  0.1654
  674MOL0     C88900  -0.920   8.671   5.946  0.1712 -0.3895 -0.4469
  674MOL0     C88901  -0.280   8.991   6.202  0.8862  0.2338 -0.7020
  674MOL0     C88902  -0.175   9.046   6.272 -0.9297  0.3733  0.0784
  674MOL0     H88903   0.274   9.118   6.521 -0.1737 -0.2321  1.9436
  674MOL0     H88904   0.446   9.288   6.561  0.6544  1.2186  0.0611
  674MOL0     H88905   0.318   9.715   6.474  0.0478  0.7699  0.3677
  674MOL0     H88906   0.436   9.664   6.355 -0.0505 -1.1271  0.5051
  674MOL0     H88907   0.542   9.832   6.445  0.3286 -0.1884 -0.1875
  674MOL0     H88908   0.629   9.707   6.523 -0.9905 -1.8685  1.6663
  674MOL0     H88909   0.471   9.731   6.731 -0.9973  0.4250 -0.2173
  674MOL0     H88910   0.417   9.878   6.649  1.0777  0.5477  1.2977
  674MOL0     H88911   0.717   9.874   6.708  0.2211  1.6595 -1.5074
  674MOL0     H88912   0.622   9.992   6.650  0.7455 -1.5291  0.0513
  674MOL0     H88913   0.582   9.899   6.944  4.2126  1.0261  0.8718
  674MOL0     H88914   0.481  10.017   6.848  0.7688  0.4379 -1.4505
  674MOL0     H88915   0.669  10.162   6.823  2.2446 -0.1118 -1.8048
  674MOL0     H88916   0.777  10.041   6.885  0.1149  1.0507  1.1076
  674MOL0     H88917   0.551  10.149   7.043  0.1161 -0.2846  0.0242
  674MOL0     H88918   0.693  10.075   7.098  2.8020  1.4691 -0.4384
  674MOL0     H88919   0.804  10.274   6.926  1.7717 -1.2186  0.6518
  674MOL0     H88920   0.819  10.265   7.099 -0.6208  3.8402  0.5234
  674MOL0     H88921   0.839  10.507   7.126  0.1041  3.2285  0.5964
  674MOL0     H88922   0.636  10.825   7.014 -1.8356 -1.5850  1.2805
  674MOL0     H88923   0.791  10.787   6.935 -0.8180  1.3065 -1.1037
  674MOL0     H88924   0.793  10.724   7.221  1.8343 -2.9556 -2.1867
  674MOL0     H88925   0.751  10.898   7.189 -1.8688 -0.4808  0.3018
  674MOL0     H88926   1.009  10.741   7.122  0.8791  0.4585  1.7006
  674MOL0     H88927   0.979  10.903   7.058  2.7102  1.1129  1.0808
  674MOL0     H88928   1.122  10.884   7.271  0.3919  1.8114  0.0838
  674MOL0     H88929   0.972  10.848   7.360  1.2911  2.6750  1.6956
  674MOL0     H88930   0.833  11.257   7.305 -0.5455  1.3695 -0.4612
  674MOL0     H88931   0.885  11.448   7.164 -4.0779 -2.4612  1.2736
  674MOL0     H88932   1.256  11.751   6.959 -0.1928 -1.6876  1.1586
  674MOL0     H88933   1.259  11.910   6.791 -1.1736  0.8221 -0.8922
  674MOL0     H88934   1.102  11.778   6.402  1.2114 -0.8715  2.1239
  674MOL0     H88935   1.273  11.778   6.330 -0.1815 -1.7746  0.7381
  674MOL0     H88936   1.274  12.016   6.335  1.0333  0.0969 -3.2282
  674MOL0     H88937   1.097  12.017   6.368  0.0006  1.9615 -2.9183
  674MOL0     H88938   1.258  11.916   6.138  0.7299  1.5797 -0.4132
  674MOL0     H88939   1.144  12.058   6.163 -3.1135 -0.0705 -0.5707
  674MOL0     H88940   0.953  11.868   6.188  0.0112 -2.6917  1.5232
  674MOL0     H88941   1.019  11.924   6.031  1.1342 -1.8214 -0.6239
  674MOL0     H88942   1.156  11.695   6.160 -0.0988 -0.3116 -0.4064
  674MOL0     H88943   1.116  11.726   6.001  0.4911 -1.3774  0.7536
  674MOL0     H88944   0.864  11.649   6.045  0.0901 -0.4626 -0.8236
  674MOL0     H88945   0.915  11.642   6.215  1.0705 -0.5687  0.0968
  674MOL0     H88946   1.034  11.492   5.981 -4.1281  1.5615 -1.5312
  674MOL0     H88947   1.055  11.447   6.149 -1.0674  1.5485  2.1263
  674MOL0     H88948   0.904  11.294   6.055 -0.7296  0.3353  1.0604
  674MOL0     H88949   0.805  11.419   5.975 -2.3405 -1.9573  0.1054
  674MOL0     H88950   1.242  11.593   6.497 -2.2665 -0.2246  0.1545
  674MOL0     H88951   1.238  11.418   6.689  0.1649 -0.5005  0.1179
  674MOL0     H88952   1.219  11.249   6.986 -0.6221  0.8178  0.5639
  674MOL0     H88953   1.177  11.049   7.118  0.6391 -0.3162 -0.3168
  674MOL0     H88954   0.152   9.592   6.481  3.2354  1.4304 -2.8560
  674MOL0     H88955  -0.014   9.415   6.422 -0.7038  1.2435  2.5714
  674MOL0     H88956   0.042   8.781   6.253 -0.0725 -0.9938  2.4491
  674MOL0     H88957  -0.140   8.676   6.164 -0.5329 -0.2178  1.8872
  674MOL0     H88958  -0.345   8.593   6.137 -3.8220  1.2989  4.6306
  674MOL0     H88959  -0.290   8.671   5.988 -0.5515  0.7490 -0.1749
  674MOL0     H88960  -0.550   8.725   5.955 -2.0399 -0.5772  1.2603
  674MOL0     H88961  -0.491   8.564   5.906  1.4155 -0.3192  0.2606
  674MOL0     H88962  -0.595   8.643   6.181  2.7524  1.6938 -3.0874
  674MOL0     H88963  -0.527   8.490   6.130  4.6134  2.9641  0.3821
  674MOL0     H88964  -0.709   8.428   5.980  1.3569 -0.8255  1.5030
  674MOL0     H88965  -0.789   8.449   6.131 -1.2211 -0.0090 -0.7607
  674MOL0     H88966  -0.996   8.722   5.891 -3.1567  0.8674  4.6556
  674MOL0     H88967  -0.366   9.051   6.175 -1.0335 -2.8198 -1.8210
  674MOL0     H88968  -0.187   9.150   6.301 -0.9135  0.6299 -0.8198
  675MOL0     O88969   6.576   2.159   9.297 -0.1110  0.1979 -0.4366
  675MOL0     C88970   6.488   2.085   9.329  0.5690 -0.4895  0.9437
  675MOL0     O88971   6.360   2.093   9.287  0.7100  0.4684 -0.2504
  675MOL0     C88972   6.315   2.218   9.238  0.2273 -0.7052 -0.5833
  675MOL0     C88973   6.306   2.325   9.321 -0.1437 -0.3370 -0.8203
  675MOL0     C88974   6.266   2.445   9.261  0.1361 -0.4092  0.3590
  675MOL0     C88975   6.235   2.457   9.125 -0.0347 -0.6814  0.3110
  675MOL0     O88976   6.201   2.573   9.057 -0.0846 -0.8433 -0.7870
  675MOL0     C88977   6.105   2.659   9.128 -0.0746  0.9121  0.4966
  675MOL0     C88978   6.110   2.800   9.079 -0.3172 -0.4336 -1.0393
  675MOL0     C88979   6.100   2.895   9.195 -0.1131 -0.4087 -1.2822
  675MOL0     C88980   6.088   3.034   9.160 -0.0395 -0.1577 -0.3571
  675MOL0     C88981   6.126   3.118   9.283 -0.3043 -0.1329  0.9191
  675MOL0     C88982   6.049   3.095   9.415  0.1483 -0.0656 -0.6397
  675MOL0     C88983   6.087   3.202   9.518  1.1103 -0.1360 -0.3431
  675MOL0     C88984   5.998   3.191   9.643  0.3603 -0.3206  0.4240
  675MOL0     N88985   6.038   3.304   9.728  0.4146 -0.8778 -0.1174
  675MOL0     C88986   5.966   3.420   9.736  0.2806  0.3470 -0.6565
  675MOL0     C88987   6.059   3.500   9.787 -0.7605  0.0268  0.4703
  675MOL0     C88988   6.048   3.647   9.793  1.0357  0.0796  0.8244
  675MOL0     C88989   5.944   3.691   9.884  0.7961  0.0971 -0.6372
  675MOL0     C88990   5.910   3.839   9.876  0.2195  0.3162 -1.2640
  675MOL0     C88991   5.797   3.857   9.973  0.4941 -1.0588 -0.6353
  675MOL0     O88992   5.803   3.994  10.019  0.2060  0.8245  0.3463
  675MOL0     C88993   5.726   4.043  10.117  1.5544 -0.0026 -0.8464
  675MOL0     C88994   5.650   3.964  10.209 -0.1148  0.0772  1.0998
  675MOL0     C88995   5.572   4.032  10.312  0.8177  0.2649  0.8985
  675MOL0     C88996   5.560   4.174  10.314 -0.5119  0.3355  0.4891
  675MOL0     C88997   5.490   4.250  10.416  0.0654 -0.6169 -0.5847
  675MOL0     O88998   5.387   4.180  10.483 -0.8784 -0.3615 -0.4109
  675MOL0     C88999   5.306   4.257  10.566  0.4893  0.4799  0.2557
  675MOL0     C89000   5.351   4.315  10.683 -0.9288  0.1960  0.2257
  675MOL0     C89001   5.267   4.382  10.770 -0.4025 -1.2262  0.5647
  675MOL0     C89002   5.142   4.412  10.731 -0.2106  0.3116 -1.4648
  675MOL0     O89003   5.059   4.483  10.814  0.7613  0.8599  1.3094
  675MOL0     C89004   5.088   4.535  10.940 -0.7100 -0.5530 -0.5504
  675MOL0     C89005   4.960   4.552  11.017 -0.1233  0.2083 -0.3091
  675MOL0     C89006   4.933   4.702  11.043 -0.9643 -0.5358 -0.2696
  675MOL0     C89007   4.883   4.713  11.184  0.2799 -0.3135 -0.8163
  675MOL0     C89008   4.848   4.856  11.229 -0.9893  0.0881  0.7427
  675MOL0     C89009   4.831   4.861  11.372  1.1469 -0.2122  0.5057
  675MOL0     C89010   4.715   4.961  11.403 -0.4210  1.1227  0.5504
  675MOL0     C89011   4.703   4.984  11.553  0.4810 -0.1665  0.6563
  675MOL0    Cl89012   4.714   4.834  11.647  0.2370 -0.0681 -0.5226
  675MOL0     C89013   5.094   4.360  10.616  0.0653  0.4528 -0.1532
  675MOL0     C89014   5.171   4.283  10.531 -0.1299  0.4369 -0.5915
  675MOL0     O89015   5.517   4.376  10.437  0.8384 -0.1223  0.1659
  675MOL0     C89016   5.637   4.251  10.221 -0.6680  0.4134 -0.2304
  675MOL0     C89017   5.713   4.181  10.119  0.9987  0.1579 -0.4982
  675MOL0     N89018   6.172   3.434   9.832  0.8024  0.4182  0.1252
  675MOL0     N89019   6.165   3.320   9.789  0.5438  0.2138  0.5344
  675MOL0     C89020   6.231   2.339   9.054 -0.4943 -0.3764 -0.5109
  675MOL0     C89021   6.267   2.217   9.107  0.4752  0.8780 -0.1449
  675MOL0     C89022   6.517   1.975   9.428  0.3299  0.4773  0.3332
  675MOL0     C89023   6.646   1.941   9.456  0.9164 -0.0845 -0.0537
  675MOL0     C89024   6.691   1.853   9.560 -0.6024 -0.4511  0.6860
  675MOL0     C89025   6.584   1.794   9.637  0.0382 -0.1655 -0.2602
  675MOL0     O89026   6.613   1.719   9.744 -0.3693  0.0644 -0.5010
  675MOL0     C89027   6.636   1.579   9.717  0.9636  0.0762  0.0198
  675MOL0     C89028   6.749   1.526   9.818 -0.1738  0.0760  1.1749
  675MOL0     C89029   6.675   1.466   9.939 -0.4490 -0.1181  0.8498
  675MOL0     C89030   6.756   1.397  10.050  0.4646 -0.9068 -0.2638
  675MOL0     C89031   6.816   1.276  10.001 -0.7720  1.0195  0.3995
  675MOL0     C89032   6.863   1.168   9.959  0.2652  0.9460  0.9763
  675MOL0     C89033   6.445   1.822   9.612 -0.3568  0.9084 -0.3231
  675MOL0     C89034   6.415   1.911   9.508  0.2735 -0.2692  0.4896
  675MOL0     H89035   6.338   2.326   9.425 -0.1606 -0.0610 -0.8177
  675MOL0     H89036   6.255   2.528   9.331  3.3524  1.5980 -1.2755
  675MOL0     H89037   6.101   2.647   9.237  2.8188  0.4205  0.6239
  675MOL0     H89038   6.008   2.627   9.090 -1.0681  2.6786  1.4068
  675MOL0     H89039   6.022   2.811   9.014 -2.0444 -2.4234  0.8173
  675MOL0     H89040   6.207   2.823   9.034 -0.4063  1.7293 -0.2462
  675MOL0     H89041   6.185   2.878   9.261 -1.2305 -0.9599  0.0704
  675MOL0     H89042   6.010   2.865   9.250  0.5109 -0.1260 -0.0826
  675MOL0     H89043   6.160   3.066   9.083  1.9517 -1.2027  0.9835
  675MOL0     H89044   5.989   3.062   9.124 -0.0141 -0.6459 -0.8269
  675MOL0     H89045   6.123   3.225   9.258 -1.3168 -0.1166  1.0640
  675MOL0     H89046   6.229   3.085   9.299 -0.2725 -0.0197  0.9506
  675MOL0     H89047   6.064   2.993   9.450  1.4901 -0.2544 -1.6748
  675MOL0     H89048   5.942   3.107   9.395 -0.0511 -0.6069  0.0624
  675MOL0     H89049   6.193   3.199   9.545  1.6177 -0.9005 -2.2232
  675MOL0     H89050   6.078   3.301   9.473  2.1115  0.5412  0.9181
  675MOL0     H89051   6.008   3.093   9.690  0.2614 -0.6245 -0.1836
  675MOL0     H89052   5.892   3.193   9.616  0.3559 -3.0794  0.0070
  675MOL0     H89053   5.867   3.426   9.693  0.2681 -1.4803 -0.9640
  675MOL0     H89054   6.003   3.679   9.698 -1.9823 -2.0347  1.4019
  675MOL0     H89055   6.147   3.693   9.803  0.2749  1.4591  2.5901
  675MOL0     H89056   5.963   3.671   9.990 -3.4938  3.0496  0.9761
  675MOL0     H89057   5.847   3.650   9.854  2.3388 -2.3365 -2.6508
  675MOL0     H89058   5.994   3.892   9.922 -1.3806  0.2371  2.0401
  675MOL0     H89059   5.883   3.863   9.773 -0.1549 -1.6040 -1.6462
  675MOL0     H89060   5.807   3.788  10.058  1.0739  1.4797  1.5181
  675MOL0     H89061   5.696   3.845   9.934  0.4431 -0.3037 -0.7550
  675MOL0     H89062   5.666   3.857  10.203  3.0185  0.5114  0.0822
  675MOL0     H89063   5.545   3.970  10.397  0.6634 -0.8060  0.0978
  675MOL0     H89064   5.458   4.306  10.699 -0.5564  1.7007 -1.1375
  675MOL0     H89065   5.303   4.410  10.868 -2.7538  0.7558  0.9552
  675MOL0     H89066   5.120   4.638  10.923  0.4733 -0.3198  2.4943
  675MOL0     H89067   5.167   4.485  10.997 -0.3320 -0.9609 -1.4168
  675MOL0     H89068   4.953   4.485  11.103 -1.4468 -0.5856 -0.9872
  675MOL0     H89069   4.881   4.519  10.949  0.1844  1.0513 -1.0989
  675MOL0     H89070   4.853   4.744  10.981  0.7946  2.6226 -0.6404
  675MOL0     H89071   5.024   4.761  11.024  0.4091 -2.1211  1.0863
  675MOL0     H89072   4.798   4.645  11.192  0.6082 -1.0787 -3.0079
  675MOL0     H89073   4.960   4.682  11.255 -0.8610 -0.5159  0.3714
  675MOL0     H89074   4.761   4.893  11.174  0.2157  3.3585  0.8302
  675MOL0     H89075   4.925   4.930  11.207 -0.5664  1.7880  6.3264
  675MOL0     H89076   4.929   4.883  11.416  0.4622 -0.5379  2.2852
  675MOL0     H89077   4.808   4.760  11.407  0.6605 -1.0242 -1.9456
  675MOL0     H89078   4.729   5.056  11.351 -1.4473  0.2561 -1.4198
  675MOL0     H89079   4.621   4.918  11.366  0.5271 -2.0692  1.5263
  675MOL0     H89080   4.606   5.029  11.578 -0.2272 -0.3988 -1.4640
  675MOL0     H89081   4.787   5.038  11.598  0.4120 -1.7609  2.9120
  675MOL0     H89082   4.992   4.390  10.591 -0.6673 -1.0457  0.8472
  675MOL0     H89083   5.132   4.268  10.430 -0.3176 -0.7669 -0.3545
  675MOL0     H89084   5.643   4.359  10.230  1.6791  0.4089 -1.1006
  675MOL0     H89085   5.761   4.238  10.040 -1.0133  0.4354 -1.5685
  675MOL0     H89086   6.193   2.340   8.952 -2.5082  0.5745  0.1838
  675MOL0     H89087   6.280   2.136   9.035  1.9748  1.5284 -0.6636
  675MOL0     H89088   6.715   2.002   9.399 -0.3332  2.6376  1.1396
  675MOL0     H89089   6.795   1.826   9.574 -0.0656  1.2166  0.1871
  675MOL0     H89090   6.670   1.552   9.617  2.3175 -2.0771  0.9731
  675MOL0     H89091   6.543   1.524   9.739  1.6965 -1.4697 -0.6263
  675MOL0     H89092   6.818   1.451   9.778 -0.1886 -0.4557  2.1259
  675MOL0     H89093   6.810   1.615   9.839 -1.5985  0.9113  1.9371
  675MOL0     H89094   6.601   1.388   9.920 -1.5741  0.2925  3.1131
  675MOL0     H89095   6.631   1.549   9.995  0.5368 -0.0260  1.5271
  675MOL0     H89096   6.821   1.479  10.081  1.6212 -1.0515 -2.2107
  675MOL0     H89097   6.692   1.359  10.130 -1.3173  2.7634  0.2740
  675MOL0     H89098   6.902   1.073   9.930 -1.8539 -1.5015  5.2178
  675MOL0     H89099   6.385   1.766   9.682  2.1007  1.1734  2.1891
  675MOL0     H89100   6.312   1.938   9.492  0.0135 -1.1811  0.5586
  676MOL0     O89101   9.832   3.778   7.895  0.1668 -0.0112  0.3081
  676MOL0     C89102   9.792   3.669   7.854 -0.0308  0.0597 -0.2006
  676MOL0     O89103   9.859   3.552   7.869  0.4432  0.0696  0.0121
  676MOL0     C89104   9.944   3.531   7.972  0.2697  0.3240 -0.1781
  676MOL0     C89105   9.938   3.588   8.102  1.1401 -1.0253  0.7231
  676MOL0     C89106  10.038   3.576   8.194  1.1221 -0.1089 -0.1267
  676MOL0     C89107  10.137   3.479   8.172  0.2167 -0.0445  0.1926
  676MOL0     O89108  10.222   3.430   8.269 -0.5401  0.0937  0.7574
  676MOL0     C89109  10.309   3.520   8.334  0.4288  0.0161  0.2905
  676MOL0     C89110  10.397   3.613   8.248 -0.9738  0.5175  1.3721
  676MOL0     C89111  10.447   3.715   8.347 -0.1493 -1.1773  0.3859
  676MOL0     C89112  10.543   3.803   8.276 -0.3549 -0.6870  0.8261
  676MOL0     C89113  10.582   3.910   8.377  0.4234 -0.1491  1.1885
  676MOL0     C89114  10.694   3.991   8.319 -0.1500  0.0727  0.7069
  676MOL0     C89115  10.721   4.100   8.430  0.0875 -0.2802 -0.9213
  676MOL0     C89116  10.773   4.042   8.565  0.7825  0.0043 -0.5094
  676MOL0     N89117  10.822   4.139   8.669  0.5229 -0.1998  0.8654
  676MOL0     C89118  10.846   4.267   8.639  0.2640  0.4956  0.2551
  676MOL0     C89119  10.916   4.315   8.748  1.2655  0.3852  0.1761
  676MOL0     C89120  10.988   4.452   8.774 -0.2701 -0.5087  0.8019
  676MOL0     C89121  11.058   4.504   8.646 -1.0045 -0.1389 -0.8891
  676MOL0     C89122  11.163   4.611   8.688 -0.0471  0.2170 -0.4615
  676MOL0     C89123  11.231   4.670   8.565  0.8209  0.0707 -1.0345
  676MOL0     O89124  11.314   4.568   8.527 -0.2622 -0.2204  0.1744
  676MOL0     C89125  11.290   4.496   8.412 -0.3629 -1.2302 -1.0280
  676MOL0     C89126  11.391   4.422   8.371  0.4119  0.9166 -0.0120
  676MOL0     C89127  11.380   4.340   8.254  0.2955 -0.0853 -0.1590
  676MOL0     C89128  11.272   4.340   8.175  0.5387 -0.0366  1.2123
  676MOL0     C89129  11.266   4.259   8.055  0.0173  1.1716  0.5767
  676MOL0     O89130  11.172   4.276   7.961  0.5581  1.3558  0.0629
  676MOL0     C89131  11.167   4.205   7.842  1.4435 -0.1347  0.5013
  676MOL0     C89132  11.033   4.224   7.785 -0.3918 -0.5055  0.2320
  676MOL0     C89133  11.013   4.177   7.651  0.3589 -0.1303 -0.0580
  676MOL0     C89134  11.107   4.101   7.581 -0.5842 -0.4581 -0.1609
  676MOL0     O89135  11.072   4.051   7.456 -0.3822 -0.2412 -0.3671
  676MOL0     C89136  11.149   3.938   7.410 -0.6952 -0.7379  0.6125
  676MOL0     C89137  11.094   3.901   7.268  0.2891 -0.0364 -0.7429
  676MOL0     C89138  11.150   3.769   7.225  0.2289  0.5286 -0.2627
  676MOL0     C89139  11.090   3.713   7.095 -0.4440  0.1116 -0.7769
  676MOL0     C89140  11.156   3.573   7.074 -0.0899  0.4030  0.9289
  676MOL0     C89141  11.115   3.478   7.178 -0.4485  0.3997 -0.7726
  676MOL0     C89142  11.155   3.326   7.141 -0.6505 -0.0544 -0.1072
  676MOL0     C89143  11.116   3.234   7.249 -0.1216  0.0062 -0.1023
  676MOL0    Cl89144  10.946   3.243   7.289  0.2539  0.1522  0.1125
  676MOL0     C89145  11.241   4.084   7.643  1.6515 -0.4658  0.2122
  676MOL0     C89146  11.266   4.143   7.768 -0.3983  0.5137  0.3823
  676MOL0     O89147  11.361   4.178   8.035  0.1647  0.5437 -0.2314
  676MOL0     C89148  11.169   4.435   8.200 -0.9858 -0.5596 -0.1838
  676MOL0     C89149  11.172   4.508   8.326 -0.4727  0.0532  0.6618
  676MOL0     N89150  10.917   4.206   8.843  0.9385 -0.3371 -0.4144
  676MOL0     N89151  10.862   4.101   8.789  0.8528 -0.3349 -0.5812
  676MOL0     C89152  10.153   3.422   8.045 -1.1307 -0.7866  0.4580
  676MOL0     C89153  10.053   3.451   7.947 -0.0478  0.6310  0.6536
  676MOL0     C89154   9.665   3.672   7.778 -0.9482 -0.6270 -0.5632
  676MOL0     C89155   9.573   3.578   7.800 -0.2832  0.8713 -0.7032
  676MOL0     C89156   9.450   3.580   7.729 -0.6140  0.6542  0.9564
  676MOL0     C89157   9.419   3.677   7.635  0.2892 -0.0245 -0.1923
  676MOL0     O89158   9.292   3.661   7.572 -0.5817 -0.4458 -0.0353
  676MOL0     C89159   9.234   3.762   7.489  0.3346  0.0482 -0.1323
  676MOL0     C89160   9.286   3.773   7.346  0.7628  0.4394  0.3691
  676MOL0     C89161   9.236   3.651   7.263  0.3576 -0.4046 -0.5782
  676MOL0     C89162   9.337   3.542   7.243 -0.1195 -0.8228 -0.5996
  676MOL0     C89163   9.302   3.460   7.130 -0.2093  0.7464  0.4471
  676MOL0     C89164   9.283   3.383   7.035  0.0555 -0.0986 -0.6594
  676MOL0     C89165   9.507   3.781   7.621 -0.2352  0.0774 -0.0041
  676MOL0     C89166   9.636   3.772   7.678  0.0369  0.2126 -0.5029
  676MOL0     H89167   9.846   3.639   8.126  0.3194 -1.1350 -1.8312
  676MOL0     H89168  10.018   3.626   8.288  0.0375  0.4540 -0.6407
  676MOL0     H89169  10.374   3.455   8.393 -0.5522 -1.3951 -0.1273
  676MOL0     H89170  10.247   3.593   8.389  1.4753  2.1728 -1.2678
  676MOL0     H89171  10.327   3.658   8.177 -0.6421  2.2453  2.0880
  676MOL0     H89172  10.475   3.558   8.194 -4.0258 -0.8977 -2.0284
  676MOL0     H89173  10.483   3.666   8.438 -1.0267 -1.2400  0.7145
  676MOL0     H89174  10.368   3.784   8.377  1.9464  0.4863  2.4284
  676MOL0     H89175  10.634   3.742   8.268  1.5062  1.9490  0.3476
  676MOL0     H89176  10.505   3.843   8.182 -0.5564 -0.5557  0.9621
  676MOL0     H89177  10.622   3.869   8.470 -0.8374 -1.3619  1.2099
  676MOL0     H89178  10.499   3.978   8.398  1.0662  1.4594 -1.0421
  676MOL0     H89179  10.659   4.039   8.228 -1.7812  1.3608  1.9539
  676MOL0     H89180  10.786   3.933   8.311 -1.5365 -2.0482 -0.8018
  676MOL0     H89181  10.803   4.162   8.395  2.4262 -1.5743  1.8391
  676MOL0     H89182  10.627   4.148   8.459 -1.2676 -1.9150 -2.3841
  676MOL0     H89183  10.853   3.970   8.543  1.2852  0.6439 -0.8306
  676MOL0     H89184  10.688   3.996   8.616 -0.7884  3.4591  0.2953
  676MOL0     H89185  10.841   4.322   8.546  0.6038  2.9436  1.5926
  676MOL0     H89186  11.047   4.438   8.865 -3.7970 -0.0284  3.4196
  676MOL0     H89187  10.911   4.524   8.806 -1.8547 -1.9268  0.3376
  676MOL0     H89188  10.979   4.536   8.578 -0.3841  1.4740 -0.8959
  676MOL0     H89189  11.106   4.419   8.597 -4.0605 -1.5858 -1.6156
  676MOL0     H89190  11.111   4.691   8.742 -0.3955 -0.3068 -0.0105
  676MOL0     H89191  11.232   4.570   8.762  1.6141  1.6749 -1.1395
  676MOL0     H89192  11.282   4.758   8.607  0.7295 -1.9091  3.7835
  676MOL0     H89193  11.157   4.713   8.496 -0.4007 -0.5827 -0.1566
  676MOL0     H89194  11.471   4.405   8.443 -0.3650 -0.5628  0.5546
  676MOL0     H89195  11.455   4.263   8.237 -0.8833 -1.0775 -1.0541
  676MOL0     H89196  10.958   4.277   7.843  0.1990  0.3345  0.2370
  676MOL0     H89197  10.914   4.191   7.608 -0.9180  0.5878  2.8100
  676MOL0     H89198  11.160   3.853   7.478 -1.3384 -2.1486 -1.0046
  676MOL0     H89199  11.249   3.979   7.390 -0.3956 -1.7670 -0.0499
  676MOL0     H89200  11.112   3.991   7.210 -3.2710  1.4536  0.1442
  676MOL0     H89201  10.986   3.879   7.274  0.2231  0.2082 -1.0798
  676MOL0     H89202  11.116   3.705   7.307 -0.8632  2.2473  0.6771
  676MOL0     H89203  11.258   3.780   7.220  0.1367  0.9699 -2.8760
  676MOL0     H89204  10.984   3.690   7.110 -0.5537  0.0752 -1.5937
  676MOL0     H89205  11.101   3.781   7.011 -0.4820  0.2082 -0.7032
  676MOL0     H89206  11.265   3.587   7.068 -0.1151  0.1712 -0.5628
  676MOL0     H89207  11.118   3.532   6.980 -1.0483  0.7375  1.1681
  676MOL0     H89208  11.007   3.473   7.189 -0.2118  0.4457  2.2681
  676MOL0     H89209  11.158   3.521   7.269 -2.0163  2.7706 -1.0651
  676MOL0     H89210  11.115   3.298   7.043  3.0663  1.8721 -2.4223
  676MOL0     H89211  11.262   3.305   7.129  0.3682  0.8506  5.1563
  676MOL0     H89212  11.177   3.265   7.335 -1.1845  0.3503  0.5531
  676MOL0     H89213  11.143   3.131   7.224 -2.0193 -2.2300  5.3562
  676MOL0     H89214  11.309   4.016   7.591 -0.9423 -1.4496 -2.1175
  676MOL0     H89215  11.366   4.131   7.809 -0.8098 -1.7764  0.8441
  676MOL0     H89216  11.086   4.440   8.130  1.0731 -2.0571 -2.8954
  676MOL0     H89217  11.085   4.572   8.339  0.0172  0.4899  1.9687
  676MOL0     H89218  10.241   3.366   8.016 -0.8618  0.3814 -1.1250
  676MOL0     H89219  10.071   3.421   7.845  2.5915  3.8492 -0.0031
  676MOL0     H89220   9.601   3.503   7.873  0.4577  1.8343  0.0291
  676MOL0     H89221   9.386   3.493   7.742  1.0306 -0.6815  0.4552
  676MOL0     H89222   9.248   3.858   7.538  1.8064 -2.0596  4.1478
  676MOL0     H89223   9.126   3.750   7.487  0.4900 -1.8260  0.1593
  676MOL0     H89224   9.240   3.858   7.295 -1.6639 -0.9985  0.0269
  676MOL0     H89225   9.395   3.765   7.338  0.6584 -4.4380  1.0521
  676MOL0     H89226   9.214   3.694   7.165 -2.6038  1.4519  0.7527
  676MOL0     H89227   9.140   3.617   7.303 -0.5942  0.2370 -2.1946
  676MOL0     H89228   9.439   3.578   7.226 -0.7147  0.3472 -1.8716
  676MOL0     H89229   9.347   3.476   7.330  3.0435  0.4932  0.1740
  676MOL0     H89230   9.258   3.313   6.958 -1.7132  0.9487 -1.0850
  676MOL0     H89231   9.475   3.854   7.547  1.5744 -1.0925 -2.0768
  676MOL0     H89232   9.704   3.852   7.654 -0.2002 -0.2778 -3.0680
  677MOL0     O89233   8.387   7.509   4.435  0.4755  0.6748  0.3581
  677MOL0     C89234   8.279   7.572   4.444 -1.0485  0.1904  0.3969
  677MOL0     O89235   8.268   7.685   4.513  0.3650 -0.4244 -0.6491
  677MOL0     C89236   8.361   7.724   4.598 -0.2872  0.1420 -0.0330
  677MOL0     C89237   8.385   7.674   4.734  0.2097 -0.4418  1.2640
  677MOL0     C89238   8.492   7.724   4.822  0.4642  0.7765  0.1201
  677MOL0     C89239   8.565   7.830   4.776  0.6523  1.1464 -0.2480
  677MOL0     O89240   8.668   7.887   4.850  1.0360  0.1221  0.1633
  677MOL0     C89241   8.636   7.897   4.989  0.0129  0.6269  0.7258
  677MOL0     C89242   8.737   7.977   5.061 -0.4686 -0.3284  0.1928
  677MOL0     C89243   8.878   7.915   5.070  1.3747  0.0168  0.3112
  677MOL0     C89244   8.884   7.815   5.183 -0.3034  0.9328  0.1264
  677MOL0     C89245   8.918   7.670   5.138 -0.2083 -0.9118 -0.1777
  677MOL0     C89246   8.804   7.603   5.058  0.8834  0.4162 -0.1750
  677MOL0     C89247   8.834   7.450   5.034 -0.0205 -0.7571 -0.7572
  677MOL0     C89248   8.721   7.382   4.961  0.3775  0.0545 -0.4338
  677MOL0     N89249   8.604   7.364   5.045 -0.2670 -0.4690  0.6798
  677MOL0     C89250   8.591   7.275   5.149  0.4124 -0.7767  0.8140
  677MOL0     C89251   8.467   7.285   5.188  0.7270 -0.0807 -0.3430
  677MOL0     C89252   8.404   7.216   5.308 -0.2866  0.6984  0.9590
  677MOL0     C89253   8.250   7.219   5.312 -1.0877 -0.6584 -0.3175
  677MOL0     C89254   8.196   7.130   5.200 -0.3415 -0.3565 -0.4109
  677MOL0     C89255   8.047   7.105   5.230 -0.8681  0.3260  0.9750
  677MOL0     O89256   7.994   6.997   5.154  0.1798 -0.6978  0.3225
  677MOL0     C89257   7.881   6.928   5.190  0.8828 -0.6821 -0.1491
  677MOL0     C89258   7.801   6.928   5.311 -0.4128  0.1009 -0.0392
  677MOL0     C89259   7.686   6.843   5.321 -0.8891  0.7263 -0.0491
  677MOL0     C89260   7.652   6.752   5.214  0.5197  0.2611  0.1597
  677MOL0     C89261   7.548   6.652   5.234 -0.2772  0.4135 -0.3996
  677MOL0     O89262   7.500   6.632   5.365  0.2940 -0.3175 -0.1961
  677MOL0     C89263   7.397   6.541   5.372  0.2866  0.1166 -1.0492
  677MOL0     C89264   7.268   6.580   5.360 -0.2141  0.3779  0.5887
  677MOL0     C89265   7.164   6.486   5.357  0.6136 -0.4388  0.9436
  677MOL0     C89266   7.188   6.349   5.377  0.4679  0.5563 -0.4664
  677MOL0     O89267   7.099   6.246   5.384  0.0103  0.8944 -0.5962
  677MOL0     C89268   6.980   6.263   5.464 -0.3692  0.3591 -0.1501
  677MOL0     C89269   6.861   6.313   5.375  0.6968  0.7224  0.3881
  677MOL0     C89270   6.729   6.264   5.435  0.0706 -0.6716 -0.0432
  677MOL0     C89271   6.713   6.290   5.574  0.9195  0.2917  0.3050
  677MOL0     C89272   6.683   6.434   5.600 -0.6597  0.1638  0.0452
  677MOL0     C89273   6.698   6.461   5.751 -0.7432 -0.0468 -1.7197
  677MOL0     C89274   6.682   6.602   5.803  0.4219  0.0339 -0.4269
  677MOL0     C89275   6.558   6.678   5.739 -0.2979  0.2241  0.0269
  677MOL0    Cl89276   6.428   6.564   5.739 -0.1558 -0.5077  0.5747
  677MOL0     C89277   7.318   6.311   5.395 -0.1789  0.6060  0.6407
  677MOL0     C89278   7.423   6.407   5.391 -0.5734 -0.0195 -0.0353
  677MOL0     O89279   7.506   6.595   5.133 -0.6367 -0.1693  0.2634
  677MOL0     C89280   7.727   6.756   5.097 -0.2867  0.5536 -0.0662
  677MOL0     C89281   7.836   6.836   5.090 -0.1619 -0.3927  0.1497
  677MOL0     N89282   8.407   7.382   5.107  0.1142  0.6289 -0.4224
  677MOL0     N89283   8.491   7.437   5.026  0.1544  1.0125  0.2432
  677MOL0     C89284   8.532   7.893   4.653  0.4387  0.5817 -0.6055
  677MOL0     C89285   8.432   7.849   4.569 -0.3419 -0.2400 -0.5695
  677MOL0     C89286   8.159   7.510   4.374 -0.4594  0.5752 -0.1556
  677MOL0     C89287   8.180   7.391   4.308  0.4968  0.1887  1.5114
  677MOL0     C89288   8.074   7.315   4.248 -0.7679  0.5168 -0.3347
  677MOL0     C89289   7.938   7.356   4.271 -1.1593 -0.6189  0.5041
  677MOL0     O89290   7.842   7.301   4.196 -0.6031 -0.0034  0.0273
  677MOL0     C89291   7.856   7.307   4.050  0.5957  0.0741 -0.5850
  677MOL0     C89292   7.819   7.446   3.991 -0.1200 -0.4098  0.0335
  677MOL0     C89293   7.687   7.497   4.049 -0.2110 -0.3936  0.4979
  677MOL0     C89294   7.564   7.429   3.983 -0.3241 -0.0342 -0.1595
  677MOL0     C89295   7.529   7.464   3.840 -0.6311 -0.1712 -0.8358
  677MOL0     C89296   7.531   7.510   3.724 -0.7833  0.2674 -0.5080
  677MOL0     C89297   7.917   7.480   4.330 -0.2445  0.4193  0.0465
  677MOL0     C89298   8.025   7.555   4.389 -0.3367 -0.3395 -0.4298
  677MOL0     H89299   8.316   7.598   4.771  1.8094 -1.5881  2.0116
  677MOL0     H89300   8.504   7.680   4.920 -0.6981  0.5804  0.1882
  677MOL0     H89301   8.634   7.805   5.048 -2.0893  0.7775  0.9634
  677MOL0     H89302   8.538   7.945   4.993 -0.4423 -0.2320  0.2748
  677MOL0     H89303   8.692   8.005   5.156 -1.4857 -0.2697 -0.2919
  677MOL0     H89304   8.749   8.069   5.003 -3.7364  0.1405  0.0681
  677MOL0     H89305   8.940   8.002   5.094  0.7918  0.6807 -0.5420
  677MOL0     H89306   8.923   7.879   4.977  1.7935 -0.5710  0.7320
  677MOL0     H89307   8.961   7.855   5.249  3.1475  1.3852 -3.7746
  677MOL0     H89308   8.795   7.811   5.246  1.1963 -3.0788  2.2975
  677MOL0     H89309   8.944   7.607   5.222 -2.5573 -1.9647 -0.1523
  677MOL0     H89310   8.997   7.677   5.063 -1.3534  5.1356 -1.3990
  677MOL0     H89311   8.796   7.658   4.964  1.5427  1.9573  0.6281
  677MOL0     H89312   8.717   7.606   5.123  0.5799  0.0644 -0.5625
  677MOL0     H89313   8.930   7.435   4.984 -0.9404 -3.6307 -1.8544
  677MOL0     H89314   8.838   7.401   5.131 -2.1344  0.4107 -0.0044
  677MOL0     H89315   8.749   7.281   4.929  1.8981  0.0622  0.7356
  677MOL0     H89316   8.697   7.439   4.871  1.0025  1.2442  0.1312
  677MOL0     H89317   8.659   7.198   5.184  0.2173 -2.7476 -2.6701
  677MOL0     H89318   8.430   7.273   5.398 -1.0638  0.3076  1.4403
  677MOL0     H89319   8.440   7.112   5.307  2.4585  1.5132  2.5282
  677MOL0     H89320   8.220   7.323   5.298  0.3135 -0.3720 -1.4173
  677MOL0     H89321   8.224   7.178   5.410  0.3512  1.1523  0.9024
  677MOL0     H89322   8.207   7.182   5.105 -0.3792 -1.9353 -1.3196
  677MOL0     H89323   8.251   7.036   5.186 -1.5107 -1.0367 -0.5998
  677MOL0     H89324   7.992   7.197   5.210 -3.4301 -0.7580  2.4735
  677MOL0     H89325   8.049   7.083   5.337  4.3113  0.1974  1.1108
  677MOL0     H89326   7.825   6.992   5.395  0.1222 -0.2122  0.0517
  677MOL0     H89327   7.624   6.863   5.408 -0.3360 -1.9317  1.0594
  677MOL0     H89328   7.249   6.685   5.345 -3.4359 -0.3525 -1.5110
  677MOL0     H89329   7.071   6.513   5.308  0.6101  0.5090  1.4306
  677MOL0     H89330   6.991   6.328   5.552 -1.2230  0.1438  0.1245
  677MOL0     H89331   6.952   6.163   5.499  3.2975 -1.5649 -2.1281
  677MOL0     H89332   6.883   6.266   5.279 -1.2376 -1.2877  0.8481
  677MOL0     H89333   6.860   6.423   5.378  0.3121  0.7324  0.1315
  677MOL0     H89334   6.733   6.155   5.426 -0.6051 -0.7012  0.0154
  677MOL0     H89335   6.648   6.311   5.379  2.1632  1.1068 -1.7527
  677MOL0     H89336   6.619   6.238   5.594  0.3931  1.4742  0.9924
  677MOL0     H89337   6.786   6.237   5.635 -0.4647 -3.2232 -0.8386
  677MOL0     H89338   6.584   6.452   5.557 -1.9171  2.5334  3.4962
  677MOL0     H89339   6.760   6.491   5.548 -1.4184 -0.3275 -1.6777
  677MOL0     H89340   6.793   6.429   5.795 -1.7973  2.6332  3.2468
  677MOL0     H89341   6.630   6.399   5.810 -0.7537  2.5726  1.2808
  677MOL0     H89342   6.655   6.595   5.909  1.8166 -1.2482 -0.1265
  677MOL0     H89343   6.776   6.658   5.800 -0.4359  1.5242 -0.5302
  677MOL0     H89344   6.577   6.708   5.635 -1.8320 -0.5638 -0.5152
  677MOL0     H89345   6.528   6.762   5.801  0.0651  0.7082 -0.4403
  677MOL0     H89346   7.348   6.208   5.416  1.4202  0.5405 -1.5522
  677MOL0     H89347   7.527   6.376   5.392 -0.9340 -1.6073 -2.6212
  677MOL0     H89348   7.705   6.694   5.010 -1.9483 -1.9411  1.9736
  677MOL0     H89349   7.896   6.823   5.001 -0.6288  0.0499 -0.2412
  677MOL0     H89350   8.585   7.982   4.624 -1.7784  2.3485  0.4178
  677MOL0     H89351   8.422   7.901   4.474  0.7135 -0.7827 -0.9958
  677MOL0     H89352   8.285   7.365   4.293  1.1512  3.7742 -1.5002
  677MOL0     H89353   8.091   7.222   4.197 -1.7699  1.0451 -1.6932
  677MOL0     H89354   7.800   7.226   4.003 -0.9905  2.2552 -2.6811
  677MOL0     H89355   7.958   7.286   4.016  1.5833  4.1028 -0.6100
  677MOL0     H89356   7.901   7.515   4.012 -0.3413 -0.0227 -0.3560
  677MOL0     H89357   7.829   7.448   3.882  1.3665 -2.2968  0.0878
  677MOL0     H89358   7.672   7.603   4.026 -0.7483 -0.2636  1.4265
  677MOL0     H89359   7.683   7.500   4.158 -2.4188 -1.5869  0.5111
  677MOL0     H89360   7.593   7.323   3.981  2.2752  0.6110  0.1844
  677MOL0     H89361   7.475   7.432   4.047  0.1645 -0.0298  0.5297
  677MOL0     H89362   7.530   7.554   3.626 -0.1939  1.1956 -0.1007
  677MOL0     H89363   7.817   7.520   4.345  0.2935  0.7661  3.9709
  677MOL0     H89364   8.003   7.645   4.444  0.2357  0.1269 -0.9434
  678MOL0     O89365   1.644  11.450   0.076 -0.2018  0.1871 -0.7230
  678MOL0     C89366   1.595  11.499  -0.028 -1.0654 -0.8010  0.1003
  678MOL0     O89367   1.468  11.469  -0.077 -0.4429  0.3835  0.3295
  678MOL0     C89368   1.406  11.354  -0.038 -0.4770 -0.3305 -1.2055
  678MOL0     C89369   1.273  11.348  -0.017  0.3719  0.9054 -0.0499
  678MOL0     C89370   1.208  11.247   0.039 -0.3712 -0.5733 -0.2353
  678MOL0     C89371   1.276  11.122   0.067  0.3834 -0.1921  0.1149
  678MOL0     O89372   1.224  11.005   0.112  0.2661 -0.0055  0.1187
  678MOL0     C89373   1.094  11.013   0.176 -1.4634 -0.4111 -0.4552
  678MOL0     C89374   1.088  10.903   0.289 -0.4371  0.1514  0.1035
  678MOL0     C89375   1.168  10.944   0.413  0.4075 -1.2940  0.0064
  678MOL0     C89376   1.164  10.829   0.508 -0.2572  0.9970 -0.6559
  678MOL0     C89377   1.233  10.869   0.635  0.0447  0.2137 -0.3935
  678MOL0     C89378   1.209  10.752   0.743 -0.7090 -0.4772  1.3521
  678MOL0     C89379   1.233  10.802   0.883 -0.3546  0.0620 -0.2447
  678MOL0     C89380   1.194  10.696   0.996  0.9298  0.7995  0.1842
  678MOL0     N89381   1.216  10.761   1.131  0.1763 -0.1779  0.3617
  678MOL0     C89382   1.340  10.792   1.195  0.2931 -0.0788 -0.1359
  678MOL0     C89383   1.306  10.874   1.294  1.7504  0.2740  0.7100
  678MOL0     C89384   1.406  10.928   1.403 -0.0412  0.8662 -0.3441
  678MOL0     C89385   1.532  10.991   1.336  0.2650 -0.1449 -0.5634
  678MOL0     C89386   1.509  11.128   1.292  0.5149 -0.0737 -0.0373
  678MOL0     C89387   1.487  11.237   1.397  0.2680  0.2086  0.3664
  678MOL0     O89388   1.604  11.282   1.460 -0.3246  0.2345  0.5971
  678MOL0     C89389   1.579  11.372   1.561  0.6738  1.3369 -0.0902
  678MOL0     C89390   1.486  11.476   1.560 -0.8858 -1.0799 -0.2752
  678MOL0     C89391   1.466  11.567   1.667 -0.2206  0.5019 -0.1467
  678MOL0     C89392   1.551  11.556   1.778  0.5542  0.6477 -0.8789
  678MOL0     C89393   1.534  11.641   1.903  0.9297 -0.4426  0.5589
  678MOL0     O89394   1.605  11.610   2.019  0.0394  0.1040  0.7847
  678MOL0     C89395   1.604  11.663   2.144  0.0325 -0.2307  0.2425
  678MOL0     C89396   1.716  11.630   2.234 -0.3867 -0.0176 -0.1427
  678MOL0     C89397   1.725  11.691   2.363  0.5983  1.0189 -0.4999
  678MOL0     C89398   1.619  11.763   2.410  0.1427 -0.1073  0.3848
  678MOL0     O89399   1.620  11.804   2.547 -0.5867 -0.2683  0.2741
  678MOL0     C89400   1.487  11.820   2.600 -0.3627  0.3140  0.0070
  678MOL0     C89401   1.518  11.845   2.751  0.9181 -0.2422 -0.6238
  678MOL0     C89402   1.601  11.974   2.777  0.8964 -0.7894 -0.7193
  678MOL0     C89403   1.653  11.987   2.918  0.5063 -0.4689 -0.8699
  678MOL0     C89404   1.729  12.118   2.953  0.5030 -0.1600  0.0693
  678MOL0     C89405   1.720  12.152   3.095  0.1492 -0.0576 -0.3436
  678MOL0     C89406   1.799  12.278   3.128  0.5693 -0.8468 -0.7986
  678MOL0     C89407   1.723  12.407   3.088 -0.0074 -0.3833 -0.9448
  678MOL0    Cl89408   1.786  12.542   3.186  0.5884  0.1609 -0.2049
  678MOL0     C89409   1.508  11.795   2.325 -0.0200  0.1219  0.2455
  678MOL0     C89410   1.507  11.745   2.185 -0.2985 -0.9763 -0.3007
  678MOL0     O89411   1.434  11.719   1.901  0.1258 -0.0407 -0.2251
  678MOL0     C89412   1.651  11.452   1.784 -0.0184  0.3087  0.0936
  678MOL0     C89413   1.660  11.362   1.671 -0.7349 -0.2398  0.1788
  678MOL0     N89414   1.167  10.899   1.297 -0.6060 -0.5644  0.1261
  678MOL0     N89415   1.114  10.836   1.191  0.5084  0.3975 -0.6923
  678MOL0     C89416   1.405  11.116   0.027  0.0025  0.0571 -0.2815
  678MOL0     C89417   1.472  11.230  -0.031  0.2706 -0.6061 -0.1590
  678MOL0     C89418   1.674  11.615  -0.085  0.5420  1.4271 -0.4619
  678MOL0     C89419   1.794  11.655  -0.038 -0.8978 -0.6462  0.4317
  678MOL0     C89420   1.872  11.751  -0.110  0.9334 -1.4130 -0.8748
  678MOL0     C89421   1.827  11.817  -0.233  1.0942  0.4856 -0.4537
  678MOL0     O89422   1.897  11.908  -0.310 -0.1266  0.3258 -0.0150
  678MOL0     C89423   2.027  11.938  -0.253 -0.1634 -0.0151 -0.0233
  678MOL0     C89424   2.093  12.035  -0.357  0.0080  0.5479 -0.2887
  678MOL0     C89425   2.234  12.068  -0.319  0.2694  0.1992 -0.1290
  678MOL0     C89426   2.288  12.153  -0.431  0.6444  0.0611  0.5433
  678MOL0     C89427   2.249  12.297  -0.430 -0.7177  0.6896 -1.3962
  678MOL0     C89428   2.215  12.413  -0.434 -0.2619 -0.4751 -0.6537
  678MOL0     C89429   1.701  11.781  -0.274 -0.0244 -1.3899 -0.8811
  678MOL0     C89430   1.630  11.679  -0.205 -0.2236  0.3496  1.0494
  678MOL0     H89431   1.218  11.441  -0.024  0.7132  1.1031 -0.1483
  678MOL0     H89432   1.102  11.259   0.055 -0.4891  0.7926 -1.8144
  678MOL0     H89433   1.016  11.010   0.100 -5.7820  1.5367  3.4311
  678MOL0     H89434   1.076  11.112   0.218  3.3501  0.1268  0.9686
  678MOL0     H89435   1.135  10.816   0.242 -1.6398  0.0366 -0.9319
  678MOL0     H89436   0.983  10.880   0.309 -0.3817 -0.7524 -0.5629
  678MOL0     H89437   1.113  11.022   0.468  1.3799 -2.2049  2.4068
  678MOL0     H89438   1.270  10.978   0.394 -0.1486  1.6036  1.5943
  678MOL0     H89439   1.061  10.818   0.545  0.3715  0.8836  1.1779
  678MOL0     H89440   1.202  10.734   0.469 -0.2493 -0.1442  1.9567
  678MOL0     H89441   1.197  10.964   0.674 -0.9969 -0.2614 -0.1565
  678MOL0     H89442   1.341  10.871   0.620  0.5565 -0.4041  2.5587
  678MOL0     H89443   1.276  10.670   0.718 -1.8821 -0.4292 -2.4702
  678MOL0     H89444   1.106  10.715   0.732 -1.5441  2.2558 -1.6988
  678MOL0     H89445   1.335  10.833   0.908 -0.3204 -1.2034  1.3548
  678MOL0     H89446   1.170  10.889   0.906 -1.2992 -0.9562  1.2477
  678MOL0     H89447   1.261  10.610   0.987  1.7566  1.5986 -2.0673
  678MOL0     H89448   1.088  10.672   0.985  1.3399 -1.5781  0.8327
  678MOL0     H89449   1.439  10.762   1.164 -0.5819 -0.1911 -3.0910
  678MOL0     H89450   1.425  10.843   1.470 -0.4366  0.1975 -1.0582
  678MOL0     H89451   1.358  11.005   1.462 -1.6731  0.5373 -1.1928
  678MOL0     H89452   1.570  10.929   1.254  1.4878  1.0082 -0.9008
  678MOL0     H89453   1.617  10.987   1.405 -1.0605 -2.4534  1.1012
  678MOL0     H89454   1.590  11.167   1.229  0.3110  1.9331  0.8859
  678MOL0     H89455   1.424  11.126   1.223  1.5738 -1.9045 -1.3972
  678MOL0     H89456   1.420  11.193   1.472  1.0824 -4.1708 -1.1830
  678MOL0     H89457   1.445  11.331   1.360  0.5704  1.0021  1.9280
  678MOL0     H89458   1.433  11.496   1.467 -1.4463 -3.5433 -0.5678
  678MOL0     H89459   1.393  11.645   1.655 -0.4540 -0.0255 -2.7846
  678MOL0     H89460   1.801  11.569   2.206 -1.0922 -1.0203 -0.1414
  678MOL0     H89461   1.818  11.696   2.419  0.7574 -2.9624 -0.1098
  678MOL0     H89462   1.426  11.731   2.579  0.1020  0.6967 -3.7742
  678MOL0     H89463   1.440  11.908   2.556  0.8637  0.1867 -1.6704
  678MOL0     H89464   1.574  11.763   2.798 -0.0021  0.4072  1.7511
  678MOL0     H89465   1.424  11.839   2.805  2.3494 -1.7753  1.9026
  678MOL0     H89466   1.531  12.057   2.765  0.4391 -1.5757 -5.1203
  678MOL0     H89467   1.690  12.000   2.718 -1.0239  0.3479 -3.3263
  678MOL0     H89468   1.566  11.972   2.983  2.2865 -0.0912  1.7753
  678MOL0     H89469   1.732  11.913   2.931 -0.0975 -0.6437  2.7849
  678MOL0     H89470   1.704  12.209   2.898 -2.5814 -1.5706 -1.0864
  678MOL0     H89471   1.834  12.088   2.939  0.7326 -1.0641  3.1377
  678MOL0     H89472   1.776  12.071   3.144  0.3062 -1.5240 -2.7355
  678MOL0     H89473   1.617  12.165   3.127  0.8003  1.2142  1.3726
  678MOL0     H89474   1.816  12.293   3.235  0.0525  1.0341 -0.9496
  678MOL0     H89475   1.895  12.285   3.075  0.5116  2.5666 -0.6583
  678MOL0     H89476   1.617  12.398   3.115  0.1031  1.0921  0.1278
  678MOL0     H89477   1.722  12.437   2.983 -1.7221  2.1029 -0.3206
  678MOL0     H89478   1.419  11.847   2.358 -0.0101 -0.6468  1.5831
  678MOL0     H89479   1.424  11.766   2.118  2.0007 -1.6626 -3.5870
  678MOL0     H89480   1.714  11.452   1.872 -1.3413  0.5202  1.0655
  678MOL0     H89481   1.741  11.290   1.679  0.2414  0.9222  1.1031
  678MOL0     H89482   1.455  11.020   0.030 -0.3254 -0.1104 -0.1124
  678MOL0     H89483   1.576  11.231  -0.061  0.1526  0.2073 -0.5670
  678MOL0     H89484   1.824  11.607   0.054 -2.5880 -1.4274  0.6189
  678MOL0     H89485   1.960  11.784  -0.055 -0.7555  1.3702  0.3853
  678MOL0     H89486   2.078  11.842  -0.240  0.3935 -0.0057 -1.8693
  678MOL0     H89487   2.015  11.993  -0.160  3.2407 -0.4777  0.8376
  678MOL0     H89488   2.102  11.999  -0.460  4.3889 -3.7767  1.1902
  678MOL0     H89489   2.029  12.123  -0.351 -2.3458 -0.6432 -4.1667
  678MOL0     H89490   2.288  11.974  -0.313 -1.5981 -0.8434  1.8609
  678MOL0     H89491   2.254  12.125  -0.227  4.0992 -0.1976 -0.5564
  678MOL0     H89492   2.397  12.150  -0.434  0.6515 -2.6849 -2.9935
  678MOL0     H89493   2.254  12.110  -0.525  1.2806  0.1057  0.2891
  678MOL0     H89494   2.175  12.513  -0.433  2.9450  1.0308 -3.2419
  678MOL0     H89495   1.653  11.844  -0.349 -2.6133 -0.9246  0.9958
  678MOL0     H89496   1.537  11.649  -0.252  1.4296 -0.1239 -2.1609
  679MOL0     O89497   1.895   6.061  10.137  0.4047 -0.2727  0.4036
  679MOL0     C89498   1.964   5.991  10.069  0.6343 -0.1404  0.7537
  679MOL0     O89499   1.916   5.906   9.977 -0.5989 -0.8096  0.4294
  679MOL0     C89500   1.787   5.888   9.966 -0.1268  0.6208  0.3525
  679MOL0     C89501   1.748   5.875   9.833 -0.1856 -0.3922 -0.2043
  679MOL0     C89502   1.609   5.851   9.808 -0.8827  0.1176  0.2392
  679MOL0     C89503   1.519   5.855   9.917 -0.9527  0.0797  0.0306
  679MOL0     O89504   1.389   5.857   9.874 -0.1196 -0.7333 -0.3243
  679MOL0     C89505   1.286   5.850   9.973 -0.5740  0.2064 -0.6379
  679MOL0     C89506   1.164   5.873   9.899 -0.5613 -0.8445 -1.1914
  679MOL0     C89507   1.051   5.869  10.005  0.4292 -0.1511  0.3918
  679MOL0     C89508   0.916   5.882   9.939  0.2693 -0.4100 -1.4720
  679MOL0     C89509   0.791   5.872  10.036  0.1936 -0.6281  0.0897
  679MOL0     C89510   0.667   5.836   9.959 -0.1977 -0.4385  0.5326
  679MOL0     C89511   0.540   5.839  10.054  0.5186 -0.7648  0.3158
  679MOL0     C89512   0.408   5.781   9.995  0.0315  0.8472 -0.4231
  679MOL0     N89513   0.343   5.862   9.894  0.9374 -0.7000  0.1813
  679MOL0     C89514   0.362   5.994   9.862 -0.0487  0.2080 -0.7152
  679MOL0     C89515   0.270   6.014   9.765  0.4592 -0.6651 -0.0534
  679MOL0     C89516   0.245   6.143   9.686  0.9169  0.3292 -1.5777
  679MOL0     C89517   0.187   6.266   9.764 -0.5721  0.1964 -0.3563
  679MOL0     C89518   0.040   6.256   9.770  0.2783 -0.3570 -0.5374
  679MOL0     C89519  -0.031   6.302   9.643 -0.2715 -0.2618 -0.2524
  679MOL0     O89520  -0.175   6.272   9.652  0.0865  0.0014  0.0960
  679MOL0     C89521  -0.224   6.142   9.670  0.2285 -0.1267  0.2051
  679MOL0     C89522  -0.357   6.141   9.719  0.3014  0.2903 -0.9759
  679MOL0     C89523  -0.419   6.018   9.736 -0.1705  0.0264  0.9241
  679MOL0     C89524  -0.356   5.898   9.712  0.9387  0.9880 -1.4173
  679MOL0     C89525  -0.423   5.767   9.747 -0.8892 -0.2518 -0.3314
  679MOL0     O89526  -0.483   5.764   9.870 -0.5724  0.7047 -0.0677
  679MOL0     C89527  -0.543   5.649   9.919 -1.1447 -0.5098 -1.3467
  679MOL0     C89528  -0.525   5.618  10.055  0.2669  0.1446  0.6290
  679MOL0     C89529  -0.570   5.506  10.118 -0.8088  0.0524  0.8255
  679MOL0     C89530  -0.645   5.410  10.046  1.2020 -0.2283 -0.2245
  679MOL0     O89531  -0.687   5.301  10.123 -0.6727 -0.9571 -0.1150
  679MOL0     C89532  -0.807   5.234  10.083 -0.1257 -0.8887  0.2777
  679MOL0     C89533  -0.772   5.081  10.093  0.1593 -0.1622 -0.2387
  679MOL0     C89534  -0.684   5.028  10.204  0.2726  0.0486  0.3569
  679MOL0     C89535  -0.663   4.880  10.192  0.3069  0.2915  0.5168
  679MOL0     C89536  -0.789   4.798  10.166 -0.0550  0.1977  0.0714
  679MOL0     C89537  -0.773   4.650  10.208  0.3157 -0.3675  1.0301
  679MOL0     C89538  -0.654   4.578  10.154 -0.7907  0.8763  0.7898
  679MOL0     C89539  -0.659   4.423  10.148 -0.3845  1.1215 -0.0024
  679MOL0    Cl89540  -0.716   4.369  10.311 -0.0036  0.4901 -0.5975
  679MOL0     C89541  -0.670   5.442   9.905 -0.6271 -0.6794  0.1336
  679MOL0     C89542  -0.614   5.556   9.848  0.9370 -0.7736  0.3875
  679MOL0     O89543  -0.405   5.680   9.662  0.2993 -0.3414 -0.0040
  679MOL0     C89544  -0.228   5.896   9.669  0.5471  0.2048  0.3035
  679MOL0     C89545  -0.167   6.019   9.655 -0.3761  0.1433  0.5352
  679MOL0     N89546   0.198   5.896   9.734 -0.0014 -0.1926 -0.2323
  679MOL0     N89547   0.236   5.816   9.824 -0.5038 -0.4194 -0.4324
  679MOL0     C89548   1.568   5.854  10.046 -0.0844  0.2785 -0.3800
  679MOL0     C89549   1.707   5.862  10.075  0.0088 -1.0163 -0.3055
  679MOL0     C89550   2.104   5.982  10.109 -0.0837 -0.2257  0.5005
  679MOL0     C89551   2.209   5.922  10.033  0.5426 -1.6732 -0.5184
  679MOL0     C89552   2.338   5.915  10.092  0.4010 -0.0334 -0.1275
  679MOL0     C89553   2.372   5.954  10.221 -1.1290  0.4823  0.6793
  679MOL0     O89554   2.498   5.932  10.283  0.7482 -0.2973 -0.1093
  679MOL0     C89555   2.594   5.860  10.206  0.3929  0.2603 -0.1194
  679MOL0     C89556   2.692   5.815  10.311  0.5099  0.2247  0.4699
  679MOL0     C89557   2.780   5.918  10.380  0.2366  0.7705 -0.6983
  679MOL0     C89558   2.822   6.042  10.293 -0.1032 -0.6341  0.8398
  679MOL0     C89559   2.913   6.010  10.181 -0.0713  0.5656  0.1007
  679MOL0     C89560   2.999   6.019  10.098  0.5511 -0.6188  0.3105
  679MOL0     C89561   2.270   6.000  10.300  0.9564 -0.9445  0.0646
  679MOL0     C89562   2.139   6.000  10.245 -0.2688  0.5419 -0.1746
  679MOL0     H89563   1.804   5.897   9.742  1.7439  1.2716  1.2859
  679MOL0     H89564   1.578   5.848   9.704 -0.1815 -1.1694  0.0536
  679MOL0     H89565   1.290   5.926  10.051 -1.6890  0.1464 -0.5084
  679MOL0     H89566   1.285   5.749  10.014 -1.0285  0.2916 -0.4299
  679MOL0     H89567   1.155   5.793   9.824 -2.1995 -2.5486  0.7114
  679MOL0     H89568   1.160   5.972   9.854 -0.0738  0.4236  1.3883
  679MOL0     H89569   1.066   5.949  10.077 -0.6553  0.0249  0.4381
  679MOL0     H89570   1.050   5.772  10.056 -0.5498 -0.0750  0.5438
  679MOL0     H89571   0.897   5.966   9.871 -2.6772 -0.5853 -0.9648
  679MOL0     H89572   0.904   5.798   9.870 -0.3259  1.2087 -3.4497
  679MOL0     H89573   0.780   5.967  10.090 -0.4561 -0.3634 -0.5022
  679MOL0     H89574   0.793   5.783  10.099 -3.8051  1.0833  3.0810
  679MOL0     H89575   0.671   5.729   9.935  1.4593 -0.2864 -0.0520
  679MOL0     H89576   0.650   5.900   9.871 -3.6558 -0.1781  1.2556
  679MOL0     H89577   0.570   5.790  10.147  1.7493 -0.4914  0.0853
  679MOL0     H89578   0.507   5.938  10.088 -3.3742 -1.8444  0.1145
  679MOL0     H89579   0.331   5.772  10.071 -1.9457 -2.8030 -2.5788
  679MOL0     H89580   0.437   5.681   9.961  1.4822  0.7576  0.9908
  679MOL0     H89581   0.434   6.065   9.901  0.7025 -0.9671  0.0951
  679MOL0     H89582   0.174   6.114   9.608  1.2460 -0.7844 -1.4847
  679MOL0     H89583   0.338   6.184   9.646  0.9359  1.8842 -0.0665
  679MOL0     H89584   0.203   6.358   9.706  0.4918  0.6537  0.6339
  679MOL0     H89585   0.232   6.273   9.863 -1.3300  0.6275 -0.0312
  679MOL0     H89586   0.011   6.154   9.795 -1.4336  0.4285  0.9159
  679MOL0     H89587  -0.006   6.313   9.851  0.9437 -0.2582 -0.2230
  679MOL0     H89588   0.018   6.271   9.550  1.3654  1.9156 -0.2206
  679MOL0     H89589  -0.017   6.411   9.636 -1.9483 -0.0954 -1.5617
  679MOL0     H89590  -0.403   6.233   9.754 -0.6773 -0.7594  0.6672
  679MOL0     H89591  -0.522   6.017   9.770 -0.3554 -5.0646  0.9958
  679MOL0     H89592  -0.460   5.685  10.112  0.6905  0.2730 -0.0027
  679MOL0     H89593  -0.534   5.484  10.218  1.7334 -0.8523 -0.1783
  679MOL0     H89594  -0.829   5.264   9.980 -3.9062  1.4603  1.5503
  679MOL0     H89595  -0.895   5.257  10.144  1.4353 -0.8495  2.6481
  679MOL0     H89596  -0.735   5.039   9.999 -2.4681 -0.7440 -1.0876
  679MOL0     H89597  -0.868   5.032  10.110  1.8243 -4.7463 -2.2958
  679MOL0     H89598  -0.724   5.063  10.299 -5.2920  1.4436 -2.1066
  679MOL0     H89599  -0.590   5.082  10.188 -1.0088  2.7592  1.4240
  679MOL0     H89600  -0.595   4.857  10.110  1.0169  0.2665  1.1050
  679MOL0     H89601  -0.627   4.840  10.287 -1.9313 -0.8092  0.9524
  679MOL0     H89602  -0.808   4.787  10.059  2.9164 -2.0213 -0.3672
  679MOL0     H89603  -0.878   4.841  10.212 -0.9079 -0.0249 -1.3221
  679MOL0     H89604  -0.859   4.597  10.166 -1.2914  0.3473  3.1973
  679MOL0     H89605  -0.774   4.656  10.317 -1.9111  0.4223  1.0187
  679MOL0     H89606  -0.648   4.610  10.050  1.6919 -0.3662  0.4901
  679MOL0     H89607  -0.570   4.619  10.210 -2.4650  5.7801  0.2026
  679MOL0     H89608  -0.572   4.371  10.106 -0.2800  1.4588 -0.2095
  679MOL0     H89609  -0.736   4.397  10.074 -0.7830 -0.9397  1.0755
  679MOL0     H89610  -0.713   5.375   9.832 -2.2778 -0.1156  0.5557
  679MOL0     H89611  -0.631   5.581   9.744  3.3343  1.1881  0.4017
  679MOL0     H89612  -0.172   5.810   9.633 -1.3546 -0.3311 -1.5878
  679MOL0     H89613  -0.060   6.013   9.636 -0.5400  0.1272 -0.4301
  679MOL0     H89614   1.500   5.856  10.130  0.2615 -1.5353 -0.0129
  679MOL0     H89615   1.743   5.886  10.174  1.4292 -0.0773 -1.0153
  679MOL0     H89616   2.206   5.890   9.929 -0.9439 -0.9486 -0.7214
  679MOL0     H89617   2.404   5.864  10.023  0.2457 -0.0567 -0.2608
  679MOL0     H89618   2.644   5.918  10.127 -1.5748  1.4862 -0.5559
  679MOL0     H89619   2.560   5.763  10.170  1.5525 -1.1537  2.4230
  679MOL0     H89620   2.636   5.765  10.389  0.5729  1.4715  1.3468
  679MOL0     H89621   2.760   5.744  10.262 -2.0085 -0.5277 -2.2129
  679MOL0     H89622   2.865   5.869  10.428 -1.9787 -2.1207  0.5517
  679MOL0     H89623   2.718   5.959  10.460  1.4437 -0.2016  0.7948
  679MOL0     H89624   2.728   6.092  10.270  0.7651  1.5334  1.7658
  679MOL0     H89625   2.878   6.107  10.361 -2.0917  1.1869  0.8382
  679MOL0     H89626   3.073   6.013  10.021 -0.4037  1.1636 -0.7995
  679MOL0     H89627   2.305   5.997  10.403  0.3305  3.4327  0.5927
  679MOL0     H89628   2.059   6.038  10.308  0.8258  1.2397  0.8190
  680MOL0     O89629   4.504  10.051   3.474 -0.2662 -0.8096 -0.1239
  680MOL0     C89630   4.499  10.157   3.540 -0.3580 -0.2159 -1.1017
  680MOL0     O89631   4.556  10.182   3.664  0.1490 -0.6646 -0.3149
  680MOL0     C89632   4.636  10.104   3.738  0.8200  0.1013  0.2217
  680MOL0     C89633   4.688   9.980   3.703 -0.1498  0.0563 -0.9187
  680MOL0     C89634   4.771   9.913   3.797  0.7919  0.0378 -0.0307
  680MOL0     C89635   4.811   9.963   3.920 -0.0074 -0.3004 -0.3581
  680MOL0     O89636   4.877   9.892   4.014 -0.2931  0.0233 -0.9687
  680MOL0     C89637   4.858   9.747   4.025  0.2630  0.0360 -0.5640
  680MOL0     C89638   4.967   9.695   4.123  0.0227 -0.2158  0.4360
  680MOL0     C89639   4.935   9.541   4.137  0.2859  0.3591 -0.9153
  680MOL0     C89640   4.992   9.476   4.266 -0.3800  0.1348 -0.8311
  680MOL0     C89641   4.962   9.331   4.278 -0.4027 -0.3349  0.2097
  680MOL0     C89642   5.029   9.272   4.397  0.1195 -0.1065  0.1270
  680MOL0     C89643   4.990   9.128   4.437  0.0839  0.5351  0.3998
  680MOL0     C89644   5.095   9.029   4.512 -0.0764 -0.2658 -1.1120
  680MOL0     N89645   5.162   9.074   4.637 -0.6496  0.1123 -0.0227
  680MOL0     C89646   5.106   9.165   4.729 -0.0363 -0.0499  1.3802
  680MOL0     C89647   5.207   9.184   4.817 -0.2823 -0.8675  0.2214
  680MOL0     C89648   5.204   9.275   4.930 -0.3050  0.4189 -0.2731
  680MOL0     C89649   5.257   9.193   5.048  1.2114  0.5258  0.4376
  680MOL0     C89650   5.246   9.287   5.181 -0.2997  0.9579 -0.2966
  680MOL0     C89651   5.341   9.217   5.284  0.1602 -0.7883  0.5472
  680MOL0     O89652   5.268   9.107   5.342  0.3423 -0.2476  0.0284
  680MOL0     C89653   5.192   9.130   5.456 -0.1173 -0.9130  0.2648
  680MOL0     C89654   5.142   9.254   5.498  0.6382 -0.0820  0.0819
  680MOL0     C89655   5.048   9.269   5.604 -0.2468  0.4936  0.7997
  680MOL0     C89656   5.023   9.156   5.679  0.0504  0.6204 -0.3966
  680MOL0     C89657   4.939   9.177   5.794 -0.4063  0.3582 -0.0278
  680MOL0     O89658   4.855   9.280   5.796  0.0020 -0.2226  0.3192
  680MOL0     C89659   4.782   9.301   5.909 -0.6808  0.0178 -0.7716
  680MOL0     C89660   4.644   9.287   5.915  0.2990  0.4281  0.7981
  680MOL0     C89661   4.573   9.326   6.029  0.8962 -1.0113  1.1575
  680MOL0     C89662   4.639   9.374   6.137  0.2046  0.7054 -1.2974
  680MOL0     O89663   4.574   9.427   6.255 -0.2905 -0.2988  0.2611
  680MOL0     C89664   4.436   9.488   6.242 -0.3083  0.6888 -0.0056
  680MOL0     C89665   4.425   9.593   6.141  0.1515  0.0333  0.7560
  680MOL0     C89666   4.293   9.672   6.172 -0.3182 -0.3786  0.3088
  680MOL0     C89667   4.245   9.760   6.054 -0.7520  0.0877  0.7257
  680MOL0     C89668   4.119   9.850   6.096  0.6776 -0.0531  0.0208
  680MOL0     C89669   4.088   9.952   5.990  0.0471 -0.5497  0.2871
  680MOL0     C89670   3.985  10.053   6.038  0.2151 -0.2666  0.5688
  680MOL0     C89671   3.837  10.027   6.022  0.6236 -0.2309  0.5181
  680MOL0    Cl89672   3.757  10.187   6.066 -0.1595 -0.0223 -0.1482
  680MOL0     C89673   4.776   9.380   6.130  0.1510 -0.0329 -0.4008
  680MOL0     C89674   4.846   9.346   6.026 -1.0730 -0.1214  0.1085
  680MOL0     O89675   4.941   9.092   5.884 -0.0958  0.0407 -0.3824
  680MOL0     C89676   5.076   9.032   5.644 -0.8658 -1.5079 -0.4546
  680MOL0     C89677   5.159   9.022   5.528 -0.9213  0.4051 -0.0172
  680MOL0     N89678   5.322   9.121   4.785 -0.4664  0.1274  0.3425
  680MOL0     N89679   5.290   9.049   4.672 -1.0250  0.3752 -1.0468
  680MOL0     C89680   4.772  10.092   3.946  0.0859 -0.6327  0.2063
  680MOL0     C89681   4.684  10.163   3.856 -0.6075  0.9554  0.7888
  680MOL0     C89682   4.431  10.269   3.482  0.1763 -0.4459  0.4283
  680MOL0     C89683   4.329  10.244   3.392 -0.3768 -0.3079 -0.4255
  680MOL0     C89684   4.270  10.348   3.324  0.1153 -0.3787 -0.1598
  680MOL0     C89685   4.325  10.471   3.320  0.0667 -0.7923  0.7370
  680MOL0     O89686   4.271  10.560   3.229 -1.1709 -0.8871 -0.6458
  680MOL0     C89687   4.250  10.688   3.287  0.6127  0.8830  0.3765
  680MOL0     C89688   4.122  10.744   3.235 -0.2989 -0.1988  0.8882
  680MOL0     C89689   4.118  10.758   3.073 -0.9573 -0.3156  0.3140
  680MOL0     C89690   4.202  10.874   3.014  0.1982  0.0068  0.4646
  680MOL0     C89691   4.128  10.997   3.046  0.6876  0.5842  0.1879
  680MOL0     C89692   4.076  11.103   3.052  0.2380 -0.1463 -0.2100
  680MOL0     C89693   4.445  10.504   3.401 -0.2352 -0.7948 -0.5913
  680MOL0     C89694   4.491  10.398   3.486  0.3311 -0.3118 -0.1305
  680MOL0     H89695   4.649   9.926   3.617 -2.9492 -2.6198  1.7689
  680MOL0     H89696   4.797   9.813   3.763 -1.1900 -0.1663 -1.1023
  680MOL0     H89697   4.873   9.704   3.925  1.9318  0.2296 -0.4247
  680MOL0     H89698   4.760   9.721   4.063 -0.3183  3.1370  0.3784
  680MOL0     H89699   4.962   9.752   4.216 -1.0645  0.5372 -0.0726
  680MOL0     H89700   5.060   9.714   4.067  1.0528 -1.4855  1.6313
  680MOL0     H89701   4.957   9.499   4.038  0.5374  2.2765 -1.7342
  680MOL0     H89702   4.829   9.520   4.153  0.7349 -0.2526  1.6092
  680MOL0     H89703   5.101   9.479   4.271 -0.3164 -1.4079 -0.6457
  680MOL0     H89704   4.945   9.515   4.357  0.7532 -3.1681  1.3665
  680MOL0     H89705   4.996   9.277   4.189  1.1294  0.5456  0.2176
  680MOL0     H89706   4.854   9.319   4.284 -0.9481  3.1324 -0.2559
  680MOL0     H89707   5.006   9.338   4.481  0.4740  0.2185 -0.0318
  680MOL0     H89708   5.138   9.265   4.395  0.6290  3.9754  2.8083
  680MOL0     H89709   4.913   9.135   4.514 -0.6551  0.0932 -0.2719
  680MOL0     H89710   4.947   9.077   4.349 -0.0599 -0.0073  0.7765
  680MOL0     H89711   5.171   8.997   4.439  2.8106 -0.1658  1.6444
  680MOL0     H89712   5.039   8.943   4.548 -2.7727  2.4418  1.8444
  680MOL0     H89713   5.007   9.210   4.737 -2.1408 -4.0305  0.4716
  680MOL0     H89714   5.100   9.305   4.947 -0.0818 -0.2591  2.9051
  680MOL0     H89715   5.256   9.371   4.917 -1.3131  0.9264 -0.7198
  680MOL0     H89716   5.358   9.152   5.037  0.5500 -2.0817  2.7483
  680MOL0     H89717   5.186   9.110   5.048  0.6154  0.8350 -3.5710
  680MOL0     H89718   5.300   9.380   5.161  1.7670 -0.4115 -1.4755
  680MOL0     H89719   5.145   9.310   5.215 -0.1373  2.0637 -0.5428
  680MOL0     H89720   5.376   9.288   5.360 -1.1176 -1.5133  1.8928
  680MOL0     H89721   5.428   9.169   5.239  2.0781  0.2101  2.9470
  680MOL0     H89722   5.160   9.339   5.433 -1.4571 -0.0894 -0.5837
  680MOL0     H89723   5.013   9.371   5.620  1.2253  1.1498  0.0583
  680MOL0     H89724   4.604   9.234   5.829 -0.6094 -2.4913  2.8398
  680MOL0     H89725   4.465   9.312   6.020  0.3322  2.2575  1.7310
  680MOL0     H89726   4.413   9.529   6.340 -1.2538 -2.5820  1.2767
  680MOL0     H89727   4.363   9.407   6.233 -0.2177  0.6021  0.0269
  680MOL0     H89728   4.432   9.549   6.041  0.2419  1.1158  0.2709
  680MOL0     H89729   4.501   9.669   6.159  1.5117 -1.4488  1.4373
  680MOL0     H89730   4.318   9.735   6.257  3.1367 -2.5097  1.0611
  680MOL0     H89731   4.215   9.597   6.191 -1.0189  0.2586  0.0306
  680MOL0     H89732   4.329   9.817   6.013 -0.9070  1.3943  2.1542
  680MOL0     H89733   4.219   9.694   5.970  0.5364  1.4496 -0.8173
  680MOL0     H89734   4.151   9.915   6.179  0.9362  1.5615 -1.2867
  680MOL0     H89735   4.029   9.793   6.120 -0.4031  1.6270  0.1621
  680MOL0     H89736   4.054   9.916   5.892  0.5881  0.5689 -0.3291
  680MOL0     H89737   4.183  10.005   5.974 -1.2070  2.4884  2.0932
  680MOL0     H89738   4.015  10.089   6.137  4.7348  0.2478 -0.7563
  680MOL0     H89739   3.984  10.140   5.970 -2.2340 -0.8179 -0.2174
  680MOL0     H89740   3.809   9.951   6.095  2.8250 -1.7263 -0.0873
  680MOL0     H89741   3.803  10.004   5.921 -0.6560  0.6030  0.7338
  680MOL0     H89742   4.824   9.420   6.219 -0.3678 -0.3540  0.0357
  680MOL0     H89743   4.955   9.345   6.019 -1.0461  0.9197  0.2115
  680MOL0     H89744   5.057   8.949   5.711  1.0750 -1.1775  0.5916
  680MOL0     H89745   5.207   8.928   5.504  2.3772  1.2710  2.4271
  680MOL0     H89746   4.808  10.146   4.033 -0.0813  1.8533 -1.1858
  680MOL0     H89747   4.662  10.265   3.885  2.6567  2.4040 -1.3189
  680MOL0     H89748   4.290  10.143   3.387 -2.1563  0.2771  0.4293
  680MOL0     H89749   4.196  10.341   3.244  0.6911  0.8767 -0.8426
  680MOL0     H89750   4.338  10.746   3.257  2.3287 -1.9343 -0.5008
  680MOL0     H89751   4.239  10.678   3.395  0.3127  0.5868  0.3231
  680MOL0     H89752   4.040  10.675   3.256 -2.7310  2.0553 -0.4122
  680MOL0     H89753   4.099  10.839   3.285 -0.3738  0.5901 -0.5766
  680MOL0     H89754   4.018  10.775   3.032  0.2710  3.5214 -1.5488
  680MOL0     H89755   4.163  10.669   3.027 -0.4558 -0.7138  1.5311
  680MOL0     H89756   4.297  10.868   3.068 -0.0272  0.9849  0.9835
  680MOL0     H89757   4.216  10.883   2.906  1.6103  2.0117  0.7536
  680MOL0     H89758   4.036  11.202   3.062  1.5232  0.4338 -0.5339
  680MOL0     H89759   4.481  10.605   3.419 -0.0162 -0.7966 -1.0039
  680MOL0     H89760   4.578  10.417   3.548  1.2602  0.6881 -1.6687
  681MOL0     O89761   1.412   3.251   8.216  0.2371  0.3928  0.2534
  681MOL0     C89762   1.442   3.128   8.210 -0.2230 -0.1475  0.3895
  681MOL0     O89763   1.498   3.057   8.314  0.6707 -0.5206 -0.2158
  681MOL0     C89764   1.534   3.130   8.434  0.1820 -0.4183 -0.0442
  681MOL0     C89765   1.599   3.255   8.430 -1.3519 -0.0765  0.3255
  681MOL0     C89766   1.624   3.320   8.554 -0.9408  0.6051 -0.8256
  681MOL0     C89767   1.591   3.260   8.686  0.1830  0.6237  0.9053
  681MOL0     O89768   1.609   3.315   8.805  0.1056 -0.5994  0.4099
  681MOL0     C89769   1.682   3.436   8.816  0.0503  0.2045 -0.4006
  681MOL0     C89770   1.680   3.468   8.972 -0.2741  1.5984  0.3165
  681MOL0     C89771   1.790   3.384   9.044  0.3563  0.1727 -0.5903
  681MOL0     C89772   1.791   3.395   9.198  0.9993 -0.3527 -0.2751
  681MOL0     C89773   1.774   3.541   9.260 -0.6140 -0.2669 -0.6807
  681MOL0     C89774   1.894   3.626   9.222 -0.3134  0.0457 -0.3776
  681MOL0     C89775   1.868   3.769   9.255 -0.6878 -1.0824 -0.6143
  681MOL0     C89776   1.994   3.844   9.300 -0.6218 -0.1220  0.2866
  681MOL0     N89777   2.051   3.791   9.424  0.0758  1.3352  0.6795
  681MOL0     C89778   2.006   3.824   9.551  0.4504  0.2346  0.5846
  681MOL0     C89779   2.073   3.748   9.637 -0.9942 -0.3660  0.1480
  681MOL0     C89780   2.041   3.758   9.777 -0.0258  0.2898 -0.6864
  681MOL0     C89781   2.128   3.864   9.856 -0.1487  0.5440 -0.6555
  681MOL0     C89782   2.078   4.009   9.827  0.0856 -0.3684  0.0355
  681MOL0     C89783   2.153   4.104   9.920  0.1100  1.0639  0.0862
  681MOL0     O89784   2.116   4.240   9.906 -0.1430  0.0192  0.1547
  681MOL0     C89785   2.143   4.313   9.799 -0.4759 -0.0812 -0.9013
  681MOL0     C89786   2.098   4.449   9.804  0.3453  0.9044  0.0374
  681MOL0     C89787   2.127   4.539   9.700 -0.9661 -0.2806  0.1515
  681MOL0     C89788   2.202   4.497   9.585  1.2087  0.7111 -0.6512
  681MOL0     C89789   2.225   4.591   9.469 -0.0966  0.4020 -0.4247
  681MOL0     O89790   2.195   4.724   9.492 -0.3380  0.2546  0.2141
  681MOL0     C89791   2.202   4.814   9.389  1.0116  0.1854  0.1707
  681MOL0     C89792   2.309   4.906   9.399  0.3053  0.0633 -0.9186
  681MOL0     C89793   2.334   4.996   9.299 -0.6597  0.3598  0.3207
  681MOL0     C89794   2.260   4.977   9.183  0.2702 -0.4333 -0.1728
  681MOL0     O89795   2.272   5.078   9.086  0.4162 -0.3920  0.9311
  681MOL0     C89796   2.365   5.189   9.094  0.5539  0.5288  0.5430
  681MOL0     C89797   2.371   5.264   8.961  0.7489  1.2769 -0.5742
  681MOL0     C89798   2.487   5.371   8.963  0.2563 -0.3903 -0.8796
  681MOL0     C89799   2.441   5.489   8.877  0.5614 -0.0273  0.7248
  681MOL0     C89800   2.537   5.517   8.756  0.3371 -0.1564 -1.3004
  681MOL0     C89801   2.680   5.567   8.798  0.5245 -0.1334 -0.0630
  681MOL0     C89802   2.751   5.641   8.685 -0.6568  0.3289  0.0879
  681MOL0     C89803   2.758   5.557   8.556  0.7315 -0.6732 -0.1721
  681MOL0    Cl89804   2.888   5.630   8.448  0.2936 -0.3390  0.1201
  681MOL0     C89805   2.184   4.864   9.159 -0.1213  0.6325  0.0860
  681MOL0     C89806   2.144   4.784   9.269  0.0100  0.7981  0.1172
  681MOL0     O89807   2.251   4.545   9.362 -0.2956 -0.0533 -0.1733
  681MOL0     C89808   2.241   4.365   9.585 -0.3569  0.2663 -0.2114
  681MOL0     C89809   2.222   4.277   9.692  0.6323 -0.5674 -0.2428
  681MOL0     N89810   2.168   3.676   9.570 -0.3904  0.6493  0.2939
  681MOL0     N89811   2.148   3.698   9.438 -0.1688  1.2520  0.1572
  681MOL0     C89812   1.517   3.146   8.683 -0.2400  1.1467  0.2319
  681MOL0     C89813   1.486   3.078   8.562 -0.6947 -0.6201  0.7901
  681MOL0     C89814   1.407   3.050   8.088 -0.0500  0.2661 -0.5696
  681MOL0     C89815   1.335   3.113   7.987 -0.3738 -0.4177 -0.9032
  681MOL0     C89816   1.309   3.058   7.870  1.1502  0.7603  1.3481
  681MOL0     C89817   1.359   2.927   7.853  0.9235 -0.4070 -1.1272
  681MOL0     O89818   1.374   2.876   7.730  0.0011  0.5873 -0.7820
  681MOL0     C89819   1.448   2.953   7.634 -0.1531 -0.1131 -0.1232
  681MOL0     C89820   1.480   2.884   7.498 -0.5497 -0.4271 -0.2840
  681MOL0     C89821   1.349   2.844   7.443 -0.5643  0.4008  0.1658
  681MOL0     C89822   1.363   2.743   7.329 -0.9617  1.1128  0.0490
  681MOL0     C89823   1.243   2.710   7.257  0.1434 -0.1752  1.3390
  681MOL0     C89824   1.160   2.661   7.179  0.1891 -0.5037 -0.7474
  681MOL0     C89825   1.411   2.853   7.953 -0.1801 -0.5827 -0.4712
  681MOL0     C89826   1.443   2.916   8.069 -0.1911 -0.5250  0.7240
  681MOL0     H89827   1.636   3.297   8.337  1.4064  0.8465  1.7426
  681MOL0     H89828   1.671   3.417   8.549 -1.1187  0.9752  2.4496
  681MOL0     H89829   1.616   3.506   8.764 -1.5247 -1.2252 -0.4610
  681MOL0     H89830   1.784   3.440   8.778  0.8139  2.3557  1.6324
  681MOL0     H89831   1.582   3.438   9.010 -0.3900 -0.7258 -1.5654
  681MOL0     H89832   1.687   3.575   8.996 -2.2258  1.6703  0.7678
  681MOL0     H89833   1.887   3.426   9.013  0.2862  1.5027  0.8777
  681MOL0     H89834   1.782   3.279   9.014 -1.5334  0.0180  0.3755
  681MOL0     H89835   1.704   3.337   9.231  0.0341  0.5754 -1.0811
  681MOL0     H89836   1.883   3.345   9.227  1.0677 -0.6905 -1.0527
  681MOL0     H89837   1.766   3.540   9.369 -2.6368  0.2097 -0.7786
  681MOL0     H89838   1.684   3.592   9.225  0.9925  3.2519 -0.1238
  681MOL0     H89839   1.916   3.616   9.115  1.2225 -0.0536 -0.0803
  681MOL0     H89840   1.981   3.599   9.282  2.4289  2.6760 -2.8059
  681MOL0     H89841   1.819   3.822   9.173 -0.5506 -0.6286 -0.4026
  681MOL0     H89842   1.792   3.767   9.334 -0.8055  0.5557 -0.6633
  681MOL0     H89843   1.977   3.951   9.318  1.8768  0.2678  0.7404
  681MOL0     H89844   2.068   3.838   9.220 -0.7921  0.6257  0.0657
  681MOL0     H89845   1.925   3.890   9.583  1.6251  1.6155  0.8266
  681MOL0     H89846   2.068   3.663   9.823  0.6385  0.7909 -0.0007
  681MOL0     H89847   1.936   3.785   9.792 -0.7923 -1.6527 -2.2528
  681MOL0     H89848   2.226   3.873   9.809 -0.3046 -0.2313 -1.1275
  681MOL0     H89849   2.130   3.843   9.964  3.0927  2.7103 -0.1494
  681MOL0     H89850   2.106   4.031   9.724  0.9554 -0.4700  0.2369
  681MOL0     H89851   1.969   4.002   9.829 -0.2565  2.8546 -1.2231
  681MOL0     H89852   2.261   4.099   9.903 -0.2449 -1.1096 -1.9881
  681MOL0     H89853   2.140   4.078  10.025  0.4863 -2.5250 -0.6453
  681MOL0     H89854   2.035   4.476   9.888  2.3165  2.4986  1.1075
  681MOL0     H89855   2.101   4.644   9.693 -0.5445 -0.1741  0.1424
  681MOL0     H89856   2.363   4.915   9.492 -2.9901  0.9968  1.0650
  681MOL0     H89857   2.405   5.077   9.313  0.1641 -0.2462 -0.3400
  681MOL0     H89858   2.469   5.167   9.119  1.0296  2.0377  0.0224
  681MOL0     H89859   2.323   5.252   9.173 -2.1650 -1.5030  0.8546
  681MOL0     H89860   2.271   5.307   8.950  1.7800  4.7439  1.9137
  681MOL0     H89861   2.400   5.190   8.885 -1.1724 -0.0630 -0.0880
  681MOL0     H89862   2.583   5.332   8.927  0.2144 -2.2099  0.8058
  681MOL0     H89863   2.498   5.401   9.067  0.9757 -3.2413 -0.0459
  681MOL0     H89864   2.338   5.476   8.841  1.2118 -1.3794 -0.7428
  681MOL0     H89865   2.431   5.583   8.932 -0.0066 -0.0242  0.6233
  681MOL0     H89866   2.492   5.581   8.680 -2.2246 -1.1097 -0.6691
  681MOL0     H89867   2.548   5.419   8.710 -0.1552  0.4176 -2.6797
  681MOL0     H89868   2.751   5.487   8.821 -1.2868 -1.5088  0.9998
  681MOL0     H89869   2.661   5.639   8.879 -1.0240 -0.6168  0.0332
  681MOL0     H89870   2.696   5.734   8.667 -2.8821 -0.7463  0.9840
  681MOL0     H89871   2.852   5.662   8.719 -1.0428  3.5183 -0.3837
  681MOL0     H89872   2.663   5.559   8.502 -0.4296  3.2434  1.6641
  681MOL0     H89873   2.786   5.453   8.577  1.4914 -0.7216 -1.3276
  681MOL0     H89874   2.132   4.846   9.065  0.3162 -3.4087  0.4284
  681MOL0     H89875   2.069   4.705   9.273 -0.5171  1.1410 -2.1137
  681MOL0     H89876   2.276   4.316   9.495  1.0845  1.6474 -0.4462
  681MOL0     H89877   2.265   4.181   9.664 -1.6480 -1.8057  0.1551
  681MOL0     H89878   1.484   3.099   8.775 -0.9186 -1.4282 -1.2443
  681MOL0     H89879   1.433   2.984   8.561  0.8685 -1.6113 -2.3637
  681MOL0     H89880   1.329   3.221   7.999  0.2731 -0.7156  5.1128
  681MOL0     H89881   1.294   3.116   7.779 -1.4667 -1.8740 -0.0793
  681MOL0     H89882   1.537   2.975   7.694 -0.7668 -1.8741  1.5444
  681MOL0     H89883   1.403   3.051   7.615 -0.3024 -0.3496 -1.0015
  681MOL0     H89884   1.533   2.944   7.423 -0.7788 -2.7217 -2.4385
  681MOL0     H89885   1.541   2.795   7.516 -2.2078 -1.0042  3.2158
  681MOL0     H89886   1.305   2.938   7.408  2.0434  1.2083 -1.2023
  681MOL0     H89887   1.278   2.813   7.520 -2.4548  2.0996 -0.8004
  681MOL0     H89888   1.433   2.783   7.255 -3.0961 -0.1371 -2.8353
  681MOL0     H89889   1.405   2.650   7.370 -1.4350  1.2435  0.8429
  681MOL0     H89890   1.087   2.633   7.106 -0.3257 -0.8337 -0.1062
  681MOL0     H89891   1.459   2.758   7.931  0.0777  0.1431 -3.4865
  681MOL0     H89892   1.503   2.873   8.149 -0.6321  1.8996  2.4981
  682MOL0     O89893   8.187   4.681   5.393  0.3129  0.1475 -0.1813
  682MOL0     C89894   8.150   4.578   5.449 -0.4508  1.0375 -0.2362
  682MOL0     O89895   8.195   4.529   5.573  0.1318  1.4827  0.2790
  682MOL0     C89896   8.297   4.602   5.631 -0.1799  0.4178 -0.6800
  682MOL0     C89897   8.271   4.659   5.751  0.0261 -0.2551 -0.8812
  682MOL0     C89898   8.361   4.744   5.815 -0.4452 -0.6862  1.2621
  682MOL0     C89899   8.487   4.775   5.748 -0.3100  0.4374 -0.7553
  682MOL0     O89900   8.565   4.864   5.818 -0.1617 -0.3407  0.5097
  682MOL0     C89901   8.625   4.977   5.735 -0.5764 -0.3661  0.7008
  682MOL0     C89902   8.521   5.071   5.682 -0.5050  0.8042 -0.2059
  682MOL0     C89903   8.498   5.078   5.536  0.3074 -0.6346  0.4496
  682MOL0     C89904   8.387   5.180   5.523  0.1098 -0.5747  0.0742
  682MOL0     C89905   8.364   5.204   5.374 -1.7465  0.1335 -0.2860
  682MOL0     C89906   8.448   5.317   5.321  0.1558  0.0951 -0.0204
  682MOL0     C89907   8.385   5.378   5.204 -0.4017  0.7587  0.0701
  682MOL0     C89908   8.407   5.296   5.074  0.1816 -0.4841  0.6081
  682MOL0     N89909   8.275   5.262   5.017 -0.0298  0.0803 -0.2849
  682MOL0     C89910   8.223   5.140   5.026 -0.3321  0.2481 -0.2052
  682MOL0     C89911   8.097   5.155   4.990 -0.5140 -0.1026  0.3465
  682MOL0     C89912   7.994   5.049   4.972 -0.6636 -0.8122 -0.0623
  682MOL0     C89913   7.976   4.961   5.098 -0.5777 -0.0502  0.0249
  682MOL0     C89914   7.884   5.029   5.208 -0.0487 -0.1271  0.8105
  682MOL0     C89915   7.838   4.911   5.294  0.3190  0.8034  0.4949
  682MOL0     O89916   7.758   4.823   5.216 -0.3708  0.6459 -0.1363
  682MOL0     C89917   7.630   4.799   5.257 -0.4161 -0.5111 -0.0628
  682MOL0     C89918   7.530   4.893   5.228 -1.1960 -0.7331 -1.0500
  682MOL0     C89919   7.409   4.882   5.292  0.9912 -0.9041 -0.0076
  682MOL0     C89920   7.367   4.774   5.370  1.1444  0.9086  0.3987
  682MOL0     C89921   7.233   4.761   5.428 -0.4844 -0.3816  0.7602
  682MOL0     O89922   7.140   4.851   5.374  0.1463  0.0643  0.2061
  682MOL0     C89923   7.016   4.837   5.418  0.2752 -0.3802  0.8965
  682MOL0     C89924   6.922   4.784   5.333 -0.2219  0.0474  0.1367
  682MOL0     C89925   6.799   4.747   5.391  0.2784  0.1429  1.1638
  682MOL0     C89926   6.760   4.781   5.527 -0.4202  0.8294 -0.0854
  682MOL0     O89927   6.641   4.731   5.566  0.1357  0.0027 -0.5598
  682MOL0     C89928   6.644   4.644   5.686  0.4383 -0.6104  0.4012
  682MOL0     C89929   6.604   4.731   5.809  0.4011 -0.5542  0.0905
  682MOL0     C89930   6.659   4.681   5.944  0.3391  0.0752 -0.3465
  682MOL0     C89931   6.578   4.559   5.992  1.1337  0.1029 -0.4772
  682MOL0     C89932   6.641   4.426   5.990  0.5724  0.0800 -0.1507
  682MOL0     C89933   6.522   4.326   6.019  0.0728 -0.1753  0.5572
  682MOL0     C89934   6.562   4.182   6.045 -0.5873  0.4241  0.0506
  682MOL0     C89935   6.454   4.089   6.056  1.4703  1.0470 -1.3261
  682MOL0    Cl89936   6.383   4.072   5.892  0.0373  0.5484 -0.2439
  682MOL0     C89937   6.855   4.843   5.610  0.2648 -0.8864  0.0349
  682MOL0     C89938   6.984   4.872   5.553 -0.4354 -0.9363 -0.3600
  682MOL0     O89939   7.213   4.671   5.506 -0.0493 -0.6677  0.4868
  682MOL0     C89940   7.467   4.682   5.399 -1.1029  0.3275 -0.2371
  682MOL0     C89941   7.598   4.688   5.351  0.0038 -0.5174  0.8368
  682MOL0     N89942   8.071   5.286   4.970 -0.2935  0.0078 -0.0165
  682MOL0     N89943   8.180   5.352   4.987 -0.0090 -0.2791  0.3525
  682MOL0     C89944   8.514   4.723   5.625 -0.2654  0.7315  0.6441
  682MOL0     C89945   8.427   4.628   5.569  0.8128  0.7363  0.7880
  682MOL0     C89946   8.029   4.514   5.388 -0.5420 -0.0278  0.9573
  682MOL0     C89947   7.938   4.445   5.473  0.2762 -0.7066  0.0203
  682MOL0     C89948   7.816   4.397   5.430 -0.0241 -0.6798  0.7723
  682MOL0     C89949   7.779   4.409   5.294 -0.5773  0.1446 -0.3986
  682MOL0     O89950   7.652   4.366   5.260  0.1542  0.0123 -0.1314
  682MOL0     C89951   7.599   4.348   5.124  0.0463 -0.4391 -1.0211
  682MOL0     C89952   7.469   4.424   5.119 -1.1768  0.4037 -0.3801
  682MOL0     C89953   7.366   4.341   5.195  1.0331 -0.8222 -0.8003
  682MOL0     C89954   7.230   4.397   5.133 -0.1401 -0.2916 -0.1803
  682MOL0     C89955   7.103   4.334   5.157 -0.6548 -0.2277  0.6372
  682MOL0     C89956   6.999   4.273   5.175 -0.1327  0.6548  0.5058
  682MOL0     C89957   7.866   4.467   5.204 -0.0136 -0.1245 -0.1183
  682MOL0     C89958   7.990   4.515   5.250  0.3348  1.3276  0.9450
  682MOL0     H89959   8.178   4.645   5.806  2.0544 -1.9928  2.4671
  682MOL0     H89960   8.320   4.787   5.907 -2.7294 -0.2194  0.0986
  682MOL0     H89961   8.700   4.944   5.661 -0.4324 -1.5426  1.3426
  682MOL0     H89962   8.679   5.035   5.811  0.9195 -2.5152  1.3778
  682MOL0     H89963   8.552   5.169   5.720  0.5126  0.1650  0.6866
  682MOL0     H89964   8.434   5.045   5.742  1.7266 -1.8672  2.1392
  682MOL0     H89965   8.472   4.981   5.492 -0.1613  0.9094 -3.0355
  682MOL0     H89966   8.590   5.111   5.488 -0.4083  0.3460 -0.2975
  682MOL0     H89967   8.293   5.145   5.566 -0.0135  0.9379  1.1374
  682MOL0     H89968   8.419   5.274   5.569  2.0179 -1.2503  0.2479
  682MOL0     H89969   8.259   5.230   5.353 -2.1985 -1.9228 -0.8377
  682MOL0     H89970   8.399   5.109   5.332 -1.5922 -2.2705  4.5815
  682MOL0     H89971   8.551   5.289   5.298  0.0458 -0.2634 -0.0888
  682MOL0     H89972   8.456   5.387   5.404  0.3391 -1.4023  1.2753
  682MOL0     H89973   8.279   5.396   5.227 -0.0352  0.3594  2.3779
  682MOL0     H89974   8.423   5.480   5.194 -2.0105  1.3425 -0.3982
  682MOL0     H89975   8.482   5.217   5.088 -0.4213 -1.8544 -2.7413
  682MOL0     H89976   8.460   5.351   4.996  1.6987 -0.7093  1.4446
  682MOL0     H89977   8.278   5.051   5.055  0.9489  0.6628 -1.2636
  682MOL0     H89978   8.029   4.985   4.891 -0.1891 -0.2716 -0.2925
  682MOL0     H89979   7.899   5.096   4.944  0.3639  1.0369 -0.6368
  682MOL0     H89980   8.071   4.950   5.153  0.2778 -0.3206 -1.4630
  682MOL0     H89981   7.945   4.859   5.075  0.4056 -1.8685  5.3555
  682MOL0     H89982   7.954   5.097   5.257  1.7465  1.1816 -3.1465
  682MOL0     H89983   7.803   5.091   5.168 -1.2339 -0.9333  1.8870
  682MOL0     H89984   7.771   4.951   5.371 -2.2830  0.2678 -1.3583
  682MOL0     H89985   7.918   4.852   5.339 -1.9882 -2.6624  0.3761
  682MOL0     H89986   7.552   4.989   5.184 -1.1815 -0.9813 -1.5879
  682MOL0     H89987   7.338   4.960   5.264  1.0652 -0.9617 -0.3599
  682MOL0     H89988   6.944   4.756   5.231  2.6347 -1.3328  1.0450
  682MOL0     H89989   6.731   4.695   5.324 -0.1421 -0.6008  2.1351
  682MOL0     H89990   6.748   4.610   5.685  0.4217 -1.0799 -4.0369
  682MOL0     H89991   6.583   4.554   5.674  1.6360 -1.6777  1.8092
  682MOL0     H89992   6.497   4.751   5.805  0.6021  0.4236 -0.7362
  682MOL0     H89993   6.643   4.832   5.798  0.6714 -0.4378  1.7834
  682MOL0     H89994   6.679   4.756   6.020  5.2071 -3.8003  2.7953
  682MOL0     H89995   6.763   4.648   5.932  0.2202 -0.0180 -1.2661
  682MOL0     H89996   6.545   4.592   6.091  0.7164  0.3201 -0.6836
  682MOL0     H89997   6.483   4.561   5.938 -0.3006  0.5191  1.9199
  682MOL0     H89998   6.721   4.413   6.063 -0.0975  1.3019  0.8400
  682MOL0     H89999   6.672   4.408   5.886 -2.0904 -0.3164 -0.9412
  682MOL0     H90000   6.440   4.320   5.946  0.5027 -2.8569  0.1785
  682MOL0     H90001   6.485   4.358   6.117  0.0519 -1.0183  0.8287
  682MOL0     H90002   6.633   4.159   5.965  1.5275  3.7696  0.7783
  682MOL0     H90003   6.622   4.172   6.136 -0.1616  0.2600 -0.2416
  682MOL0     H90004   6.379   4.124   6.127  1.1287 -1.4119 -0.3746
  682MOL0     H90005   6.489   3.991   6.092 -1.8157  0.0416 -0.4990
  682MOL0     H90006   6.831   4.871   5.712  3.1638 -2.5901  1.2870
  682MOL0     H90007   7.051   4.920   5.623  0.0198 -1.7334 -0.2351
  682MOL0     H90008   7.443   4.596   5.461 -0.0475  0.1360 -0.0758
  682MOL0     H90009   7.673   4.613   5.376 -1.3022 -2.6665 -1.2203
  682MOL0     H90010   8.613   4.748   5.587 -1.0246  0.1224 -1.9367
  682MOL0     H90011   8.453   4.590   5.471 -1.0998 -0.8350  0.8342
  682MOL0     H90012   7.975   4.433   5.575 -1.7086 -1.9209  0.6483
  682MOL0     H90013   7.742   4.349   5.495 -0.2488 -0.6740  0.5252
  682MOL0     H90014   7.583   4.242   5.100  4.3422 -0.7547 -3.5409
  682MOL0     H90015   7.671   4.388   5.052  4.3569 -0.6813  2.6768
  682MOL0     H90016   7.497   4.527   5.146  1.9277 -0.5579  0.4804
  682MOL0     H90017   7.450   4.418   5.012  3.3667 -1.3432 -1.2890
  682MOL0     H90018   7.372   4.369   5.300  0.0410  3.7720 -1.7360
  682MOL0     H90019   7.367   4.233   5.176  3.6148 -1.0902  0.4258
  682MOL0     H90020   7.215   4.498   5.172 -1.8592 -0.3124 -0.7205
  682MOL0     H90021   7.229   4.402   5.024 -0.0136 -1.0337 -0.2188
  682MOL0     H90022   6.907   4.218   5.183 -0.3117  0.8732 -0.0161
  682MOL0     H90023   7.832   4.503   5.107  0.2527 -0.6980 -0.4268
  682MOL0     H90024   8.045   4.579   5.182  1.4405 -0.3395  0.1903
  683MOL0     O90025   7.584   2.536   4.913  0.8733  0.1554 -0.3866
  683MOL0     C90026   7.478   2.508   4.966  0.3212 -0.2430 -0.0564
  683MOL0     O90027   7.369   2.458   4.907  0.0314 -0.2613 -0.5448
  683MOL0     C90028   7.347   2.438   4.765  1.0024 -0.1264 -0.4529
  683MOL0     C90029   7.213   2.403   4.725 -0.1413 -0.3321  0.0819
  683MOL0     C90030   7.199   2.384   4.587  0.0092  0.3090  0.4560
  683MOL0     C90031   7.303   2.395   4.492  0.3231  0.7941  0.3842
  683MOL0     O90032   7.261   2.375   4.361 -0.2709 -0.3043  0.2969
  683MOL0     C90033   7.342   2.390   4.242 -0.3692 -0.3437 -0.4838
  683MOL0     C90034   7.258   2.368   4.120  0.2818 -1.0241  0.9419
  683MOL0     C90035   7.196   2.239   4.114 -0.1071  1.7963  0.2314
  683MOL0     C90036   7.089   2.223   4.007  0.0705  0.3466 -0.5696
  683MOL0     C90037   6.948   2.257   4.052 -0.7389 -0.6735 -0.2725
  683MOL0     C90038   6.934   2.373   4.153 -0.8928  0.1412  1.1438
  683MOL0     C90039   6.795   2.402   4.210  0.2965 -0.2232  0.0522
  683MOL0     C90040   6.672   2.373   4.117  0.3667  0.3217  0.6941
  683MOL0     N90041   6.663   2.468   4.006 -0.4189  0.2656 -1.1123
  683MOL0     C90042   6.636   2.601   4.010  1.2763 -1.0590 -0.3803
  683MOL0     C90043   6.656   2.645   3.886  1.5177  0.2234  0.1123
  683MOL0     C90044   6.646   2.787   3.845  0.2346  0.7563 -1.2993
  683MOL0     C90045   6.548   2.797   3.737 -1.2494  0.0880  0.5699
  683MOL0     C90046   6.502   2.942   3.718 -0.2115  0.3486 -0.7588
  683MOL0     C90047   6.411   2.965   3.600 -0.7182 -0.2386 -0.4119
  683MOL0     O90048   6.284   2.893   3.629  0.2151  0.4048  0.3784
  683MOL0     C90049   6.198   2.945   3.725  0.1010  0.2602  1.2048
  683MOL0     C90050   6.196   3.074   3.787  1.2483 -0.6520  0.5824
  683MOL0     C90051   6.102   3.105   3.893  0.3041  0.6764  0.3493
  683MOL0     C90052   5.996   3.023   3.931 -0.5872  0.3278  1.4361
  683MOL0     C90053   5.893   3.063   4.026  0.1214  0.5767 -0.5497
  683MOL0     O90054   5.894   3.180   4.081 -0.4463 -0.3167 -0.4955
  683MOL0     C90055   5.798   3.199   4.178 -0.5297  0.2507 -0.1542
  683MOL0     C90056   5.685   3.266   4.131 -0.0821  0.2732  0.5014
  683MOL0     C90057   5.585   3.312   4.219  0.7516  0.1523  0.4482
  683MOL0     C90058   5.593   3.271   4.355 -0.0563 -0.9488  0.0006
  683MOL0     O90059   5.490   3.305   4.432  0.8268  0.5521  0.6581
  683MOL0     C90060   5.432   3.206   4.529 -0.7838  0.0006  0.7420
  683MOL0     C90061   5.295   3.254   4.588  0.6056  0.3869 -0.0696
  683MOL0     C90062   5.298   3.377   4.677 -0.1784 -0.2266 -0.3935
  683MOL0     C90063   5.159   3.385   4.748 -0.3386 -0.3818  0.4874
  683MOL0     C90064   5.129   3.526   4.802  0.3928  0.0662  0.1391
  683MOL0     C90065   5.222   3.581   4.906 -0.4643  0.1656 -0.1985
  683MOL0     C90066   5.250   3.503   5.031  0.0300  0.1203  0.5542
  683MOL0     C90067   5.353   3.572   5.124  0.8047 -0.0585  1.0911
  683MOL0    Cl90068   5.500   3.611   5.034 -0.5228  0.6230  0.2714
  683MOL0     C90069   5.708   3.202   4.402 -0.3601  0.0037  1.0803
  683MOL0     C90070   5.808   3.167   4.313  0.2960 -0.1042  0.2261
  683MOL0     O90071   5.810   2.977   4.051 -0.0509  0.5210 -0.8116
  683MOL0     C90072   5.996   2.900   3.860  0.6514  1.1827 -0.6494
  683MOL0     C90073   6.090   2.861   3.761 -0.1513  0.3794 -0.8189
  683MOL0     N90074   6.692   2.541   3.803  0.5047  0.0110  0.7441
  683MOL0     N90075   6.682   2.435   3.876 -1.3266 -1.0183 -1.2390
  683MOL0     C90076   7.430   2.439   4.535  0.4540 -0.4383  1.1979
  683MOL0     C90077   7.452   2.459   4.668  0.3187  0.1427  0.3689
  683MOL0     C90078   7.470   2.547   5.113  0.0336 -0.3377  0.0029
  683MOL0     C90079   7.349   2.564   5.177  0.1723  0.5603 -0.7986
  683MOL0     C90080   7.335   2.593   5.313 -0.2221  0.5846 -0.4628
  683MOL0     C90081   7.448   2.623   5.385 -0.5226 -0.4836 -0.3320
  683MOL0     O90082   7.435   2.656   5.523 -0.0254  1.0204 -0.0898
  683MOL0     C90083   7.560   2.691   5.589 -0.0024 -0.2809  0.3054
  683MOL0     C90084   7.543   2.754   5.737 -0.0934 -0.0390  0.9778
  683MOL0     C90085   7.484   2.664   5.846 -0.7864 -0.1106 -0.4184
  683MOL0     C90086   7.590   2.567   5.890  0.8224  0.1842  0.1740
  683MOL0     C90087   7.678   2.628   5.991 -0.3254 -0.4485  0.6791
  683MOL0     C90088   7.749   2.666   6.081 -0.8362 -0.3785  0.0560
  683MOL0     C90089   7.571   2.609   5.327 -0.1721  0.5411  0.5572
  683MOL0     C90090   7.582   2.573   5.187  0.8746 -0.2961 -0.5161
  683MOL0     H90091   7.136   2.407   4.801 -1.1958 -0.2446 -0.9604
  683MOL0     H90092   7.098   2.358   4.555  0.9122 -0.7751 -1.7466
  683MOL0     H90093   7.430   2.326   4.254 -1.3416 -1.2510  2.5249
  683MOL0     H90094   7.371   2.496   4.247 -2.8197  0.3360  2.2716
  683MOL0     H90095   7.319   2.385   4.031 -3.8443  0.7777 -1.8179
  683MOL0     H90096   7.187   2.450   4.119 -1.3814 -2.4073  0.4770
  683MOL0     H90097   7.169   2.200   4.212  1.4367 -0.0602 -0.0264
  683MOL0     H90098   7.278   2.176   4.078 -1.8431 -0.5931  0.2803
  683MOL0     H90099   7.115   2.296   3.930 -1.3918 -0.0411 -1.4792
  683MOL0     H90100   7.088   2.119   3.972 -0.2793  0.4277 -0.8012
  683MOL0     H90101   6.900   2.176   4.107 -1.6117 -0.3373 -0.5183
  683MOL0     H90102   6.888   2.276   3.963 -3.6153 -2.2660  1.2022
  683MOL0     H90103   6.953   2.470   4.106  2.6490  1.5342  4.8883
  683MOL0     H90104   6.997   2.362   4.242 -1.5252  2.0538  1.8809
  683MOL0     H90105   6.770   2.342   4.298  2.5395  0.8604  1.4936
  683MOL0     H90106   6.790   2.503   4.251  4.0138  0.3326 -0.5783
  683MOL0     H90107   6.583   2.365   4.180  0.7997 -3.0060  1.0870
  683MOL0     H90108   6.685   2.274   4.072  2.5494  0.9785 -0.2501
  683MOL0     H90109   6.613   2.662   4.097 -1.5712  0.6122 -2.1358
  683MOL0     H90110   6.746   2.827   3.827  1.6117 -1.2511  1.2587
  683MOL0     H90111   6.596   2.845   3.923  0.0786  0.8324 -1.4531
  683MOL0     H90112   6.463   2.730   3.758 -0.0781 -1.0506  1.8380
  683MOL0     H90113   6.591   2.753   3.646  1.9171 -1.0122  2.4514
  683MOL0     H90114   6.445   2.971   3.807  4.7865  0.3745  2.9138
  683MOL0     H90115   6.590   3.008   3.716 -0.6308  0.9498  0.0190
  683MOL0     H90116   6.456   2.916   3.513  3.4154 -0.9263  1.8166
  683MOL0     H90117   6.385   3.071   3.591  0.4785  0.1894  0.8062
  683MOL0     H90118   6.269   3.152   3.769  4.5807 -3.0827  2.5276
  683MOL0     H90119   6.126   3.197   3.946  1.8575  0.9418 -0.7576
  683MOL0     H90120   5.679   3.278   4.024  2.7059 -1.4137  0.0452
  683MOL0     H90121   5.505   3.375   4.181  0.8550  2.4252  3.6239
  683MOL0     H90122   5.505   3.186   4.608 -0.6863 -4.3702 -0.2302
  683MOL0     H90123   5.421   3.117   4.467  0.5369  2.1501 -2.8813
  683MOL0     H90124   5.256   3.169   4.644  2.0234 -1.9897 -2.4661
  683MOL0     H90125   5.222   3.275   4.509  0.6966  3.1552  0.4633
  683MOL0     H90126   5.312   3.469   4.620  1.1330  0.6516  1.2606
  683MOL0     H90127   5.376   3.363   4.752  0.1009 -1.4715 -0.8960
  683MOL0     H90128   5.074   3.358   4.685 -0.9064  0.9893  0.6172
  683MOL0     H90129   5.162   3.321   4.836  1.3269 -2.8570 -1.2530
  683MOL0     H90130   5.025   3.534   4.838  0.0200 -1.4723 -0.5543
  683MOL0     H90131   5.134   3.606   4.728 -0.8965  1.9915  2.0070
  683MOL0     H90132   5.175   3.675   4.934  1.8036  1.0842  0.7530
  683MOL0     H90133   5.317   3.601   4.855  0.7002  0.7599  2.0780
  683MOL0     H90134   5.155   3.493   5.084  0.2006  2.5712  1.4557
  683MOL0     H90135   5.285   3.405   4.997 -1.2872 -0.5624  1.1028
  683MOL0     H90136   5.385   3.505   5.205  2.3061 -1.7060 -0.7809
  683MOL0     H90137   5.309   3.663   5.165 -0.2280 -0.5252  1.0323
  683MOL0     H90138   5.710   3.163   4.504 -1.6465  1.0382  1.5131
  683MOL0     H90139   5.896   3.114   4.348  0.3971  1.2413  2.1575
  683MOL0     H90140   5.918   2.832   3.893  1.1768 -0.3690 -2.4388
  683MOL0     H90141   6.081   2.766   3.710  3.7495  0.1465 -1.3945
  683MOL0     H90142   7.504   2.469   4.462  0.3566  0.0220  1.2837
  683MOL0     H90143   7.550   2.495   4.697  0.5296  1.8248 -2.1655
  683MOL0     H90144   7.257   2.536   5.128  1.1171 -1.4806 -1.5356
  683MOL0     H90145   7.243   2.590   5.371  0.7105  4.4005  1.5158
  683MOL0     H90146   7.625   2.756   5.530  1.0227 -0.2773  1.4047
  683MOL0     H90147   7.606   2.592   5.601  1.8737  0.2084 -2.1483
  683MOL0     H90148   7.641   2.791   5.768 -0.0597  4.3556 -3.2643
  683MOL0     H90149   7.488   2.848   5.735 -0.7942 -0.3627  2.7596
  683MOL0     H90150   7.397   2.609   5.810 -0.3468 -0.5832 -0.7704
  683MOL0     H90151   7.449   2.717   5.935 -0.3707 -0.6125  0.0565
  683MOL0     H90152   7.535   2.483   5.934  2.6613  0.0307  2.3717
  683MOL0     H90153   7.655   2.535   5.808 -0.4419 -0.7261 -0.5133
  683MOL0     H90154   7.817   2.682   6.161  0.3245 -0.0855 -0.9514
  683MOL0     H90155   7.662   2.591   5.383  0.7397 -2.0225 -1.5261
  683MOL0     H90156   7.681   2.552   5.147 -0.1170 -4.5000 -1.2929
  684MOL0     O90157  10.820   9.761  11.384  0.1261 -0.2078 -0.0130
  684MOL0     C90158  10.803   9.697  11.285  0.3936 -0.5328  0.5143
  684MOL0     O90159  10.862   9.575  11.256 -0.7149 -0.0259  0.3417
  684MOL0     C90160  10.920   9.495  11.353  0.3228 -0.6895  0.3702
  684MOL0     C90161  10.901   9.506  11.490 -0.3405  0.4059  0.1204
  684MOL0     C90162  10.951   9.422  11.588  0.7162 -1.4265  0.3488
  684MOL0     C90163  11.059   9.347  11.539 -0.0973  0.0082 -1.0884
  684MOL0     O90164  11.120   9.254  11.621 -0.6731 -0.3562  0.4779
  684MOL0     C90165  11.156   9.287  11.755  0.4359 -0.2646  0.0791
  684MOL0     C90166  11.276   9.199  11.798  0.3411 -0.6007  0.5664
  684MOL0     C90167  11.260   9.047  11.770 -0.0115 -0.1903  0.1250
  684MOL0     C90168  11.151   9.000  11.864  0.1156 -0.7339 -0.4716
  684MOL0     C90169  11.141   8.847  11.850  0.5996  1.0622 -0.3780
  684MOL0     C90170  11.166   8.792  11.994  0.1783 -0.4373  0.1069
  684MOL0     C90171  11.127   8.645  11.996 -0.0885 -0.3980 -0.1358
  684MOL0     C90172  11.223   8.560  11.917  0.8382 -0.0451  0.8127
  684MOL0     N90173  11.359   8.564  11.973  0.1225  0.7436 -0.8082
  684MOL0     C90174  11.375   8.517  12.098  0.1050 -0.6591 -0.6177
  684MOL0     C90175  11.508   8.547  12.116 -0.0775 -0.0911 -0.3962
  684MOL0     C90176  11.594   8.502  12.226  0.0351  0.3910 -0.0237
  684MOL0     C90177  11.538   8.488  12.367  0.1297  0.2507 -0.5219
  684MOL0     C90178  11.644   8.427  12.454 -0.1203  0.3348 -0.4921
  684MOL0     C90179  11.590   8.394  12.593 -0.2462  0.8081 -1.1283
  684MOL0     O90180  11.702   8.353  12.680  0.0780  0.3934  0.0526
  684MOL0     C90181  11.661   8.356  12.815  0.0217 -0.1860 -0.2519
  684MOL0     C90182  11.751   8.390  12.913  0.6207 -0.7276 -0.0551
  684MOL0     C90183  11.718   8.395  13.047 -1.2674 -0.3783  0.2989
  684MOL0     C90184  11.587   8.360  13.096 -0.4129  0.1926  0.0445
  684MOL0     C90185  11.544   8.377  13.241  0.5505 -0.3271  0.4975
  684MOL0     O90186  11.424   8.322  13.277  0.5247  0.1801 -0.0055
  684MOL0     C90187  11.375   8.329  13.409 -0.0204 -0.3377  0.7718
  684MOL0     C90188  11.448   8.299  13.522 -0.0287 -0.0857  0.1580
  684MOL0     C90189  11.388   8.311  13.646  0.6000  0.1506  1.0065
  684MOL0     C90190  11.250   8.352  13.664 -0.8167  0.7107  0.6321
  684MOL0     O90191  11.209   8.359  13.791  0.7545  0.1836  0.5611
  684MOL0     C90192  11.066   8.386  13.820 -0.9115  0.2424 -0.7393
  684MOL0     C90193  11.061   8.367  13.969  0.1347  0.2333  0.7526
  684MOL0     C90194  10.941   8.448  14.025 -0.8301  0.1809 -0.6490
  684MOL0     C90195  10.945   8.452  14.183 -0.6795  0.5036  0.1555
  684MOL0     C90196  10.889   8.578  14.252 -0.8657  0.6355  0.1361
  684MOL0     C90197  10.872   8.562  14.403  0.2878 -0.9947 -0.3370
  684MOL0     C90198  10.840   8.699  14.458  0.0297  0.2257 -0.5841
  684MOL0     C90199  10.788   8.685  14.600 -0.4660 -0.0707  0.6104
  684MOL0    Cl90200  10.606   8.631  14.578  0.2799 -0.3714 -0.0825
  684MOL0     C90201  11.178   8.365  13.551  0.9153  0.5078  0.1898
  684MOL0     C90202  11.241   8.358  13.422  0.1599 -0.3647  0.4677
  684MOL0     O90203  11.632   8.422  13.313 -0.2976 -0.3234 -0.0530
  684MOL0     C90204  11.495   8.324  12.994 -0.2323  0.4953  0.2262
  684MOL0     C90205  11.528   8.329  12.856  0.1162  1.4646 -1.3983
  684MOL0     N90206  11.563   8.605  12.003  1.1820 -0.3583 -0.3384
  684MOL0     N90207  11.467   8.616  11.919  0.0849  0.0824  0.0019
  684MOL0     C90208  11.102   9.345  11.406  1.0065  0.5029  1.1062
  684MOL0     C90209  11.026   9.411  11.310  0.5695  0.8956 -0.8233
  684MOL0     C90210  10.701   9.754  11.194 -0.3601  0.0538 -0.1997
  684MOL0     C90211  10.651   9.885  11.216 -0.7855  0.0962 -0.1445
  684MOL0     C90212  10.551   9.935  11.123  0.4742 -0.2403 -0.3541
  684MOL0     C90213  10.502   9.861  11.024 -1.1701 -0.4606  0.3742
  684MOL0     O90214  10.398   9.921  10.956 -0.2118  0.5959 -0.0499
  684MOL0     C90215  10.340   9.834  10.851  0.6819  0.6028 -0.2138
  684MOL0     C90216  10.400   9.874  10.718 -0.0698 -0.1033  0.5914
  684MOL0     C90217  10.348   9.786  10.602 -0.8364  0.8804  0.4118
  684MOL0     C90218  10.200   9.773  10.581  0.0849 -0.5074  0.0860
  684MOL0     C90219  10.133   9.898  10.566 -0.3533 -0.7476 -0.3593
  684MOL0     C90220  10.069  10.001  10.571  1.1619 -0.0103  0.0398
  684MOL0     C90221  10.556   9.738  11.006 -0.0470  1.4940 -0.3018
  684MOL0     C90222  10.646   9.692  11.087  0.1920 -0.3397  0.0724
  684MOL0     H90223  10.830   9.579  11.526 -1.1554 -1.0860  1.6349
  684MOL0     H90224  10.904   9.412  11.686 -0.6431  0.9705  0.0241
  684MOL0     H90225  11.071   9.274  11.822 -0.4043  1.6688 -0.5245
  684MOL0     H90226  11.181   9.393  11.759  1.3858 -0.4077 -1.3996
  684MOL0     H90227  11.298   9.237  11.898  1.0756  2.0166 -0.5071
  684MOL0     H90228  11.354   9.233  11.729 -1.5137  1.3931 -0.6622
  684MOL0     H90229  11.357   9.001  11.786  1.0893  1.2442 -1.8574
  684MOL0     H90230  11.238   9.029  11.664  1.5058  0.5082 -0.3300
  684MOL0     H90231  11.165   9.025  11.970 -3.3799 -1.6303  0.3212
  684MOL0     H90232  11.051   9.041  11.851  0.2617 -0.2724 -0.1933
  684MOL0     H90233  11.219   8.812  11.782 -0.2632 -1.3557 -0.2476
  684MOL0     H90234  11.043   8.835  11.803 -1.5727  4.0475  2.8121
  684MOL0     H90235  11.095   8.846  12.058 -0.3535 -2.2002  1.0751
  684MOL0     H90236  11.265   8.812  12.037 -0.7217 -1.7110  3.0810
  684MOL0     H90237  11.108   8.605  12.096 -0.2628 -2.9921 -1.1363
  684MOL0     H90238  11.029   8.644  11.947 -0.6566 -1.5611  0.9482
  684MOL0     H90239  11.225   8.582  11.810  1.3081  1.7219  1.1440
  684MOL0     H90240  11.180   8.460  11.911 -1.4951  0.9526 -3.0414
  684MOL0     H90241  11.305   8.467  12.164  1.5438  0.4736  1.9182
  684MOL0     H90242  11.672   8.578  12.238  1.5359 -0.9412 -0.8204
  684MOL0     H90243  11.649   8.413  12.194  2.6264  1.3503  1.3922
  684MOL0     H90244  11.452   8.422  12.379 -1.7143  2.6637  0.2057
  684MOL0     H90245  11.511   8.587  12.405  2.1987  0.5331  0.3686
  684MOL0     H90246  11.673   8.336  12.402 -2.4466 -0.6297 -0.2396
  684MOL0     H90247  11.726   8.499  12.465 -0.2489  0.1655  2.4668
  684MOL0     H90248  11.511   8.318  12.590 -1.2659  1.8666 -2.8305
  684MOL0     H90249  11.543   8.480  12.641 -2.8189 -1.6169  1.0435
  684MOL0     H90250  11.849   8.425  12.883 -0.3839  2.8645  0.2859
  684MOL0     H90251  11.784   8.435  13.122  1.3872  0.0241 -2.0886
  684MOL0     H90252  11.549   8.264  13.502 -1.7909 -5.1485 -1.2967
  684MOL0     H90253  11.435   8.309  13.744  1.3349  1.5232  0.7005
  684MOL0     H90254  10.988   8.331  13.766 -0.3907  1.3072 -2.6626
  684MOL0     H90255  11.042   8.488  13.789  3.3381  1.3377 -0.9270
  684MOL0     H90256  11.157   8.400  14.010 -0.1385 -0.3207  1.8934
  684MOL0     H90257  11.051   8.261  13.998  1.8872 -1.3957 -3.7610
  684MOL0     H90258  10.844   8.408  13.994 -0.4753 -2.3175  1.1381
  684MOL0     H90259  10.949   8.551  13.987  1.2085 -0.0917 -1.0775
  684MOL0     H90260  10.891   8.359  14.207 -1.9799  0.0890 -3.7421
  684MOL0     H90261  11.049   8.452  14.217 -1.1181  3.3304  1.7377
  684MOL0     H90262  10.793   8.611  14.212 -0.8418  2.6336  1.5975
  684MOL0     H90263  10.955   8.660  14.223 -0.2535 -0.3040 -1.2912
  684MOL0     H90264  10.960   8.526  14.455  0.5758 -0.2688 -0.3028
  684MOL0     H90265  10.786   8.501  14.431 -2.4681  2.3873 -0.6456
  684MOL0     H90266  10.929   8.761  14.447  0.7117 -0.5432  0.3493
  684MOL0     H90267  10.770   8.744  14.388 -1.2865  0.1054  0.6155
  684MOL0     H90268  10.790   8.784  14.646 -1.9764 -0.0986  0.8040
  684MOL0     H90269  10.851   8.629  14.670 -5.1682 -1.6625  4.1393
  684MOL0     H90270  11.074   8.389  13.567  0.9514  0.4698  0.4934
  684MOL0     H90271  11.182   8.360  13.330  4.2681 -1.1531 -2.4609
  684MOL0     H90272  11.394   8.304  13.029 -0.8273  1.0771 -1.0971
  684MOL0     H90273  11.445   8.307  12.789  1.2713  0.5382 -2.5802
  684MOL0     H90274  11.194   9.298  11.374  1.1262  1.1070  0.5595
  684MOL0     H90275  11.035   9.391  11.203  4.1980  0.1509 -0.5119
  684MOL0     H90276  10.698   9.939  11.298  0.8765 -3.1209  1.2432
  684MOL0     H90277  10.514  10.035  11.143  0.6010 -0.7010  2.6545
  684MOL0     H90278  10.237   9.867  10.838  1.3517  2.0858 -2.3055
  684MOL0     H90279  10.338   9.726  10.869 -1.2014  0.1630 -2.5621
  684MOL0     H90280  10.372   9.979  10.702  1.8014  0.1448 -1.5035
  684MOL0     H90281  10.507   9.883  10.737 -0.1081  0.7505  0.4397
  684MOL0     H90282  10.387   9.685  10.619  0.2790  1.0487 -0.9468
  684MOL0     H90283  10.385   9.818  10.504  0.1528 -0.9775  0.1371
  684MOL0     H90284  10.175   9.727  10.486 -0.3391 -0.0804 -0.0177
  684MOL0     H90285  10.150   9.724  10.665 -0.9969  1.1904  0.5027
  684MOL0     H90286  10.010  10.089  10.584  0.5437 -0.8641  5.4673
  684MOL0     H90287  10.512   9.661  10.944  1.6967 -2.7115  3.1349
  684MOL0     H90288  10.681   9.593  11.060  2.0845  0.0579  0.8738
  685MOL0     O90289   9.244  11.429   3.020 -0.1388 -1.0727  0.7011
  685MOL0     C90290   9.283  11.549   3.009 -0.0902  1.0284 -0.5574
  685MOL0     O90291   9.337  11.607   2.905 -0.4129  0.3847 -0.4602
  685MOL0     C90292   9.342  11.528   2.794 -0.3562 -0.0965 -0.1065
  685MOL0     C90293   9.231  11.500   2.704  0.9840  0.1719  0.0945
  685MOL0     C90294   9.247  11.430   2.584 -0.2055  0.7641 -0.8572
  685MOL0     C90295   9.361  11.355   2.567  1.3440 -0.3777  0.5986
  685MOL0     O90296   9.380  11.264   2.465 -0.5470  0.6359 -0.3379
  685MOL0     C90297   9.266  11.195   2.422  0.1068 -0.2843 -0.8977
  685MOL0     C90298   9.318  11.079   2.335  0.3833  0.6087 -0.1421
  685MOL0     C90299   9.464  11.036   2.381 -0.5090 -0.9977  0.3284
  685MOL0     C90300   9.489  10.899   2.308 -0.4688 -0.2224 -1.0949
  685MOL0     C90301   9.579  10.791   2.385 -0.5586  0.8230  0.2737
  685MOL0     C90302   9.721  10.854   2.434 -0.4148  0.2421 -0.2763
  685MOL0     C90303   9.822  10.905   2.320 -0.1485  0.0564 -0.0188
  685MOL0     C90304   9.960  10.933   2.374 -0.6512  0.2188 -0.0569
  685MOL0     N90305  10.053  10.816   2.385  0.3339  0.3751 -0.3850
  685MOL0     C90306  10.097  10.753   2.502 -0.2923  0.2454  0.6037
  685MOL0     C90307  10.189  10.660   2.466 -0.3102  0.1664  0.4806
  685MOL0     C90308  10.282  10.579   2.558  0.1598 -0.5711 -0.1232
  685MOL0     C90309  10.410  10.660   2.595 -1.5474 -0.4088 -0.0733
  685MOL0     C90310  10.503  10.668   2.474  0.4266  0.4972  1.0634
  685MOL0     C90311  10.624  10.750   2.480 -0.6397 -0.1492  0.0045
  685MOL0     O90312  10.663  10.778   2.346  1.0025 -0.1410  0.5740
  685MOL0     C90313  10.794  10.805   2.312 -0.1677 -0.0872  0.1888
  685MOL0     C90314  10.889  10.841   2.409 -0.5199  0.9046 -0.5818
  685MOL0     C90315  11.015  10.872   2.383 -0.8675 -0.3149 -0.7599
  685MOL0     C90316  11.054  10.893   2.251  0.2375 -0.6670  0.1991
  685MOL0     C90317  11.186  10.939   2.221  0.0275 -0.3804 -1.2446
  685MOL0     O90318  11.254  11.007   2.334 -0.2585 -0.4061  0.0954
  685MOL0     C90319  11.357  11.093   2.292  0.5591 -0.2823 -1.0713
  685MOL0     C90320  11.491  11.065   2.276  0.6514  0.2444 -0.1117
  685MOL0     C90321  11.576  11.160   2.222 -0.1744  0.7208 -0.0861
  685MOL0     C90322  11.535  11.291   2.208  0.4280  1.3789 -0.8536
  685MOL0     O90323  11.632  11.378   2.175  0.6103 -0.9542 -0.1728
  685MOL0     C90324  11.585  11.505   2.146  0.1083 -0.8985 -1.2317
  685MOL0     C90325  11.705  11.582   2.101  0.6111  0.5705  0.1786
  685MOL0     C90326  11.668  11.674   1.992  0.8666 -0.6170  0.2628
  685MOL0     C90327  11.582  11.793   2.014  0.1461 -0.2388  0.1378
  685MOL0     C90328  11.534  11.854   1.881  0.2675  0.9404 -0.3922
  685MOL0     C90329  11.637  11.891   1.780 -0.6756 -0.7575  0.8953
  685MOL0     C90330  11.576  11.963   1.664 -0.7646 -1.0468  0.6327
  685MOL0     C90331  11.509  11.873   1.563  1.0083  0.4670 -0.2865
  685MOL0    Cl90332  11.450  11.969   1.422 -0.3826 -0.1964  0.0095
  685MOL0     C90333  11.394  11.322   2.224  0.9388 -0.9969  0.5704
  685MOL0     C90334  11.307  11.216   2.266 -0.2283  0.2705  0.5279
  685MOL0     O90335  11.230  10.919   2.109 -1.1384  0.5253  0.5624
  685MOL0     C90336  10.962  10.857   2.148 -0.6565  0.7047 -0.5766
  685MOL0     C90337  10.834  10.824   2.181  0.1597  0.8009  0.2163
  685MOL0     N90338  10.194  10.659   2.328  0.2229 -0.5900 -0.9035
  685MOL0     N90339  10.111  10.750   2.278 -0.4522 -0.1925  0.2262
  685MOL0     C90340   9.478  11.382   2.644  0.1799 -0.1516 -1.0133
  685MOL0     C90341   9.467  11.465   2.758 -0.5381 -0.2556 -0.3399
  685MOL0     C90342   9.275  11.627   3.132 -0.0436  0.9400  0.0210
  685MOL0     C90343   9.276  11.765   3.131  0.5239  0.4847 -0.9832
  685MOL0     C90344   9.243  11.836   3.245 -0.3293 -0.0061 -0.5721
  685MOL0     C90345   9.195  11.763   3.352  0.2018 -0.7107 -0.4829
  685MOL0     O90346   9.150  11.837   3.459  0.6636  0.7039 -0.0479
  685MOL0     C90347   9.112  11.783   3.585 -0.2576  0.0785  0.4193
  685MOL0     C90348   9.225  11.741   3.672 -1.5688  0.2642  0.5616
  685MOL0     C90349   9.175  11.694   3.811  0.7147 -0.2595  0.8970
  685MOL0     C90350   9.120  11.547   3.824 -0.6647 -0.0142  0.8182
  685MOL0     C90351   9.232  11.451   3.823 -1.1900  0.3845  0.5040
  685MOL0     C90352   9.328  11.378   3.824  0.5862  0.1422 -0.9392
  685MOL0     C90353   9.212  11.624   3.364  1.1881 -0.3915 -0.1409
  685MOL0     C90354   9.244  11.560   3.255 -0.3075  0.0255  0.1149
  685MOL0     H90355   9.135  11.542   2.734  0.4051  1.8453 -3.5847
  685MOL0     H90356   9.177  11.410   2.504  1.6519 -1.7286 -2.0138
  685MOL0     H90357   9.193  11.260   2.371  1.5604  1.0530 -1.3650
  685MOL0     H90358   9.212  11.153   2.507 -2.5713  3.0971 -0.6946
  685MOL0     H90359   9.324  11.110   2.230  1.3897 -2.2345 -1.0101
  685MOL0     H90360   9.245  10.999   2.349  2.4093 -1.3908 -0.3105
  685MOL0     H90361   9.474  11.036   2.490 -0.6091  1.5114  0.3902
  685MOL0     H90362   9.534  11.107   2.338  1.0837 -4.2177 -2.9153
  685MOL0     H90363   9.393  10.851   2.288 -0.1396 -1.3080 -0.2227
  685MOL0     H90364   9.537  10.925   2.214 -0.1514  3.4185 -0.0494
  685MOL0     H90365   9.592  10.688   2.350 -0.9425  0.0429  2.2913
  685MOL0     H90366   9.523  10.772   2.476  0.0222 -0.8080  0.3415
  685MOL0     H90367   9.766  10.778   2.499  0.7486 -0.8838 -2.3000
  685MOL0     H90368   9.687  10.932   2.503  3.7941  0.4164  1.9101
  685MOL0     H90369   9.834  10.832   2.240  3.6912  0.9528 -0.4528
  685MOL0     H90370   9.784  10.989   2.262  1.3481  1.1100  0.4603
  685MOL0     H90371   9.958  10.978   2.473  3.8743 -4.0886  2.4268
  685MOL0     H90372  10.014  10.996   2.303  0.9276  1.8331  2.4667
  685MOL0     H90373  10.073  10.782   2.604 -0.5091 -2.1361  1.2895
  685MOL0     H90374  10.296  10.476   2.523  1.3080 -0.4271 -0.1457
  685MOL0     H90375  10.232  10.563   2.653 -0.1675 -2.4109 -0.5584
  685MOL0     H90376  10.465  10.612   2.676 -0.5492  1.4192  0.3739
  685MOL0     H90377  10.392  10.762   2.630 -1.2714 -0.8125  1.3113
  685MOL0     H90378  10.532  10.568   2.443  0.6809  0.4974  1.3006
  685MOL0     H90379  10.436  10.708   2.398  0.6766  2.2667  1.7195
  685MOL0     H90380  10.695  10.687   2.536 -0.0614 -1.7635 -2.3867
  685MOL0     H90381  10.611  10.839   2.543 -2.5260 -0.7401  0.4958
  685MOL0     H90382  10.847  10.832   2.509 -2.5825  1.7725 -1.2920
  685MOL0     H90383  11.078  10.910   2.463 -2.9148  1.1983  0.2516
  685MOL0     H90384  11.529  10.972   2.317  2.3257  0.0514 -1.9598
  685MOL0     H90385  11.676  11.133   2.191 -0.3360  1.1939 -1.0479
  685MOL0     H90386  11.545  11.550   2.238 -2.3130 -0.9021 -2.2128
  685MOL0     H90387  11.509  11.514   2.068  0.4730  2.6426 -1.3340
  685MOL0     H90388  11.786  11.523   2.055 -0.2140  0.2042 -0.8263
  685MOL0     H90389  11.751  11.631   2.187 -0.0831 -0.4635  1.1698
  685MOL0     H90390  11.619  11.608   1.920 -0.2791 -1.7538  2.0185
  685MOL0     H90391  11.761  11.707   1.943 -0.0410  0.3845 -0.8365
  685MOL0     H90392  11.500  11.760   2.078 -1.4642 -0.7597 -2.0914
  685MOL0     H90393  11.642  11.866   2.070 -1.6576  0.8684  0.6841
  685MOL0     H90394  11.486  11.948   1.910 -1.8756  0.4702 -2.1335
  685MOL0     H90395  11.469  11.783   1.829  2.5736  0.1660 -2.4360
  685MOL0     H90396  11.693  11.802   1.749 -0.5257 -0.4952  0.3980
  685MOL0     H90397  11.706  11.961   1.830 -0.0803  0.8157 -1.9083
  685MOL0     H90398  11.507  12.041   1.699 -0.4658  1.4575 -3.6310
  685MOL0     H90399  11.657  12.013   1.609 -2.4503  1.7765  0.5051
  685MOL0     H90400  11.427  11.811   1.600  1.8767 -0.4382  0.2128
  685MOL0     H90401  11.585  11.809   1.515  0.4270  1.8299 -3.2890
  685MOL0     H90402  11.352  11.422   2.214 -0.7461 -1.5270  1.8204
  685MOL0     H90403  11.201  11.233   2.282 -0.3434 -0.8621  1.0641
  685MOL0     H90404  10.979  10.869   2.041 -3.4527 -0.8940 -1.2901
  685MOL0     H90405  10.761  10.809   2.101  2.3385 -1.7802 -1.4577
  685MOL0     H90406   9.571  11.333   2.618  1.3425  2.6121 -2.4284
  685MOL0     H90407   9.549  11.491   2.824 -0.9997 -2.2743  1.1223
  685MOL0     H90408   9.298  11.816   3.037  1.7962  3.3777  0.7414
  685MOL0     H90409   9.255  11.944   3.247  0.9306 -0.0965  3.2162
  685MOL0     H90410   9.041  11.701   3.570  3.0648 -2.8276 -0.8981
  685MOL0     H90411   9.067  11.858   3.651 -0.7455 -1.1491  1.5208
  685MOL0     H90412   9.269  11.651   3.627 -1.9524  0.4737 -0.2571
  685MOL0     H90413   9.297  11.823   3.680 -1.3371  0.4380 -2.2281
  685MOL0     H90414   9.090  11.762   3.819  2.8359  2.9705 -1.7483
  685MOL0     H90415   9.246  11.713   3.892  0.6418  1.5707  0.5559
  685MOL0     H90416   9.052  11.532   3.908 -0.8640 -0.7312  0.5414
  685MOL0     H90417   9.067  11.520   3.732 -0.9878 -2.2018  1.5702
  685MOL0     H90418   9.415  11.316   3.837  0.3145  0.2860  3.0730
  685MOL0     H90419   9.163  11.579   3.450 -1.3787  1.2189 -0.6439
  685MOL0     H90420   9.235  11.452   3.254 -0.1745  0.0132 -0.9054
  686MOL0     O90421   3.884   2.893   7.565 -0.2682 -0.6831  0.6636
  686MOL0     C90422   3.966   2.945   7.645 -0.1168 -0.0622 -0.0263
  686MOL0     O90423   3.978   2.912   7.767 -0.4423 -0.2265  0.1028
  686MOL0     C90424   3.915   2.815   7.826  0.3471 -0.4005  0.2077
  686MOL0     C90425   3.880   2.831   7.958  0.8567  0.0737 -0.1171
  686MOL0     C90426   3.788   2.742   8.019  0.1780  0.5033 -0.1421
  686MOL0     C90427   3.753   2.615   7.956 -0.4658 -0.5668  0.5745
  686MOL0     O90428   3.660   2.526   7.996  0.4664  0.3363 -0.5393
  686MOL0     C90429   3.537   2.577   8.051  1.0529 -0.0183 -0.1432
  686MOL0     C90430   3.416   2.506   7.979  0.6336 -0.5240 -0.0917
  686MOL0     C90431   3.286   2.589   7.969 -0.3411 -0.0289  0.4062
  686MOL0     C90432   3.198   2.585   8.091 -0.3563  0.2292  0.2546
  686MOL0     C90433   3.074   2.679   8.092  0.4886  0.5258  0.0573
  686MOL0     C90434   3.114   2.824   8.090  0.0574 -0.4582 -0.0229
  686MOL0     C90435   2.988   2.906   8.123  0.3975 -0.5002  1.2503
  686MOL0     C90436   2.932   2.888   8.264  0.4326  0.2468 -0.6515
  686MOL0     N90437   3.024   2.898   8.376 -0.5461  0.4168 -0.1360
  686MOL0     C90438   3.117   2.997   8.396  0.8633 -0.5900 -0.0269
  686MOL0     C90439   3.184   2.969   8.513  0.4314  0.1787 -0.0615
  686MOL0     C90440   3.284   3.053   8.583 -0.5336 -0.5239  0.3480
  686MOL0     C90441   3.229   3.202   8.587  0.7393 -0.5481 -0.5878
  686MOL0     C90442   3.298   3.276   8.708 -0.4795  0.3984  0.3116
  686MOL0     C90443   3.445   3.311   8.688 -0.1944  0.0116 -0.5474
  686MOL0     O90444   3.528   3.197   8.684 -0.5786  0.2316 -0.8229
  686MOL0     C90445   3.649   3.215   8.608  0.1664  1.6744 -0.3404
  686MOL0     C90446   3.742   3.307   8.649 -1.2769 -0.3117 -0.3923
  686MOL0     C90447   3.855   3.323   8.568 -0.2342 -0.7232 -0.2026
  686MOL0     C90448   3.883   3.248   8.452  0.3980 -0.2136 -0.1316
  686MOL0     C90449   3.982   3.287   8.350 -0.6614 -0.5679  0.1798
  686MOL0     O90450   4.102   3.351   8.401 -0.0756  0.1375 -0.0631
  686MOL0     C90451   4.194   3.402   8.312 -0.3467  0.4778  0.4960
  686MOL0     C90452   4.167   3.515   8.240  0.0904 -0.3967  0.3116
  686MOL0     C90453   4.248   3.548   8.140 -0.4281 -0.0557 -0.6233
  686MOL0     C90454   4.364   3.472   8.118  0.3760 -0.2404 -1.6428
  686MOL0     O90455   4.458   3.496   8.027 -0.8806 -0.0530  0.7243
  686MOL0     C90456   4.442   3.578   7.908  1.1439 -0.4718  0.1489
  686MOL0     C90457   4.565   3.605   7.827  0.7320 -0.1641  0.6025
  686MOL0     C90458   4.675   3.677   7.904 -0.2673 -0.2387  0.4644
  686MOL0     C90459   4.805   3.686   7.814 -0.7660 -0.2698  0.0268
  686MOL0     C90460   4.932   3.657   7.912  0.0836 -0.0066 -0.5578
  686MOL0     C90461   4.973   3.785   7.999 -1.2841  0.8855 -0.3483
  686MOL0     C90462   5.086   3.870   7.943 -0.1589 -0.2939  0.1205
  686MOL0     C90463   5.083   3.936   7.802  0.2161  0.1538 -0.2345
  686MOL0    Cl90464   5.190   3.832   7.713  0.1784  0.1260  0.0537
  686MOL0     C90465   4.391   3.363   8.194 -0.3713  0.9530 -0.4424
  686MOL0     C90466   4.306   3.328   8.292  0.1109  0.3725 -0.2262
  686MOL0     O90467   3.967   3.254   8.231 -0.7133  0.4243  0.1270
  686MOL0     C90468   3.793   3.145   8.432 -0.3978 -0.1178 -0.1710
  686MOL0     C90469   3.674   3.136   8.499  0.9395  0.2151 -0.4078
  686MOL0     N90470   3.141   2.851   8.549  0.8082  0.2917 -0.4773
  686MOL0     N90471   3.050   2.805   8.472 -0.1514  0.0640 -0.1351
  686MOL0     C90472   3.800   2.597   7.829 -0.2583 -0.1513  0.2926
  686MOL0     C90473   3.878   2.695   7.762 -0.2510  1.0774 -0.0138
  686MOL0     C90474   4.055   3.041   7.596 -0.6817 -0.8017  0.6505
  686MOL0     C90475   4.019   3.099   7.471  0.2432 -0.1195 -0.0679
  686MOL0     C90476   4.116   3.180   7.410  0.4522 -0.5077  0.5315
  686MOL0     C90477   4.249   3.194   7.461  0.4771 -0.6946  0.0745
  686MOL0     O90478   4.341   3.257   7.385 -0.1421 -0.0511 -0.7436
  686MOL0     C90479   4.470   3.208   7.388 -0.7975  0.5431  0.2949
  686MOL0     C90480   4.563   3.289   7.472  0.0250 -0.0836 -0.0246
  686MOL0     C90481   4.713   3.270   7.440 -0.2408 -0.7923 -0.5366
  686MOL0     C90482   4.783   3.370   7.536 -0.2323 -0.3611 -0.6034
  686MOL0     C90483   4.923   3.316   7.552 -0.7635 -0.0680 -0.1997
  686MOL0     C90484   5.042   3.291   7.562 -0.5125 -0.0862  0.1683
  686MOL0     C90485   4.274   3.142   7.595 -0.5137  0.5055  0.1183
  686MOL0     C90486   4.178   3.057   7.659  0.3449 -0.1184 -0.4264
  686MOL0     H90487   3.910   2.922   8.009  1.2444  0.9882 -1.8788
  686MOL0     H90488   3.748   2.762   8.118 -1.0642 -1.6771 -0.1360
  686MOL0     H90489   3.537   2.685   8.032 -0.1535 -0.0588 -0.4494
  686MOL0     H90490   3.527   2.557   8.158 -2.6757 -3.7577 -0.9023
  686MOL0     H90491   3.386   2.412   8.026  0.3720 -0.3266  0.1332
  686MOL0     H90492   3.448   2.478   7.878 -1.5114  2.3135 -1.7018
  686MOL0     H90493   3.216   2.550   7.895 -2.6776  1.2471  1.8226
  686MOL0     H90494   3.314   2.691   7.938 -0.0317 -1.1860 -3.6602
  686MOL0     H90495   3.161   2.482   8.091  0.1877  0.0282  0.7593
  686MOL0     H90496   3.262   2.609   8.176 -1.1612  1.7248  0.4918
  686MOL0     H90497   3.016   2.660   8.182  0.0518  0.0084 -0.3288
  686MOL0     H90498   3.014   2.650   8.005  0.9480 -1.8976  0.4883
  686MOL0     H90499   3.157   2.841   7.992  1.3422 -2.8442  0.0641
  686MOL0     H90500   3.192   2.846   8.163 -0.2801 -0.5168  0.3643
  686MOL0     H90501   3.022   3.010   8.127 -0.8598 -0.0589  0.9179
  686MOL0     H90502   2.911   2.911   8.046  0.9764 -1.9720  0.5460
  686MOL0     H90503   2.869   2.799   8.271  2.7454 -1.3555  2.1003
  686MOL0     H90504   2.860   2.968   8.282  2.3968  1.7405  0.9468
  686MOL0     H90505   3.126   3.093   8.347 -2.3181 -0.5572 -0.8171
  686MOL0     H90506   3.383   3.055   8.536  0.1466  4.9645  1.3277
  686MOL0     H90507   3.294   2.991   8.672  1.5788 -3.6620 -1.8926
  686MOL0     H90508   3.121   3.202   8.605  0.9820  0.8584  1.2774
  686MOL0     H90509   3.234   3.253   8.491 -3.4019  0.4980 -0.4391
  686MOL0     H90510   3.248   3.373   8.718 -2.4022 -0.3149 -1.5579
  686MOL0     H90511   3.288   3.225   8.805  0.8216  1.7662  1.2112
  686MOL0     H90512   3.472   3.379   8.768 -0.0785 -1.6818  0.9172
  686MOL0     H90513   3.464   3.372   8.599 -0.5672  0.1720 -0.5158
  686MOL0     H90514   3.725   3.371   8.734  2.3367  0.5071 -0.1437
  686MOL0     H90515   3.927   3.401   8.590  0.1107 -0.7787 -1.0910
  686MOL0     H90516   4.069   3.556   8.266  1.3940  0.6778  4.1990
  686MOL0     H90517   4.231   3.636   8.078 -1.5159  1.0300  1.1336
  686MOL0     H90518   4.384   3.666   7.936  0.9428  0.1775 -2.1592
  686MOL0     H90519   4.380   3.517   7.841  3.5058 -0.0224 -2.6237
  686MOL0     H90520   4.532   3.661   7.739  0.8446 -0.9431  0.0537
  686MOL0     H90521   4.600   3.509   7.788  1.1555 -1.5326  4.0642
  686MOL0     H90522   4.694   3.619   7.995 -0.2856 -0.5482  0.2729
  686MOL0     H90523   4.639   3.774   7.937 -0.6095  0.2932 -1.3297
  686MOL0     H90524   4.799   3.607   7.738 -1.3465 -0.2309  0.0256
  686MOL0     H90525   4.805   3.786   7.769 -2.1393  0.0054  0.5903
  686MOL0     H90526   5.024   3.631   7.861 -0.3381 -4.3534  0.5231
  686MOL0     H90527   4.916   3.569   7.975  0.9431 -0.5107 -1.0424
  686MOL0     H90528   4.992   3.758   8.104 -1.0257  0.1921 -0.5649
  686MOL0     H90529   4.882   3.843   8.013  0.4125  4.3929 -2.5234
  686MOL0     H90530   5.089   3.957   8.009  0.1628  1.0717 -1.6022
  686MOL0     H90531   5.185   3.825   7.958  0.7280  1.1602 -1.0589
  686MOL0     H90532   5.136   4.032   7.810  0.5911 -0.2286  2.7000
  686MOL0     H90533   4.984   3.941   7.755  0.3622  0.6237 -0.5019
  686MOL0     H90534   4.482   3.304   8.184 -0.9960  0.2194 -2.4429
  686MOL0     H90535   4.327   3.241   8.353 -2.6666 -1.6174 -1.8253
  686MOL0     H90536   3.803   3.083   8.344 -1.5892  0.9402 -1.0886
  686MOL0     H90537   3.609   3.051   8.480  1.2805 -0.2185  0.3137
  686MOL0     H90538   3.766   2.505   7.782  2.2449 -1.2071  0.3642
  686MOL0     H90539   3.910   2.682   7.660 -2.7585  0.7972 -0.8179
  686MOL0     H90540   3.929   3.079   7.415 -0.1039  3.9583 -1.2773
  686MOL0     H90541   4.091   3.228   7.316  1.3118 -2.0127 -0.5148
  686MOL0     H90542   4.511   3.195   7.288 -2.0776  1.8628 -0.4404
  686MOL0     H90543   4.455   3.106   7.425 -1.4006 -0.9348 -3.5268
  686MOL0     H90544   4.539   3.390   7.437 -0.1716 -0.8508 -2.2631
  686MOL0     H90545   4.545   3.276   7.579  1.1325  0.1143  0.1971
  686MOL0     H90546   4.727   3.306   7.338 -0.2856  2.7731  0.5734
  686MOL0     H90547   4.737   3.164   7.451 -1.5302 -0.9890  0.7451
  686MOL0     H90548   4.800   3.463   7.481  2.2825 -1.4103 -1.7716
  686MOL0     H90549   4.731   3.387   7.631 -2.9096  0.8861 -2.1735
  686MOL0     H90550   5.147   3.273   7.566 -0.0378  2.3214  0.0831
  686MOL0     H90551   4.368   3.164   7.645  0.6987 -0.3497 -1.6757
  686MOL0     H90552   4.202   3.014   7.755  5.2001  3.2569  0.2529
  687MOL0     O90553   6.546   8.429  10.961  0.3547  0.2181 -0.0714
  687MOL0     C90554   6.500   8.365  11.063 -0.1595 -0.8110  0.7142
  687MOL0     O90555   6.492   8.234  11.079  1.2719 -0.0570 -0.4999
  687MOL0     C90556   6.546   8.148  10.991  0.3983 -0.6778 -0.0245
  687MOL0     C90557   6.660   8.086  11.031 -0.3445  0.2224 -0.4627
  687MOL0     C90558   6.727   8.001  10.944 -0.0186  0.1086 -0.8022
  687MOL0     C90559   6.690   7.979  10.810  0.0067  0.3034 -0.9868
  687MOL0     O90560   6.767   7.898  10.727  0.3588  0.4688  0.3377
  687MOL0     C90561   6.715   7.852  10.606 -0.0910 -0.7688 -0.1129
  687MOL0     C90562   6.817   7.777  10.531 -1.0053 -0.0647  0.1734
  687MOL0     C90563   6.875   7.646  10.598 -0.4990 -0.8839  0.7718
  687MOL0     C90564   6.788   7.551  10.668 -0.7839  0.5948  0.7366
  687MOL0     C90565   6.863   7.417  10.711  0.5675 -1.2733 -0.0453
  687MOL0     C90566   6.997   7.440  10.799 -0.4068 -0.7256 -0.1169
  687MOL0     C90567   6.972   7.500  10.943 -0.0983 -1.0207 -0.1106
  687MOL0     C90568   6.916   7.391  11.036  0.2525 -0.7435 -0.5479
  687MOL0     N90569   6.990   7.256  11.035  0.7013 -0.8054 -0.2781
  687MOL0     C90570   6.951   7.140  10.981  0.1558 -0.2879 -0.0982
  687MOL0     C90571   7.040   7.045  11.014  0.4660  0.2485 -0.3617
  687MOL0     C90572   7.032   6.889  10.989 -0.0095 -0.0828  0.7919
  687MOL0     C90573   7.127   6.862  10.860 -0.3769  0.6626 -0.1549
  687MOL0     C90574   7.131   6.720  10.817 -0.1023  1.2464  0.3178
  687MOL0     C90575   7.214   6.710  10.692  0.5966 -1.0541 -0.7197
  687MOL0     O90576   7.196   6.584  10.637  0.4242  0.0091  0.6530
  687MOL0     C90577   7.305   6.501  10.622 -0.0469 -0.0495 -0.2817
  687MOL0     C90578   7.377   6.467  10.734 -0.0802 -0.0081 -0.7177
  687MOL0     C90579   7.495   6.398  10.712  0.1341 -0.3179  0.1753
  687MOL0     C90580   7.547   6.373  10.586  0.1443 -0.1817 -0.0182
  687MOL0     C90581   7.683   6.305  10.566 -0.3754 -0.4172  0.1342
  687MOL0     O90582   7.719   6.253  10.449  0.6625  0.6498  0.3980
  687MOL0     C90583   7.839   6.176  10.440  0.1506 -0.7502  0.4875
  687MOL0     C90584   7.877   6.078  10.524  0.8469 -0.0688  0.1765
  687MOL0     C90585   7.987   6.005  10.489 -0.5981  0.7780  0.7480
  687MOL0     C90586   8.054   6.016  10.364 -0.0032 -0.2095 -0.3380
  687MOL0     O90587   8.144   5.925  10.318 -0.0928 -0.1678 -0.7937
  687MOL0     C90588   8.125   5.785  10.361 -0.8579 -1.0032  0.7651
  687MOL0     C90589   8.211   5.695  10.270  0.4567 -0.2358 -0.5634
  687MOL0     C90590   8.196   5.549  10.282 -0.2660 -0.6364 -0.7402
  687MOL0     C90591   8.259   5.471  10.179 -0.5171  0.4547  0.6594
  687MOL0     C90592   8.298   5.331  10.215 -0.5601 -0.4574  0.7653
  687MOL0     C90593   8.166   5.249  10.242  0.2626 -0.0056 -0.4052
  687MOL0     C90594   8.183   5.100  10.241  0.1189  0.1441 -0.5084
  687MOL0     C90595   8.049   5.020  10.242  0.7808  0.2848  0.3637
  687MOL0    Cl90596   7.970   5.018  10.074  0.2320  0.2338 -0.0743
  687MOL0     C90597   8.007   6.113  10.273 -0.2282  1.1744  0.1952
  687MOL0     C90598   7.898   6.192  10.310 -0.8697 -0.1638 -0.4227
  687MOL0     O90599   7.752   6.309  10.670  0.0446 -0.2383  0.6636
  687MOL0     C90600   7.472   6.415  10.471  0.0725  0.5086  1.2726
  687MOL0     C90601   7.341   6.453  10.491  0.2433  0.2267  0.2750
  687MOL0     N90602   7.134   7.109  11.096 -0.2235  0.3196  0.4406
  687MOL0     N90603   7.095   7.226  11.111 -0.5921  0.4907  0.1848
  687MOL0     C90604   6.563   8.036  10.777 -0.5709 -0.1283 -0.6667
  687MOL0     C90605   6.489   8.120  10.866  0.2345  0.4541  0.2558
  687MOL0     C90606   6.427   8.447  11.167 -0.1794  0.3838  0.4745
  687MOL0     C90607   6.358   8.390  11.276  1.5194  0.7835 -0.5122
  687MOL0     C90608   6.288   8.473  11.362 -0.5387 -0.8218  0.5146
  687MOL0     C90609   6.279   8.607  11.356  0.1663 -0.2961  0.5898
  687MOL0     O90610   6.206   8.690  11.447 -0.6266  1.1241 -0.2046
  687MOL0     C90611   6.087   8.645  11.499  0.0047  0.7095  0.1897
  687MOL0     C90612   5.990   8.748  11.542 -0.2845 -0.0005 -0.6800
  687MOL0     C90613   5.983   8.878  11.452  0.1647  0.4775 -0.5080
  687MOL0     C90614   5.838   8.912  11.454  0.0433 -0.4653  0.0096
  687MOL0     C90615   5.821   9.014  11.355  0.0806  0.0213 -0.1756
  687MOL0     C90616   5.821   9.110  11.280 -0.7616  0.3011 -0.0396
  687MOL0     C90617   6.345   8.667  11.248  0.1261 -0.1120  0.2067
  687MOL0     C90618   6.427   8.586  11.157 -0.4200 -0.4226  0.2290
  687MOL0     H90619   6.708   8.112  11.125 -1.4071  1.7619 -0.3184
  687MOL0     H90620   6.822   7.961  10.977 -0.3585  0.3764  0.5627
  687MOL0     H90621   6.683   7.937  10.546  0.0756 -1.2854 -0.9555
  687MOL0     H90622   6.628   7.790  10.630 -0.8059  1.0352  2.3368
  687MOL0     H90623   6.901   7.847  10.534 -0.6165 -0.5169 -0.1521
  687MOL0     H90624   6.769   7.751  10.437 -1.2674 -4.3118  1.2898
  687MOL0     H90625   6.942   7.693  10.671 -1.5814 -1.5001  2.2222
  687MOL0     H90626   6.946   7.593  10.534 -0.4131 -1.0132  0.9700
  687MOL0     H90627   6.743   7.597  10.756 -1.2535 -0.8782  1.3059
  687MOL0     H90628   6.711   7.504  10.605 -2.2878 -0.3078  3.1185
  687MOL0     H90629   6.882   7.358  10.620  0.7960  3.2756 -3.2696
  687MOL0     H90630   6.793   7.358  10.771  0.8334  1.1880  2.8904
  687MOL0     H90631   7.059   7.514  10.748 -2.0966 -0.6197 -2.1643
  687MOL0     H90632   7.053   7.347  10.804 -3.1612 -2.5610 -1.3142
  687MOL0     H90633   7.070   7.534  10.978 -0.6047  1.6962 -1.1389
  687MOL0     H90634   6.909   7.589  10.947 -1.7120 -2.1436  3.0886
  687MOL0     H90635   6.821   7.365  10.989  0.2559 -0.0798 -0.9365
  687MOL0     H90636   6.892   7.427  11.136  2.2946 -0.3727 -0.1346
  687MOL0     H90637   6.868   7.137  10.911  0.2338 -0.6099 -0.1794
  687MOL0     H90638   6.926   6.875  10.968 -0.7545  4.5486  0.3608
  687MOL0     H90639   7.055   6.827  11.076  2.6052  1.2457  1.1768
  687MOL0     H90640   7.232   6.889  10.876 -0.8868  2.5828  0.1139
  687MOL0     H90641   7.089   6.928  10.782 -0.2944 -0.2140 -0.9592
  687MOL0     H90642   7.179   6.653  10.889  0.2139 -0.4891 -1.4302
  687MOL0     H90643   7.032   6.683  10.788 -0.1169  0.0552  1.7833
  687MOL0     H90644   7.314   6.751  10.709 -1.0086  2.7653  0.3866
  687MOL0     H90645   7.167   6.783  10.626  0.7997  1.0105  1.3069
  687MOL0     H90646   7.330   6.500  10.826 -1.2218 -0.8257 -0.9901
  687MOL0     H90647   7.540   6.377  10.808  0.3175  0.9902  0.3973
  687MOL0     H90648   7.838   6.054  10.622  1.9684  1.0219  0.9322
  687MOL0     H90649   8.025   5.928  10.556 -0.6429 -2.4432 -2.5739
  687MOL0     H90650   8.016   5.774  10.354 -0.6581 -2.6647 -0.0827
  687MOL0     H90651   8.163   5.769  10.462  0.7887 -1.3119  0.1309
  687MOL0     H90652   8.314   5.733  10.279  0.4693 -0.6856  1.9324
  687MOL0     H90653   8.171   5.724  10.172  2.4356  2.6170 -0.6738
  687MOL0     H90654   8.088   5.534  10.273 -0.4575 -0.9151  1.3276
  687MOL0     H90655   8.227   5.516  10.382  0.3132  0.8660 -0.4026
  687MOL0     H90656   8.192   5.483  10.093  0.2452  1.2946  0.1617
  687MOL0     H90657   8.350   5.521  10.145 -2.2092  1.0890 -3.5072
  687MOL0     H90658   8.363   5.326  10.303  2.8774 -1.5721 -1.6435
  687MOL0     H90659   8.363   5.294  10.136 -1.2869  0.7198 -0.4244
  687MOL0     H90660   8.089   5.263  10.166  0.0262 -0.1842 -0.1995
  687MOL0     H90661   8.113   5.281  10.332  0.8012 -1.7146  0.5797
  687MOL0     H90662   8.246   5.071  10.157  1.6400  0.6097  0.4273
  687MOL0     H90663   8.242   5.075  10.330  3.3551 -0.8248 -2.7431
  687MOL0     H90664   7.969   5.057  10.308  0.0247 -1.7854  0.6715
  687MOL0     H90665   8.069   4.913  10.248  2.6886  0.3572 -2.6683
  687MOL0     H90666   8.064   6.130  10.182 -1.0908  1.5712 -0.2847
  687MOL0     H90667   7.865   6.280  10.256 -4.9274 -0.8715  0.5470
  687MOL0     H90668   7.519   6.413  10.373  2.8893  4.0746  2.3331
  687MOL0     H90669   7.278   6.472  10.405  0.3979  2.5670  0.6124
  687MOL0     H90670   6.544   8.008  10.673  1.5863 -2.9485 -0.4370
  687MOL0     H90671   6.400   8.176  10.841  0.0830  0.7961  1.4939
  687MOL0     H90672   6.365   8.282  11.281  2.5110  0.8244 -0.7991
  687MOL0     H90673   6.242   8.433  11.452 -3.5392  1.5382  0.1726
  687MOL0     H90674   6.102   8.568  11.576 -0.1996 -0.9113 -1.3213
  687MOL0     H90675   6.045   8.585  11.418 -1.0208  0.1610  1.0945
  687MOL0     H90676   5.893   8.699  11.528 -0.7153 -0.5016  2.9580
  687MOL0     H90677   6.005   8.777  11.647 -1.1166 -2.4078  0.1784
  687MOL0     H90678   6.024   8.857  11.352  1.6368 -1.3486  0.3992
  687MOL0     H90679   6.036   8.962  11.499  3.6087 -1.1220 -1.1843
  687MOL0     H90680   5.774   8.830  11.420 -1.2871  1.8104 -3.5052
  687MOL0     H90681   5.824   8.932  11.561  0.0566 -3.9977  0.7917
  687MOL0     H90682   5.810   9.193  11.212  0.1437 -0.7487 -1.5402
  687MOL0     H90683   6.341   8.772  11.222 -2.3832 -0.1110  0.3659
  687MOL0     H90684   6.492   8.630  11.083 -3.9626  2.7445 -1.3699
  688MOL0     O90685   7.511  10.710   1.867 -0.5126  0.0870  0.0867
  688MOL0     C90686   7.482  10.620   1.940  0.1190 -0.0140 -1.1888
  688MOL0     O90687   7.550  10.595   2.052  0.2852 -0.0610  0.0243
  688MOL0     C90688   7.660  10.666   2.091 -0.1625 -0.0969 -0.5758
  688MOL0     C90689   7.784  10.654   2.015  0.3531 -0.4156 -0.5789
  688MOL0     C90690   7.898  10.719   2.064 -0.1682 -0.6089  0.1999
  688MOL0     C90691   7.897  10.777   2.195  0.0725 -0.2500  0.8458
  688MOL0     O90692   8.015  10.815   2.258  0.5402  0.2521  0.1053
  688MOL0     C90693   8.135  10.737   2.233  0.0653 -0.1384  0.0576
  688MOL0     C90694   8.255  10.790   2.318  0.5020  0.7079 -0.4191
  688MOL0     C90695   8.248  10.761   2.472 -0.5395  0.6942  1.3640
  688MOL0     C90696   8.378  10.797   2.546  0.7927 -0.1675  0.0454
  688MOL0     C90697   8.396  10.711   2.670  0.0601 -0.0548 -0.2642
  688MOL0     C90698   8.288  10.740   2.777 -0.3197  0.6326  0.0090
  688MOL0     C90699   8.310  10.677   2.910  0.5117 -0.4291 -0.0737
  688MOL0     C90700   8.221  10.723   3.029 -0.0623  0.6780  0.5143
  688MOL0     N90701   8.260  10.668   3.156  0.2642 -0.0768 -0.4669
  688MOL0     C90702   8.355  10.721   3.235 -0.4736  0.6173 -0.6568
  688MOL0     C90703   8.351  10.653   3.351 -0.7142 -0.5439 -0.2750
  688MOL0     C90704   8.444  10.698   3.468  0.6604 -0.7965 -0.1140
  688MOL0     C90705   8.583  10.629   3.482 -0.3105 -0.3977 -0.1123
  688MOL0     C90706   8.648  10.663   3.617  0.0655 -0.1989  0.4838
  688MOL0     C90707   8.740  10.788   3.615 -0.3908  0.2699  0.1915
  688MOL0     O90708   8.883  10.753   3.597  0.3087 -0.6959  0.7533
  688MOL0     C90709   8.958  10.729   3.707  0.3202  0.3501  0.0343
  688MOL0     C90710   8.925  10.752   3.841 -0.2156 -0.4025 -0.0987
  688MOL0     C90711   9.008  10.728   3.944  0.0167  0.4398  0.5587
  688MOL0     C90712   9.142  10.682   3.929 -0.0781 -0.0106  0.6273
  688MOL0     C90713   9.235  10.650   4.038  0.3060 -0.2581 -0.4708
  688MOL0     O90714   9.334  10.573   4.004 -0.8028  0.0671  0.3488
  688MOL0     C90715   9.414  10.501   4.094  0.4792 -0.1457  0.8094
  688MOL0     C90716   9.544  10.453   4.039  0.4428 -0.2402  0.1120
  688MOL0     C90717   9.623  10.361   4.104 -0.0423 -0.0354  0.2734
  688MOL0     C90718   9.583  10.319   4.228  0.3177 -0.0627  0.6961
  688MOL0     O90719   9.642  10.232   4.319  0.7955 -0.4802 -0.2618
  688MOL0     C90720   9.763  10.176   4.274 -0.5664 -0.0812  0.2516
  688MOL0     C90721   9.841  10.121   4.399 -0.2853  0.6199  0.2054
  688MOL0     C90722   9.969  10.053   4.358 -0.2744 -0.0643  0.5542
  688MOL0     C90723   9.972   9.953   4.244  0.1483 -0.3290 -0.7235
  688MOL0     C90724  10.109   9.882   4.206  0.1222  0.8342  0.3978
  688MOL0     C90725  10.195   9.852   4.329  0.0726  1.1023 -0.0476
  688MOL0     C90726  10.340   9.809   4.300  0.5059 -0.8069  0.3419
  688MOL0     C90727  10.428   9.920   4.226  0.5155 -0.4768 -0.4475
  688MOL0    Cl90728  10.429  10.072   4.323 -0.8630 -0.3269 -0.4986
  688MOL0     C90729   9.458  10.360   4.285 -0.0660  1.3476  0.5361
  688MOL0     C90730   9.382  10.452   4.217 -0.1299 -0.4483  0.1170
  688MOL0     O90731   9.205  10.692   4.151 -0.2333 -0.1822  0.0733
  688MOL0     C90732   9.190  10.662   3.804  0.5132  0.2524 -0.4931
  688MOL0     C90733   9.098  10.689   3.694 -0.6620 -0.8689  0.4720
  688MOL0     N90734   8.251  10.557   3.340 -0.3362  0.4466  0.3867
  688MOL0     N90735   8.207  10.558   3.220  1.1559 -0.7910  0.2354
  688MOL0     C90736   7.781  10.793   2.261 -0.0170 -0.2958 -0.0723
  688MOL0     C90737   7.663  10.742   2.211 -0.0217 -0.4938 -0.6039
  688MOL0     C90738   7.363  10.536   1.914  0.9555  0.5175  1.0767
  688MOL0     C90739   7.291  10.557   1.799  1.0507 -0.3348  0.1351
  688MOL0     C90740   7.175  10.486   1.776  0.7117 -1.2873 -0.9999
  688MOL0     C90741   7.117  10.397   1.868  0.1501  0.2156 -1.2218
  688MOL0     O90742   6.997  10.334   1.857  0.1448 -0.5648 -0.1327
  688MOL0     C90743   6.901  10.375   1.760  0.1848  0.6886  0.4998
  688MOL0     C90744   6.796  10.471   1.816 -0.4189 -0.8810 -0.0861
  688MOL0     C90745   6.726  10.404   1.939  0.3991  0.1486  0.5990
  688MOL0     C90746   6.587  10.355   1.880  0.5527  0.4904 -0.5673
  688MOL0     C90747   6.590  10.229   1.801  0.0228  0.4137  0.2170
  688MOL0     C90748   6.595  10.113   1.753  0.1592 -0.9523  0.2399
  688MOL0     C90749   7.187  10.380   1.986  0.4317  0.5603 -0.3882
  688MOL0     C90750   7.314  10.441   2.007  0.9469  0.2547  0.0770
  688MOL0     H90751   7.781  10.605   1.918  0.8056 -4.6963  1.3520
  688MOL0     H90752   7.987  10.707   2.004  0.0764  4.3484 -0.8497
  688MOL0     H90753   8.153  10.750   2.126  0.9719  1.8037  0.3939
  688MOL0     H90754   8.117  10.634   2.264 -2.6930 -0.3414 -1.8923
  688MOL0     H90755   8.268  10.895   2.290  1.6006  1.6515  3.1422
  688MOL0     H90756   8.342  10.733   2.284 -0.9404 -0.7084 -1.9756
  688MOL0     H90757   8.228  10.654   2.483  0.0945  0.3304 -0.6766
  688MOL0     H90758   8.151  10.805   2.498 -1.0633  3.3969 -3.9349
  688MOL0     H90759   8.462  10.794   2.477 -0.2484 -1.0679 -1.2196
  688MOL0     H90760   8.369  10.899   2.585 -0.8209 -1.0163  2.0740
  688MOL0     H90761   8.494  10.738   2.711  0.3122 -0.2225 -0.7551
  688MOL0     H90762   8.398  10.603   2.652 -1.4048 -0.6418  2.5538
  688MOL0     H90763   8.190  10.717   2.733 -2.0098  2.8274  2.2949
  688MOL0     H90764   8.292  10.848   2.793 -1.8990  0.5562  1.1325
  688MOL0     H90765   8.300  10.568   2.900 -3.4669 -0.2133  0.1485
  688MOL0     H90766   8.414  10.695   2.940 -0.1435 -0.2616  2.2255
  688MOL0     H90767   8.117  10.696   3.007 -0.7552  2.3483  1.5279
  688MOL0     H90768   8.218  10.832   3.031 -0.3781  0.6927  3.4624
  688MOL0     H90769   8.412  10.810   3.209 -1.6958  1.7905  0.5874
  688MOL0     H90770   8.387  10.665   3.554  0.3851 -3.4754 -1.2279
  688MOL0     H90771   8.445  10.808   3.463  2.5315 -0.7867 -0.3833
  688MOL0     H90772   8.655  10.644   3.400 -0.1895 -1.7579 -0.2794
  688MOL0     H90773   8.564  10.522   3.489 -1.8823 -0.1558 -0.1584
  688MOL0     H90774   8.575  10.676   3.698  1.8432  0.5626  2.0549
  688MOL0     H90775   8.706  10.574   3.647 -1.2593 -1.8030 -1.5063
  688MOL0     H90776   8.730  10.831   3.716  3.5273 -0.1381  0.8907
  688MOL0     H90777   8.703  10.861   3.544  0.5624 -1.2933 -2.0230
  688MOL0     H90778   8.828  10.786   3.877  0.4898 -1.1680  2.8105
  688MOL0     H90779   8.984  10.737   4.049  4.8271  1.3846  1.8159
  688MOL0     H90780   9.583  10.501   3.950  2.2064  2.1936  2.0629
  688MOL0     H90781   9.710  10.332   4.046 -0.7326 -0.6832 -0.4651
  688MOL0     H90782   9.828  10.258   4.241 -0.4482 -0.2322  0.1084
  688MOL0     H90783   9.746  10.104   4.193  0.7701 -2.3941  1.8763
  688MOL0     H90784   9.782  10.041   4.444 -0.3122  0.7464  0.3954
  688MOL0     H90785   9.854  10.204   4.470  1.6806  0.4893  0.0502
  688MOL0     H90786   9.995   9.982   4.436  2.6237 -0.9165 -1.0229
  688MOL0     H90787  10.044  10.130   4.334  0.7995 -2.3426 -4.8936
  688MOL0     H90788   9.902   9.874   4.275  1.8083 -1.5082  0.1924
  688MOL0     H90789   9.937   9.991   4.148  4.8996  1.6353 -1.9131
  688MOL0     H90790  10.156   9.943   4.129 -1.4995  0.3262 -1.0453
  688MOL0     H90791  10.090   9.783   4.163  2.6839  0.3926  0.1240
  688MOL0     H90792  10.150   9.760   4.368  0.6992  0.9268  0.2659
  688MOL0     H90793  10.198   9.939   4.395  2.0363  4.3162 -3.9353
  688MOL0     H90794  10.384   9.791   4.398 -1.0832 -4.7054  0.5484
  688MOL0     H90795  10.341   9.710   4.253 -0.9640 -0.5621 -0.2618
  688MOL0     H90796  10.380   9.941   4.131 -2.6562  2.0021  1.4914
  688MOL0     H90797  10.529   9.881   4.206 -1.0619 -4.4574 -1.6852
  688MOL0     H90798   9.423  10.312   4.375 -2.4845 -0.6951 -1.3387
  688MOL0     H90799   9.295  10.491   4.268  0.1213 -1.4534  1.3715
  688MOL0     H90800   9.293  10.639   3.779  1.4140  1.4920  1.7630
  688MOL0     H90801   9.133  10.674   3.592 -2.3736  1.4268 -0.5299
  688MOL0     H90802   7.782  10.840   2.358 -2.9497 -0.9855  0.4006
  688MOL0     H90803   7.565  10.730   2.255  0.4102 -2.7767 -0.1147
  688MOL0     H90804   7.325  10.616   1.714 -0.3198 -2.2054 -1.8268
  688MOL0     H90805   7.125  10.491   1.679 -3.9617 -2.0201  1.1119
  688MOL0     H90806   6.857  10.280   1.729 -0.5542  1.0949  0.2831
  688MOL0     H90807   6.951  10.420   1.674 -0.2208  1.9019  0.8662
  688MOL0     H90808   6.866  10.551   1.843  3.2948 -3.4560 -1.3118
  688MOL0     H90809   6.719  10.498   1.744  0.0429 -1.8793 -0.9778
  688MOL0     H90810   6.720  10.479   2.019  1.0196 -0.4742  1.2461
  688MOL0     H90811   6.784  10.324   1.987  0.9816 -1.1295 -2.0586
  688MOL0     H90812   6.521  10.344   1.967  0.4129  1.1411 -0.5860
  688MOL0     H90813   6.527  10.425   1.822 -1.8076 -0.9232  0.0232
  688MOL0     H90814   6.587  10.016   1.708  3.8987 -0.8912 -0.8619
  688MOL0     H90815   7.136  10.350   2.077  0.8584  0.3957 -0.2043
  688MOL0     H90816   7.356  10.429   2.106 -3.1888 -0.9334  1.8898
  689MOL0     O90817   6.182   7.870   8.569  0.3909 -0.6867 -0.0854
  689MOL0     C90818   6.268   7.954   8.613  0.9418  1.2760  0.3971
  689MOL0     O90819   6.401   7.950   8.586 -0.9901  0.2009  0.3967
  689MOL0     C90820   6.440   7.884   8.473 -0.6992  0.2220  0.6949
  689MOL0     C90821   6.500   7.758   8.476  0.0350 -0.2773  0.2155
  689MOL0     C90822   6.560   7.711   8.353  0.1499 -0.0241 -0.3646
  689MOL0     C90823   6.543   7.778   8.227 -0.5985 -0.5782 -0.2834
  689MOL0     O90824   6.583   7.721   8.110 -0.3179 -0.3656 -0.5671
  689MOL0     C90825   6.474   7.702   8.020 -0.0235  0.4839  0.2292
  689MOL0     C90826   6.473   7.558   7.970  0.1124 -0.6969 -0.3639
  689MOL0     C90827   6.585   7.532   7.864  0.1578 -0.2115 -0.9766
  689MOL0     C90828   6.604   7.383   7.862 -0.5748  0.1687 -0.9619
  689MOL0     C90829   6.726   7.340   7.767  0.2250  0.3564  0.2088
  689MOL0     C90830   6.713   7.201   7.707  0.2096  0.1964 -0.3436
  689MOL0     C90831   6.746   7.082   7.795 -0.7485  0.1403 -0.0404
  689MOL0     C90832   6.616   7.018   7.858 -0.0238  0.4939 -0.2378
  689MOL0     N90833   6.544   6.938   7.763 -0.9378 -1.3156  0.3367
  689MOL0     C90834   6.437   6.967   7.681  0.4023  0.0099 -0.9539
  689MOL0     C90835   6.410   6.845   7.625  0.1360  0.8795 -0.3264
  689MOL0     C90836   6.286   6.813   7.537 -0.6776 -0.3679  0.0049
  689MOL0     C90837   6.196   6.715   7.606 -0.5495  0.2138 -0.1751
  689MOL0     C90838   6.259   6.579   7.575 -0.0026  0.6906  0.1122
  689MOL0     C90839   6.158   6.467   7.606  0.6437 -0.4193 -0.7811
  689MOL0     O90840   6.055   6.480   7.509  0.0182 -0.2783 -0.3899
  689MOL0     C90841   5.929   6.456   7.544  0.5863  0.7405  0.0996
  689MOL0     C90842   5.833   6.556   7.510  0.7917  0.6712  0.1095
  689MOL0     C90843   5.699   6.546   7.552  0.6274  0.7830 -0.7034
  689MOL0     C90844   5.660   6.440   7.638  0.7763  0.4133 -0.1906
  689MOL0     C90845   5.530   6.437   7.699 -0.3276 -0.2975  0.2842
  689MOL0     O90846   5.439   6.533   7.663 -0.7499 -0.3850  0.5344
  689MOL0     C90847   5.311   6.532   7.704 -0.2691  0.0850  0.0321
  689MOL0     C90848   5.223   6.424   7.666  0.6509 -0.5336 -0.5696
  689MOL0     C90849   5.091   6.427   7.711  1.0940 -0.3988  0.3625
  689MOL0     C90850   5.036   6.548   7.758 -0.8395  1.0861 -1.2627
  689MOL0     O90851   4.904   6.557   7.782  0.0466  0.3027 -0.1741
  689MOL0     C90852   4.814   6.508   7.685  0.3755  0.3416 -0.8870
  689MOL0     C90853   4.675   6.522   7.748  0.0972  0.1913 -0.4208
  689MOL0     C90854   4.565   6.475   7.651 -0.2999  0.2415  0.0169
  689MOL0     C90855   4.512   6.595   7.563  0.1426  0.6079  0.1717
  689MOL0     C90856   4.439   6.525   7.450  0.4432  0.5187  0.2458
  689MOL0     C90857   4.385   6.629   7.356 -0.2554 -0.3949 -0.1428
  689MOL0     C90858   4.494   6.654   7.248  0.4247 -0.7839  1.6620
  689MOL0     C90859   4.483   6.558   7.130 -0.7257 -0.3880 -0.7576
  689MOL0    Cl90860   4.610   6.440   7.140  0.1264  0.7448 -0.2831
  689MOL0     C90861   5.119   6.655   7.783  0.2474  0.1666 -0.1066
  689MOL0     C90862   5.259   6.643   7.764  1.1505 -0.1491  0.1111
  689MOL0     O90863   5.520   6.351   7.780  0.3395 -0.2009  0.4072
  689MOL0     C90864   5.758   6.339   7.663  0.6941 -0.3143 -0.0141
  689MOL0     C90865   5.888   6.350   7.624 -0.0696 -0.5840  0.0282
  689MOL0     N90866   6.491   6.746   7.680 -0.7630 -0.6281  0.0708
  689MOL0     N90867   6.574   6.810   7.755  0.1860 -0.3450 -0.2626
  689MOL0     C90868   6.482   7.903   8.226 -0.7237  0.0120  0.6016
  689MOL0     C90869   6.423   7.947   8.349  0.0175 -0.0129  0.5360
  689MOL0     C90870   6.207   8.043   8.718  0.8494 -0.6941 -0.0206
  689MOL0     C90871   6.298   8.115   8.804 -0.1190  1.0334  0.1736
  689MOL0     C90872   6.255   8.191   8.913 -0.2841 -0.6260  0.3599
  689MOL0     C90873   6.124   8.207   8.942 -0.0421  0.0097 -0.5310
  689MOL0     O90874   6.087   8.310   9.035 -0.0886  0.5884 -0.1526
  689MOL0     C90875   5.953   8.340   9.051  0.2697 -1.1649  0.0639
  689MOL0     C90876   5.933   8.467   9.127 -0.3685  0.2783 -0.4735
  689MOL0     C90877   5.975   8.442   9.277  0.4897 -0.0603  0.2341
  689MOL0     C90878   5.925   8.559   9.352 -0.1408 -1.0875 -0.0389
  689MOL0     C90879   5.781   8.532   9.405  0.3088  1.3756  0.5510
  689MOL0     C90880   5.665   8.503   9.449  0.0558 -0.3944 -0.7330
  689MOL0     C90881   6.030   8.133   8.867  0.3245  0.3303  0.1144
  689MOL0     C90882   6.074   8.037   8.762  0.0365  0.1315  0.3156
  689MOL0     H90883   6.511   7.709   8.572  0.5454  0.0403  0.3235
  689MOL0     H90884   6.609   7.615   8.368 -0.2171 -0.6165 -2.5452
  689MOL0     H90885   6.494   7.774   7.940  5.6955 -2.0769 -1.1075
  689MOL0     H90886   6.375   7.734   8.054 -1.0008  1.2619 -3.0225
  689MOL0     H90887   6.374   7.536   7.930  0.8151 -1.8463 -1.5524
  689MOL0     H90888   6.475   7.494   8.059 -0.0107  0.8435  0.7932
  689MOL0     H90889   6.681   7.577   7.890 -0.4190 -0.4001  1.9268
  689MOL0     H90890   6.555   7.566   7.765  0.1041 -1.5986 -1.4601
  689MOL0     H90891   6.642   7.364   7.963  2.2563  2.1236 -1.5421
  689MOL0     H90892   6.504   7.343   7.844 -1.8404  3.5713 -2.3534
  689MOL0     H90893   6.820   7.342   7.824  1.8221  0.9968 -2.2767
  689MOL0     H90894   6.737   7.401   7.677  1.5616 -1.1128 -0.6695
  689MOL0     H90895   6.801   7.202   7.642  2.4207 -0.5546  2.4364
  689MOL0     H90896   6.620   7.187   7.651  0.7317  1.4531 -1.6077
  689MOL0     H90897   6.788   7.005   7.730 -1.4947  0.9008 -1.4908
  689MOL0     H90898   6.828   7.115   7.860 -1.4955  0.4200  0.7738
  689MOL0     H90899   6.551   7.089   7.910 -0.2839  0.1396 -0.0724
  689MOL0     H90900   6.635   6.951   7.943 -2.1069  2.0585  1.5902
  689MOL0     H90901   6.397   7.063   7.652  1.3220  0.3039 -1.2692
  689MOL0     H90902   6.319   6.783   7.437  0.1038 -2.8337  0.9410
  689MOL0     H90903   6.218   6.899   7.533  1.0630  1.0734  0.3953
  689MOL0     H90904   6.096   6.714   7.563 -0.0083 -2.2436 -1.5874
  689MOL0     H90905   6.179   6.733   7.713  0.0422  0.1265 -0.0615
  689MOL0     H90906   6.286   6.572   7.470  0.7460  1.8322  0.2122
  689MOL0     H90907   6.343   6.554   7.641  0.7223  2.2851 -0.1729
  689MOL0     H90908   6.118   6.480   7.708 -2.3157  1.6709 -2.0452
  689MOL0     H90909   6.210   6.371   7.602 -1.6976 -1.8698  0.6721
  689MOL0     H90910   5.874   6.634   7.447  3.1300  0.4032  1.1822
  689MOL0     H90911   5.638   6.635   7.542 -0.1849  0.9332  3.4580
  689MOL0     H90912   5.264   6.337   7.615  1.2509 -1.6499  1.6953
  689MOL0     H90913   5.042   6.333   7.689  3.1611 -1.1605 -1.2678
  689MOL0     H90914   4.832   6.404   7.655 -1.6277 -0.7126  1.2464
  689MOL0     H90915   4.807   6.565   7.591  0.2790 -1.4318 -2.0081
  689MOL0     H90916   4.652   6.621   7.789  1.1073  0.8276 -1.3293
  689MOL0     H90917   4.675   6.444   7.825 -3.6509 -0.9336 -1.3301
  689MOL0     H90918   4.485   6.439   7.717 -1.7576  1.4291 -1.0614
  689MOL0     H90919   4.598   6.393   7.587 -0.1512  0.4016 -0.1123
  689MOL0     H90920   4.450   6.674   7.608 -1.3629  1.9791 -3.8745
  689MOL0     H90921   4.601   6.646   7.525 -1.0646  1.8148 -1.1811
  689MOL0     H90922   4.355   6.468   7.492 -0.2005  0.8240 -0.6177
  689MOL0     H90923   4.501   6.451   7.398 -0.0950  0.4646 -0.3317
  689MOL0     H90924   4.357   6.712   7.422 -1.5734 -0.9537  0.0348
  689MOL0     H90925   4.289   6.600   7.314 -0.0286 -2.9869  0.9669
  689MOL0     H90926   4.476   6.758   7.220 -0.1833 -1.7636 -2.1179
  689MOL0     H90927   4.597   6.643   7.285  1.0614 -2.0626 -0.3251
  689MOL0     H90928   4.498   6.620   7.041 -3.8902  1.0393 -0.4278
  689MOL0     H90929   4.382   6.519   7.121 -0.9471  0.3886 -1.9372
  689MOL0     H90930   5.087   6.747   7.829  1.4598 -0.4896  2.1844
  689MOL0     H90931   5.325   6.725   7.789 -0.6127  1.3851 -0.0331
  689MOL0     H90932   5.738   6.253   7.725  2.3016 -1.3350 -0.8540
  689MOL0     H90933   5.954   6.265   7.634  1.1193  0.2421 -0.5775
  689MOL0     H90934   6.475   7.973   8.144 -1.8993 -1.8754 -0.9884
  689MOL0     H90935   6.380   8.046   8.355 -1.3818 -0.6824  2.7956
  689MOL0     H90936   6.405   8.101   8.794  0.1104  0.4257  2.7645
  689MOL0     H90937   6.334   8.247   8.962  1.3404 -3.3862  1.0816
  689MOL0     H90938   5.903   8.253   9.095 -0.9522 -2.4447 -3.4753
  689MOL0     H90939   5.907   8.359   8.954 -0.2618  2.4370  0.8812
  689MOL0     H90940   5.982   8.557   9.089 -2.4202  2.6445  2.0291
  689MOL0     H90941   5.825   8.483   9.135 -0.5242 -0.2043 -1.4417
  689MOL0     H90942   6.084   8.440   9.289  0.5096 -1.1669  0.0178
  689MOL0     H90943   5.933   8.351   9.320 -0.2588  0.1571 -0.0245
  689MOL0     H90944   5.996   8.567   9.436  0.2759 -0.1384 -0.4722
  689MOL0     H90945   5.940   8.654   9.300  0.7256 -1.6498 -0.8324
  689MOL0     H90946   5.570   8.471   9.486  0.9408 -4.6963 -1.7222
  689MOL0     H90947   5.924   8.140   8.889 -0.2502 -0.6045 -2.0712
  689MOL0     H90948   6.018   7.961   8.709  0.7228  1.2902 -2.2300
  690MOL0     O90949  10.539   3.235  10.654 -0.3282  0.0792 -0.6930
  690MOL0     C90950  10.479   3.283  10.751  0.2396  0.1810 -0.5542
  690MOL0     O90951  10.506   3.248  10.884  0.6101 -0.4100 -0.0959
  690MOL0     C90952  10.617   3.180  10.904 -0.1644 -1.0027  0.0505
  690MOL0     C90953  10.743   3.232  10.880  0.1784  0.1098  1.0601
  690MOL0     C90954  10.853   3.157  10.889 -0.8318  0.6346 -1.2172
  690MOL0     C90955  10.854   3.027  10.937  0.3167  0.8964 -0.3536
  690MOL0     O90956  10.967   2.954  10.964  0.2398 -0.2615 -0.0754
  690MOL0     C90957  11.067   3.005  11.056  1.0146 -0.3766 -0.7587
  690MOL0     C90958  11.211   2.972  11.015 -0.2021 -0.2504  0.7936
  690MOL0     C90959  11.247   3.075  10.907 -0.9998 -0.0648  0.4523
  690MOL0     C90960  11.395   3.103  10.885  0.5304 -0.9648  0.9279
  690MOL0     C90961  11.472   2.990  10.833  0.6328  0.5325  0.9259
  690MOL0     C90962  11.408   2.916  10.720 -0.1753 -0.2173 -1.1175
  690MOL0     C90963  11.503   2.812  10.670  0.6927  0.9822  0.3801
  690MOL0     C90964  11.580   2.829  10.540  0.3748  0.6338  0.5100
  690MOL0     N90965  11.652   2.950  10.541 -0.6439 -0.2855  0.5920
  690MOL0     C90966  11.603   3.061  10.471 -0.7838  0.3857  0.6049
  690MOL0     C90967  11.705   3.149  10.474  0.3587 -0.2595 -1.6530
  690MOL0     C90968  11.702   3.291  10.438 -0.6150  0.3506  0.3065
  690MOL0     C90969  11.636   3.360  10.549 -1.0013 -0.3768 -0.3961
  690MOL0     C90970  11.712   3.398  10.680  0.2668 -0.7994  0.5265
  690MOL0     C90971  11.755   3.280  10.765  0.0168  0.7517  0.1703
  690MOL0     O90972  11.832   3.311  10.886 -0.0135  0.3046  0.4579
  690MOL0     C90973  11.828   3.225  10.989 -0.5334 -0.7715 -0.1453
  690MOL0     C90974  11.856   3.271  11.119  1.0175  0.1150  1.2539
  690MOL0     C90975  11.854   3.184  11.230 -0.3948  1.5567 -0.1919
  690MOL0     C90976  11.825   3.048  11.220 -0.0311 -1.1308  0.1061
  690MOL0     C90977  11.835   2.953  11.331  1.5607 -0.0947  0.3541
  690MOL0     O90978  11.898   3.004  11.440  0.2052 -0.7794  0.1122
  690MOL0     C90979  11.989   2.924  11.491 -0.1719  0.4809 -0.6878
  690MOL0     C90980  12.007   2.927  11.633 -0.3411  0.4604  0.4352
  690MOL0     C90981  12.099   2.838  11.699 -0.0788  0.7632  0.2848
  690MOL0     C90982  12.181   2.750  11.631 -1.0214 -0.4067 -0.3927
  690MOL0     O90983  12.261   2.653  11.683 -0.7888  0.3530 -0.1338
  690MOL0     C90984  12.305   2.668  11.818 -0.8052 -0.5253 -0.8234
  690MOL0     C90985  12.397   2.790  11.839 -0.6419 -0.5040 -0.3764
  690MOL0     C90986  12.498   2.772  11.952  0.3813  0.5011  0.5644
  690MOL0     C90987  12.423   2.734  12.086 -0.4591  0.0333 -0.3929
  690MOL0     C90988  12.521   2.764  12.206  0.2423 -0.3292 -0.1795
  690MOL0     C90989  12.517   2.908  12.254 -0.3702 -0.4971 -0.2072
  690MOL0     C90990  12.382   2.970  12.294  0.2750  0.8407  0.2065
  690MOL0     C90991  12.289   2.892  12.393  0.0561  0.4706  0.2214
  690MOL0    Cl90992  12.380   2.833  12.534  0.0529 -0.2868 -0.6566
  690MOL0     C90993  12.176   2.752  11.489 -0.6133  0.3492 -0.6555
  690MOL0     C90994  12.083   2.839  11.426  0.1811  0.0585  0.6695
  690MOL0     O90995  11.789   2.838  11.319 -0.0044 -0.0105 -0.0990
  690MOL0     C90996  11.800   3.002  11.094 -1.1807  0.2839  0.0928
  690MOL0     C90997  11.803   3.084  10.981  0.6578  0.0964  0.5880
  690MOL0     N90998  11.822   3.087  10.504  0.1030 -0.5355 -1.1662
  690MOL0     N90999  11.792   2.964  10.544 -0.1640  0.4010  1.0691
  690MOL0     C91000  10.728   2.969  10.971  0.2343 -0.5736  0.4551
  690MOL0     C91001  10.615   3.049  10.948  0.3345  0.0947  0.5384
  690MOL0     C91002  10.360   3.369  10.736 -0.3151 -0.1996 -0.2013
  690MOL0     C91003  10.298   3.404  10.611 -1.4551 -0.1064 -0.0948
  690MOL0     C91004  10.196   3.498  10.609 -0.8606  0.1470  0.1486
  690MOL0     C91005  10.137   3.546  10.719 -0.3749 -0.3259 -0.6817
  690MOL0     O91006  10.033   3.645  10.703 -0.4473 -0.1620  0.2260
  690MOL0     C91007   9.964   3.686  10.822 -0.9597  0.3654  0.1709
  690MOL0     C91008   9.835   3.752  10.791  0.0401  0.4324 -0.4163
  690MOL0     C91009   9.725   3.643  10.792 -0.8867  0.3492  0.0184
  690MOL0     C91010   9.594   3.701  10.723 -0.0320  0.3747 -0.5069
  690MOL0     C91011   9.502   3.590  10.711  0.3544  0.1909 -0.1229
  690MOL0     C91012   9.416   3.513  10.706  0.1684 -0.4738  0.2744
  690MOL0     C91013  10.177   3.502  10.847 -0.9267 -0.1100  0.4365
  690MOL0     C91014  10.295   3.424  10.852  0.8539 -0.0578  0.6029
  690MOL0     H91015  10.758   3.333  10.842  0.3696 -1.1729 -2.7356
  690MOL0     H91016  10.942   3.220  10.889 -1.7233  1.9781  0.6514
  690MOL0     H91017  11.054   2.966  11.157  1.8726 -1.9095 -1.2061
  690MOL0     H91018  11.045   3.112  11.060 -0.2486 -0.6562  0.3300
  690MOL0     H91019  11.216   2.868  10.982  3.6324 -0.6921  2.2213
  690MOL0     H91020  11.265   2.991  11.109 -5.2922  2.0203  3.6731
  690MOL0     H91021  11.198   3.170  10.931  0.3454  0.5848  0.7074
  690MOL0     H91022  11.194   3.054  10.814 -0.0089 -0.3200 -0.0582
  690MOL0     H91023  11.391   3.183  10.811  0.0415 -2.0600 -0.2560
  690MOL0     H91024  11.450   3.151  10.967 -2.6697  1.7031  1.7387
  690MOL0     H91025  11.496   2.930  10.921  2.6490  0.1903  0.2003
  690MOL0     H91026  11.570   3.018  10.794  0.2988  0.5710  0.0877
  690MOL0     H91027  11.365   2.989  10.650 -2.1526 -1.8830 -1.7037
  690MOL0     H91028  11.326   2.868  10.773  0.5199  2.5665  2.9818
  690MOL0     H91029  11.583   2.791  10.742  0.9785 -1.1216 -0.4813
  690MOL0     H91030  11.452   2.717  10.652  1.0376  0.5416  1.5986
  690MOL0     H91031  11.521   2.815  10.449  0.5098 -2.1610  0.7612
  690MOL0     H91032  11.654   2.749  10.539 -0.0653  0.2118  1.0297
  690MOL0     H91033  11.501   3.074  10.437 -0.8719  1.0582  1.0941
  690MOL0     H91034  11.664   3.318  10.339 -1.9512 -0.9988  0.4187
  690MOL0     H91035  11.807   3.321  10.437  0.4279 -2.9051  0.3538
  690MOL0     H91036  11.538   3.313  10.561 -1.3289  0.6841  1.6331
  690MOL0     H91037  11.618   3.461  10.509  2.8683 -0.8230 -3.9582
  690MOL0     H91038  11.808   3.443  10.653  0.6760 -2.1284 -0.3311
  690MOL0     H91039  11.643   3.453  10.745 -4.6941 -3.9684 -1.4585
  690MOL0     H91040  11.824   3.219  10.706 -2.3310 -1.5135 -0.4333
  690MOL0     H91041  11.662   3.225  10.784  0.2698  0.4969  0.6929
  690MOL0     H91042  11.875   3.376  11.137 -0.0114  0.7180 -0.8678
  690MOL0     H91043  11.858   3.227  11.330 -2.0248 -2.2813  1.7206
  690MOL0     H91044  11.945   2.994  11.691  1.5631 -0.8734  4.3433
  690MOL0     H91045  12.102   2.826  11.807 -3.5100 -1.4077  0.2981
  690MOL0     H91046  12.357   2.578  11.852 -1.2652  0.2740  2.3044
  690MOL0     H91047  12.215   2.670  11.880 -1.1556 -2.3786 -1.2094
  690MOL0     H91048  12.339   2.881  11.853 -1.3897 -0.5637 -2.5855
  690MOL0     H91049  12.452   2.806  11.745 -2.7259 -2.6671 -2.1068
  690MOL0     H91050  12.551   2.865  11.977 -0.1180  0.5890  1.3118
  690MOL0     H91051  12.572   2.695  11.928 -2.1253 -1.0356 -3.1235
  690MOL0     H91052  12.326   2.782  12.105 -2.0957 -3.2126  0.1071
  690MOL0     H91053  12.395   2.628  12.087 -0.7569  0.1150  0.0374
  690MOL0     H91054  12.627   2.742  12.188  0.2053  1.0612 -2.5749
  690MOL0     H91055  12.483   2.701  12.287 -3.6281  1.4360 -0.4159
  690MOL0     H91056  12.554   2.984  12.185 -0.4780  0.3945  0.6901
  690MOL0     H91057  12.582   2.921  12.341 -4.0805 -0.6560  2.8877
  690MOL0     H91058  12.411   3.065  12.341 -0.9983  1.2438  0.2454
  690MOL0     H91059  12.329   2.993  12.201  0.4943 -0.7379 -0.3404
  690MOL0     H91060  12.255   2.807  12.332 -0.6967 -0.9387  2.4852
  690MOL0     H91061  12.201   2.948  12.423 -1.1561 -2.1997  2.0234
  690MOL0     H91062  12.234   2.691  11.420 -1.8751 -0.8815 -0.6639
  690MOL0     H91063  12.078   2.855  11.319 -1.5033  2.6469  1.0388
  690MOL0     H91064  11.780   2.896  11.079  1.9878 -0.6728  1.6770
  690MOL0     H91065  11.763   3.037  10.892 -2.2666  0.2507  1.7005
  690MOL0     H91066  10.710   2.872  11.016 -0.7094 -1.2766 -1.3328
  690MOL0     H91067  10.522   2.997  10.965  0.7446 -1.1090 -0.7408
  690MOL0     H91068  10.342   3.362  10.521  0.3365 -1.6543  1.4070
  690MOL0     H91069  10.162   3.534  10.512 -3.1117 -0.0016  0.8212
  690MOL0     H91070  10.021   3.759  10.880 -0.9427  1.0775 -0.7365
  690MOL0     H91071   9.948   3.592  10.877 -0.2248 -1.8058 -3.0061
  690MOL0     H91072   9.802   3.835  10.854  0.4030  0.5968 -0.4428
  690MOL0     H91073   9.845   3.794  10.690  0.8006  1.1569 -0.0518
  690MOL0     H91074   9.705   3.623  10.898 -0.6025 -0.4506 -0.0788
  690MOL0     H91075   9.758   3.554  10.739  0.2995 -0.5016  2.0686
  690MOL0     H91076   9.543   3.779  10.780 -1.1020 -0.9288  0.3803
  690MOL0     H91077   9.617   3.735  10.621  0.1129 -1.0464 -0.9717
  690MOL0     H91078   9.322   3.463  10.693 -0.1553 -0.3379  1.9538
  690MOL0     H91079  10.148   3.563  10.932 -0.0208 -1.1604  1.5351
  690MOL0     H91080  10.334   3.397  10.950 -0.3882  1.8338  1.6980
  691MOL0     O91081   7.412   5.328  10.093 -0.2816  0.7174 -0.2485
  691MOL0     C91082   7.363   5.329  10.201 -0.7400 -0.3018  0.8910
  691MOL0     O91083   7.333   5.228  10.281  0.7622 -1.0611  0.3414
  691MOL0     C91084   7.398   5.110  10.292 -0.3506 -0.2768 -0.2762
  691MOL0     C91085   7.335   4.985  10.318  0.7895 -0.0638 -0.5531
  691MOL0     C91086   7.409   4.866  10.318 -0.0942  0.4146 -0.1089
  691MOL0     C91087   7.547   4.874  10.282  0.0150  0.6282 -0.3351
  691MOL0     O91088   7.614   4.756  10.292  0.0646  0.7298  1.0726
  691MOL0     C91089   7.731   4.725  10.220  0.4847  0.2794  0.5918
  691MOL0     C91090   7.802   4.632  10.316 -0.0478  0.2156 -0.3784
  691MOL0     C91091   7.833   4.672  10.460  0.0553  0.2416  0.1026
  691MOL0     C91092   7.937   4.576  10.532 -0.4414  0.1327  0.1292
  691MOL0     C91093   7.883   4.427  10.538  0.4195  0.0776 -0.1222
  691MOL0     C91094   7.878   4.393  10.688 -0.9397  0.6358 -0.3215
  691MOL0     C91095   7.826   4.262  10.726 -0.2772  0.2150  0.1849
  691MOL0     C91096   7.867   4.201  10.866  0.0008  0.1129 -0.3155
  691MOL0     N91097   7.996   4.137  10.882 -0.0927  0.3166 -1.0559
  691MOL0     C91098   8.039   4.029  10.812 -0.4559  0.6149 -0.3867
  691MOL0     C91099   8.173   4.020  10.846 -0.1221 -0.0183 -0.3688
  691MOL0     C91100   8.278   3.934  10.792  0.3291  0.5182  0.3904
  691MOL0     C91101   8.306   3.974  10.648 -0.0002  0.1887  0.0663
  691MOL0     C91102   8.362   4.120  10.625 -0.2658  0.2628 -0.1958
  691MOL0     C91103   8.448   4.133  10.501  0.3224  0.2199  0.2979
  691MOL0     O91104   8.483   4.265  10.473  1.2148 -0.3996 -0.0908
  691MOL0     C91105   8.605   4.305  10.523  1.8642 -0.0137 -0.6192
  691MOL0     C91106   8.597   4.374  10.646 -0.4615 -0.2129  0.6994
  691MOL0     C91107   8.715   4.406  10.719 -0.1100 -0.5720  0.3326
  691MOL0     C91108   8.836   4.361  10.671  0.0136  0.2644  0.0748
  691MOL0     C91109   8.949   4.381  10.749 -0.2945 -0.5523 -0.6633
  691MOL0     O91110   8.932   4.384  10.883  0.1455 -0.4566 -0.2809
  691MOL0     C91111   9.039   4.417  10.960  0.7577 -0.0060 -0.3202
  691MOL0     C91112   9.018   4.518  11.060 -0.5452 -0.2714  0.9158
  691MOL0     C91113   9.120   4.548  11.155  0.0869  0.1719 -0.5067
  691MOL0     C91114   9.243   4.484  11.146 -0.8860  0.0079  0.1358
  691MOL0     O91115   9.347   4.527  11.223  0.8721  0.6244 -0.1002
  691MOL0     C91116   9.384   4.663  11.182 -0.4121  0.2554 -0.5366
  691MOL0     C91117   9.517   4.723  11.246 -0.0330 -0.9361 -0.0981
  691MOL0     C91118   9.642   4.674  11.184 -0.1247 -0.7525 -0.4528
  691MOL0     C91119   9.759   4.761  11.234 -0.0691  0.3674  0.5528
  691MOL0     C91120   9.884   4.706  11.176 -0.5991 -0.3682  0.0711
  691MOL0     C91121  10.011   4.755  11.236 -0.1910 -0.0583  0.8968
  691MOL0     C91122  10.125   4.689  11.163  0.7018 -0.1673  0.2956
  691MOL0     C91123  10.249   4.724  11.232  0.3113  0.8573 -1.4082
  691MOL0    Cl91124  10.384   4.633  11.147 -0.3692 -0.3119 -0.1334
  691MOL0     C91125   9.258   4.386  11.041 -0.2353  0.5599 -0.0025
  691MOL0     C91126   9.160   4.351  10.955  0.6061  0.5105 -0.1088
  691MOL0     O91127   9.056   4.401  10.690 -0.2296  0.2228 -0.0541
  691MOL0     C91128   8.839   4.315  10.537 -0.3456 -0.0556  0.5677
  691MOL0     C91129   8.724   4.275  10.466 -0.1996 -0.0530  0.2247
  691MOL0     N91130   8.205   4.121  10.929  0.2671  0.0586  0.3656
  691MOL0     N91131   8.102   4.179  10.948  0.9633  0.0283  0.3299
  691MOL0     C91132   7.599   4.998  10.255 -1.4804  0.3257  0.5545
  691MOL0     C91133   7.534   5.111  10.260  1.1260 -0.3834  0.0285
  691MOL0     C91134   7.332   5.469  10.247  0.1084  0.6784  0.2356
  691MOL0     C91135   7.258   5.485  10.370 -0.3073 -0.2040 -0.0243
  691MOL0     C91136   7.191   5.603  10.400  0.3640 -1.0673 -0.3321
  691MOL0     C91137   7.201   5.716  10.315  0.0334  0.5335  0.6832
  691MOL0     O91138   7.141   5.834  10.347 -0.7511 -0.9973  0.1542
  691MOL0     C91139   7.015   5.851  10.402 -0.0110  0.1350 -0.9404
  691MOL0     C91140   6.917   5.834  10.288 -0.1602  0.5882  1.3993
  691MOL0     C91141   6.768   5.867  10.324 -0.1424  0.9869 -0.5845
  691MOL0     C91142   6.708   5.749  10.410 -0.8263  0.7563 -0.1741
  691MOL0     C91143   6.684   5.800  10.543 -0.8237 -0.0310 -0.7312
  691MOL0     C91144   6.661   5.859  10.646 -0.3648 -0.5111  0.4456
  691MOL0     C91145   7.275   5.708  10.202 -0.3635 -0.4697  0.1838
  691MOL0     C91146   7.340   5.583  10.161  0.6911 -0.1443  0.4350
  691MOL0     H91147   7.229   4.984  10.338  0.8091 -0.5228 -0.4622
  691MOL0     H91148   7.362   4.770  10.333  1.8236 -0.2548  2.3916
  691MOL0     H91149   7.801   4.808  10.203  1.5125 -0.3488  1.6864
  691MOL0     H91150   7.702   4.670  10.130 -0.7480  1.6638  0.0996
  691MOL0     H91151   7.898   4.608  10.270 -1.5065 -4.5954 -1.5259
  691MOL0     H91152   7.740   4.544  10.333  2.6376 -1.0635  4.9665
  691MOL0     H91153   7.736   4.664  10.510 -0.0766 -5.5175 -0.3766
  691MOL0     H91154   7.862   4.777  10.467  0.8192  0.0633 -0.2937
  691MOL0     H91155   8.033   4.578  10.480  1.0707  2.1265  2.7620
  691MOL0     H91156   7.959   4.620  10.630 -1.1288 -1.2894  0.9626
  691MOL0     H91157   7.954   4.353  10.500  1.3999  1.5023 -1.1636
  691MOL0     H91158   7.788   4.411  10.485  1.0424  0.9796 -1.5679
  691MOL0     H91159   7.838   4.477  10.746  2.9304  1.5630  1.2990
  691MOL0     H91160   7.985   4.389  10.708 -1.3145 -3.5853  1.8696
  691MOL0     H91161   7.717   4.273  10.725 -0.4873 -1.3050  1.4430
  691MOL0     H91162   7.860   4.197  10.645  0.0297  2.1811 -1.3164
  691MOL0     H91163   7.784   4.139  10.901 -2.7635  3.1356 -0.9970
  691MOL0     H91164   7.877   4.291  10.927  1.7488  1.6610 -2.7586
  691MOL0     H91165   7.991   3.958  10.745 -0.4300  0.2955 -0.0690
  691MOL0     H91166   8.237   3.833  10.797 -0.5618  0.9232  1.6072
  691MOL0     H91167   8.366   3.945  10.856 -0.8204 -0.1749  2.1511
  691MOL0     H91168   8.217   3.955  10.587 -1.4431  2.5447  1.3031
  691MOL0     H91169   8.377   3.902  10.605  1.6756  3.2984 -2.8693
  691MOL0     H91170   8.281   4.193  10.622  1.0674  1.7937 -2.6785
  691MOL0     H91171   8.426   4.140  10.711 -0.2434  1.0750 -0.3916
  691MOL0     H91172   8.393   4.087  10.418  1.5959  0.3067 -0.6158
  691MOL0     H91173   8.523   4.055  10.514 -1.5885 -1.7904  0.0309
  691MOL0     H91174   8.496   4.401  10.675 -0.2178  1.9338 -0.2609
  691MOL0     H91175   8.708   4.462  10.812 -2.7887  2.0700 -1.3186
  691MOL0     H91176   8.924   4.569  11.076  0.5028  0.6281  5.8053
  691MOL0     H91177   9.103   4.628  11.226 -0.6203 -0.8101  0.4625
  691MOL0     H91178   9.299   4.720  11.221  0.6554  0.0956  2.2550
  691MOL0     H91179   9.383   4.673  11.073  3.2122 -2.2229 -0.9802
  691MOL0     H91180   9.520   4.697  11.352 -0.4985 -1.3910 -0.1932
  691MOL0     H91181   9.499   4.831  11.249  1.1398 -0.6906 -1.0428
  691MOL0     H91182   9.628   4.710  11.082  0.8201  0.0502 -0.3016
  691MOL0     H91183   9.660   4.567  11.201 -2.7379 -0.8208  3.1901
  691MOL0     H91184   9.744   4.868  11.214  1.2956  2.3546  7.3558
  691MOL0     H91185   9.760   4.759  11.344  1.0732 -0.8563  0.5483
  691MOL0     H91186   9.891   4.726  11.069 -0.6063  0.0681  0.1478
  691MOL0     H91187   9.887   4.598  11.189 -2.8221 -0.9991 -3.4431
  691MOL0     H91188  10.011   4.727  11.342  2.1374 -0.2075  0.9077
  691MOL0     H91189  10.009   4.863  11.224 -2.3073 -0.1107  0.2699
  691MOL0     H91190  10.115   4.580  11.173  2.3186 -0.5840 -1.8333
  691MOL0     H91191  10.153   4.726  11.064  0.7576  1.8134  1.0135
  691MOL0     H91192  10.243   4.680  11.332 -1.4244  1.2294 -1.3102
  691MOL0     H91193  10.273   4.831  11.238 -1.8327  1.3184  0.0182
  691MOL0     H91194   9.347   4.325  11.040  1.0253  2.3372 -1.2556
  691MOL0     H91195   9.177   4.273  10.881  1.4256  1.4242 -0.9342
  691MOL0     H91196   8.926   4.277  10.484 -0.3064  1.8669 -0.8398
  691MOL0     H91197   8.738   4.216  10.376 -0.7045  0.4395 -0.1826
  691MOL0     H91198   7.704   5.010  10.231 -1.1347  3.4019  2.9439
  691MOL0     H91199   7.599   5.195  10.234 -0.0376  0.0584 -1.5864
  691MOL0     H91200   7.256   5.390  10.422  0.1217 -1.7988 -2.7161
  691MOL0     H91201   7.118   5.619  10.479 -0.8781  1.2369 -1.8414
  691MOL0     H91202   7.011   5.956  10.431 -0.0258  0.0945 -0.7957
  691MOL0     H91203   6.989   5.787  10.487 -0.2571 -0.7233 -1.6479
  691MOL0     H91204   6.951   5.895  10.204 -0.8238 -1.5492 -0.5416
  691MOL0     H91205   6.915   5.733  10.246 -0.0334  2.0019 -2.3995
  691MOL0     H91206   6.710   5.890  10.234 -0.0469  0.9072 -0.6655
  691MOL0     H91207   6.766   5.958  10.384  3.9189 -0.5845  2.3794
  691MOL0     H91208   6.614   5.709  10.371  0.3824 -2.1465 -0.3874
  691MOL0     H91209   6.769   5.658  10.418 -0.8144  0.7498 -0.3535
  691MOL0     H91210   6.657   5.923  10.732 -0.3096 -2.1464  1.7178
  691MOL0     H91211   7.294   5.799  10.146  0.9101 -0.5859  0.3944
  691MOL0     H91212   7.400   5.571  10.071  1.8214 -0.3898  1.2058
  692MOL0     O91213   8.172   1.587   1.143 -0.4692 -0.1911 -0.1632
  692MOL0     C91214   8.178   1.647   1.035 -0.3800  0.4844 -0.4997
  692MOL0     O91215   8.076   1.691   0.960  0.3635  0.4738 -0.0371
  692MOL0     C91216   7.945   1.673   1.000 -0.5077 -0.7571 -0.4300
  692MOL0     C91217   7.852   1.646   0.900  1.0234 -0.5987  0.2793
  692MOL0     C91218   7.713   1.650   0.931 -0.0197 -1.2832 -0.9278
  692MOL0     C91219   7.671   1.672   1.059  0.1303  0.0602  1.1426
  692MOL0     O91220   7.537   1.681   1.078  0.2285  0.1846 -0.5560
  692MOL0     C91221   7.484   1.809   1.127 -0.4718 -0.3649 -0.7067
  692MOL0     C91222   7.418   1.874   1.011 -0.5785  0.2400  0.9398
  692MOL0     C91223   7.304   1.796   0.952  0.5061  0.5285  0.6601
  692MOL0     C91224   7.246   1.855   0.826 -0.3476  0.1774 -0.2677
  692MOL0     C91225   7.130   1.773   0.775 -0.2096  0.2099 -0.8102
  692MOL0     C91226   7.050   1.843   0.668 -0.3301  0.6509 -0.3588
  692MOL0     C91227   6.959   1.737   0.593  0.2703  0.2471  0.2784
  692MOL0     C91228   6.874   1.798   0.492  0.1757  0.2092 -0.1153
  692MOL0     N91229   6.796   1.697   0.416  0.8865  0.9753 -0.2280
  692MOL0     C91230   6.690   1.628   0.469 -0.9039  0.2584  0.8751
  692MOL0     C91231   6.659   1.553   0.360 -0.2597 -0.0612 -0.4724
  692MOL0     C91232   6.561   1.437   0.380 -0.2882  0.4438  0.6274
  692MOL0     C91233   6.416   1.488   0.383 -0.7982  0.3631 -0.1303
  692MOL0     C91234   6.319   1.428   0.487 -1.0254 -0.2280  0.2080
  692MOL0     C91235   6.160   1.473   0.482 -0.9582  0.3042  0.3076
  692MOL0     O91236   6.104   1.444   0.354  0.8307 -0.0118 -0.3228
  692MOL0     C91237   6.035   1.328   0.326  0.2055  0.9224 -1.0866
  692MOL0     C91238   5.981   1.316   0.197 -0.6521 -0.2382 -0.3676
  692MOL0     C91239   5.929   1.200   0.153  0.8367 -0.6713 -0.2396
  692MOL0     C91240   5.901   1.095   0.258 -0.4840 -0.5971  0.0261
  692MOL0     C91241   5.822   0.973   0.238 -0.4524  0.8948 -0.5763
  692MOL0     O91242   5.773   0.910   0.341  0.1561  0.4178  0.4011
  692MOL0     C91243   5.714   0.790   0.314  0.2259 -0.4284 -0.2930
  692MOL0     C91244   5.579   0.778   0.319  1.1267 -0.3794 -1.0715
  692MOL0     C91245   5.523   0.646   0.310 -0.0601  0.6992  0.3377
  692MOL0     C91246   5.600   0.544   0.280  0.4896  0.5723  0.2727
  692MOL0     O91247   5.537   0.422   0.268  0.1118 -0.0128  0.1818
  692MOL0     C91248   5.623   0.317   0.205 -0.2526 -0.7428 -0.3302
  692MOL0     C91249   5.554   0.182   0.201 -0.8212  0.6814 -0.0712
  692MOL0     C91250   5.640   0.067   0.149  0.3434  0.1611 -1.0434
  692MOL0     C91251   5.570  -0.068   0.162  0.3810  0.5543  0.1280
  692MOL0     C91252   5.658  -0.179   0.110 -0.4380 -0.2011  0.2317
  692MOL0     C91253   5.778  -0.219   0.203 -0.1512 -0.0807 -0.5130
  692MOL0     C91254   5.909  -0.285   0.143  0.2422 -0.1029 -0.0086
  692MOL0     C91255   5.894  -0.370   0.010  0.0091  0.8500 -0.8215
  692MOL0    Cl91256   5.753  -0.482   0.016  0.3424  0.1577 -0.3506
  692MOL0     C91257   5.737   0.562   0.264  0.2041  0.6677 -0.2495
  692MOL0     C91258   5.798   0.688   0.279 -0.3866  0.8754  0.1007
  692MOL0     O91259   5.805   0.940   0.118  0.2966 -0.0033 -0.7396
  692MOL0     C91260   5.946   1.117   0.388 -0.6351  0.2834 -0.2592
  692MOL0     C91261   6.015   1.227   0.419  0.2646 -0.2852  0.4827
  692MOL0     N91262   6.721   1.594   0.249 -0.0142 -0.2230 -0.8948
  692MOL0     N91263   6.801   1.690   0.285  0.0868  0.7582  0.7183
  692MOL0     C91264   7.769   1.685   1.159  0.5702 -0.3325 -0.3670
  692MOL0     C91265   7.904   1.687   1.131  0.3869 -0.3402 -0.7205
  692MOL0     C91266   8.312   1.688   0.981  0.5542  0.0760 -0.1194
  692MOL0     C91267   8.321   1.803   0.897 -1.1054  0.3062 -0.3319
  692MOL0     C91268   8.448   1.834   0.845  0.4342 -0.1255 -0.3021
  692MOL0     C91269   8.558   1.755   0.882  0.3013 -0.8294 -0.4184
  692MOL0     O91270   8.694   1.791   0.855  0.2809  0.0268 -0.3229
  692MOL0     C91271   8.728   1.909   0.772  0.2143 -0.5766  0.2656
  692MOL0     C91272   8.882   1.934   0.786  0.4188  0.8961  0.0152
  692MOL0     C91273   8.966   1.844   0.685 -1.1619  0.5000  0.3440
  692MOL0     C91274   9.112   1.816   0.730 -0.5208 -0.3383  0.3925
  692MOL0     C91275   9.099   1.707   0.832 -0.6715 -0.7851 -0.4111
  692MOL0     C91276   9.085   1.626   0.923  0.4070 -0.8701  0.0576
  692MOL0     C91277   8.543   1.650   0.970 -0.4123 -0.3496  1.2033
  692MOL0     C91278   8.420   1.608   1.007 -0.3739  0.2506 -0.7251
  692MOL0     H91279   7.895   1.635   0.801  0.6339 -4.1899  0.3545
  692MOL0     H91280   7.646   1.656   0.845  0.4830  2.1377 -1.2392
  692MOL0     H91281   7.567   1.867   1.168 -1.2653  0.6052 -0.4610
  692MOL0     H91282   7.414   1.805   1.211 -1.1955  0.5241 -1.2493
  692MOL0     H91283   7.489   1.894   0.931  0.4304 -2.1590  1.1616
  692MOL0     H91284   7.372   1.971   1.032 -1.8706  0.7202 -3.2706
  692MOL0     H91285   7.229   1.792   1.031  0.5479  2.6513  0.8718
  692MOL0     H91286   7.330   1.692   0.931  0.7444  0.5803  0.6947
  692MOL0     H91287   7.217   1.960   0.840  0.8899  0.5739 -0.5705
  692MOL0     H91288   7.322   1.850   0.747 -1.1643  1.5080 -1.1850
  692MOL0     H91289   7.069   1.730   0.855 -0.5052 -1.8427 -2.0568
  692MOL0     H91290   7.178   1.684   0.732 -2.7033 -0.9637 -1.3628
  692MOL0     H91291   7.109   1.898   0.593  1.5278  2.3684  2.2103
  692MOL0     H91292   6.975   1.901   0.722 -1.1658  1.3880 -2.2293
  692MOL0     H91293   7.018   1.649   0.565 -1.3032 -0.1461 -2.0707
  692MOL0     H91294   6.888   1.708   0.671 -0.3164  1.5806  0.2584
  692MOL0     H91295   6.941   1.839   0.416  2.7500  0.8292  2.3234
  692MOL0     H91296   6.810   1.874   0.539 -2.2303 -2.9893  2.2805
  692MOL0     H91297   6.667   1.605   0.572  1.9474 -2.3912  1.0598
  692MOL0     H91298   6.579   1.378   0.470  2.4849  4.0879  2.7481
  692MOL0     H91299   6.578   1.375   0.291 -2.5333  1.1774 -0.3975
  692MOL0     H91300   6.361   1.475   0.290  0.8051 -1.4027 -0.8985
  692MOL0     H91301   6.427   1.596   0.402  1.3946 -0.0057  1.0269
  692MOL0     H91302   6.317   1.319   0.489 -1.2452 -0.2369 -0.4488
  692MOL0     H91303   6.347   1.470   0.584 -1.5280  0.6409 -0.0141
  692MOL0     H91304   6.148   1.581   0.496  0.3259  0.3353  1.3263
  692MOL0     H91305   6.115   1.419   0.566  3.5068  0.6204  3.2072
  692MOL0     H91306   6.015   1.396   0.132  1.9911 -0.6660  0.3721
  692MOL0     H91307   5.882   1.179   0.058  1.6012  0.1461 -0.8019
  692MOL0     H91308   5.531   0.873   0.335 -2.0160 -2.1184  0.9183
  692MOL0     H91309   5.415   0.632   0.313 -0.0760  0.7110 -0.0528
  692MOL0     H91310   5.711   0.302   0.268  0.1999 -0.9222 -1.0072
  692MOL0     H91311   5.657   0.357   0.110 -0.7326 -0.1458 -0.2663
  692MOL0     H91312   5.462   0.200   0.144 -0.2761  0.1943 -1.1350
  692MOL0     H91313   5.516   0.172   0.302  0.1753  1.1832  0.3708
  692MOL0     H91314   5.735   0.071   0.202 -1.0743 -0.3920  1.6998
  692MOL0     H91315   5.669   0.081   0.044  4.1894 -5.0697 -1.0726
  692MOL0     H91316   5.540  -0.082   0.266  0.2244 -0.6695 -0.0756
  692MOL0     H91317   5.474  -0.073   0.109 -0.5241 -2.4559  1.8487
  692MOL0     H91318   5.687  -0.134   0.015  0.6715  0.0816  0.6893
  692MOL0     H91319   5.605  -0.271   0.083 -1.0687 -0.2020  1.4151
  692MOL0     H91320   5.737  -0.276   0.286  3.2013 -0.7045  0.8795
  692MOL0     H91321   5.821  -0.130   0.249  2.9163 -0.7976 -1.7349
  692MOL0     H91322   5.988  -0.211   0.124 -1.1486  1.3219 -0.4220
  692MOL0     H91323   5.948  -0.343   0.227  0.9812  0.4736  0.0654
  692MOL0     H91324   5.984  -0.430  -0.001  0.9126  2.1151 -0.5801
  692MOL0     H91325   5.880  -0.304  -0.077 -0.6698 -0.9059 -2.1241
  692MOL0     H91326   5.801   0.475   0.247 -0.8431  0.2295 -2.1984
  692MOL0     H91327   5.904   0.700   0.296 -0.6141  2.0634  0.8160
  692MOL0     H91328   5.930   1.034   0.456  1.9506 -0.6197 -0.6455
  692MOL0     H91329   6.056   1.236   0.519  0.5060  1.7372  0.2375
  692MOL0     H91330   7.746   1.696   1.264  0.1632 -2.1791 -0.2304
  692MOL0     H91331   7.971   1.702   1.215  1.2294  0.6433 -1.5460
  692MOL0     H91332   8.243   1.879   0.886 -0.2491  1.4220  0.9291
  692MOL0     H91333   8.464   1.925   0.787 -2.4097 -1.1437 -2.9581
  692MOL0     H91334   8.681   2.003   0.804 -2.6357 -1.5624 -0.7594
  692MOL0     H91335   8.692   1.903   0.669 -1.0899 -0.7227  0.7055
  692MOL0     H91336   8.920   2.036   0.774  0.7856  1.0555  2.1156
  692MOL0     H91337   8.915   1.908   0.887 -1.9098 -0.4134  0.4938
  692MOL0     H91338   8.972   1.901   0.592  4.6110  0.7926  0.5400
  692MOL0     H91339   8.914   1.749   0.672  0.2184 -0.2700  0.3876
  692MOL0     H91340   9.173   1.775   0.649 -1.9125 -0.6557 -0.5309
  692MOL0     H91341   9.160   1.908   0.763  0.7264 -1.2633  1.2524
  692MOL0     H91342   9.083   1.549   0.997 -1.5047 -0.4987  0.4435
  692MOL0     H91343   8.631   1.589   0.989 -0.6949 -1.8582 -1.7630
  692MOL0     H91344   8.417   1.519   1.069 -3.0694  1.2889  0.7959
  693MOL0     O91345   2.999   5.101  10.290  0.0743  0.0937  0.2901
  693MOL0     C91346   3.076   5.167  10.357 -0.2546  0.1337  1.1004
  693MOL0     O91347   3.211   5.151  10.354 -0.1474  0.2089 -0.3525
  693MOL0     C91348   3.283   5.046  10.294 -0.9539  0.5442 -0.0846
  693MOL0     C91349   3.412   5.062  10.231 -0.2099 -0.2033 -0.8046
  693MOL0     C91350   3.494   4.949  10.196  0.5863 -0.2409  0.0219
  693MOL0     C91351   3.454   4.817  10.236  0.4169  0.1743 -1.2136
  693MOL0     O91352   3.519   4.706  10.193  0.2256  0.6520  0.0992
  693MOL0     C91353   3.592   4.634  10.287  0.1395  0.0720  0.1590
  693MOL0     C91354   3.722   4.701  10.310  0.3896 -0.0602 -0.0376
  693MOL0     C91355   3.814   4.684  10.183  0.7227 -0.5751  0.7454
  693MOL0     C91356   3.959   4.732  10.198 -0.3301  0.2926 -0.1027
  693MOL0     C91357   4.025   4.789  10.069  0.2594  0.1330 -0.5448
  693MOL0     C91358   4.073   4.679   9.987  0.0526 -0.2483 -0.1113
  693MOL0     C91359   4.131   4.732   9.863 -0.8599  0.0125 -0.1175
  693MOL0     C91360   4.158   4.615   9.761 -0.5670  1.0399 -0.1087
  693MOL0     N91361   4.196   4.666   9.625  0.1134  0.2307  0.0252
  693MOL0     C91362   4.201   4.580   9.514  0.7195  0.8820  0.0417
  693MOL0     C91363   4.282   4.645   9.429  0.1123 -1.3340  1.5558
  693MOL0     C91364   4.306   4.609   9.286  0.6297  0.8376  0.7450
  693MOL0     C91365   4.256   4.714   9.182  0.7135  0.2336 -0.2067
  693MOL0     C91366   4.370   4.775   9.105 -0.4953 -1.1340  0.0361
  693MOL0     C91367   4.310   4.893   9.025 -0.3785 -0.3126  0.0498
  693MOL0     O91368   4.231   4.835   8.921 -0.8778 -0.1251 -0.1825
  693MOL0     C91369   4.195   4.910   8.812  0.1722 -0.2266  0.5687
  693MOL0     C91370   4.278   4.989   8.740  0.1812 -0.6024 -0.0282
  693MOL0     C91371   4.233   5.065   8.634  0.1818 -0.0066  1.1364
  693MOL0     C91372   4.100   5.057   8.594  0.6062  0.2235  0.1608
  693MOL0     C91373   4.053   5.134   8.478 -0.4844  0.1530 -0.4326
  693MOL0     O91374   4.147   5.217   8.413  0.6002 -0.3342 -0.0968
  693MOL0     C91375   4.101   5.279   8.294 -1.1160  0.5836  0.4186
  693MOL0     C91376   4.113   5.214   8.170 -0.0227  0.2589  0.1585
  693MOL0     C91377   4.087   5.278   8.048  0.1785 -0.2501  0.2852
  693MOL0     C91378   4.037   5.409   8.052 -0.3845  0.0226  0.2826
  693MOL0     O91379   4.012   5.479   7.943 -1.0541 -0.2080 -0.3539
  693MOL0     C91380   4.111   5.474   7.839  1.1763  0.4077  0.1372
  693MOL0     C91381   4.061   5.399   7.718 -0.2082 -0.2006 -0.9413
  693MOL0     C91382   4.174   5.420   7.612  0.9935  0.0748  0.5256
  693MOL0     C91383   4.142   5.330   7.485  0.5017  0.6880  0.3226
  693MOL0     C91384   4.236   5.363   7.351  0.4485  0.1209  0.4737
  693MOL0     C91385   4.251   5.251   7.245  0.5679 -0.5469  0.3036
  693MOL0     C91386   4.132   5.242   7.155  0.6936 -0.1147  0.6790
  693MOL0     C91387   4.132   5.140   7.032  0.2767 -0.6267 -0.3711
  693MOL0    Cl91388   4.236   5.192   6.886 -0.0701  0.3880  0.0206
  693MOL0     C91389   4.019   5.473   8.175 -0.2177 -0.1681 -0.2142
  693MOL0     C91390   4.055   5.414   8.298 -0.5656  1.6277  0.9826
  693MOL0     O91391   3.932   5.120   8.448 -0.0547 -0.5931  0.4348
  693MOL0     C91392   4.015   4.962   8.663 -0.6364  0.1171  0.0496
  693MOL0     C91393   4.065   4.887   8.768 -0.3707 -0.2207  0.8177
  693MOL0     N91394   4.341   4.759   9.480  0.5047  1.1852  0.4142
  693MOL0     N91395   4.291   4.763   9.601  0.8062 -0.5209 -0.3060
  693MOL0     C91396   3.333   4.804  10.305 -0.0097 -0.6848 -0.8034
  693MOL0     C91397   3.253   4.920  10.331  0.3818 -0.3439  0.3172
  693MOL0     C91398   3.014   5.279  10.435 -0.6697 -0.0645 -1.4727
  693MOL0     C91399   2.881   5.292  10.448 -0.3868  0.7176 -0.2763
  693MOL0     C91400   2.830   5.401  10.523  0.0754 -0.1758  0.2894
  693MOL0     C91401   2.909   5.493  10.586  0.2638  0.0346  0.1452
  693MOL0     O91402   2.866   5.599  10.670 -0.1818  1.4098  0.3036
  693MOL0     C91403   2.730   5.585  10.710 -0.4645 -0.2401 -0.0572
  693MOL0     C91404   2.694   5.675  10.818  0.7801 -0.8359  0.0612
  693MOL0     C91405   2.716   5.829  10.792 -1.1645 -0.4065 -0.0464
  693MOL0     C91406   2.681   5.934  10.903  0.1554 -0.0537  0.1396
  693MOL0     C91407   2.734   5.899  11.032 -1.2286 -0.5249 -0.2832
  693MOL0     C91408   2.788   5.860  11.133  0.1678  0.6313  0.0347
  693MOL0     C91409   3.049   5.470  10.578  0.7304  0.0214  0.1967
  693MOL0     C91410   3.104   5.365  10.507 -0.3699 -0.5817  0.5663
  693MOL0     H91411   3.426   5.167  10.206 -0.9412 -0.1542 -1.0425
  693MOL0     H91412   3.580   4.973  10.134 -1.7446  0.0950 -3.3075
  693MOL0     H91413   3.615   4.530  10.263 -1.4883 -0.8731  2.3938
  693MOL0     H91414   3.539   4.627  10.382  0.7359 -1.5628  0.3973
  693MOL0     H91415   3.778   4.655  10.392  0.1228 -1.0495 -0.3966
  693MOL0     H91416   3.698   4.806  10.326 -2.3510 -0.5627 -0.3796
  693MOL0     H91417   3.769   4.737  10.100  1.7708 -0.3507  0.3003
  693MOL0     H91418   3.810   4.577  10.161 -0.4956  0.2912 -4.3557
  693MOL0     H91419   3.960   4.813  10.272 -1.0799 -2.2922  3.0087
  693MOL0     H91420   4.024   4.656  10.244 -4.1172 -1.4922  2.8694
  693MOL0     H91421   4.115   4.848  10.086  0.0718  0.6118 -1.1697
  693MOL0     H91422   3.946   4.845  10.017  0.5217 -0.7184 -1.8988
  693MOL0     H91423   3.988   4.621   9.953  0.7724 -2.5773  1.8247
  693MOL0     H91424   4.141   4.617  10.045 -1.3880 -1.4901  0.2870
  693MOL0     H91425   4.052   4.792   9.816 -0.3337 -1.5523 -3.2968
  693MOL0     H91426   4.227   4.780   9.883 -1.0476  0.0862  0.6241
  693MOL0     H91427   4.070   4.554   9.740  0.4012  0.4111 -2.6791
  693MOL0     H91428   4.241   4.554   9.797 -0.1025 -0.4948 -3.4310
  693MOL0     H91429   4.150   4.485   9.499  1.2153  0.4814  0.7999
  693MOL0     H91430   4.250   4.517   9.268  2.7215 -0.3668 -0.0594
  693MOL0     H91431   4.413   4.593   9.270  0.3887  0.0048 -0.0901
  693MOL0     H91432   4.192   4.784   9.237 -1.1148 -0.3598 -1.4975
  693MOL0     H91433   4.192   4.662   9.111 -1.6801  1.4909  0.9079
  693MOL0     H91434   4.445   4.811   9.176 -0.8104 -2.8748  1.3074
  693MOL0     H91435   4.429   4.703   9.048  1.7134  0.0697  0.6951
  693MOL0     H91436   4.395   4.953   8.994 -3.2311  3.1986 -1.7765
  693MOL0     H91437   4.237   4.952   9.081  1.0551  0.6558  0.9530
  693MOL0     H91438   4.369   5.000   8.797 -0.2793 -1.3155  0.8695
  693MOL0     H91439   4.311   5.126   8.588  1.9628 -3.3651 -0.6296
  693MOL0     H91440   4.136   5.108   8.167  0.9299  0.4697 -1.3300
  693MOL0     H91441   4.094   5.224   7.955 -2.7115  1.6728 -1.2038
  693MOL0     H91442   4.212   5.438   7.865 -0.1524 -3.2060  0.9347
  693MOL0     H91443   4.126   5.577   7.807 -2.0667  0.4308 -1.7174
  693MOL0     H91444   3.975   5.454   7.680  3.1149  2.6063 -5.4496
  693MOL0     H91445   4.030   5.295   7.735 -0.7927 -0.0644 -1.1383
  693MOL0     H91446   4.276   5.398   7.643  1.9536  2.8922 -0.3401
  693MOL0     H91447   4.154   5.526   7.593  1.6008  0.6512  2.7823
  693MOL0     H91448   4.172   5.227   7.505  1.8444  0.5528 -1.9412
  693MOL0     H91449   4.036   5.343   7.463 -0.2586 -3.5508  0.7268
  693MOL0     H91450   4.340   5.376   7.384  0.6058 -1.1607  0.5020
  693MOL0     H91451   4.192   5.456   7.314  1.3973  0.2153 -0.4706
  693MOL0     H91452   4.271   5.160   7.301 -0.0325  0.3993  2.1251
  693MOL0     H91453   4.345   5.273   7.192  2.2408 -3.2480  1.8905
  693MOL0     H91454   4.051   5.208   7.220 -0.0039  0.9998  0.4276
  693MOL0     H91455   4.107   5.344   7.125  1.3515 -0.2423 -0.3532
  693MOL0     H91456   4.031   5.131   6.989 -0.1361 -4.5379  0.9998
  693MOL0     H91457   4.165   5.044   7.073  0.1772  0.1065  1.5419
  693MOL0     H91458   3.971   5.571   8.182  1.6733  0.6895  2.1654
  693MOL0     H91459   4.038   5.447   8.400 -2.7812 -1.5353  1.7927
  693MOL0     H91460   3.909   4.948   8.642 -1.4158  3.2738  1.3836
  693MOL0     H91461   4.008   4.826   8.838  0.2166 -0.7174  0.8767
  693MOL0     H91462   3.306   4.704  10.338 -0.0661 -0.8607 -1.3854
  693MOL0     H91463   3.164   4.906  10.392 -0.4294 -4.1736 -1.4210
  693MOL0     H91464   2.822   5.211  10.408 -0.8765  0.1978  1.4042
  693MOL0     H91465   2.722   5.397  10.527 -0.1336 -1.0141 -3.1717
  693MOL0     H91466   2.724   5.485  10.755  3.9129 -0.4191  0.5119
  693MOL0     H91467   2.662   5.601  10.626 -0.0754 -2.9578 -0.9788
  693MOL0     H91468   2.587   5.670  10.843  0.6451 -0.6868 -0.4806
  693MOL0     H91469   2.746   5.647  10.910  0.8159  0.9812  0.6252
  693MOL0     H91470   2.670   5.857  10.697  0.9533  1.3276 -0.6597
  693MOL0     H91471   2.825   5.837  10.780 -1.2672  0.7499 -0.3453
  693MOL0     H91472   2.698   6.040  10.886 -0.4515  0.1957  1.0156
  693MOL0     H91473   2.572   5.922  10.900  0.1593 -1.3780  2.4583
  693MOL0     H91474   2.840   5.832  11.222  2.5066  5.5142  0.5234
  693MOL0     H91475   3.112   5.548  10.620  0.5366 -0.2718  1.0492
  693MOL0     H91476   3.211   5.361  10.487 -0.0563  1.6485  1.4851
  694MOL0     O91477   5.681   6.270   7.023  0.8401  0.5435  0.5106
  694MOL0     C91478   5.572   6.218   7.011 -0.2274  0.3964  0.3675
  694MOL0     O91479   5.504   6.184   6.886  0.5515  0.0206 -1.0761
  694MOL0     C91480   5.545   6.190   6.756  0.0237 -0.4035  0.0877
  694MOL0     C91481   5.663   6.251   6.718  0.8296  0.8614 -0.1184
  694MOL0     C91482   5.712   6.244   6.584  0.3202  0.2676  0.7807
  694MOL0     C91483   5.632   6.195   6.488 -0.0287  0.1496  0.4037
  694MOL0     O91484   5.670   6.212   6.358 -0.4314 -0.2368 -0.0442
  694MOL0     C91485   5.664   6.352   6.316 -0.0413  1.2845  0.0061
  694MOL0     C91486   5.518   6.409   6.330 -0.3829  0.1106 -0.0322
  694MOL0     C91487   5.474   6.524   6.230 -0.5190  0.1008 -0.3763
  694MOL0     C91488   5.590   6.624   6.225 -1.0624 -0.2788  0.9047
  694MOL0     C91489   5.549   6.762   6.164  0.9278  0.1333 -0.8231
  694MOL0     C91490   5.666   6.849   6.116 -0.4831  0.2069  0.5250
  694MOL0     C91491   5.788   6.861   6.214 -0.3064  0.2038  0.7937
  694MOL0     C91492   5.883   6.974   6.171 -1.6206  0.3595  0.2162
  694MOL0     N91493   5.951   6.956   6.046  0.0281  0.5187  0.0340
  694MOL0     C91494   6.014   6.843   5.978  0.1205 -0.1321  0.1126
  694MOL0     C91495   6.094   6.892   5.888 -0.8804 -0.2865 -0.6899
  694MOL0     C91496   6.184   6.806   5.814  0.4861 -1.0280 -0.2714
  694MOL0     C91497   6.116   6.758   5.685  0.0616  0.5810  0.4502
  694MOL0     C91498   6.115   6.866   5.572  0.7235 -0.5976 -0.3190
  694MOL0     C91499   6.257   6.889   5.530 -0.4051  0.6833  0.5179
  694MOL0     O91500   6.318   6.770   5.467  0.3258 -0.3429 -0.8011
  694MOL0     C91501   6.423   6.788   5.384  0.1547 -0.4276 -0.1695
  694MOL0     C91502   6.493   6.905   5.364  0.0760  0.8375  0.7238
  694MOL0     C91503   6.602   6.907   5.286 -0.4599  0.6638  0.3019
  694MOL0     C91504   6.648   6.789   5.225 -0.0472  0.1466  0.3383
  694MOL0     C91505   6.783   6.781   5.159  1.1363  0.2232  0.7396
  694MOL0     O91506   6.840   6.661   5.119  0.9707  0.7843  1.0586
  694MOL0     C91507   6.952   6.673   5.039 -0.4098  0.3809 -0.0468
  694MOL0     C91508   7.078   6.717   5.093 -0.2380  0.0334 -0.2067
  694MOL0     C91509   7.206   6.698   5.026  0.4601  0.3472 -0.2633
  694MOL0     C91510   7.199   6.633   4.903  0.4661  0.3206  0.0203
  694MOL0     O91511   7.304   6.607   4.813  0.2287  0.1531  0.3091
  694MOL0     C91512   7.403   6.707   4.807 -1.0506  0.2444  0.1141
  694MOL0     C91513   7.509   6.669   4.699  0.0676  0.7139 -0.3223
  694MOL0     C91514   7.539   6.777   4.598  0.1020  0.8287 -0.1201
  694MOL0     C91515   7.601   6.903   4.652  0.0059 -0.2140  0.3043
  694MOL0     C91516   7.648   6.990   4.535  0.7207 -1.2413 -0.4231
  694MOL0     C91517   7.536   7.076   4.457 -0.0240  0.3235  0.6837
  694MOL0     C91518   7.591   7.195   4.374  0.1264  0.6098 -0.7796
  694MOL0     C91519   7.490   7.240   4.278  1.1292  0.3358  0.2718
  694MOL0    Cl91520   7.513   7.124   4.133  0.2534  0.3858 -0.1312
  694MOL0     C91521   7.072   6.589   4.858 -0.4145 -0.6508 -0.4361
  694MOL0     C91522   6.949   6.605   4.920  0.5216 -0.4594  0.0608
  694MOL0     O91523   6.840   6.879   5.131  0.0238 -0.2075 -0.1563
  694MOL0     C91524   6.577   6.671   5.236 -0.4220 -0.4560 -1.2720
  694MOL0     C91525   6.461   6.676   5.315 -1.0921  0.5333  0.0623
  694MOL0     N91526   6.072   7.029   5.878 -0.2077 -0.0049  0.4345
  694MOL0     N91527   6.000   7.067   5.988  0.8310  0.1244  0.2547
  694MOL0     C91528   5.518   6.133   6.516  1.4683  0.8662 -0.6628
  694MOL0     C91529   5.467   6.137   6.652 -0.2085  0.3730 -0.0504
  694MOL0     C91530   5.488   6.195   7.127 -0.3852  0.3337 -0.2282
  694MOL0     C91531   5.522   6.239   7.254  0.3993 -1.0638  0.2963
  694MOL0     C91532   5.453   6.199   7.365  0.6797  0.0504 -0.4520
  694MOL0     C91533   5.337   6.124   7.346  0.3114 -0.0725 -0.5606
  694MOL0     O91534   5.269   6.074   7.456 -0.7511 -0.0217  0.1586
  694MOL0     C91535   5.347   5.982   7.540  0.3242 -0.5248  0.3117
  694MOL0     C91536   5.392   5.861   7.465  0.6332  0.0774  0.6064
  694MOL0     C91537   5.282   5.776   7.395  0.1744  0.3733 -0.5404
  694MOL0     C91538   5.338   5.696   7.275 -0.1794  0.6865 -0.1255
  694MOL0     C91539   5.468   5.620   7.301  0.9536 -0.4219 -1.2365
  694MOL0     C91540   5.569   5.565   7.333 -0.3163  0.7928 -0.1102
  694MOL0     C91541   5.292   6.082   7.217  0.3374 -0.8481  0.0740
  694MOL0     C91542   5.366   6.127   7.116 -0.4378  0.6784  0.1149
  694MOL0     H91543   5.723   6.296   6.796  0.5294  1.0066  0.0316
  694MOL0     H91544   5.806   6.296   6.569  0.7387 -0.8780 -0.7416
  694MOL0     H91545   5.694   6.351   6.211  0.8362 -1.7593  0.1969
  694MOL0     H91546   5.733   6.419   6.369 -0.0012  0.4154  1.0968
  694MOL0     H91547   5.502   6.437   6.435  1.9378 -2.0760  1.0046
  694MOL0     H91548   5.454   6.325   6.303 -2.0379 -0.1622  4.1298
  694MOL0     H91549   5.391   6.585   6.266 -1.8654 -2.7929  1.9222
  694MOL0     H91550   5.454   6.488   6.128  1.0553 -1.7305 -0.1224
  694MOL0     H91551   5.633   6.638   6.325 -1.2357  1.1996  0.7951
  694MOL0     H91552   5.662   6.584   6.153 -2.5021  0.0416 -0.7811
  694MOL0     H91553   5.483   6.830   6.220 -2.0769 -1.5811 -2.0423
  694MOL0     H91554   5.477   6.730   6.089  0.1025  0.2665 -0.1075
  694MOL0     H91555   5.641   6.953   6.092 -1.2712 -0.5441 -2.3385
  694MOL0     H91556   5.690   6.817   6.014 -3.2825 -1.5641  0.3287
  694MOL0     H91557   5.751   6.892   6.313  3.3374  0.4021  2.2528
  694MOL0     H91558   5.842   6.767   6.219  0.1926  0.5301  2.2637
  694MOL0     H91559   5.960   6.974   6.249 -1.2959 -2.8178  0.0235
  694MOL0     H91560   5.825   7.067   6.165 -0.0328  1.2916 -2.6798
  694MOL0     H91561   6.006   6.745   6.024 -0.6472  0.3418  1.0505
  694MOL0     H91562   6.213   6.717   5.871  3.0467 -1.2807 -1.8515
  694MOL0     H91563   6.273   6.869   5.808 -1.7542  2.3125 -1.2425
  694MOL0     H91564   6.012   6.733   5.708 -0.7020  2.5435 -0.6195
  694MOL0     H91565   6.176   6.672   5.655  0.7558 -0.0007  3.2460
  694MOL0     H91566   6.070   6.821   5.483 -2.5144 -3.1478  2.3254
  694MOL0     H91567   6.072   6.961   5.606 -0.8506 -1.6841  0.8888
  694MOL0     H91568   6.331   6.921   5.604  1.7882  0.8364 -1.5981
  694MOL0     H91569   6.245   6.965   5.452  1.4943  0.8596  0.3499
  694MOL0     H91570   6.472   7.005   5.402 -0.3436  1.3610 -0.8027
  694MOL0     H91571   6.659   6.998   5.271 -0.9950  1.0736  0.6830
  694MOL0     H91572   7.072   6.768   5.189  0.2672 -0.6467  0.1904
  694MOL0     H91573   7.299   6.724   5.076  0.9575  0.4570 -1.2097
  694MOL0     H91574   7.463   6.732   4.895 -0.0885 -0.3731 -0.3454
  694MOL0     H91575   7.356   6.801   4.775  0.1617  1.0177  0.5295
  694MOL0     H91576   7.464   6.586   4.644 -2.7209  3.9651 -3.4542
  694MOL0     H91577   7.608   6.643   4.737 -0.2488  1.3033  0.9958
  694MOL0     H91578   7.448   6.794   4.539 -0.3748 -2.6215 -0.6227
  694MOL0     H91579   7.609   6.733   4.526 -0.3583  0.4287 -0.3330
  694MOL0     H91580   7.531   6.950   4.722  1.2676 -0.4799  1.7830
  694MOL0     H91581   7.691   6.884   4.711  0.0496 -0.9085  0.0210
  694MOL0     H91582   7.697   6.934   4.454 -0.7840 -4.6794  0.8413
  694MOL0     H91583   7.731   7.055   4.564 -1.1829  0.5045  1.3849
  694MOL0     H91584   7.472   7.129   4.528 -1.6693  0.9229 -1.1732
  694MOL0     H91585   7.469   7.016   4.394 -3.4235 -0.2320  4.3765
  694MOL0     H91586   7.610   7.260   4.459 -1.3094  0.5717 -0.4125
  694MOL0     H91587   7.692   7.174   4.335 -0.0691  1.2922 -1.6966
  694MOL0     H91588   7.510   7.346   4.262 -0.7028  0.6781 -0.0369
  694MOL0     H91589   7.387   7.227   4.313  0.7952 -2.4567 -1.4598
  694MOL0     H91590   7.072   6.547   4.758  1.5800 -2.1263  0.1262
  694MOL0     H91591   6.853   6.564   4.889 -0.0788  0.7576  0.2461
  694MOL0     H91592   6.629   6.587   5.189 -0.2403 -0.0511 -1.8083
  694MOL0     H91593   6.405   6.583   5.321 -1.3676  0.5720 -1.3842
  694MOL0     H91594   5.466   6.088   6.433 -0.3029  5.5469 -2.4236
  694MOL0     H91595   5.376   6.081   6.670  1.5018 -2.6705 -0.3353
  694MOL0     H91596   5.606   6.304   7.273  0.8973 -1.3383 -0.8965
  694MOL0     H91597   5.496   6.227   7.461  0.2802 -1.6085  0.2562
  694MOL0     H91598   5.289   5.952   7.628  0.4429  1.6762  1.1942
  694MOL0     H91599   5.425   6.038   7.592 -1.1407  1.2553  0.6946
  694MOL0     H91600   5.464   5.899   7.391 -2.1731 -0.4324 -2.6579
  694MOL0     H91601   5.442   5.795   7.536  0.6359 -1.4177 -0.7389
  694MOL0     H91602   5.189   5.826   7.368 -0.6020 -1.0458 -0.5678
  694MOL0     H91603   5.240   5.699   7.460  1.7862 -0.9154 -0.9307
  694MOL0     H91604   5.268   5.614   7.258 -1.2415  1.1380  1.7660
  694MOL0     H91605   5.344   5.765   7.191  1.6526  0.8680  0.1225
  694MOL0     H91606   5.672   5.536   7.328 -0.6557 -0.2590 -2.3781
  694MOL0     H91607   5.216   6.006   7.204  1.5114 -2.1754  0.6958
  694MOL0     H91608   5.331   6.113   7.014 -1.0750  0.3370  0.3745
  695MOL0     O91609   8.545   2.513   3.134  0.0743  0.1989 -0.9704
  695MOL0     C91610   8.500   2.620   3.104 -0.5257  0.5729 -1.2389
  695MOL0     O91611   8.565   2.740   3.114  0.5710  1.0430 -0.5828
  695MOL0     C91612   8.693   2.750   3.149  0.1182 -0.5608  1.1093
  695MOL0     C91613   8.746   2.876   3.122 -0.2080 -0.2174  0.3847
  695MOL0     C91614   8.875   2.904   3.157 -0.5986 -0.3777  0.0940
  695MOL0     C91615   8.966   2.813   3.209  0.2834  1.0688 -0.3347
  695MOL0     O91616   9.091   2.848   3.251 -1.1082  0.7427  0.0943
  695MOL0     C91617   9.201   2.811   3.154  0.2233  0.2327  0.4046
  695MOL0     C91618   9.241   2.927   3.055  0.4772  0.6857 -0.3507
  695MOL0     C91619   9.377   2.922   3.012  0.3081  0.3566  1.1847
  695MOL0     C91620   9.411   3.040   2.925  0.8122 -0.2430  0.1190
  695MOL0     C91621   9.558   3.065   2.888  0.1885  0.4629  0.2262
  695MOL0     C91622   9.576   3.209   2.844  0.3311  1.5121 -0.2313
  695MOL0     C91623   9.728   3.233   2.825  0.7182 -0.3419 -0.6970
  695MOL0     C91624   9.764   3.368   2.758 -0.1583  0.1790 -1.5071
  695MOL0     N91625   9.903   3.400   2.771  0.3045 -0.4724  0.6775
  695MOL0     C91626   9.987   3.432   2.665  0.5277  0.4367 -0.6764
  695MOL0     C91627  10.102   3.447   2.725 -0.2225 -0.4205 -0.5657
  695MOL0     C91628  10.234   3.468   2.645 -0.6145  0.2984 -0.3853
  695MOL0     C91629  10.315   3.336   2.632  0.2923 -0.7387  0.1456
  695MOL0     C91630  10.401   3.295   2.756  0.1911 -0.5146  0.9068
  695MOL0     C91631  10.474   3.162   2.720  0.6357 -0.7537 -0.6161
  695MOL0     O91632  10.571   3.146   2.819 -0.6124 -0.0182 -0.0721
  695MOL0     C91633  10.664   3.050   2.790 -0.2339  0.5772 -0.1974
  695MOL0     C91634  10.726   3.041   2.659  1.2680  0.1789  0.1454
  695MOL0     C91635  10.805   2.933   2.642  0.3214  1.3026 -0.7842
  695MOL0     C91636  10.822   2.837   2.744 -0.4885 -0.3436  0.1310
  695MOL0     C91637  10.906   2.710   2.718  0.1909  0.6467 -0.1460
  695MOL0     O91638  10.978   2.715   2.602 -0.8935  0.0232 -0.1968
  695MOL0     C91639  11.059   2.610   2.566  0.2495  0.9238 -0.2396
  695MOL0     C91640  11.189   2.642   2.555 -0.0013  0.6541 -0.1016
  695MOL0     C91641  11.284   2.548   2.529  0.8014  0.4190  0.3689
  695MOL0     C91642  11.242   2.414   2.499  0.1084  0.2733  0.0241
  695MOL0     O91643  11.329   2.317   2.470 -0.6036 -0.3762  0.0487
  695MOL0     C91644  11.358   2.247   2.589 -0.1697  0.0894 -0.0934
  695MOL0     C91645  11.469   2.142   2.570 -0.2444  0.3065 -0.0635
  695MOL0     C91646  11.555   2.134   2.692  0.1380  0.6764 -0.5129
  695MOL0     C91647  11.683   2.056   2.670 -0.6584 -0.4542 -0.4940
  695MOL0     C91648  11.752   2.040   2.808  1.0037 -0.6305 -0.1253
  695MOL0     C91649  11.882   1.956   2.815  0.0748 -0.8373  0.8972
  695MOL0     C91650  12.004   2.024   2.755  0.0540  0.8351 -0.2439
  695MOL0     C91651  12.128   1.939   2.754 -0.1327  0.1080  0.0926
  695MOL0    Cl91652  12.215   1.971   2.908 -0.6819  0.2846  0.0623
  695MOL0     C91653  11.101   2.386   2.489 -1.0700  0.3378  0.5175
  695MOL0     C91654  11.010   2.484   2.539 -0.6613 -0.0881  0.3011
  695MOL0     O91655  10.912   2.621   2.802 -0.9663  1.2312 -0.9525
  695MOL0     C91656  10.762   2.851   2.866 -1.1784 -0.0437 -0.5629
  695MOL0     C91657  10.686   2.964   2.897 -0.6928  0.7272 -0.2039
  695MOL0     N91658  10.091   3.433   2.860  0.5419  0.1044  0.2987
  695MOL0     N91659   9.967   3.410   2.884 -0.0176 -0.6183 -1.0736
  695MOL0     C91660   8.916   2.677   3.231  0.4881 -0.1340  0.2869
  695MOL0     C91661   8.785   2.651   3.194  0.0910 -0.1516 -0.6917
  695MOL0     C91662   8.361   2.624   3.041 -0.8681 -0.1992 -0.1655
  695MOL0     C91663   8.282   2.745   3.041  0.7578 -0.1483 -0.3050
  695MOL0     C91664   8.151   2.739   2.992 -0.8848  0.6399  0.8064
  695MOL0     C91665   8.094   2.619   2.936  0.1068 -0.1078 -0.5207
  695MOL0     O91666   7.962   2.621   2.880 -0.6185  0.4292 -0.5113
  695MOL0     C91667   7.882   2.735   2.878 -0.4466  0.8830 -0.6126
  695MOL0     C91668   7.738   2.692   2.826 -1.4181 -0.8127 -0.8826
  695MOL0     C91669   7.674   2.606   2.926 -0.0982  0.4272 -0.2122
  695MOL0     C91670   7.529   2.644   2.955 -1.8463  0.7015 -0.0489
  695MOL0     C91671   7.443   2.638   2.839 -1.1120  0.3162 -1.0913
  695MOL0     C91672   7.379   2.639   2.737  0.1152  0.6235 -0.0790
  695MOL0     C91673   8.163   2.497   2.953  0.3511 -0.4618 -0.2387
  695MOL0     C91674   8.290   2.503   3.005 -0.0036 -0.7621 -0.2692
  695MOL0     H91675   8.681   2.951   3.078  0.3609 -1.3438 -2.5584
  695MOL0     H91676   8.901   3.007   3.136 -1.1411  0.5669  3.3783
  695MOL0     H91677   9.169   2.717   3.108  0.4016 -0.3205  1.3809
  695MOL0     H91678   9.289   2.792   3.216  0.2396 -1.5177 -0.1117
  695MOL0     H91679   9.231   3.019   3.114  1.5574 -0.1364  1.1954
  695MOL0     H91680   9.157   2.912   2.987 -1.1179 -0.4686  1.7594
  695MOL0     H91681   9.397   2.833   2.952  0.5662  1.8036 -0.9897
  695MOL0     H91682   9.440   2.918   3.101  0.8337  1.3471  0.8734
  695MOL0     H91683   9.353   3.037   2.832 -1.3798 -0.3778  1.4121
  695MOL0     H91684   9.384   3.129   2.983  2.0639  3.0959 -3.8979
  695MOL0     H91685   9.587   2.983   2.822 -0.7286  1.3458 -1.3355
  695MOL0     H91686   9.624   3.038   2.971 -0.3269 -2.5363 -0.1985
  695MOL0     H91687   9.536   3.282   2.915 -1.0283  0.3295  0.2727
  695MOL0     H91688   9.529   3.223   2.746 -0.1053 -0.2872 -0.3170
  695MOL0     H91689   9.778   3.233   2.922  0.2196 -1.6325 -0.4187
  695MOL0     H91690   9.767   3.145   2.774 -2.1307 -1.4066 -1.2002
  695MOL0     H91691   9.705   3.451   2.798  0.1956  0.6117 -1.8709
  695MOL0     H91692   9.726   3.367   2.655  0.7360 -2.7062 -1.8787
  695MOL0     H91693   9.970   3.429   2.558  0.4612 -2.6049 -0.6631
  695MOL0     H91694  10.294   3.539   2.703  3.3889 -3.0789  0.1288
  695MOL0     H91695  10.211   3.513   2.548 -0.0934 -1.0782 -1.1863
  695MOL0     H91696  10.386   3.350   2.551  0.6378  0.0729  0.5833
  695MOL0     H91697  10.251   3.252   2.604 -1.5942  0.7107 -0.1246
  695MOL0     H91698  10.483   3.366   2.774  0.2066 -0.1952 -0.3119
  695MOL0     H91699  10.340   3.269   2.842  2.3506 -2.9681  1.8215
  695MOL0     H91700  10.521   3.176   2.622 -0.2140 -0.9554 -1.0651
  695MOL0     H91701  10.408   3.076   2.706  1.7419 -1.5703 -0.9489
  695MOL0     H91702  10.714   3.119   2.585  4.9510  2.9039  2.0949
  695MOL0     H91703  10.847   2.900   2.548 -0.9009 -1.3105 -0.4925
  695MOL0     H91704  11.224   2.745   2.560  1.8993  0.0198  0.3942
  695MOL0     H91705  11.391   2.562   2.538  0.8301  1.7941 -1.4374
  695MOL0     H91706  11.269   2.201   2.632 -0.0265 -0.2315 -0.1386
  695MOL0     H91707  11.400   2.323   2.655 -0.0557 -0.4459  0.4632
  695MOL0     H91708  11.530   2.173   2.485 -2.5471  2.7454 -0.9697
  695MOL0     H91709  11.416   2.047   2.558  1.6182 -1.1733  2.4334
  695MOL0     H91710  11.503   2.092   2.779  1.2413  0.0853 -0.1181
  695MOL0     H91711  11.580   2.232   2.733  0.4348 -0.0488  1.1362
  695MOL0     H91712  11.668   1.960   2.619  0.7526 -1.5105  0.9540
  695MOL0     H91713  11.742   2.115   2.600 -3.3680  0.7940 -1.8739
  695MOL0     H91714  11.677   1.992   2.871  0.6942 -0.1523 -0.1246
  695MOL0     H91715  11.788   2.139   2.838  1.7164 -0.1672 -2.3587
  695MOL0     H91716  11.860   1.865   2.757 -0.3328 -0.1583 -0.0420
  695MOL0     H91717  11.916   1.935   2.917 -2.1300  2.7130  2.5439
  695MOL0     H91718  11.989   2.033   2.647  2.4308 -0.5906 -0.7807
  695MOL0     H91719  12.027   2.120   2.801  1.8445 -1.2548  3.7535
  695MOL0     H91720  12.185   1.971   2.666  0.3515 -0.6526  0.1187
  695MOL0     H91721  12.103   1.833   2.745 -1.6695  0.3010  1.5603
  695MOL0     H91722  11.060   2.286   2.475 -1.9582  0.1984  3.4405
  695MOL0     H91723  10.908   2.454   2.560 -0.6991  0.2311  0.5733
  695MOL0     H91724  10.774   2.773   2.941  0.6931 -1.7905 -2.5524
  695MOL0     H91725  10.639   2.975   2.994  3.1219 -0.0469  1.9441
  695MOL0     H91726   8.982   2.597   3.264  1.6676 -0.0352 -1.6767
  695MOL0     H91727   8.754   2.548   3.208 -1.4586  0.2555 -0.9592
  695MOL0     H91728   8.331   2.837   3.071 -3.3305  1.6624  1.6372
  695MOL0     H91729   8.099   2.834   2.995 -0.0626  1.2148 -1.3876
  695MOL0     H91730   7.919   2.824   2.825 -0.1127  1.3680  0.4009
  695MOL0     H91731   7.887   2.767   2.982  2.6313  0.1574 -0.4414
  695MOL0     H91732   7.690   2.789   2.812  0.1551 -0.1404 -2.0107
  695MOL0     H91733   7.750   2.650   2.725 -1.7296  0.1307 -1.3261
  695MOL0     H91734   7.731   2.611   3.020 -0.5315  2.6528 -0.0122
  695MOL0     H91735   7.667   2.503   2.889 -1.5468  0.7055 -0.7533
  695MOL0     H91736   7.477   2.577   3.024 -3.1905 -0.8211 -2.4223
  695MOL0     H91737   7.532   2.746   2.996 -1.2608 -0.1536  2.2043
  695MOL0     H91738   7.307   2.638   2.657  1.9457  1.5901 -1.8298
  695MOL0     H91739   8.118   2.401   2.933  0.8211 -0.9996  1.1713
  695MOL0     H91740   8.341   2.407   3.008 -2.0940 -1.9309 -0.4166
  696MOL0     O91741   7.231   2.668   2.004 -0.7967 -0.1413 -1.1011
  696MOL0     C91742   7.300   2.652   1.904  0.1405 -0.6195  0.7575
  696MOL0     O91743   7.248   2.631   1.784  0.0010  1.1312 -0.1559
  696MOL0     C91744   7.113   2.628   1.763 -0.4691 -0.4300  0.6733
  696MOL0     C91745   7.020   2.538   1.823 -0.3166 -0.9949  0.5883
  696MOL0     C91746   6.884   2.532   1.778 -0.1409 -0.0417  0.5169
  696MOL0     C91747   6.835   2.613   1.672 -0.3813  0.6836  0.4482
  696MOL0     O91748   6.707   2.619   1.624 -0.3977 -0.5197  0.0780
  696MOL0     C91749   6.625   2.509   1.667  0.4668  0.8956  1.0089
  696MOL0     C91750   6.504   2.503   1.562  0.7686  0.1750  0.9844
  696MOL0     C91751   6.418   2.636   1.536  0.2920 -0.1482 -1.1751
  696MOL0     C91752   6.357   2.658   1.394  0.4941  0.6356  0.2666
  696MOL0     C91753   6.288   2.794   1.373 -0.1612  0.3354 -0.4939
  696MOL0     C91754   6.188   2.843   1.497  0.3583  0.3078 -0.9627
  696MOL0     C91755   6.107   2.977   1.485 -0.2669  0.9500  0.3610
  696MOL0     C91756   6.190   3.099   1.522 -0.8176 -0.1892  0.1226
  696MOL0     N91757   6.094   3.209   1.565 -0.7752  0.2500  0.5284
  696MOL0     C91758   6.054   3.310   1.478 -0.3858  0.5455 -0.2264
  696MOL0     C91759   5.945   3.359   1.549 -0.4217 -0.2093 -0.2006
  696MOL0     C91760   5.857   3.467   1.492 -0.6121 -0.0557  0.0374
  696MOL0     C91761   5.896   3.607   1.551  0.9437 -0.6739  0.0472
  696MOL0     C91762   5.821   3.725   1.482 -0.5186 -1.2999  1.0008
  696MOL0     C91763   5.829   3.850   1.565 -1.3057  0.2156 -0.0237
  696MOL0     O91764   5.777   3.847   1.695  0.8820  0.1354  0.0695
  696MOL0     C91765   5.791   3.951   1.777  0.2319  0.2167  1.0651
  696MOL0     C91766   5.851   4.076   1.759  0.2672 -0.5771  0.4927
  696MOL0     C91767   5.846   4.166   1.871 -0.1424 -0.1122  0.7657
  696MOL0     C91768   5.795   4.126   1.996  0.3183  0.1124 -0.1302
  696MOL0     C91769   5.812   4.209   2.123  0.2322 -0.2313  0.5139
  696MOL0     O91770   5.752   4.179   2.240 -0.0480  0.0392  0.5028
  696MOL0     C91771   5.782   4.260   2.355  0.9026  0.5772 -0.5739
  696MOL0     C91772   5.824   4.199   2.470  0.6602  0.4670 -0.4319
  696MOL0     C91773   5.861   4.277   2.590  0.4876  1.5677  0.1459
  696MOL0     C91774   5.857   4.414   2.582 -0.5880 -0.2811 -0.4261
  696MOL0     O91775   5.901   4.494   2.700 -0.0009  0.0031  0.2982
  696MOL0     C91776   5.954   4.430   2.816  0.3474  0.2463 -0.0034
  696MOL0     C91777   6.014   4.538   2.912 -0.4710 -0.8667 -0.4266
  696MOL0     C91778   6.088   4.650   2.837  0.0282 -0.9185 -0.0708
  696MOL0     C91779   6.171   4.738   2.940  0.9336 -0.1633  0.8234
  696MOL0     C91780   6.188   4.868   2.869 -0.9353 -0.3575  0.8280
  696MOL0     C91781   6.260   4.977   2.941 -0.3808  1.0455 -0.0321
  696MOL0     C91782   6.265   5.105   2.858 -0.3434  0.2781 -0.3498
  696MOL0     C91783   6.308   5.226   2.936 -0.2968 -0.6975 -0.0061
  696MOL0    Cl91784   6.360   5.362   2.838 -0.0921 -0.1739  0.0960
  696MOL0     C91785   5.810   4.474   2.469  1.6239 -0.1864  0.7897
  696MOL0     C91786   5.779   4.403   2.355  0.6386  0.3130 -0.1515
  696MOL0     O91787   5.887   4.302   2.104 -0.0073  0.3922  0.6467
  696MOL0     C91788   5.731   4.007   2.011 -0.5658  0.0553  0.8834
  696MOL0     C91789   5.720   3.923   1.892 -0.5960  0.6186 -1.5624
  696MOL0     N91790   5.933   3.305   1.673  0.3048  0.6672 -0.2282
  696MOL0     N91791   6.027   3.208   1.681  0.6130 -0.0526  0.2349
  696MOL0     C91792   6.937   2.684   1.606 -0.4820  0.1853 -0.0888
  696MOL0     C91793   7.067   2.694   1.651 -0.0790 -1.2678  0.8339
  696MOL0     C91794   7.444   2.658   1.903 -0.1244  0.3788  0.3320
  696MOL0     C91795   7.507   2.661   2.029  0.7228  1.0575 -0.4268
  696MOL0     C91796   7.644   2.673   2.042 -0.8982  1.3537 -0.1098
  696MOL0     C91797   7.721   2.667   1.925  0.2546 -0.6522  0.9017
  696MOL0     O91798   7.860   2.658   1.920 -0.0143 -0.5576  0.2659
  696MOL0     C91799   7.933   2.648   2.041  0.2673 -0.4959 -2.1324
  696MOL0     C91800   8.081   2.646   2.012 -0.4963  0.4023 -0.4718
  696MOL0     C91801   8.120   2.511   1.931 -0.4066 -0.1390  0.0265
  696MOL0     C91802   8.153   2.389   2.018 -0.3491 -1.2299  0.2545
  696MOL0     C91803   8.193   2.269   1.935 -0.4167 -1.5127 -0.8420
  696MOL0     C91804   8.214   2.169   1.879 -1.0136  0.3872  0.6141
  696MOL0     C91805   7.659   2.666   1.798 -0.5566  0.1189  0.4206
  696MOL0     C91806   7.519   2.658   1.785 -0.3490 -0.3935 -1.3183
  696MOL0     H91807   7.058   2.483   1.908 -1.5011 -0.9275  1.1717
  696MOL0     H91808   6.824   2.467   1.841 -0.3685 -0.8408 -0.4804
  696MOL0     H91809   6.585   2.540   1.764 -3.8901  4.5629 -1.5775
  696MOL0     H91810   6.677   2.413   1.664  2.1328  1.7759 -1.6562
  696MOL0     H91811   6.443   2.416   1.587 -4.6853  3.2267 -0.0613
  696MOL0     H91812   6.543   2.472   1.464 -1.2784  0.3561  0.0739
  696MOL0     H91813   6.487   2.721   1.538  1.3269 -0.9621 -1.4527
  696MOL0     H91814   6.345   2.646   1.616  0.7089 -2.1529 -0.4930
  696MOL0     H91815   6.426   2.629   1.314 -1.2230 -1.6206 -0.5155
  696MOL0     H91816   6.271   2.592   1.382 -0.1471  1.9305 -3.9615
  696MOL0     H91817   6.242   2.784   1.274  1.0986 -1.9074 -0.9276
  696MOL0     H91818   6.363   2.872   1.356 -1.5678  1.4835 -1.6995
  696MOL0     H91819   6.246   2.850   1.589 -1.4954 -2.9103  0.6395
  696MOL0     H91820   6.119   2.759   1.506 -0.1723  0.2929 -3.9894
  696MOL0     H91821   6.072   2.984   1.381 -2.4274 -5.1848  0.2634
  696MOL0     H91822   6.021   2.982   1.552  0.2561  0.2609  1.0993
  696MOL0     H91823   6.254   3.120   1.436 -1.5182  0.9562 -0.1278
  696MOL0     H91824   6.257   3.073   1.604 -0.0076  0.2829 -0.3831
  696MOL0     H91825   6.087   3.346   1.382 -1.7213  1.6496 -0.3051
  696MOL0     H91826   5.752   3.441   1.509 -0.2088 -1.0776  1.0972
  696MOL0     H91827   5.880   3.486   1.386 -0.7819 -2.1886 -0.4235
  696MOL0     H91828   6.004   3.620   1.553  1.1747 -2.4445  0.4715
  696MOL0     H91829   5.853   3.602   1.651  2.3056  2.2383  0.8717
  696MOL0     H91830   5.870   3.753   1.388 -0.2394 -0.3507  1.4162
  696MOL0     H91831   5.714   3.707   1.470 -1.2088  1.5332  2.1111
  696MOL0     H91832   5.781   3.935   1.514 -0.6085 -0.5439 -2.0320
  696MOL0     H91833   5.937   3.865   1.569 -1.4431  1.0606  0.9222
  696MOL0     H91834   5.890   4.106   1.662 -1.4450 -4.6006 -1.6847
  696MOL0     H91835   5.880   4.264   1.838 -0.0377 -0.8813 -1.5421
  696MOL0     H91836   5.828   4.091   2.476 -1.3458  0.4607  2.6716
  696MOL0     H91837   5.891   4.230   2.683 -0.5956  0.8059  0.1350
  696MOL0     H91838   6.035   4.360   2.794 -0.0143 -0.5816  1.1951
  696MOL0     H91839   5.877   4.369   2.864  1.8793 -1.0325  0.9037
  696MOL0     H91840   6.081   4.511   2.994 -0.0362  5.5569  1.8813
  696MOL0     H91841   5.936   4.597   2.960  0.2158 -0.0516 -0.2851
  696MOL0     H91842   6.010   4.718   2.801  0.1523 -0.6940  0.0832
  696MOL0     H91843   6.141   4.609   2.751 -0.7542  2.0025 -2.0590
  696MOL0     H91844   6.131   4.758   3.040  0.5913  2.0690  0.2827
  696MOL0     H91845   6.267   4.685   2.951  1.3841 -0.3846 -2.8556
  696MOL0     H91846   6.089   4.905   2.844 -0.7172 -0.8130 -0.7798
  696MOL0     H91847   6.247   4.845   2.780  0.2629 -0.5656  1.6441
  696MOL0     H91848   6.357   4.936   2.970 -2.0939 -4.5733 -1.0906
  696MOL0     H91849   6.203   4.998   3.033 -0.1680 -1.0673  0.6275
  696MOL0     H91850   6.333   5.087   2.774  0.3376  0.4416  0.1543
  696MOL0     H91851   6.165   5.129   2.822 -0.0507  3.4861  0.6659
  696MOL0     H91852   6.393   5.211   3.002 -0.4230  4.8804  1.9031
  696MOL0     H91853   6.227   5.258   3.003  1.2899  3.1026  0.3396
  696MOL0     H91854   5.799   4.581   2.456 -0.7324 -0.1439  2.4680
  696MOL0     H91855   5.750   4.443   2.258 -1.4389 -3.3802 -1.2308
  696MOL0     H91856   5.700   3.970   2.108 -1.6477 -0.2356  0.4444
  696MOL0     H91857   5.664   3.830   1.901  0.6051 -0.3287 -3.2299
  696MOL0     H91858   6.905   2.758   1.534 -1.5249  0.6924  0.8561
  696MOL0     H91859   7.131   2.771   1.609 -1.6503  0.5648  1.6368
  696MOL0     H91860   7.442   2.653   2.116 -0.9863  2.4759 -1.5173
  696MOL0     H91861   7.690   2.680   2.140 -0.1833  1.8903 -0.4732
  696MOL0     H91862   7.904   2.556   2.091  0.9589  1.1551  1.5951
  696MOL0     H91863   7.905   2.731   2.105  2.1415 -1.2247 -0.2524
  696MOL0     H91864   8.115   2.737   1.963  1.6371  0.4952  1.0049
  696MOL0     H91865   8.144   2.657   2.101  1.1652 -0.2294 -1.5055
  696MOL0     H91866   8.214   2.530   1.880 -1.3162 -0.7871 -1.9873
  696MOL0     H91867   8.055   2.481   1.849  0.0374  1.1689 -0.8438
  696MOL0     H91868   8.224   2.416   2.096 -1.4305  1.4293  0.4137
  696MOL0     H91869   8.062   2.345   2.062 -0.3592 -2.2719 -0.7463
  696MOL0     H91870   8.229   2.081   1.819  0.0280  1.9999 -1.6350
  696MOL0     H91871   7.716   2.646   1.708 -3.0743  0.1918 -1.2792
  696MOL0     H91872   7.458   2.653   1.695 -0.8281 -1.9776 -0.9306
  697MOL0     O91873   7.315  10.267   3.404 -0.6214  1.0858  0.1990
  697MOL0     C91874   7.403  10.230   3.477 -0.4561  1.4034  0.4181
  697MOL0     O91875   7.494  10.306   3.545  0.0602  0.5701 -0.5279
  697MOL0     C91876   7.494  10.446   3.545 -0.1721 -0.4930 -0.1501
  697MOL0     C91877   7.553  10.502   3.658  0.1760 -0.4982 -0.1404
  697MOL0     C91878   7.568  10.639   3.674 -0.2550 -0.0511 -0.6780
  697MOL0     C91879   7.519  10.725   3.571 -0.2491 -0.1377  0.1593
  697MOL0     O91880   7.519  10.870   3.582 -0.7793  0.6726 -0.1119
  697MOL0     C91881   7.617  10.918   3.681 -0.2673 -0.3077  0.0613
  697MOL0     C91882   7.627  11.068   3.686 -0.1358  0.3393 -0.1425
  697MOL0     C91883   7.492  11.141   3.737 -0.4804  0.2500 -0.1382
  697MOL0     C91884   7.518  11.293   3.757 -0.3122 -0.0392 -0.2873
  697MOL0     C91885   7.427  11.358   3.871 -0.5381 -0.1457 -0.0310
  697MOL0     C91886   7.443  11.511   3.867  0.6881  0.7778 -0.1163
  697MOL0     C91887   7.336  11.583   3.941  0.3186  0.1685 -0.1762
  697MOL0     C91888   7.308  11.552   4.093  0.8083 -0.0810 -0.6808
  697MOL0     N91889   7.186  11.615   4.136 -0.2503  0.3297  0.4128
  697MOL0     C91890   7.134  11.735   4.102  0.0939 -0.6181  0.6063
  697MOL0     C91891   7.030  11.753   4.184 -0.3848  1.1979 -0.4729
  697MOL0     C91892   6.952  11.875   4.166  0.7504 -0.0954 -0.1511
  697MOL0     C91893   6.846  11.859   4.050 -1.0815 -1.4571 -0.0757
  697MOL0     C91894   6.805  12.003   3.997 -0.2023 -0.4560 -0.3230
  697MOL0     C91895   6.906  12.053   3.900 -0.7906  0.6230 -0.1595
  697MOL0     O91896   6.853  12.160   3.825 -0.1817 -0.5609  1.6047
  697MOL0     C91897   6.805  12.282   3.884 -0.6068 -0.4376  0.5191
  697MOL0     C91898   6.817  12.320   4.019 -0.6561 -0.3811  0.5609
  697MOL0     C91899   6.776  12.446   4.065 -0.7163  0.8106  0.9102
  697MOL0     C91900   6.716  12.535   3.970  0.5965  0.9249  0.5800
  697MOL0     C91901   6.661  12.656   4.016  0.5426 -0.7804 -0.3651
  697MOL0     O91902   6.566  12.708   3.942 -0.2940  0.3943  0.1029
  697MOL0     C91903   6.505  12.818   3.992 -0.2699  0.3171  0.3050
  697MOL0     C91904   6.389  12.811   4.071  0.5479  0.5380  1.1790
  697MOL0     C91905   6.312  12.923   4.112 -0.5780  0.9678 -0.6232
  697MOL0     C91906   6.362  13.052   4.073  1.0528 -0.0144 -0.0632
  697MOL0     O91907   6.296  13.167   4.095 -0.0911  0.0532  0.3167
  697MOL0     C91908   6.167  13.163   4.150 -0.3011 -0.1327 -0.1427
  697MOL0     C91909   6.106  13.302   4.121  0.1645 -0.2370 -0.2177
  697MOL0     C91910   6.052  13.367   4.253  0.4200 -0.1180  1.5303
  697MOL0     C91911   6.019  13.519   4.234  0.2283 -0.0556  0.9714
  697MOL0     C91912   5.986  13.573   4.375 -0.3944  0.2697  0.1888
  697MOL0     C91913   5.887  13.687   4.362  0.0510  0.1587 -0.4435
  697MOL0     C91914   5.831  13.741   4.499 -0.3480 -0.0067 -1.1899
  697MOL0     C91915   5.758  13.878   4.487  0.4485  0.0911 -0.1100
  697MOL0    Cl91916   5.620  13.861   4.371 -0.1581 -0.3312  0.4975
  697MOL0     C91917   6.480  13.064   3.997 -0.1686  0.0917  0.7194
  697MOL0     C91918   6.549  12.946   3.957 -0.3216 -0.2027  0.2364
  697MOL0     O91919   6.707  12.707   4.117 -0.6600 -0.0319  0.2517
  697MOL0     C91920   6.714  12.496   3.833  0.3307 -0.2580 -0.5070
  697MOL0     C91921   6.761  12.378   3.793  0.0460 -0.1546 -0.6541
  697MOL0     N91922   7.012  11.651   4.270  0.6417  0.8082 -0.3033
  697MOL0     N91923   7.111  11.567   4.240  0.2565 -0.3732  0.0893
  697MOL0     C91924   7.463  10.669   3.456 -0.8429  0.3440  0.7474
  697MOL0     C91925   7.441  10.534   3.446 -0.2309 -1.1685 -0.7067
  697MOL0     C91926   7.393  10.085   3.509  0.0064 -0.1153 -0.1918
  697MOL0     C91927   7.471  10.026   3.607  0.0598  0.2849 -0.8147
  697MOL0     C91928   7.451   9.894   3.652 -0.3151 -0.8157 -0.8602
  697MOL0     C91929   7.358   9.809   3.576 -0.3601 -0.5843  0.9374
  697MOL0     O91930   7.344   9.685   3.616  0.6554  0.6993 -0.0546
  697MOL0     C91931   7.313   9.583   3.518  0.3781 -0.8464  0.4014
  697MOL0     C91932   7.359   9.451   3.590  0.1450 -0.1471  0.0799
  697MOL0     C91933   7.267   9.420   3.707  0.1194  1.8859  0.1147
  697MOL0     C91934   7.284   9.264   3.746  0.7188 -0.0471  0.5447
  697MOL0     C91935   7.223   9.227   3.873  0.0922 -0.7215 -0.9313
  697MOL0     C91936   7.193   9.167   3.978  0.0257  0.3581  0.3213
  697MOL0     C91937   7.296   9.870   3.461 -0.0543  0.2791 -0.0268
  697MOL0     C91938   7.310  10.008   3.441 -0.6216 -0.2597 -0.4525
  697MOL0     H91939   7.595  10.435   3.733 -0.0647 -0.2804  0.1924
  697MOL0     H91940   7.627  10.673   3.758 -0.3310 -3.6684  1.0377
  697MOL0     H91941   7.715  10.874   3.661 -0.5504 -2.7530  3.1730
  697MOL0     H91942   7.585  10.888   3.782 -0.0574 -3.1031 -0.6114
  697MOL0     H91943   7.652  11.100   3.585  0.8607  0.3618  0.1006
  697MOL0     H91944   7.711  11.092   3.751 -0.4806  0.5684  0.2239
  697MOL0     H91945   7.455  11.087   3.825  0.3205 -0.3895 -0.1890
  697MOL0     H91946   7.411  11.131   3.664  1.0378  1.5073 -2.0823
  697MOL0     H91947   7.620  11.304   3.796 -0.2613  0.2630 -0.5027
  697MOL0     H91948   7.514  11.339   3.658 -0.0732  3.6943  1.2679
  697MOL0     H91949   7.454  11.311   3.966 -0.5499 -0.2030 -0.0557
  697MOL0     H91950   7.321  11.345   3.847 -0.4416 -0.7177 -0.1658
  697MOL0     H91951   7.438  11.535   3.761 -1.9582  1.3665  0.0734
  697MOL0     H91952   7.543  11.544   3.895  3.0174 -1.5772 -4.6528
  697MOL0     H91953   7.355  11.691   3.934 -3.1928  0.7780 -3.4135
  697MOL0     H91954   7.240  11.577   3.889  0.2849 -0.7609 -0.0266
  697MOL0     H91955   7.385  11.591   4.161 -3.1288  3.9889  1.9876
  697MOL0     H91956   7.301  11.445   4.116 -3.5260 -0.0370 -0.9272
  697MOL0     H91957   7.155  11.811   4.027 -0.1195 -1.3000 -0.1548
  697MOL0     H91958   7.023  11.958   4.157  1.7093 -0.3645  3.3635
  697MOL0     H91959   6.889  11.906   4.249  0.6932  1.4689 -0.7530
  697MOL0     H91960   6.753  11.814   4.086 -0.9885 -2.0671 -0.5827
  697MOL0     H91961   6.873  11.795   3.966 -0.1341 -1.3982  0.1736
  697MOL0     H91962   6.707  11.986   3.952 -1.0647  0.9949  0.9349
  697MOL0     H91963   6.789  12.078   4.074 -0.5426 -0.6946 -0.1602
  697MOL0     H91964   6.934  11.966   3.840 -2.5095 -1.2554  1.6165
  697MOL0     H91965   7.000  12.078   3.951  1.0839 -2.3068 -1.8434
  697MOL0     H91966   6.865  12.251   4.086  0.1532 -0.3367  0.0402
  697MOL0     H91967   6.787  12.477   4.168  2.4980 -2.2052  1.6580
  697MOL0     H91968   6.341  12.716   4.091  0.4610 -0.2967 -2.2901
  697MOL0     H91969   6.225  12.918   4.177  0.7265  2.2138  1.3088
  697MOL0     H91970   6.160  13.137   4.256  0.3211  0.3378  0.0202
  697MOL0     H91971   6.095  13.095   4.104 -0.2245 -1.1304  1.1422
  697MOL0     H91972   6.030  13.296   4.042 -1.3547 -3.2411  1.3003
  697MOL0     H91973   6.185  13.364   4.078 -1.1015  1.8990  0.4053
  697MOL0     H91974   6.124  13.363   4.335 -0.7344  3.2941  2.8795
  697MOL0     H91975   5.973  13.305   4.296  0.5034 -0.0793  1.7406
  697MOL0     H91976   6.107  13.562   4.185 -2.0518  1.9101 -1.6465
  697MOL0     H91977   5.935  13.536   4.167 -0.5681 -0.0448  1.9435
  697MOL0     H91978   6.085  13.607   4.406  1.1787  1.3533 -5.0759
  697MOL0     H91979   5.940  13.496   4.437 -2.9792  2.8420  1.7383
  697MOL0     H91980   5.798  13.656   4.306 -3.2256  3.3637  2.4350
  697MOL0     H91981   5.932  13.763   4.298  1.3649  0.8899  1.2723
  697MOL0     H91982   5.771  13.672   4.560  0.6033 -0.2989 -0.5676
  697MOL0     H91983   5.917  13.766   4.562 -0.5188 -1.1068 -0.4912
  697MOL0     H91984   5.832  13.955   4.462  4.9798 -4.2191 -1.6833
  697MOL0     H91985   5.721  13.908   4.585 -0.4437 -0.7851 -0.1635
  697MOL0     H91986   6.519  13.155   3.952  0.8481 -0.4074  0.5519
  697MOL0     H91987   6.641  12.966   3.902 -0.4377 -1.2563 -0.3794
  697MOL0     H91988   6.673  12.558   3.754  0.7397 -0.7153 -1.0895
  697MOL0     H91989   6.750  12.348   3.689  3.0580 -0.4930 -0.9756
  697MOL0     H91990   7.417  10.723   3.374  0.3953 -0.4557 -0.5179
  697MOL0     H91991   7.391  10.498   3.357 -3.0282  1.9942 -0.6088
  697MOL0     H91992   7.551  10.066   3.669 -0.1266 -1.2895  0.5193
  697MOL0     H91993   7.512   9.853   3.732 -4.0433 -4.8016  0.3437
  697MOL0     H91994   7.376   9.591   3.429 -0.7588  0.5072 -0.3220
  697MOL0     H91995   7.206   9.577   3.495  0.1326  0.8376  0.9987
  697MOL0     H91996   7.340   9.374   3.515  1.0678  1.8740 -2.3746
  697MOL0     H91997   7.461   9.464   3.626  0.1719  0.5357 -0.2272
  697MOL0     H91998   7.162   9.418   3.677 -0.2666 -0.6799  1.3778
  697MOL0     H91999   7.277   9.481   3.798  0.6149  1.0036  0.6613
  697MOL0     H92000   7.245   9.194   3.672 -4.8092  0.0055  2.9377
  697MOL0     H92001   7.390   9.242   3.764  0.5821 -0.5326  0.7495
  697MOL0     H92002   7.168   9.105   4.061  2.2391 -4.6750 -2.3604
  697MOL0     H92003   7.223   9.813   3.404  0.4241 -1.6243  1.1855
  697MOL0     H92004   7.242  10.043   3.363  1.8099  2.8739 -1.3949
  698MOL0     O92005   5.316   3.463   0.883 -0.5910 -0.1673  0.5721
  698MOL0     C92006   5.250   3.492   0.981 -0.3672  0.5774  0.2079
  698MOL0     O92007   5.179   3.405   1.063  0.1740 -0.6647 -0.8333
  698MOL0     C92008   5.165   3.267   1.039  1.0346 -0.3846 -0.3038
  698MOL0     C92009   5.147   3.218   0.910 -0.1611  0.6846  0.4212
  698MOL0     C92010   5.098   3.089   0.896  0.2941  0.1708 -0.4106
  698MOL0     C92011   5.068   3.006   1.007  0.2283 -0.2700 -0.5757
  698MOL0     O92012   5.032   2.879   0.979  0.3102  0.4762 -0.1716
  698MOL0     C92013   4.983   2.775   1.061  0.6902  0.0168  0.3119
  698MOL0     C92014   4.990   2.636   0.991  0.5008 -0.5322  0.8592
  698MOL0     C92015   4.889   2.546   1.054 -0.0557  0.9012 -0.1187
  698MOL0     C92016   4.896   2.399   1.002 -0.0886 -0.2933  0.9102
  698MOL0     C92017   4.824   2.320   1.105  0.1695 -0.2846 -1.6501
  698MOL0     C92018   4.800   2.187   1.041  1.2940  0.5100  0.2021
  698MOL0     C92019   4.782   2.073   1.142 -0.6325  0.1897  0.2680
  698MOL0     C92020   4.714   1.950   1.081  0.2449  0.5655 -0.6031
  698MOL0     N92021   4.667   1.846   1.181  0.5685  0.5081  0.1856
  698MOL0     C92022   4.736   1.770   1.273 -0.7109 -0.9175 -0.4563
  698MOL0     C92023   4.652   1.708   1.349  0.8285  1.0232 -0.1410
  698MOL0     C92024   4.682   1.591   1.439 -0.2771  0.5667 -0.0899
  698MOL0     C92025   4.738   1.474   1.362 -0.1357  0.1663 -0.9994
  698MOL0     C92026   4.643   1.372   1.280  0.7127  1.1189 -1.1914
  698MOL0     C92027   4.532   1.305   1.365  0.2670  0.3644 -0.1296
  698MOL0     O92028   4.441   1.242   1.273 -0.3051 -0.6627 -0.3995
  698MOL0     C92029   4.360   1.146   1.316  0.4547  0.7843 -0.0115
  698MOL0     C92030   4.353   1.108   1.448 -0.3096 -0.1181  0.3217
  698MOL0     C92031   4.279   0.997   1.487  0.9750 -0.7426 -0.4349
  698MOL0     C92032   4.186   0.937   1.397 -0.1027 -0.1826  0.1400
  698MOL0     C92033   4.083   0.837   1.438  0.3560 -1.5572  0.3942
  698MOL0     O92034   4.027   0.766   1.330  0.0574 -0.3270 -0.0184
  698MOL0     C92035   3.960   0.649   1.358  0.3291 -0.3906  0.0295
  698MOL0     C92036   3.856   0.619   1.282  0.1299 -0.4578 -0.5235
  698MOL0     C92037   3.772   0.506   1.303  0.6892 -0.9209 -0.2050
  698MOL0     C92038   3.803   0.421   1.405  0.5317  0.1858  0.2551
  698MOL0     O92039   3.699   0.327   1.423  0.3303  0.1544 -0.4273
  698MOL0     C92040   3.640   0.306   1.555 -0.0752 -0.4433  0.1133
  698MOL0     C92041   3.513   0.220   1.556  0.4967  0.3153  0.3026
  698MOL0     C92042   3.454   0.191   1.698  0.3707  1.2453  0.1951
  698MOL0     C92043   3.523   0.088   1.785  0.4165  0.3598  0.1514
  698MOL0     C92044   3.463   0.096   1.924 -0.3158  0.7545 -0.0660
  698MOL0     C92045   3.310   0.050   1.936  0.6714 -0.1749  0.9579
  698MOL0     C92046   3.284  -0.002   2.070  0.1139  0.4008 -0.9607
  698MOL0     C92047   3.142  -0.069   2.092  0.4153  0.6937 -1.1221
  698MOL0    Cl92048   3.121  -0.172   2.246  0.1029 -0.4226 -0.0195
  698MOL0     C92049   3.920   0.435   1.476  0.0688 -0.7214  0.2147
  698MOL0     C92050   3.997   0.550   1.452  0.3956  1.2539  0.7440
  698MOL0     O92051   4.067   0.817   1.558 -0.0646 -0.3650  0.5101
  698MOL0     C92052   4.185   0.988   1.266  0.0973  0.6823  0.4582
  698MOL0     C92053   4.279   1.082   1.232 -0.0113 -0.2771 -0.5376
  698MOL0     N92054   4.524   1.737   1.301 -0.8666 -0.0783 -0.7882
  698MOL0     N92055   4.533   1.822   1.198 -0.0933  0.7649  0.1085
  698MOL0     C92056   5.084   3.059   1.138 -0.2097  1.1831 -0.5243
  698MOL0     C92057   5.127   3.183   1.148  0.4648 -0.2876 -0.2450
  698MOL0     C92058   5.235   3.644   1.011 -0.2927 -0.5518  1.2241
  698MOL0     C92059   5.322   3.735   0.939 -0.3590  0.6447 -1.2299
  698MOL0     C92060   5.307   3.877   0.964 -0.4581  0.7859 -0.6057
  698MOL0     C92061   5.215   3.931   1.060 -0.7635 -0.0323  0.1971
  698MOL0     O92062   5.212   4.051   1.112 -0.9468  0.3069  0.3876
  698MOL0     C92063   5.117   4.149   1.076 -0.0561  0.8924 -0.4553
  698MOL0     C92064   5.172   4.249   0.965  0.1461  0.0694 -0.4296
  698MOL0     C92065   5.272   4.334   1.034 -0.6090 -0.2986  0.4254
  698MOL0     C92066   5.333   4.437   0.946  0.0986  0.3833  0.2526
  698MOL0     C92067   5.428   4.533   1.001  0.3849  0.2573 -1.4141
  698MOL0     C92068   5.473   4.626   1.071 -0.5583 -0.3725  0.3500
  698MOL0     C92069   5.139   3.841   1.128  0.0477  0.9581 -0.6321
  698MOL0     C92070   5.146   3.696   1.107 -0.6490 -0.4415 -0.2639
  698MOL0     H92071   5.150   3.279   0.821 -6.6626  1.4700  0.2678
  698MOL0     H92072   5.087   3.049   0.795  0.6622  1.4623 -0.9862
  698MOL0     H92073   4.881   2.791   1.098  2.2706  2.4848  4.2094
  698MOL0     H92074   5.057   2.772   1.141  1.1543 -1.1018 -0.1400
  698MOL0     H92075   5.088   2.586   0.984  0.4741 -0.3754 -1.8067
  698MOL0     H92076   4.967   2.642   0.884 -0.7788 -2.0865  1.0072
  698MOL0     H92077   4.795   2.597   1.031  0.2235  2.5258  1.9973
  698MOL0     H92078   4.893   2.543   1.163  2.0894  1.3319 -0.1288
  698MOL0     H92079   4.852   2.397   0.902  2.5487  1.4917 -0.4047
  698MOL0     H92080   4.996   2.365   0.974 -0.2124  0.4317 -0.4596
  698MOL0     H92081   4.730   2.365   1.140 -0.9181 -1.3554 -3.0933
  698MOL0     H92082   4.882   2.299   1.195 -0.3366 -0.7232 -1.4217
  698MOL0     H92083   4.874   2.164   0.964  0.6632 -0.7299 -0.0607
  698MOL0     H92084   4.703   2.201   0.992  0.4191 -0.4609  1.5437
  698MOL0     H92085   4.886   2.040   1.158 -0.0453  1.3447 -0.9936
  698MOL0     H92086   4.733   2.108   1.234 -1.8369  1.8552 -0.9578
  698MOL0     H92087   4.791   1.900   1.021 -0.6849 -0.8829 -0.6294
  698MOL0     H92088   4.635   1.973   1.010 -0.5176 -1.7105 -0.5657
  698MOL0     H92089   4.844   1.763   1.280 -0.6173  0.2651 -0.4192
  698MOL0     H92090   4.585   1.552   1.473  0.1029  0.1253  0.5050
  698MOL0     H92091   4.737   1.621   1.529 -0.9378  1.6931 -0.0315
  698MOL0     H92092   4.796   1.422   1.438 -0.4521  1.2797  0.0515
  698MOL0     H92093   4.806   1.513   1.286  0.1528 -1.8606 -1.8230
  698MOL0     H92094   4.592   1.422   1.198 -0.4307  0.0572 -1.1588
  698MOL0     H92095   4.699   1.289   1.235 -0.7502 -3.5310  4.3769
  698MOL0     H92096   4.479   1.370   1.435 -2.5122 -0.3641 -1.4304
  698MOL0     H92097   4.579   1.222   1.419 -0.2812  0.1221 -0.0243
  698MOL0     H92098   4.413   1.152   1.527  2.3202  0.7382 -2.0238
  698MOL0     H92099   4.271   0.962   1.589 -2.8149  3.0256  0.8485
  698MOL0     H92100   3.828   0.696   1.211 -0.7896 -2.0708 -1.9936
  698MOL0     H92101   3.680   0.486   1.249  0.6185  0.8914 -0.8283
  698MOL0     H92102   3.620   0.397   1.612 -3.0368 -0.8188 -0.1648
  698MOL0     H92103   3.712   0.248   1.614 -0.2815 -0.5277  0.2802
  698MOL0     H92104   3.521   0.122   1.508  0.1131 -0.5534  1.9223
  698MOL0     H92105   3.436   0.269   1.496  1.0979  0.1239 -0.6438
  698MOL0     H92106   3.348   0.164   1.689  1.0012 -1.4806  0.1573
  698MOL0     H92107   3.460   0.285   1.753  0.7158  1.2827  0.0915
  698MOL0     H92108   3.519  -0.010   1.738  2.4253  0.9304 -1.3216
  698MOL0     H92109   3.630   0.107   1.778  0.9864 -2.4298  0.4266
  698MOL0     H92110   3.478   0.197   1.963  2.1156  0.5248 -0.2661
  698MOL0     H92111   3.527   0.022   1.974  0.5694  1.1916 -0.5209
  698MOL0     H92112   3.286  -0.032   1.869  1.0682  0.0276  0.5579
  698MOL0     H92113   3.246   0.135   1.910  0.1802 -1.1902 -1.3823
  698MOL0     H92114   3.350  -0.085   2.098 -2.4584 -1.7216 -0.6858
  698MOL0     H92115   3.303   0.072   2.148 -4.8543 -0.3564  1.4556
  698MOL0     H92116   3.121  -0.134   2.007 -0.9501  0.9774 -1.0173
  698MOL0     H92117   3.060  -0.000   2.113 -1.7246 -2.7460  3.3055
  698MOL0     H92118   3.945   0.370   1.559 -2.6795  0.2524  1.9168
  698MOL0     H92119   4.076   0.567   1.524 -0.6179  0.7598  1.9984
  698MOL0     H92120   4.128   0.947   1.184  0.5176  1.9948 -0.5271
  698MOL0     H92121   4.274   1.106   1.126 -1.2418 -1.2072 -0.7065
  698MOL0     H92122   5.086   2.986   1.219  1.7619  2.1661  0.3769
  698MOL0     H92123   5.142   3.225   1.246 -2.6886  0.7865 -0.0903
  698MOL0     H92124   5.394   3.688   0.873  0.8262  2.6359 -1.4577
  698MOL0     H92125   5.345   3.953   0.897 -1.8859  0.4169 -1.8966
  698MOL0     H92126   5.100   4.205   1.168  2.4098 -2.5246  2.3927
  698MOL0     H92127   5.027   4.093   1.051 -1.0324  0.9698  2.5099
  698MOL0     H92128   5.211   4.191   0.882 -3.3990 -0.9829 -1.5096
  698MOL0     H92129   5.095   4.310   0.917  1.4733 -0.6900 -3.8081
  698MOL0     H92130   5.356   4.270   1.065 -0.8560 -1.1934 -0.6978
  698MOL0     H92131   5.234   4.378   1.126 -0.4974 -0.2312  0.4397
  698MOL0     H92132   5.389   4.394   0.863 -2.8411  2.9541 -3.3957
  698MOL0     H92133   5.246   4.487   0.901  0.5853  2.0625  1.1117
  698MOL0     H92134   5.522   4.704   1.126 -0.8518  0.6291 -0.7660
  698MOL0     H92135   5.087   3.880   1.215 -0.8486  0.1144 -0.7806
  698MOL0     H92136   5.108   3.631   1.185  1.3558 -0.5109  0.7242
  699MOL0     O92137   5.285   6.362   9.543 -0.3492 -1.1944 -0.1418
  699MOL0     C92138   5.202   6.283   9.588 -0.3574 -0.4921 -0.1927
  699MOL0     O92139   5.195   6.236   9.715 -0.7753  0.1170  0.3225
  699MOL0     C92140   5.302   6.248   9.800  0.1566 -0.4990 -0.0591
  699MOL0     C92141   5.285   6.204   9.934 -0.7974 -0.3380  0.6508
  699MOL0     C92142   5.386   6.198  10.025  0.2720  0.3306 -0.4283
  699MOL0     C92143   5.514   6.230   9.991 -0.4115 -0.1388  0.2685
  699MOL0     O92144   5.624   6.219  10.072  0.6177 -0.5688 -0.6222
  699MOL0     C92145   5.611   6.200  10.213 -0.0876 -0.2038 -1.0937
  699MOL0     C92146   5.744   6.212  10.302  0.4110 -0.2547  1.5318
  699MOL0     C92147   5.751   6.122  10.425 -0.2176 -0.6671  0.7939
  699MOL0     C92148   5.777   5.972  10.393 -0.1658  0.1268  0.7248
  699MOL0     C92149   5.823   5.897  10.523  0.9840 -0.6081  0.6292
  699MOL0     C92150   5.827   5.753  10.512 -0.1728  0.5877  0.1993
  699MOL0     C92151   5.929   5.702  10.398  0.7982 -0.5963 -0.1207
  699MOL0     C92152   6.014   5.584  10.437 -0.7337 -0.8383  0.3497
  699MOL0     N92153   5.937   5.455  10.447 -0.8164  0.1111  0.0339
  699MOL0     C92154   6.002   5.336  10.473  0.3500 -0.8962  0.0651
  699MOL0     C92155   5.909   5.233  10.462  0.2816 -0.0658 -0.8550
  699MOL0     C92156   5.944   5.092  10.493 -0.7083 -0.2270  0.0660
  699MOL0     C92157   5.851   5.041  10.607 -0.6340 -0.2841 -0.2280
  699MOL0     C92158   5.847   4.892  10.620 -0.3773 -0.0675 -0.2888
  699MOL0     C92159   5.974   4.803  10.638  0.9037  0.5753  0.7832
  699MOL0     O92160   6.000   4.818  10.782  0.4806 -0.5688  0.3233
  699MOL0     C92161   6.124   4.763  10.814 -0.3398 -0.6331 -0.4111
  699MOL0     C92162   6.157   4.631  10.782  1.0284 -0.5160 -0.1611
  699MOL0     C92163   6.273   4.578  10.835  0.3362 -0.4103  0.3648
  699MOL0     C92164   6.361   4.655  10.910  0.2146 -0.7912  0.2441
  699MOL0     C92165   6.495   4.591  10.942 -0.0581 -0.6426 -0.3666
  699MOL0     O92166   6.508   4.457  10.924 -0.0734  0.2543  0.3225
  699MOL0     C92167   6.629   4.403  10.928  0.5330  0.5761 -0.5966
  699MOL0     C92168   6.741   4.457  10.991 -0.2751 -0.0049  0.1408
  699MOL0     C92169   6.859   4.387  10.974  0.1448 -0.3021  0.4761
  699MOL0     C92170   6.871   4.266  10.905  0.2519  1.3883 -0.7363
  699MOL0     O92171   6.995   4.202  10.899 -0.2872 -0.3538  1.1845
  699MOL0     C92172   6.986   4.062  10.877 -0.0306 -0.2375  0.1269
  699MOL0     C92173   7.126   4.009  10.926 -0.4372 -0.2799 -0.0305
  699MOL0     C92174   7.147   4.050  11.070 -0.0525 -0.0935  0.2796
  699MOL0     C92175   7.261   3.967  11.136 -0.6674  0.2379 -1.0135
  699MOL0     C92176   7.286   3.977  11.294  0.1363  0.1233  0.4575
  699MOL0     C92177   7.432   3.952  11.320 -0.3358  0.4396 -0.4723
  699MOL0     C92178   7.471   3.931  11.464  0.2633 -0.2312  0.3286
  699MOL0     C92179   7.409   4.014  11.572 -0.1662 -0.1908  1.0860
  699MOL0    Cl92180   7.492   3.967  11.726 -0.2528  0.2391 -0.2381
  699MOL0     C92181   6.754   4.212  10.841  0.5843  0.0314 -0.6497
  699MOL0     C92182   6.634   4.282  10.862  0.7386  0.8839  0.8375
  699MOL0     O92183   6.577   4.666  10.988 -0.7447 -0.4851 -0.0057
  699MOL0     C92184   6.332   4.792  10.927  0.9392  0.0988  0.5975
  699MOL0     C92185   6.211   4.852  10.888  0.4190 -1.0132 -0.4255
  699MOL0     N92186   5.788   5.295  10.446 -0.2552 -0.6376 -0.0005
  699MOL0     N92187   5.808   5.426  10.449  0.3178  0.7134 -0.2191
  699MOL0     C92188   5.543   6.282   9.873  0.1162  0.2518  0.5372
  699MOL0     C92189   5.442   6.281   9.770  0.7767  0.3208  0.5732
  699MOL0     C92190   5.102   6.232   9.495 -0.5182 -0.3338 -0.8008
  699MOL0     C92191   5.023   6.117   9.529  0.2075  0.4377  0.3084
  699MOL0     C92192   4.935   6.069   9.426 -0.4504  0.3716 -0.6155
  699MOL0     C92193   4.913   6.128   9.302  1.2061  0.7704  0.2391
  699MOL0     O92194   4.831   6.071   9.201  0.2035 -0.1997 -0.4716
  699MOL0     C92195   4.785   6.156   9.098  0.5864 -0.1166  0.5647
  699MOL0     C92196   4.665   6.099   9.031 -0.9177 -0.7243 -0.0972
  699MOL0     C92197   4.544   6.086   9.135  0.3209  0.0031  0.7162
  699MOL0     C92198   4.442   5.990   9.069  0.8746 -0.3083 -0.7169
  699MOL0     C92199   4.310   5.967   9.141 -0.8117 -0.8551  0.5940
  699MOL0     C92200   4.196   5.949   9.186 -0.8741  0.3112  0.1924
  699MOL0     C92201   4.992   6.239   9.279 -0.3285 -0.7178  1.2514
  699MOL0     C92202   5.085   6.293   9.370 -0.2264 -0.1902 -0.0123
  699MOL0     H92203   5.182   6.184   9.964  0.0340 -2.2497  2.5259
  699MOL0     H92204   5.361   6.153  10.121  1.0903 -1.8312 -1.1580
  699MOL0     H92205   5.586   6.096  10.236  2.9865 -0.5590  1.4743
  699MOL0     H92206   5.538   6.272  10.251  2.7586  2.3224  0.0192
  699MOL0     H92207   5.776   6.315  10.320  4.0846 -1.3845  2.2186
  699MOL0     H92208   5.826   6.180  10.237 -0.5492  2.0542 -1.0354
  699MOL0     H92209   5.666   6.141  10.491 -1.2895 -1.3500 -0.3642
  699MOL0     H92210   5.830   6.161  10.491 -0.9087  2.7945 -0.2283
  699MOL0     H92211   5.685   5.931  10.349  1.7650 -0.0969 -3.5422
  699MOL0     H92212   5.853   5.970  10.315 -0.5837  2.1755  0.2224
  699MOL0     H92213   5.750   5.914  10.604  0.8785  1.0462  0.2181
  699MOL0     H92214   5.915   5.938  10.566 -1.0813  0.4347  4.5339
  699MOL0     H92215   5.729   5.706  10.508  0.5299 -0.8071 -1.8542
  699MOL0     H92216   5.866   5.720  10.609 -0.7133 -0.7669 -0.0342
  699MOL0     H92217   5.890   5.678  10.299  3.5282 -1.2596 -1.1065
  699MOL0     H92218   5.998   5.787  10.395  1.7476 -1.3783 -0.6907
  699MOL0     H92219   6.044   5.588  10.542 -1.7833 -1.0631  0.6770
  699MOL0     H92220   6.102   5.596  10.373 -1.9379  2.5457 -0.8836
  699MOL0     H92221   6.108   5.314  10.466  0.5338 -0.3796  1.0537
  699MOL0     H92222   6.050   5.082  10.519  0.1462 -0.2489 -3.0538
  699MOL0     H92223   5.921   5.038  10.400 -0.5627  0.7780 -0.5638
  699MOL0     H92224   5.748   5.068  10.582 -0.9893 -1.3808  0.0223
  699MOL0     H92225   5.876   5.091  10.701 -1.3558  0.0239 -0.1961
  699MOL0     H92226   5.768   4.874  10.694  0.4657 -0.8690  0.4415
  699MOL0     H92227   5.807   4.854  10.525  0.2027 -1.0812 -0.1489
  699MOL0     H92228   6.064   4.830  10.581  1.7593 -1.2914  1.1649
  699MOL0     H92229   5.944   4.700  10.618 -1.9933  1.5882 -0.7030
  699MOL0     H92230   6.084   4.575  10.724 -1.3934  1.2320  0.9804
  699MOL0     H92231   6.305   4.485  10.789  3.0422  0.4370  0.3598
  699MOL0     H92232   6.761   4.547  11.047 -0.0593 -0.6727  1.1550
  699MOL0     H92233   6.950   4.413  11.027  1.3619 -0.6654 -1.3344
  699MOL0     H92234   6.960   4.044  10.772 -0.9247 -4.4352  0.9031
  699MOL0     H92235   6.904   4.011  10.929 -2.6616 -0.1199 -3.4990
  699MOL0     H92236   7.207   4.053  10.868 -1.4301  0.5302 -0.8637
  699MOL0     H92237   7.131   3.902  10.905 -2.2737 -0.2787 -0.6959
  699MOL0     H92238   7.056   4.036  11.128 -0.1434  2.1749  0.7741
  699MOL0     H92239   7.166   4.157  11.083 -0.9656 -0.0322  1.1860
  699MOL0     H92240   7.224   3.869  11.104 -4.1878  1.7646 -2.2402
  699MOL0     H92241   7.349   3.985  11.073  2.4056 -1.3712  2.4849
  699MOL0     H92242   7.224   3.913  11.356  3.6879 -3.0548  1.1156
  699MOL0     H92243   7.263   4.079  11.326  3.0027  0.7491  0.8483
  699MOL0     H92244   7.469   4.048  11.284 -1.9949  1.1110 -0.4603
  699MOL0     H92245   7.471   3.878  11.249  2.9226  0.9901  0.5937
  699MOL0     H92246   7.447   3.825  11.479  0.1838 -0.7274 -2.6819
  699MOL0     H92247   7.580   3.928  11.480  0.3566 -2.0178 -0.4260
  699MOL0     H92248   7.303   4.003  11.597 -0.2817  1.0962  1.2078
  699MOL0     H92249   7.438   4.117  11.550  3.6985 -1.1924  0.8434
  699MOL0     H92250   6.761   4.118  10.787 -1.8034  0.6331 -2.1419
  699MOL0     H92251   6.550   4.252  10.800 -1.2962  2.0391  2.8786
  699MOL0     H92252   6.408   4.845  10.983  0.7629 -0.4821  1.3900
  699MOL0     H92253   6.180   4.951  10.920 -0.4768 -0.9755 -1.3655
  699MOL0     H92254   5.646   6.311   9.855  1.0631 -1.2486  3.1050
  699MOL0     H92255   5.476   6.311   9.671 -1.0280  1.9313  0.3796
  699MOL0     H92256   5.043   6.058   9.618 -0.1750  1.1146  0.8479
  699MOL0     H92257   4.872   5.983   9.444  0.8477 -0.4419  0.1871
  699MOL0     H92258   4.862   6.168   9.022  1.8629  3.0790  2.1713
  699MOL0     H92259   4.759   6.260   9.124  2.0689  1.1635 -2.6073
  699MOL0     H92260   4.632   6.166   8.951 -0.6164 -0.2543  0.1648
  699MOL0     H92261   4.678   5.997   8.995  0.6289 -0.3378 -0.6905
  699MOL0     H92262   4.508   6.186   9.158  1.2131  0.3682  0.5695
  699MOL0     H92263   4.579   6.040   9.228  2.9797 -1.4969 -0.9006
  699MOL0     H92264   4.416   6.017   8.966 -2.4040  2.9259  0.7514
  699MOL0     H92265   4.498   5.898   9.048  0.5058 -1.0264  1.2183
  699MOL0     H92266   4.106   5.928   9.240 -1.2334  1.6043  0.1438
  699MOL0     H92267   4.972   6.297   9.190  0.7906  0.8874  1.9945
  699MOL0     H92268   5.152   6.375   9.343 -2.3638  0.9964 -2.1705
  700MOL0     O92269   1.935   7.550   1.280  0.2580  0.0458  0.6721
  700MOL0     C92270   1.919   7.503   1.386 -0.0541  0.1524  0.7126
  700MOL0     O92271   1.911   7.366   1.412  0.5471 -0.5277 -0.2589
  700MOL0     C92272   1.914   7.263   1.323  0.0086  0.0739 -0.7842
  700MOL0     C92273   1.957   7.142   1.371  0.2294  0.0054 -0.5571
  700MOL0     C92274   1.983   7.031   1.303 -0.3088 -0.1980 -0.2271
  700MOL0     C92275   1.966   7.030   1.168 -0.7858 -0.4556  0.5352
  700MOL0     O92276   2.002   6.910   1.112 -0.0671  0.9116  0.5730
  700MOL0     C92277   1.998   6.911   0.967  0.2185 -0.3552 -0.2603
  700MOL0     C92278   2.032   6.771   0.918 -0.7374  0.8227 -0.0475
  700MOL0     C92279   2.025   6.763   0.764  0.2473 -0.7923  0.1172
  700MOL0     C92280   2.097   6.863   0.679  0.0774 -0.5417  0.4215
  700MOL0     C92281   2.023   6.991   0.636  0.0361 -0.9260  0.0221
  700MOL0     C92282   2.112   7.115   0.606  0.5790 -0.0122  0.3574
  700MOL0     C92283   2.242   7.083   0.526  1.2307  0.2316  0.0975
  700MOL0     C92284   2.224   7.072   0.373  0.0755  0.0443 -0.5406
  700MOL0     N92285   2.189   7.199   0.313  0.1613  0.3121 -0.0000
  700MOL0     C92286   2.277   7.308   0.316 -0.1941 -0.2439  0.0727
  700MOL0     C92287   2.209   7.415   0.261 -0.3289 -1.1821 -0.4378
  700MOL0     C92288   2.271   7.549   0.224 -0.5214 -0.2025  1.7835
  700MOL0     C92289   2.299   7.634   0.345 -0.2453 -0.8241  0.6902
  700MOL0     C92290   2.174   7.645   0.424 -0.6085 -0.1645 -0.5499
  700MOL0     C92291   2.183   7.777   0.498  0.1112  0.2586  0.3499
  700MOL0     O92292   2.299   7.781   0.576 -1.1237 -0.2527  0.4034
  700MOL0     C92293   2.298   7.874   0.674  0.9105 -0.5479 -0.6188
  700MOL0     C92294   2.292   7.825   0.806 -0.2997 -0.1702  0.5961
  700MOL0     C92295   2.295   7.915   0.911 -0.1976  0.5871  0.4475
  700MOL0     C92296   2.300   8.052   0.894 -1.1910  0.3112 -0.2243
  700MOL0     C92297   2.305   8.138   1.016 -1.1866  0.5617 -0.8683
  700MOL0     O92298   2.295   8.265   0.990  0.8704 -0.6468 -0.1925
  700MOL0     C92299   2.328   8.357   1.096  0.7613  0.1132  0.3049
  700MOL0     C92300   2.459   8.347   1.151  0.2794 -0.2685  0.0552
  700MOL0     C92301   2.494   8.438   1.252 -0.0373  0.6554  0.1978
  700MOL0     C92302   2.403   8.526   1.308 -0.6333  1.0347 -0.5364
  700MOL0     O92303   2.440   8.611   1.417  0.1671  0.8591 -0.0489
  700MOL0     C92304   2.350   8.708   1.472  0.1624  0.0304  0.4455
  700MOL0     C92305   2.414   8.845   1.510 -0.0680 -0.9371 -0.1161
  700MOL0     C92306   2.319   8.939   1.583  0.3150  0.1336 -0.0824
  700MOL0     C92307   2.382   9.079   1.591  0.3738  0.1727 -0.0990
  700MOL0     C92308   2.272   9.183   1.610  0.1081  0.6697 -0.4899
  700MOL0     C92309   2.333   9.324   1.594 -0.0223 -0.5648 -0.7762
  700MOL0     C92310   2.222   9.424   1.621  0.6706  0.4434 -0.3809
  700MOL0     C92311   2.175   9.509   1.501 -0.4387 -0.4649  0.3686
  700MOL0    Cl92312   1.991   9.528   1.483 -0.0103  0.4602  0.2281
  700MOL0     C92313   2.271   8.516   1.258 -0.4067 -1.1977  0.6972
  700MOL0     C92314   2.241   8.451   1.135  0.2585 -0.9336  0.3518
  700MOL0     O92315   2.321   8.082   1.131 -0.0657  0.5148 -0.4920
  700MOL0     C92316   2.308   8.100   0.763 -0.1778 -0.2424 -0.6319
  700MOL0     C92317   2.307   8.011   0.651  0.1305 -0.5507  1.3051
  700MOL0     N92318   2.080   7.372   0.229  0.3523 -0.1583  0.7399
  700MOL0     N92319   2.066   7.244   0.266 -0.9940 -0.0946  0.3464
  700MOL0     C92320   1.917   7.145   1.106  1.2637 -0.2684  0.3992
  700MOL0     C92321   1.872   7.258   1.188  0.1952 -0.6365  0.7700
  700MOL0     C92322   1.910   7.593   1.498  0.6288  1.0483  0.2800
  700MOL0     C92323   1.866   7.541   1.625 -0.9254 -0.3555 -1.2716
  700MOL0     C92324   1.860   7.615   1.739 -0.0816 -0.3968 -0.5131
  700MOL0     C92325   1.891   7.758   1.732  0.4019 -0.1393 -0.4129
  700MOL0     O92326   1.892   7.853   1.839 -0.2511  0.1038 -0.0761
  700MOL0     C92327   1.893   7.791   1.972 -1.0965  0.3606  0.3232
  700MOL0     C92328   1.850   7.895   2.064 -0.0794  0.3381 -0.6073
  700MOL0     C92329   1.744   7.843   2.168 -1.0646  0.2934  0.0780
  700MOL0     C92330   1.708   7.958   2.262 -1.0168  0.0354  0.2741
  700MOL0     C92331   1.664   8.075   2.184 -0.3173  0.2688  0.1899
  700MOL0     C92332   1.630   8.155   2.102  0.1828  0.0746  0.7000
  700MOL0     C92333   1.918   7.808   1.609 -0.7254  1.0416  0.3325
  700MOL0     C92334   1.937   7.728   1.495  0.2878  0.0981 -0.5609
  700MOL0     H92335   1.982   7.140   1.476 -0.3298  2.2173 -0.3353
  700MOL0     H92336   2.035   6.942   1.335 -2.5996 -2.1359 -1.5390
  700MOL0     H92337   2.053   6.993   0.921 -0.4295  0.3200  0.1380
  700MOL0     H92338   1.895   6.924   0.934 -0.4547 -0.6606  1.5743
  700MOL0     H92339   1.970   6.692   0.961  2.9619 -0.6068  3.2082
  700MOL0     H92340   2.136   6.748   0.942  0.1684 -2.2212 -5.2726
  700MOL0     H92341   1.924   6.759   0.721  0.3864 -2.8472 -0.1447
  700MOL0     H92342   2.061   6.664   0.734 -0.9199 -0.6421 -1.9859
  700MOL0     H92343   2.186   6.891   0.737  0.5687 -1.5689  0.2069
  700MOL0     H92344   2.130   6.820   0.584  1.4132  2.1723 -0.4366
  700MOL0     H92345   1.955   7.014   0.719 -1.8617  2.3112 -2.1724
  700MOL0     H92346   1.971   6.962   0.544  2.4418 -0.3434 -1.5970
  700MOL0     H92347   2.149   7.168   0.694  3.8395 -0.7078 -0.4581
  700MOL0     H92348   2.054   7.185   0.544  2.8541  0.1411 -1.7235
  700MOL0     H92349   2.332   7.138   0.556  2.7036 -0.4414 -2.7038
  700MOL0     H92350   2.275   6.987   0.568  0.4483  0.9345  2.4925
  700MOL0     H92351   2.153   6.998   0.334  1.0885 -0.1893 -2.0452
  700MOL0     H92352   2.318   7.027   0.341  0.1543 -1.7183  1.9144
  700MOL0     H92353   2.379   7.287   0.346 -0.1299 -1.3761 -0.8539
  700MOL0     H92354   2.204   7.600   0.154  1.8575 -0.0551 -0.5531
  700MOL0     H92355   2.365   7.537   0.170 -0.9107  2.9507  0.1605
  700MOL0     H92356   2.324   7.730   0.300  1.5016 -1.4404  0.2721
  700MOL0     H92357   2.381   7.601   0.409  1.2822  1.6500  0.1509
  700MOL0     H92358   2.084   7.638   0.362 -0.3424  1.7122 -1.2094
  700MOL0     H92359   2.167   7.560   0.493 -1.4668  0.1499 -0.2322
  700MOL0     H92360   2.090   7.798   0.552  0.3372  1.3219  0.3523
  700MOL0     H92361   2.198   7.857   0.425  1.1587  1.6606  2.0347
  700MOL0     H92362   2.267   7.722   0.827  0.6538  0.0638  3.3096
  700MOL0     H92363   2.296   7.882   1.014  2.8766 -2.3848 -0.3428
  700MOL0     H92364   2.527   8.270   1.114  1.8138  1.6241 -1.2941
  700MOL0     H92365   2.596   8.436   1.289  0.2823 -0.4903 -0.6891
  700MOL0     H92366   2.301   8.663   1.558  3.3596 -1.5181  1.5916
  700MOL0     H92367   2.281   8.739   1.392 -1.8125 -1.3429  1.5435
  700MOL0     H92368   2.447   8.910   1.429 -0.2995  1.0171  1.2811
  700MOL0     H92369   2.502   8.832   1.574  0.7457 -1.0180 -1.2276
  700MOL0     H92370   2.289   8.893   1.677 -1.0591 -0.4629 -0.7799
  700MOL0     H92371   2.221   8.948   1.535 -0.8389  3.2447  2.5160
  700MOL0     H92372   2.445   9.087   1.681 -0.3501 -0.7225  0.5063
  700MOL0     H92373   2.446   9.109   1.507 -1.7275  1.5738 -1.2969
  700MOL0     H92374   2.249   9.165   1.716  3.5830  1.4625  0.5137
  700MOL0     H92375   2.188   9.157   1.545  1.1646 -3.7464 -0.3699
  700MOL0     H92376   2.367   9.342   1.491  0.2401  2.1030 -0.2909
  700MOL0     H92377   2.409   9.332   1.672 -0.9329 -2.3453  0.3379
  700MOL0     H92378   2.128   9.373   1.643  1.1690 -0.9333 -1.3094
  700MOL0     H92379   2.237   9.488   1.709 -0.2534  0.7528 -0.4327
  700MOL0     H92380   2.219   9.480   1.405  3.1661 -0.4368  1.8598
  700MOL0     H92381   2.217   9.608   1.521 -0.4470 -0.8709  2.7160
  700MOL0     H92382   2.188   8.562   1.310 -1.7462 -3.3274  0.5288
  700MOL0     H92383   2.135   8.442   1.114 -0.1447 -2.2050  2.6155
  700MOL0     H92384   2.311   8.204   0.733  1.1723 -0.3643 -1.0147
  700MOL0     H92385   2.308   8.058   0.553 -0.8777 -1.8656  0.6203
  700MOL0     H92386   1.908   7.156   0.999  0.0409  0.5953  0.5591
  700MOL0     H92387   1.845   7.351   1.138  3.5197  0.3502  0.5618
  700MOL0     H92388   1.847   7.435   1.640 -1.5346  0.0255  1.1782
  700MOL0     H92389   1.843   7.556   1.828 -2.9219 -0.1154 -0.7638
  700MOL0     H92390   1.995   7.764   1.998 -1.0425 -0.0869 -0.3214
  700MOL0     H92391   1.837   7.697   1.970 -0.7527  0.1580 -0.1936
  700MOL0     H92392   1.940   7.924   2.119  0.2396 -2.5481  0.5634
  700MOL0     H92393   1.814   7.982   2.009  0.4735 -0.2210 -1.8923
  700MOL0     H92394   1.774   7.755   2.226  0.3757 -1.3490 -2.9260
  700MOL0     H92395   1.658   7.809   2.110 -0.5160 -0.1552 -0.4808
  700MOL0     H92396   1.619   7.923   2.316 -1.7680 -0.1167 -1.0083
  700MOL0     H92397   1.798   7.976   2.321  0.6877 -4.6853 -0.5010
  700MOL0     H92398   1.620   8.229   2.025 -1.8713 -0.9157 -0.0399
  700MOL0     H92399   1.943   7.912   1.588  0.2103  1.7153  4.1159
  700MOL0     H92400   1.963   7.778   1.403 -2.3152 -3.2859 -3.4523
  701MOL0     O92401   2.857   8.394   0.127 -0.5587  0.6030  0.5723
  701MOL0     C92402   2.798   8.496   0.075  0.3272 -0.1371 -0.4248
  701MOL0     O92403   2.658   8.495   0.057 -0.0719 -0.7361  0.3732
  701MOL0     C92404   2.594   8.378   0.096 -0.2797 -1.4703 -0.0557
  701MOL0     C92405   2.554   8.281   0.004  0.3347  0.7356  0.2994
  701MOL0     C92406   2.492   8.161   0.047 -1.1311  0.2041  0.3341
  701MOL0     C92407   2.443   8.154   0.177  0.7197  0.0561  0.7058
  701MOL0     O92408   2.372   8.052   0.240  0.0845  0.7168  0.5566
  701MOL0     C92409   2.270   7.988   0.158 -0.6743  0.2970 -0.5714
  701MOL0     C92410   2.161   8.094   0.133  1.0527  0.7527  0.3100
  701MOL0     C92411   2.054   8.041   0.035  0.4263 -0.6576  0.3866
  701MOL0     C92412   2.032   7.896   0.038 -0.7769 -0.4932  0.5571
  701MOL0     C92413   1.891   7.850  -0.004 -0.0518 -0.8550 -0.5035
  701MOL0     C92414   1.781   7.884   0.086  0.6665  1.0631 -0.0959
  701MOL0     C92415   1.648   7.849   0.026 -0.4948  0.2064 -0.1546
  701MOL0     C92416   1.535   7.878   0.122  0.1420 -0.0970 -0.3825
  701MOL0     N92417   1.393   7.859   0.072  0.0224  0.3788 -0.4744
  701MOL0     C92418   1.325   7.739   0.073  0.7473  0.0407  0.6447
  701MOL0     C92419   1.198   7.764   0.029  0.0885 -0.3999  0.4047
  701MOL0     C92420   1.087   7.666   0.010 -0.6852  0.0385 -0.8659
  701MOL0     C92421   0.961   7.746  -0.029  0.7052  0.5104 -0.9793
  701MOL0     C92422   0.834   7.655   0.003  0.3809  1.1536  1.0424
  701MOL0     C92423   0.698   7.716  -0.037  0.4709 -0.3583  0.0208
  701MOL0     O92424   0.622   7.781   0.062  0.9555  0.8393  0.1578
  701MOL0     C92425   0.536   7.713   0.143 -0.6519  0.1889 -0.4640
  701MOL0     C92426   0.540   7.570   0.175 -0.2742  0.3293  0.7007
  701MOL0     C92427   0.436   7.512   0.247  0.2944  0.3204  0.0005
  701MOL0     C92428   0.336   7.589   0.308 -0.3830  0.2775  0.1233
  701MOL0     C92429   0.240   7.539   0.404  0.2932  0.2617 -0.1942
  701MOL0     O92430   0.206   7.401   0.398  0.2667 -0.1135 -0.8037
  701MOL0     C92431   0.138   7.351   0.512 -0.2012 -0.5864 -0.8214
  701MOL0     C92432   0.195   7.340   0.637  1.1783 -0.3868  0.8584
  701MOL0     C92433   0.143   7.243   0.719  0.1571 -1.0531  0.3450
  701MOL0     C92434   0.018   7.180   0.699  0.0003 -0.3964 -0.6405
  701MOL0     O92435  -0.038   7.087   0.787 -0.0606  0.6193  0.7121
  701MOL0     C92436  -0.106   7.117   0.902  0.5391 -0.8282 -0.4697
  701MOL0     C92437  -0.067   6.991   0.984  0.4747 -0.2784  0.2599
  701MOL0     C92438  -0.124   7.012   1.127  0.3975 -0.1600  0.9087
  701MOL0     C92439  -0.076   7.150   1.180 -0.3714 -0.2151  0.1459
  701MOL0     C92440  -0.087   7.146   1.334 -0.5531 -0.3498  0.2177
  701MOL0     C92441  -0.241   7.124   1.385  0.9798 -0.2519  0.2492
  701MOL0     C92442  -0.252   7.070   1.525  0.0126 -0.6900 -0.1704
  701MOL0     C92443  -0.232   6.926   1.546  0.9472  0.5955  0.5022
  701MOL0    Cl92444  -0.197   6.899   1.720 -0.4544  0.1537  0.5270
  701MOL0     C92445  -0.060   7.209   0.584  0.8236  0.1391 -0.1077
  701MOL0     C92446   0.015   7.289   0.490 -0.0562  0.0923  0.0378
  701MOL0     O92447   0.198   7.624   0.488 -0.3764  0.2668 -0.3574
  701MOL0     C92448   0.334   7.721   0.277 -0.0669 -0.7436 -0.0891
  701MOL0     C92449   0.431   7.781   0.196  0.0014 -0.3179 -0.4390
  701MOL0     N92450   1.191   7.908   0.005  0.5007  0.5326  0.5564
  701MOL0     N92451   1.301   7.962   0.039  0.1565 -0.4399  0.1935
  701MOL0     C92452   2.476   8.252   0.263 -0.1924 -1.6801  0.4583
  701MOL0     C92453   2.552   8.364   0.224  0.1720 -0.4699  0.8471
  701MOL0     C92454   2.869   8.628   0.063 -0.0584  0.3956  0.2654
  701MOL0     C92455   2.797   8.740   0.032 -0.3039 -0.1866 -0.5984
  701MOL0     C92456   2.859   8.866   0.018 -0.3600  0.2984 -0.1112
  701MOL0     C92457   2.997   8.885   0.043  0.1725  0.6238  0.9483
  701MOL0     O92458   3.050   9.016   0.039 -0.4694 -0.0983 -0.5264
  701MOL0     C92459   3.169   9.037   0.115  0.3120 -0.7418  0.1819
  701MOL0     C92460   3.190   9.190   0.114  0.0484 -0.2702  0.8946
  701MOL0     C92461   3.281   9.226   0.231 -0.1979 -0.0321  0.3773
  701MOL0     C92462   3.434   9.211   0.207 -1.1229  0.4993 -0.3085
  701MOL0     C92463   3.492   9.208   0.343  0.3674  0.0804  0.4843
  701MOL0     C92464   3.526   9.199   0.461 -0.1205  0.0870  0.7333
  701MOL0     C92465   3.071   8.770   0.055  1.0480  0.4133 -0.3906
  701MOL0     C92466   3.011   8.646   0.055  0.1413  0.3766  0.1983
  701MOL0     H92467   2.591   8.305  -0.096  1.5565  0.1455  0.5908
  701MOL0     H92468   2.474   8.076  -0.018  1.4615  2.4402 -3.7628
  701MOL0     H92469   2.231   7.908   0.223  0.5034  1.5010  1.7681
  701MOL0     H92470   2.316   7.937   0.073 -1.0045 -1.0848  0.0481
  701MOL0     H92471   2.199   8.193   0.105 -0.8457  1.1875 -0.8850
  701MOL0     H92472   2.104   8.118   0.223  1.0591 -0.5315  0.6745
  701MOL0     H92473   2.079   8.078  -0.065  2.4878  2.0659  1.7582
  701MOL0     H92474   1.965   8.099   0.064  0.4098 -1.2818  1.6558
  701MOL0     H92475   2.104   7.851  -0.030 -0.8278 -0.4801  0.4947
  701MOL0     H92476   2.045   7.852   0.137 -0.4117  2.3410  1.8554
  701MOL0     H92477   1.898   7.742  -0.015 -2.2066 -1.0776 -0.1443
  701MOL0     H92478   1.874   7.898  -0.100  1.0389 -0.3125 -0.4462
  701MOL0     H92479   1.779   7.990   0.114 -0.6067  1.3297 -1.0665
  701MOL0     H92480   1.786   7.821   0.175  0.6758  3.1049  1.4372
  701MOL0     H92481   1.623   7.907  -0.064  0.4968  0.6969 -0.1211
  701MOL0     H92482   1.658   7.743   0.001  0.7074 -0.1867  1.8253
  701MOL0     H92483   1.548   7.978   0.165  0.7440 -0.5723  0.5546
  701MOL0     H92484   1.545   7.807   0.204 -0.2545 -2.0652 -1.9508
  701MOL0     H92485   1.350   7.634   0.087 -1.5615 -0.5253  0.8919
  701MOL0     H92486   1.065   7.613   0.103 -6.4217 -2.3558 -3.0899
  701MOL0     H92487   1.125   7.594  -0.062 -0.4510  0.9543 -1.6752
  701MOL0     H92488   0.948   7.772  -0.134  3.5911 -2.0015 -2.0884
  701MOL0     H92489   0.951   7.834   0.035  2.2529  0.9897 -1.3569
  701MOL0     H92490   0.846   7.560  -0.050 -1.0966  0.2553  2.2280
  701MOL0     H92491   0.824   7.638   0.111 -1.1417 -2.5439  0.4626
  701MOL0     H92492   0.637   7.631  -0.069  0.3648 -1.0311  1.8577
  701MOL0     H92493   0.720   7.785  -0.118 -1.3309  1.7035  1.1833
  701MOL0     H92494   0.613   7.501   0.136 -1.7628 -0.5123 -0.6972
  701MOL0     H92495   0.443   7.406   0.269  1.8500  0.6396  1.1915
  701MOL0     H92496   0.294   7.382   0.655  1.7947 -1.4278  0.0528
  701MOL0     H92497   0.194   7.220   0.812 -1.9102 -4.2953  0.8420
  701MOL0     H92498  -0.212   7.133   0.880  0.4932 -0.0462  0.2940
  701MOL0     H92499  -0.066   7.210   0.944 -1.5361 -0.1727  0.1658
  701MOL0     H92500   0.040   6.968   0.981  0.5698  0.0037 -3.5089
  701MOL0     H92501  -0.118   6.905   0.939 -2.8030  0.3982  2.3135
  701MOL0     H92502  -0.094   6.940   1.203 -0.7634 -1.5452  0.1107
  701MOL0     H92503  -0.231   6.993   1.114  1.0241 -2.2423 -2.0876
  701MOL0     H92504   0.028   7.169   1.151  0.3193 -2.1459  1.1775
  701MOL0     H92505  -0.136   7.232   1.140  0.1342  0.0653 -0.0487
  701MOL0     H92506  -0.033   7.236   1.363  2.2028 -0.6426 -3.2882
  701MOL0     H92507  -0.017   7.074   1.378  0.1916 -0.1804 -0.6581
  701MOL0     H92508  -0.277   7.052   1.311 -0.4059  1.3661 -0.7072
  701MOL0     H92509  -0.290   7.220   1.366  2.0587  0.1500 -0.5658
  701MOL0     H92510  -0.179   7.128   1.582  0.1016  2.9758 -3.6022
  701MOL0     H92511  -0.351   7.086   1.567  0.4831 -2.3520  1.7498
  701MOL0     H92512  -0.170   6.878   1.470  1.0095  0.8184  0.4111
  701MOL0     H92513  -0.324   6.869   1.531  1.3167  0.2336 -0.4930
  701MOL0     H92514  -0.147   7.154   0.548 -1.1226  1.8793  1.7036
  701MOL0     H92515  -0.019   7.311   0.390  1.9112  0.3189 -0.6357
  701MOL0     H92516   0.253   7.789   0.300  0.2174 -0.4534  0.0676
  701MOL0     H92517   0.424   7.888   0.182  1.0395 -0.2232 -0.3653
  701MOL0     H92518   2.431   8.246   0.361 -2.1320 -0.2151 -0.2844
  701MOL0     H92519   2.596   8.432   0.297  0.4253 -1.0475  1.2366
  701MOL0     H92520   2.690   8.727   0.025 -0.6281 -0.6441  3.3853
  701MOL0     H92521   2.793   8.944  -0.019 -1.5706  0.7326  2.7010
  701MOL0     H92522   3.264   8.991   0.084  1.0741 -0.6389  2.2077
  701MOL0     H92523   3.147   8.999   0.216 -0.4178  0.2879  0.4281
  701MOL0     H92524   3.238   9.220   0.020 -1.7079  1.1211  0.4067
  701MOL0     H92525   3.094   9.242   0.117 -0.3679 -0.8633 -0.9196
  701MOL0     H92526   3.250   9.173   0.322  2.0440  2.2414  2.5968
  701MOL0     H92527   3.260   9.326   0.270 -1.5244 -1.1287  2.6936
  701MOL0     H92528   3.477   9.126   0.154  2.6453 -0.0346  3.1199
  701MOL0     H92529   3.462   9.306   0.161  2.4826 -0.5170 -0.5496
  701MOL0     H92530   3.559   9.177   0.560 -1.7009  4.2894  2.4424
  701MOL0     H92531   3.180   8.766   0.060  1.1361  0.1515 -1.9696
  701MOL0     H92532   3.076   8.559   0.060  4.4865  3.2086 -1.2617
  702MOL0     O92533   1.421  10.085   5.491  0.1773 -0.7405 -0.0700
  702MOL0     C92534   1.476  10.181   5.546 -0.6958  1.0343 -0.7285
  702MOL0     O92535   1.452  10.226   5.677  0.2625  0.3384  0.7407
  702MOL0     C92536   1.333  10.182   5.737  1.0765  0.1289  0.8057
  702MOL0     C92537   1.214  10.174   5.671 -0.3876  1.0701  0.5704
  702MOL0     C92538   1.095  10.128   5.734 -0.0865 -0.7279  0.0072
  702MOL0     C92539   1.096  10.082   5.866  1.2139 -0.5551  0.6980
  702MOL0     O92540   0.984  10.044   5.937  0.2167 -0.4036 -0.3238
  702MOL0     C92541   0.856  10.082   5.889 -0.1504 -1.0435  0.0762
  702MOL0     C92542   0.827  10.233   5.895  0.4364 -0.2770 -0.5215
  702MOL0     C92543   0.683  10.259   5.849  1.2553 -0.1028  0.3204
  702MOL0     C92544   0.641  10.180   5.721 -0.2157 -1.3923 -0.5776
  702MOL0     C92545   0.520  10.238   5.658  1.2525  0.1263 -0.8034
  702MOL0     C92546   0.442  10.151   5.557  0.4361 -0.7905  0.4691
  702MOL0     C92547   0.529  10.133   5.424 -0.4777 -0.3345  0.1512
  702MOL0     C92548   0.457  10.069   5.318  0.5776  0.1296  0.6847
  702MOL0     N92549   0.543  10.036   5.203 -0.0341  0.3340  0.5095
  702MOL0     C92550   0.608  10.130   5.129 -1.0311 -0.8959  1.4165
  702MOL0     C92551   0.633  10.074   5.008  0.3645  0.3194  0.4314
  702MOL0     C92552   0.687  10.125   4.878  0.1588  0.0970 -0.1375
  702MOL0     C92553   0.824  10.157   4.886 -0.5393  0.3833  0.1102
  702MOL0     C92554   0.863  10.221   4.744  0.4387  0.1247 -0.9024
  702MOL0     C92555   0.998  10.292   4.736  0.8171  0.2598  1.0033
  702MOL0     O92556   1.014  10.385   4.849  0.5727  1.1302 -1.1285
  702MOL0     C92557   1.101  10.486   4.849  0.5562  0.3462  1.1620
  702MOL0     C92558   1.071  10.591   4.930  0.9406 -0.7499 -0.1220
  702MOL0     C92559   1.154  10.700   4.928 -0.1234  0.1322 -0.1009
  702MOL0     C92560   1.265  10.713   4.841  1.3992  0.3919  0.5801
  702MOL0     C92561   1.350  10.821   4.839 -0.0821 -0.0363  1.0436
  702MOL0     O92562   1.339  10.892   4.950  0.3705  0.3737  0.5534
  702MOL0     C92563   1.417  11.003   4.955  0.0056  0.3529  0.5487
  702MOL0     C92564   1.352  11.122   4.950 -0.1620 -0.6981 -0.5082
  702MOL0     C92565   1.428  11.238   4.933 -0.4666  0.1756 -1.2396
  702MOL0     C92566   1.570  11.238   4.945 -0.9406 -0.0328  0.0462
  702MOL0     O92567   1.647  11.349   4.924  0.1978 -0.0202 -0.6390
  702MOL0     C92568   1.587  11.477   4.882 -0.2367 -0.3238 -0.2880
  702MOL0     C92569   1.679  11.587   4.861 -0.4480  0.1871  0.3222
  702MOL0     C92570   1.794  11.554   4.765  0.6603  0.4310  0.6477
  702MOL0     C92571   1.859  11.695   4.735  0.0196  0.8663 -0.3859
  702MOL0     C92572   1.955  11.669   4.613 -0.3256 -0.1133 -0.2984
  702MOL0     C92573   2.098  11.629   4.645 -0.0726 -0.7160  0.0995
  702MOL0     C92574   2.189  11.649   4.528  0.0564 -1.4322 -0.5865
  702MOL0     C92575   2.194  11.534   4.444  0.9173  0.3528  0.6463
  702MOL0    Cl92576   2.244  11.383   4.523  0.1231  0.1620  0.3398
  702MOL0     C92577   1.637  11.117   4.968  0.4249 -0.8769 -0.6121
  702MOL0     C92578   1.558  11.002   4.968 -1.5997 -0.2011 -0.5238
  702MOL0     O92579   1.436  10.841   4.750 -0.8378  0.5413 -0.2751
  702MOL0     C92580   1.288  10.604   4.761  0.3954  0.8641  0.0701
  702MOL0     C92581   1.206  10.494   4.763  0.2279 -0.4319  0.0527
  702MOL0     N92582   0.605   9.943   5.022 -0.2510  0.5166  1.1366
  702MOL0     N92583   0.549   9.920   5.139 -1.1293  0.9427 -0.3596
  702MOL0     C92584   1.223  10.069   5.927 -0.6151 -0.6713 -0.1128
  702MOL0     C92585   1.342  10.124   5.865  0.0324  0.1258  0.2935
  702MOL0     C92586   1.584  10.257   5.478  0.3228 -0.0818 -0.3633
  702MOL0     C92587   1.643  10.202   5.357 -0.1932  0.4679 -0.5154
  702MOL0     C92588   1.743  10.276   5.283 -0.2605  0.8723 -0.1095
  702MOL0     C92589   1.776  10.403   5.331 -0.6363 -0.2891  0.4862
  702MOL0     O92590   1.859  10.499   5.272 -0.0348  0.5415 -0.5296
  702MOL0     C92591   1.912  10.446   5.148  0.3015 -0.8472 -0.2464
  702MOL0     C92592   1.997  10.547   5.077  1.2497  0.3131  0.9632
  702MOL0     C92593   2.128  10.561   5.137 -0.1321  0.8156  0.0142
  702MOL0     C92594   2.225  10.631   5.046 -0.8744  0.1719  0.5698
  702MOL0     C92595   2.359  10.613   5.111  0.0360 -0.1294 -0.8924
  702MOL0     C92596   2.465  10.609   5.176 -0.4532  0.3576  0.3760
  702MOL0     C92597   1.726  10.448   5.453  0.8371 -0.6229 -0.3125
  702MOL0     C92598   1.632  10.379   5.529 -0.1597 -0.7438 -0.7659
  702MOL0     H92599   1.221  10.204   5.567 -2.6864  1.7357  0.5608
  702MOL0     H92600   0.999  10.137   5.685  0.1471 -1.7455 -0.6620
  702MOL0     H92601   0.780  10.033   5.951 -0.4602  0.0949  0.6165
  702MOL0     H92602   0.844  10.038   5.790 -2.7379 -0.0667 -0.1097
  702MOL0     H92603   0.904  10.286   5.838 -2.3841  1.8902 -2.5898
  702MOL0     H92604   0.840  10.259   6.000  0.7995 -3.4829  0.3228
  702MOL0     H92605   0.677  10.363   5.815 -0.9447 -1.0118 -2.6037
  702MOL0     H92606   0.606  10.230   5.921  2.1248  0.8721  1.6965
  702MOL0     H92607   0.727  10.200   5.656  1.9577 -0.3558  2.4201
  702MOL0     H92608   0.631  10.072   5.734  0.0469 -1.1068  2.8630
  702MOL0     H92609   0.543  10.341   5.630 -1.3581  0.4506 -2.0335
  702MOL0     H92610   0.448  10.242   5.740  2.4848 -2.3325  0.5017
  702MOL0     H92611   0.352  10.202   5.523  0.7391 -0.0252  0.7883
  702MOL0     H92612   0.418  10.052   5.597  5.4286 -1.5798  2.2496
  702MOL0     H92613   0.568  10.230   5.393 -1.4869 -0.5373 -1.9570
  702MOL0     H92614   0.613  10.073   5.459 -2.0884 -1.9546  1.4231
  702MOL0     H92615   0.388  10.147   5.286  3.4007  2.3448 -0.3034
  702MOL0     H92616   0.403   9.983   5.359 -0.7616  1.9491  2.9980
  702MOL0     H92617   0.610  10.227   5.177  0.3140 -0.6710  0.9476
  702MOL0     H92618   0.638  10.219   4.853  1.2911  0.8027  0.2341
  702MOL0     H92619   0.672  10.046   4.804  0.1881 -1.3160  1.2948
  702MOL0     H92620   0.877  10.063   4.904  1.5093  2.2066  5.6996
  702MOL0     H92621   0.822  10.232   4.965 -0.2733 -0.2332  0.7117
  702MOL0     H92622   0.855  10.141   4.669 -3.4062  0.6008 -1.2325
  702MOL0     H92623   0.788  10.291   4.706  2.0547  1.4858 -1.7308
  702MOL0     H92624   0.997  10.345   4.640  0.4959 -0.6131  0.5142
  702MOL0     H92625   1.085  10.227   4.747  0.4840 -0.0791  1.6997
  702MOL0     H92626   0.993  10.588   5.006  0.6068  0.4907 -0.3885
  702MOL0     H92627   1.138  10.763   5.015 -0.2719 -5.7627  4.8126
  702MOL0     H92628   1.245  11.131   4.965  0.2751  1.3390  1.9555
  702MOL0     H92629   1.374  11.332   4.935  1.5942  1.4185 -1.9654
  702MOL0     H92630   1.504  11.510   4.945  0.2200  0.4995 -0.1010
  702MOL0     H92631   1.531  11.455   4.791 -1.5536 -2.1706  0.8905
  702MOL0     H92632   1.727  11.611   4.956  1.6929 -0.6850 -0.4607
  702MOL0     H92633   1.620  11.668   4.818  0.1024 -0.1516 -1.1316
  702MOL0     H92634   1.744  11.525   4.673 -2.8779 -0.4912  2.6721
  702MOL0     H92635   1.867  11.493   4.819  0.3575  0.7317  1.4091
  702MOL0     H92636   1.773  11.750   4.695 -0.0308  0.8203 -0.3404
  702MOL0     H92637   1.916  11.731   4.821  0.2359 -0.5806  0.1137
  702MOL0     H92638   1.955  11.761   4.553  0.2153  0.0609 -0.0470
  702MOL0     H92639   1.904  11.605   4.541  1.2965 -1.6385 -0.1601
  702MOL0     H92640   2.102  11.523   4.673 -2.4203 -0.3522  2.2182
  702MOL0     H92641   2.127  11.692   4.730 -4.0082  2.6224 -0.7308
  702MOL0     H92642   2.174  11.744   4.477 -1.6426 -0.7337  1.1078
  702MOL0     H92643   2.290  11.654   4.571  0.6118  1.5654 -1.9958
  702MOL0     H92644   2.271  11.552   4.367 -2.1188  5.5452 -1.6944
  702MOL0     H92645   2.103  11.503   4.393  2.5252 -1.6268 -1.2340
  702MOL0     H92646   1.745  11.111   4.978  0.5459 -0.2338 -1.3813
  702MOL0     H92647   1.600  10.903   4.978 -1.2011 -0.1885 -1.8019
  702MOL0     H92648   1.379  10.599   4.702  2.7440 -1.1250  3.4776
  702MOL0     H92649   1.233  10.420   4.688  2.2681  0.2633  0.0371
  702MOL0     H92650   1.240  10.035   6.028 -2.9277 -2.8806 -0.3712
  702MOL0     H92651   1.433  10.133   5.924 -2.0728  4.1117  3.4375
  702MOL0     H92652   1.602  10.117   5.305 -0.2247  0.9997 -1.3738
  702MOL0     H92653   1.786  10.229   5.195  0.6859  1.0264  0.2571
  702MOL0     H92654   1.828  10.411   5.088 -1.4437 -1.6764  2.5047
  702MOL0     H92655   1.965  10.358   5.186  0.7797  0.1678  1.6031
  702MOL0     H92656   2.011  10.510   4.975 -0.6214  1.1847  0.3282
  702MOL0     H92657   1.942  10.642   5.071  1.1346  0.1595 -3.1559
  702MOL0     H92658   2.161  10.463   5.172  1.4187  1.1186 -0.5288
  702MOL0     H92659   2.116  10.615   5.232  1.9946  1.7382 -0.1912
  702MOL0     H92660   2.216  10.602   4.941  0.1500  1.3641  0.1244
  702MOL0     H92661   2.193  10.736   5.045 -6.2193 -1.1049  2.7041
  702MOL0     H92662   2.565  10.606   5.215 -1.0565  0.9898  2.0760
  702MOL0     H92663   1.759  10.536   5.507  1.0562 -0.9890  0.1670
  702MOL0     H92664   1.607  10.428   5.622  0.5860 -1.9295  0.0889
  703MOL0     O92665   7.971   1.619   1.886  0.2009 -0.5007  0.9203
  703MOL0     C92666   7.962   1.740   1.889 -0.4785  0.0498 -0.1316
  703MOL0     O92667   7.930   1.812   2.005 -0.5859 -0.5306  0.1823
  703MOL0     C92668   7.933   1.747   2.125 -0.3493 -0.8520  0.2545
  703MOL0     C92669   7.822   1.691   2.194  1.1036  0.3429 -0.7314
  703MOL0     C92670   7.831   1.620   2.318 -0.8113 -0.2139 -0.0791
  703MOL0     C92671   7.954   1.603   2.383 -0.0567 -0.9379 -0.3158
  703MOL0     O92672   7.964   1.559   2.513 -0.5303  0.3082  0.4125
  703MOL0     C92673   7.854   1.495   2.588 -0.1420  0.6948 -0.1793
  703MOL0     C92674   7.928   1.372   2.646  0.3590 -0.2298  0.4358
  703MOL0     C92675   8.032   1.413   2.747  0.9272 -0.9273  0.6791
  703MOL0     C92676   8.139   1.302   2.755 -0.6715 -0.5845 -0.2651
  703MOL0     C92677   8.233   1.315   2.871 -0.5732  0.8628 -0.7377
  703MOL0     C92678   8.327   1.194   2.845 -0.6721 -0.0076 -0.7378
  703MOL0     C92679   8.413   1.190   2.967  1.1778 -1.5693 -1.5425
  703MOL0     C92680   8.543   1.112   2.962 -0.1871  0.2675  0.6724
  703MOL0     N92681   8.625   1.138   3.083 -0.3642 -0.3016  0.4406
  703MOL0     C92682   8.606   1.068   3.198 -0.2352  0.3204 -0.5577
  703MOL0     C92683   8.707   1.110   3.278  0.8084  0.8806 -0.1779
  703MOL0     C92684   8.757   1.064   3.401  0.0583 -0.4629 -0.7939
  703MOL0     C92685   8.850   0.939   3.393 -0.0089 -0.1903  0.2236
  703MOL0     C92686   8.761   0.811   3.363 -0.8408  0.4123 -0.0384
  703MOL0     C92687   8.852   0.696   3.312  0.1420  0.1882 -0.3525
  703MOL0     O92688   8.801   0.564   3.321 -0.0418 -0.2745  0.5002
  703MOL0     C92689   8.763   0.508   3.439  0.2766 -0.7860  0.1104
  703MOL0     C92690   8.689   0.389   3.440 -0.5783 -0.0231 -0.0346
  703MOL0     C92691   8.665   0.323   3.562 -0.7890 -0.6828 -0.2151
  703MOL0     C92692   8.728   0.362   3.688  0.1398 -0.4127 -0.5882
  703MOL0     C92693   8.725   0.290   3.812  1.1625 -0.1189  0.3706
  703MOL0     O92694   8.809   0.329   3.901  0.1775 -0.5270  0.3252
  703MOL0     C92695   8.796   0.293   4.033 -0.3652  0.4889  1.2290
  703MOL0     C92696   8.910   0.274   4.111  0.6904 -0.0096  0.4202
  703MOL0     C92697   8.906   0.211   4.237 -0.3820 -0.0188 -0.0237
  703MOL0     C92698   8.782   0.180   4.299  1.2572 -0.2909  1.0898
  703MOL0     O92699   8.764   0.119   4.417  0.3440 -0.3463 -0.4223
  703MOL0     C92700   8.878   0.048   4.478  0.3729  0.2962  0.1151
  703MOL0     C92701   8.820  -0.011   4.613  0.3197 -0.5730  1.4510
  703MOL0     C92702   8.683  -0.086   4.605 -1.0156 -1.1422  0.4934
  703MOL0     C92703   8.705  -0.214   4.544 -0.3291  0.6201 -0.7464
  703MOL0     C92704   8.574  -0.295   4.538  0.7299 -0.1618 -0.8099
  703MOL0     C92705   8.477  -0.269   4.431 -0.6214 -0.6557 -0.0580
  703MOL0     C92706   8.380  -0.156   4.462 -0.2896  0.2828 -0.1531
  703MOL0     C92707   8.285  -0.137   4.346  0.2675  0.1720 -0.5424
  703MOL0    Cl92708   8.363  -0.046   4.205  0.1973 -0.2607 -0.4420
  703MOL0     C92709   8.664   0.212   4.221 -0.0955  0.2760 -0.2210
  703MOL0     C92710   8.677   0.264   4.096  0.2955 -0.0256  0.1017
  703MOL0     O92711   8.647   0.198   3.816  1.0070  0.1068 -0.3555
  703MOL0     C92712   8.792   0.484   3.678  0.4329 -0.4668 -0.6659
  703MOL0     C92713   8.815   0.550   3.560  1.0686  0.5597  0.5121
  703MOL0     N92714   8.777   1.216   3.217  0.0880 -0.0705 -0.0567
  703MOL0     N92715   8.726   1.236   3.096 -0.3004  0.2182 -0.0208
  703MOL0     C92716   8.064   1.654   2.313  0.2597 -0.1792 -0.4186
  703MOL0     C92717   8.054   1.724   2.190  0.0460  0.5118  0.8159
  703MOL0     C92718   7.966   1.799   1.760 -0.1101  0.4480 -1.0684
  703MOL0     C92719   7.985   1.721   1.641  0.1282  0.3746 -0.2319
  703MOL0     C92720   7.986   1.785   1.519 -0.7545  0.5703  0.2812
  703MOL0     C92721   7.967   1.918   1.512  1.1213 -0.4440 -0.3152
  703MOL0     O92722   7.977   1.968   1.384 -0.4204  0.5893 -0.4087
  703MOL0     C92723   8.096   2.030   1.346  0.5196 -0.1440 -0.2320
  703MOL0     C92724   8.112   2.056   1.195 -0.2738  1.1478  0.0164
  703MOL0     C92725   8.011   2.154   1.145  0.6731 -0.2428 -0.1280
  703MOL0     C92726   8.031   2.177   0.993  0.2585  0.0450 -1.0942
  703MOL0     C92727   7.975   2.061   0.924  0.1746 -0.8416 -0.1004
  703MOL0     C92728   7.930   1.982   0.845  0.3088 -0.8552 -0.1109
  703MOL0     C92729   7.945   1.985   1.626 -0.2329 -0.8464  0.0106
  703MOL0     C92730   7.940   1.933   1.750  0.3044 -0.4675  0.1434
  703MOL0     H92731   7.723   1.709   2.153  0.7580 -0.1863 -0.1540
  703MOL0     H92732   7.738   1.588   2.363 -0.0360 -1.1301  0.9120
  703MOL0     H92733   7.769   1.476   2.523 -0.6137  3.6951 -0.5909
  703MOL0     H92734   7.818   1.561   2.669  1.1083 -0.2917  1.2390
  703MOL0     H92735   7.981   1.320   2.566 -3.5861 -2.7586 -0.8347
  703MOL0     H92736   7.862   1.296   2.691  0.3122  0.2310  1.1637
  703MOL0     H92737   7.980   1.423   2.843  0.5203 -1.6580  0.5485
  703MOL0     H92738   8.080   1.507   2.717  0.9802 -0.9470  0.7020
  703MOL0     H92739   8.102   1.199   2.759 -0.2378 -0.7972 -1.3898
  703MOL0     H92740   8.196   1.319   2.663 -0.9994  1.0561 -0.1917
  703MOL0     H92741   8.190   1.299   2.970  2.5099 -1.2490  0.4051
  703MOL0     H92742   8.276   1.416   2.872  1.2643  0.1254  0.5467
  703MOL0     H92743   8.386   1.223   2.758  0.2722  2.8779  0.7608
  703MOL0     H92744   8.285   1.092   2.839  0.2738 -0.5337  0.9710
  703MOL0     H92745   8.440   1.292   2.996  0.9588 -2.0040  0.3326
  703MOL0     H92746   8.354   1.148   3.049 -0.6250  0.2903 -1.8103
  703MOL0     H92747   8.601   1.149   2.877 -1.2267 -3.0336 -1.6813
  703MOL0     H92748   8.518   1.007   2.946 -0.0674 -0.1455  2.8960
  703MOL0     H92749   8.565   0.971   3.226  2.8601 -0.8305  0.4712
  703MOL0     H92750   8.675   1.047   3.472  0.8750  1.0021  0.5798
  703MOL0     H92751   8.818   1.141   3.448 -1.7660 -0.5580  1.9480
  703MOL0     H92752   8.906   0.938   3.487  0.3158  1.6559  0.0752
  703MOL0     H92753   8.928   0.949   3.318  1.2626  2.4888  1.7731
  703MOL0     H92754   8.712   0.777   3.454 -0.6828 -4.0825 -1.4243
  703MOL0     H92755   8.679   0.819   3.291  1.4244  1.7704 -2.6976
  703MOL0     H92756   8.944   0.687   3.371  1.6216  0.3534 -2.5042
  703MOL0     H92757   8.864   0.711   3.204 -1.9088  2.6444 -0.3418
  703MOL0     H92758   8.649   0.356   3.345 -3.1988 -0.1737  1.0512
  703MOL0     H92759   8.602   0.235   3.556 -3.3484  1.0496 -0.5582
  703MOL0     H92760   9.012   0.296   4.082  1.7709 -1.0742  3.0612
  703MOL0     H92761   8.996   0.201   4.296 -0.1653  0.5923 -0.2374
  703MOL0     H92762   8.967   0.111   4.483 -1.4025  2.8569  2.1733
  703MOL0     H92763   8.901  -0.043   4.421 -0.7080 -0.6906  1.2013
  703MOL0     H92764   8.794   0.079   4.669  0.5948  0.6294 -0.2577
  703MOL0     H92765   8.905  -0.058   4.662  0.6019 -2.2133 -0.4852
  703MOL0     H92766   8.611  -0.031   4.543  0.8543  3.1992  1.7682
  703MOL0     H92767   8.648  -0.094   4.709 -0.4102 -0.8383  0.7243
  703MOL0     H92768   8.763  -0.190   4.454  4.6150  2.0230  2.4301
  703MOL0     H92769   8.773  -0.278   4.601  0.7479  0.9831 -1.5945
  703MOL0     H92770   8.522  -0.287   4.634  1.6387 -3.8015  0.1515
  703MOL0     H92771   8.592  -0.403   4.532  3.2377  0.2239 -1.0725
  703MOL0     H92772   8.409  -0.352   4.411 -0.6510 -0.7882  0.5775
  703MOL0     H92773   8.533  -0.239   4.342 -1.0774  5.2501  1.2066
  703MOL0     H92774   8.326  -0.179   4.554 -0.7046 -2.5021 -1.0039
  703MOL0     H92775   8.429  -0.060   4.478  3.7481 -1.5780 -0.1742
  703MOL0     H92776   8.202  -0.069   4.368  0.4148 -0.6738  3.1616
  703MOL0     H92777   8.240  -0.230   4.312  5.1516 -1.6485 -3.0758
  703MOL0     H92778   8.563   0.190   4.254  0.0184 -0.3486 -0.2739
  703MOL0     H92779   8.589   0.281   4.035  1.4298  2.7387 -0.9486
  703MOL0     H92780   8.832   0.531   3.767 -1.1548 -1.1527  0.4571
  703MOL0     H92781   8.864   0.647   3.562 -1.1060  1.8589 -2.3138
  703MOL0     H92782   8.158   1.632   2.363  0.6996  0.7627 -0.8040
  703MOL0     H92783   8.147   1.765   2.151 -0.8411 -0.1440 -2.2895
  703MOL0     H92784   7.993   1.613   1.633 -1.2294  0.3715 -2.5552
  703MOL0     H92785   8.004   1.729   1.428  0.4908  0.0098  0.8413
  703MOL0     H92786   8.180   1.972   1.387 -0.8183 -0.5967  2.0925
  703MOL0     H92787   8.094   2.127   1.397 -1.6141 -0.7509  0.9675
  703MOL0     H92788   8.213   2.096   1.187 -0.1736  0.5410 -2.7637
  703MOL0     H92789   8.108   1.956   1.150 -1.0649  0.9368  0.5202
  703MOL0     H92790   8.000   2.247   1.201  0.8843 -1.2686  1.6637
  703MOL0     H92791   7.911   2.110   1.159  0.6949 -0.6622 -1.1590
  703MOL0     H92792   7.978   2.266   0.957  0.9816  2.0317  2.2630
  703MOL0     H92793   8.140   2.182   0.987  0.4589  1.2765  1.7661
  703MOL0     H92794   7.886   1.910   0.779 -1.2495 -0.7624  0.7853
  703MOL0     H92795   7.942   2.093   1.617 -1.2220 -0.8501  0.1877
  703MOL0     H92796   7.905   1.986   1.838 -2.5741 -0.0829 -1.1257
  704MOL0     O92797   9.931  10.409   1.653 -0.0579 -0.0370 -0.8495
  704MOL0     C92798  10.047  10.448   1.636  0.3195 -0.1723 -0.0210
  704MOL0     O92799  10.136  10.407   1.538 -0.8005  0.1554 -0.2339
  704MOL0     C92800  10.100  10.297   1.467 -0.1277  0.9392  1.0664
  704MOL0     C92801   9.998  10.303   1.370 -0.4720 -0.2340  0.1151
  704MOL0     C92802   9.955  10.185   1.308 -0.2354 -0.5342 -0.1287
  704MOL0     C92803  10.017  10.070   1.339 -0.1160  0.7871  0.1411
  704MOL0     O92804   9.989   9.948   1.289  0.1157  0.0271 -0.0806
  704MOL0     C92805   9.916   9.941   1.165 -0.5820  0.3338 -0.2135
  704MOL0     C92806   9.772   9.912   1.184  0.6263 -0.2029 -0.1803
  704MOL0     C92807   9.749   9.782   1.262  1.2551 -0.0516  0.0416
  704MOL0     C92808   9.603   9.732   1.229  0.3233  0.2509 -0.0446
  704MOL0     C92809   9.580   9.592   1.303  0.3177  0.3451  0.5673
  704MOL0     C92810   9.662   9.469   1.252  0.7259 -0.3898  0.0717
  704MOL0     C92811   9.612   9.336   1.314  0.2181  1.2337 -0.0651
  704MOL0     C92812   9.704   9.223   1.287 -0.7536 -0.1849  0.2665
  704MOL0     N92813   9.665   9.107   1.367 -0.4136 -0.4102  0.0221
  704MOL0     C92814   9.537   9.049   1.369  0.1243 -0.8977 -0.6360
  704MOL0     C92815   9.559   8.920   1.417 -0.1091  0.0031  1.0667
  704MOL0     C92816   9.452   8.815   1.418 -0.2537  0.0884 -0.0465
  704MOL0     C92817   9.471   8.719   1.299  0.1070  0.6647 -0.3900
  704MOL0     C92818   9.345   8.619   1.300 -0.2520  0.2041  0.4401
  704MOL0     C92819   9.330   8.544   1.164  0.4135  0.2998  0.1502
  704MOL0     O92820   9.449   8.462   1.150 -0.2533  0.4884  0.0884
  704MOL0     C92821   9.458   8.333   1.199  0.4137 -0.7372 -0.6695
  704MOL0     C92822   9.584   8.296   1.221  0.8448  0.0806  0.0795
  704MOL0     C92823   9.627   8.177   1.270 -0.0355  0.8719 -0.4856
  704MOL0     C92824   9.530   8.089   1.324 -0.5148  0.6806  0.8477
  704MOL0     C92825   9.565   7.971   1.392 -0.2212  0.8355  0.2684
  704MOL0     O92826   9.473   7.884   1.428 -0.4501 -0.1976  0.0381
  704MOL0     C92827   9.505   7.761   1.501  0.0681 -0.0552  0.3550
  704MOL0     C92828   9.554   7.648   1.432  0.8268 -0.0022  0.1697
  704MOL0     C92829   9.554   7.523   1.502 -0.3139 -0.4013 -0.0843
  704MOL0     C92830   9.532   7.526   1.640 -0.1724  0.7182 -0.9800
  704MOL0     O92831   9.556   7.400   1.697 -0.4013 -0.5343 -0.1143
  704MOL0     C92832   9.504   7.360   1.821 -0.8145 -0.5450  0.5230
  704MOL0     C92833   9.611   7.389   1.933  0.2975 -0.4361  0.6314
  704MOL0     C92834   9.758   7.351   1.902 -0.5191  0.1453  0.5394
  704MOL0     C92835   9.786   7.198   1.927  0.6025 -0.6324  0.9890
  704MOL0     C92836   9.771   7.141   2.076 -0.0954  0.2498 -0.2624
  704MOL0     C92837   9.868   7.214   2.174  0.4879 -0.1124  0.6026
  704MOL0     C92838  10.014   7.227   2.128  0.0204  0.3988  0.5809
  704MOL0     C92839  10.089   7.096   2.106 -0.2016 -0.0464 -0.2031
  704MOL0    Cl92840  10.090   7.013   2.248  0.1467 -0.5886 -0.0504
  704MOL0     C92841   9.503   7.647   1.708 -0.1179 -0.4454 -0.3169
  704MOL0     C92842   9.483   7.758   1.639 -0.2390 -0.0179 -0.3874
  704MOL0     O92843   9.684   7.952   1.404  0.7662  0.2137 -0.2409
  704MOL0     C92844   9.393   8.133   1.315 -1.0991  0.3144  0.0958
  704MOL0     C92845   9.356   8.253   1.249  0.3680 -0.3050 -0.6993
  704MOL0     N92846   9.694   8.915   1.447 -0.1053 -0.2078  0.5023
  704MOL0     N92847   9.755   9.020   1.415  0.3911  0.4371  0.2295
  704MOL0     C92848  10.131  10.059   1.418  0.2344  0.0236 -0.0990
  704MOL0     C92849  10.159  10.169   1.498  0.3278 -0.5069  0.0940
  704MOL0     C92850  10.092  10.551   1.726  0.5035  0.0015 -0.9465
  704MOL0     C92851  10.158  10.671   1.678 -0.5057 -0.0159 -0.4672
  704MOL0     C92852  10.175  10.778   1.760  0.3319  0.5339  0.1032
  704MOL0     C92853  10.144  10.781   1.899 -0.0800  0.5799  0.0051
  704MOL0     O92854  10.151  10.890   1.985 -0.2354  0.9564 -0.5805
  704MOL0     C92855  10.201  11.011   1.939 -0.1866  1.3344  0.9467
  704MOL0     C92856  10.101  11.071   1.834  0.2199 -0.7287  0.0839
  704MOL0     C92857  10.104  11.224   1.859  0.0885  0.4664 -0.0794
  704MOL0     C92858   9.998  11.296   1.775 -0.0123  0.6987 -0.1910
  704MOL0     C92859   9.987  11.439   1.799  0.1681 -0.8479  0.0223
  704MOL0     C92860   9.973  11.552   1.850  0.0377  0.4009 -0.6537
  704MOL0     C92861  10.077  10.661   1.945 -1.0054 -0.1171  0.5305
  704MOL0     C92862  10.053  10.548   1.863  0.0056  0.5279 -0.0290
  704MOL0     H92863   9.955  10.399   1.342 -1.2519  0.0574  2.1547
  704MOL0     H92864   9.871  10.206   1.242 -0.1554  2.5272  0.5980
  704MOL0     H92865   9.963   9.867   1.101  2.5464  0.0144  2.1938
  704MOL0     H92866   9.922  10.037   1.113  3.6969 -0.6871 -1.9912
  704MOL0     H92867   9.739   9.906   1.080  0.3068 -1.6806 -0.0093
  704MOL0     H92868   9.727   9.996   1.238  2.0975 -0.8864  2.2633
  704MOL0     H92869   9.765   9.794   1.370 -3.1418  4.0650  0.5813
  704MOL0     H92870   9.816   9.706   1.221  2.0236  0.7852 -0.3221
  704MOL0     H92871   9.527   9.798   1.272 -0.9423 -1.5841  0.7034
  704MOL0     H92872   9.588   9.729   1.121  1.3207  2.3848 -0.2906
  704MOL0     H92873   9.475   9.570   1.283  0.3465  2.4435 -2.6163
  704MOL0     H92874   9.593   9.612   1.410 -1.7185  2.7606  0.4519
  704MOL0     H92875   9.764   9.486   1.288  0.6336 -0.5663  0.4249
  704MOL0     H92876   9.672   9.452   1.145  3.1199 -2.1263  0.5036
  704MOL0     H92877   9.611   9.346   1.423 -2.0390 -1.4271  0.2721
  704MOL0     H92878   9.512   9.312   1.279  0.9471 -2.3153 -0.0715
  704MOL0     H92879   9.809   9.250   1.303 -0.6874  1.8219 -2.8079
  704MOL0     H92880   9.703   9.198   1.181  2.9784  2.8596 -0.7300
  704MOL0     H92881   9.442   9.086   1.334 -0.1667 -0.1446  0.8745
  704MOL0     H92882   9.350   8.853   1.429 -0.6885 -1.5813  2.5253
  704MOL0     H92883   9.467   8.760   1.511 -0.6011 -0.0607 -0.0792
  704MOL0     H92884   9.564   8.662   1.311  0.6948  1.3489 -1.5358
  704MOL0     H92885   9.477   8.772   1.204  1.5827  0.3885 -0.4700
  704MOL0     H92886   9.341   8.549   1.383 -0.3027  2.3603  2.3631
  704MOL0     H92887   9.259   8.686   1.308 -0.3226  0.1539  0.1255
  704MOL0     H92888   9.343   8.620   1.086  0.7391 -0.2042 -0.2856
  704MOL0     H92889   9.235   8.492   1.146  0.3017 -0.5567  2.7456
  704MOL0     H92890   9.651   8.380   1.206  0.3671  0.4145 -0.1973
  704MOL0     H92891   9.735   8.170   1.274  0.0048  1.5540 -0.1813
  704MOL0     H92892   9.573   7.640   1.326 -0.4508 -0.9615 -0.0021
  704MOL0     H92893   9.575   7.427   1.457 -2.8822 -0.3682 -1.5154
  704MOL0     H92894   9.464   7.258   1.822  0.0797 -0.9348 -0.7436
  704MOL0     H92895   9.413   7.416   1.841  0.6671  1.3541  2.4687
  704MOL0     H92896   9.572   7.332   2.018 -0.9389 -3.6615 -1.9235
  704MOL0     H92897   9.613   7.498   1.942  0.7307 -0.4304  0.4707
  704MOL0     H92898   9.822   7.417   1.962  2.5575 -2.6069  0.5704
  704MOL0     H92899   9.773   7.379   1.797  0.2199 -1.1167  0.2791
  704MOL0     H92900   9.702   7.149   1.877  1.2453 -3.4941  2.4724
  704MOL0     H92901   9.879   7.174   1.875  0.4937 -0.0001  0.5064
  704MOL0     H92902   9.783   7.032   2.080  1.4092  0.4076  3.1008
  704MOL0     H92903   9.668   7.147   2.112  0.3487 -1.2051  1.4228
  704MOL0     H92904   9.861   7.158   2.268  2.7401  0.3770  1.1302
  704MOL0     H92905   9.829   7.315   2.192  1.8743  0.3489  1.1547
  704MOL0     H92906  10.013   7.277   2.031  1.8318 -1.9246 -0.7157
  704MOL0     H92907  10.061   7.299   2.196 -0.2002  1.8885 -0.7847
  704MOL0     H92908  10.196   7.113   2.089  0.0086  0.3165  1.3180
  704MOL0     H92909  10.043   7.033   2.029 -0.5530 -2.0804  1.5650
  704MOL0     H92910   9.471   7.658   1.811  0.4245  2.2090 -0.3474
  704MOL0     H92911   9.466   7.848   1.698  1.2738  0.7268 -1.0099
  704MOL0     H92912   9.317   8.065   1.353 -0.0072 -1.2121 -0.3626
  704MOL0     H92913   9.254   8.291   1.245  0.6167  0.6817  1.2475
  704MOL0     H92914  10.170   9.959   1.432 -0.4540 -0.0238  1.7552
  704MOL0     H92915  10.231  10.169   1.579  0.2121 -1.9052  0.2282
  704MOL0     H92916  10.179  10.668   1.572 -1.3938  1.8804 -0.7374
  704MOL0     H92917  10.223  10.863   1.714 -1.3380  2.5158  1.8403
  704MOL0     H92918  10.303  10.995   1.902 -0.8235 -3.0297  0.5709
  704MOL0     H92919  10.193  11.070   2.031  1.6258  0.5920  1.6386
  704MOL0     H92920  10.123  11.046   1.729  0.2604  1.3567 -0.4465
  704MOL0     H92921  10.005  11.028   1.864  0.9077 -1.8253  0.8254
  704MOL0     H92922  10.205  11.248   1.825  0.3863 -2.4690 -1.5393
  704MOL0     H92923  10.103  11.255   1.964  0.9786  3.0420 -0.7617
  704MOL0     H92924  10.020  11.280   1.669 -1.0613 -0.2037 -0.2882
  704MOL0     H92925   9.899  11.257   1.800  0.3027 -1.2825 -1.7364
  704MOL0     H92926   9.973  11.646   1.901  1.6072 -0.7054  1.5189
  704MOL0     H92927  10.042  10.670   2.048 -1.5502 -1.1375  0.4488
  704MOL0     H92928   9.996  10.467   1.908 -1.4086  3.1140  3.2375
  705MOL0     O92929   3.198   0.467   6.535 -0.5623  0.2639  0.5346
  705MOL0     C92930   3.240   0.565   6.473 -0.1657 -0.4532 -0.0036
  705MOL0     O92931   3.344   0.643   6.516 -0.5434 -0.1529  0.2879
  705MOL0     C92932   3.421   0.607   6.622  0.1909 -0.2447  0.1484
  705MOL0     C92933   3.371   0.621   6.757  0.0526 -0.2253 -0.3273
  705MOL0     C92934   3.446   0.573   6.860 -0.5459 -0.5814  0.4074
  705MOL0     C92935   3.586   0.541   6.846 -0.6155 -0.6979 -0.8734
  705MOL0     O92936   3.660   0.544   6.957  0.3839 -0.4566 -0.2032
  705MOL0     C92937   3.782   0.472   6.957  0.2021  0.5105  0.7060
  705MOL0     C92938   3.845   0.480   7.104  0.7194  0.1574  0.1688
  705MOL0     C92939   3.921   0.613   7.138  0.0305  0.7866  0.0584
  705MOL0     C92940   3.970   0.601   7.284 -0.5136 -0.4342 -0.0040
  705MOL0     C92941   4.059   0.717   7.330  0.4389  0.7542 -0.2073
  705MOL0     C92942   3.991   0.857   7.303 -0.5951 -0.1716 -0.2225
  705MOL0     C92943   4.057   0.951   7.412 -0.2881  0.0097  1.0880
  705MOL0     C92944   4.018   1.095   7.390  0.9153 -0.3770 -1.0600
  705MOL0     N92945   4.131   1.181   7.337  0.3376 -0.2053 -0.6229
  705MOL0     C92946   4.260   1.193   7.392 -0.0388 -1.1857  0.8577
  705MOL0     C92947   4.325   1.289   7.314  0.6209  0.4843 -0.3756
  705MOL0     C92948   4.445   1.369   7.348 -0.2551 -0.1709 -0.2887
  705MOL0     C92949   4.392   1.495   7.417 -0.7784  0.4187  0.0605
  705MOL0     C92950   4.503   1.594   7.455 -0.7404 -0.6114 -0.6530
  705MOL0     C92951   4.443   1.702   7.545 -0.4481 -0.1440  0.4865
  705MOL0     O92952   4.534   1.811   7.537 -0.2452 -0.6810  1.2548
  705MOL0     C92953   4.546   1.896   7.652 -0.0485  0.0071 -0.7305
  705MOL0     C92954   4.452   1.910   7.756 -0.5402  0.9783 -1.0710
  705MOL0     C92955   4.437   2.024   7.839 -0.1095 -0.7641 -0.4347
  705MOL0     C92956   4.541   2.128   7.829  0.3593 -0.2968 -0.4509
  705MOL0     C92957   4.549   2.246   7.916 -0.0465 -0.1850 -0.3517
  705MOL0     O92958   4.460   2.250   8.026 -0.4876 -0.6291  0.4185
  705MOL0     C92959   4.460   2.352   8.112  0.4899  0.3458  0.2836
  705MOL0     C92960   4.573   2.422   8.159 -0.6810 -0.5676 -0.0188
  705MOL0     C92961   4.569   2.525   8.244 -0.1754 -0.3199  0.4752
  705MOL0     C92962   4.449   2.560   8.308 -0.3955 -0.7369 -0.6330
  705MOL0     O92963   4.441   2.663   8.402  0.4745  0.1727  0.0303
  705MOL0     C92964   4.550   2.758   8.413  0.1262  0.5840 -0.4626
  705MOL0     C92965   4.491   2.888   8.472  0.2492 -0.5966 -0.7961
  705MOL0     C92966   4.609   2.983   8.503  0.1442 -0.2006 -0.2190
  705MOL0     C92967   4.554   3.105   8.567  0.8275 -0.6585 -0.9718
  705MOL0     C92968   4.649   3.152   8.675  0.4700 -0.5229 -1.2350
  705MOL0     C92969   4.622   3.083   8.816  1.0022  0.0049  0.3966
  705MOL0     C92970   4.722   3.113   8.922  0.2668  0.2920 -0.7738
  705MOL0     C92971   4.652   3.107   9.065  0.2565 -1.0538 -0.3730
  705MOL0    Cl92972   4.747   3.195   9.195 -0.0115  0.4663 -0.4264
  705MOL0     C92973   4.332   2.487   8.277  0.3978 -0.7885  0.5470
  705MOL0     C92974   4.342   2.374   8.186 -0.4507 -0.5770  0.2617
  705MOL0     O92975   4.648   2.317   7.905  0.4498 -0.1098 -0.2160
  705MOL0     C92976   4.637   2.106   7.725  0.4905  0.0107 -0.0486
  705MOL0     C92977   4.624   2.000   7.630  0.4215 -0.1672  0.2033
  705MOL0     N92978   4.238   1.337   7.223  0.2273 -0.7795  0.9869
  705MOL0     N92979   4.128   1.270   7.230 -0.4631  0.1487 -0.0232
  705MOL0     C92980   3.632   0.530   6.711  0.2061  0.4544 -0.4149
  705MOL0     C92981   3.547   0.561   6.602 -0.8163 -0.5582 -0.1123
  705MOL0     C92982   3.164   0.613   6.351  0.2800 -0.0032 -0.1082
  705MOL0     C92983   3.025   0.591   6.348  0.7674 -0.1549  0.0728
  705MOL0     C92984   2.941   0.657   6.243 -0.0414 -0.3141  0.6890
  705MOL0     C92985   3.008   0.718   6.133 -0.0115  1.1867  0.8987
  705MOL0     O92986   2.960   0.802   6.037  0.4060  0.6381 -0.3552
  705MOL0     C92987   2.813   0.814   6.020  0.4008 -0.1026 -0.2734
  705MOL0     C92988   2.781   0.956   5.970  0.2953 -1.2624 -0.7305
  705MOL0     C92989   2.661   0.967   5.881 -0.2896  0.0892 -0.2743
  705MOL0     C92990   2.605   1.103   5.887 -0.3641 -1.1746  0.5935
  705MOL0     C92991   2.466   1.095   5.843  0.2576 -0.0459  0.4271
  705MOL0     C92992   2.361   1.093   5.776  0.0043 -0.2369 -0.1410
  705MOL0     C92993   3.143   0.725   6.137  0.4982  0.3235 -0.0245
  705MOL0     C92994   3.221   0.671   6.242  0.7412 -0.3281  0.3844
  705MOL0     H92995   3.273   0.664   6.769  1.0525  3.0374 -2.5313
  705MOL0     H92996   3.406   0.570   6.961  1.0977 -2.8478  1.0760
  705MOL0     H92997   3.863   0.506   6.892  0.0127 -2.5298 -1.3555
  705MOL0     H92998   3.761   0.369   6.925  0.2201  0.9512 -0.8405
  705MOL0     H92999   3.910   0.395   7.125 -1.3159 -1.6493 -0.4522
  705MOL0     H93000   3.761   0.470   7.173 -1.0295  2.0422 -1.5611
  705MOL0     H93001   3.859   0.699   7.110  1.3220  1.3706 -1.1078
  705MOL0     H93002   4.004   0.625   7.067  1.5693  1.0306  1.8437
  705MOL0     H93003   3.885   0.580   7.350 -0.0049  0.0033  0.8080
  705MOL0     H93004   4.029   0.509   7.283  0.7911  0.3502 -2.2778
  705MOL0     H93005   4.156   0.717   7.280 -0.1592 -2.8003 -1.6545
  705MOL0     H93006   4.092   0.704   7.433  4.2053 -0.8804 -1.4608
  705MOL0     H93007   3.885   0.852   7.330 -0.3645  0.5586  0.8697
  705MOL0     H93008   4.016   0.896   7.204  1.2506 -3.5086 -1.2387
  705MOL0     H93009   4.028   0.920   7.513  3.8188 -1.0918  2.1286
  705MOL0     H93010   4.166   0.939   7.414 -0.2628 -0.9762 -1.8431
  705MOL0     H93011   3.977   1.134   7.484  0.2354 -3.4977  0.0772
  705MOL0     H93012   3.937   1.105   7.318 -0.1659  0.4946  0.2244
  705MOL0     H93013   4.300   1.143   7.480 -0.4806 -0.1132  1.6921
  705MOL0     H93014   4.501   1.408   7.262 -1.9237 -0.2064 -1.4474
  705MOL0     H93015   4.512   1.307   7.407 -0.0855 -1.4062 -1.7002
  705MOL0     H93016   4.325   1.466   7.499  0.3263  0.6760  1.0707
  705MOL0     H93017   4.325   1.552   7.352 -1.0084  3.0784  2.4479
  705MOL0     H93018   4.578   1.545   7.517  1.2699  0.3913 -2.2027
  705MOL0     H93019   4.557   1.620   7.364  2.1108 -2.9205  0.2476
  705MOL0     H93020   4.437   1.658   7.645  4.4334  1.1759  1.6285
  705MOL0     H93021   4.343   1.741   7.527 -1.5706 -3.6247 -1.8652
  705MOL0     H93022   4.382   1.827   7.766  0.4785  0.1937 -0.1287
  705MOL0     H93023   4.362   2.036   7.916  1.2709 -0.0985  0.8524
  705MOL0     H93024   4.667   2.390   8.115 -2.2733 -2.2056 -2.5062
  705MOL0     H93025   4.662   2.574   8.273  0.7666 -1.0972 -1.1221
  705MOL0     H93026   4.608   2.777   8.322 -0.3335  3.5833 -0.2133
  705MOL0     H93027   4.624   2.718   8.484 -0.3015 -0.4999 -0.6053
  705MOL0     H93028   4.439   2.862   8.564  3.6093 -4.3537  0.2913
  705MOL0     H93029   4.429   2.937   8.396 -0.5643 -1.8243 -0.9563
  705MOL0     H93030   4.676   3.002   8.418  0.7221 -2.0276 -0.2195
  705MOL0     H93031   4.671   2.930   8.576  2.7949  0.7716 -1.6252
  705MOL0     H93032   4.547   3.183   8.491  0.6659 -1.2281 -1.5463
  705MOL0     H93033   4.460   3.090   8.621  1.6738 -1.3962  0.3657
  705MOL0     H93034   4.630   3.260   8.687 -1.5109 -1.0912  1.8865
  705MOL0     H93035   4.751   3.134   8.641  1.0897  3.3479 -1.9611
  705MOL0     H93036   4.625   2.976   8.796  1.6946  0.0921 -0.0030
  705MOL0     H93037   4.526   3.112   8.859 -1.1885 -1.6730 -2.9196
  705MOL0     H93038   4.807   3.044   8.925 -0.3330 -0.5308 -1.7178
  705MOL0     H93039   4.757   3.216   8.916 -0.2775  0.5208 -0.1639
  705MOL0     H93040   4.632   3.002   9.090  0.3372 -1.1542 -0.7206
  705MOL0     H93041   4.560   3.165   9.052 -1.1514 -2.4442  2.5671
  705MOL0     H93042   4.229   2.508   8.306 -1.0500  1.1609 -4.7911
  705MOL0     H93043   4.245   2.326   8.188 -0.6018 -0.3440 -0.9193
  705MOL0     H93044   4.723   2.171   7.736 -1.1397  1.9033  2.6289
  705MOL0     H93045   4.684   1.997   7.540 -1.9527 -1.0514 -1.4693
  705MOL0     H93046   3.737   0.514   6.687 -0.1618 -1.3987 -0.8936
  705MOL0     H93047   3.595   0.559   6.504 -1.5403  0.2732 -0.5004
  705MOL0     H93048   2.989   0.519   6.422  1.6116 -2.2681 -1.4648
  705MOL0     H93049   2.833   0.644   6.244  0.0374 -1.1989 -0.1881
  705MOL0     H93050   2.757   0.803   6.113 -2.6239  2.5937 -1.5939
  705MOL0     H93051   2.784   0.741   5.944  0.2728  1.5778 -1.9194
  705MOL0     H93052   2.772   1.015   6.061 -1.4649  1.2305 -2.3812
  705MOL0     H93053   2.870   1.001   5.924  1.2440 -0.8078  1.4472
  705MOL0     H93054   2.582   0.904   5.920  0.0371 -1.2456 -1.6509
  705MOL0     H93055   2.694   0.924   5.785 -1.9237 -3.6965  0.7052
  705MOL0     H93056   2.606   1.146   5.987  3.6923  0.4968  0.0155
  705MOL0     H93057   2.668   1.168   5.825 -2.4947 -0.1611 -0.6397
  705MOL0     H93058   2.268   1.092   5.724  1.3626 -3.3906 -2.8745
  705MOL0     H93059   3.179   0.792   6.060 -0.5113  1.1048  0.1708
  705MOL0     H93060   3.328   0.688   6.238  0.7440  0.2525  1.9912
  706MOL0     O93061   8.530   8.474   1.591  1.1929 -0.5131  0.8243
  706MOL0     C93062   8.545   8.452   1.475  0.0577  0.4239 -0.0929
  706MOL0     O93063   8.508   8.542   1.374  0.2701  0.0897  0.1805
  706MOL0     C93064   8.429   8.657   1.394  0.0994 -0.8262  0.6100
  706MOL0     C93065   8.410   8.716   1.268  0.1036 -1.1295  1.0755
  706MOL0     C93066   8.330   8.829   1.254  0.2957 -0.4776  0.3295
  706MOL0     C93067   8.270   8.880   1.365 -0.2892  0.1338 -0.0193
  706MOL0     O93068   8.183   8.985   1.367 -0.2348  0.5796  0.6526
  706MOL0     C93069   8.128   9.035   1.242  0.3307 -0.0467  0.7224
  706MOL0     C93070   8.041   9.153   1.279 -0.1857 -0.2702  0.0989
  706MOL0     C93071   8.131   9.264   1.332 -0.7853 -0.2686  0.4267
  706MOL0     C93072   8.052   9.398   1.363  0.8161  0.9845  0.4677
  706MOL0     C93073   8.135   9.519   1.359 -0.1175 -0.1224 -0.3455
  706MOL0     C93074   8.087   9.620   1.249 -1.0500 -0.0885 -0.2816
  706MOL0     C93075   8.126   9.561   1.106  0.0802  0.3811  1.2922
  706MOL0     C93076   8.030   9.587   0.994 -1.0385 -1.0485  0.1059
  706MOL0     N93077   8.030   9.721   0.941 -0.0088 -0.6564 -0.0150
  706MOL0     C93078   7.915   9.794   0.911 -0.5936  1.4737 -0.0300
  706MOL0     C93079   7.955   9.895   0.824 -0.4374  0.0615 -0.0398
  706MOL0     C93080   7.873   9.998   0.756 -0.3067  0.4540 -0.3538
  706MOL0     C93081   7.853  10.123   0.837 -0.2032  0.4135  0.5065
  706MOL0     C93082   7.978  10.190   0.897  0.4822 -0.0405 -0.1060
  706MOL0     C93083   7.927  10.298   0.987  0.5326  0.6309 -0.9828
  706MOL0     O93084   7.850  10.393   0.910  0.5850 -0.6549 -0.2863
  706MOL0     C93085   7.921  10.493   0.841 -0.5048  0.8079  0.5133
  706MOL0     C93086   7.847  10.604   0.816 -0.1329  0.8673 -0.6561
  706MOL0     C93087   7.906  10.722   0.772  0.0573  0.5865  0.6057
  706MOL0     C93088   8.046  10.728   0.742 -0.5001  0.4854 -0.0626
  706MOL0     C93089   8.110  10.851   0.685  0.1356  0.8781  0.4170
  706MOL0     O93090   8.032  10.960   0.668  0.2483  0.3423 -0.5568
  706MOL0     C93091   8.084  11.082   0.653  0.3475 -0.1344 -0.3016
  706MOL0     C93092   8.113  11.125   0.525 -1.0609  0.0669  0.0965
  706MOL0     C93093   8.140  11.256   0.506  0.2828 -0.4390  0.3697
  706MOL0     C93094   8.138  11.342   0.608 -0.0752 -0.4346  0.3774
  706MOL0     O93095   8.150  11.467   0.580 -0.3621 -0.2254 -0.0223
  706MOL0     C93096   8.109  11.576   0.666 -0.2243  0.3481 -0.9685
  706MOL0     C93097   7.956  11.575   0.668 -1.0122  0.2270 -0.1299
  706MOL0     C93098   7.898  11.595   0.812 -0.3194 -0.0860  0.8718
  706MOL0     C93099   7.750  11.623   0.796 -0.3387 -0.1102 -0.2418
  706MOL0     C93100   7.696  11.643   0.935  0.1009 -0.8653 -1.1765
  706MOL0     C93101   7.559  11.712   0.928 -0.1144 -0.2426 -0.7204
  706MOL0     C93102   7.585  11.866   0.912 -1.3205 -0.0315  1.0758
  706MOL0     C93103   7.460  11.942   0.926 -1.3269 -0.0385  0.1828
  706MOL0    Cl93104   7.389  11.935   1.095 -0.0046  0.1003 -0.1947
  706MOL0     C93105   8.106  11.298   0.738 -0.5088  0.3772  0.1933
  706MOL0     C93106   8.078  11.167   0.763  0.0769 -0.0114 -0.0564
  706MOL0     O93107   8.228  10.846   0.660  0.4640 -0.1004 -0.3640
  706MOL0     C93108   8.114  10.604   0.754 -0.1880 -0.3255 -0.2306
  706MOL0     C93109   8.057  10.490   0.807  0.1540 -0.0958 -0.0451
  706MOL0     N93110   8.094   9.888   0.809  0.2563 -0.1577  0.3618
  706MOL0     N93111   8.133   9.792   0.882 -1.0751  0.0906 -0.0181
  706MOL0     C93112   8.287   8.814   1.486 -0.3612  0.7886  0.2868
  706MOL0     C93113   8.364   8.706   1.510  0.2175 -0.6402  0.0946
  706MOL0     C93114   8.623   8.328   1.447  0.1279  1.5309  0.6737
  706MOL0     C93115   8.705   8.313   1.328 -0.5436 -1.2248 -0.5983
  706MOL0     C93116   8.805   8.215   1.301 -0.9150  0.7613  0.3615
  706MOL0     C93117   8.810   8.117   1.400 -0.2163 -0.6447 -0.8035
  706MOL0     O93118   8.905   8.022   1.396 -0.5648 -0.9699 -0.3533
  706MOL0     C93119   8.860   7.888   1.387  0.2194  0.3310  0.6581
  706MOL0     C93120   8.966   7.792   1.342 -0.1070  0.4954 -0.6525
  706MOL0     C93121   8.901   7.648   1.331  0.0567 -0.3509  0.0113
  706MOL0     C93122   8.999   7.535   1.291  0.1825  1.3201 -0.3301
  706MOL0     C93123   9.118   7.527   1.377  0.9887  0.3073 -0.0571
  706MOL0     C93124   9.215   7.509   1.450 -0.9537  1.1480  0.7971
  706MOL0     C93125   8.734   8.125   1.519  0.0829  0.7180 -0.4146
  706MOL0     C93126   8.640   8.228   1.541  0.5526  0.3499 -0.4826
  706MOL0     H93127   8.455   8.655   1.191 -1.1151 -1.2787  0.4463
  706MOL0     H93128   8.310   8.859   1.151 -0.6667 -1.3798  0.2368
  706MOL0     H93129   8.069   8.958   1.192  0.1611 -0.9258  2.2034
  706MOL0     H93130   8.208   9.060   1.172  1.4046 -0.6231  1.6946
  706MOL0     H93131   7.956   9.124   1.342 -2.8925  2.1353 -2.1058
  706MOL0     H93132   7.985   9.186   1.190 -2.3037 -2.5511  0.4682
  706MOL0     H93133   8.208   9.272   1.255 -1.1462  2.4384  0.2654
  706MOL0     H93134   8.179   9.229   1.424  0.5851  1.7162  0.5130
  706MOL0     H93135   7.972   9.398   1.288  1.1647  0.3821  0.0805
  706MOL0     H93136   8.008   9.389   1.462 -3.7826 -1.4324 -1.5140
  706MOL0     H93137   8.242   9.498   1.350 -0.4116 -1.2201 -1.5092
  706MOL0     H93138   8.127   9.562   1.459  3.2680  0.8330 -0.3441
  706MOL0     H93139   8.145   9.712   1.264  1.4891 -1.1723 -2.5628
  706MOL0     H93140   7.981   9.640   1.263 -0.8765  1.1143 -0.5641
  706MOL0     H93141   8.229   9.587   1.079 -0.5158 -0.5082 -2.3534
  706MOL0     H93142   8.128   9.452   1.116  1.5487  0.5487  3.4306
  706MOL0     H93143   7.932   9.560   1.034 -0.8304  0.1827  1.5435
  706MOL0     H93144   8.046   9.517   0.912  0.6554 -1.1708  0.5062
  706MOL0     H93145   7.816   9.754   0.934  0.4869 -1.1223  0.5104
  706MOL0     H93146   7.776   9.949   0.750 -0.9354  1.5869  0.2581
  706MOL0     H93147   7.921  10.014   0.659  1.4663 -1.2129  0.1798
  706MOL0     H93148   7.778  10.101   0.913 -1.3906 -2.4039 -1.3208
  706MOL0     H93149   7.798  10.196   0.777 -0.1020 -0.8232 -1.1725
  706MOL0     H93150   8.044  10.118   0.945  1.4195  0.2280 -0.9543
  706MOL0     H93151   8.037  10.230   0.814  0.4390  0.3484  0.0462
  706MOL0     H93152   8.006  10.356   1.036  0.9233  1.7681 -2.8568
  706MOL0     H93153   7.872  10.247   1.067  0.3990  1.2777 -0.6513
  706MOL0     H93154   7.746  10.614   0.852  0.3188  2.9649  0.1437
  706MOL0     H93155   7.840  10.809   0.772 -2.5351 -1.2463  0.9739
  706MOL0     H93156   8.091  11.059   0.442 -2.8940  0.0054  0.6027
  706MOL0     H93157   8.145  11.292   0.404 -2.0536 -1.2445 -0.0849
  706MOL0     H93158   8.136  11.678   0.635  0.5963  0.0759 -1.1804
  706MOL0     H93159   8.156  11.573   0.765 -0.8635  2.7718 -0.5206
  706MOL0     H93160   7.923  11.476   0.636  1.9246 -0.6607 -0.6637
  706MOL0     H93161   7.914  11.643   0.593 -0.4892  0.5752 -0.1115
  706MOL0     H93162   7.947  11.657   0.888  1.1818 -1.5449  1.1262
  706MOL0     H93163   7.902  11.495   0.856 -3.1205  0.0286  1.6413
  706MOL0     H93164   7.735  11.717   0.742 -4.3094 -0.3513  0.1203
  706MOL0     H93165   7.699  11.550   0.732 -3.3169  1.5989 -0.0062
  706MOL0     H93166   7.764  11.704   0.995 -0.7440 -0.5011 -0.5697
  706MOL0     H93167   7.684  11.547   0.987 -0.5453  0.9200  2.2740
  706MOL0     H93168   7.500  11.691   1.018 -0.7059  2.2048 -0.4460
  706MOL0     H93169   7.498  11.675   0.845 -0.0211  1.2773 -1.5004
  706MOL0     H93170   7.662  11.904   0.979 -0.3892 -1.7292  1.0055
  706MOL0     H93171   7.611  11.885   0.807 -3.1289 -2.9939 -0.0511
  706MOL0     H93172   7.389  11.889   0.861  0.3518 -1.6452 -0.4085
  706MOL0     H93173   7.478  12.046   0.900  0.4240  0.3963  2.7864
  706MOL0     H93174   8.116  11.375   0.814  0.8238 -1.0426  1.5460
  706MOL0     H93175   8.036  11.135   0.857 -1.1003  1.3819 -0.0666
  706MOL0     H93176   8.221  10.622   0.761 -0.3592  0.0687  3.0314
  706MOL0     H93177   8.131  10.411   0.823  0.4945 -0.0366 -1.1834
  706MOL0     H93178   8.242   8.853   1.576 -0.5300 -2.0071  1.5043
  706MOL0     H93179   8.369   8.663   1.610  1.0169 -1.1079 -0.1399
  706MOL0     H93180   8.696   8.386   1.247  1.4908 -0.3936 -0.1443
  706MOL0     H93181   8.860   8.212   1.208  1.0496 -1.9970  1.4880
  706MOL0     H93182   8.779   7.895   1.315 -1.0653 -1.0196  1.9135
  706MOL0     H93183   8.824   7.858   1.486 -0.0043  1.0495  0.7955
  706MOL0     H93184   9.009   7.841   1.254 -0.9256  1.5399 -0.4945
  706MOL0     H93185   9.034   7.780   1.427 -1.4837  0.7530  0.5167
  706MOL0     H93186   8.823   7.655   1.254 -1.1485 -0.4690  1.1987
  706MOL0     H93187   8.853   7.609   1.421  3.6331  0.1614  2.3547
  706MOL0     H93188   8.936   7.446   1.287 -1.8667  2.4854  2.4555
  706MOL0     H93189   9.036   7.544   1.189  2.6477  0.2103  0.3925
  706MOL0     H93190   9.285   7.512   1.531 -1.0479  1.6965  0.8625
  706MOL0     H93191   8.744   8.049   1.596  3.0810  2.4972  1.1620
  706MOL0     H93192   8.581   8.228   1.632  0.1097  0.5059 -0.7703
  707MOL0     O93193   9.362   7.753  10.115 -0.5019  0.2237 -0.5548
  707MOL0     C93194   9.338   7.633  10.116  0.8896 -0.2632  1.1147
  707MOL0     O93195   9.401   7.534  10.050 -0.7736 -0.2180 -0.1362
  707MOL0     C93196   9.511   7.541   9.969 -0.0981  0.1987  0.5605
  707MOL0     C93197   9.582   7.660   9.937  0.5519  0.0633 -0.8383
  707MOL0     C93198   9.692   7.652   9.858  0.3471  0.6707 -0.7174
  707MOL0     C93199   9.745   7.525   9.809 -0.2037 -0.1672  1.5307
  707MOL0     O93200   9.853   7.514   9.727 -0.0201  0.8834  0.6714
  707MOL0     C93201   9.926   7.622   9.688 -0.6043  0.3318 -0.4359
  707MOL0     C93202  10.014   7.564   9.576  0.4466 -0.5965 -0.5323
  707MOL0     C93203   9.942   7.540   9.439 -0.0499  0.1649  0.0113
  707MOL0     C93204  10.036   7.517   9.322  0.0192  0.2798  0.5800
  707MOL0     C93205   9.966   7.570   9.193 -0.6743  0.6129  0.4669
  707MOL0     C93206  10.054   7.515   9.066  0.0039 -0.3901  0.5186
  707MOL0     C93207   9.967   7.511   8.939  0.9736 -0.8794  0.0461
  707MOL0     C93208  10.042   7.484   8.810 -0.8377 -0.2796 -0.0927
  707MOL0     N93209  10.152   7.586   8.775 -0.1870 -0.3618  1.2754
  707MOL0     C93210  10.142   7.719   8.785 -0.5996  0.1677 -0.4698
  707MOL0     C93211  10.262   7.767   8.761 -0.0740 -0.0687 -0.3547
  707MOL0     C93212  10.312   7.905   8.802  0.9051 -0.6623  0.1698
  707MOL0     C93213  10.201   8.006   8.815 -0.4558  0.1870 -0.6952
  707MOL0     C93214  10.277   8.138   8.833  0.2473  0.4516 -0.2858
  707MOL0     C93215  10.190   8.239   8.921 -0.7366  0.4105 -1.0293
  707MOL0     O93216  10.270   8.357   8.941  0.2895  0.5031 -0.5746
  707MOL0     C93217  10.386   8.364   9.017  0.7382  0.4174 -0.1218
  707MOL0     C93218  10.431   8.271   9.113  0.7503 -0.2312 -1.3704
  707MOL0     C93219  10.534   8.300   9.195  0.1325 -0.1635  0.5503
  707MOL0     C93220  10.617   8.425   9.173  0.5824 -0.9808 -0.0533
  707MOL0     C93221  10.739   8.440   9.257 -0.9356  0.0183 -0.6431
  707MOL0     O93222  10.757   8.360   9.370  0.1500  0.0427  0.8716
  707MOL0     C93223  10.880   8.359   9.435  0.0786 -0.1207 -0.1759
  707MOL0     C93224  10.886   8.383   9.570 -0.3527  0.5819  0.0246
  707MOL0     C93225  11.005   8.405   9.636 -0.4684 -0.1291 -0.3262
  707MOL0     C93226  11.125   8.395   9.573 -0.3451 -0.8408 -0.4884
  707MOL0     O93227  11.242   8.413   9.644 -0.4508  0.2959 -0.7282
  707MOL0     C93228  11.343   8.316   9.606 -0.8701 -0.3270 -0.3179
  707MOL0     C93229  11.475   8.382   9.674  0.7303 -0.0819 -0.3098
  707MOL0     C93230  11.494   8.539   9.683 -0.2396  0.6059 -0.2015
  707MOL0     C93231  11.508   8.574   9.835 -0.0459 -0.6225 -0.6844
  707MOL0     C93232  11.649   8.567   9.911 -0.3880  0.1057 -0.5781
  707MOL0     C93233  11.764   8.654   9.855 -0.0868 -1.1304  0.2900
  707MOL0     C93234  11.901   8.641   9.916  0.3276  0.8367  0.1590
  707MOL0     C93235  12.001   8.711   9.829 -0.8558 -0.2514  0.1234
  707MOL0    Cl93236  12.149   8.733   9.919 -0.0241 -0.4240  0.1250
  707MOL0     C93237  11.120   8.370   9.436 -0.0430  0.0441 -0.5281
  707MOL0     C93238  11.001   8.353   9.364 -0.0713 -0.2274  0.0090
  707MOL0     O93239  10.821   8.517   9.212  0.4451  1.0172  0.0118
  707MOL0     C93240  10.575   8.511   9.065  0.6803  0.5299 -0.4613
  707MOL0     C93241  10.452   8.480   9.000 -0.4930  0.1035  0.3871
  707MOL0     N93242  10.348   7.666   8.723  0.0923 -0.6809 -0.4297
  707MOL0     N93243  10.286   7.553   8.739  0.5629 -1.0088 -0.2850
  707MOL0     C93244   9.684   7.418   9.850 -1.0220 -0.2188  1.0325
  707MOL0     C93245   9.565   7.419   9.922  0.6435  0.3734 -0.0499
  707MOL0     C93246   9.218   7.591  10.191 -0.0342 -0.0883  0.9178
  707MOL0     C93247   9.157   7.470  10.153  0.3130 -0.2423  0.8448
  707MOL0     C93248   9.054   7.412  10.222  0.5779 -0.9408  0.3270
  707MOL0     C93249   9.006   7.467  10.341 -0.1380 -0.3030 -0.6996
  707MOL0     O93250   8.913   7.407  10.433  0.2011  0.3362  0.4405
  707MOL0     C93251   8.861   7.274  10.407  0.6328 -0.5768 -0.0014
  707MOL0     C93252   8.837   7.207  10.547 -0.1119  0.2602 -1.2721
  707MOL0     C93253   8.714   7.265  10.628  0.8969 -0.1127  0.8549
  707MOL0     C93254   8.674   7.412  10.594  0.0652 -0.0470 -0.6044
  707MOL0     C93255   8.758   7.509  10.670 -0.4800 -0.4535  0.1434
  707MOL0     C93256   8.825   7.601  10.714 -0.8106 -0.2228 -0.7249
  707MOL0     C93257   9.050   7.600  10.372 -0.6173 -0.0093 -0.4912
  707MOL0     C93258   9.161   7.655  10.308  0.1234 -0.2529  0.4710
  707MOL0     H93259   9.559   7.753   9.988  1.9286  1.9653 -3.4045
  707MOL0     H93260   9.746   7.744   9.839 -1.5048  1.5840 -1.9291
  707MOL0     H93261   9.997   7.654   9.765  0.3641 -1.5763 -0.4762
  707MOL0     H93262   9.862   7.705   9.657  1.8504  0.8428 -4.8781
  707MOL0     H93263  10.059   7.476   9.624  3.1321  0.4148 -1.0351
  707MOL0     H93264  10.083   7.648   9.563 -0.8809  0.6295 -0.0510
  707MOL0     H93265   9.871   7.622   9.425  1.3847  1.4424 -0.0445
  707MOL0     H93266   9.873   7.455   9.445  0.2319  0.0175  2.0207
  707MOL0     H93267  10.130   7.573   9.331 -1.3559  2.7275  0.5751
  707MOL0     H93268  10.059   7.412   9.299 -0.0447  0.6035 -1.1266
  707MOL0     H93269   9.965   7.680   9.191  0.8124  0.6419 -1.6572
  707MOL0     H93270   9.869   7.521   9.178 -0.5037 -0.0023  1.2995
  707MOL0     H93271  10.092   7.413   9.078  0.3467 -0.5131 -1.3432
  707MOL0     H93272  10.145   7.574   9.049  1.1644 -2.5665 -1.2016
  707MOL0     H93273   9.889   7.434   8.946 -0.3397 -0.0671 -3.2864
  707MOL0     H93274   9.905   7.602   8.939  0.6939 -1.0661 -0.1375
  707MOL0     H93275   9.968   7.476   8.729 -3.0412 -2.5522  1.9543
  707MOL0     H93276  10.095   7.388   8.814 -0.0063  0.2049  3.2412
  707MOL0     H93277  10.058   7.774   8.826 -2.3341 -0.4057 -3.0254
  707MOL0     H93278  10.384   7.937   8.726 -0.8477  1.0851 -0.8714
  707MOL0     H93279  10.367   7.910   8.896  3.6726  1.3949 -1.3909
  707MOL0     H93280  10.143   7.987   8.906 -0.2560 -0.8502 -0.7680
  707MOL0     H93281  10.126   8.008   8.736 -0.8278 -4.9654 -0.8082
  707MOL0     H93282  10.378   8.122   8.870  1.1955  0.4076 -2.7058
  707MOL0     H93283  10.288   8.191   8.738 -0.6269  1.0283 -0.0847
  707MOL0     H93284  10.155   8.203   9.019 -0.6565  0.3964 -1.0069
  707MOL0     H93285  10.101   8.264   8.863 -1.9000  1.7188  1.1760
  707MOL0     H93286  10.395   8.168   9.115 -1.6898  0.5533 -0.2171
  707MOL0     H93287  10.562   8.223   9.265 -0.8650  0.5447  1.7704
  707MOL0     H93288  10.796   8.386   9.631  0.7716  0.3082  1.7661
  707MOL0     H93289  10.999   8.438   9.740  1.2476 -0.5523 -0.0731
  707MOL0     H93290  11.363   8.311   9.499 -0.3505  0.6935 -0.2801
  707MOL0     H93291  11.322   8.222   9.657  0.8903 -0.1887  0.7346
  707MOL0     H93292  11.556   8.336   9.617  3.1192  0.5113  2.3682
  707MOL0     H93293  11.491   8.334   9.771 -2.3032 -2.4291 -0.8034
  707MOL0     H93294  11.405   8.595   9.654 -1.1245 -1.1867 -1.0755
  707MOL0     H93295  11.587   8.562   9.630 -0.3429 -1.7997 -1.5477
  707MOL0     H93296  11.486   8.681   9.841 -1.9936 -1.0438  1.6337
  707MOL0     H93297  11.424   8.523   9.883 -0.2358  0.2113 -0.1170
  707MOL0     H93298  11.687   8.464   9.915  1.1368  0.6907  2.0215
  707MOL0     H93299  11.636   8.615  10.008  2.8517  0.9117 -0.4544
  707MOL0     H93300  11.736   8.759   9.864 -0.6831 -1.4267  2.5772
  707MOL0     H93301  11.778   8.635   9.748  2.1709 -3.8695  0.9580
  707MOL0     H93302  11.909   8.681  10.017 -0.8307 -3.3052  2.1155
  707MOL0     H93303  11.920   8.533   9.925  2.3439  1.0334 -1.0614
  707MOL0     H93304  11.963   8.805   9.787 -0.3947 -0.3224 -0.4571
  707MOL0     H93305  12.021   8.646   9.744  1.4146  0.0322  0.3884
  707MOL0     H93306  11.211   8.370   9.376  1.5995 -2.5611  1.7085
  707MOL0     H93307  11.007   8.344   9.256  0.1075  0.1040 -0.0104
  707MOL0     H93308  10.625   8.603   9.038  0.4141  0.5097 -1.0301
  707MOL0     H93309  10.402   8.543   8.927 -0.0226 -1.5504 -1.4754
  707MOL0     H93310   9.737   7.324   9.831 -2.8751 -1.0106 -0.6699
  707MOL0     H93311   9.502   7.338   9.957 -0.3138  0.6697 -1.0369
  707MOL0     H93312   9.198   7.423  10.064 -0.9027 -2.0681  1.2112
  707MOL0     H93313   9.015   7.317  10.189  2.3425 -1.7982  0.5886
  707MOL0     H93314   8.926   7.212  10.346  1.0492 -0.0464 -0.1030
  707MOL0     H93315   8.769   7.288  10.350  1.5027 -0.3047 -1.3806
  707MOL0     H93316   8.830   7.100  10.526  0.7695 -0.2636  0.8362
  707MOL0     H93317   8.926   7.214  10.610 -0.7188 -2.1911 -0.0328
  707MOL0     H93318   8.738   7.255  10.734  1.8219  0.9099  0.7668
  707MOL0     H93319   8.625   7.203  10.617  0.5130  0.4009  0.9888
  707MOL0     H93320   8.684   7.418  10.485  0.6600 -2.2547 -0.7134
  707MOL0     H93321   8.569   7.416  10.626 -0.4809  0.7078 -2.3499
  707MOL0     H93322   8.899   7.667  10.754  0.7142 -0.9211 -2.2819
  707MOL0     H93323   8.997   7.662  10.444 -1.2756  2.4950 -2.9620
  707MOL0     H93324   9.205   7.750  10.337  0.6629  0.0445 -1.2009
  708MOL0     O93325   5.372  10.361  10.403  0.1387 -0.1421  0.2746
  708MOL0     C93326   5.320  10.260  10.442 -0.2706  0.3192  1.0629
  708MOL0     O93327   5.216  10.188  10.375  0.2630  0.4059 -0.3935
  708MOL0     C93328   5.142  10.240  10.274 -0.2213  0.7927  0.6995
  708MOL0     C93329   5.081  10.148  10.181 -0.3158  0.5110  0.6763
  708MOL0     C93330   4.995  10.203  10.082 -1.0445 -0.6021  1.1879
  708MOL0     C93331   4.985  10.343  10.061  0.5895  0.3926  0.4961
  708MOL0     O93332   4.914  10.383   9.946  0.1690  0.1639  0.1014
  708MOL0     C93333   4.961  10.506   9.892  0.1843  0.1316 -0.2092
  708MOL0     C93334   4.890  10.550   9.761  0.7623  0.5409 -0.4934
  708MOL0     C93335   4.763  10.625   9.793  0.8104 -0.5940 -1.2104
  708MOL0     C93336   4.706  10.672   9.655  0.1824 -0.3097 -0.9720
  708MOL0     C93337   4.575  10.753   9.687  0.0666  0.2593  0.7198
  708MOL0     C93338   4.598  10.881   9.764  0.2400  0.0558  0.5101
  708MOL0     C93339   4.474  10.963   9.754  0.5714  0.9422  0.2441
  708MOL0     C93340   4.470  11.066   9.856 -0.5623 -0.1734 -0.0509
  708MOL0     N93341   4.355  11.158   9.847 -0.0095 -1.3188  0.3277
  708MOL0     C93342   4.282  11.209   9.955  0.7450 -1.2992  0.3482
  708MOL0     C93343   4.220  11.321   9.898  0.1231  0.2580 -0.1770
  708MOL0     C93344   4.099  11.400   9.958 -0.2439  0.6031  0.3012
  708MOL0     C93345   3.969  11.400   9.872 -0.4409  0.8454 -0.2495
  708MOL0     C93346   3.858  11.464   9.962  0.5654 -0.3883 -0.0779
  708MOL0     C93347   3.706  11.430   9.922  0.2795  0.0904 -0.6132
  708MOL0     O93348   3.679  11.297   9.958  0.1367 -0.4198  0.1705
  708MOL0     C93349   3.660  11.284  10.094  0.0653 -0.4918  0.4829
  708MOL0     C93350   3.648  11.147  10.122  0.4988 -0.5537  0.4653
  708MOL0     C93351   3.604  11.113  10.248  0.0221  0.0072  0.3246
  708MOL0     C93352   3.597  11.222  10.351 -0.0704  1.1887 -0.5437
  708MOL0     C93353   3.577  11.180  10.491  0.4564  0.0864  0.5539
  708MOL0     O93354   3.613  11.054  10.534  0.2577  0.3178 -0.0190
  708MOL0     C93355   3.607  11.027  10.667  0.6672 -0.2446 -1.2499
  708MOL0     C93356   3.485  11.002  10.726  0.9180  0.2918  0.8419
  708MOL0     C93357   3.462  10.964  10.855 -0.1567 -1.4476  0.1140
  708MOL0     C93358   3.579  10.948  10.929 -0.0255  0.8202  0.0652
  708MOL0     O93359   3.573  10.912  11.065  0.5542 -0.3450 -0.0737
  708MOL0     C93360   3.483  10.990  11.147  0.1642 -0.8452  0.7003
  708MOL0     C93361   3.543  10.964  11.284  0.7470  0.2165 -0.4921
  708MOL0     C93362   3.448  11.022  11.394  0.4274  0.6679  0.2233
  708MOL0     C93363   3.515  11.004  11.525  0.5062 -0.6761  0.7448
  708MOL0     C93364   3.487  10.873  11.590 -0.0674  0.4658 -0.0891
  708MOL0     C93365   3.412  10.896  11.720 -0.0305  0.3881 -1.0222
  708MOL0     C93366   3.266  10.934  11.699 -0.3944  0.2795 -0.0651
  708MOL0     C93367   3.186  10.940  11.833  0.8435  0.3051 -0.4075
  708MOL0    Cl93368   3.231  11.029  11.986  0.1152 -0.6418 -0.8212
  708MOL0     C93369   3.705  10.947  10.866 -0.1129 -0.7506 -0.2115
  708MOL0     C93370   3.723  10.987  10.734  1.2684 -0.7440  0.6546
  708MOL0     O93371   3.530  11.264  10.558  0.8951  0.4467 -0.6504
  708MOL0     C93372   3.615  11.352  10.323 -0.2559 -0.0018  0.5010
  708MOL0     C93373   3.646  11.383  10.190 -0.3612 -0.6292  0.7441
  708MOL0     N93374   4.261  11.338   9.774 -0.1929  0.1781 -0.3186
  708MOL0     N93375   4.346  11.246   9.738  0.5926  0.1789 -0.1708
  708MOL0     C93376   5.043  10.433  10.159 -0.2531  0.1814  0.0335
  708MOL0     C93377   5.122  10.383  10.265  0.7866 -0.6314  0.1050
  708MOL0     C93378   5.374  10.204  10.567  0.3855 -0.1618  0.3108
  708MOL0     C93379   5.482  10.274  10.629 -0.3185  1.0778 -0.3976
  708MOL0     C93380   5.538  10.225  10.748 -0.0337 -1.0704  0.0569
  708MOL0     C93381   5.505  10.104  10.803  0.5918 -0.5711  0.4995
  708MOL0     O93382   5.568  10.055  10.918  0.2995 -0.5431 -0.6685
  708MOL0     C93383   5.560  10.135  11.039 -0.2036 -0.6131  0.5973
  708MOL0     C93384   5.420  10.198  11.067 -0.2217  0.3121 -0.4080
  708MOL0     C93385   5.314  10.098  11.125 -0.2513  0.6133 -0.1153
  708MOL0     C93386   5.168  10.169  11.116  0.3551  0.7008 -0.5393
  708MOL0     C93387   5.065  10.076  11.178 -0.1945 -0.4176 -0.3605
  708MOL0     C93388   4.971  10.017  11.225  0.1338 -0.1117 -0.8125
  708MOL0     C93389   5.393  10.039  10.749 -0.6490  0.4597  0.2532
  708MOL0     C93390   5.337  10.081  10.629  0.1413 -0.4887  0.5817
  708MOL0     H93391   5.100  10.044  10.204 -0.0404  0.8237  1.8953
  708MOL0     H93392   4.930  10.145  10.018 -1.5964  2.8807 -1.7435
  708MOL0     H93393   5.069  10.496   9.876  0.7715  0.3296  2.9135
  708MOL0     H93394   4.939  10.579   9.971  1.1610  2.1145 -1.6833
  708MOL0     H93395   4.868  10.462   9.700  3.0817  1.5043 -2.8641
  708MOL0     H93396   4.945  10.623   9.701 -1.1897 -0.1802 -3.3263
  708MOL0     H93397   4.779  10.713   9.856 -0.6087 -1.0614 -0.1517
  708MOL0     H93398   4.696  10.564   9.854 -1.0818  3.1911  0.8806
  708MOL0     H93399   4.770  10.745   9.606 -1.0863  1.9482  0.5362
  708MOL0     H93400   4.682  10.582   9.597  0.8164 -2.9546  2.5217
  708MOL0     H93401   4.511  10.682   9.741  1.7874 -0.8528  1.3818
  708MOL0     H93402   4.522  10.764   9.592 -1.8591 -0.0671  1.7144
  708MOL0     H93403   4.682  10.940   9.725  1.3646 -1.2188  0.9124
  708MOL0     H93404   4.618  10.865   9.870 -1.2915 -2.9223  0.4751
  708MOL0     H93405   4.465  11.016   9.659  1.1348  0.3426 -0.1460
  708MOL0     H93406   4.394  10.890   9.770  0.9817  1.0504  3.6723
  708MOL0     H93407   4.557  11.131   9.864  0.0103 -0.9916  0.6003
  708MOL0     H93408   4.476  11.020   9.955  0.2368 -0.8648 -0.4089
  708MOL0     H93409   4.264  11.180  10.058 -1.1977  2.9532  1.4051
  708MOL0     H93410   4.128  11.502   9.983  2.3079 -0.6767  3.2335
  708MOL0     H93411   4.072  11.350  10.051 -0.8299  0.8710  0.2741
  708MOL0     H93412   3.932  11.304   9.835  0.3873  0.5327 -0.2787
  708MOL0     H93413   3.986  11.459   9.782 -1.5783  1.0592 -0.3501
  708MOL0     H93414   3.878  11.439  10.066 -5.6962  0.0224  1.6276
  708MOL0     H93415   3.851  11.573   9.965  0.7627 -0.3810  0.1062
  708MOL0     H93416   3.695  11.440   9.814  0.6756 -1.1410 -0.7818
  708MOL0     H93417   3.623  11.492   9.958 -1.3080 -0.3700 -3.1872
  708MOL0     H93418   3.665  11.065  10.053  2.3889 -0.2918  0.5649
  708MOL0     H93419   3.605  11.013  10.291  0.6932  0.6650  1.8839
  708MOL0     H93420   3.394  11.023  10.670  0.7455 -0.1671  0.9489
  708MOL0     H93421   3.362  10.956  10.897 -0.5807  3.5179  0.6356
  708MOL0     H93422   3.378  10.960  11.140 -0.5064  1.5846 -1.5610
  708MOL0     H93423   3.501  11.097  11.131  0.6035 -0.1485  4.7655
  708MOL0     H93424   3.637  11.019  11.292  0.0475  1.4725 -0.6176
  708MOL0     H93425   3.548  10.859  11.312 -1.2678  0.5094  1.2539
  708MOL0     H93426   3.346  10.982  11.392  0.1632  1.1301  2.4097
  708MOL0     H93427   3.435  11.128  11.367  2.7761  0.4123 -2.3973
  708MOL0     H93428   3.622  11.026  11.520  0.4376 -0.6922 -2.1779
  708MOL0     H93429   3.484  11.090  11.585 -0.6202  0.7360 -1.7235
  708MOL0     H93430   3.583  10.824  11.610 -1.4052 -3.2023 -1.5769
  708MOL0     H93431   3.441  10.805  11.516  1.0838  1.3931 -1.7290
  708MOL0     H93432   3.463  10.965  11.787 -1.7280 -2.3000  3.5099
  708MOL0     H93433   3.416  10.794  11.761  2.6506  0.7893 -0.0878
  708MOL0     H93434   3.271  11.026  11.640 -0.6665 -0.2081 -0.8658
  708MOL0     H93435   3.219  10.862  11.632  0.0040  1.0904 -1.2466
  708MOL0     H93436   3.167  10.836  11.859 -2.7951  0.4685 -1.9037
  708MOL0     H93437   3.095  10.989  11.798  1.1620 -0.2864 -2.1957
  708MOL0     H93438   3.793  10.903  10.913  1.1059 -1.7039 -3.1695
  708MOL0     H93439   3.818  10.976  10.683  0.1284 -1.9326 -1.3853
  708MOL0     H93440   3.590  11.431  10.394 -2.8358 -0.5270  0.2796
  708MOL0     H93441   3.664  11.486  10.160  1.8445 -0.9815  0.6958
  708MOL0     H93442   5.030  10.540  10.156 -0.0390  0.2279  0.6159
  708MOL0     H93443   5.159  10.457  10.334 -2.1535  0.3915  0.7396
  708MOL0     H93444   5.543  10.354  10.588 -0.2701  1.5844  0.6238
  708MOL0     H93445   5.627  10.277  10.782  0.6836 -3.0775  1.4811
  708MOL0     H93446   5.631  10.219  11.035 -0.0971 -0.7310 -0.3997
  708MOL0     H93447   5.569  10.076  11.130  0.0687  0.7665  1.4936
  708MOL0     H93448   5.438  10.258  11.156 -0.1383 -0.2180 -0.0586
  708MOL0     H93449   5.399  10.258  10.979  4.2292 -2.1957 -3.5872
  708MOL0     H93450   5.341  10.069  11.227  2.5495 -3.5572 -1.7461
  708MOL0     H93451   5.318  10.000  11.076  0.1239  0.1350  0.8465
  708MOL0     H93452   5.171  10.258  11.180  0.1172  0.3832 -0.0770
  708MOL0     H93453   5.129  10.187  11.016 -1.2267 -3.9956 -1.0137
  708MOL0     H93454   4.892   9.952  11.257  0.9970 -1.8715 -2.0454
  708MOL0     H93455   5.353   9.961  10.814  0.0657 -1.0988 -1.1064
  708MOL0     H93456   5.248  10.031  10.595  1.4039 -1.6851 -1.0930
  709MOL0     O93457   2.847   6.820   6.635  0.0099  0.3039  0.3683
  709MOL0     C93458   2.858   6.719   6.702 -0.2083 -0.9325  0.6414
  709MOL0     O93459   2.780   6.681   6.807  0.1336  0.4632  0.1504
  709MOL0     C93460   2.677   6.762   6.840 -0.5022  0.4205 -0.0875
  709MOL0     C93461   2.699   6.882   6.907  0.4470  0.2093 -0.4440
  709MOL0     C93462   2.597   6.974   6.941  0.2486 -0.1910  1.4591
  709MOL0     C93463   2.458   6.950   6.901 -1.4481  0.8827  0.2743
  709MOL0     O93464   2.363   7.046   6.908 -0.0820 -0.1058 -0.1761
  709MOL0     C93465   2.379   7.134   7.024 -1.1057  0.2054 -0.1527
  709MOL0     C93466   2.260   7.222   7.062 -0.0698 -0.2639 -0.4482
  709MOL0     C93467   2.141   7.147   7.125  0.4596  0.0801 -0.5282
  709MOL0     C93468   2.070   7.067   7.014 -0.3122  1.2335 -0.9768
  709MOL0     C93469   1.980   7.146   6.916  0.2419  0.0703 -0.1694
  709MOL0     C93470   1.906   7.052   6.825 -0.8349 -0.8627  1.4991
  709MOL0     C93471   1.982   6.955   6.743  0.4851 -0.3487 -0.0607
  709MOL0     C93472   1.914   6.928   6.606 -0.6158  0.4187 -0.6269
  709MOL0     N93473   1.966   6.795   6.565 -0.8859 -0.2718 -0.5828
  709MOL0     C93474   2.104   6.761   6.529  1.0051 -0.4160  0.4229
  709MOL0     C93475   2.091   6.628   6.515 -0.7262 -0.1831  0.0545
  709MOL0     C93476   2.208   6.540   6.495  0.2882  0.5706  0.5389
  709MOL0     C93477   2.242   6.484   6.628  0.5233 -0.6360 -1.0586
  709MOL0     C93478   2.391   6.439   6.616  0.5674 -0.2616  0.4117
  709MOL0     C93479   2.435   6.357   6.738 -0.1350  1.2425 -0.1790
  709MOL0     O93480   2.569   6.302   6.731  0.2770  0.4548  0.0983
  709MOL0     C93481   2.598   6.216   6.832 -0.1026  0.2030 -0.2905
  709MOL0     C93482   2.723   6.148   6.822  0.0286 -1.1912  1.2529
  709MOL0     C93483   2.779   6.064   6.916  0.8808 -0.3434  0.5299
  709MOL0     C93484   2.719   6.054   7.040  0.5799  0.3200 -0.0577
  709MOL0     C93485   2.776   5.963   7.148  0.5034  1.1501 -0.7408
  709MOL0     O93486   2.718   5.962   7.278  0.6126  0.0243  1.0491
  709MOL0     C93487   2.766   6.049   7.373 -0.0997 -0.1217 -0.6640
  709MOL0     C93488   2.894   6.101   7.380  0.2741  0.6339 -0.3736
  709MOL0     C93489   2.939   6.179   7.486  0.2062  0.0417 -0.7288
  709MOL0     C93490   2.849   6.214   7.586 -0.0944 -0.4792  0.1692
  709MOL0     O93491   2.906   6.282   7.693  0.1006  0.3841  0.0288
  709MOL0     C93492   2.873   6.234   7.825  0.3637 -0.9839  0.8880
  709MOL0     C93493   2.801   6.338   7.906  0.9355 -0.2921  1.3989
  709MOL0     C93494   2.733   6.273   8.021  0.1942  0.4975 -0.3851
  709MOL0     C93495   2.633   6.364   8.100 -0.3130 -0.0464 -1.2286
  709MOL0     C93496   2.702   6.464   8.190  0.4504  0.4255 -0.3305
  709MOL0     C93497   2.599   6.535   8.272 -0.4455 -0.1573  0.2405
  709MOL0     C93498   2.544   6.447   8.377 -0.0370  0.7750  0.4255
  709MOL0     C93499   2.498   6.524   8.496 -0.0898  0.2554  1.0823
  709MOL0    Cl93500   2.630   6.573   8.600 -0.4040  0.1596 -0.3839
  709MOL0     C93501   2.712   6.170   7.588 -0.3459 -0.8871  0.3603
  709MOL0     C93502   2.679   6.084   7.486 -0.6183 -0.1199 -0.2332
  709MOL0     O93503   2.868   5.884   7.112 -0.1674 -0.2345 -0.1966
  709MOL0     C93504   2.589   6.108   7.060  1.0356  0.5510  1.0533
  709MOL0     C93505   2.533   6.189   6.956 -0.1840  0.4708  0.2846
  709MOL0     N93506   1.962   6.576   6.544  0.0771 -0.2379  0.2232
  709MOL0     N93507   1.894   6.688   6.586  0.3719 -0.4703  0.2783
  709MOL0     C93508   2.438   6.823   6.840 -0.1878 -0.1449 -0.4631
  709MOL0     C93509   2.545   6.734   6.815  0.1707  0.5685  0.2755
  709MOL0     C93510   2.971   6.626   6.679  0.0602 -0.6954  0.2223
  709MOL0     C93511   2.971   6.497   6.724  1.2612 -0.4758 -0.7530
  709MOL0     C93512   3.073   6.404   6.702 -0.5551  0.5081  0.2752
  709MOL0     C93513   3.188   6.442   6.633 -0.0909  0.5692 -0.6374
  709MOL0     O93514   3.294   6.365   6.596 -0.0814  0.4057  0.0748
  709MOL0     C93515   3.287   6.220   6.641  0.1252 -0.4078 -0.1612
  709MOL0     C93516   3.336   6.212   6.788 -0.1594  0.1258 -0.2060
  709MOL0     C93517   3.324   6.070   6.849  0.1787  0.0802 -0.8118
  709MOL0     C93518   3.359   6.085   6.998 -0.0710  0.1332 -0.4419
  709MOL0     C93519   3.240   6.135   7.081  0.7791  0.5725  0.1324
  709MOL0     C93520   3.149   6.180   7.144  0.0281  0.2601 -0.2146
  709MOL0     C93521   3.189   6.572   6.589  0.8747  0.6669  0.7402
  709MOL0     C93522   3.090   6.661   6.612 -0.0639  0.1902 -0.4578
  709MOL0     H93523   2.804   6.905   6.922  0.0521  1.5660  0.3448
  709MOL0     H93524   2.631   7.067   6.987 -0.0314 -0.7511  2.8225
  709MOL0     H93525   2.463   7.200   7.003  0.7839 -0.3895  4.3627
  709MOL0     H93526   2.406   7.078   7.114  1.4598 -0.1874 -1.0970
  709MOL0     H93527   2.235   7.278   6.971 -1.2052  0.5452  0.3379
  709MOL0     H93528   2.304   7.296   7.129  0.3805  2.2562 -3.2709
  709MOL0     H93529   2.069   7.217   7.170 -0.8551 -1.0366 -0.8079
  709MOL0     H93530   2.171   7.083   7.209 -3.9977 -1.3743  0.2311
  709MOL0     H93531   2.142   7.001   6.965 -2.7368 -0.2329 -2.7911
  709MOL0     H93532   2.006   6.998   7.068  1.4349  0.2608 -0.0595
  709MOL0     H93533   2.043   7.220   6.865 -0.1499 -0.6756 -1.8129
  709MOL0     H93534   1.908   7.214   6.962 -1.3043  1.1852 -3.8441
  709MOL0     H93535   1.847   7.120   6.763  1.7951  0.1123 -0.0994
  709MOL0     H93536   1.836   6.998   6.891  1.4480 -3.9674  1.5785
  709MOL0     H93537   2.085   6.987   6.724  1.5262 -2.3946  1.7087
  709MOL0     H93538   1.983   6.864   6.804  0.5721 -0.9991 -1.0145
  709MOL0     H93539   1.945   7.001   6.531  0.1020 -1.1113 -1.8916
  709MOL0     H93540   1.805   6.929   6.607 -0.6452  3.0157 -0.1322
  709MOL0     H93541   2.193   6.822   6.535 -0.2307  1.4928  0.0746
  709MOL0     H93542   2.290   6.594   6.447  0.2572  0.5965  0.5139
  709MOL0     H93543   2.179   6.471   6.415  1.7085  2.3823 -1.6452
  709MOL0     H93544   2.176   6.402   6.656  0.6487 -0.6877 -0.9147
  709MOL0     H93545   2.235   6.559   6.707  1.4003  0.2862 -1.8327
  709MOL0     H93546   2.398   6.381   6.524 -3.3821  2.4790 -1.9043
  709MOL0     H93547   2.457   6.521   6.587 -1.0986  1.3764  1.0389
  709MOL0     H93548   2.374   6.266   6.738  3.0627 -1.0756 -0.7127
  709MOL0     H93549   2.424   6.414   6.831 -0.8588  0.0097  0.5182
  709MOL0     H93550   2.790   6.158   6.737 -2.0001  1.3164 -0.2001
  709MOL0     H93551   2.864   5.999   6.900 -0.4107 -1.9595 -0.0882
  709MOL0     H93552   2.965   6.074   7.303  0.9584  0.9907  0.1226
  709MOL0     H93553   3.040   6.215   7.503 -1.2293  4.4938 -0.1859
  709MOL0     H93554   2.965   6.211   7.881  1.1297  1.7339  0.8884
  709MOL0     H93555   2.796   6.156   7.820 -4.3974  3.2157  0.8669
  709MOL0     H93556   2.730   6.388   7.841  0.1169 -1.0744  1.6688
  709MOL0     H93557   2.878   6.403   7.949  1.0129  0.6277 -0.0801
  709MOL0     H93558   2.815   6.252   8.090  2.0736  1.9251 -2.0616
  709MOL0     H93559   2.677   6.182   7.996 -1.7047  1.6247 -0.4244
  709MOL0     H93560   2.566   6.411   8.028 -2.2146 -1.2068 -0.2957
  709MOL0     H93561   2.575   6.297   8.164 -0.6899  2.3674  1.1698
  709MOL0     H93562   2.757   6.540   8.134 -0.8699  1.6562 -0.0304
  709MOL0     H93563   2.770   6.404   8.250 -1.3298 -1.2265  0.1481
  709MOL0     H93564   2.516   6.577   8.214  1.9559  5.2737  0.1546
  709MOL0     H93565   2.650   6.621   8.317 -0.8848  1.6266 -2.4319
  709MOL0     H93566   2.456   6.395   8.338 -0.1590 -0.2899  2.0055
  709MOL0     H93567   2.616   6.369   8.404 -1.8430 -1.4142 -0.6972
  709MOL0     H93568   2.430   6.468   8.561 -0.3183  1.7925  2.2128
  709MOL0     H93569   2.436   6.609   8.465  1.9735  1.2285 -0.6884
  709MOL0     H93570   2.643   6.203   7.665 -1.6165 -0.0370 -1.0823
  709MOL0     H93571   2.577   6.048   7.492 -0.3427 -0.8110  0.4951
  709MOL0     H93572   2.526   6.089   7.147 -0.3444  0.5357  0.0789
  709MOL0     H93573   2.432   6.221   6.977 -0.0296  2.0940 -1.1666
  709MOL0     H93574   2.337   6.794   6.816 -0.3271 -1.1443  1.1551
  709MOL0     H93575   2.533   6.639   6.766  0.9223 -0.7689  2.5076
  709MOL0     H93576   2.883   6.467   6.779  3.1016 -0.1288  2.6341
  709MOL0     H93577   3.069   6.304   6.743  2.4579  1.2973  2.8408
  709MOL0     H93578   3.362   6.172   6.577 -0.8870  1.2702 -2.7758
  709MOL0     H93579   3.188   6.175   6.632 -0.2119  0.5041 -1.2325
  709MOL0     H93580   3.441   6.242   6.780  0.4847 -2.3241 -2.5500
  709MOL0     H93581   3.286   6.285   6.852 -1.6757 -0.6699 -0.4319
  709MOL0     H93582   3.391   6.008   6.790 -1.6964 -0.1132 -2.8813
  709MOL0     H93583   3.224   6.031   6.826  0.6540 -1.4847 -0.3059
  709MOL0     H93584   3.398   5.989   7.034 -1.4951 -0.0525  0.7552
  709MOL0     H93585   3.433   6.165   6.997  0.1197  0.0028 -3.1304
  709MOL0     H93586   3.079   6.234   7.204  0.9193 -1.0547  2.1533
  709MOL0     H93587   3.276   6.592   6.527  0.7338 -0.7006  0.0547
  709MOL0     H93588   3.099   6.764   6.580  0.2515  1.0360  2.1415
  710MOL0     O93589   1.239   7.048  10.883  0.3687  1.0222 -0.2034
  710MOL0     C93590   1.225   7.042  10.764  0.6886  0.8192 -0.3481
  710MOL0     O93591   1.108   7.032  10.698 -0.5155 -0.3299 -0.5744
  710MOL0     C93592   0.993   7.004  10.762  1.0292  0.4347  0.1284
  710MOL0     C93593   0.950   7.007  10.900  0.4437 -0.0933  0.1001
  710MOL0     C93594   0.826   6.961  10.940 -0.3942  0.1140 -0.1641
  710MOL0     C93595   0.722   6.933  10.851  0.7337 -0.0030  0.2754
  710MOL0     O93596   0.596   6.899  10.893  0.2796 -0.3381  0.0720
  710MOL0     C93597   0.491   6.888  10.793  0.0139 -0.4126 -1.6850
  710MOL0     C93598   0.354   6.863  10.855 -0.0380 -0.1559  0.9193
  710MOL0     C93599   0.307   6.991  10.924  0.2484 -0.1843 -0.4876
  710MOL0     C93600   0.165   6.982  10.987 -0.4799 -0.5692  0.5864
  710MOL0     C93601   0.149   7.076  11.109  0.5146  0.7860  0.6819
  710MOL0     C93602   0.008   7.089  11.168 -0.2223 -0.4879  0.2978
  710MOL0     C93603  -0.092   7.194  11.097  0.5450  0.1789 -0.7673
  710MOL0     C93604  -0.052   7.339  11.139 -0.3845  0.2394 -0.6068
  710MOL0     N93605  -0.128   7.446  11.065 -0.6593  0.1412  0.4264
  710MOL0     C93606  -0.259   7.467  11.059  0.5643  0.4888 -0.2423
  710MOL0     C93607  -0.282   7.587  10.990  0.3395 -0.0197 -0.7289
  710MOL0     C93608  -0.423   7.633  10.960  0.2083 -0.7749 -0.0433
  710MOL0     C93609  -0.462   7.640  10.809 -0.2698  0.6518  1.1115
  710MOL0     C93610  -0.410   7.523  10.719 -0.1060 -0.8473  0.3928
  710MOL0     C93611  -0.471   7.384  10.757  0.5615  0.3439  0.6263
  710MOL0     O93612  -0.608   7.395  10.728  0.2563 -0.1649  0.9226
  710MOL0     C93613  -0.696   7.324  10.805  0.0024 -0.2601 -0.5269
  710MOL0     C93614  -0.680   7.199  10.856 -0.4938 -0.7290 -0.0335
  710MOL0     C93615  -0.788   7.128  10.915  0.1975  0.5108 -0.7078
  710MOL0     C93616  -0.916   7.188  10.920 -1.3292 -0.3119  0.2010
  710MOL0     C93617  -1.044   7.126  10.971  0.5243 -0.8862 -0.3640
  710MOL0     O93618  -1.018   7.020  11.046  0.2244 -0.0337 -0.3340
  710MOL0     C93619  -1.118   6.980  11.127 -0.1139 -0.4228 -0.5160
  710MOL0     C93620  -1.159   6.844  11.113  0.2819  0.0584  0.4621
  710MOL0     C93621  -1.242   6.787  11.214  0.3151 -0.0576 -0.0220
  710MOL0     C93622  -1.282   6.864  11.321 -0.2704  0.3779  0.5188
  710MOL0     O93623  -1.363   6.814  11.419  0.5894  0.3476  0.7530
  710MOL0     C93624  -1.322   6.690  11.480  0.3466 -0.1257  0.5087
  710MOL0     C93625  -1.420   6.644  11.589  0.0339 -0.4049  0.1147
  710MOL0     C93626  -1.435   6.735  11.718  0.2207  0.8414  0.1552
  710MOL0     C93627  -1.526   6.654  11.817  0.2033 -0.4557  0.3780
  710MOL0     C93628  -1.450   6.563  11.918  0.5513 -0.1264 -0.4584
  710MOL0     C93629  -1.555   6.473  11.987  0.3626  0.0070 -0.4820
  710MOL0     C93630  -1.512   6.428  12.131 -1.4853  0.2443  0.3395
  710MOL0     C93631  -1.627   6.375  12.219  0.4027  0.3232  0.9492
  710MOL0    Cl93632  -1.574   6.288  12.366  0.3270  0.5407  0.1545
  710MOL0     C93633  -1.236   6.994  11.334 -0.6744 -0.7768 -0.1452
  710MOL0     C93634  -1.149   7.053  11.239 -0.8426 -0.3398 -0.1067
  710MOL0     O93635  -1.151   7.190  10.964 -0.0379  0.3215 -0.2987
  710MOL0     C93636  -0.926   7.316  10.861  0.1460  0.0473  0.8804
  710MOL0     C93637  -0.821   7.384  10.806  0.7614  0.4249  0.3819
  710MOL0     N93638  -0.154   7.624  10.946  0.3146  0.0220 -0.8565
  710MOL0     N93639  -0.066   7.535  10.982  0.6981  0.5476  0.1115
  710MOL0     C93640   0.767   6.930  10.716  0.2530  0.0348  0.4913
  710MOL0     C93641   0.894   6.969  10.676 -0.1252  0.2567 -0.3789
  710MOL0     C93642   1.352   7.076  10.692  0.3554 -0.6282  0.3078
  710MOL0     C93643   1.416   6.993  10.600 -0.4966 -0.4293  0.1260
  710MOL0     C93644   1.536   7.037  10.535  0.6230  0.2722  0.2341
  710MOL0     C93645   1.595   7.158  10.571  0.3932 -0.0818  0.0522
  710MOL0     O93646   1.705   7.200  10.500  0.6630  0.3048 -0.1605
  710MOL0     C93647   1.816   7.124  10.548  0.4117  0.1577 -0.4023
  710MOL0     C93648   1.928   7.227  10.574  0.6553  0.0819  0.7069
  710MOL0     C93649   1.897   7.332  10.681  0.2153 -0.8765  0.9197
  710MOL0     C93650   2.026   7.394  10.730  0.2062  0.2695  0.8609
  710MOL0     C93651   2.095   7.312  10.831 -0.6549  0.1732 -0.3184
  710MOL0     C93652   2.161   7.261  10.917 -0.4538 -0.4703 -0.6758
  710MOL0     C93653   1.533   7.248  10.656 -0.1171  0.4410  0.1623
  710MOL0     C93654   1.414   7.204  10.708 -0.3697 -0.4380 -1.0991
  710MOL0     H93655   1.016   7.058  10.969 -0.5493  0.6373  0.5395
  710MOL0     H93656   0.808   6.957  11.047 -0.8851  1.0447 -0.1947
  710MOL0     H93657   0.509   6.800  10.731  0.1223 -0.1152 -2.0782
  710MOL0     H93658   0.500   6.977  10.730  1.1465  1.0230  0.3781
  710MOL0     H93659   0.343   6.777  10.921 -2.3443 -1.6710 -1.2659
  710MOL0     H93660   0.297   6.836  10.766  1.9902  0.3344 -0.6022
  710MOL0     H93661   0.331   7.073  10.855  1.0293 -0.6661 -0.8052
  710MOL0     H93662   0.368   6.994  11.014 -1.4671 -5.4698  1.2230
  710MOL0     H93663   0.092   7.027  10.919 -0.5293 -0.9089  0.4176
  710MOL0     H93664   0.142   6.877  11.005  0.5265 -0.8482  0.3322
  710MOL0     H93665   0.192   7.175  11.091  1.1739  0.2568 -0.8273
  710MOL0     H93666   0.212   7.034  11.188  0.8399  0.5196  0.2847
  710MOL0     H93667   0.017   7.112  11.274 -0.8186 -0.3014  0.3138
  710MOL0     H93668  -0.036   6.988  11.173 -4.0018  1.0552  1.9578
  710MOL0     H93669  -0.083   7.181  10.989 -0.3084 -0.8571 -0.7299
  710MOL0     H93670  -0.190   7.169  11.139  0.7639  3.1789  1.9720
  710MOL0     H93671   0.055   7.350  11.120 -0.4543  1.1958 -0.5006
  710MOL0     H93672  -0.081   7.342  11.245 -0.3462 -1.1206 -0.5463
  710MOL0     H93673  -0.332   7.403  11.108  0.9421 -2.9046 -3.6808
  710MOL0     H93674  -0.438   7.727  11.013  1.9104 -2.7088  4.3679
  710MOL0     H93675  -0.490   7.570  11.020 -1.0921  0.0611 -0.5751
  710MOL0     H93676  -0.413   7.732  10.775  1.0951  0.1254  1.6042
  710MOL0     H93677  -0.568   7.662  10.795 -0.3637 -0.3573  0.0356
  710MOL0     H93678  -0.428   7.551  10.615 -0.4204 -0.8663  0.4428
  710MOL0     H93679  -0.301   7.518  10.726  0.0838  0.2274 -1.3555
  710MOL0     H93680  -0.447   7.369  10.863  1.1569 -1.9685  0.2169
  710MOL0     H93681  -0.415   7.306  10.705 -1.5785 -3.1825  3.1394
  710MOL0     H93682  -0.584   7.153  10.835 -0.0487  0.5515 -0.9857
  710MOL0     H93683  -0.772   7.030  10.958 -1.1151  0.9880  0.9519
  710MOL0     H93684  -1.130   6.783  11.028 -1.7589 -3.2906  1.9821
  710MOL0     H93685  -1.280   6.685  11.206 -1.1808  0.5428 -0.9954
  710MOL0     H93686  -1.220   6.703  11.519 -0.1273 -0.9544  2.1385
  710MOL0     H93687  -1.330   6.616  11.400 -1.0230 -1.0374  1.4344
  710MOL0     H93688  -1.388   6.542  11.615 -0.7434 -0.0683  2.6637
  710MOL0     H93689  -1.516   6.643  11.537  1.0156  1.9742 -1.9145
  710MOL0     H93690  -1.470   6.836  11.692  2.2730  1.4994 -0.2879
  710MOL0     H93691  -1.337   6.752  11.764  0.5214  0.0250 -0.1660
  710MOL0     H93692  -1.595   6.727  11.859  0.7258  1.5300 -1.9906
  710MOL0     H93693  -1.583   6.574  11.769 -0.5888 -1.1219  2.3735
  710MOL0     H93694  -1.401   6.627  11.993 -0.6054  0.0323  0.1758
  710MOL0     H93695  -1.380   6.500  11.862 -0.2450  0.8143 -2.6243
  710MOL0     H93696  -1.575   6.389  11.919 -2.8977  1.2288 -1.2073
  710MOL0     H93697  -1.653   6.521  11.999 -1.1727 -2.8382 -0.6066
  710MOL0     H93698  -1.431   6.355  12.120  0.7993  2.5721  0.5185
  710MOL0     H93699  -1.475   6.518  12.183 -0.2660  1.4123 -2.3686
  710MOL0     H93700  -1.682   6.298  12.164  2.2999 -0.1271 -0.4332
  710MOL0     H93701  -1.686   6.461  12.252  0.4849 -0.2536  2.6976
  710MOL0     H93702  -1.271   7.038  11.427 -1.9008 -0.1359 -0.8770
  710MOL0     H93703  -1.101   7.149  11.252 -2.5290  0.3327  1.6162
  710MOL0     H93704  -1.023   7.359  10.840 -0.3457 -1.2369  0.3730
  710MOL0     H93705  -0.845   7.482  10.768  0.0282 -0.2601 -0.9627
  710MOL0     H93706   0.702   6.900  10.634 -2.2869 -0.2673  2.4767
  710MOL0     H93707   0.921   6.969  10.571 -3.2691  1.2568 -1.2967
  710MOL0     H93708   1.381   6.891  10.588 -1.4255 -0.2247  1.0065
  710MOL0     H93709   1.593   6.988  10.457  0.0298  0.5088 -0.3535
  710MOL0     H93710   1.836   7.048  10.472 -2.3492  0.5498 -1.6243
  710MOL0     H93711   1.814   7.062  10.638  2.4185 -0.0569 -0.4482
  710MOL0     H93712   2.013   7.164  10.603  1.2238 -1.1006 -3.0165
  710MOL0     H93713   1.959   7.280  10.483 -1.3623  2.4955  1.3169
  710MOL0     H93714   1.850   7.283  10.766 -0.4484  1.1065  1.7694
  710MOL0     H93715   1.834   7.414  10.645 -1.3649 -1.2400  2.7184
  710MOL0     H93716   2.104   7.401  10.653  1.2272 -1.3086  1.7019
  710MOL0     H93717   2.011   7.492  10.777  2.1624 -0.1700  2.6012
  710MOL0     H93718   2.212   7.207  10.994  0.3412 -0.4638 -1.1923
  710MOL0     H93719   1.577   7.345  10.678  1.3582 -0.9737  4.5501
  710MOL0     H93720   1.352   7.279  10.757  2.3115  0.8548  0.5420
  711MOL0     O93721   9.669   7.897  11.106  0.6128  0.5264  0.0261
  711MOL0     C93722   9.578   7.958  11.049 -0.4192  0.7125  0.3601
  711MOL0     O93723   9.454   7.941  11.075  0.2157  0.6609 -0.6189
  711MOL0     C93724   9.415   7.857  11.184 -0.3594 -0.7325  0.4344
  711MOL0     C93725   9.432   7.716  11.186 -0.1783  0.5565 -0.1032
  711MOL0     C93726   9.376   7.646  11.296 -0.7770 -0.3292 -0.0159
  711MOL0     C93727   9.313   7.711  11.409 -0.4976 -0.0350  0.3574
  711MOL0     O93728   9.269   7.643  11.518 -0.2473  0.1647 -0.2308
  711MOL0     C93729   9.323   7.513  11.552  0.8870 -0.3722 -0.5524
  711MOL0     C93730   9.471   7.507  11.592 -0.6145 -1.0558  0.7527
  711MOL0     C93731   9.504   7.626  11.694 -0.0003 -0.1709  0.5205
  711MOL0     C93732   9.652   7.650  11.715  0.0342 -0.0029  0.0321
  711MOL0     C93733   9.728   7.705  11.592 -0.4130 -0.2310  0.3506
  711MOL0     C93734   9.823   7.827  11.645  0.6519 -0.4017  0.1648
  711MOL0     C93735   9.890   7.912  11.528 -0.1516  0.6040 -0.2607
  711MOL0     C93736   9.992   7.827  11.449 -0.7265 -0.2626  0.3763
  711MOL0     N93737  10.055   7.923  11.354 -0.2824  0.3947 -0.1911
  711MOL0     C93738   9.999   7.979  11.240  0.4118 -0.3489 -0.2310
  711MOL0     C93739  10.096   8.065  11.193 -1.0188  0.3572 -0.6877
  711MOL0     C93740  10.102   8.144  11.056 -0.8243 -0.2535 -0.0878
  711MOL0     C93741  10.141   8.288  11.058 -0.7694 -0.0994 -0.0426
  711MOL0     C93742  10.100   8.363  10.933  0.0506 -0.2759  0.1552
  711MOL0     C93743  10.147   8.508  10.931 -0.1005  0.0150  0.4976
  711MOL0     O93744  10.113   8.553  10.801 -0.1289 -0.2591  0.3379
  711MOL0     C93745  10.143   8.685  10.774 -0.1646 -0.4130  0.0492
  711MOL0     C93746  10.139   8.798  10.867  0.1835  0.3117  0.2694
  711MOL0     C93747  10.139   8.927  10.823  1.1882 -0.6704  0.0029
  711MOL0     C93748  10.160   8.944  10.684 -0.5256  0.2976 -0.5549
  711MOL0     C93749  10.174   9.075  10.636  0.3451 -0.1414  0.2290
  711MOL0     O93750  10.231   9.098  10.505  1.1373  0.1887 -0.6358
  711MOL0     C93751  10.199   9.212  10.440 -0.4647  0.1680 -0.3677
  711MOL0     C93752  10.101   9.211  10.337  0.5382 -0.1744  0.1561
  711MOL0     C93753  10.075   9.334  10.267 -0.2579  0.8430  0.0002
  711MOL0     C93754  10.159   9.448  10.296 -0.4850 -0.0967 -0.3111
  711MOL0     O93755  10.141   9.579  10.253 -0.7235  1.3329  0.0863
  711MOL0     C93756  10.018   9.621  10.189  0.2211 -0.5272  0.6839
  711MOL0     C93757   9.931   9.724  10.260 -0.6246 -0.3373 -0.5706
  711MOL0     C93758   9.895   9.679  10.404 -0.5758  0.6147  0.4632
  711MOL0     C93759   9.754   9.612  10.402 -0.1529 -0.0833  1.0471
  711MOL0     C93760   9.720   9.529  10.516 -0.2616  0.1257 -0.3701
  711MOL0     C93761   9.805   9.396  10.532 -0.5099 -0.4350  0.1846
  711MOL0     C93762   9.732   9.312  10.624  0.3577  0.2518 -0.6132
  711MOL0     C93763   9.800   9.193  10.670 -0.2425 -0.0447  0.5123
  711MOL0    Cl93764   9.799   9.063  10.540 -0.2630 -0.5749 -0.0364
  711MOL0     C93765  10.268   9.443  10.380  0.1020  0.4872 -0.8342
  711MOL0     C93766  10.283   9.319  10.453  0.2909 -0.9519  0.0732
  711MOL0     O93767  10.147   9.162  10.714 -0.0315  0.1179 -0.1711
  711MOL0     C93768  10.173   8.840  10.596 -0.5427 -0.3199  0.3846
  711MOL0     C93769  10.162   8.711  10.644 -0.8989  0.1875 -0.6217
  711MOL0     N93770  10.211   8.057  11.274 -0.5097  0.2469 -0.0273
  711MOL0     N93771  10.180   7.980  11.368 -0.8863 -0.9704 -0.0113
  711MOL0     C93772   9.271   7.850  11.384 -0.3160 -0.3087  0.2398
  711MOL0     C93773   9.329   7.919  11.271  0.1475 -0.0770 -0.7760
  711MOL0     C93774   9.614   8.038  10.935  0.5900 -0.6464 -0.2473
  711MOL0     C93775   9.745   8.063  10.894 -0.0123  0.2576  0.0572
  711MOL0     C93776   9.776   8.146  10.780  0.1965  0.2841  0.4113
  711MOL0     C93777   9.671   8.200  10.701  0.0158 -0.5137  0.5021
  711MOL0     O93778   9.706   8.275  10.590  0.4997  0.0000 -0.5233
  711MOL0     C93779   9.604   8.345  10.518 -0.7311  0.0112  0.7472
  711MOL0     C93780   9.669   8.472  10.456  1.6470  1.1573 -1.4204
  711MOL0     C93781   9.813   8.450  10.396  0.7933 -0.4610 -0.4045
  711MOL0     C93782   9.921   8.528  10.468 -1.2111 -0.4037 -0.1143
  711MOL0     C93783   9.918   8.669  10.443 -0.4199 -0.4200 -0.2905
  711MOL0     C93784   9.934   8.786  10.407 -0.5378  0.1664  0.4282
  711MOL0     C93785   9.537   8.165  10.746 -0.5057 -0.4491 -0.6841
  711MOL0     C93786   9.512   8.089  10.855  0.5832  0.8256  0.5957
  711MOL0     H93787   9.468   7.663  11.098 -5.6891 -0.8527 -1.8878
  711MOL0     H93788   9.370   7.538  11.299 -3.6736 -0.2809  3.4227
  711MOL0     H93789   9.289   7.449  11.470 -0.5161  0.2776 -0.5177
  711MOL0     H93790   9.260   7.478  11.634 -0.7608 -0.4664 -1.7892
  711MOL0     H93791   9.537   7.522  11.505  0.3556  2.9013  1.9656
  711MOL0     H93792   9.490   7.407  11.632 -1.2768 -1.1253  0.9054
  711MOL0     H93793   9.439   7.623  11.781 -3.3006  2.4958 -1.6025
  711MOL0     H93794   9.459   7.718  11.654 -0.9047 -0.7425  0.1945
  711MOL0     H93795   9.663   7.727  11.792  2.4368 -0.2560  0.0096
  711MOL0     H93796   9.688   7.557  11.758  2.0813  0.6867 -0.0869
  711MOL0     H93797   9.660   7.752  11.521 -1.7593 -2.9291 -0.2519
  711MOL0     H93798   9.792   7.634  11.539  1.5039 -0.4260  2.7221
  711MOL0     H93799   9.906   7.795  11.708  0.8372  1.9615  1.2183
  711MOL0     H93800   9.754   7.888  11.704 -1.4585 -1.3907 -1.1225
  711MOL0     H93801   9.815   7.941  11.454 -0.2484 -0.2389 -0.5090
  711MOL0     H93802   9.935   8.001  11.573  0.7358  0.2297 -0.3977
  711MOL0     H93803   9.939   7.760  11.381 -1.7813  3.7249 -3.1459
  711MOL0     H93804  10.061   7.764  11.505  2.7772  0.6270 -2.5737
  711MOL0     H93805   9.905   7.955  11.192 -0.5305  1.6573  0.4952
  711MOL0     H93806   9.999   8.132  11.021 -0.6061 -1.6081 -0.3218
  711MOL0     H93807  10.170   8.094  10.986  4.2649  1.4897  3.1052
  711MOL0     H93808  10.249   8.300  11.070 -0.6537 -0.9478 -0.2027
  711MOL0     H93809  10.087   8.345  11.134 -2.0262  1.9370 -2.3039
  711MOL0     H93810  10.136   8.313  10.842  1.4905 -1.3681  1.2916
  711MOL0     H93811   9.992   8.351  10.921  0.0961 -0.3049 -0.2560
  711MOL0     H93812  10.254   8.506  10.957  0.6995 -0.2359 -2.4464
  711MOL0     H93813  10.098   8.566  11.010  0.7390 -0.2793  1.2644
  711MOL0     H93814  10.115   8.774  10.971  1.2953  0.5469  0.5887
  711MOL0     H93815  10.124   9.007  10.895 -2.5313 -2.5126  1.5245
  711MOL0     H93816  10.050   9.116  10.325 -0.9400  0.8966 -3.2994
  711MOL0     H93817   9.989   9.326  10.202 -1.6637 -3.6061  1.9691
  711MOL0     H93818   9.951   9.538  10.165 -3.8831  1.3899  4.1437
  711MOL0     H93819  10.040   9.668  10.093  5.1872 -2.8655  0.3988
  711MOL0     H93820   9.844   9.747  10.197  1.5421  1.6709 -3.0232
  711MOL0     H93821   9.995   9.812  10.264 -1.1470  0.0110  0.3995
  711MOL0     H93822   9.887   9.758  10.479 -4.7927  1.0749 -0.2199
  711MOL0     H93823   9.974   9.614  10.444  0.5363  0.5589 -1.6986
  711MOL0     H93824   9.695   9.704  10.405  1.0237  0.6674  2.0059
  711MOL0     H93825   9.731   9.556  10.311 -0.6886 -0.9615  1.7102
  711MOL0     H93826   9.614   9.510  10.503 -0.8736  1.7370  1.6662
  711MOL0     H93827   9.729   9.586  10.609 -0.5772  1.5087 -1.1670
  711MOL0     H93828   9.907   9.414  10.566 -1.2251  0.4935  1.9842
  711MOL0     H93829   9.804   9.355  10.430 -3.3051  4.1437 -1.9812
  711MOL0     H93830   9.720   9.376  10.712  2.7226  3.2223 -2.2823
  711MOL0     H93831   9.634   9.296  10.578 -0.0082 -0.6911  0.4427
  711MOL0     H93832   9.747   9.157  10.759 -3.2334  0.3672 -0.9595
  711MOL0     H93833   9.907   9.208  10.688  0.8902 -2.0330 -3.3364
  711MOL0     H93834  10.329   9.530  10.404 -0.9536  0.8106  0.8261
  711MOL0     H93835  10.362   9.306  10.526  0.9974  2.9741  0.1718
  711MOL0     H93836  10.208   8.855  10.495  1.3514 -2.4377  0.6563
  711MOL0     H93837  10.165   8.625  10.578  2.5061  1.4705 -2.3818
  711MOL0     H93838   9.211   7.910  11.451  0.6198 -0.5339  1.3117
  711MOL0     H93839   9.295   8.022  11.265  0.9789  0.1717 -1.2603
  711MOL0     H93840   9.822   8.001  10.939  0.6437 -1.0832 -2.6689
  711MOL0     H93841   9.878   8.168  10.750 -0.2062 -1.0104 -2.1598
  711MOL0     H93842   9.516   8.369  10.579  0.8668  0.5756  2.9885
  711MOL0     H93843   9.555   8.288  10.439 -1.4459  4.1990 -2.1334
  711MOL0     H93844   9.602   8.513  10.380 -0.8801  1.3256  0.7659
  711MOL0     H93845   9.665   8.529  10.549 -1.9482 -0.8242 -0.1465
  711MOL0     H93846   9.805   8.478  10.291 -3.1750 -5.6198 -1.9051
  711MOL0     H93847   9.837   8.344  10.387  1.8952 -0.2186 -0.4802
  711MOL0     H93848   9.927   8.516  10.577  3.1485 -0.1309 -0.1570
  711MOL0     H93849  10.010   8.476  10.432 -2.4255 -0.9551 -2.4815
  711MOL0     H93850   9.955   8.887  10.377  1.8520  0.3483  2.3611
  711MOL0     H93851   9.452   8.181  10.680 -0.6790 -2.6300 -1.0666
  711MOL0     H93852   9.406   8.078  10.875  0.1684 -3.2684 -2.6571
  712MOL0     O93853   0.558  10.650   3.404  0.0192  0.2331  0.0749
  712MOL0     C93854   0.568  10.766   3.452  0.2847  0.6840  0.0314
  712MOL0     O93855   0.686  10.829   3.464 -0.5068 -0.7381 -0.4790
  712MOL0     C93856   0.804  10.764   3.434  0.3728  0.8033  0.3394
  712MOL0     C93857   0.885  10.729   3.534  0.2532  0.3482  1.1621
  712MOL0     C93858   1.013  10.674   3.504  0.2179  0.0283 -0.2536
  712MOL0     C93859   1.048  10.639   3.382  0.0707 -0.4465  0.1683
  712MOL0     O93860   1.160  10.572   3.348  0.7346 -0.6909 -0.0787
  712MOL0     C93861   1.260  10.561   3.446 -0.0197 -0.0894  0.2215
  712MOL0     C93862   1.347  10.455   3.394 -0.3059  0.5159  0.2931
  712MOL0     C93863   1.428  10.491   3.272  0.7108  0.1914  0.0173
  712MOL0     C93864   1.538  10.377   3.250  0.4176  0.4708 -0.4603
  712MOL0     C93865   1.591  10.355   3.109 -0.6741 -0.7566  0.4139
  712MOL0     C93866   1.497  10.292   3.007 -0.0816 -0.3285  0.0368
  712MOL0     C93867   1.560  10.295   2.861  0.1971  0.1205 -0.2204
  712MOL0     C93868   1.462  10.227   2.758 -1.3476 -0.0607  0.5676
  712MOL0     N93869   1.513  10.262   2.625  0.0448 -0.4195  0.8257
  712MOL0     C93870   1.439  10.311   2.515 -0.4287  0.1122  0.1693
  712MOL0     C93871   1.519  10.292   2.400 -0.8794 -0.1440  0.3268
  712MOL0     C93872   1.500  10.339   2.260  0.1548  0.3321  0.9022
  712MOL0     C93873   1.586  10.467   2.231 -0.4665 -0.0762 -0.5854
  712MOL0     C93874   1.538  10.512   2.092 -0.8456 -0.9380 -0.3659
  712MOL0     C93875   1.406  10.599   2.100 -0.9498 -0.1880 -0.0004
  712MOL0     O93876   1.340  10.652   1.980 -0.4266 -0.5094 -0.6147
  712MOL0     C93877   1.297  10.566   1.881  0.4917  0.5176 -1.3564
  712MOL0     C93878   1.280  10.431   1.910  0.4496  0.5351 -0.3123
  712MOL0     C93879   1.245  10.341   1.811  0.2267  0.3604  0.5143
  712MOL0     C93880   1.240  10.383   1.677 -0.0861  0.1414 -0.2936
  712MOL0     C93881   1.194  10.293   1.579 -1.1140  0.5416  0.2650
  712MOL0     O93882   1.200  10.349   1.453 -1.2297  0.2138  0.1790
  712MOL0     C93883   1.178  10.297   1.334 -0.1278 -0.8917 -1.0248
  712MOL0     C93884   1.197  10.166   1.302 -0.0828  0.6377  0.0781
  712MOL0     C93885   1.178  10.129   1.168 -0.0452  0.8309  0.3703
  712MOL0     C93886   1.116  10.205   1.080  0.5925 -0.3676 -0.6679
  712MOL0     O93887   1.102  10.160   0.952 -0.5372 -0.1308 -0.3310
  712MOL0     C93888   0.964  10.131   0.928  0.5777 -0.0342  0.4855
  712MOL0     C93889   0.959  10.105   0.774 -0.4451 -1.0139 -0.3204
  712MOL0     C93890   0.816  10.126   0.723  0.2598  0.2920  0.0692
  712MOL0     C93891   0.786  10.077   0.581  0.4705  0.1360 -0.0705
  712MOL0     C93892   0.636  10.105   0.564 -0.0450  0.2013  0.7884
  712MOL0     C93893   0.590  10.082   0.422  1.0201 -0.0835 -0.4747
  712MOL0     C93894   0.601   9.939   0.381 -0.8551 -0.1482  0.8884
  712MOL0     C93895   0.544   9.892   0.248  0.0739 -0.6047  0.0780
  712MOL0    Cl93896   0.635   9.948   0.101  0.2222 -0.1898  0.0165
  712MOL0     C93897   1.084  10.337   1.118  0.3793 -0.2938  0.2878
  712MOL0     C93898   1.117  10.384   1.245  0.8356 -0.5953 -0.0557
  712MOL0     O93899   1.157  10.180   1.612 -0.1777  0.4498  0.1541
  712MOL0     C93900   1.257  10.522   1.651 -0.5315 -0.1685  0.5401
  712MOL0     C93901   1.275  10.612   1.752 -0.1983 -0.1289 -0.9149
  712MOL0     N93902   1.634  10.229   2.440 -0.0819 -0.4030  0.1502
  712MOL0     N93903   1.633  10.214   2.573 -0.8402 -0.9433  0.0874
  712MOL0     C93904   0.967  10.688   3.275 -1.1856 -0.7507 -0.7086
  712MOL0     C93905   0.854  10.759   3.305  0.4393  0.2503  0.3082
  712MOL0     C93906   0.437  10.832   3.481  0.9582 -1.2994 -0.0554
  712MOL0     C93907   0.426  10.929   3.584 -0.5006  0.0596  0.2194
  712MOL0     C93908   0.299  10.982   3.616 -0.5109 -0.7375  0.5256
  712MOL0     C93909   0.177  10.949   3.549 -0.6560  0.4180 -0.0481
  712MOL0     O93910   0.078  11.033   3.558  0.2087 -0.0959  1.0180
  712MOL0     C93911  -0.052  10.986   3.567  0.2583  0.5135 -1.1836
  712MOL0     C93912  -0.107  11.052   3.699 -0.0677  0.7571 -1.2364
  712MOL0     C93913  -0.257  10.997   3.719 -0.2459  0.1196 -0.3313
  712MOL0     C93914  -0.324  11.059   3.838 -0.4603  0.8121 -0.4966
  712MOL0     C93915  -0.343  11.207   3.853 -0.4967  0.4567  0.3272
  712MOL0     C93916  -0.339  11.328   3.875 -0.7944  0.5391 -0.1254
  712MOL0     C93917   0.190  10.855   3.441  0.2313 -0.0009  0.4905
  712MOL0     C93918   0.311  10.792   3.416 -0.3426 -0.2741  0.2247
  712MOL0     H93919   0.855  10.754   3.636 -1.9869 -0.9458  0.8886
  712MOL0     H93920   1.084  10.668   3.586  0.5313  0.9230 -0.4452
  712MOL0     H93921   1.222  10.521   3.540  0.2703 -1.7468 -0.3374
  712MOL0     H93922   1.323  10.650   3.456 -0.3881  0.1151  0.7587
  712MOL0     H93923   1.283  10.367   3.377 -0.4679  0.7041 -0.0801
  712MOL0     H93924   1.420  10.434   3.473  0.5646 -0.2622 -0.6973
  712MOL0     H93925   1.488  10.581   3.290 -0.3550  0.5770  1.8764
  712MOL0     H93926   1.363  10.504   3.185 -1.5992  2.7395  1.9328
  712MOL0     H93927   1.616  10.394   3.324 -0.0133  2.7829 -0.4349
  712MOL0     H93928   1.493  10.278   3.256  1.7315 -0.1020  0.1603
  712MOL0     H93929   1.673  10.283   3.105 -0.5024 -0.5739  0.6124
  712MOL0     H93930   1.620  10.454   3.073 -2.5482 -0.5853 -0.7581
  712MOL0     H93931   1.399  10.340   3.004  0.0330 -0.0153  0.9896
  712MOL0     H93932   1.479  10.187   3.031 -1.7136 -0.5611 -1.9283
  712MOL0     H93933   1.569  10.400   2.831 -1.2555  1.4815  3.6072
  712MOL0     H93934   1.660  10.251   2.854  0.2822 -0.0601  1.7622
  712MOL0     H93935   1.364  10.272   2.772 -1.1004  0.1229  1.8720
  712MOL0     H93936   1.473  10.118   2.752  1.7458  0.2402 -2.0272
  712MOL0     H93937   1.342  10.358   2.522 -1.0168 -1.0275 -0.0146
  712MOL0     H93938   1.393  10.356   2.245  0.3439 -0.0519 -1.2490
  712MOL0     H93939   1.537  10.266   2.187 -0.1879  2.2620 -1.3089
  712MOL0     H93940   1.694  10.456   2.217 -0.2326  0.4586  0.6995
  712MOL0     H93941   1.578  10.545   2.307  2.9599  0.7174 -0.8694
  712MOL0     H93942   1.615  10.575   2.048  0.6896 -3.2392 -1.1488
  712MOL0     H93943   1.525  10.427   2.025 -0.8632 -0.8694 -0.4494
  712MOL0     H93944   1.437  10.692   2.149 -1.5442 -0.6763  1.3492
  712MOL0     H93945   1.332  10.560   2.171 -1.9048  2.1563  0.3764
  712MOL0     H93946   1.300  10.390   2.009  1.1979 -0.5047 -0.8708
  712MOL0     H93947   1.222  10.240   1.844 -1.5987  0.1895 -1.1318
  712MOL0     H93948   1.230  10.094   1.377  1.2175  2.9313  1.8272
  712MOL0     H93949   1.205  10.032   1.128 -3.0510 -0.2510  0.7478
  712MOL0     H93950   0.898  10.216   0.949  0.9090  0.4120 -0.2437
  712MOL0     H93951   0.927  10.045   0.984  0.3331 -0.8905 -0.9466
  712MOL0     H93952   0.999  10.005   0.756 -1.1046 -1.4156  0.4047
  712MOL0     H93953   1.022  10.178   0.722  1.0195 -1.9366  0.0958
  712MOL0     H93954   0.806  10.234   0.733  1.0209  0.3893 -0.1624
  712MOL0     H93955   0.752  10.062   0.785  2.7989  1.0248  3.7986
  712MOL0     H93956   0.840  10.134   0.506  1.2940 -0.5871 -0.0382
  712MOL0     H93957   0.815   9.971   0.580  4.4975  1.0066  1.9708
  712MOL0     H93958   0.599  10.204   0.590 -0.4768  1.7799 -4.5634
  712MOL0     H93959   0.570  10.038   0.621  1.3143 -0.1006  2.0522
  712MOL0     H93960   0.635  10.146   0.346 -1.4613  1.1505 -1.0335
  712MOL0     H93961   0.483  10.108   0.422  1.0805  0.1736 -0.1874
  712MOL0     H93962   0.706   9.911   0.384 -0.3387  1.6958  1.5010
  712MOL0     H93963   0.529   9.907   0.458 -3.7873  1.4447 -1.0062
  712MOL0     H93964   0.438   9.919   0.243  0.7834  2.9642  1.1688
  712MOL0     H93965   0.558   9.784   0.258  3.1817 -0.1468  1.8343
  712MOL0     H93966   1.048  10.401   1.038  2.3392 -0.8545 -1.1244
  712MOL0     H93967   1.096  10.486   1.275 -1.8260 -1.6120  1.8927
  712MOL0     H93968   1.244  10.565   1.553  0.1522 -0.9753  0.0876
  712MOL0     H93969   1.286  10.718   1.728  1.6520 -0.5314 -2.0376
  712MOL0     H93970   1.006  10.663   3.177  2.1985 -1.7327  0.7387
  712MOL0     H93971   0.801  10.812   3.226 -0.0270 -0.4939  0.1027
  712MOL0     H93972   0.514  10.941   3.647  0.2164 -1.8786 -0.3478
  712MOL0     H93973   0.285  11.051   3.699  2.2307  4.7170 -2.9926
  712MOL0     H93974  -0.057  10.878   3.585 -2.1578  0.9920  1.9106
  712MOL0     H93975  -0.112  11.014   3.480 -0.1218  2.8584 -0.2320
  712MOL0     H93976  -0.045  11.018   3.783 -2.7909 -0.7152  0.3243
  712MOL0     H93977  -0.100  11.160   3.684  0.2747  0.9717  0.3128
  712MOL0     H93978  -0.264  10.888   3.726  0.8674  0.1153  1.1322
  712MOL0     H93979  -0.304  11.030   3.625  0.2995 -1.1542 -1.0828
  712MOL0     H93980  -0.426  11.021   3.837 -1.8627  4.2455 -0.2810
  712MOL0     H93981  -0.278  11.025   3.932 -1.4509  2.4900  0.6357
  712MOL0     H93982  -0.328  11.431   3.902  1.7991 -0.2711  2.4618
  712MOL0     H93983   0.096  10.836   3.390  0.4615  0.4504 -0.1074
  712MOL0     H93984   0.326  10.739   3.322  1.5417  2.1362 -0.9553
  713MOL0     O93985   2.577   6.507   4.492 -0.0958  0.1321 -1.0361
  713MOL0     C93986   2.469   6.523   4.529  0.0742  0.6411 -0.4235
  713MOL0     O93987   2.418   6.472   4.644  0.5792 -0.3423  0.7880
  713MOL0     C93988   2.502   6.402   4.726 -0.4296  0.5815 -0.3761
  713MOL0     C93989   2.492   6.409   4.868  0.2897 -0.7163  0.2135
  713MOL0     C93990   2.562   6.331   4.948 -0.4837  0.2716 -0.5534
  713MOL0     C93991   2.670   6.253   4.896  1.2628  0.7500  0.4897
  713MOL0     O93992   2.751   6.186   4.981 -0.4404  0.2264  0.9012
  713MOL0     C93993   2.749   6.189   5.123  0.3376 -1.0239  1.1418
  713MOL0     C93994   2.837   6.074   5.165  0.5282 -0.0121  0.3810
  713MOL0     C93995   2.769   6.000   5.289 -0.4539 -0.3027  1.2525
  713MOL0     C93996   2.869   5.915   5.379 -0.5596 -0.0564  0.4164
  713MOL0     C93997   2.814   5.854   5.506  0.3344 -0.3385 -0.0075
  713MOL0     C93998   2.835   5.924   5.635 -0.1403 -0.1917  0.1797
  713MOL0     C93999   2.964   5.994   5.658 -0.2138 -0.4281  0.4863
  713MOL0     C94000   2.960   6.142   5.617  0.4285  0.4300  0.3435
  713MOL0     N94001   3.098   6.192   5.629  0.1173  0.5421 -0.5996
  713MOL0     C94002   3.218   6.146   5.573 -0.0714 -0.0538  0.8942
  713MOL0     C94003   3.315   6.241   5.605  0.2198  1.0398  0.3625
  713MOL0     C94004   3.450   6.234   5.542 -0.1033  0.6731 -0.4808
  713MOL0     C94005   3.535   6.115   5.591  0.4869  0.8991 -0.3816
  713MOL0     C94006   3.685   6.149   5.580  0.2010 -0.6522 -0.0716
  713MOL0     C94007   3.778   6.037   5.625 -0.1224  0.6666 -0.8040
  713MOL0     O94008   3.922   6.062   5.633  0.4196  0.5296 -0.5593
  713MOL0     C94009   3.972   6.123   5.523  0.4425 -0.7932 -1.0570
  713MOL0     C94010   3.939   6.099   5.388 -0.1938 -0.0292  0.2249
  713MOL0     C94011   4.015   6.138   5.281 -0.0699 -0.2993 -0.4262
  713MOL0     C94012   4.140   6.198   5.304 -0.2445 -0.3014  0.9833
  713MOL0     C94013   4.223   6.234   5.188 -0.8430 -0.0378 -0.8572
  713MOL0     O94014   4.354   6.259   5.213  0.1003 -0.2609  0.7731
  713MOL0     C94015   4.454   6.281   5.116 -0.1498 -0.8145  0.2949
  713MOL0     C94016   4.589   6.301   5.166  0.0140  0.8566  0.3174
  713MOL0     C94017   4.702   6.338   5.084  0.5967  0.9271 -0.6682
  713MOL0     C94018   4.681   6.338   4.942  0.3705  0.3303 -0.3314
  713MOL0     O94019   4.769   6.360   4.847 -0.3691  0.2515 -0.0255
  713MOL0     C94020   4.906   6.384   4.877  0.1019 -0.7086 -0.0350
  713MOL0     C94021   5.002   6.378   4.753  0.9589  0.0058 -1.0006
  713MOL0     C94022   5.144   6.398   4.798  0.6682 -0.1875  0.0015
  713MOL0     C94023   5.256   6.327   4.705 -0.2774 -0.4298  0.0271
  713MOL0     C94024   5.265   6.175   4.740 -0.3827  0.0308  1.0157
  713MOL0     C94025   5.372   6.094   4.655  1.2216  0.7600  0.4284
  713MOL0     C94026   5.513   6.115   4.714 -1.0947  0.3083  0.2622
  713MOL0     C94027   5.630   6.028   4.653 -0.0505  1.4103  0.1623
  713MOL0    Cl94028   5.667   6.044   4.481 -0.2087 -0.0694 -0.5230
  713MOL0     C94029   4.550   6.326   4.891 -0.4611  0.4245 -0.9334
  713MOL0     C94030   4.443   6.292   4.976  0.1689 -0.2216 -0.6420
  713MOL0     O94031   4.172   6.211   5.075 -0.3698  0.0148  0.7686
  713MOL0     C94032   4.177   6.230   5.442  0.2756 -0.4377 -0.4427
  713MOL0     C94033   4.091   6.191   5.549 -0.1097 -0.2576  0.3341
  713MOL0     N94034   3.254   6.327   5.689  0.4206 -0.0362 -0.0539
  713MOL0     N94035   3.130   6.296   5.712  0.3399  0.1078  0.1243
  713MOL0     C94036   2.676   6.234   4.765  0.1614  0.9479 -0.3768
  713MOL0     C94037   2.590   6.297   4.684  0.5510 -0.2556 -0.4473
  713MOL0     C94038   2.402   6.636   4.452  0.3544  0.3871 -0.4184
  713MOL0     C94039   2.294   6.691   4.520  0.0254 -0.7281  1.0705
  713MOL0     C94040   2.238   6.808   4.472  0.3626 -1.2473  1.0373
  713MOL0     C94041   2.286   6.876   4.353 -0.1539 -0.4621 -0.1862
  713MOL0     O94042   2.229   6.992   4.308  0.7181 -0.0686  0.4638
  713MOL0     C94043   2.294   7.065   4.192 -0.1133  0.1925  0.9445
  713MOL0     C94044   2.214   7.189   4.145 -0.4611 -0.0762  0.7698
  713MOL0     C94045   2.222   7.313   4.237 -0.7851  0.2803  0.0984
  713MOL0     C94046   2.198   7.454   4.180  0.0301  0.4118 -0.2915
  713MOL0     C94047   2.235   7.566   4.264 -0.1913  0.7003 -0.4153
  713MOL0     C94048   2.258   7.655   4.348  0.4593  1.0390 -1.0451
  713MOL0     C94049   2.396   6.821   4.291  0.4081 -0.6422  0.0203
  713MOL0     C94050   2.449   6.696   4.340  0.4794 -0.9766  0.7574
  713MOL0     H94051   2.413   6.465   4.917  0.5416 -1.7437  1.8804
  713MOL0     H94052   2.550   6.349   5.055 -1.9848  0.1684 -0.6854
  713MOL0     H94053   2.648   6.177   5.164 -0.2879  1.9106  0.7189
  713MOL0     H94054   2.781   6.290   5.151  2.4560  0.0019 -3.9177
  713MOL0     H94055   2.927   6.122   5.201  1.1880 -1.1483  0.2952
  713MOL0     H94056   2.865   6.008   5.082 -1.7690 -0.9636  0.2672
  713MOL0     H94057   2.693   5.933   5.247 -0.3280 -0.0228  0.5601
  713MOL0     H94058   2.719   6.066   5.360 -2.2360 -1.8838  1.5486
  713MOL0     H94059   2.905   5.830   5.320 -2.4014  0.0183 -0.8895
  713MOL0     H94060   2.958   5.974   5.403 -0.7515  0.8744 -1.0936
  713MOL0     H94061   2.871   5.763   5.525  1.6158  0.9315  2.9870
  713MOL0     H94062   2.708   5.836   5.486  0.1850  1.4766 -1.0775
  713MOL0     H94063   2.817   5.853   5.716  0.2871 -3.0131 -2.0307
  713MOL0     H94064   2.754   5.998   5.636 -1.3043 -0.7038 -6.8142
  713MOL0     H94065   2.991   5.987   5.764  1.5095 -1.6154  0.0083
  713MOL0     H94066   3.056   5.955   5.615  1.6188  1.7237  2.1723
  713MOL0     H94067   2.883   6.176   5.687 -2.2214 -4.7511  0.4090
  713MOL0     H94068   2.919   6.167   5.518 -0.1917 -1.0553  0.2071
  713MOL0     H94069   3.230   6.061   5.506 -2.0038 -1.9113  2.7426
  713MOL0     H94070   3.513   6.319   5.571  3.2302 -1.7197 -0.1039
  713MOL0     H94071   3.440   6.235   5.433 -0.8626 -0.2872 -0.4368
  713MOL0     H94072   3.512   6.026   5.532 -1.7650  1.4870 -0.4848
  713MOL0     H94073   3.505   6.097   5.695 -1.1369 -1.5741 -1.2139
  713MOL0     H94074   3.705   6.185   5.479 -0.0739  2.0465  0.7327
  713MOL0     H94075   3.704   6.237   5.642 -1.2729  0.5308 -1.2342
  713MOL0     H94076   3.759   5.954   5.556 -2.4975  2.7460 -2.8493
  713MOL0     H94077   3.753   6.010   5.728  0.8220  0.5790 -0.5845
  713MOL0     H94078   3.853   6.038   5.361 -1.2742  1.5442 -0.0415
  713MOL0     H94079   3.973   6.122   5.182 -4.4389 -1.2104  1.3686
  713MOL0     H94080   4.605   6.280   5.271  0.1824 -1.8246 -0.1677
  713MOL0     H94081   4.800   6.340   5.130 -0.3775 -1.7600  1.8710
  713MOL0     H94082   4.944   6.315   4.954  1.3558 -0.6304 -0.5667
  713MOL0     H94083   4.896   6.486   4.914 -4.9086 -1.3475  1.0193
  713MOL0     H94084   4.980   6.455   4.678 -1.5450 -1.4031 -1.8386
  713MOL0     H94085   4.994   6.285   4.695 -1.2330 -0.8725  0.5756
  713MOL0     H94086   5.155   6.358   4.900 -2.2805  0.2034  0.5638
  713MOL0     H94087   5.156   6.506   4.806 -1.3525 -0.0134  1.7033
  713MOL0     H94088   5.227   6.333   4.600  0.6218 -0.5809 -0.2379
  713MOL0     H94089   5.357   6.367   4.711 -0.8329  1.8940 -3.3384
  713MOL0     H94090   5.163   6.137   4.725 -0.6467  1.2556 -0.5386
  713MOL0     H94091   5.299   6.156   4.843  2.3334 -1.3459 -0.0526
  713MOL0     H94092   5.354   6.124   4.551  2.1981  0.9487  0.3064
  713MOL0     H94093   5.347   5.987   4.644  2.7667  0.5522 -1.6343
  713MOL0     H94094   5.552   6.216   4.700  2.0471 -0.3183  3.1190
  713MOL0     H94095   5.513   6.086   4.820  2.4445 -1.6410 -0.0986
  713MOL0     H94096   5.610   5.924   4.682  2.7473  1.2877  2.0054
  713MOL0     H94097   5.725   6.033   4.707 -0.3544 -3.2510  1.5816
  713MOL0     H94098   4.537   6.332   4.784 -0.1090 -1.6650 -1.1433
  713MOL0     H94099   4.348   6.286   4.925  0.2954 -0.1011 -0.8921
  713MOL0     H94100   4.270   6.276   5.475  0.2367 -1.0298  0.5369
  713MOL0     H94101   4.130   6.201   5.650 -0.4056 -0.1715  0.4427
  713MOL0     H94102   2.740   6.151   4.738 -2.1705 -0.5419 -1.6415
  713MOL0     H94103   2.621   6.264   4.585  3.4241  0.5779  0.0935
  713MOL0     H94104   2.262   6.656   4.618 -1.8225 -1.8204  0.1509
  713MOL0     H94105   2.161   6.859   4.529  1.3144 -0.1008  1.3528
  713MOL0     H94106   2.292   6.996   4.107  2.7161 -2.1219  2.5719
  713MOL0     H94107   2.398   7.095   4.209 -0.4672  1.8979  0.3597
  713MOL0     H94108   2.250   7.219   4.046 -0.9136 -1.6422  0.0939
  713MOL0     H94109   2.109   7.169   4.123 -0.1915  0.7762 -1.6154
  713MOL0     H94110   2.318   7.305   4.289 -0.5190  2.7388  0.0982
  713MOL0     H94111   2.160   7.284   4.323 -1.8264  2.7790  0.2830
  713MOL0     H94112   2.252   7.455   4.085 -4.1043 -0.5591 -2.9412
  713MOL0     H94113   2.091   7.473   4.163  0.0691  1.1041  0.1617
  713MOL0     H94114   2.261   7.734   4.421 -2.3778  1.8032 -1.6276
  713MOL0     H94115   2.444   6.867   4.205  0.6385  2.4737  1.6693
  713MOL0     H94116   2.542   6.663   4.294  0.4825 -0.9210  0.7239
  714MOL0     O94117   9.095   9.790   3.871  0.4920  0.3005 -0.2742
  714MOL0     C94118   9.002   9.707   3.863 -0.8056 -0.9754 -0.5381
  714MOL0     O94119   8.872   9.742   3.838 -0.1277  0.6592  0.2599
  714MOL0     C94120   8.831   9.774   3.712  0.0092  0.7675 -0.1063
  714MOL0     C94121   8.718   9.855   3.691 -0.8549  0.2449 -0.2624
  714MOL0     C94122   8.667   9.874   3.560 -0.3319  0.0734 -0.7863
  714MOL0     C94123   8.732   9.824   3.447 -0.3611 -0.3877  0.4689
  714MOL0     O94124   8.663   9.839   3.326  0.0659 -0.6105  0.0266
  714MOL0     C94125   8.725   9.802   3.210  0.2133  0.0478  0.3196
  714MOL0     C94126   8.713   9.657   3.167 -0.5512  0.1405 -0.0220
  714MOL0     C94127   8.677   9.640   3.021  0.0564  0.2847  0.7269
  714MOL0     C94128   8.734   9.505   2.968 -0.4940 -0.7160 -0.0963
  714MOL0     C94129   8.657   9.387   3.028 -0.5258 -0.2739  0.2671
  714MOL0     C94130   8.500   9.368   2.998  0.3972 -0.5974  0.2218
  714MOL0     C94131   8.474   9.228   2.994 -0.7362  0.0401  0.3273
  714MOL0     C94132   8.343   9.191   2.917  0.4576 -0.0784 -0.7824
  714MOL0     N94133   8.350   9.046   2.884 -0.0110  0.3121  0.1395
  714MOL0     C94134   8.341   8.937   2.976 -0.2434 -0.6164  1.1100
  714MOL0     C94135   8.319   8.829   2.902 -0.0746  0.3745  0.2699
  714MOL0     C94136   8.298   8.694   2.964  0.6877  0.1196  0.1757
  714MOL0     C94137   8.168   8.636   2.911  0.0679  0.2132  0.4087
  714MOL0     C94138   8.037   8.697   2.969 -0.5192 -0.1035  0.4883
  714MOL0     C94139   7.913   8.605   2.950  0.5963  0.0839  0.0847
  714MOL0     O94140   7.894   8.483   3.037  0.2424  0.1739 -0.7970
  714MOL0     C94141   7.826   8.376   2.988 -1.0284 -0.1457  0.3246
  714MOL0     C94142   7.744   8.368   2.879  0.5886  0.3601 -0.1152
  714MOL0     C94143   7.679   8.257   2.835  0.4161  0.1052 -0.0301
  714MOL0     C94144   7.687   8.140   2.913  0.0896  0.1785  0.1218
  714MOL0     C94145   7.614   8.019   2.878  0.1933 -0.0885 -0.8155
  714MOL0     O94146   7.623   7.920   2.971 -0.1882 -0.2350  0.5305
  714MOL0     C94147   7.544   7.804   2.957 -0.6539  1.2066 -1.5154
  714MOL0     C94148   7.400   7.815   2.982 -0.7991  0.6595  0.0466
  714MOL0     C94149   7.320   7.702   2.985 -0.2655  0.3794  0.3908
  714MOL0     C94150   7.369   7.580   2.942  0.3820  0.6763  1.1248
  714MOL0     O94151   7.310   7.459   2.916 -0.4522  0.1723 -0.0851
  714MOL0     C94152   7.197   7.432   2.993 -0.1234  0.4523 -0.0259
  714MOL0     C94153   7.243   7.365   3.124  0.5231 -0.3484  0.4896
  714MOL0     C94154   7.258   7.221   3.123 -0.0001  0.1522  0.5405
  714MOL0     C94155   7.126   7.157   3.143  0.1901 -0.1575  0.0736
  714MOL0     C94156   7.136   7.008   3.163  0.1890 -0.0482 -0.1711
  714MOL0     C94157   6.993   6.957   3.205 -0.0727 -0.8315  1.0020
  714MOL0     C94158   7.004   6.810   3.234  0.3597 -0.3732 -0.6948
  714MOL0     C94159   6.863   6.755   3.263  0.3276 -0.6486 -0.6238
  714MOL0    Cl94160   6.759   6.741   3.120 -0.4720  0.3916  0.0011
  714MOL0     C94161   7.499   7.578   2.901  0.5607 -0.0376 -0.4837
  714MOL0     C94162   7.594   7.676   2.927  0.4239 -0.6401  0.6214
  714MOL0     O94163   7.558   8.002   2.766 -0.4472  1.0561 -0.2713
  714MOL0     C94164   7.788   8.136   3.021  1.3022  0.5141 -0.6899
  714MOL0     C94165   7.854   8.257   3.063  0.4846 -0.2755  0.3882
  714MOL0     N94166   8.301   8.866   2.768 -0.6870 -0.3194 -0.2067
  714MOL0     N94167   8.322   8.991   2.760 -0.5870 -0.3971  0.0205
  714MOL0     C94168   8.860   9.773   3.468  0.4182 -0.0622  0.3468
  714MOL0     C94169   8.899   9.736   3.594  0.2029  0.3642  0.1987
  714MOL0     C94170   9.037   9.563   3.874  1.0149 -1.1307  0.8307
  714MOL0     C94171   9.168   9.526   3.910  0.4982  0.3249 -0.9434
  714MOL0     C94172   9.185   9.392   3.945 -0.3541 -0.0565  0.0166
  714MOL0     C94173   9.113   9.296   3.888  0.4411 -0.5653 -0.4350
  714MOL0     O94174   9.162   9.176   3.866 -0.1151  0.2069  0.2035
  714MOL0     C94175   9.200   9.146   3.737 -0.5194  0.2151  0.1405
  714MOL0     C94176   9.334   9.069   3.746  0.8281 -0.0722  0.1121
  714MOL0     C94177   9.407   9.046   3.612 -0.2486 -0.7511 -0.0490
  714MOL0     C94178   9.539   8.963   3.634  0.1969  0.4165  0.3422
  714MOL0     C94179   9.610   8.966   3.510 -0.0893 -0.0583 -0.1193
  714MOL0     C94180   9.674   8.945   3.409  1.3514  0.8572 -0.1422
  714MOL0     C94181   8.993   9.335   3.838  0.3521 -0.2341  0.8137
  714MOL0     C94182   8.950   9.468   3.840 -0.2851 -0.9301  0.7734
  714MOL0     H94183   8.663   9.880   3.782  1.8726  0.6591  1.3802
  714MOL0     H94184   8.574   9.928   3.542 -0.4749  1.0798  2.3240
  714MOL0     H94185   8.831   9.827   3.215  0.1993  0.4378 -1.0758
  714MOL0     H94186   8.681   9.866   3.133 -0.8860 -0.3031  0.6384
  714MOL0     H94187   8.641   9.607   3.232  1.4436 -2.6096  0.2498
  714MOL0     H94188   8.811   9.611   3.180  0.2805  1.4078 -1.4562
  714MOL0     H94189   8.728   9.717   2.963  1.6227 -1.2362  0.0247
  714MOL0     H94190   8.569   9.651   3.010 -0.7262 -1.2477  4.9229
  714MOL0     H94191   8.710   9.506   2.862 -0.2021 -1.1571 -0.1654
  714MOL0     H94192   8.841   9.503   2.990  0.1266  5.3055 -0.8283
  714MOL0     H94193   8.674   9.377   3.136 -0.3438 -0.0594  0.2601
  714MOL0     H94194   8.716   9.301   2.995  1.8265  0.9684  1.0125
  714MOL0     H94195   8.465   9.422   2.909  1.9249  0.9402  0.4989
  714MOL0     H94196   8.445   9.427   3.072  0.4677 -2.2970  1.7091
  714MOL0     H94197   8.558   9.175   2.948  2.2926  2.5554  2.5413
  714MOL0     H94198   8.476   9.185   3.095 -0.6568 -4.0440 -1.2278
  714MOL0     H94199   8.337   9.256   2.829 -0.5672  1.8971  0.6611
  714MOL0     H94200   8.266   9.222   2.988 -0.6109  1.9985 -2.7025
  714MOL0     H94201   8.344   8.941   3.085 -0.1483  0.1165  1.0886
  714MOL0     H94202   8.283   8.706   3.072  3.0146 -0.1655  0.5815
  714MOL0     H94203   8.385   8.630   2.944  0.0967 -0.6469  0.0330
  714MOL0     H94204   8.157   8.529   2.933 -1.9541  0.0257 -1.1208
  714MOL0     H94205   8.159   8.644   2.802  1.1091 -1.2095  0.1877
  714MOL0     H94206   8.048   8.723   3.075  1.2780  1.7839 -0.0847
  714MOL0     H94207   8.011   8.789   2.915  2.6962  0.7468  0.1962
  714MOL0     H94208   7.919   8.575   2.845 -0.5279 -2.0492  0.5792
  714MOL0     H94209   7.816   8.654   2.954  0.7050  0.4434 -1.3009
  714MOL0     H94210   7.729   8.455   2.816 -0.1350  0.8415  0.6972
  714MOL0     H94211   7.610   8.254   2.751 -0.8943 -0.9791  1.0436
  714MOL0     H94212   7.353   7.907   3.015 -1.5625  0.4658 -0.4762
  714MOL0     H94213   7.215   7.701   3.012 -0.5419 -4.9939  0.0788
  714MOL0     H94214   7.143   7.357   2.934  3.0624 -1.5274 -0.6579
  714MOL0     H94215   7.129   7.516   3.010 -2.1892 -0.7409 -1.7964
  714MOL0     H94216   7.179   7.399   3.205  0.0721  0.5406 -0.2250
  714MOL0     H94217   7.342   7.411   3.136  0.9550 -0.2689 -2.4776
  714MOL0     H94218   7.324   7.185   3.203  0.2063  0.1069  0.3478
  714MOL0     H94219   7.289   7.189   3.024 -2.7217  2.1491 -1.0803
  714MOL0     H94220   7.078   7.202   3.230 -2.2290 -0.2901 -1.0885
  714MOL0     H94221   7.055   7.178   3.062  0.1690  2.0010  0.5835
  714MOL0     H94222   7.211   6.976   3.236 -0.5845  1.4276  1.3371
  714MOL0     H94223   7.158   6.942   3.079 -1.6574 -1.1568  0.1493
  714MOL0     H94224   6.916   6.982   3.132  2.7642  2.1598 -1.2943
  714MOL0     H94225   6.964   7.010   3.296 -0.2474 -3.0787  2.3414
  714MOL0     H94226   7.046   6.744   3.158  0.9249 -3.0212  1.7581
  714MOL0     H94227   7.060   6.802   3.327 -1.2732  1.3318  0.5153
  714MOL0     H94228   6.815   6.817   3.340  0.8581 -2.0288  0.8853
  714MOL0     H94229   6.866   6.656   3.309 -0.6519 -0.4428 -0.0743
  714MOL0     H94230   7.537   7.486   2.858 -0.6156  0.3156 -2.4113
  714MOL0     H94231   7.694   7.665   2.886 -0.0599  1.4872 -1.3551
  714MOL0     H94232   7.797   8.040   3.072 -2.5310 -1.1802 -2.7166
  714MOL0     H94233   7.917   8.268   3.151 -0.3452  2.1045  0.7356
  714MOL0     H94234   8.935   9.751   3.393  1.1708 -0.7077  1.2597
  714MOL0     H94235   8.995   9.685   3.595  0.2179  0.3833 -0.0592
  714MOL0     H94236   9.243   9.604   3.911 -1.1238  1.9844  0.6764
  714MOL0     H94237   9.282   9.372   3.990 -0.5427  0.7098  0.7880
  714MOL0     H94238   9.221   9.237   3.680 -2.1940  1.1940  1.0113
  714MOL0     H94239   9.119   9.093   3.687 -1.9922  2.6966 -0.3063
  714MOL0     H94240   9.402   9.115   3.818  1.5499 -1.8706  0.6371
  714MOL0     H94241   9.302   8.974   3.791 -0.9023 -0.6819 -2.1990
  714MOL0     H94242   9.428   9.150   3.586 -0.8963 -0.5398  0.2571
  714MOL0     H94243   9.342   8.982   3.552  0.6402 -1.9147  0.1865
  714MOL0     H94244   9.597   8.998   3.720 -0.2348  1.0626  0.3800
  714MOL0     H94245   9.513   8.861   3.662  1.0862  0.7491  2.5691
  714MOL0     H94246   9.723   8.937   3.314  0.6204  0.1226 -0.4688
  714MOL0     H94247   8.915   9.264   3.813  0.4057  0.3064 -1.0385
  714MOL0     H94248   8.857   9.496   3.792  0.3963  1.8987  0.9462
  715MOL0     O94249   3.720   4.143  11.066 -0.1040  0.4331 -0.8791
  715MOL0     C94250   3.631   4.068  11.045  1.2204 -0.4896 -0.0893
  715MOL0     O94251   3.580   4.023  10.931  0.2561  0.6589  0.6703
  715MOL0     C94252   3.652   4.027  10.810 -0.3877 -0.0139 -1.6314
  715MOL0     C94253   3.786   4.028  10.811  0.3712  0.6271  1.2361
  715MOL0     C94254   3.867   4.017  10.691 -0.4029 -1.0323  0.0953
  715MOL0     C94255   3.790   4.010  10.568 -0.5364  0.0836  0.3671
  715MOL0     O94256   3.852   4.028  10.446  0.5696 -1.5523 -0.0505
  715MOL0     C94257   3.981   3.997  10.414 -0.0839 -0.1603 -0.6443
  715MOL0     C94258   4.029   4.106  10.325  0.6112 -0.2116 -0.3694
  715MOL0     C94259   4.178   4.085  10.288 -0.1414 -0.3514  0.5252
  715MOL0     C94260   4.226   4.217  10.226 -0.2412  0.0756 -0.2454
  715MOL0     C94261   4.272   4.315  10.339 -1.2646 -0.7281 -0.3897
  715MOL0     C94262   4.322   4.451  10.298 -0.7072 -0.0508  0.4716
  715MOL0     C94263   4.381   4.536  10.404 -0.7127  1.4608 -0.5816
  715MOL0     C94264   4.449   4.654  10.335  1.5271 -0.5265 -0.1196
  715MOL0     N94265   4.487   4.758  10.434 -0.2398 -0.0388 -0.6784
  715MOL0     C94266   4.606   4.754  10.497 -0.2178 -0.7383 -0.3331
  715MOL0     C94267   4.601   4.870  10.572  0.4939 -0.4972 -0.5180
  715MOL0     C94268   4.701   4.924  10.682  0.6264 -0.5735 -0.5534
  715MOL0     C94269   4.748   5.063  10.652 -0.4426 -0.5391  0.3585
  715MOL0     C94270   4.901   5.081  10.668  0.9191 -0.2574  0.1709
  715MOL0     C94271   4.960   5.075  10.813 -0.9945  0.6433  0.4931
  715MOL0     O94272   4.941   5.188  10.888 -0.3104  0.0997 -0.3793
  715MOL0     C94273   4.830   5.204  10.976 -0.5822 -0.2991 -0.4467
  715MOL0     C94274   4.825   5.330  11.044 -0.8504  0.8270 -0.0476
  715MOL0     C94275   4.733   5.351  11.142  0.0104  0.6419  0.1252
  715MOL0     C94276   4.635   5.257  11.165 -0.6271 -1.6004  0.5246
  715MOL0     C94277   4.536   5.276  11.265 -0.6273 -0.2978 -0.1169
  715MOL0     O94278   4.552   5.383  11.347 -0.6167 -0.0233 -0.0711
  715MOL0     C94279   4.457   5.413  11.434 -0.4387 -0.8931  0.9969
  715MOL0     C94280   4.430   5.327  11.540  0.1525  0.1208 -0.1926
  715MOL0     C94281   4.319   5.357  11.629  0.2602  0.2622  0.6419
  715MOL0     C94282   4.239   5.466  11.609 -0.5417 -1.3047  0.1195
  715MOL0     O94283   4.132   5.475  11.688 -0.2823 -0.1181 -0.3891
  715MOL0     C94284   4.060   5.600  11.680  0.2990  0.5167 -0.1084
  715MOL0     C94285   3.948   5.587  11.778 -0.8111  0.4475  0.1821
  715MOL0     C94286   3.814   5.651  11.759  0.3116  0.5484 -0.2183
  715MOL0     C94287   3.812   5.803  11.788  0.0872  0.0489 -0.1795
  715MOL0     C94288   3.819   5.836  11.938 -0.0384 -0.5765 -0.0388
  715MOL0     C94289   3.692   5.808  12.006  0.0056  0.1167  0.4037
  715MOL0     C94290   3.687   5.881  12.141  0.1222  0.2297  0.4269
  715MOL0     C94291   3.553   5.878  12.201  0.3946  0.4208 -0.2946
  715MOL0    Cl94292   3.440   5.992  12.109 -0.0443 -0.0054  0.6492
  715MOL0     C94293   4.275   5.560  11.509  0.7781  0.0643  0.4365
  715MOL0     C94294   4.379   5.534  11.418 -1.1359  0.2045 -0.0187
  715MOL0     O94295   4.437   5.203  11.280 -0.1983  0.3908 -0.0789
  715MOL0     C94296   4.627   5.138  11.090 -0.6689  0.6047 -1.1643
  715MOL0     C94297   4.733   5.109  11.003  0.5287 -0.1619 -0.1193
  715MOL0     N94298   4.478   4.935  10.542 -0.3413  0.5161  0.8377
  715MOL0     N94299   4.406   4.867  10.461 -0.8859  0.6943  0.0801
  715MOL0     C94300   3.655   4.005  10.570 -0.3303  0.0983 -0.3573
  715MOL0     C94301   3.587   4.014  10.687  0.0060  0.3774 -0.6774
  715MOL0     C94302   3.547   4.044  11.158 -0.9837  0.2089 -1.0931
  715MOL0     C94303   3.605   4.047  11.296 -0.3429  0.3823  0.3615
  715MOL0     C94304   3.519   4.038  11.410 -0.5802  0.2899  0.3613
  715MOL0     C94305   3.387   4.008  11.398  0.3839 -0.3838  0.0678
  715MOL0     O94306   3.313   3.951  11.505 -1.5614  0.5437  0.2472
  715MOL0     C94307   3.390   3.905  11.620  0.4298 -0.4343  0.2329
  715MOL0     C94308   3.282   3.845  11.698  0.5379  0.1764  0.6873
  715MOL0     C94309   3.321   3.720  11.780  1.1158  0.2128 -0.0309
  715MOL0     C94310   3.204   3.621  11.818 -0.4037 -0.5340  0.2544
  715MOL0     C94311   3.261   3.504  11.893 -1.0147 -1.2853 -0.4824
  715MOL0     C94312   3.313   3.414  11.959 -0.2724 -0.9724 -0.2815
  715MOL0     C94313   3.334   3.996  11.267  1.0790 -1.1327  0.2652
  715MOL0     C94314   3.412   4.012  11.148 -0.0889 -0.2141  0.0110
  715MOL0     H94315   3.840   4.030  10.905 -2.5358 -1.7290  3.1050
  715MOL0     H94316   3.973   4.030  10.707 -0.6052 -2.5005  3.6085
  715MOL0     H94317   3.970   3.897  10.370  0.3494 -0.3329 -0.3770
  715MOL0     H94318   4.056   3.983  10.493  2.9158 -0.7828 -3.3943
  715MOL0     H94319   4.024   4.203  10.376 -0.6399 -1.8411  2.9515
  715MOL0     H94320   3.971   4.103  10.233 -0.1567 -1.3298  0.1235
  715MOL0     H94321   4.184   4.010  10.209  1.3971 -1.3964  1.5690
  715MOL0     H94322   4.232   4.041  10.373 -1.3687 -0.1784  1.4111
  715MOL0     H94323   4.309   4.185  10.163 -1.7262 -0.6165 -1.9257
  715MOL0     H94324   4.155   4.262  10.156  1.2714 -0.0981 -1.9770
  715MOL0     H94325   4.331   4.270  10.420  0.2591  0.1856 -0.9420
  715MOL0     H94326   4.184   4.352  10.392 -0.8067 -1.4616  0.9428
  715MOL0     H94327   4.242   4.512  10.254  2.3128  2.3506 -2.2525
  715MOL0     H94328   4.394   4.421  10.221 -2.4912 -3.9285  0.1011
  715MOL0     H94329   4.306   4.544  10.484 -1.0435  1.0312 -0.8446
  715MOL0     H94330   4.463   4.486  10.457 -1.5212  0.6017 -0.1057
  715MOL0     H94331   4.379   4.696  10.263 -0.8624  0.4965  2.6282
  715MOL0     H94332   4.532   4.607  10.280  1.1432 -2.8915  1.1679
  715MOL0     H94333   4.681   4.677  10.503  0.7487  0.2055 -0.0301
  715MOL0     H94334   4.790   4.861  10.686  0.6245 -0.5039  1.1048
  715MOL0     H94335   4.663   4.910  10.784 -1.1701  0.8972 -0.9537
  715MOL0     H94336   4.692   5.138  10.708 -1.3476 -0.9740  0.0579
  715MOL0     H94337   4.734   5.073  10.544  2.7098  2.7500  0.0440
  715MOL0     H94338   4.941   5.004  10.602 -1.2437  0.2074 -1.7993
  715MOL0     H94339   4.939   5.175  10.628  0.3503 -0.5731 -1.1556
  715MOL0     H94340   5.068   5.060  10.806 -1.2574 -0.6808 -1.5581
  715MOL0     H94341   4.916   4.985  10.858  1.6491 -0.8805  0.2352
  715MOL0     H94342   4.906   5.395  11.014  2.0165 -1.0503  3.0384
  715MOL0     H94343   4.725   5.444  11.198  1.2546  0.1702  1.1150
  715MOL0     H94344   4.470   5.226  11.551  0.9069  0.5048  0.6781
  715MOL0     H94345   4.310   5.280  11.704 -0.1676  1.3520  1.7277
  715MOL0     H94346   4.025   5.602  11.577  2.5977 -1.1363 -0.9852
  715MOL0     H94347   4.129   5.679  11.710 -0.3089  1.2546 -0.6186
  715MOL0     H94348   3.975   5.627  11.876 -2.2810  0.2838  0.6669
  715MOL0     H94349   3.943   5.478  11.785  1.7645  0.1430 -1.2038
  715MOL0     H94350   3.738   5.597  11.817  1.7119 -0.3662  0.8339
  715MOL0     H94351   3.794   5.643  11.652  1.0188  2.5176 -0.5367
  715MOL0     H94352   3.903   5.845  11.744 -0.9639 -0.4762 -3.0355
  715MOL0     H94353   3.719   5.843  11.747  0.3271 -0.4200 -1.1991
  715MOL0     H94354   3.840   5.943  11.941  0.3711 -0.6127 -1.0225
  715MOL0     H94355   3.900   5.779  11.985  1.6641 -1.7672 -3.9722
  715MOL0     H94356   3.665   5.703  12.019 -0.0054 -0.3228 -2.4026
  715MOL0     H94357   3.607   5.849  11.951  0.1264  2.1806  1.6807
  715MOL0     H94358   3.767   5.850  12.209  1.1733  2.7940  0.4744
  715MOL0     H94359   3.717   5.985  12.122  2.1051 -0.2380  0.8310
  715MOL0     H94360   3.573   5.899  12.306 -0.3047 -0.5457  0.0400
  715MOL0     H94361   3.517   5.775  12.201  1.1153  0.0572 -3.3040
  715MOL0     H94362   4.221   5.653  11.497 -2.0965 -1.5478  0.1395
  715MOL0     H94363   4.396   5.615  11.348  2.0203 -3.1907 -3.6880
  715MOL0     H94364   4.555   5.062  11.116 -3.6277  3.5388 -0.0235
  715MOL0     H94365   4.711   5.011  10.962 -2.2867 -1.3034  3.5106
  715MOL0     H94366   3.607   4.000  10.473 -0.5180 -0.8887 -0.2177
  715MOL0     H94367   3.479   4.015  10.686 -0.1252  3.4222 -3.6121
  715MOL0     H94368   3.711   4.067  11.309 -0.0136  2.0546 -3.4434
  715MOL0     H94369   3.577   4.050  11.502  1.9073 -2.5323 -0.6441
  715MOL0     H94370   3.456   3.971  11.677  2.4794 -2.0023 -0.1847
  715MOL0     H94371   3.461   3.828  11.588 -0.0138  0.9412 -4.9306
  715MOL0     H94372   3.240   3.930  11.753  2.9696  2.6462 -0.9997
  715MOL0     H94373   3.202   3.809  11.632 -0.7110  0.4832  1.9927
  715MOL0     H94374   3.365   3.765  11.869 -0.7011  3.1290 -0.4781
  715MOL0     H94375   3.398   3.661  11.730 -0.8616 -2.3862 -0.2321
  715MOL0     H94376   3.126   3.666  11.881 -1.8464 -0.4658 -1.4951
  715MOL0     H94377   3.146   3.594  11.730 -2.5598 -0.7192  1.6359
  715MOL0     H94378   3.353   3.331  12.014  2.6567  0.5204  0.0320
  715MOL0     H94379   3.227   3.982  11.267  1.2001 -2.2503  1.9407
  715MOL0     H94380   3.382   4.007  11.044  3.1416 -3.4257 -0.9616
  716MOL0     O94381  11.267  10.387   6.470 -0.1128 -1.1485 -0.6737
  716MOL0     C94382  11.302  10.466   6.379 -0.8001 -0.1676 -0.5071
  716MOL0     O94383  11.216  10.556   6.315 -0.0381  0.1208 -0.2251
  716MOL0     C94384  11.099  10.602   6.374 -0.5793 -0.6026 -0.0317
  716MOL0     C94385  11.025  10.669   6.285 -0.3761  0.2837 -0.4444
  716MOL0     C94386  10.911  10.741   6.324  0.0026 -0.1866 -1.3967
  716MOL0     C94387  10.877  10.751   6.465 -0.0999  1.0454  0.6552
  716MOL0     O94388  10.759  10.814   6.500 -0.5786  0.3064  0.5603
  716MOL0     C94389  10.779  10.957   6.497 -0.9985  0.0944 -0.7647
  716MOL0     C94390  10.713  11.007   6.631  0.4401 -0.5478  0.9147
  716MOL0     C94391  10.747  11.155   6.660 -1.1870 -0.0574 -0.2186
  716MOL0     C94392  10.685  11.192   6.795  0.0405 -0.8747  0.0841
  716MOL0     C94393  10.740  11.330   6.848  0.3557  0.4918  0.1885
  716MOL0     C94394  10.635  11.388   6.945 -0.5303  0.0302  0.5242
  716MOL0     C94395  10.525  11.452   6.868 -0.2854  0.4009 -0.9460
  716MOL0     C94396  10.414  11.502   6.948 -0.2041  0.5743 -0.8861
  716MOL0     N94397  10.315  11.401   6.986 -0.4034 -0.1854 -0.3487
  716MOL0     C94398  10.181  11.411   6.963  1.0853 -1.0471 -0.8049
  716MOL0     C94399  10.128  11.297   7.009  1.8745 -0.8886  0.1139
  716MOL0     C94400   9.980  11.273   7.002  0.7637  0.2278  0.1859
  716MOL0     C94401   9.936  11.259   6.854 -0.2686 -0.3706 -0.5147
  716MOL0     C94402   9.785  11.256   6.825 -0.3964 -0.3852  0.0133
  716MOL0     C94403   9.741  11.204   6.683  0.3288  0.8864  0.3436
  716MOL0     O94404   9.616  11.125   6.716  0.3479 -0.1458 -1.2690
  716MOL0     C94405   9.488  11.161   6.682  0.1722  0.4834 -0.4932
  716MOL0     C94406   9.444  11.281   6.620  1.0495 -0.0311  0.0381
  716MOL0     C94407   9.312  11.282   6.562 -0.0069  0.9775 -0.2326
  716MOL0     C94408   9.213  11.187   6.601 -1.0953  0.7727  0.0182
  716MOL0     C94409   9.073  11.201   6.570  1.4474 -0.0220 -0.1275
  716MOL0     O94410   9.005  11.320   6.596  0.4552 -0.5370 -0.4664
  716MOL0     C94411   8.881  11.359   6.562  0.4114  0.2854 -0.4017
  716MOL0     C94412   8.857  11.498   6.581  1.0746  0.7492  0.3152
  716MOL0     C94413   8.727  11.558   6.575 -0.6151 -0.9787 -0.2106
  716MOL0     C94414   8.619  11.473   6.527 -0.2339 -0.6896 -0.5120
  716MOL0     O94415   8.495  11.532   6.499  0.3804  0.1384 -0.3205
  716MOL0     C94416   8.457  11.540   6.359  0.2546  0.4871 -0.3681
  716MOL0     C94417   8.358  11.428   6.301  0.1366  0.1840 -0.0492
  716MOL0     C94418   8.236  11.404   6.397  0.2512  0.1025 -0.0695
  716MOL0     C94419   8.171  11.284   6.359  0.1027  0.1584  0.3787
  716MOL0     C94420   8.227  11.154   6.415 -0.2890  0.1307 -0.9042
  716MOL0     C94421   8.143  11.028   6.384  0.4620  1.0411 -0.4954
  716MOL0     C94422   8.003  11.025   6.457  0.7291  0.6099 -0.0371
  716MOL0     C94423   8.010  10.921   6.568  0.0614  0.3799  1.0010
  716MOL0    Cl94424   8.133  10.976   6.693 -0.0050 -0.3239  0.0448
  716MOL0     C94425   8.645  11.333   6.502  0.1142 -0.3713  0.3843
  716MOL0     C94426   8.768  11.279   6.522  0.6074 -0.2896 -0.3828
  716MOL0     O94427   9.009  11.107   6.530 -0.4820  0.0861  0.0883
  716MOL0     C94428   9.260  11.072   6.662 -0.3343  0.3527  0.4890
  716MOL0     C94429   9.392  11.061   6.707  0.3995 -0.2869 -0.0550
  716MOL0     N94430  10.229  11.221   7.062  0.4808 -0.0655 -0.6496
  716MOL0     N94431  10.337  11.289   7.055 -0.3780  0.2896 -0.4253
  716MOL0     C94432  10.958  10.685   6.558  0.6400  0.5746 -0.8240
  716MOL0     C94433  11.068  10.615   6.511 -0.0562  0.3402 -0.5977
  716MOL0     C94434  11.448  10.464   6.350  0.5150 -0.1094 -0.2782
  716MOL0     C94435  11.529  10.355   6.392 -1.7560  0.0117  0.0027
  716MOL0     C94436  11.666  10.359   6.358  0.6297  0.3687 -0.8574
  716MOL0     C94437  11.731  10.473   6.302  0.5181 -0.5632  0.5041
  716MOL0     O94438  11.865  10.455   6.284  0.9930  0.3573  0.0164
  716MOL0     C94439  11.942  10.563   6.234 -0.1613  0.0244  0.2494
  716MOL0     C94440  12.087  10.518   6.208  0.2286  0.6267  0.3197
  716MOL0     C94441  12.185  10.634   6.234  0.1314  0.8539  0.9847
  716MOL0     C94442  12.333  10.585   6.224 -0.1921  0.8483  0.4956
  716MOL0     C94443  12.427  10.686   6.189  0.7435 -0.3530  0.6458
  716MOL0     C94444  12.497  10.777   6.156  0.0977 -0.4181 -0.8719
  716MOL0     C94445  11.645  10.587   6.268  0.6695  0.2752 -0.5459
  716MOL0     C94446  11.505  10.576   6.296 -0.0763  0.8550 -0.7383
  716MOL0     H94447  11.053  10.658   6.181  0.8389 -0.5876 -0.0470
  716MOL0     H94448  10.845  10.778   6.246 -1.3954 -1.5268 -0.8856
  716MOL0     H94449  10.744  11.006   6.406  1.0877  0.2557 -1.5379
  716MOL0     H94450  10.883  10.991   6.496 -0.4758 -1.3651  0.3137
  716MOL0     H94451  10.745  10.945   6.715  1.4197  2.9319  3.3263
  716MOL0     H94452  10.604  11.001   6.626  0.3018 -1.1849  3.4549
  716MOL0     H94453  10.711  11.222   6.581  3.0977  2.1754 -0.5744
  716MOL0     H94454  10.855  11.169   6.661 -1.5097  3.0627  1.1565
  716MOL0     H94455  10.576  11.197   6.788 -0.1629  0.8777  3.0623
  716MOL0     H94456  10.709  11.123   6.876 -0.0489  0.9348  1.7187
  716MOL0     H94457  10.742  11.402   6.765 -0.3557 -0.4798 -0.6949
  716MOL0     H94458  10.841  11.327   6.891  1.7341  1.7072 -2.6555
  716MOL0     H94459  10.697  11.457   7.002  0.1201  0.0340 -0.1832
  716MOL0     H94460  10.603  11.314   7.020 -1.7955 -0.2810 -0.2865
  716MOL0     H94461  10.559  11.544   6.819  0.1711  1.7427  1.6679
  716MOL0     H94462  10.485  11.393   6.785  2.9937 -1.6561 -1.2589
  716MOL0     H94463  10.355  11.580   6.898  1.3402  0.6071 -2.7675
  716MOL0     H94464  10.451  11.543   7.042 -1.9418  3.5122 -1.3583
  716MOL0     H94465  10.129  11.485   6.903  1.9466  1.7622  1.6268
  716MOL0     H94466   9.925  11.351   7.055 -1.6682 -0.1540 -1.5900
  716MOL0     H94467   9.972  11.177   7.055  2.1893 -0.1533 -0.2367
  716MOL0     H94468   9.979  11.166   6.818  1.3925  0.3778 -0.5661
  716MOL0     H94469   9.974  11.340   6.791 -1.7882 -0.0190 -1.0261
  716MOL0     H94470   9.728  11.199   6.898 -0.8980 -0.7348 -0.6386
  716MOL0     H94471   9.753  11.361   6.828 -1.0067 -0.5927  0.6988
  716MOL0     H94472   9.820  11.138   6.646  1.0085  1.6210  0.4499
  716MOL0     H94473   9.733  11.288   6.613 -0.4698  3.4766  3.2924
  716MOL0     H94474   9.522  11.355   6.605 -0.3067  0.9430 -2.7156
  716MOL0     H94475   9.280  11.369   6.505 -0.6141  1.8297  1.3278
  716MOL0     H94476   8.951  11.550   6.594  2.3719 -0.9062 -1.8279
  716MOL0     H94477   8.711  11.664   6.591 -1.1186 -0.8434 -1.4761
  716MOL0     H94478   8.550  11.530   6.302  0.1405  1.0571 -0.6603
  716MOL0     H94479   8.409  11.635   6.333 -1.3273 -0.6658 -1.8842
  716MOL0     H94480   8.410  11.332   6.302 -0.3956 -0.1074  1.1413
  716MOL0     H94481   8.323  11.459   6.202 -2.6697  0.8528  1.0459
  716MOL0     H94482   8.176  11.496   6.398  2.8948  1.9443 -0.4526
  716MOL0     H94483   8.287  11.400   6.493  1.6927 -1.0698 -0.8441
  716MOL0     H94484   8.068  11.280   6.397 -0.0240 -0.0975  0.0064
  716MOL0     H94485   8.164  11.290   6.250  1.4070  4.0703  0.3573
  716MOL0     H94486   8.228  11.164   6.524 -1.6727 -2.3814 -0.5909
  716MOL0     H94487   8.329  11.131   6.383  0.9464  3.5980  0.0525
  716MOL0     H94488   8.206  10.943   6.413  1.6214  3.2413  4.4815
  716MOL0     H94489   8.122  11.022   6.277 -1.3775  1.3533 -0.1896
  716MOL0     H94490   7.979  11.127   6.487  0.4921  0.7161 -0.5712
  716MOL0     H94491   7.923  10.990   6.392  0.4779 -3.1609  2.0199
  716MOL0     H94492   8.048  10.826   6.529  2.0921  1.1758  0.9326
  716MOL0     H94493   7.911  10.895   6.607  0.9139 -2.7806  1.3224
  716MOL0     H94494   8.566  11.266   6.467  1.1740 -1.9330  0.8470
  716MOL0     H94495   8.776  11.171   6.510 -0.9426 -0.7758  2.1736
  716MOL0     H94496   9.189  10.993   6.684  0.0792 -0.0371  0.4421
  716MOL0     H94497   9.432  10.968   6.744  1.9871  0.2511 -0.3385
  716MOL0     H94498  10.942  10.707   6.663  2.1987  0.7840 -0.6078
  716MOL0     H94499  11.139  10.574   6.581 -0.4149  1.1953  0.2892
  716MOL0     H94500  11.499  10.272   6.455  3.3343  1.3757  4.9795
  716MOL0     H94501  11.718  10.267   6.382 -1.2032  0.2321  3.7488
  716MOL0     H94502  11.948  10.639   6.313 -2.5043 -0.8707  1.3993
  716MOL0     H94503  11.909  10.610   6.141  0.3125  1.9652  0.9988
  716MOL0     H94504  12.124  10.435   6.269  1.4207  1.3913  0.6737
  716MOL0     H94505  12.097  10.481   6.105  0.6391 -0.8936  0.8819
  716MOL0     H94506  12.150  10.671   6.331 -3.8027 -1.2361  0.5393
  716MOL0     H94507  12.174  10.712   6.158  2.1596  0.6262  0.3917
  716MOL0     H94508  12.370  10.540   6.317 -2.1477  2.2011  2.0057
  716MOL0     H94509  12.345  10.506   6.150 -0.7000  2.1439 -1.0343
  716MOL0     H94510  12.550  10.856   6.108  3.9841 -2.6547 -0.7688
  716MOL0     H94511  11.677  10.680   6.223 -1.2519  1.8857  1.2175
  716MOL0     H94512  11.438  10.661   6.286 -1.0036  0.4092  1.2061
  717MOL0     O94513   6.955   8.514   2.975  0.8602  0.1308  0.5213
  717MOL0     C94514   6.906   8.518   3.088  0.3307  0.0280  0.8770
  717MOL0     O94515   6.779   8.521   3.112 -0.4025 -0.4502 -0.5933
  717MOL0     C94516   6.691   8.499   3.009  0.6428  0.3204  0.3988
  717MOL0     C94517   6.608   8.391   3.013 -0.0191 -0.2014 -0.1757
  717MOL0     C94518   6.506   8.370   2.919  0.4564 -0.0873  0.8003
  717MOL0     C94519   6.472   8.476   2.829 -0.5089  0.2115 -1.7406
  717MOL0     O94520   6.381   8.465   2.727 -0.4887  0.2593 -0.1335
  717MOL0     C94521   6.388   8.339   2.652 -0.4480 -0.5099 -0.2428
  717MOL0     C94522   6.361   8.361   2.503  0.0240 -0.2977 -0.6403
  717MOL0     C94523   6.486   8.372   2.427  0.9389 -0.3296 -0.1987
  717MOL0     C94524   6.458   8.467   2.305 -0.1474  0.7413 -0.3544
  717MOL0     C94525   6.579   8.488   2.226  0.2438  0.7353  1.3710
  717MOL0     C94526   6.639   8.364   2.150  0.7640  0.8261  0.1903
  717MOL0     C94527   6.761   8.405   2.065 -1.3648  0.1857 -0.2783
  717MOL0     C94528   6.797   8.307   1.953 -0.9208 -0.6182  0.2096
  717MOL0     N94529   6.874   8.195   2.017  0.4894 -0.0496 -0.8989
  717MOL0     C94530   6.837   8.068   2.009 -0.0425  0.6655  0.3264
  717MOL0     C94531   6.923   7.995   2.086 -0.4862 -0.9965 -0.1030
  717MOL0     C94532   6.947   7.851   2.119  0.3091 -0.3060  0.2540
  717MOL0     C94533   6.968   7.769   1.991  0.3724  0.2924 -0.4506
  717MOL0     C94534   6.925   7.622   2.021  0.2367 -0.3768  0.2786
  717MOL0     C94535   6.773   7.612   2.017 -0.1906 -0.0037  0.4158
  717MOL0     O94536   6.723   7.483   1.973  0.1045 -0.1926  0.3129
  717MOL0     C94537   6.590   7.482   1.937 -0.4023  0.2444  0.0085
  717MOL0     C94538   6.491   7.574   1.981  0.2000  0.1758  0.0842
  717MOL0     C94539   6.350   7.545   1.959 -0.5797  0.1466 -0.4697
  717MOL0     C94540   6.311   7.443   1.872 -0.1331 -0.0154  0.5211
  717MOL0     C94541   6.170   7.413   1.837  0.0168 -0.3314 -1.2028
  717MOL0     O94542   6.098   7.528   1.836 -0.3660 -0.9930  0.2932
  717MOL0     C94543   5.957   7.524   1.805 -0.1714  0.7096 -0.0695
  717MOL0     C94544   5.856   7.529   1.906  0.2761  0.5981 -0.1478
  717MOL0     C94545   5.721   7.539   1.874  0.2257 -0.0032 -0.0723
  717MOL0     C94546   5.680   7.540   1.745  0.8656 -0.9402  1.1870
  717MOL0     O94547   5.544   7.556   1.714  0.2819 -0.1834 -0.6000
  717MOL0     C94548   5.458   7.618   1.815 -0.4099  0.0380 -0.0587
  717MOL0     C94549   5.395   7.509   1.905 -0.1338 -0.5442 -0.8010
  717MOL0     C94550   5.281   7.428   1.843  0.3744 -0.3658  0.8348
  717MOL0     C94551   5.239   7.317   1.940  0.4785 -0.8730  0.8122
  717MOL0     C94552   5.312   7.188   1.928 -0.0206  0.1576  0.0521
  717MOL0     C94553   5.298   7.109   1.795 -0.4528  0.2955 -0.2059
  717MOL0     C94554   5.166   7.038   1.770  0.6493  0.6712  0.2620
  717MOL0     C94555   5.147   6.985   1.631 -0.6748  0.8202  0.9732
  717MOL0    Cl94556   4.984   6.920   1.628  0.4520 -0.3182  0.1164
  717MOL0     C94557   5.773   7.524   1.643 -0.0657  0.7559  0.6730
  717MOL0     C94558   5.912   7.518   1.671  0.2145 -0.1485 -0.9254
  717MOL0     O94559   6.125   7.306   1.802  0.0328 -0.6603 -0.1989
  717MOL0     C94560   6.410   7.363   1.812  0.3548 -0.6359  0.3182
  717MOL0     C94561   6.549   7.380   1.852 -0.0221 -0.0359 -0.5256
  717MOL0     N94562   7.012   8.090   2.136 -0.9536 -0.1096  0.5988
  717MOL0     N94563   6.983   8.210   2.086 -0.0404 -0.1079 -0.3954
  717MOL0     C94564   6.552   8.591   2.831  0.4394 -0.5091 -0.5121
  717MOL0     C94565   6.662   8.608   2.919 -0.7316 -0.2321  0.1622
  717MOL0     C94566   6.990   8.478   3.204  0.2824 -0.6891 -0.7542
  717MOL0     C94567   7.046   8.353   3.211  0.3270 -0.3296 -0.1764
  717MOL0     C94568   7.095   8.309   3.330 -0.8754  0.1398 -0.0247
  717MOL0     C94569   7.095   8.392   3.444 -0.5696 -0.2592  0.6398
  717MOL0     O94570   7.152   8.348   3.559  0.0058 -0.5072 -0.0957
  717MOL0     C94571   7.213   8.444   3.650  0.2789 -1.0297 -0.1037
  717MOL0     C94572   7.323   8.536   3.591 -0.7055 -1.0313 -0.1543
  717MOL0     C94573   7.414   8.484   3.473  0.2091 -0.1204  0.3387
  717MOL0     C94574   7.500   8.375   3.527  0.2621  1.2626 -0.4393
  717MOL0     C94575   7.577   8.307   3.420 -0.1411 -0.2955 -0.3007
  717MOL0     C94576   7.636   8.256   3.323 -0.0450  0.6707 -0.5574
  717MOL0     C94577   7.033   8.514   3.438  0.4985  0.1372  0.6959
  717MOL0     C94578   6.966   8.550   3.324  0.9850 -0.4393  0.0437
  717MOL0     H94579   6.627   8.318   3.092 -0.7437  0.0286  0.2204
  717MOL0     H94580   6.433   8.291   2.933 -0.3323  0.7037  1.2163
  717MOL0     H94581   6.317   8.272   2.700 -0.7919  0.3900  0.5470
  717MOL0     H94582   6.485   8.289   2.651 -1.2594 -2.1300 -1.1519
  717MOL0     H94583   6.316   8.461   2.503 -1.8234 -1.0835 -0.6275
  717MOL0     H94584   6.300   8.290   2.447 -1.9346  0.6809  0.1186
  717MOL0     H94585   6.518   8.273   2.394  1.9453  0.4609 -1.6560
  717MOL0     H94586   6.570   8.404   2.490  1.4143 -2.8325  0.5687
  717MOL0     H94587   6.374   8.430   2.245  1.6941 -3.4288 -0.6822
  717MOL0     H94588   6.434   8.569   2.338  4.0915  1.5852  0.6430
  717MOL0     H94589   6.656   8.526   2.294 -0.0972  3.3183  0.4153
  717MOL0     H94590   6.555   8.568   2.156 -0.1438 -0.7950 -0.3080
  717MOL0     H94591   6.561   8.323   2.086 -1.5114  0.5175  2.9515
  717MOL0     H94592   6.665   8.289   2.226  0.7185  0.3536 -0.2568
  717MOL0     H94593   6.729   8.499   2.018  0.1019 -0.9593 -3.8965
  717MOL0     H94594   6.848   8.416   2.130 -1.2271 -3.5252  0.3725
  717MOL0     H94595   6.869   8.352   1.884  0.3478 -2.6557  0.0836
  717MOL0     H94596   6.714   8.257   1.902 -2.0765  1.1038  0.3480
  717MOL0     H94597   6.756   8.017   1.957  0.2414 -0.6457  1.1251
  717MOL0     H94598   6.866   7.821   2.186  1.0319 -4.5182 -0.5229
  717MOL0     H94599   7.039   7.847   2.178 -0.0537  0.3015  0.8849
  717MOL0     H94600   7.074   7.785   1.970  0.1778  1.1448 -0.8132
  717MOL0     H94601   6.905   7.813   1.913 -1.6677  0.1729  1.0433
  717MOL0     H94602   6.953   7.576   1.926  0.2585  2.7756 -1.3599
  717MOL0     H94603   6.977   7.568   2.101  3.5916 -0.6780 -1.9283
  717MOL0     H94604   6.745   7.676   1.933  1.9696 -0.2600 -0.5665
  717MOL0     H94605   6.724   7.645   2.108 -0.4504 -2.0701  1.0902
  717MOL0     H94606   6.517   7.660   2.042 -2.7533  0.1627  1.5820
  717MOL0     H94607   6.270   7.615   1.982  1.3311  2.5021 -0.5434
  717MOL0     H94608   5.890   7.528   2.009  1.3760 -1.1717 -0.4837
  717MOL0     H94609   5.653   7.563   1.955 -1.8967 -0.2099 -1.6823
  717MOL0     H94610   5.375   7.663   1.760 -1.0970  3.7279  3.4902
  717MOL0     H94611   5.512   7.695   1.871  0.5179 -0.9329  0.4272
  717MOL0     H94612   5.363   7.549   2.002  1.1437 -1.2325 -0.0631
  717MOL0     H94613   5.478   7.441   1.927  0.5166  0.0287 -1.4819
  717MOL0     H94614   5.307   7.390   1.744  0.9832  2.4020 -0.1678
  717MOL0     H94615   5.203   7.503   1.828  2.1634  1.2550 -0.9664
  717MOL0     H94616   5.236   7.360   2.041  2.2549  1.1010  0.0996
  717MOL0     H94617   5.131   7.302   1.933  0.5051 -0.8152  0.2973
  717MOL0     H94618   5.287   7.121   2.010 -0.6688 -1.1455 -1.1585
  717MOL0     H94619   5.416   7.216   1.947  0.0034  0.2370 -0.1867
  717MOL0     H94620   5.370   7.027   1.790 -0.7847 -0.1484  1.7097
  717MOL0     H94621   5.325   7.167   1.706  1.4641 -0.9833 -0.5136
  717MOL0     H94622   5.162   6.956   1.842 -2.3773  0.7456  0.3030
  717MOL0     H94623   5.086   7.112   1.780  0.1050  0.0010  0.9265
  717MOL0     H94624   5.220   6.905   1.618  0.4339  1.6000  2.0812
  717MOL0     H94625   5.174   7.064   1.560  1.4298 -0.9363 -0.2925
  717MOL0     H94626   5.748   7.525   1.538 -0.3822 -0.1256  0.7355
  717MOL0     H94627   5.984   7.520   1.590 -0.9614 -1.2068 -2.0336
  717MOL0     H94628   6.383   7.287   1.739 -1.4514 -0.7253  1.0424
  717MOL0     H94629   6.620   7.308   1.814  1.1365  1.0080 -0.3826
  717MOL0     H94630   6.530   8.660   2.750 -1.9188  1.5411  1.7045
  717MOL0     H94631   6.734   8.689   2.912 -0.9331  0.0691  1.3143
  717MOL0     H94632   7.039   8.286   3.126  3.1714 -2.2323  0.9300
  717MOL0     H94633   7.127   8.206   3.339 -5.0544 -1.2315  1.3591
  717MOL0     H94634   7.260   8.372   3.718  0.1020 -1.6243 -0.6008
  717MOL0     H94635   7.137   8.502   3.703 -1.9284 -0.0177 -4.0029
  717MOL0     H94636   7.277   8.631   3.563  0.1313 -0.3842  0.5863
  717MOL0     H94637   7.388   8.564   3.674 -2.0424 -2.1112  1.3231
  717MOL0     H94638   7.475   8.566   3.435 -2.1133  0.6457 -2.0073
  717MOL0     H94639   7.367   8.443   3.384 -0.8703  0.1701  0.7650
  717MOL0     H94640   7.570   8.431   3.590  0.1237  4.2063 -2.6686
  717MOL0     H94641   7.436   8.307   3.583  3.5955 -1.4728  0.4318
  717MOL0     H94642   7.705   8.204   3.260 -1.6922 -3.0529  0.4190
  717MOL0     H94643   7.020   8.562   3.534  1.4225 -4.2883  3.2942
  717MOL0     H94644   6.901   8.637   3.322  0.7827 -0.5918 -1.7163
  718MOL0     O94645  10.717   6.028   0.521  0.0862  0.0257  0.4770
  718MOL0     C94646  10.679   6.131   0.467  0.5862 -0.0656 -0.6656
  718MOL0     O94647  10.551   6.174   0.464  0.2417 -0.2273  0.0911
  718MOL0     C94648  10.446   6.094   0.487  0.0673 -0.5033 -0.1326
  718MOL0     C94649  10.427   5.960   0.458  1.1714  0.7223  0.5285
  718MOL0     C94650  10.304   5.901   0.495  1.7429 -1.0225 -0.2027
  718MOL0     C94651  10.195   5.972   0.554 -0.8464  0.4598  0.5702
  718MOL0     O94652  10.074   5.896   0.579 -0.1844  0.6255  0.3301
  718MOL0     C94653  10.000   5.931   0.701 -0.1523 -0.0171  0.2922
  718MOL0     C94654  10.055   5.847   0.819 -0.0905 -1.0361  0.3616
  718MOL0     C94655  10.162   5.903   0.906 -0.8916 -0.4026 -0.0935
  718MOL0     C94656  10.120   6.024   0.988  0.5283  0.3827 -0.4397
  718MOL0     C94657  10.211   6.035   1.111 -0.0195 -0.2848 -0.3468
  718MOL0     C94658  10.193   5.936   1.223 -0.8831  0.2990 -0.2871
  718MOL0     C94659  10.083   5.953   1.335 -1.2779  1.0507 -0.4005
  718MOL0     C94660  10.120   5.864   1.455 -0.2851 -0.3069  0.2052
  718MOL0     N94661  10.172   5.942   1.572  1.2689 -0.0854  0.0691
  718MOL0     C94662  10.274   6.039   1.569  0.2259 -0.0377  0.6764
  718MOL0     C94663  10.278   6.096   1.689 -0.1103  1.1862 -1.1009
  718MOL0     C94664  10.369   6.209   1.729 -0.0491  0.0758 -0.0974
  718MOL0     C94665  10.339   6.340   1.664  0.5013 -0.4514 -0.7508
  718MOL0     C94666  10.449   6.447   1.704 -0.0046  1.0975 -0.6539
  718MOL0     C94667  10.451   6.576   1.624 -0.0543  0.4165  0.4484
  718MOL0     O94668  10.458   6.553   1.483 -0.0885  0.4186  0.2743
  718MOL0     C94669  10.503   6.652   1.391  1.2093  0.5157  0.0623
  718MOL0     C94670  10.471   6.784   1.415  0.7416 -0.8936 -0.2803
  718MOL0     C94671  10.498   6.880   1.305 -0.2180  0.6170 -0.1489
  718MOL0     C94672  10.542   6.835   1.178  0.2213  0.4247 -1.2628
  718MOL0     C94673  10.569   6.938   1.072 -0.0403  0.3986 -0.4322
  718MOL0     O94674  10.592   6.880   0.951 -0.4021  0.1544  0.0574
  718MOL0     C94675  10.642   6.972   0.863 -1.3749 -0.1119  0.2692
  718MOL0     C94676  10.773   7.024   0.876  0.2499 -1.2182 -0.6160
  718MOL0     C94677  10.828   7.112   0.782 -0.1346  0.1999 -0.9273
  718MOL0     C94678  10.761   7.126   0.666  0.3627  0.1574 -0.2038
  718MOL0     O94679  10.850   7.185   0.578  0.6885 -0.3450  0.6320
  718MOL0     C94680  10.798   7.290   0.495 -0.5647 -0.5028 -0.1122
  718MOL0     C94681  10.884   7.416   0.491  0.1303  0.6058  0.3231
  718MOL0     C94682  11.019   7.408   0.423 -0.6813  0.3755  0.0451
  718MOL0     C94683  11.085   7.547   0.436 -0.4623  0.3341  0.6709
  718MOL0     C94684  11.225   7.525   0.365  0.7564  1.2776  0.1926
  718MOL0     C94685  11.325   7.641   0.396 -0.8698  0.8468 -0.0643
  718MOL0     C94686  11.273   7.775   0.379 -0.5387 -0.6030  0.5301
  718MOL0     C94687  11.387   7.886   0.385 -0.3239  0.1511  0.1428
  718MOL0    Cl94688  11.442   7.920   0.225  0.2052  0.2321 -0.2583
  718MOL0     C94689  10.631   7.084   0.639  0.2981  0.6268 -0.2980
  718MOL0     C94690  10.573   7.003   0.744 -0.6049  0.1781 -0.4263
  718MOL0     O94691  10.539   7.052   1.095  0.2429 -0.4940  0.4194
  718MOL0     C94692  10.587   6.698   1.174  0.1755  0.7081 -0.1465
  718MOL0     C94693  10.546   6.612   1.267 -0.4585  0.5533 -0.7803
  718MOL0     N94694  10.179   6.032   1.761  0.1550 -0.0140  0.3799
  718MOL0     N94695  10.115   5.947   1.692  0.3272  0.1485 -0.0954
  718MOL0     C94696  10.219   6.104   0.591 -0.1310 -0.7052  0.3804
  718MOL0     C94697  10.343   6.169   0.548  0.2280  0.2363 -0.2226
  718MOL0     C94698  10.779   6.243   0.427  0.1727  0.4708 -0.1319
  718MOL0     C94699  10.752   6.355   0.340  0.3170 -0.1046  0.3877
  718MOL0     C94700  10.848   6.450   0.313  0.5371 -0.1348  1.6649
  718MOL0     C94701  10.964   6.462   0.396  0.4731  0.0856 -0.3400
  718MOL0     O94702  11.040   6.574   0.396 -0.1041  0.0488  0.7450
  718MOL0     C94703  11.138   6.606   0.496 -0.2181  0.1298 -0.2089
  718MOL0     C94704  11.063   6.629   0.625  0.3130  0.8533 -0.4146
  718MOL0     C94705  11.126   6.746   0.705  0.2272 -0.4456  0.2174
  718MOL0     C94706  11.038   6.821   0.807  1.3682 -0.2882  0.1888
  718MOL0     C94707  10.964   6.727   0.892  0.5266 -0.2103  0.3499
  718MOL0     C94708  10.899   6.649   0.957  0.2989  0.4378 -0.2024
  718MOL0     C94709  10.987   6.350   0.490 -0.7235  0.4501 -0.2522
  718MOL0     C94710  10.901   6.240   0.499  0.5601 -1.0266  0.1958
  718MOL0     H94711  10.504   5.895   0.419 -0.9024  0.5879 -3.9415
  718MOL0     H94712  10.287   5.795   0.482 -0.5880 -0.4502 -2.6640
  718MOL0     H94713   9.893   5.914   0.686  0.0487 -2.1890  0.9513
  718MOL0     H94714  10.016   6.036   0.728  0.8310 -0.3381  1.0182
  718MOL0     H94715  10.098   5.759   0.771  0.1831 -1.0850  0.6901
  718MOL0     H94716   9.974   5.812   0.885  1.1347 -1.2638  1.8125
  718MOL0     H94717  10.245   5.947   0.849 -1.6648  1.3909  0.0930
  718MOL0     H94718  10.198   5.810   0.951  0.8014 -0.5081 -1.5589
  718MOL0     H94719  10.128   6.111   0.922  0.1220  1.5075  0.9361
  718MOL0     H94720  10.018   6.015   1.029  0.8340  2.0086  0.8179
  718MOL0     H94721  10.209   6.139   1.146 -0.7370 -0.1579 -0.7278
  718MOL0     H94722  10.311   6.025   1.068  0.1160  1.8362 -0.6490
  718MOL0     H94723  10.292   5.926   1.268  0.2515 -0.1411 -2.6780
  718MOL0     H94724  10.180   5.834   1.184 -1.4623  0.9118 -1.8016
  718MOL0     H94725  10.078   6.057   1.368 -0.3110  0.9721  0.0307
  718MOL0     H94726   9.989   5.910   1.299 -1.1721  2.1019 -2.0567
  718MOL0     H94727  10.185   5.777   1.442 -2.4793 -2.3434  2.0508
  718MOL0     H94728  10.026   5.829   1.498 -0.2196 -0.3602  0.3041
  718MOL0     H94729  10.351   6.061   1.495 -0.1573  2.8050  1.0142
  718MOL0     H94730  10.474   6.180   1.717  0.8882  2.4754  1.6397
  718MOL0     H94731  10.369   6.225   1.837  0.8294  0.3600 -0.1269
  718MOL0     H94732  10.242   6.379   1.696  0.2294 -0.4976 -1.5102
  718MOL0     H94733  10.336   6.336   1.555 -1.5035 -1.4269 -0.7140
  718MOL0     H94734  10.451   6.453   1.813 -2.7114 -2.1360 -0.2704
  718MOL0     H94735  10.547   6.401   1.688 -1.0076 -1.4856  0.1257
  718MOL0     H94736  10.540   6.632   1.652  0.5750 -1.3533  2.1812
  718MOL0     H94737  10.361   6.635   1.647  0.3504  0.5679  1.7204
  718MOL0     H94738  10.436   6.812   1.514 -0.4285 -1.0915 -0.6270
  718MOL0     H94739  10.498   6.988   1.322  2.5162  0.4455  1.5984
  718MOL0     H94740  10.823   6.993   0.968  0.4483  0.0881 -0.2659
  718MOL0     H94741  10.928   7.153   0.792  0.0591  0.0289 -2.0408
  718MOL0     H94742  10.696   7.319   0.519 -1.2800 -0.1304 -3.1709
  718MOL0     H94743  10.784   7.252   0.393  1.3160  2.4978 -1.6289
  718MOL0     H94744  10.881   7.445   0.597 -0.7251 -1.2742  0.8572
  718MOL0     H94745  10.816   7.478   0.433 -2.2994 -2.9867 -1.0655
  718MOL0     H94746  10.991   7.392   0.319 -2.2604  0.1487  0.4865
  718MOL0     H94747  11.065   7.318   0.465 -0.5148  0.7832  0.7676
  718MOL0     H94748  11.032   7.623   0.379 -1.3130  0.1525  1.2139
  718MOL0     H94749  11.091   7.587   0.538  2.2566 -0.9481  1.1152
  718MOL0     H94750  11.221   7.512   0.257  1.1555 -0.9973  0.4102
  718MOL0     H94751  11.262   7.428   0.399 -1.3080  1.2040  2.4906
  718MOL0     H94752  11.422   7.640   0.344 -1.3547  1.7032 -1.0158
  718MOL0     H94753  11.363   7.632   0.498 -0.1033 -1.1768 -0.4732
  718MOL0     H94754  11.214   7.778   0.287 -2.6226  1.3601  1.8003
  718MOL0     H94755  11.209   7.804   0.463 -0.2694  0.7696  0.2982
  718MOL0     H94756  11.469   7.847   0.446 -0.6206 -1.4262 -0.4221
  718MOL0     H94757  11.338   7.977   0.421  0.4238  0.0601  1.4534
  718MOL0     H94758  10.591   7.083   0.538 -1.0021 -0.4375  0.2093
  718MOL0     H94759  10.485   6.945   0.716  0.2014  0.2035 -3.3344
  718MOL0     H94760  10.647   6.678   1.086 -0.7293  0.6589 -0.7791
  718MOL0     H94761  10.567   6.506   1.257 -1.5682  0.4116 -1.9849
  718MOL0     H94762  10.145   6.161   0.646  1.7409 -2.1324  4.7594
  718MOL0     H94763  10.349   6.277   0.557  1.6902  0.0574  1.6505
  718MOL0     H94764  10.661   6.349   0.282  0.9370 -0.5494 -0.5662
  718MOL0     H94765  10.835   6.532   0.243  1.9673  1.1332  2.8217
  718MOL0     H94766  11.178   6.695   0.447 -0.0073  0.5210  0.6633
  718MOL0     H94767  11.212   6.527   0.513 -0.0118  0.5157  0.7555
  718MOL0     H94768  10.963   6.660   0.593  1.0918  3.9428 -0.0960
  718MOL0     H94769  11.056   6.537   0.684  2.6558  1.7314  1.3849
  718MOL0     H94770  11.166   6.822   0.637  0.1246  1.1571  1.8534
  718MOL0     H94771  11.215   6.719   0.763  2.2633  2.0698 -1.4961
  718MOL0     H94772  11.097   6.892   0.866  0.9624 -0.0475  0.3122
  718MOL0     H94773  10.961   6.874   0.750  1.7058  2.0172  1.7455
  718MOL0     H94774  10.840   6.593   1.027 -0.6942  2.4054  0.6101
  718MOL0     H94775  11.075   6.348   0.554  1.5785  2.9529 -3.0812
  718MOL0     H94776  10.932   6.168   0.574  0.2287 -2.0423 -0.6220
  719MOL0     O94777   0.372   5.596   3.053  0.2165  0.5664  0.9104
  719MOL0     C94778   0.252   5.592   3.035  0.3634 -0.5343  0.6072
  719MOL0     O94779   0.172   5.703   3.023  0.4572 -0.4910  0.1166
  719MOL0     C94780   0.234   5.825   3.065 -0.0923  0.4761 -0.0514
  719MOL0     C94781   0.305   5.837   3.189  0.3168  0.6921  0.6761
  719MOL0     C94782   0.361   5.959   3.227 -1.2643  0.1317  0.0434
  719MOL0     C94783   0.365   6.066   3.131  0.2104  1.0717 -0.6370
  719MOL0     O94784   0.401   6.184   3.176 -0.5473 -0.5071  0.4927
  719MOL0     C94785   0.540   6.188   3.200 -0.3044 -0.4938  0.0489
  719MOL0     C94786   0.599   6.319   3.160 -0.9992 -0.3805 -1.0936
  719MOL0     C94787   0.609   6.327   3.009  0.9832  0.6603 -0.8213
  719MOL0     C94788   0.723   6.429   2.977  0.6659 -0.3776  0.5493
  719MOL0     C94789   0.866   6.363   2.967 -1.0804  0.5873 -0.7466
  719MOL0     C94790   0.890   6.281   2.842 -0.7179 -0.3255  0.1622
  719MOL0     C94791   1.031   6.285   2.793  0.7226 -0.0554 -0.3532
  719MOL0     C94792   1.060   6.202   2.675 -0.1675  0.6859 -0.4224
  719MOL0     N94793   1.190   6.242   2.624  0.7529  0.3114 -0.1187
  719MOL0     C94794   1.214   6.351   2.558  0.0603  0.6736 -0.7000
  719MOL0     C94795   1.323   6.328   2.480  0.6114 -1.0695  0.2789
  719MOL0     C94796   1.385   6.426   2.391  0.1299 -0.6444  0.7412
  719MOL0     C94797   1.419   6.555   2.464  0.9677 -0.3769 -0.4518
  719MOL0     C94798   1.495   6.658   2.375  0.0927  1.0450  0.6502
  719MOL0     C94799   1.644   6.643   2.402  0.1058  0.7144  0.6573
  719MOL0     O94800   1.687   6.659   2.542  0.1464 -0.2125 -0.6945
  719MOL0     C94801   1.818   6.681   2.572  0.5392 -0.2850  0.0600
  719MOL0     C94802   1.922   6.698   2.474  0.6123  0.2663 -0.9026
  719MOL0     C94803   2.049   6.720   2.524  0.6883  0.2334  0.3930
  719MOL0     C94804   2.070   6.730   2.663 -0.0692 -0.1826 -0.0400
  719MOL0     C94805   2.204   6.766   2.709  0.0959  0.3708  0.5505
  719MOL0     O94806   2.302   6.765   2.624 -0.0590  0.2628  0.2152
  719MOL0     C94807   2.432   6.791   2.668 -1.2260  0.4044  0.4741
  719MOL0     C94808   2.508   6.879   2.584  0.5131 -0.7580 -0.0330
  719MOL0     C94809   2.637   6.910   2.618  0.4540 -0.0165 -0.1706
  719MOL0     C94810   2.698   6.850   2.738  0.6050 -0.6399  0.1492
  719MOL0     O94811   2.829   6.866   2.767  0.3082 -0.5874  0.1389
  719MOL0     C94812   2.933   6.882   2.664  0.3819 -0.0421  0.5990
  719MOL0     C94813   3.056   6.931   2.735 -0.6422 -0.7771  0.1533
  719MOL0     C94814   3.099   6.857   2.868  0.6069  0.8046 -0.3615
  719MOL0     C94815   3.163   6.725   2.831 -0.4738 -0.7289 -0.1300
  719MOL0     C94816   3.199   6.647   2.951 -0.4957 -0.7532  0.1309
  719MOL0     C94817   3.085   6.565   3.013  0.8701 -0.2025  0.8195
  719MOL0     C94818   3.043   6.453   2.915  0.2671 -0.1263 -0.3072
  719MOL0     C94819   2.961   6.337   2.981  0.5525 -0.1052  1.0063
  719MOL0    Cl94820   2.799   6.413   3.024 -0.0526  0.4680  0.2347
  719MOL0     C94821   2.630   6.762   2.813  0.2885  0.2657  0.9329
  719MOL0     C94822   2.494   6.732   2.779  0.4453 -0.1953  0.6563
  719MOL0     O94823   2.214   6.794   2.836 -0.1170  0.4638  0.5895
  719MOL0     C94824   1.966   6.732   2.747 -0.8198  0.3640 -0.0785
  719MOL0     C94825   1.839   6.703   2.701 -0.7952 -0.5630 -1.0010
  719MOL0     N94826   1.379   6.210   2.513 -0.1356  0.0073 -0.4797
  719MOL0     N94827   1.294   6.151   2.595 -0.1473 -0.1155  0.3211
  719MOL0     C94828   0.290   6.057   3.009  0.0286  1.3257  0.2750
  719MOL0     C94829   0.223   5.934   2.979  0.7556 -0.0374 -0.8250
  719MOL0     C94830   0.181   5.462   3.014  0.1457 -0.0568  0.2706
  719MOL0     C94831   0.061   5.448   2.936  0.0257 -0.4654  0.3814
  719MOL0     C94832  -0.004   5.324   2.941 -0.5360 -0.2354  1.6528
  719MOL0     C94833   0.056   5.206   2.985  1.0798  0.4974  0.8489
  719MOL0     O94834  -0.028   5.095   2.969  0.3075 -0.9706  0.5178
  719MOL0     C94835   0.043   4.975   2.963  0.5921 -0.2182  0.1994
  719MOL0     C94836   0.115   4.954   2.833  0.0881 -0.8435 -1.4341
  719MOL0     C94837   0.234   4.860   2.858 -1.2244 -0.5889 -0.3527
  719MOL0     C94838   0.308   4.819   2.730  0.0376 -0.9278  1.0051
  719MOL0     C94839   0.430   4.740   2.758  0.4627 -0.3744  0.3183
  719MOL0     C94840   0.528   4.675   2.770 -0.3188  0.2079  0.9410
  719MOL0     C94841   0.185   5.212   3.030 -0.3610  0.3807  0.9709
  719MOL0     C94842   0.248   5.336   3.033  0.5321 -1.1902 -1.1547
  719MOL0     H94843   0.309   5.750   3.254 -0.5162  0.8533  0.9541
  719MOL0     H94844   0.404   5.969   3.326 -0.0153 -1.3561 -0.3148
  719MOL0     H94845   0.587   6.103   3.149 -0.0872 -1.2062  1.3857
  719MOL0     H94846   0.538   6.178   3.309 -3.1125  1.7661  0.3123
  719MOL0     H94847   0.687   6.333   3.224 -1.3708  0.0859 -0.6803
  719MOL0     H94848   0.533   6.400   3.191 -1.2221 -0.9383 -0.0621
  719MOL0     H94849   0.516   6.361   2.963  0.1146  0.7660  0.9330
  719MOL0     H94850   0.634   6.226   2.975 -2.3128 -1.5748  2.5294
  719MOL0     H94851   0.697   6.484   2.886  1.1051 -0.2922  0.4701
  719MOL0     H94852   0.734   6.502   3.057  0.2210 -1.7073  1.8771
  719MOL0     H94853   0.887   6.304   3.057 -0.3462  0.9461 -0.6799
  719MOL0     H94854   0.931   6.450   2.954  1.3483 -1.1375 -0.6140
  719MOL0     H94855   0.822   6.331   2.772 -1.6532  0.3311  1.4852
  719MOL0     H94856   0.853   6.178   2.845 -0.9854 -0.4233 -3.0219
  719MOL0     H94857   1.065   6.386   2.771 -1.5220  0.6015 -1.0468
  719MOL0     H94858   1.078   6.243   2.883 -2.2989  1.6663  2.2253
  719MOL0     H94859   0.986   6.218   2.597 -1.1502  2.7098  0.8440
  719MOL0     H94860   1.055   6.099   2.712 -0.8067  0.9559  0.2667
  719MOL0     H94861   1.155   6.443   2.556 -1.2910 -0.1154 -3.3377
  719MOL0     H94862   1.318   6.447   2.308  3.1074  2.4690 -1.1266
  719MOL0     H94863   1.475   6.379   2.349  0.4246  0.8373 -0.3660
  719MOL0     H94864   1.473   6.534   2.556 -1.3031 -1.0058  0.8207
  719MOL0     H94865   1.326   6.603   2.497 -0.1164 -3.9972  2.4829
  719MOL0     H94866   1.469   6.648   2.269  1.2299  1.8186  0.2714
  719MOL0     H94867   1.458   6.758   2.401 -2.6367  0.7378 -1.5612
  719MOL0     H94868   1.699   6.716   2.343 -0.7007  1.1275  0.4027
  719MOL0     H94869   1.681   6.543   2.376  2.4131  1.4966  0.6761
  719MOL0     H94870   1.898   6.691   2.368  4.0520 -0.4596 -1.7545
  719MOL0     H94871   2.125   6.726   2.446  0.1827 -4.3996 -0.7439
  719MOL0     H94872   2.452   6.928   2.504 -0.8698  1.4601  2.1603
  719MOL0     H94873   2.690   6.982   2.556 -1.0786  1.4602  0.1380
  719MOL0     H94874   2.902   6.965   2.599 -2.2448 -1.9843 -0.8198
  719MOL0     H94875   2.956   6.799   2.597 -0.4504  2.2342 -2.7268
  719MOL0     H94876   3.024   7.033   2.758 -4.0400 -2.4386  3.8795
  719MOL0     H94877   3.142   6.923   2.667  0.7744  2.2645  1.4233
  719MOL0     H94878   3.010   6.830   2.925 -0.6262 -1.2626 -3.0614
  719MOL0     H94879   3.165   6.915   2.933  1.1437  0.9683 -1.0387
  719MOL0     H94880   3.091   6.675   2.766 -0.6995  1.4828 -1.7069
  719MOL0     H94881   3.257   6.731   2.776 -0.8074 -2.5039 -0.9768
  719MOL0     H94882   3.238   6.712   3.029 -3.3536  0.5981  0.5932
  719MOL0     H94883   3.281   6.585   2.916  0.1807  0.3431 -0.2880
  719MOL0     H94884   2.997   6.622   3.045 -0.4487 -1.7498  0.1083
  719MOL0     H94885   3.126   6.522   3.105  0.3970  0.0057  1.1340
  719MOL0     H94886   2.987   6.488   2.828 -0.6155 -0.5540  0.0787
  719MOL0     H94887   3.131   6.405   2.871  0.6814 -1.7048  2.0582
  719MOL0     H94888   3.013   6.276   3.056  1.3126  0.6686  1.1202
  719MOL0     H94889   2.944   6.256   2.908 -1.0633  1.9470 -1.0404
  719MOL0     H94890   2.673   6.725   2.906  0.2386 -0.4813  0.6662
  719MOL0     H94891   2.431   6.675   2.846 -1.1270 -0.1249 -0.6759
  719MOL0     H94892   1.980   6.762   2.850  0.2354  0.4200 -0.2197
  719MOL0     H94893   1.756   6.713   2.770 -0.0778  3.3332 -0.4838
  719MOL0     H94894   0.294   6.153   2.960  1.7873  1.1345 -0.0116
  719MOL0     H94895   0.142   5.927   2.906  0.1538  0.3802 -0.2098
  719MOL0     H94896   0.015   5.533   2.886  1.9684  0.0378 -0.6460
  719MOL0     H94897  -0.105   5.327   2.902  0.8416  1.8166 -2.2120
  719MOL0     H94898  -0.013   4.884   2.986  4.1276 -3.2425 -2.0000
  719MOL0     H94899   0.115   4.979   3.046 -0.7037  1.4504  1.3139
  719MOL0     H94900   0.040   4.903   2.772  1.8151 -4.2199 -0.9853
  719MOL0     H94901   0.151   5.046   2.786 -1.9257  0.8904  0.2235
  719MOL0     H94902   0.202   4.766   2.904  0.8035 -0.4233  1.5862
  719MOL0     H94903   0.312   4.908   2.917 -1.8367  0.4152 -0.3514
  719MOL0     H94904   0.247   4.761   2.660 -0.7029  0.3261  0.5783
  719MOL0     H94905   0.340   4.913   2.684  0.0387 -1.1170  0.6172
  719MOL0     H94906   0.610   4.615   2.804 -1.2732 -0.5695  1.9330
  719MOL0     H94907   0.241   5.123   3.056 -0.5611  0.3072  1.1545
  719MOL0     H94908   0.347   5.348   3.075 -0.5512  2.7197  0.7397
  720MOL0     O94909   4.577   1.113   7.232 -0.4576 -0.0447  0.4106
  720MOL0     C94910   4.642   1.013   7.193 -0.0902 -0.3481 -1.3458
  720MOL0     O94911   4.786   1.008   7.203 -0.7990 -0.3571  0.7210
  720MOL0     C94912   4.837   1.119   7.271  0.6724  0.0100  0.1971
  720MOL0     C94913   4.912   1.216   7.204  0.1836 -0.1041 -0.0182
  720MOL0     C94914   4.948   1.328   7.273  0.1736  0.6915 -0.0562
  720MOL0     C94915   4.939   1.332   7.415 -0.2194  0.1075 -0.6198
  720MOL0     O94916   4.996   1.432   7.494  0.0796 -0.3053 -0.3896
  720MOL0     C94917   4.990   1.564   7.441 -0.6519 -1.0524  0.0332
  720MOL0     C94918   5.009   1.663   7.546 -0.3948  0.1209 -0.2530
  720MOL0     C94919   4.905   1.786   7.526  0.0469  1.0074 -0.0921
  720MOL0     C94920   4.936   1.872   7.401  0.1412 -0.5512 -0.0935
  720MOL0     C94921   5.059   1.954   7.430  0.4341 -0.6078  0.3226
  720MOL0     C94922   5.110   2.023   7.304 -0.9512  0.5843 -0.0890
  720MOL0     C94923   5.228   2.114   7.311 -0.5338 -0.0685 -0.1766
  720MOL0     C94924   5.302   2.106   7.176 -0.2965 -0.5133  0.7412
  720MOL0     N94925   5.222   2.166   7.068 -0.5367  0.4343 -0.3321
  720MOL0     C94926   5.183   2.106   6.955  1.1888  0.1162 -1.0890
  720MOL0     C94927   5.160   2.197   6.862 -0.6556 -0.3801 -0.4409
  720MOL0     C94928   5.090   2.174   6.731 -1.3135  0.3589  0.9682
  720MOL0     C94929   5.183   2.111   6.629 -0.0736  0.4661 -0.4419
  720MOL0     C94930   5.103   2.024   6.524 -0.2892 -0.3489 -0.1858
  720MOL0     C94931   5.056   2.097   6.404  0.3883 -0.8028  0.0356
  720MOL0     O94932   4.958   2.205   6.437  0.3532 -0.6121 -0.4336
  720MOL0     C94933   4.928   2.306   6.352 -0.2363 -1.2026 -1.2147
  720MOL0     C94934   4.949   2.297   6.214  0.1836 -0.4682 -0.2073
  720MOL0     C94935   4.928   2.410   6.135 -0.1821 -0.8173  0.5378
  720MOL0     C94936   4.892   2.536   6.192  0.8206  0.6413  0.2016
  720MOL0     C94937   4.883   2.659   6.107 -0.4098  0.3025  0.3308
  720MOL0     O94938   4.881   2.647   5.969 -0.6383 -0.2675 -0.3253
  720MOL0     C94939   4.915   2.769   5.900 -0.1524  0.3635  0.2604
  720MOL0     C94940   5.039   2.811   5.857 -0.7838 -0.4516  0.4987
  720MOL0     C94941   5.070   2.931   5.791 -0.0499 -0.8417 -1.0786
  720MOL0     C94942   4.963   3.011   5.754 -0.4306 -0.3971 -0.2063
  720MOL0     O94943   4.981   3.119   5.668 -0.3797 -0.1839  0.7109
  720MOL0     C94944   4.877   3.162   5.581 -0.4384 -0.0347  0.2240
  720MOL0     C94945   4.943   3.220   5.453  0.5265 -0.1722  0.6123
  720MOL0     C94946   4.833   3.242   5.345  0.2413  0.6001 -1.1264
  720MOL0     C94947   4.869   3.351   5.246  0.0770  0.2133 -1.1859
  720MOL0     C94948   4.770   3.357   5.127 -0.0901 -0.9041  0.1845
  720MOL0     C94949   4.825   3.286   5.004 -0.0802 -0.6167  0.1723
  720MOL0     C94950   4.710   3.266   4.903  0.1164  0.6984  0.7709
  720MOL0     C94951   4.641   3.399   4.851 -0.0995  0.2139 -0.6529
  720MOL0    Cl94952   4.748   3.495   4.754  0.7267 -0.3969  0.1869
  720MOL0     C94953   4.831   2.969   5.795  0.3990  0.7278 -0.6929
  720MOL0     C94954   4.807   2.848   5.858  0.2591  0.0327  1.2250
  720MOL0     O94955   4.883   2.768   6.166  0.5138 -1.2141  0.7701
  720MOL0     C94956   4.872   2.540   6.334  0.0064 -0.1027  0.9791
  720MOL0     C94957   4.883   2.427   6.410  0.1575 -0.0300 -0.3727
  720MOL0     N94958   5.165   2.315   6.929  0.0132 -0.1349 -0.4702
  720MOL0     N94959   5.222   2.299   7.037  0.0722  0.1146 -0.0988
  720MOL0     C94960   4.874   1.226   7.483  1.0242 -0.5297  0.6374
  720MOL0     C94961   4.818   1.123   7.416 -0.5037  0.6559  0.3500
  720MOL0     C94962   4.569   0.893   7.135  0.6128  0.3129 -0.1377
  720MOL0     C94963   4.427   0.877   7.124 -0.1686  0.3826  0.7427
  720MOL0     C94964   4.371   0.756   7.075 -1.1970 -0.5494 -0.9426
  720MOL0     C94965   4.454   0.651   7.023 -0.6120  0.6520  0.4891
  720MOL0     O94966   4.415   0.526   6.975  0.0145  0.5796  0.2714
  720MOL0     C94967   4.280   0.488   7.002 -1.0478 -0.8937  0.2963
  720MOL0     C94968   4.241   0.346   6.965 -0.3143 -0.4088 -0.1781
  720MOL0     C94969   4.233   0.333   6.810  0.9787  0.2197  0.2622
  720MOL0     C94970   4.334   0.234   6.761  0.0878 -0.8905  0.1717
  720MOL0     C94971   4.459   0.301   6.726 -0.1887  0.8691 -0.6281
  720MOL0     C94972   4.562   0.359   6.680  0.0719  0.2502 -0.7000
  720MOL0     C94973   4.590   0.669   7.029 -0.3534  0.1341  0.0269
  720MOL0     C94974   4.642   0.785   7.083 -0.0026 -0.0004  0.2674
  720MOL0     H94975   4.933   1.208   7.098 -0.0786  1.0317 -0.1727
  720MOL0     H94976   5.015   1.394   7.219  1.2748 -0.8439 -0.6397
  720MOL0     H94977   4.892   1.582   7.396 -0.8304  1.7122  1.3309
  720MOL0     H94978   5.067   1.578   7.364 -1.3570 -0.7417 -0.6311
  720MOL0     H94979   5.114   1.692   7.553 -0.0309 -1.1293 -0.3085
  720MOL0     H94980   4.993   1.617   7.644 -2.6456 -1.9380 -1.4669
  720MOL0     H94981   4.906   1.842   7.620 -0.8502 -0.0515  0.5653
  720MOL0     H94982   4.808   1.746   7.497 -0.0659  2.0954 -1.3376
  720MOL0     H94983   4.927   1.814   7.308 -1.9915 -2.1508  1.0146
  720MOL0     H94984   4.857   1.947   7.388  0.3979 -0.0276  1.2722
  720MOL0     H94985   5.134   1.881   7.460  1.2907  0.8385  1.8624
  720MOL0     H94986   5.039   2.020   7.516  1.0561 -1.0172  0.7855
  720MOL0     H94987   5.028   2.074   7.252 -0.3500  0.0637 -1.6320
  720MOL0     H94988   5.135   1.938   7.239 -0.1317  1.3435 -0.8042
  720MOL0     H94989   5.207   2.221   7.326  4.3424  1.6937 -3.3489
  720MOL0     H94990   5.281   2.073   7.398  0.0340 -0.1938 -0.5782
  720MOL0     H94991   5.324   2.001   7.155  1.3358  0.1629 -1.3085
  720MOL0     H94992   5.403   2.148   7.174  0.5987 -2.6050 -0.3285
  720MOL0     H94993   5.193   2.000   6.931  4.4388  0.3089 -1.1194
  720MOL0     H94994   5.045   2.264   6.689 -0.8836  0.7792  1.3927
  720MOL0     H94995   5.002   2.112   6.754 -0.2731 -1.7299 -0.3568
  720MOL0     H94996   5.271   2.061   6.670 -0.1902  0.2086 -0.5063
  720MOL0     H94997   5.219   2.197   6.571  0.1716  3.1853  3.3561
  720MOL0     H94998   5.173   1.954   6.477  0.4608  1.6069 -2.1853
  720MOL0     H94999   5.023   1.966   6.571 -1.1005  1.2073  0.4077
  720MOL0     H95000   5.008   2.031   6.332  0.9582  2.1909 -3.3571
  720MOL0     H95001   5.132   2.156   6.352 -1.2361 -0.0544 -1.6320
  720MOL0     H95002   4.993   2.210   6.166  1.6212 -0.0358  0.2720
  720MOL0     H95003   4.939   2.404   6.028  2.3549  3.0448  0.4095
  720MOL0     H95004   5.120   2.740   5.876 -0.1372  0.2690  0.4770
  720MOL0     H95005   5.173   2.956   5.765  0.7118 -2.5360  0.0856
  720MOL0     H95006   4.825   3.244   5.632 -0.8052 -1.3809  2.1491
  720MOL0     H95007   4.822   3.078   5.538  3.3628 -0.8338 -3.6411
  720MOL0     H95008   5.005   3.145   5.404 -2.9171 -1.4688 -2.1531
  720MOL0     H95009   4.991   3.316   5.476 -2.0302  0.7628  2.6151
  720MOL0     H95010   4.729   3.252   5.378 -0.0366 -3.3371 -0.4045
  720MOL0     H95011   4.821   3.144   5.297  2.7180 -0.6810  0.6723
  720MOL0     H95012   4.879   3.452   5.287  1.7808 -0.2475 -0.3764
  720MOL0     H95013   4.967   3.331   5.201  0.2649 -1.5228 -0.1208
  720MOL0     H95014   4.756   3.465   5.117 -0.5210 -0.6565  2.8290
  720MOL0     H95015   4.672   3.321   5.161 -0.3880  0.8362  1.2633
  720MOL0     H95016   4.854   3.190   5.046  3.6600 -0.6256 -2.0024
  720MOL0     H95017   4.915   3.334   4.963  0.1959 -0.9751  0.3567
  720MOL0     H95018   4.739   3.210   4.814 -0.6144  0.5594  0.6154
  720MOL0     H95019   4.637   3.206   4.958  1.0149 -1.6313 -0.4733
  720MOL0     H95020   4.613   3.460   4.937  2.4321  1.6477 -0.7439
  720MOL0     H95021   4.552   3.386   4.788  2.1929 -0.7726 -4.0025
  720MOL0     H95022   4.743   3.032   5.786 -0.8573 -0.1542  3.3397
  720MOL0     H95023   4.708   2.823   5.892 -0.4639  1.3383  0.1878
  720MOL0     H95024   4.848   2.632   6.385  1.4654  0.5065  0.6050
  720MOL0     H95025   4.868   2.431   6.518  1.4844 -1.0272 -0.1279
  720MOL0     H95026   4.857   1.242   7.589  1.6545  0.9769  0.5406
  720MOL0     H95027   4.754   1.045   7.454 -3.2061  1.2825 -2.4760
  720MOL0     H95028   4.370   0.957   7.172  2.1622 -0.0238  4.5467
  720MOL0     H95029   4.268   0.753   7.042 -0.9288 -1.7993 -1.7284
  720MOL0     H95030   4.222   0.565   6.950  2.4000 -0.2885 -3.0806
  720MOL0     H95031   4.257   0.490   7.109 -3.5046 -1.3199 -0.1693
  720MOL0     H95032   4.310   0.273   7.010  1.6483  0.9420 -0.8278
  720MOL0     H95033   4.142   0.329   7.008 -0.5227  3.2592  1.1672
  720MOL0     H95034   4.229   0.434   6.768 -0.8781  0.2245  0.3664
  720MOL0     H95035   4.141   0.278   6.790  0.6719  0.8642 -0.0919
  720MOL0     H95036   4.349   0.158   6.839 -4.3343  0.7908  3.0229
  720MOL0     H95037   4.290   0.178   6.678 -2.2276 -1.1058  1.4626
  720MOL0     H95038   4.635   0.422   6.632  0.4688 -2.3664 -3.8861
  720MOL0     H95039   4.648   0.594   6.977  1.6971  1.6217  0.0747
  720MOL0     H95040   4.751   0.786   7.082  0.0021  0.6774  0.7555
  721MOL0     O95041  10.139   9.032   2.358  0.0326 -0.1377  0.4735
  721MOL0     C95042  10.231   8.965   2.315  0.0019  0.5050  0.1312
  721MOL0     O95043  10.361   9.013   2.285  0.5069 -0.9400 -0.1370
  721MOL0     C95044  10.418   9.134   2.323 -0.0195 -0.7784  1.3117
  721MOL0     C95045  10.380   9.192   2.439 -0.5554  0.3600 -0.0794
  721MOL0     C95046  10.435   9.307   2.485 -0.6487 -0.8072 -1.2715
  721MOL0     C95047  10.539   9.374   2.416  0.3438 -0.4414 -0.5224
  721MOL0     O95048  10.591   9.483   2.476  1.0565 -0.4968 -0.0239
  721MOL0     C95049  10.588   9.605   2.400  0.1877 -0.0884 -0.0550
  721MOL0     C95050  10.607   9.726   2.506  0.4919  0.8380 -0.0887
  721MOL0     C95051  10.756   9.756   2.509  0.2405  0.2515 -0.6764
  721MOL0     C95052  10.796   9.868   2.600  0.4558 -0.7489  0.8079
  721MOL0     C95053  10.713  10.005   2.575 -0.2308  0.1189 -0.6128
  721MOL0     C95054  10.789  10.114   2.649  0.0049 -0.4954  0.1312
  721MOL0     C95055  10.714  10.246   2.642 -0.1598  0.1900 -0.0698
  721MOL0     C95056  10.799  10.356   2.691 -0.6775  1.0075 -0.5368
  721MOL0     N95057  10.822  10.354   2.839 -0.0192 -0.6768  1.8220
  721MOL0     C95058  10.903  10.263   2.904  0.5919 -0.6810 -0.5468
  721MOL0     C95059  10.885  10.305   3.034 -0.3238  0.5424 -0.7738
  721MOL0     C95060  10.958  10.232   3.131 -0.5203 -0.1966 -0.4736
  721MOL0     C95061  10.882  10.172   3.239 -0.0704  0.0915  0.5332
  721MOL0     C95062  10.953  10.048   3.299  0.2242  0.1427 -0.6386
  721MOL0     C95063  11.069  10.078   3.400  0.2825  0.4962 -0.8490
  721MOL0     O95064  11.091   9.960   3.475 -0.3685 -0.0033 -0.8351
  721MOL0     C95065  11.217   9.948   3.530  0.0857  0.2999  0.3678
  721MOL0     C95066  11.229   9.841   3.618  0.2310  1.4001  0.8383
  721MOL0     C95067  11.335   9.826   3.705  0.5421  0.3369  0.9054
  721MOL0     C95068  11.434   9.920   3.709 -0.1036 -0.3543  0.2802
  721MOL0     C95069  11.550   9.892   3.798 -0.0794  0.6936 -0.4288
  721MOL0     O95070  11.667   9.937   3.767 -0.4678  0.0492  0.7422
  721MOL0     C95071  11.776   9.879   3.823 -0.1572 -0.6016  0.4897
  721MOL0     C95072  11.866   9.802   3.746  1.9263 -0.1809 -0.1446
  721MOL0     C95073  11.977   9.742   3.810 -0.3277 -0.1125 -0.2085
  721MOL0     C95074  12.004   9.752   3.940  0.6761 -0.7805 -0.4440
  721MOL0     O95075  12.102   9.697   4.002 -0.4350 -0.5984  0.2378
  721MOL0     C95076  12.148   9.562   3.971  0.1151 -0.8582 -0.2267
  721MOL0     C95077  12.197   9.497   4.097 -0.7624 -0.8551  0.0741
  721MOL0     C95078  12.251   9.366   4.071  0.5492  0.2613  0.4023
  721MOL0     C95079  12.293   9.297   4.200  0.0914 -0.2170 -0.0622
  721MOL0     C95080  12.413   9.197   4.188 -0.5163  0.1949  0.1372
  721MOL0     C95081  12.383   9.103   4.078  0.6860  0.7884 -0.4736
  721MOL0     C95082  12.470   8.984   4.095  1.0315  0.0724  0.1443
  721MOL0     C95083  12.412   8.872   4.005 -0.9847 -0.1025 -0.7938
  721MOL0    Cl95084  12.420   8.907   3.828  0.4845  0.4724 -0.1533
  721MOL0     C95085  11.913   9.823   4.019  0.0281  0.0164  0.0783
  721MOL0     C95086  11.795   9.887   3.962 -0.3710  1.1164 -1.1897
  721MOL0     O95087  11.531   9.825   3.897 -0.1928  0.2052 -0.3800
  721MOL0     C95088  11.430  10.028   3.625  0.8537  0.4332 -0.0248
  721MOL0     C95089  11.321  10.049   3.532  0.2864  0.0861  0.3059
  721MOL0     N95090  10.808  10.415   3.044 -0.5734 -0.3508 -0.3274
  721MOL0     N95091  10.775  10.449   2.930 -0.0590  0.1607  0.2546
  721MOL0     C95092  10.590   9.310   2.307  0.8662 -0.1768  0.1828
  721MOL0     C95093  10.527   9.192   2.251  0.4300 -0.3586  0.5712
  721MOL0     C95094  10.205   8.822   2.289 -0.8106  0.3973 -0.0543
  721MOL0     C95095  10.311   8.737   2.241 -0.7398  0.4707  0.3292
  721MOL0     C95096  10.280   8.612   2.200  0.2489  0.7159  1.0623
  721MOL0     C95097  10.152   8.552   2.210  0.2917 -0.7089  0.1356
  721MOL0     O95098  10.144   8.419   2.202 -0.6837  0.1393  0.1772
  721MOL0     C95099  10.014   8.350   2.177 -0.2989 -1.2876 -0.6700
  721MOL0     C95100   9.931   8.330   2.310 -0.0509  0.4837 -0.2179
  721MOL0     C95101  10.012   8.309   2.440 -0.3886  0.7482 -0.2549
  721MOL0     C95102  10.080   8.171   2.432  0.1704  0.8021  0.3925
  721MOL0     C95103  10.140   8.147   2.564  0.4474 -0.8659 -0.6893
  721MOL0     C95104  10.182   8.144   2.680  0.0385 -1.1415  0.2416
  721MOL0     C95105  10.054   8.629   2.264 -0.1398 -0.3442  0.3423
  721MOL0     C95106  10.081   8.758   2.308  0.3845  0.2865 -0.1648
  721MOL0     H95107  10.308   9.151   2.509  0.5985  1.9698  2.2060
  721MOL0     H95108  10.410   9.364   2.573 -0.0640 -2.3179 -0.0812
  721MOL0     H95109  10.493   9.616   2.345 -0.5810 -1.8135  0.8627
  721MOL0     H95110  10.673   9.612   2.332  0.4266  1.7831  0.3867
  721MOL0     H95111  10.563   9.685   2.597 -2.0366  0.8225 -1.2223
  721MOL0     H95112  10.552   9.818   2.483  0.3970  0.9333  0.5113
  721MOL0     H95113  10.779   9.784   2.405 -1.4975  1.5361 -0.7476
  721MOL0     H95114  10.815   9.666   2.530 -0.2198  0.1345  0.1440
  721MOL0     H95115  10.771   9.834   2.701 -0.3394 -2.5267  0.0467
  721MOL0     H95116  10.902   9.891   2.588  0.7634 -0.4619  3.4138
  721MOL0     H95117  10.617   9.993   2.626  1.6567 -3.2412  2.7324
  721MOL0     H95118  10.715  10.028   2.469  1.5685  1.1546 -0.3859
  721MOL0     H95119  10.884  10.123   2.595 -0.2414 -0.0531 -0.2403
  721MOL0     H95120  10.805  10.083   2.752  0.2814  3.7469  1.5245
  721MOL0     H95121  10.681  10.261   2.539  0.9602 -1.9716 -0.8049
  721MOL0     H95122  10.627  10.239   2.708 -1.7897 -1.1744 -2.2300
  721MOL0     H95123  10.746  10.447   2.660 -0.0254  1.2810 -0.8641
  721MOL0     H95124  10.893  10.349   2.636 -0.7185 -0.3072 -0.4692
  721MOL0     H95125  10.968  10.186   2.862 -0.6468 -2.6276  0.9266
  721MOL0     H95126  11.034  10.293   3.180 -0.7510  0.4197 -0.8686
  721MOL0     H95127  11.012  10.150   3.082 -2.0638 -1.2429 -0.4976
  721MOL0     H95128  10.786  10.135   3.200  1.1719  1.1546 -4.1263
  721MOL0     H95129  10.847  10.245   3.313 -0.5185  0.4202  0.0105
  721MOL0     H95130  10.894   9.993   3.373  4.9280 -1.0134  2.7968
  721MOL0     H95131  10.971   9.976   3.219 -0.1501 -0.5477 -0.1137
  721MOL0     H95132  11.044  10.168   3.456  1.9752  2.5804 -3.1963
  721MOL0     H95133  11.154  10.103   3.335 -0.2035 -1.1419 -2.1941
  721MOL0     H95134  11.145   9.773   3.628  0.7456  0.0980 -2.3662
  721MOL0     H95135  11.339   9.734   3.762  1.1983 -2.4652 -3.1803
  721MOL0     H95136  11.854   9.793   3.639 -0.9817 -1.8042  0.2192
  721MOL0     H95137  12.056   9.698   3.750 -2.6541 -2.6392 -1.6340
  721MOL0     H95138  12.217   9.559   3.886 -2.3254 -0.6624 -2.3432
  721MOL0     H95139  12.063   9.503   3.936 -3.0300  2.8974  0.2484
  721MOL0     H95140  12.113   9.479   4.165 -1.5136 -1.9492 -1.0984
  721MOL0     H95141  12.278   9.549   4.148 -0.5830 -2.8791  2.0222
  721MOL0     H95142  12.340   9.380   4.008  0.1994 -1.1942 -0.4725
  721MOL0     H95143  12.188   9.296   4.015  3.3005 -1.0805 -1.2431
  721MOL0     H95144  12.333   9.370   4.270  1.9791 -0.8776 -0.3951
  721MOL0     H95145  12.207   9.242   4.238 -0.9278  2.0865  1.1690
  721MOL0     H95146  12.409   9.142   4.282 -1.2482 -0.0057 -0.0032
  721MOL0     H95147  12.511   9.245   4.178  0.4471 -1.5569  0.6669
  721MOL0     H95148  12.388   9.160   3.985 -1.1892  2.0585  0.1463
  721MOL0     H95149  12.277   9.076   4.081  0.7150  0.7545  1.4581
  721MOL0     H95150  12.575   8.997   4.069  0.4962  0.1963 -2.0885
  721MOL0     H95151  12.465   8.948   4.199  3.8068 -0.9115  0.0009
  721MOL0     H95152  12.310   8.849   4.037 -0.1326 -0.7878  1.6803
  721MOL0     H95153  12.471   8.782   4.024  1.7602  1.4526 -1.4378
  721MOL0     H95154  11.929   9.835   4.126 -0.0327 -0.9774  0.2099
  721MOL0     H95155  11.729   9.947   4.025 -4.7618 -0.0692 -4.1574
  721MOL0     H95156  11.508  10.101   3.644  1.7666 -0.4263 -0.3744
  721MOL0     H95157  11.317  10.142   3.476 -0.3878  0.3954  0.8575
  721MOL0     H95158  10.674   9.343   2.246  1.3603 -3.7144 -1.2898
  721MOL0     H95159  10.566   9.141   2.164 -4.6784 -3.4718 -0.3034
  721MOL0     H95160  10.412   8.773   2.224 -0.0877 -1.0535  0.7768
  721MOL0     H95161  10.363   8.548   2.171 -0.6005  0.6038 -1.3532
  721MOL0     H95162  10.047   8.260   2.124 -0.3246 -1.9495  0.3997
  721MOL0     H95163   9.965   8.395   2.090  0.7799 -0.5649 -0.9276
  721MOL0     H95164   9.854   8.407   2.317 -0.7364 -0.2882  1.0851
  721MOL0     H95165   9.882   8.233   2.299 -0.8912  0.9749 -0.9126
  721MOL0     H95166   9.951   8.307   2.530 -0.4119 -0.7093 -0.2798
  721MOL0     H95167  10.093   8.382   2.440  1.0965 -0.8332  0.5068
  721MOL0     H95168  10.011   8.087   2.424  0.7006  0.5452 -4.3651
  721MOL0     H95169  10.162   8.167   2.360 -1.4942 -2.9250 -1.5887
  721MOL0     H95170  10.221   8.152   2.779  2.6528 -0.1535 -0.7883
  721MOL0     H95171   9.965   8.586   2.309 -2.3606  0.3589 -2.9778
  721MOL0     H95172  10.000   8.802   2.366 -0.6759 -2.3292  0.4741
  722MOL0     O95173  11.349   1.287   9.465 -0.0587 -0.9568  0.7302
  722MOL0     C95174  11.427   1.316   9.372 -0.0572 -0.0875 -0.4367
  722MOL0     O95175  11.431   1.258   9.251  0.2205 -0.1289 -0.8925
  722MOL0     C95176  11.360   1.145   9.222 -0.4214  0.0726  0.5431
  722MOL0     C95177  11.368   1.034   9.312 -0.0871 -0.6619  0.4752
  722MOL0     C95178  11.326   0.903   9.270  0.0823 -0.2180  0.6612
  722MOL0     C95179  11.262   0.896   9.142  0.6949  0.4812 -0.4958
  722MOL0     O95180  11.210   0.775   9.103  0.9617 -0.0161  0.7724
  722MOL0     C95181  11.120   0.708   9.186  0.4647 -0.7073 -0.3678
  722MOL0     C95182  10.973   0.718   9.145  0.7042  0.6985  0.5443
  722MOL0     C95183  10.901   0.852   9.156 -0.6966  0.9175 -0.4400
  722MOL0     C95184  10.875   0.886   9.301 -0.3510 -0.5688 -0.3086
  722MOL0     C95185  10.858   1.034   9.322  0.9000  0.1698  0.9476
  722MOL0     C95186  10.966   1.124   9.266 -0.3524  0.6535  1.0916
  722MOL0     C95187  10.972   1.254   9.332  0.9572 -0.7200 -0.9417
  722MOL0     C95188  11.058   1.350   9.251  0.6207  0.5334  1.5646
  722MOL0     N95189  11.066   1.478   9.309 -0.1746 -0.0844  0.0938
  722MOL0     C95190  11.113   1.500   9.437  0.3373  0.0581  0.2682
  722MOL0     C95191  11.110   1.635   9.452  0.2057  0.6367  0.4108
  722MOL0     C95192  11.154   1.713   9.570 -1.3082  0.4335 -0.4333
  722MOL0     C95193  11.114   1.853   9.584  0.0484 -0.1694 -0.2095
  722MOL0     C95194  10.956   1.877   9.592 -0.4729 -0.3497  0.1185
  722MOL0     C95195  10.916   2.021   9.642  1.0029  0.0303 -0.3932
  722MOL0     O95196  10.907   2.027   9.783 -0.6866 -0.1189  0.0974
  722MOL0     C95197  11.006   2.086   9.859  1.0584  0.5450 -0.2782
  722MOL0     C95198  11.142   2.118   9.825  0.2306 -0.0478 -0.5668
  722MOL0     C95199  11.227   2.157   9.928 -0.8954 -0.0607  1.2517
  722MOL0     C95200  11.179   2.188  10.052  0.1826  0.0335 -1.4511
  722MOL0     C95201  11.270   2.208  10.162  0.3898 -0.5121  0.0602
  722MOL0     O95202  11.213   2.215  10.289 -0.2031 -0.0318  0.0433
  722MOL0     C95203  11.280   2.166  10.390 -0.4782  0.3986 -0.3514
  722MOL0     C95204  11.201   2.203  10.589 -0.2019  0.0663 -0.4431
  722MOL0     C95205  11.272   2.092  10.754 -0.3673  0.5553  0.3445
  722MOL0     C95206  11.421   1.947  10.729  0.0598 -0.0195  0.2349
  722MOL0     O95207  11.477   1.875  10.832  0.3131 -0.1236  0.3992
  722MOL0     C95208  11.428   1.943  10.949  0.1165  0.7671 -0.6047
  722MOL0     C95209  11.510   1.892  11.067  0.1586  0.3266  0.0900
  722MOL0     C95210  11.456   1.758  11.121 -0.2483  0.0798  0.2839
  722MOL0     C95211  11.316   1.763  11.186  0.0924  0.1706  0.0057
  722MOL0     C95212  11.265   1.636  11.265  0.2663 -1.0177 -0.4326
  722MOL0     C95213  11.311   1.501  11.199  0.3814  0.0764 -1.3453
  722MOL0     C95214  11.221   1.378  11.237 -0.3488 -0.6859 -0.1983
  722MOL0     C95215  11.285   1.253  11.183 -0.0244 -0.5023 -0.4690
  722MOL0    Cl95216  11.175   1.120  11.186 -0.9839  0.4650  0.3056
  722MOL0     C95217  11.499   1.915  10.535 -0.4267 -0.6622  0.0608
  722MOL0     C95218  11.431   2.025  10.368  0.9127 -0.0892  0.0355
  722MOL0     O95219  11.392   2.211  10.137 -0.3055 -0.5028  0.0429
  722MOL0     C95220  11.036   2.181  10.075  0.3931  1.0504  0.7511
  722MOL0     C95221  10.953   2.135   9.977  0.6722 -0.6458  0.0218
  722MOL0     N95222  11.078   1.692   9.325 -0.9605 -0.7147  0.2837
  722MOL0     N95223  11.050   1.597   9.245 -0.2263  0.1820  0.4901
  722MOL0     C95224  11.246   1.012   9.063 -0.2955 -0.0370 -0.1065
  722MOL0     C95225  11.298   1.132   9.100  0.1133  0.5836 -0.4989
  722MOL0     C95226  11.522   1.422   9.405 -0.5585  0.1624 -0.3765
  722MOL0     C95227  11.582   1.509   9.303  0.2334  0.2319  0.6574
  722MOL0     C95228  11.678   1.601   9.336  0.4128 -0.1910  0.7178
  722MOL0     C95229  11.721   1.630   9.466  0.2065 -0.1534 -0.7073
  722MOL0     O95230  11.785   1.750   9.505  0.5571 -0.3248 -0.6408
  722MOL0     C95231  11.897   1.790   9.426 -0.1380 -0.1758 -0.5690
  722MOL0     C95232  12.033   1.702   9.429 -0.9463  0.0065 -0.6632
  722MOL0     C95233  12.085   1.680   9.572  1.1670  1.3346  0.9221
  722MOL0     C95234  12.112   1.819   9.621 -0.7286  0.8014 -1.7052
  722MOL0     C95235  12.208   1.825   9.738  0.0080 -0.2869 -0.0055
  722MOL0     C95236  12.302   1.820   9.817  0.1867  0.4525  0.2553
  722MOL0     C95237  11.659   1.562   9.571  0.9228  0.5522  0.3213
  722MOL0     C95238  11.556   1.461   9.541 -0.1194 -0.3663 -0.1056
  722MOL0     H95239  11.408   1.044   9.413 -1.8128  2.4637  0.9813
  722MOL0     H95240  11.313   0.821   9.340 -1.2976  1.1568  2.1170
  722MOL0     H95241  11.132   0.738   9.290  2.8041  1.2848 -1.1082
  722MOL0     H95242  11.144   0.601   9.185 -2.8014 -1.5898  1.4144
  722MOL0     H95243  10.926   0.638   9.203 -2.1735  3.2141  2.0051
  722MOL0     H95244  10.956   0.680   9.044  2.3334 -2.8460  1.4617
  722MOL0     H95245  10.808   0.854   9.099 -1.4871 -0.0837  0.7661
  722MOL0     H95246  10.982   0.914   9.115  0.0056  0.8214  0.7519
  722MOL0     H95247  10.791   0.822   9.329  1.7573 -3.3050  0.2813
  722MOL0     H95248  10.959   0.856   9.365 -0.3080  2.2884  1.1198
  722MOL0     H95249  10.852   1.056   9.429 -0.5308 -1.9624  1.3784
  722MOL0     H95250  10.762   1.068   9.281  2.0627 -0.0483 -2.2559
  722MOL0     H95251  10.943   1.145   9.161  2.2556  3.2713  0.8947
  722MOL0     H95252  11.061   1.070   9.270 -1.3617 -1.1701  1.4967
  722MOL0     H95253  10.869   1.291   9.341  0.9133 -0.9855 -0.2339
  722MOL0     H95254  11.016   1.241   9.431 -0.3412 -3.4110 -0.6172
  722MOL0     H95255  11.013   1.360   9.152  0.5131  1.7021  1.7103
  722MOL0     H95256  11.156   1.302   9.246  0.5555  0.5310 -0.7234
  722MOL0     H95257  11.126   1.425   9.514 -0.9660 -0.8005 -0.3136
  722MOL0     H95258  11.261   1.707   9.591 -1.0918  2.2141 -0.8686
  722MOL0     H95259  11.111   1.669   9.660  0.3784  0.9928  0.6740
  722MOL0     H95260  11.152   1.911   9.499  0.2488  1.1949  0.7680
  722MOL0     H95261  11.164   1.895   9.673  0.4297 -4.1627  1.6521
  722MOL0     H95262  10.913   1.856   9.494 -1.2234 -1.5400  0.6674
  722MOL0     H95263  10.927   1.791   9.654  4.2476 -2.5685 -0.3153
  722MOL0     H95264  10.815   2.031   9.601  1.9476  1.3881 -2.5745
  722MOL0     H95265  10.967   2.110   9.605 -1.8173  2.7530  1.8043
  722MOL0     H95266  11.190   2.099   9.730 -1.0445 -0.7969 -1.0863
  722MOL0     H95267  11.335   2.172   9.925 -0.5926 -1.1713  3.8336
  722MOL0     H95268  11.122   2.277  10.600 -1.2754 -1.1702  0.5134
  722MOL0     H95269  11.230   2.109  10.853 -1.7427 -0.7103  0.0142
  722MOL0     H95270  11.323   1.911  10.955  0.1009  0.4304 -2.2921
  722MOL0     H95271  11.433   2.053  10.954  1.8735  0.6582  2.1763
  722MOL0     H95272  11.525   1.956  11.154  1.5936 -1.4870  1.2662
  722MOL0     H95273  11.606   1.869  11.021 -0.1525  2.5284 -1.8541
  722MOL0     H95274  11.535   1.719  11.187 -1.1770 -0.8532  0.8700
  722MOL0     H95275  11.434   1.690  11.039 -1.5871 -0.8111  1.3340
  722MOL0     H95276  11.322   1.843  11.261 -1.1658  0.3800 -0.0992
  722MOL0     H95277  11.236   1.786  11.115 -1.2244 -2.5511  0.4898
  722MOL0     H95278  11.155   1.637  11.273  0.3912  1.4073  2.2362
  722MOL0     H95279  11.309   1.637  11.365 -0.5247  0.8975 -0.0547
  722MOL0     H95280  11.404   1.477  11.252 -1.6401  0.9402  3.0420
  722MOL0     H95281  11.317   1.512  11.091 -0.7828 -0.0314 -1.4334
  722MOL0     H95282  11.198   1.359  11.342  0.8825 -1.8019 -0.0967
  722MOL0     H95283  11.133   1.412  11.182  1.7835  0.5510 -3.1304
  722MOL0     H95284  11.362   1.223  11.253 -1.3086 -1.7437  0.4747
  722MOL0     H95285  11.335   1.276  11.088  1.8990 -0.5955  0.4801
  722MOL0     H95286  11.575   1.839  10.524 -2.0250 -2.5998  1.6037
  722MOL0     H95287  11.473   1.996  10.272  2.5888 -2.7060  1.4330
  722MOL0     H95288  10.989   2.210  10.168 -1.7287  0.6918 -0.1445
  722MOL0     H95289  10.844   2.133   9.985  0.3577  1.3567 -2.5295
  722MOL0     H95290  11.203   1.000   8.964  1.6118 -0.9013 -0.8796
  722MOL0     H95291  11.294   1.219   9.034 -1.3960  0.7212 -0.2597
  722MOL0     H95292  11.554   1.493   9.200 -0.3684  1.5407  0.5965
  722MOL0     H95293  11.711   1.666   9.256 -3.2116  0.1096 -0.7114
  722MOL0     H95294  11.925   1.889   9.460  0.8627 -1.4520  2.7217
  722MOL0     H95295  11.872   1.790   9.319  2.2285  0.8449 -1.1836
  722MOL0     H95296  12.023   1.606   9.378 -0.6172 -0.9161  0.9434
  722MOL0     H95297  12.109   1.759   9.375  1.2300 -2.4287 -0.3733
  722MOL0     H95298  12.178   1.625   9.566  0.5090  0.3621 -2.6414
  722MOL0     H95299  12.006   1.619   9.616  2.7885 -1.8384 -0.2344
  722MOL0     H95300  12.167   1.872   9.543 -1.7468  2.3770 -1.4048
  722MOL0     H95301  12.028   1.874   9.665  1.8429  1.3205  3.2000
  722MOL0     H95302  12.372   1.818   9.898  1.6532 -0.8855 -0.9647
  722MOL0     H95303  11.670   1.583   9.678  4.0198 -0.9643  0.4288
  722MOL0     H95304  11.502   1.412   9.621 -2.1786  2.1945  0.2071
  723MOL0     O95305  10.640   7.500   1.705  0.1558  0.4416  0.8410
  723MOL0     C95306  10.569   7.584   1.654  0.8755 -0.2734 -0.3493
  723MOL0     O95307  10.446   7.563   1.601 -0.1281  0.5346 -0.0296
  723MOL0     C95308  10.403   7.435   1.581 -0.1828  0.0720 -1.1984
  723MOL0     C95309  10.374   7.346   1.690 -0.4526  0.0154  1.1918
  723MOL0     C95310  10.328   7.217   1.654 -0.0188  0.5082 -0.6294
  723MOL0     C95311  10.312   7.169   1.523  0.1430  0.4028  0.8066
  723MOL0     O95312  10.289   7.031   1.507 -0.3378  0.2126  0.1003
  723MOL0     C95313  10.177   6.996   1.418 -0.1178  0.4819 -0.1512
  723MOL0     C95314  10.094   6.883   1.480 -0.7835  0.3704 -0.3263
  723MOL0     C95315   9.996   6.942   1.585 -0.5754  0.6504  0.3308
  723MOL0     C95316   9.917   6.830   1.656  0.2921  0.1165 -0.3245
  723MOL0     C95317   9.814   6.870   1.774  0.0273  0.0844 -0.1293
  723MOL0     C95318   9.764   6.731   1.833  0.3762 -0.6258 -0.2712
  723MOL0     C95319   9.721   6.738   1.978  0.6194 -0.8497  0.5781
  723MOL0     C95320   9.672   6.597   2.021  0.1933 -0.4266  0.0624
  723MOL0     N95321   9.541   6.553   1.971  0.2387 -0.4680 -0.4791
  723MOL0     C95322   9.423   6.603   2.004 -0.8572  0.1467 -0.7580
  723MOL0     C95323   9.334   6.553   1.913  0.6967  0.0455 -0.6316
  723MOL0     C95324   9.193   6.590   1.908 -0.1992 -0.6742 -0.4508
  723MOL0     C95325   9.106   6.612   2.039  0.0681 -0.3062 -1.3725
  723MOL0     C95326   9.106   6.478   2.119 -0.4383 -0.2483  0.8003
  723MOL0     C95327   9.074   6.505   2.266  0.3425  0.8748  0.7900
  723MOL0     O95328   9.163   6.592   2.330 -0.2150 -0.1694  0.5212
  723MOL0     C95329   9.293   6.559   2.371 -0.0642  0.2920 -0.4699
  723MOL0     C95330   9.330   6.428   2.396  1.0617  0.8470 -0.1903
  723MOL0     C95331   9.468   6.398   2.406  0.0748 -0.4505 -0.3299
  723MOL0     C95332   9.566   6.500   2.409  0.3814  0.8564 -1.1875
  723MOL0     C95333   9.712   6.463   2.408  0.3759 -0.8176 -0.8617
  723MOL0     O95334   9.809   6.563   2.436 -0.4887  1.2898  0.1856
  723MOL0     C95335   9.945   6.542   2.429 -0.3308  0.8782 -0.6273
  723MOL0     C95336  10.003   6.424   2.471 -0.3488 -0.4454 -0.0145
  723MOL0     C95337  10.148   6.426   2.491 -0.0776  0.3639 -0.2928
  723MOL0     C95338  10.228   6.535   2.456  0.1981  0.8482  0.2391
  723MOL0     O95339  10.357   6.531   2.455  0.2860 -0.7079 -0.1899
  723MOL0     C95340  10.435   6.423   2.521 -0.0320 -1.3140  0.1456
  723MOL0     C95341  10.583   6.439   2.490 -0.0668  0.3457 -0.2183
  723MOL0     C95342  10.656   6.553   2.561  0.1880  0.2795 -0.1937
  723MOL0     C95343  10.634   6.674   2.477  0.2815 -0.5908 -1.3211
  723MOL0     C95344  10.715   6.792   2.540 -1.1448 -0.3187 -0.7976
  723MOL0     C95345  10.692   6.923   2.484 -0.4156 -0.7562 -0.6953
  723MOL0     C95346  10.791   7.043   2.531  0.9140  0.0193 -0.1255
  723MOL0     C95347  10.739   7.187   2.506 -0.5083 -0.5324 -0.6537
  723MOL0    Cl95348  10.856   7.285   2.396  0.0487  0.2003 -0.2131
  723MOL0     C95349  10.164   6.651   2.439 -0.0404 -0.9153 -0.4105
  723MOL0     C95350  10.026   6.659   2.430  0.2775 -0.5313  0.6984
  723MOL0     O95351   9.727   6.345   2.382 -0.0675  0.3782 -0.1024
  723MOL0     C95352   9.523   6.635   2.395 -0.8720  0.0299  0.3520
  723MOL0     C95353   9.388   6.663   2.378 -0.4950 -0.9953  0.1233
  723MOL0     N95354   9.399   6.455   1.839 -0.0002 -0.1668 -0.1226
  723MOL0     N95355   9.522   6.463   1.875 -0.0077  0.0677 -0.7190
  723MOL0     C95356  10.342   7.257   1.414 -0.6711 -0.9560 -0.9386
  723MOL0     C95357  10.381   7.394   1.445 -1.0752  0.5782  0.4890
  723MOL0     C95358  10.618   7.724   1.682  0.0682  0.2994  0.0943
  723MOL0     C95359  10.755   7.752   1.677 -0.5320  0.0914  0.3001
  723MOL0     C95360  10.803   7.876   1.719  0.2082 -0.3765  0.6435
  723MOL0     C95361  10.718   7.980   1.763  0.2261  0.1092  0.3476
  723MOL0     O95362  10.755   8.102   1.804 -0.3451 -0.5148  0.2069
  723MOL0     C95363  10.894   8.130   1.828 -0.0811 -0.0617 -1.0379
  723MOL0     C95364  10.974   8.171   1.706  0.2114  0.5129 -0.2176
  723MOL0     C95365  10.923   8.308   1.653  0.4209  0.5806 -0.4893
  723MOL0     C95366  10.986   8.333   1.524  0.1888 -0.3288 -0.0821
  723MOL0     C95367  11.097   8.434   1.538  0.1999  0.0839  0.3354
  723MOL0     C95368  11.190   8.508   1.530  0.1614 -0.1660  0.4213
  723MOL0     C95369  10.578   7.950   1.768  0.2459 -0.1049  0.1491
  723MOL0     C95370  10.532   7.812   1.738 -1.1118 -0.5457  0.4662
  723MOL0     H95371  10.393   7.372   1.793 -1.6094  1.3526  1.1076
  723MOL0     H95372  10.308   7.141   1.730 -0.4311  1.5424  0.3232
  723MOL0     H95373  10.196   6.957   1.318 -1.8810 -3.2300  0.7844
  723MOL0     H95374  10.115   7.086   1.416  0.3477  0.7871 -1.4031
  723MOL0     H95375  10.164   6.813   1.529  0.4100  0.4433 -1.8546
  723MOL0     H95376  10.030   6.830   1.409  0.3587  0.7082 -1.6519
  723MOL0     H95377   9.935   7.022   1.543  0.8519  3.4946  3.1795
  723MOL0     H95378  10.064   6.987   1.658  0.5913  3.1779 -2.1326
  723MOL0     H95379   9.870   6.768   1.580 -0.3759  1.1015 -0.7311
  723MOL0     H95380   9.999   6.765   1.690  1.4741  0.1657 -2.8697
  723MOL0     H95381   9.731   6.923   1.726  1.8162  1.6733 -1.6251
  723MOL0     H95382   9.856   6.940   1.847  1.3836 -0.6902 -0.1339
  723MOL0     H95383   9.847   6.659   1.823 -0.4183 -1.3744 -1.8499
  723MOL0     H95384   9.687   6.702   1.761  2.0137 -0.8322 -2.0136
  723MOL0     H95385   9.803   6.769   2.043 -0.8342 -0.0060  2.1288
  723MOL0     H95386   9.647   6.814   2.007  0.6769 -0.9705  1.0469
  723MOL0     H95387   9.672   6.592   2.130 -2.5494 -3.3208  0.0629
  723MOL0     H95388   9.755   6.529   1.997 -0.8546 -2.1012  0.9732
  723MOL0     H95389   9.397   6.684   2.072  0.6334  0.8137 -0.9400
  723MOL0     H95390   9.132   6.514   1.857  0.7704 -2.1358  0.4951
  723MOL0     H95391   9.177   6.686   1.859 -0.9734  1.9001  4.2824
  723MOL0     H95392   9.011   6.655   2.007  0.8640  1.2950 -1.6823
  723MOL0     H95393   9.144   6.689   2.108 -1.8310 -1.7602  1.5160
  723MOL0     H95394   9.033   6.409   2.077  1.2430 -0.5410 -1.8493
  723MOL0     H95395   9.198   6.418   2.116  0.2284  0.7757 -0.3725
  723MOL0     H95396   9.057   6.417   2.329  2.1223  1.5925  2.3870
  723MOL0     H95397   8.973   6.546   2.258 -0.7207 -0.6828  4.4032
  723MOL0     H95398   9.261   6.344   2.396  1.2170  0.6947 -1.8046
  723MOL0     H95399   9.494   6.294   2.420  1.0425 -0.2426 -0.4766
  723MOL0     H95400   9.953   6.329   2.487  1.4250 -1.6236 -1.0951
  723MOL0     H95401  10.195   6.333   2.519 -2.0196 -1.2570 -2.0568
  723MOL0     H95402  10.418   6.323   2.479  0.2148  0.2587 -4.0877
  723MOL0     H95403  10.418   6.431   2.629 -2.3975  2.0442 -0.3235
  723MOL0     H95404  10.600   6.429   2.382 -0.5717 -0.3039 -0.2393
  723MOL0     H95405  10.620   6.348   2.537 -0.7177 -0.4816 -1.2614
  723MOL0     H95406  10.762   6.528   2.568  1.3431  3.5278 -3.1797
  723MOL0     H95407  10.607   6.561   2.659 -0.1567 -3.8176  0.1255
  723MOL0     H95408  10.660   6.671   2.371  0.3051  0.4966 -1.3615
  723MOL0     H95409  10.530   6.706   2.464  0.7049  1.7420  0.4287
  723MOL0     H95410  10.821   6.768   2.525 -0.6019  1.6609 -0.3047
  723MOL0     H95411  10.689   6.790   2.646 -1.6481 -1.6674 -0.9202
  723MOL0     H95412  10.591   6.959   2.504  0.4576  2.4978 -1.3956
  723MOL0     H95413  10.706   6.910   2.376  1.4888  0.1063 -0.5954
  723MOL0     H95414  10.808   7.039   2.639  0.7946  2.0195  0.0139
  723MOL0     H95415  10.885   7.009   2.487 -1.5390 -2.3149 -4.1522
  723MOL0     H95416  10.732   7.240   2.601  0.5950 -1.6925  0.1104
  723MOL0     H95417  10.637   7.193   2.466 -1.7101  1.0655  2.3243
  723MOL0     H95418  10.235   6.733   2.425 -0.6638 -0.1625  0.7386
  723MOL0     H95419   9.984   6.758   2.415 -0.0985 -0.6141  1.1603
  723MOL0     H95420   9.595   6.714   2.379 -1.5438  1.3497  3.1699
  723MOL0     H95421   9.356   6.764   2.356  1.2120 -0.3499  0.4244
  723MOL0     H95422  10.329   7.217   1.314 -2.9177  0.4248 -1.2782
  723MOL0     H95423  10.396   7.467   1.366  1.1532  2.1289  2.2286
  723MOL0     H95424  10.822   7.679   1.633  0.7392  2.6731 -2.4251
  723MOL0     H95425  10.910   7.887   1.732 -0.0334  3.8284  0.5410
  723MOL0     H95426  10.945   8.053   1.887 -0.4225 -1.4610 -2.4897
  723MOL0     H95427  10.900   8.214   1.898  0.1203 -1.6956  1.0289
  723MOL0     H95428  11.081   8.168   1.728  0.7650 -3.1109 -2.4947
  723MOL0     H95429  10.957   8.092   1.632 -4.0152 -0.5771  1.6335
  723MOL0     H95430  10.937   8.383   1.731  2.3038 -2.9754  2.9250
  723MOL0     H95431  10.814   8.306   1.644  0.2613 -0.8121  1.2104
  723MOL0     H95432  11.016   8.243   1.469  1.0609 -0.9863  1.4348
  723MOL0     H95433  10.912   8.389   1.466 -0.9353  0.5905  2.1208
  723MOL0     H95434  11.283   8.562   1.535  0.7010 -1.1599  2.0876
  723MOL0     H95435  10.512   8.027   1.806  1.7912  1.0170  0.7018
  723MOL0     H95436  10.425   7.796   1.738 -1.3600  0.7240 -1.5887
  724MOL0     O95437   2.990   2.810   1.671  0.0870 -0.0119 -0.0666
  724MOL0     C95438   2.907   2.782   1.582 -1.1710 -0.7701 -0.8791
  724MOL0     O95439   2.794   2.733   1.600 -0.0655  0.6499 -0.0087
  724MOL0     C95440   2.736   2.699   1.721 -0.0053 -0.2320  0.0537
  724MOL0     C95441   2.671   2.578   1.730 -0.1421 -0.4259 -0.4998
  724MOL0     C95442   2.600   2.543   1.850  0.4179 -0.1023  0.4226
  724MOL0     C95443   2.585   2.628   1.958 -0.9359 -0.4993  0.2320
  724MOL0     O95444   2.521   2.604   2.082  0.3291 -1.4595  0.2543
  724MOL0     C95445   2.433   2.490   2.097 -0.2418 -0.2317  0.1341
  724MOL0     C95446   2.375   2.492   2.240  0.4719  0.0843 -0.3318
  724MOL0     C95447   2.248   2.410   2.250  0.3945 -0.0148 -0.4508
  724MOL0     C95448   2.197   2.360   2.396  0.6803  0.0974  0.2956
  724MOL0     C95449   2.256   2.224   2.420 -0.2254  0.7665 -0.5345
  724MOL0     C95450   2.213   2.102   2.323 -0.0396 -0.0215  0.5081
  724MOL0     C95451   2.063   2.093   2.302 -0.5668 -0.6394 -0.8212
  724MOL0     C95452   2.005   1.961   2.244  1.5056 -0.2598 -0.8849
  724MOL0     N95453   2.048   1.839   2.313  0.1464  0.3296  0.0121
  724MOL0     C95454   2.092   1.718   2.260  0.2765 -1.3024 -0.4244
  724MOL0     C95455   2.082   1.624   2.355 -0.1162  0.4543 -0.5083
  724MOL0     C95456   2.097   1.474   2.321  0.4402  0.6277  0.2014
  724MOL0     C95457   1.964   1.425   2.254 -0.0125 -0.3723  1.1211
  724MOL0     C95458   1.959   1.271   2.262  1.2966  0.0195  0.2039
  724MOL0     C95459   1.819   1.224   2.209  0.0247 -0.3145  0.0181
  724MOL0     O95460   1.714   1.314   2.268  0.2052 -0.6472 -0.4025
  724MOL0     C95461   1.581   1.277   2.256 -0.4836  0.5195 -0.8586
  724MOL0     C95462   1.486   1.339   2.339  0.0923 -0.0972 -0.4637
  724MOL0     C95463   1.342   1.313   2.340 -0.2148 -0.1479  0.3082
  724MOL0     C95464   1.297   1.214   2.250  0.6355 -0.7063  0.3024
  724MOL0     C95465   1.156   1.173   2.250 -0.0047 -0.0409  0.6870
  724MOL0     O95466   1.067   1.248   2.324  0.2772  0.0865 -0.3010
  724MOL0     C95467   0.940   1.205   2.328  0.4346 -0.9550 -0.1820
  724MOL0     C95468   0.879   1.230   2.452  0.5789  0.2631 -0.0871
  724MOL0     C95469   0.737   1.221   2.461  0.0150  0.0439  1.0641
  724MOL0     C95470   0.658   1.194   2.348  0.1179 -0.0439  0.7729
  724MOL0     O95471   0.525   1.187   2.357  0.6651  0.1334  0.5387
  724MOL0     C95472   0.467   1.058   2.311 -0.9897  0.5906  0.2100
  724MOL0     C95473   0.470   0.958   2.425  0.2172 -0.1763  0.1418
  724MOL0     C95474   0.359   0.852   2.393 -0.2976 -0.3620 -0.4151
  724MOL0     C95475   0.358   0.797   2.257 -0.1606  0.4267  0.2836
  724MOL0     C95476   0.256   0.671   2.254  0.0210  0.4637  0.9409
  724MOL0     C95477   0.104   0.704   2.278 -0.4251 -0.1917 -0.5491
  724MOL0     C95478   0.030   0.575   2.317 -0.1202 -0.6623 -0.4618
  724MOL0     C95479  -0.113   0.588   2.352  0.8476  0.6894 -0.5302
  724MOL0    Cl95480  -0.198   0.665   2.207  0.0363  0.6080 -0.0824
  724MOL0     C95481   0.711   1.181   2.219 -0.5521  1.5121 -0.5312
  724MOL0     C95482   0.857   1.177   2.215  0.4715  1.0570  0.5459
  724MOL0     O95483   1.124   1.073   2.186  0.0317 -0.4836 -0.4447
  724MOL0     C95484   1.388   1.145   2.164 -1.1602 -0.1059  0.6444
  724MOL0     C95485   1.524   1.173   2.168  0.4140 -1.3078  0.6596
  724MOL0     N95486   2.047   1.685   2.474  0.2949  0.9844  0.9818
  724MOL0     N95487   2.024   1.813   2.449 -0.1271  0.7694  0.7988
  724MOL0     C95488   2.653   2.751   1.950  0.0918 -0.4582 -0.1700
  724MOL0     C95489   2.728   2.787   1.834 -0.9569  0.7606 -0.1055
  724MOL0     C95490   2.949   2.799   1.437  0.5360 -0.2426  0.5310
  724MOL0     C95491   2.874   2.739   1.338 -0.7283  1.0748  0.0059
  724MOL0     C95492   2.907   2.746   1.205 -0.6040 -0.8766 -0.5701
  724MOL0     C95493   3.017   2.821   1.169  0.1676  0.4865 -0.2121
  724MOL0     O95494   3.038   2.834   1.036  0.6562 -0.2094 -0.5488
  724MOL0     C95495   3.170   2.801   0.992 -0.0429  0.4605  0.3078
  724MOL0     C95496   3.212   2.656   1.018 -0.5617 -0.9892  0.0461
  724MOL0     C95497   3.113   2.562   0.969 -0.1409  0.5044  0.7243
  724MOL0     C95498   3.104   2.576   0.814 -0.0009  0.1809  0.0536
  724MOL0     C95499   3.040   2.460   0.747 -0.0579  0.1149 -0.4729
  724MOL0     C95500   2.975   2.366   0.696 -0.1514 -1.0297 -0.3866
  724MOL0     C95501   3.090   2.881   1.272 -0.1056  0.1018 -0.2328
  724MOL0     C95502   3.060   2.875   1.410  0.0720 -0.0965  0.3247
  724MOL0     H95503   2.666   2.516   1.642 -1.2496  0.3201 -0.9734
  724MOL0     H95504   2.553   2.447   1.873  1.7836 -0.6479  1.1001
  724MOL0     H95505   2.490   2.398   2.080  2.3201  0.5742  3.4309
  724MOL0     H95506   2.342   2.503   2.038  0.7217  2.4898 -0.8989
  724MOL0     H95507   2.347   2.597   2.249 -0.2240 -0.2292  1.7553
  724MOL0     H95508   2.444   2.457   2.317  1.3804 -0.6229 -1.4365
  724MOL0     H95509   2.260   2.327   2.179  0.9450 -0.6067  0.3265
  724MOL0     H95510   2.166   2.471   2.211  1.8250  2.7993  0.6937
  724MOL0     H95511   2.233   2.416   2.483  1.3367 -2.3992  1.7372
  724MOL0     H95512   2.088   2.363   2.392  0.6355 -1.4430 -0.2958
  724MOL0     H95513   2.233   2.205   2.525  1.9029  1.3169  0.0874
  724MOL0     H95514   2.365   2.234   2.419 -0.1172 -0.3095 -0.4285
  724MOL0     H95515   2.253   2.009   2.366  0.3529 -1.8778 -3.3627
  724MOL0     H95516   2.242   2.100   2.218 -1.7143 -1.6973  0.0215
  724MOL0     H95517   2.017   2.101   2.401  1.3386  0.3101  0.0361
  724MOL0     H95518   2.024   2.176   2.243 -3.5732 -0.0067  1.7752
  724MOL0     H95519   2.061   1.958   2.150 -0.6128 -1.6103 -2.1727
  724MOL0     H95520   1.897   1.973   2.233  1.5262  2.0396  0.5556
  724MOL0     H95521   2.110   1.707   2.154  1.0723 -0.6376 -0.3696
  724MOL0     H95522   2.121   1.421   2.414  2.6350  0.9572 -0.1217
  724MOL0     H95523   2.185   1.462   2.258  0.0622 -2.2410  0.0696
  724MOL0     H95524   1.939   1.472   2.158  1.0127  0.2343  1.1442
  724MOL0     H95525   1.884   1.463   2.318 -0.4450  1.5769 -0.4806
  724MOL0     H95526   2.046   1.232   2.208  0.4277  0.7704 -1.8345
  724MOL0     H95527   1.975   1.235   2.364  0.5557  0.8348  0.6225
  724MOL0     H95528   1.806   1.121   2.246 -1.4963 -0.4474 -0.8041
  724MOL0     H95529   1.833   1.218   2.101 -0.8549 -0.4152 -0.1025
  724MOL0     H95530   1.519   1.414   2.411  0.5797 -1.5846  0.9223
  724MOL0     H95531   1.274   1.368   2.404  1.1674  1.8490  0.1747
  724MOL0     H95532   0.925   1.274   2.539 -0.3493 -1.2459  1.2160
  724MOL0     H95533   0.687   1.255   2.550 -0.3639  0.5641  0.6589
  724MOL0     H95534   0.531   1.008   2.238  2.5858 -1.4363  4.3115
  724MOL0     H95535   0.366   1.080   2.274 -1.5202 -0.0452  1.2428
  724MOL0     H95536   0.451   1.008   2.521 -2.2374 -0.0536 -0.3248
  724MOL0     H95537   0.567   0.910   2.432  0.4430  0.4114  1.2344
  724MOL0     H95538   0.261   0.887   2.426  0.6347 -0.7747  3.1903
  724MOL0     H95539   0.362   0.766   2.461 -2.9503  0.8135  1.3685
  724MOL0     H95540   0.322   0.862   2.177  3.1776  1.0400 -0.8642
  724MOL0     H95541   0.460   0.775   2.225 -0.2501  1.6915 -0.9415
  724MOL0     H95542   0.283   0.596   2.328  0.7110 -0.3066 -0.0670
  724MOL0     H95543   0.256   0.620   2.157  1.3404  2.1666  0.0036
  724MOL0     H95544   0.065   0.754   2.188  0.3993 -0.8526 -1.2943
  724MOL0     H95545   0.092   0.774   2.361 -2.0202 -0.6377 -0.3669
  724MOL0     H95546   0.050   0.492   2.249 -0.8206 -1.4756  0.3049
  724MOL0     H95547   0.072   0.550   2.415  0.0433  1.2707  0.0124
  724MOL0     H95548  -0.123   0.658   2.435  2.9115 -0.7975  1.1148
  724MOL0     H95549  -0.164   0.497   2.386 -0.9387  1.5601 -0.8321
  724MOL0     H95550   0.669   1.178   2.119  2.4468  3.8243 -2.0134
  724MOL0     H95551   0.889   1.180   2.111 -1.6909 -0.2783 -0.2199
  724MOL0     H95552   1.346   1.089   2.082 -1.8680  2.8032 -1.1286
  724MOL0     H95553   1.586   1.106   2.110 -0.4605 -2.5480  1.1116
  724MOL0     H95554   2.661   2.804   2.045 -0.3332 -2.5394  1.1098
  724MOL0     H95555   2.792   2.875   1.833  1.9587 -1.1743 -3.1724
  724MOL0     H95556   2.787   2.682   1.369 -0.7890 -0.0939 -2.0941
  724MOL0     H95557   2.851   2.700   1.124 -2.3158 -1.3793  0.8534
  724MOL0     H95558   3.249   2.864   1.034  0.3201 -0.5637  1.2192
  724MOL0     H95559   3.174   2.829   0.886  2.0410  2.2670  0.7999
  724MOL0     H95560   3.312   2.637   0.980 -0.2840 -1.1722  0.8508
  724MOL0     H95561   3.214   2.639   1.126  1.4362  3.4808  0.9264
  724MOL0     H95562   3.012   2.595   0.993  1.3716  5.6171  1.3058
  724MOL0     H95563   3.148   2.468   1.012  1.8879  1.3637  1.0582
  724MOL0     H95564   3.035   2.660   0.803  0.3648  0.5735  0.6592
  724MOL0     H95565   3.203   2.601   0.774 -1.5605  3.6085 -2.1592
  724MOL0     H95566   2.908   2.306   0.639 -1.9389  0.5276 -0.0328
  724MOL0     H95567   3.170   2.947   1.242  0.6187 -0.9168 -0.5926
  724MOL0     H95568   3.101   2.929   1.494 -2.0778  1.9339  0.1822
  725MOL0     O95569  10.832   1.585   8.378  0.8188 -0.3376 -0.8629
  725MOL0     C95570  10.748   1.621   8.301  0.3454 -0.2283  0.1436
  725MOL0     O95571  10.626   1.685   8.339 -0.6410 -0.6014  0.4134
  725MOL0     C95572  10.609   1.721   8.478 -0.5788  0.8712  0.3837
  725MOL0     C95573  10.574   1.626   8.579  0.1744  0.5160 -0.1803
  725MOL0     C95574  10.561   1.661   8.714 -0.1361  0.2928  0.2619
  725MOL0     C95575  10.555   1.791   8.738 -0.2564 -0.3050  0.3960
  725MOL0     O95576  10.536   1.815   8.864 -0.4245  0.3486  0.6012
  725MOL0     C95577  10.586   1.926   8.928 -0.7823  0.2138 -0.6812
  725MOL0     C95578  10.731   1.906   8.981  0.5119 -0.6423 -0.3619
  725MOL0     C95579  10.780   2.018   9.066  0.2947  1.1005  0.2076
  725MOL0     C95580  10.692   2.041   9.195 -1.1487  0.0116  0.4075
  725MOL0     C95581  10.756   2.151   9.293  0.4804  0.0083  0.2475
  725MOL0     C95582  10.640   2.193   9.388  0.5228  0.0629 -0.9372
  725MOL0     C95583  10.691   2.282   9.498 -0.3208  0.2393  0.1927
  725MOL0     C95584  10.593   2.265   9.618 -0.0712 -0.2623  0.1761
  725MOL0     N95585  10.643   2.359   9.726  1.1270 -0.0324 -0.1939
  725MOL0     C95586  10.594   2.492   9.748 -0.3716  0.1774  0.1158
  725MOL0     C95587  10.663   2.540   9.847 -0.2953  0.2875 -0.0833
  725MOL0     C95588  10.655   2.681   9.897 -0.4129 -0.8514 -0.6277
  725MOL0     C95589  10.607   2.681  10.045  1.2213 -0.2565  0.3684
  725MOL0     C95590  10.467   2.620  10.046  0.1661 -0.0844 -0.3250
  725MOL0     C95591  10.388   2.702  10.141 -0.2884  0.3199  1.5930
  725MOL0     O95592  10.257   2.687  10.109 -0.8424 -0.1267  0.3654
  725MOL0     C95593  10.163   2.727  10.196 -0.0567  0.3817 -0.0841
  725MOL0     C95594  10.040   2.695  10.153  0.6012  0.1489  0.1278
  725MOL0     C95595   9.927   2.729  10.225 -0.3870 -0.0169  0.1694
  725MOL0     C95596   9.931   2.800  10.349 -0.0237 -0.2151  0.2150
  725MOL0     C95597   9.828   2.826  10.440 -0.3323  0.2556  1.2053
  725MOL0     O95598   9.696   2.826  10.398 -0.4333  0.4674  0.2626
  725MOL0     C95599   9.599   2.847  10.487 -0.6775 -0.4301  0.1759
  725MOL0     C95600   9.536   2.977  10.475 -0.6633  0.4710  0.0461
  725MOL0     C95601   9.428   3.017  10.559 -0.0332 -0.6303 -0.0203
  725MOL0     C95602   9.384   2.920  10.647 -0.4761  0.6821 -0.3710
  725MOL0     O95603   9.270   2.935  10.718  0.5133  0.1182 -0.8931
  725MOL0     C95604   9.165   3.015  10.670 -0.6989  0.0388  0.1254
  725MOL0     C95605   9.068   3.050  10.781  0.4397  0.5247 -0.8525
  725MOL0     C95606   8.977   2.942  10.822  0.0083 -0.4633  0.2965
  725MOL0     C95607   8.892   2.983  10.950  0.6345  0.0729  0.0039
  725MOL0     C95608   8.756   2.912  10.965  0.2174  0.8914 -1.2645
  725MOL0     C95609   8.698   2.957  11.096 -0.7074 -0.6328 -0.1371
  725MOL0     C95610   8.549   2.946  11.091 -0.5910 -0.2437  0.1169
  725MOL0     C95611   8.468   3.040  11.173 -0.2328  0.7036 -0.2258
  725MOL0    Cl95612   8.300   3.030  11.117  0.0121  0.4398  0.1212
  725MOL0     C95613   9.442   2.788  10.654  0.0090  0.2713 -0.5805
  725MOL0     C95614   9.553   2.748  10.575  0.0733 -0.0962  0.0967
  725MOL0     O95615   9.852   2.865  10.554 -0.1783  0.2726 -0.5694
  725MOL0     C95616  10.069   2.829  10.389  0.4256  0.2635  0.2324
  725MOL0     C95617  10.183   2.794  10.322 -0.4312 -1.1190  0.0536
  725MOL0     N95618  10.757   2.442   9.887 -0.6989  1.0341 -0.7295
  725MOL0     N95619  10.750   2.331   9.809  0.1064 -0.7696  0.5023
  725MOL0     C95620  10.580   1.886   8.640  0.1414 -0.4877 -0.6480
  725MOL0     C95621  10.601   1.854   8.507 -1.4420 -0.6326 -0.1942
  725MOL0     C95622  10.773   1.586   8.162  0.5439 -0.3030  0.6320
  725MOL0     C95623  10.660   1.580   8.074 -0.5860 -0.4677  0.8001
  725MOL0     C95624  10.681   1.548   7.940 -0.1526  0.9111  0.3133
  725MOL0     C95625  10.807   1.514   7.898  0.6896 -0.5768  0.1479
  725MOL0     O95626  10.831   1.466   7.764 -0.3392  0.8314 -0.1728
  725MOL0     C95627  10.746   1.474   7.647  0.7846 -0.3390 -0.2016
  725MOL0     C95628  10.787   1.599   7.578 -0.0914  1.0899  0.9685
  725MOL0     C95629  10.931   1.583   7.507  0.3184  0.5726 -1.5847
  725MOL0     C95630  11.052   1.599   7.599 -0.2083 -0.1486  0.3436
  725MOL0     C95631  11.057   1.741   7.626 -0.4776 -0.4310 -0.1640
  725MOL0     C95632  11.068   1.859   7.657  0.1746  0.6571  0.4308
  725MOL0     C95633  10.918   1.518   7.987  0.4833 -0.1985 -0.1043
  725MOL0     C95634  10.903   1.564   8.115 -0.5890  0.3500 -0.1476
  725MOL0     H95635  10.568   1.520   8.557 -0.5307  0.5074  0.0353
  725MOL0     H95636  10.532   1.596   8.796  1.6910 -1.4768 -0.4277
  725MOL0     H95637  10.523   1.933   9.018  1.2167 -1.1452  0.9128
  725MOL0     H95638  10.567   2.014   8.865 -0.1367  0.4321 -0.5791
  725MOL0     H95639  10.797   1.894   8.895  2.0083  1.1839  0.4424
  725MOL0     H95640  10.739   1.813   9.038 -1.5430  0.3370  1.6895
  725MOL0     H95641  10.796   2.117   9.022  1.9510  0.6933 -0.1639
  725MOL0     H95642  10.878   1.988   9.103  0.5459  2.0432  0.3453
  725MOL0     H95643  10.592   2.074   9.167 -0.6762  0.5909 -0.6632
  725MOL0     H95644  10.679   1.953   9.259  0.1625  0.0332  0.7400
  725MOL0     H95645  10.774   2.241   9.233  0.3051 -0.4096 -0.4394
  725MOL0     H95646  10.840   2.106   9.348  1.4188  2.5271  1.0328
  725MOL0     H95647  10.600   2.106   9.441  0.3392  2.2642  2.9945
  725MOL0     H95648  10.554   2.237   9.336 -1.7913 -2.6011  0.3851
  725MOL0     H95649  10.795   2.265   9.528  0.7077 -0.1890 -3.2274
  725MOL0     H95650  10.690   2.382   9.456 -1.0027 -0.4646 -1.5514
  725MOL0     H95651  10.592   2.162   9.654 -0.7893 -0.7564 -1.1872
  725MOL0     H95652  10.489   2.286   9.589 -0.7896 -0.5830  2.3155
  725MOL0     H95653  10.512   2.549   9.706  0.9337  0.9849 -1.4966
  725MOL0     H95654  10.582   2.733   9.834  0.2890 -2.1946 -2.6569
  725MOL0     H95655  10.748   2.737   9.886 -1.7997  2.1399  1.3467
  725MOL0     H95656  10.614   2.786  10.072  2.3682  0.8697 -3.7035
  725MOL0     H95657  10.673   2.612  10.099  0.4049 -1.3475  0.0168
  725MOL0     H95658  10.408   2.626   9.954 -3.2424 -1.8335  1.5333
  725MOL0     H95659  10.471   2.516  10.079 -0.1685  0.3263  1.1182
  725MOL0     H95660  10.413   2.807  10.126 -1.4151  0.6889  2.1788
  725MOL0     H95661  10.402   2.663  10.243  1.1984 -3.5991  0.0752
  725MOL0     H95662  10.028   2.642  10.060  1.1553  0.1623  0.0474
  725MOL0     H95663   9.823   2.705  10.205 -0.4769 -0.6942  1.3617
  725MOL0     H95664   9.570   3.055  10.408  0.2372  0.3217  0.3171
  725MOL0     H95665   9.375   3.108  10.533  2.3954  0.1441 -2.8237
  725MOL0     H95666   9.108   2.962  10.594 -0.8725 -1.9129  1.5498
  725MOL0     H95667   9.199   3.109  10.626 -0.4179  0.5576  1.3954
  725MOL0     H95668   9.016   3.143  10.757  0.6001  0.0053 -3.4543
  725MOL0     H95669   9.133   3.078  10.865  2.2618  0.3378 -2.1347
  725MOL0     H95670   9.035   2.849  10.824  0.3878 -0.4371 -2.9537
  725MOL0     H95671   8.910   2.910  10.741 -1.4147  0.0190  1.2426
  725MOL0     H95672   8.959   2.952  11.031  1.0291 -0.1836 -0.4103
  725MOL0     H95673   8.868   3.089  10.958 -1.2318 -0.0283 -2.9062
  725MOL0     H95674   8.782   2.806  10.956  2.7389  1.5317 -2.4993
  725MOL0     H95675   8.698   2.943  10.877  1.1346 -0.5598 -2.4268
  725MOL0     H95676   8.730   3.061  11.096  0.7998 -1.0698  0.2866
  725MOL0     H95677   8.736   2.910  11.187 -1.9411  0.1409  0.8186
  725MOL0     H95678   8.514   2.967  10.990 -0.1427 -0.0942 -0.0088
  725MOL0     H95679   8.513   2.846  11.115 -2.0286 -0.5225 -2.7617
  725MOL0     H95680   8.510   3.139  11.153  0.2276  0.3407 -1.1215
  725MOL0     H95681   8.484   3.008  11.276  1.7499  2.4199  0.0805
  725MOL0     H95682   9.385   2.722  10.720 -0.2386  2.6707  1.7413
  725MOL0     H95683   9.573   2.642  10.563  2.2960  0.1177  1.5074
  725MOL0     H95684  10.090   2.869  10.487  0.1638  1.2761 -0.1120
  725MOL0     H95685  10.284   2.802  10.362 -0.6803 -1.5958  0.7995
  725MOL0     H95686  10.569   1.993   8.657 -2.4536 -0.0498 -3.9819
  725MOL0     H95687  10.613   1.931   8.432 -2.4328 -1.2596 -1.0173
  725MOL0     H95688  10.558   1.595   8.107 -0.2788  1.6774  0.8826
  725MOL0     H95689  10.596   1.530   7.876 -0.0653  2.9466 -0.4465
  725MOL0     H95690  10.638   1.481   7.663  0.5528 -1.9112 -0.9168
  725MOL0     H95691  10.769   1.382   7.592  0.7595 -0.1911 -0.4642
  725MOL0     H95692  10.716   1.611   7.497  0.6669  0.1468  0.1367
  725MOL0     H95693  10.789   1.675   7.657  2.5391  1.3992  0.6887
  725MOL0     H95694  10.932   1.649   7.419 -0.1351 -0.3290 -2.2788
  725MOL0     H95695  10.913   1.483   7.468 -1.2045 -0.1638  0.8403
  725MOL0     H95696  11.041   1.545   7.694 -0.7546 -2.0327 -0.7204
  725MOL0     H95697  11.140   1.567   7.543 -1.3397 -2.4849 -0.2551
  725MOL0     H95698  11.087   1.958   7.693 -0.3178  0.7611  0.4116
  725MOL0     H95699  11.015   1.486   7.949  0.2910 -0.0920 -0.6917
  725MOL0     H95700  10.988   1.570   8.182 -0.1118 -3.3684 -0.1569
  726MOL0     O95701   5.509   4.522   5.577  0.7249  0.4526 -0.2841
  726MOL0     C95702   5.425   4.433   5.602 -0.5130 -0.2990  0.1723
  726MOL0     O95703   5.340   4.366   5.510 -0.3869 -0.1542 -0.2955
  726MOL0     C95704   5.331   4.385   5.376  0.1889 -0.8439 -0.4367
  726MOL0     C95705   5.241   4.305   5.304  0.1145 -0.0376 -0.4624
  726MOL0     C95706   5.219   4.335   5.173  0.8669  0.3784 -0.0121
  726MOL0     C95707   5.284   4.426   5.101  0.3696 -1.0861  0.6987
  726MOL0     O95708   5.257   4.444   4.965 -0.9437 -0.0033  0.1408
  726MOL0     C95709   5.280   4.567   4.903  1.1210  0.3271 -0.6814
  726MOL0     C95710   5.414   4.563   4.830 -0.0736  0.6770  0.3371
  726MOL0     C95711   5.455   4.681   4.735  0.6864 -0.6238 -0.1511
  726MOL0     C95712   5.460   4.811   4.805  0.1229  0.2680  0.5968
  726MOL0     C95713   5.456   4.939   4.710  0.3574  0.2015 -0.6540
  726MOL0     C95714   5.577   4.935   4.617  0.3703  0.9019  0.3256
  726MOL0     C95715   5.587   5.075   4.553  0.2903 -0.2826 -0.0399
  726MOL0     C95716   5.631   5.093   4.408 -1.1661  0.2953 -0.1720
  726MOL0     N95717   5.554   5.011   4.313  0.0416  0.4281 -0.6919
  726MOL0     C95718   5.418   5.032   4.286  1.2306  0.4504  0.5947
  726MOL0     C95719   5.382   4.918   4.213 -0.7279 -0.4765 -0.0484
  726MOL0     C95720   5.246   4.918   4.146 -0.5891  0.2279  0.3806
  726MOL0     C95721   5.259   4.970   4.001  0.0875  0.4863 -0.8098
  726MOL0     C95722   5.299   4.860   3.898  0.1867  0.7423  0.2335
  726MOL0     C95723   5.292   4.914   3.754 -0.3983  1.6052 -0.1252
  726MOL0     O95724   5.415   4.984   3.707  0.8325  0.0570 -0.0552
  726MOL0     C95725   5.410   5.058   3.594 -0.3184  0.0839 -0.6055
  726MOL0     C95726   5.529   5.123   3.552 -1.2606  0.9374 -0.4984
  726MOL0     C95727   5.531   5.191   3.434 -0.7621  0.0710 -0.3101
  726MOL0     C95728   5.422   5.187   3.345  0.1941 -0.4906 -0.1047
  726MOL0     C95729   5.437   5.258   3.214  0.3327  0.1240  0.6344
  726MOL0     O95730   5.538   5.343   3.199 -0.8046 -0.8798 -0.2537
  726MOL0     C95731   5.578   5.405   3.088 -0.3306 -0.2842 -0.4789
  726MOL0     C95732   5.624   5.533   3.107  0.4715  0.3632 -0.5946
  726MOL0     C95733   5.644   5.615   2.998 -0.4378 -0.0400  1.0048
  726MOL0     C95734   5.626   5.572   2.863  1.0831 -0.3223  0.0576
  726MOL0     O95735   5.651   5.647   2.753  0.6059  0.2325  0.4400
  726MOL0     C95736   5.736   5.766   2.758  0.8905 -0.3400 -0.0913
  726MOL0     C95737   5.880   5.730   2.722 -0.0305 -0.3093  0.4896
  726MOL0     C95738   5.901   5.658   2.587 -0.0440  0.6283  0.3082
  726MOL0     C95739   5.917   5.753   2.469  0.1322 -0.3014  0.5990
  726MOL0     C95740   5.927   5.685   2.329 -0.7995  1.0659  0.3629
  726MOL0     C95741   6.058   5.594   2.304 -0.0295 -0.7698  0.3618
  726MOL0     C95742   6.065   5.548   2.161 -0.1170 -0.5912 -0.1301
  726MOL0     C95743   6.151   5.422   2.136  0.0331 -0.9851  1.3020
  726MOL0    Cl95744   6.303   5.451   2.225 -0.1785 -0.0969 -0.1201
  726MOL0     C95745   5.585   5.447   2.845 -0.2622 -0.6047 -0.0721
  726MOL0     C95746   5.555   5.366   2.958 -0.0554  1.6543 -0.1202
  726MOL0     O95747   5.353   5.229   3.125  0.2068 -0.2757 -0.2949
  726MOL0     C95748   5.306   5.120   3.391  0.3130  0.5423  0.0253
  726MOL0     C95749   5.298   5.053   3.512 -0.0785 -0.3140  0.0780
  726MOL0     N95750   5.493   4.844   4.200 -1.1734  0.2281 -0.9806
  726MOL0     N95751   5.597   4.889   4.264  0.5484 -1.2801 -0.5408
  726MOL0     C95752   5.385   4.500   5.169  0.5573  0.5388  0.6138
  726MOL0     C95753   5.414   4.476   5.304 -0.2521  0.2783  0.4408
  726MOL0     C95754   5.393   4.413   5.746  0.0903  0.0714  0.2159
  726MOL0     C95755   5.318   4.299   5.788  0.0128 -0.8525 -1.4893
  726MOL0     C95756   5.273   4.296   5.920 -0.0718 -1.3161  0.4306
  726MOL0     C95757   5.301   4.401   6.012  0.4253  0.5794  0.2351
  726MOL0     O95758   5.258   4.389   6.145 -0.0677  0.4527  0.0841
  726MOL0     C95759   5.248   4.506   6.230  1.0298 -0.3479  0.1034
  726MOL0     C95760   5.129   4.600   6.193  1.0597 -0.1988 -0.2780
  726MOL0     C95761   4.984   4.549   6.236  0.1561 -0.3110 -0.6407
  726MOL0     C95762   4.928   4.419   6.181  0.2763 -0.9787  0.0523
  726MOL0     C95763   4.900   4.422   6.042  0.5602 -0.3038  0.6721
  726MOL0     C95764   4.883   4.441   5.921 -0.3239 -0.7871  0.5645
  726MOL0     C95765   5.383   4.507   5.966  0.3386  0.9729 -0.8952
  726MOL0     C95766   5.417   4.519   5.838 -0.0823 -0.4882  1.0682
  726MOL0     H95767   5.183   4.228   5.354  0.3880 -0.4888 -0.8360
  726MOL0     H95768   5.132   4.288   5.128 -1.1674  1.5689  2.4888
  726MOL0     H95769   5.273   4.648   4.976 -1.5063 -0.3318 -0.0869
  726MOL0     H95770   5.210   4.589   4.821 -0.4354 -0.1632  0.4740
  726MOL0     H95771   5.397   4.487   4.752 -3.4727  2.4028 -0.7733
  726MOL0     H95772   5.493   4.527   4.897  0.2244 -3.2010 -1.7517
  726MOL0     H95773   5.378   4.696   4.659 -1.2167 -1.5121  1.5064
  726MOL0     H95774   5.546   4.666   4.676 -0.8024 -0.1573 -2.7115
  726MOL0     H95775   5.385   4.836   4.882  0.7547  1.2298  0.9222
  726MOL0     H95776   5.553   4.814   4.862 -0.8792  1.4734  2.2811
  726MOL0     H95777   5.463   5.028   4.773 -0.6166 -0.3074  0.1932
  726MOL0     H95778   5.366   4.945   4.649  2.2284 -1.8736 -3.9026
  726MOL0     H95779   5.574   4.863   4.535  1.8535  2.0353 -0.7849
  726MOL0     H95780   5.661   4.912   4.683  0.5771  2.6382  0.7316
  726MOL0     H95781   5.493   5.124   4.581  0.4837 -1.8943  4.1138
  726MOL0     H95782   5.657   5.133   4.614 -0.0227  1.5210 -1.2951
  726MOL0     H95783   5.737   5.066   4.405 -0.7870  1.5605  0.7614
  726MOL0     H95784   5.619   5.196   4.372  3.2518  0.1534 -2.7746
  726MOL0     H95785   5.361   5.115   4.325  0.3387 -0.3603  1.0548
  726MOL0     H95786   5.165   4.966   4.202 -0.4002  3.1094 -1.6436
  726MOL0     H95787   5.232   4.810   4.135  1.4632  0.1036 -1.7124
  726MOL0     H95788   5.336   5.047   4.005  0.2670  0.2745  2.6590
  726MOL0     H95789   5.167   5.020   3.969 -1.4439 -1.1781  0.7490
  726MOL0     H95790   5.398   4.828   3.931 -0.3478 -0.2555  0.9079
  726MOL0     H95791   5.219   4.785   3.894 -0.2404  1.2204 -3.1196
  726MOL0     H95792   5.200   4.973   3.742  0.2692  2.4654 -1.1673
  726MOL0     H95793   5.278   4.833   3.682  2.5445  2.2105 -1.4897
  726MOL0     H95794   5.622   5.112   3.605 -1.6697  2.2212  0.5565
  726MOL0     H95795   5.637   5.215   3.422 -1.2682  1.6978 -1.9849
  726MOL0     H95796   5.634   5.577   3.205  0.7881 -0.7599 -0.1032
  726MOL0     H95797   5.674   5.716   3.021  3.0431 -0.8150  0.4616
  726MOL0     H95798   5.732   5.812   2.858  2.2022 -0.3742 -0.0075
  726MOL0     H95799   5.688   5.839   2.693 -0.3657 -0.1395  1.0127
  726MOL0     H95800   5.897   5.653   2.798 -0.6019 -0.6706  0.2570
  726MOL0     H95801   5.951   5.812   2.729  1.4640 -1.7035  4.5873
  726MOL0     H95802   5.810   5.597   2.577 -0.3443  0.9634  0.9152
  726MOL0     H95803   5.983   5.586   2.601 -0.1034  1.0325  3.7042
  726MOL0     H95804   5.836   5.826   2.473  1.3326  1.0791  0.7697
  726MOL0     H95805   6.008   5.813   2.477 -1.6265  2.9682 -1.5395
  726MOL0     H95806   5.938   5.756   2.246  0.0951  2.9607  2.0145
  726MOL0     H95807   5.849   5.609   2.328  0.7231 -0.5589  0.2898
  726MOL0     H95808   6.050   5.501   2.360 -4.1476 -0.0565  1.2713
  726MOL0     H95809   6.149   5.646   2.335  0.9547 -1.0848 -1.8028
  726MOL0     H95810   5.960   5.528   2.135  0.2670 -1.4750 -1.0994
  726MOL0     H95811   6.103   5.633   2.104  0.7137 -0.5670  0.4477
  726MOL0     H95812   6.166   5.411   2.028 -0.0429 -1.7381  1.3665
  726MOL0     H95813   6.094   5.332   2.160 -0.8518 -0.8021 -0.0013
  726MOL0     H95814   5.559   5.395   2.753 -0.6341  0.5620 -0.6458
  726MOL0     H95815   5.509   5.271   2.932  1.2642  0.7692  0.6451
  726MOL0     H95816   5.228   5.108   3.316  1.8642 -3.6724 -1.2289
  726MOL0     H95817   5.204   5.004   3.534 -1.4345  0.6806 -3.0165
  726MOL0     H95818   5.450   4.570   5.118 -0.2622 -0.1447 -1.4809
  726MOL0     H95819   5.495   4.529   5.353 -0.0797 -0.7519  1.3212
  726MOL0     H95820   5.309   4.208   5.730 -1.4869 -1.1626 -0.8274
  726MOL0     H95821   5.198   4.224   5.952 -0.8948 -0.3675  0.6656
  726MOL0     H95822   5.340   4.565   6.224 -1.0021  3.1292  0.0264
  726MOL0     H95823   5.240   4.474   6.334  2.9414 -0.1822  0.3418
  726MOL0     H95824   5.141   4.699   6.237  1.8444  0.6544 -2.2738
  726MOL0     H95825   5.136   4.626   6.087 -0.9423  1.5021 -0.0391
  726MOL0     H95826   4.919   4.632   6.207  0.1863 -0.3163 -0.7255
  726MOL0     H95827   4.972   4.549   6.344 -2.2612  0.5451 -0.8481
  726MOL0     H95828   4.996   4.338   6.207  1.3295  0.0807  0.7443
  726MOL0     H95829   4.832   4.395   6.226  0.5251 -0.5174  0.8465
  726MOL0     H95830   4.865   4.450   5.816 -3.5166  0.7659  1.1013
  726MOL0     H95831   5.420   4.580   6.038  0.2875 -0.8318  1.0916
  726MOL0     H95832   5.470   4.612   5.819 -0.1717 -0.2866  1.7733
  727MOL0     O95833   0.832   4.943   7.709 -0.4953  0.2106  0.2220
  727MOL0     C95834   0.827   4.844   7.782  0.4812  0.4503  0.1899
  727MOL0     O95835   0.776   4.836   7.911 -0.4643 -1.4020  0.2058
  727MOL0     C95836   0.723   4.948   7.981  0.0087  0.6244 -0.3868
  727MOL0     C95837   0.742   4.941   8.120  0.0524 -0.6582 -0.8515
  727MOL0     C95838   0.677   5.035   8.204  0.4550  0.3243  0.3458
  727MOL0     C95839   0.603   5.142   8.151 -0.3768  0.7343 -0.2617
  727MOL0     O95840   0.531   5.220   8.236  0.2111 -0.6100  0.4043
  727MOL0     C95841   0.394   5.230   8.200  0.2505  0.2650 -0.1031
  727MOL0     C95842   0.321   5.249   8.329 -0.2260 -0.5757 -0.2152
  727MOL0     C95843   0.374   5.374   8.402 -0.9214  0.6372 -0.4303
  727MOL0     C95844   0.297   5.406   8.524 -0.0030 -0.2070 -0.3517
  727MOL0     C95845   0.362   5.519   8.601  0.8013 -0.3190 -0.6597
  727MOL0     C95846   0.504   5.501   8.659  0.3113  0.2689 -0.2505
  727MOL0     C95847   0.553   5.618   8.734 -0.5806  0.1429 -0.3965
  727MOL0     C95848   0.700   5.623   8.770  0.2281 -0.1404 -0.1906
  727MOL0     N95849   0.738   5.731   8.870  0.1413 -0.5877  0.9209
  727MOL0     C95850   0.700   5.864   8.876  0.3532 -1.2106  1.1105
  727MOL0     C95851   0.709   5.896   9.011  0.2195 -0.5768  0.8530
  727MOL0     C95852   0.686   6.032   9.065  0.7047  0.4787  0.0053
  727MOL0     C95853   0.551   6.105   9.050 -0.2137  0.2951 -0.2802
  727MOL0     C95854   0.436   6.013   9.074 -0.1922 -0.0235  0.1188
  727MOL0     C95855   0.432   5.966   9.217 -0.3212 -0.3721 -0.2558
  727MOL0     O95856   0.317   5.890   9.246  0.1470  0.5847  0.5177
  727MOL0     C95857   0.299   5.767   9.187  1.1553 -0.4021  0.7401
  727MOL0     C95858   0.401   5.668   9.162  0.2751 -0.0687 -0.1239
  727MOL0     C95859   0.370   5.554   9.078  0.5041  0.2928  0.5267
  727MOL0     C95860   0.228   5.537   9.033  0.6879 -0.7593 -0.7657
  727MOL0     C95861   0.194   5.420   8.958 -0.2815  0.3140  0.2804
  727MOL0     O95862   0.065   5.411   8.929  0.2112  0.4641  0.6912
  727MOL0     C95863   0.019   5.279   8.914  0.1365  1.3581  0.4519
  727MOL0     C95864   0.034   5.219   8.790 -1.0794  0.4318  0.2083
  727MOL0     C95865   0.000   5.086   8.771 -0.4895 -0.3063  0.1805
  727MOL0     C95866  -0.058   5.013   8.873 -0.0520 -0.5072 -0.0826
  727MOL0     O95867  -0.089   4.877   8.858  0.4854 -0.0334 -0.0352
  727MOL0     C95868  -0.172   4.804   8.952  0.2210 -0.4103 -1.4906
  727MOL0     C95869  -0.319   4.853   8.932  0.5070 -0.0003 -0.1121
  727MOL0     C95870  -0.424   4.759   9.000 -0.1953  0.1089 -0.1762
  727MOL0     C95871  -0.382   4.718   9.145  0.3263  0.1487  0.5859
  727MOL0     C95872  -0.493   4.675   9.243  0.3341  1.0045 -0.5033
  727MOL0     C95873  -0.463   4.550   9.334  0.2537  0.5716  0.1430
  727MOL0     C95874  -0.343   4.559   9.417 -1.2273 -0.4606 -0.5944
  727MOL0     C95875  -0.310   4.458   9.523  0.3514 -1.1209  0.0819
  727MOL0    Cl95876  -0.399   4.474   9.672  0.2659  0.1974  0.0965
  727MOL0     C95877  -0.074   5.073   8.995  0.8535 -0.4754  0.4221
  727MOL0     C95878  -0.021   5.203   9.022 -0.2781  0.3028  0.0780
  727MOL0     O95879   0.278   5.335   8.941 -0.6322  0.0450 -0.2755
  727MOL0     C95880   0.131   5.635   9.072  0.2002  0.2255 -0.0712
  727MOL0     C95881   0.164   5.745   9.153 -0.0530 -0.0965 -0.2508
  727MOL0     N95882   0.740   5.776   9.077  0.0708 -0.4264 -0.0499
  727MOL0     N95883   0.757   5.685   8.991  0.3620 -0.2622  0.4778
  727MOL0     C95884   0.595   5.146   8.006  0.6265  0.3218 -0.8699
  727MOL0     C95885   0.644   5.049   7.924 -0.4704  0.4883 -0.6749
  727MOL0     C95886   0.881   4.715   7.721  0.2653 -0.2075 -0.0861
  727MOL0     C95887   0.861   4.591   7.786 -0.1025 -0.0300  0.3119
  727MOL0     C95888   0.906   4.483   7.718 -0.5949  0.4900 -0.9879
  727MOL0     C95889   0.982   4.487   7.593  0.7863 -0.7437  0.2781
  727MOL0     O95890   1.030   4.382   7.531 -0.2924  0.2953 -0.5144
  727MOL0     C95891   1.085   4.285   7.617  0.4472  0.3657  0.2476
  727MOL0     C95892   1.171   4.186   7.538 -0.2984  0.2394 -0.2982
  727MOL0     C95893   1.265   4.099   7.623 -0.0173 -0.4652 -0.1612
  727MOL0     C95894   1.325   3.986   7.536  0.2333 -0.6697 -0.3345
  727MOL0     C95895   1.427   3.927   7.629  0.0303  0.7521  0.2226
  727MOL0     C95896   1.508   3.854   7.680 -0.3556  0.0992 -0.8352
  727MOL0     C95897   1.011   4.614   7.542  0.5297  0.5258 -0.4590
  727MOL0     C95898   0.957   4.723   7.603  0.2851  0.1642 -0.6180
  727MOL0     H95899   0.798   4.859   8.163  0.7700  1.6388  3.1441
  727MOL0     H95900   0.676   5.031   8.312  0.0830  1.4734  0.4035
  727MOL0     H95901   0.351   5.151   8.137  2.1458  0.9829 -2.4225
  727MOL0     H95902   0.377   5.319   8.140 -2.5152 -0.0410  0.0867
  727MOL0     H95903   0.323   5.154   8.383 -2.9780 -0.2613  0.6197
  727MOL0     H95904   0.215   5.260   8.302 -1.0486  1.7353  3.4136
  727MOL0     H95905   0.380   5.466   8.342 -0.9353  0.2575 -1.0221
  727MOL0     H95906   0.478   5.351   8.428 -0.9074 -0.6432 -1.5089
  727MOL0     H95907   0.197   5.445   8.503 -0.1357  0.7631  1.8292
  727MOL0     H95908   0.288   5.315   8.584  0.4958  1.0309  1.7111
  727MOL0     H95909   0.294   5.537   8.685 -0.1139 -0.2818 -1.4003
  727MOL0     H95910   0.362   5.603   8.532  0.2149 -1.8978 -2.7060
  727MOL0     H95911   0.566   5.484   8.571  1.3421  0.4158  0.4397
  727MOL0     H95912   0.509   5.408   8.717  2.2728  0.8500  0.5939
  727MOL0     H95913   0.536   5.703   8.668  1.7806 -1.5650 -3.4729
  727MOL0     H95914   0.502   5.628   8.830 -0.7078  1.4774 -0.5788
  727MOL0     H95915   0.758   5.635   8.678  3.2558  0.8697  1.7330
  727MOL0     H95916   0.724   5.524   8.809 -2.0775 -0.1379  1.4648
  727MOL0     H95917   0.678   5.927   8.790  1.3956 -1.7846  0.3964
  727MOL0     H95918   0.770   6.095   9.033  2.6151 -0.9522  1.8365
  727MOL0     H95919   0.706   6.026   9.172  1.0351 -1.5224 -0.1399
  727MOL0     H95920   0.553   6.136   8.945  1.9240  0.0353 -0.3500
  727MOL0     H95921   0.530   6.195   9.109 -4.1358 -0.2289 -0.5937
  727MOL0     H95922   0.337   6.054   9.053 -1.4632 -1.9731  1.8586
  727MOL0     H95923   0.440   5.922   9.013  2.4414 -0.7407  1.2198
  727MOL0     H95924   0.439   6.051   9.286  2.4611  0.4111 -1.3354
  727MOL0     H95925   0.507   5.897   9.256 -1.6811  0.2224  3.8109
  727MOL0     H95926   0.497   5.704   9.197 -1.0456  4.8100 -0.8633
  727MOL0     H95927   0.440   5.477   9.048 -2.4272 -2.5481  0.4710
  727MOL0     H95928   0.080   5.279   8.712 -0.6292  1.6422  1.3666
  727MOL0     H95929   0.029   5.035   8.680  0.2132  2.1226 -1.0491
  727MOL0     H95930  -0.149   4.813   9.059 -2.8601 -0.5430 -0.7149
  727MOL0     H95931  -0.158   4.699   8.925  1.9312 -0.6222  0.0161
  727MOL0     H95932  -0.340   4.867   8.826  0.8743  0.0632 -0.1800
  727MOL0     H95933  -0.323   4.951   8.980  1.1829 -1.9444  4.4111
  727MOL0     H95934  -0.426   4.660   8.952  2.0631  0.5871 -1.3602
  727MOL0     H95935  -0.526   4.798   8.993  0.1633  1.2192  0.5207
  727MOL0     H95936  -0.305   4.641   9.146 -0.9514 -1.1759  0.0515
  727MOL0     H95937  -0.337   4.802   9.199  0.9913 -0.8499  1.6402
  727MOL0     H95938  -0.586   4.674   9.186 -0.6639 -2.8903  0.8623
  727MOL0     H95939  -0.509   4.749   9.322  1.7051  0.4169  0.3699
  727MOL0     H95940  -0.453   4.470   9.260 -1.7283  1.9945 -1.7955
  727MOL0     H95941  -0.552   4.535   9.397 -0.3577 -3.9825 -1.3869
  727MOL0     H95942  -0.254   4.553   9.354 -0.4086  0.4205  0.4462
  727MOL0     H95943  -0.355   4.657   9.463  0.8671 -2.1638  4.1873
  727MOL0     H95944  -0.203   4.448   9.539  0.7451  1.1358 -0.6670
  727MOL0     H95945  -0.337   4.365   9.472 -0.3742 -0.5433 -0.6169
  727MOL0     H95946  -0.131   5.026   9.074 -0.7520 -0.0074 -0.4042
  727MOL0     H95947  -0.019   5.245   9.121  1.6360 -0.1208  0.2497
  727MOL0     H95948   0.027   5.639   9.044  0.3513  1.5868 -0.4724
  727MOL0     H95949   0.099   5.832   9.158  0.5056  0.2761  1.2131
  727MOL0     H95950   0.538   5.226   7.960  1.1102  1.9481  1.1632
  727MOL0     H95951   0.613   5.052   7.820 -1.4052 -0.9260 -0.4680
  727MOL0     H95952   0.804   4.575   7.877 -0.5116 -1.0881 -0.1114
  727MOL0     H95953   0.880   4.388   7.763 -0.9389  1.0616  0.0406
  727MOL0     H95954   1.007   4.224   7.665  0.3855 -1.5888 -2.1188
  727MOL0     H95955   1.145   4.337   7.692  1.5973 -3.5859  2.3860
  727MOL0     H95956   1.107   4.120   7.478 -0.6359 -1.6872  2.0545
  727MOL0     H95957   1.227   4.240   7.460 -0.1192 -1.6637 -1.5658
  727MOL0     H95958   1.202   4.052   7.699  0.9463 -1.6260 -0.0511
  727MOL0     H95959   1.344   4.160   7.667  1.0133 -2.1873  0.4664
  727MOL0     H95960   1.250   3.915   7.498  0.3788  0.4334 -2.9693
  727MOL0     H95961   1.373   4.028   7.447 -0.2565  1.5813  0.4052
  727MOL0     H95962   1.585   3.799   7.731  1.0870  1.4290 -1.5120
  727MOL0     H95963   1.070   4.627   7.451  0.2666 -0.6858 -0.8210
  727MOL0     H95964   0.975   4.825   7.570  1.7737 -0.7461 -2.7948
  728MOL0     O95965   6.608   9.475   0.274  0.5260 -0.3869  1.0724
  728MOL0     C95966   6.699   9.547   0.220 -0.0682 -0.6599 -0.0848
  728MOL0     O95967   6.684   9.646   0.131 -0.0031  0.0326 -1.1792
  728MOL0     C95968   6.566   9.672   0.063 -0.3909  0.3528 -0.9399
  728MOL0     C95969   6.539   9.800   0.017  0.4130 -0.5101 -0.0705
  728MOL0     C95970   6.427   9.830  -0.071 -0.3858 -0.5644 -0.2853
  728MOL0     C95971   6.343   9.722  -0.097 -0.4939 -0.2541 -1.3643
  728MOL0     O95972   6.247   9.745  -0.185 -0.1672  0.0654  0.2035
  728MOL0     C95973   6.114   9.722  -0.130 -0.0501 -0.2622 -0.2908
  728MOL0     C95974   6.021   9.700  -0.258 -0.3545 -0.6507 -0.2007
  728MOL0     C95975   5.879   9.734  -0.197 -0.4717 -0.9665 -1.4887
  728MOL0     C95976   5.751   9.708  -0.280 -0.2460  0.7907  0.6704
  728MOL0     C95977   5.614   9.694  -0.206 -0.5543 -0.5861  0.3302
  728MOL0     C95978   5.506   9.691  -0.311 -0.5651 -0.2010  0.8994
  728MOL0     C95979   5.362   9.690  -0.251  0.4297 -0.2837 -0.0478
  728MOL0     C95980   5.260   9.612  -0.348 -0.8538 -1.4793 -0.2488
  728MOL0     N95981   5.191   9.696  -0.448  0.5860  0.1489 -0.5400
  728MOL0     C95982   5.051   9.719  -0.440  1.2259  0.7564 -0.1191
  728MOL0     C95983   5.033   9.793  -0.554  1.3471  0.1563 -0.2093
  728MOL0     C95984   4.906   9.867  -0.602  0.2971  0.3876 -0.0696
  728MOL0     C95985   4.887   9.841  -0.750 -0.3255  0.6236 -0.5936
  728MOL0     C95986   4.759   9.927  -0.781  0.1685  0.5032  0.3348
  728MOL0     C95987   4.709   9.935  -0.927  0.5507 -0.0018  0.1792
  728MOL0     O95988   4.746  10.058  -0.996  1.2935 -0.0684  0.5135
  728MOL0     C95989   4.685  10.072  -1.120  0.5463 -0.0812 -0.3359
  728MOL0     C95990   4.587   9.977  -1.172  1.2854 -0.3259 -0.3964
  728MOL0     C95991   4.544   9.993  -1.303  0.2035 -0.6010 -0.9583
  728MOL0     C95992   4.578  10.114  -1.370 -0.1987  0.2593  0.1443
  728MOL0     C95993   4.523  10.131  -1.502 -0.8276  0.1324  0.3266
  728MOL0     O95994   4.523  10.265  -1.543 -0.2153  0.1887  0.6384
  728MOL0     C95995   4.510  10.295  -1.682 -0.5517  1.3880  0.5126
  728MOL0     C95996   4.603  10.267  -1.777 -0.6881  0.3747 -0.6616
  728MOL0     C95997   4.582  10.287  -1.912  0.3117  0.2808  0.0346
  728MOL0     C95998   4.457  10.348  -1.956 -0.1451 -0.2021 -0.3972
  728MOL0     O95999   4.451  10.388  -2.089  0.7269  0.3724 -0.2406
  728MOL0     C96000   4.409  10.523  -2.110 -0.2542  0.3028  0.0807
  728MOL0     C96001   4.383  10.550  -2.255 -0.2626  0.3078  0.0542
  728MOL0     C96002   4.512  10.596  -2.323  0.1868  0.0387  0.2273
  728MOL0     C96003   4.607  10.478  -2.337 -0.1815 -0.0034  0.4768
  728MOL0     C96004   4.562  10.361  -2.420 -0.6760 -0.5004 -0.2017
  728MOL0     C96005   4.609  10.375  -2.569  0.6130  0.1492 -0.5309
  728MOL0     C96006   4.533  10.261  -2.646 -0.4550  0.1977  0.7961
  728MOL0     C96007   4.580  10.284  -2.788 -0.1927 -0.3014  0.5520
  728MOL0    Cl96008   4.484  10.426  -2.859 -0.0403 -0.0258 -0.1351
  728MOL0     C96009   4.362  10.376  -1.862  0.6517  0.0942 -0.2900
  728MOL0     C96010   4.389  10.351  -1.723 -0.4696  0.0186 -0.3455
  728MOL0     O96011   4.501  10.034  -1.579  0.0726 -0.9483 -0.6346
  728MOL0     C96012   4.670  10.208  -1.315  0.6379  0.1844 -1.4943
  728MOL0     C96013   4.722  10.186  -1.192 -0.7529  0.7421 -0.4328
  728MOL0     N96014   5.149   9.805  -0.623 -0.3921  0.7750 -0.2169
  728MOL0     N96015   5.246   9.743  -0.562  0.1899  0.0592  0.0148
  728MOL0     C96016   6.374   9.590  -0.053  0.0170 -0.2263  0.1279
  728MOL0     C96017   6.485   9.570   0.025  0.4867  0.5901  0.0085
  728MOL0     C96018   6.837   9.527   0.261 -0.6819  0.3887 -0.8793
  728MOL0     C96019   6.947   9.601   0.202  0.1598 -0.0185  0.8656
  728MOL0     C96020   7.069   9.587   0.261  0.7576  0.3751  0.0097
  728MOL0     C96021   7.109   9.504   0.367  0.7081 -0.5909 -0.2222
  728MOL0     O96022   7.232   9.509   0.432 -0.3266 -0.2272  0.5145
  728MOL0     C96023   7.347   9.563   0.371 -1.0526  0.4319  0.3095
  728MOL0     C96024   7.381   9.457   0.271  0.3854  0.1385  0.0342
  728MOL0     C96025   7.411   9.314   0.330 -0.1551  0.5658 -0.6284
  728MOL0     C96026   7.522   9.300   0.436  0.2002 -0.1654  0.2269
  728MOL0     C96027   7.649   9.340   0.382 -0.1858 -0.6284  0.0003
  728MOL0     C96028   7.754   9.384   0.337  0.6179 -0.3028  0.4141
  728MOL0     C96029   7.002   9.434   0.428  1.0788 -0.6077  0.2661
  728MOL0     C96030   6.870   9.441   0.383 -0.3131 -0.7557  0.0782
  728MOL0     H96031   6.604   9.876   0.058  0.7803 -2.5827  3.5535
  728MOL0     H96032   6.395   9.922  -0.119  0.0391  0.9376  2.0885
  728MOL0     H96033   6.089   9.806  -0.064 -0.0188  0.2891 -0.9631
  728MOL0     H96034   6.113   9.633  -0.066  2.6397  1.7313  2.8684
  728MOL0     H96035   6.014   9.596  -0.291 -3.1049 -1.7106  3.0757
  728MOL0     H96036   6.040   9.765  -0.343  1.1490  0.6739  1.0849
  728MOL0     H96037   5.887   9.835  -0.156 -5.2170  0.3632 -3.2476
  728MOL0     H96038   5.859   9.667  -0.114  2.4184  1.0955  1.1235
  728MOL0     H96039   5.749   9.777  -0.365  2.6913 -0.9345 -0.9726
  728MOL0     H96040   5.772   9.611  -0.326  4.5134  1.4007  1.0317
  728MOL0     H96041   5.613   9.767  -0.124  1.6164  2.4030 -2.0944
  728MOL0     H96042   5.614   9.596  -0.156 -3.7062  0.8492  3.5740
  728MOL0     H96043   5.509   9.602  -0.374 -0.8341  0.0768  0.4819
  728MOL0     H96044   5.513   9.770  -0.387 -3.0399 -0.4100  0.3395
  728MOL0     H96045   5.369   9.639  -0.154  0.4725 -1.7373 -0.7853
  728MOL0     H96046   5.305   9.783  -0.244  1.3451  0.3090 -0.3096
  728MOL0     H96047   5.193   9.554  -0.285  1.3249 -0.9759  2.7896
  728MOL0     H96048   5.321   9.543  -0.406 -1.2817 -0.5659 -1.8571
  728MOL0     H96049   4.979   9.703  -0.361  0.5036 -1.5512 -1.1795
  728MOL0     H96050   4.911   9.974  -0.583  0.5782  0.7047 -1.7842
  728MOL0     H96051   4.822   9.825  -0.547 -0.2693  0.0687 -1.1448
  728MOL0     H96052   4.879   9.733  -0.764 -1.6873  0.2583  2.3756
  728MOL0     H96053   4.971   9.885  -0.804 -0.7302  2.7908  0.4420
  728MOL0     H96054   4.669   9.893  -0.729 -0.7242  3.6883  1.0360
  728MOL0     H96055   4.764  10.030  -0.746 -0.5871 -0.6732  4.4756
  728MOL0     H96056   4.600   9.919  -0.927  0.8614 -2.6629  1.3811
  728MOL0     H96057   4.748   9.848  -0.981  2.4517  0.4908  0.6773
  728MOL0     H96058   4.544   9.898  -1.111 -2.1935  2.1042  0.5927
  728MOL0     H96059   4.468   9.932  -1.350  0.0031 -1.6693  0.6589
  728MOL0     H96060   4.699  10.228  -1.744  0.5316  1.2451 -2.8965
  728MOL0     H96061   4.658  10.269  -1.987  0.5770  1.2807  0.0476
  728MOL0     H96062   4.481  10.588  -2.059  1.8037 -2.3088  0.7455
  728MOL0     H96063   4.311  10.537  -2.064 -0.1542 -0.5708  0.5779
  728MOL0     H96064   4.315  10.636  -2.253 -2.4141 -1.0536 -3.5916
  728MOL0     H96065   4.328  10.470  -2.306 -3.3540  1.9816  0.5155
  728MOL0     H96066   4.552  10.677  -2.261  2.4428  0.3422 -1.4792
  728MOL0     H96067   4.490  10.635  -2.423 -0.3915 -1.3744 -0.2332
  728MOL0     H96068   4.682  10.528  -2.399  2.2669 -0.6207  2.7098
  728MOL0     H96069   4.659  10.458  -2.243 -2.3833 -0.2798  1.6858
  728MOL0     H96070   4.455  10.342  -2.406 -0.5137 -0.8627  0.5942
  728MOL0     H96071   4.605  10.271  -2.374  1.7334  0.3123 -0.7398
  728MOL0     H96072   4.717  10.357  -2.568  0.6234  0.1368 -1.3721
  728MOL0     H96073   4.596  10.477  -2.606  1.5241 -1.1768 -5.1417
  728MOL0     H96074   4.562  10.165  -2.602  3.9446  0.9014 -0.0596
  728MOL0     H96075   4.424  10.266  -2.638 -0.4536 -0.0409  0.9773
  728MOL0     H96076   4.564  10.191  -2.842  1.7479 -0.1906 -0.2684
  728MOL0     H96077   4.686  10.311  -2.794 -0.6120  1.9261  1.8181
  728MOL0     H96078   4.271  10.426  -1.893 -0.3708 -2.0661 -1.0220
  728MOL0     H96079   4.314  10.382  -1.651  0.3864  0.3367  0.4312
  728MOL0     H96080   4.703  10.303  -1.356 -1.9252  2.8811  2.0673
  728MOL0     H96081   4.806  10.244  -1.156 -1.7630  0.9251  1.7812
  728MOL0     H96082   6.312   9.506  -0.084  0.2361 -0.9230  1.5394
  728MOL0     H96083   6.503   9.467   0.055  1.4757 -0.1791 -2.8747
  728MOL0     H96084   6.926   9.672   0.123  1.3683 -0.9849 -0.3577
  728MOL0     H96085   7.135   9.665   0.225  2.7483 -1.0355  0.4846
  728MOL0     H96086   7.413   9.565   0.458 -0.7601  2.2412  0.0742
  728MOL0     H96087   7.344   9.663   0.327  0.6589  0.6976  0.7261
  728MOL0     H96088   7.308   9.464   0.190 -1.2261 -3.4133  1.0021
  728MOL0     H96089   7.476   9.495   0.232  2.1848 -2.7890  1.2434
  728MOL0     H96090   7.448   9.254   0.246  0.2662 -1.8288  1.1556
  728MOL0     H96091   7.325   9.268   0.379 -0.6409  2.3919  0.3311
  728MOL0     H96092   7.501   9.347   0.533 -1.8477 -1.0922  0.2842
  728MOL0     H96093   7.535   9.193   0.454  2.8256  0.1729  0.7631
  728MOL0     H96094   7.836   9.422   0.278 -0.7895  0.4996 -1.1227
  728MOL0     H96095   7.032   9.377   0.515  3.6079  0.3714  0.1292
  728MOL0     H96096   6.793   9.383   0.432 -0.3784 -1.8985 -1.2985
  729MOL0     O96097   7.045   8.485   7.886  0.6631 -0.2441  0.0576
  729MOL0     C96098   7.002   8.519   7.779  0.4414  0.4473  0.6789
  729MOL0     O96099   6.937   8.642   7.751 -0.2834 -0.0142 -0.1022
  729MOL0     C96100   6.956   8.742   7.833  0.3969  0.0823  0.5154
  729MOL0     C96101   7.079   8.767   7.910  0.5568 -0.1062  0.3559
  729MOL0     C96102   7.105   8.892   7.981 -0.5329  0.4511 -0.9286
  729MOL0     C96103   7.012   8.990   7.974  0.0263  0.4779 -0.6762
  729MOL0     O96104   7.043   9.117   8.028 -0.3828 -0.8532 -0.1056
  729MOL0     C96105   6.947   9.154   8.125  0.4489  0.5608  0.4769
  729MOL0     C96106   6.995   9.267   8.215  0.2391 -0.7621 -1.2643
  729MOL0     C96107   7.096   9.227   8.327 -0.3477  0.0755  0.0091
  729MOL0     C96108   7.155   9.351   8.408 -1.5098  0.1898  0.6681
  729MOL0     C96109   7.202   9.325   8.544 -0.7254 -0.0865 -0.8852
  729MOL0     C96110   7.319   9.222   8.555 -0.1013  0.5709 -0.1911
  729MOL0     C96111   7.462   9.288   8.517  1.3519 -0.1562  0.4576
  729MOL0     C96112   7.582   9.199   8.565  0.8618 -0.4054  0.4390
  729MOL0     N96113   7.582   9.087   8.479  0.2698 -0.2992  0.3670
  729MOL0     C96114   7.680   9.000   8.486  0.4134  0.5854  0.0439
  729MOL0     C96115   7.658   8.916   8.377 -0.0237 -0.6705 -0.6378
  729MOL0     C96116   7.740   8.797   8.343  0.2893  1.1151 -0.0730
  729MOL0     C96117   7.652   8.680   8.313 -0.7736  0.5310 -0.0719
  729MOL0     C96118   7.707   8.546   8.264  0.3847  0.5797  0.2134
  729MOL0     C96119   7.743   8.440   8.375 -0.1100  0.2167 -0.0217
  729MOL0     O96120   7.634   8.404   8.467  0.1914 -0.1882  0.1513
  729MOL0     C96121   7.655   8.411   8.597 -0.0525  0.1108 -0.3409
  729MOL0     C96122   7.666   8.528   8.660  0.3573  0.2781  1.2186
  729MOL0     C96123   7.702   8.535   8.799  0.9316 -0.0208  0.7554
  729MOL0     C96124   7.719   8.416   8.877  1.3481 -0.1868 -0.0552
  729MOL0     C96125   7.769   8.420   9.012  0.7169  0.7654  0.0217
  729MOL0     O96126   7.782   8.301   9.071 -0.0577  0.3603 -0.4474
  729MOL0     C96127   7.827   8.286   9.197  0.0774 -0.8538 -0.2927
  729MOL0     C96128   7.953   8.346   9.235 -0.9946  0.9838  0.3053
  729MOL0     C96129   8.003   8.329   9.366 -0.1724  0.8356 -1.0987
  729MOL0     C96130   7.914   8.281   9.460 -0.3468  0.0536 -0.4067
  729MOL0     O96131   7.934   8.259   9.594  0.6084  0.4321 -0.8621
  729MOL0     C96132   8.069   8.276   9.653  0.4820 -0.4953  0.1713
  729MOL0     C96133   8.103   8.420   9.670  0.1496 -0.2367 -0.3076
  729MOL0     C96134   8.249   8.437   9.703  0.8014  0.2090  0.3380
  729MOL0     C96135   8.291   8.580   9.705 -0.4177 -0.3085 -0.4561
  729MOL0     C96136   8.432   8.607   9.756 -0.2099  0.3929 -0.1100
  729MOL0     C96137   8.449   8.586   9.907  0.0446 -0.3438 -0.3580
  729MOL0     C96138   8.406   8.718   9.980  0.3279 -0.2866 -0.9286
  729MOL0     C96139   8.385   8.691  10.128  0.0836 -0.1970 -0.1818
  729MOL0    Cl96140   8.537   8.632  10.197  0.0749 -0.1916 -0.0739
  729MOL0     C96141   7.790   8.224   9.423 -0.7293 -1.1974  0.1956
  729MOL0     C96142   7.752   8.216   9.293  0.0606  0.8713  0.0031
  729MOL0     O96143   7.816   8.523   9.063 -0.4573  0.1374 -0.1696
  729MOL0     C96144   7.703   8.295   8.812  0.2191 -0.2102  0.7660
  729MOL0     C96145   7.670   8.289   8.673  0.8554 -0.6665 -0.5723
  729MOL0     N96146   7.551   8.964   8.310  1.1498  0.7094  0.3621
  729MOL0     N96147   7.501   9.063   8.374  0.0159  0.2055  0.2519
  729MOL0     C96148   6.896   8.970   7.895 -0.3899  0.2718 -1.2249
  729MOL0     C96149   6.869   8.847   7.832 -0.0032  0.1690  0.4352
  729MOL0     C96150   7.008   8.420   7.669 -0.7325 -0.1052 -0.2216
  729MOL0     C96151   6.976   8.473   7.533 -0.3459 -0.2207  0.0531
  729MOL0     C96152   6.973   8.370   7.429 -0.2880 -0.2867 -0.4592
  729MOL0     C96153   7.006   8.233   7.460  1.1209  1.2776 -0.5888
  729MOL0     O96154   6.984   8.123   7.378 -0.6372 -0.0644  0.1156
  729MOL0     C96155   7.070   8.096   7.268 -0.6444 -0.4323 -0.1367
  729MOL0     C96156   7.195   8.033   7.316 -0.0855 -0.3627  0.0591
  729MOL0     C96157   7.281   7.974   7.198  0.3683  0.3762 -0.4957
  729MOL0     C96158   7.388   7.876   7.248  0.1195  0.2162 -0.3198
  729MOL0     C96159   7.336   7.748   7.299  0.1433  0.0149  0.4134
  729MOL0     C96160   7.287   7.640   7.343  0.2621  0.3021 -0.6601
  729MOL0     C96161   7.060   8.199   7.582  0.5898  0.9707  0.0029
  729MOL0     C96162   7.061   8.288   7.686 -0.5573 -1.4782 -0.1501
  729MOL0     H96163   7.155   8.690   7.911  1.1869  0.4739  2.2708
  729MOL0     H96164   7.197   8.894   8.039 -3.2656 -1.4438  4.1047
  729MOL0     H96165   6.921   9.065   8.182  0.1049  2.1065  2.8667
  729MOL0     H96166   6.860   9.185   8.067 -1.7265 -3.3064  1.3247
  729MOL0     H96167   6.912   9.317   8.265  0.2302 -1.8841 -0.1123
  729MOL0     H96168   7.048   9.334   8.146  0.9269 -0.6769 -0.6565
  729MOL0     H96169   7.179   9.178   8.275  0.2198 -0.0249  1.0020
  729MOL0     H96170   7.050   9.164   8.403  0.4746 -1.4411 -0.7012
  729MOL0     H96171   7.239   9.371   8.340 -2.9392 -1.0277 -1.5853
  729MOL0     H96172   7.091   9.439   8.400 -0.0775  1.1122 -2.0913
  729MOL0     H96173   7.122   9.293   8.612  0.7452  0.3407  1.1578
  729MOL0     H96174   7.242   9.422   8.575  1.1311 -0.8696 -0.7261
  729MOL0     H96175   7.288   9.128   8.508 -1.8434  1.7271 -1.4952
  729MOL0     H96176   7.332   9.196   8.660  1.0985  1.7130 -0.0352
  729MOL0     H96177   7.458   9.307   8.409 -0.4553  0.6507  0.6365
  729MOL0     H96178   7.474   9.394   8.543 -1.7287  2.3912 -6.2058
  729MOL0     H96179   7.575   9.179   8.672 -0.5816 -0.3005  0.3878
  729MOL0     H96180   7.671   9.262   8.557  0.9489 -0.2061  2.5463
  729MOL0     H96181   7.758   8.991   8.561  1.5205  0.4527 -1.0991
  729MOL0     H96182   7.810   8.770   8.423  1.7810 -3.9324 -2.6213
  729MOL0     H96183   7.799   8.821   8.254  0.5698 -0.7959 -0.4470
  729MOL0     H96184   7.590   8.724   8.234  0.7419  0.1981 -1.5067
  729MOL0     H96185   7.589   8.660   8.400 -1.3180 -0.1828 -0.6219
  729MOL0     H96186   7.632   8.500   8.199  0.5368  0.4497  0.1288
  729MOL0     H96187   7.799   8.569   8.208 -0.8178  1.5227 -1.4473
  729MOL0     H96188   7.825   8.477   8.437  1.3557  0.6775 -2.1544
  729MOL0     H96189   7.798   8.355   8.333 -1.0343  0.0647 -0.9675
  729MOL0     H96190   7.653   8.623   8.611 -2.2591 -0.7330 -0.2830
  729MOL0     H96191   7.730   8.635   8.833 -0.0407  0.9370 -1.0761
  729MOL0     H96192   8.017   8.408   9.173  1.3782  1.3475  2.9308
  729MOL0     H96193   8.107   8.349   9.389 -0.2725  1.5972 -1.2996
  729MOL0     H96194   8.143   8.218   9.597 -2.0171 -1.5925 -2.2715
  729MOL0     H96195   8.068   8.231   9.753 -0.5910  1.0343  0.8948
  729MOL0     H96196   8.050   8.469   9.753 -0.6672  1.7114 -1.9028
  729MOL0     H96197   8.087   8.477   9.578  0.1666 -0.1343 -0.2461
  729MOL0     H96198   8.313   8.382   9.634 -1.0177 -0.6809 -0.7051
  729MOL0     H96199   8.253   8.393   9.803 -6.1174  1.0219  1.5228
  729MOL0     H96200   8.281   8.618   9.603 -0.2916  1.8355  0.2821
  729MOL0     H96201   8.225   8.647   9.760  1.2164  1.6270 -0.7430
  729MOL0     H96202   8.473   8.704   9.731  1.7004  0.8999  4.0693
  729MOL0     H96203   8.486   8.527   9.705  0.0277  0.1353  0.5260
  729MOL0     H96204   8.551   8.554   9.928 -0.7886 -0.7420  3.8150
  729MOL0     H96205   8.385   8.500   9.931 -0.2656 -0.6460 -2.0817
  729MOL0     H96206   8.478   8.799   9.963  1.4973 -1.4184 -1.5481
  729MOL0     H96207   8.311   8.754   9.940 -0.3668  3.3435  3.1829
  729MOL0     H96208   8.307   8.615  10.133 -2.0534  1.9432  0.8000
  729MOL0     H96209   8.346   8.774  10.188  0.5238 -0.4168  0.4183
  729MOL0     H96210   7.740   8.175   9.505  0.9344 -0.6796  1.5975
  729MOL0     H96211   7.655   8.176   9.264  0.3611 -2.4777  2.8645
  729MOL0     H96212   7.710   8.195   8.853 -3.3386 -0.5182  0.9445
  729MOL0     H96213   7.664   8.199   8.612  0.8854 -0.6040 -0.6670
  729MOL0     H96214   6.830   9.055   7.878 -0.3747  1.2961  2.6876
  729MOL0     H96215   6.784   8.825   7.768  0.1861  3.9438 -1.3673
  729MOL0     H96216   6.940   8.574   7.523  2.8675  0.8112 -2.9544
  729MOL0     H96217   6.932   8.391   7.331  0.8783 -0.1765 -0.9409
  729MOL0     H96218   7.093   8.185   7.208  1.0802 -2.2248 -2.3384
  729MOL0     H96219   7.021   8.028   7.197 -0.5126 -0.5790 -0.0894
  729MOL0     H96220   7.258   8.106   7.368  0.6475  2.4645 -4.2689
  729MOL0     H96221   7.176   7.964   7.399 -2.7750 -2.2487 -1.9364
  729MOL0     H96222   7.326   8.059   7.147 -0.4820  1.8744  1.1383
  729MOL0     H96223   7.212   7.921   7.131  2.0305 -3.2194  0.3720
  729MOL0     H96224   7.471   7.852   7.180  0.9274  1.5595  0.1598
  729MOL0     H96225   7.429   7.923   7.337  1.9039  0.6874 -1.3294
  729MOL0     H96226   7.257   7.551   7.394  0.4479  0.1902 -0.7456
  729MOL0     H96227   7.080   8.095   7.605 -0.0606  1.1845  1.7295
  729MOL0     H96228   7.096   8.263   7.786 -1.1702 -0.4628  0.3246
  730MOL0     O96229   8.221   4.844   8.984 -0.1830 -0.4327  0.4964
  730MOL0     C96230   8.325   4.864   9.043 -0.3720 -0.3585 -0.3354
  730MOL0     O96231   8.336   4.957   9.141 -1.5089  0.1731 -0.2923
  730MOL0     C96232   8.243   5.059   9.165 -0.6473 -0.2098  1.1626
  730MOL0     C96233   8.134   5.098   9.079 -0.0971  0.2164 -0.2720
  730MOL0     C96234   8.065   5.220   9.106  0.4412  0.5137 -0.1786
  730MOL0     C96235   8.101   5.298   9.216  0.3193  0.3216 -0.5308
  730MOL0     O96236   8.053   5.423   9.242 -1.0492 -0.3892  0.0062
  730MOL0     C96237   7.910   5.448   9.199 -0.9590 -0.1101  0.1709
  730MOL0     C96238   7.873   5.582   9.245  1.0632  0.0677  0.6216
  730MOL0     C96239   7.932   5.707   9.168 -0.7432  0.0836 -0.1890
  730MOL0     C96240   7.846   5.835   9.195  0.2514  0.9550  0.6379
  730MOL0     C96241   7.745   5.868   9.088 -0.1989 -0.3277 -0.2456
  730MOL0     C96242   7.655   5.990   9.132  0.9802 -0.1762  0.6630
  730MOL0     C96243   7.740   6.120   9.140 -0.1315 -0.7254  0.4452
  730MOL0     C96244   7.658   6.249   9.152 -0.4893  0.0836 -1.0614
  730MOL0     N96245   7.738   6.364   9.170  0.5449 -0.6343 -0.4629
  730MOL0     C96246   7.855   6.390   9.104  0.0910 -0.3175  0.4989
  730MOL0     C96247   7.901   6.518   9.138 -0.7819 -0.2424 -0.5397
  730MOL0     C96248   8.026   6.598   9.091 -0.8828 -0.6132 -0.5096
  730MOL0     C96249   8.046   6.737   9.147 -0.0450  0.9359 -0.0238
  730MOL0     C96250   8.065   6.740   9.296  0.1295  0.3435 -0.8201
  730MOL0     C96251   8.188   6.662   9.351 -0.5710  0.2523 -0.0536
  730MOL0     O96252   8.306   6.736   9.319 -0.1149 -0.0180  0.3943
  730MOL0     C96253   8.363   6.830   9.405  0.3180  0.0543  0.0309
  730MOL0     C96254   8.417   6.939   9.341 -0.0817  0.4968 -0.7406
  730MOL0     C96255   8.486   7.028   9.417 -0.8128 -0.1113  0.6492
  730MOL0     C96256   8.511   7.015   9.555 -0.7023  0.5104 -0.9034
  730MOL0     C96257   8.585   7.121   9.632 -0.1712 -0.6983 -0.0898
  730MOL0     O96258   8.600   7.096   9.760 -0.3598 -0.5337  0.0090
  730MOL0     C96259   8.661   7.189   9.833  0.3243 -0.6977 -0.0420
  730MOL0     C96260   8.574   7.230   9.939 -0.3808  0.3237 -1.1225
  730MOL0     C96261   8.609   7.331  10.026  0.2493 -0.4839  0.4245
  730MOL0     C96262   8.726   7.405  10.018  0.2232 -0.1408  0.0547
  730MOL0     O96263   8.762   7.513  10.098  0.0142 -0.3695  0.2243
  730MOL0     C96264   8.665   7.555  10.195 -0.3123 -0.5147 -0.5202
  730MOL0     C96265   8.710   7.690  10.252  0.3847 -0.1514  0.6125
  730MOL0     C96266   8.642   7.728  10.387 -0.1320  0.1019 -0.9380
  730MOL0     C96267   8.489   7.739  10.376  1.0824  0.4598 -1.5005
  730MOL0     C96268   8.446   7.731  10.520 -0.2714  0.1602  0.3101
  730MOL0     C96269   8.300   7.730  10.537  0.1748  1.2332  0.5508
  730MOL0     C96270   8.225   7.829  10.447 -0.0116 -0.2172  0.0660
  730MOL0     C96271   8.085   7.865  10.497 -0.3090 -0.2573  0.1181
  730MOL0    Cl96272   7.997   7.942  10.366 -0.1264 -0.2760  0.2694
  730MOL0     C96273   8.815   7.364   9.920 -0.3368  0.8286 -0.7145
  730MOL0     C96274   8.790   7.249   9.833  0.4272  0.8244 -0.1749
  730MOL0     O96275   8.629   7.216   9.570 -0.4922 -0.0928  0.1285
  730MOL0     C96276   8.450   6.903   9.624  0.1374  0.9909 -0.1188
  730MOL0     C96277   8.366   6.810   9.546 -0.4130 -1.6371  0.3630
  730MOL0     N96278   7.798   6.575   9.213 -0.0842  0.9254 -0.1576
  730MOL0     N96279   7.705   6.484   9.233  0.0805 -0.3796  0.1603
  730MOL0     C96280   8.200   5.244   9.304  0.1172 -0.6123 -0.4803
  730MOL0     C96281   8.275   5.132   9.277  0.2379 -0.0918  1.1564
  730MOL0     C96282   8.449   4.796   9.011 -0.8916  0.5527 -0.1614
  730MOL0     C96283   8.446   4.673   8.950  0.8132 -0.3999  0.5175
  730MOL0     C96284   8.562   4.602   8.935 -1.1744  0.8575  0.2136
  730MOL0     C96285   8.687   4.658   8.959 -0.8419 -0.5961 -0.0340
  730MOL0     O96286   8.809   4.588   8.947 -0.2432 -0.8740 -0.1566
  730MOL0     C96287   8.817   4.451   8.969  0.8804  0.3528 -0.0372
  730MOL0     C96288   8.959   4.413   9.004 -0.1514  0.6603  0.0455
  730MOL0     C96289   9.042   4.401   8.877  0.9944 -0.9559  0.6118
  730MOL0     C96290   9.103   4.257   8.863  0.1644  1.3258 -0.8505
  730MOL0     C96291   8.998   4.158   8.837  1.1497  1.0040  1.1832
  730MOL0     C96292   8.910   4.087   8.814  0.8205 -0.3106 -0.2009
  730MOL0     C96293   8.689   4.769   9.028 -1.7771 -0.9462 -0.1465
  730MOL0     C96294   8.575   4.845   9.050 -0.1474 -0.3494  0.5890
  730MOL0     H96295   8.099   5.039   8.995 -0.0919 -0.8513  0.4548
  730MOL0     H96296   8.007   5.257   9.022 -0.7001  0.1399  0.4273
  730MOL0     H96297   7.846   5.369   9.239 -2.0139  1.5874  2.0657
  730MOL0     H96298   7.906   5.445   9.090  2.0043 -1.5003  0.0170
  730MOL0     H96299   7.895   5.592   9.352 -1.1483 -0.8945  1.2121
  730MOL0     H96300   7.764   5.587   9.247  1.1037  0.9261  2.2193
  730MOL0     H96301   7.926   5.682   9.061 -0.1471 -1.6742  0.1486
  730MOL0     H96302   8.039   5.716   9.187 -1.0769  3.4979  0.6189
  730MOL0     H96303   7.804   5.835   9.296 -0.6683 -0.7882  0.2833
  730MOL0     H96304   7.917   5.919   9.201  3.0187 -1.2475  0.5480
  730MOL0     H96305   7.679   5.782   9.075 -3.0469  0.1938  6.5287
  730MOL0     H96306   7.790   5.876   8.989 -0.5113 -1.8534 -0.5423
  730MOL0     H96307   7.584   5.975   9.214 -2.2602 -4.0274 -2.4306
  730MOL0     H96308   7.574   6.004   9.060  0.3659 -1.2484  1.1151
  730MOL0     H96309   7.805   6.108   9.228  0.9505 -0.6241 -0.3203
  730MOL0     H96310   7.810   6.125   9.056  0.4564  0.9099  0.9983
  730MOL0     H96311   7.594   6.238   9.240 -0.2315  0.9810 -0.7606
  730MOL0     H96312   7.589   6.269   9.069  0.6961  2.4960 -1.5472
  730MOL0     H96313   7.892   6.334   9.018  0.8418  1.2258 -0.2246
  730MOL0     H96314   8.022   6.608   8.983  1.9313 -0.7058 -0.6946
  730MOL0     H96315   8.118   6.539   9.097  0.3504  0.8238 -3.4346
  730MOL0     H96316   7.959   6.803   9.135  0.0699  1.3330  1.1887
  730MOL0     H96317   8.134   6.778   9.095  1.2298 -1.0153  0.5098
  730MOL0     H96318   8.081   6.843   9.328 -0.0736 -0.2113  1.1655
  730MOL0     H96319   7.972   6.728   9.352 -0.6070 -0.9497 -2.2368
  730MOL0     H96320   8.191   6.566   9.299 -0.6757  1.2856 -2.0675
  730MOL0     H96321   8.177   6.628   9.454 -3.3807  1.4030  0.1095
  730MOL0     H96322   8.407   6.949   9.233 -1.4711 -0.3521 -0.7152
  730MOL0     H96323   8.530   7.113   9.365  0.5360 -1.8549 -1.2578
  730MOL0     H96324   8.477   7.182   9.953 -1.0880  1.9262 -0.3350
  730MOL0     H96325   8.536   7.348  10.105 -1.0522  0.4517 -0.9122
  730MOL0     H96326   8.644   7.486  10.276  0.2634  1.1392  1.1164
  730MOL0     H96327   8.571   7.576  10.144 -0.0709  1.3332 -0.2887
  730MOL0     H96328   8.674   7.766  10.182  0.0686  0.8200  1.8001
  730MOL0     H96329   8.820   7.688  10.254  0.4041 -1.5025 -0.3226
  730MOL0     H96330   8.687   7.824  10.413 -1.7003  1.1117 -1.7955
  730MOL0     H96331   8.682   7.658  10.462  0.2388  1.4680  0.1690
  730MOL0     H96332   8.466   7.834  10.327  1.3131  1.2143 -0.1848
  730MOL0     H96333   8.465   7.647  10.322  1.7386  0.6452 -2.1254
  730MOL0     H96334   8.489   7.822  10.563 -2.1501  2.2271 -1.9128
  730MOL0     H96335   8.489   7.645  10.573  1.7578  0.4651 -0.7354
  730MOL0     H96336   8.283   7.769  10.638 -1.0930  3.4824 -0.4333
  730MOL0     H96337   8.254   7.631  10.534  2.7784 -0.3117  4.2304
  730MOL0     H96338   8.277   7.925  10.441 -0.7343  0.2352  0.8492
  730MOL0     H96339   8.215   7.784  10.347 -1.6739 -3.2358  1.4306
  730MOL0     H96340   8.095   7.939  10.576  2.4628 -0.9391  0.5262
  730MOL0     H96341   8.031   7.776  10.532  2.2369 -1.5561  0.9862
  730MOL0     H96342   8.914   7.406   9.907 -0.7174  2.3826  0.8825
  730MOL0     H96343   8.853   7.225   9.749 -0.6835 -0.0309 -0.7903
  730MOL0     H96344   8.421   6.899   9.728 -3.3264 -1.5576 -1.0088
  730MOL0     H96345   8.309   6.732   9.595 -0.9533  0.4290  3.2335
  730MOL0     H96346   8.226   5.314   9.383  0.1909 -2.5497  1.3161
  730MOL0     H96347   8.356   5.109   9.345  1.4176 -0.7454 -0.3886
  730MOL0     H96348   8.351   4.627   8.928  0.0425 -0.3254  3.2739
  730MOL0     H96349   8.566   4.503   8.891  2.9709  2.8883 -5.1249
  730MOL0     H96350   8.787   4.393   8.881  3.6079  2.8794 -2.8989
  730MOL0     H96351   8.752   4.426   9.052  1.2382  0.5549  0.3075
  730MOL0     H96352   8.992   4.497   9.066 -0.8288 -0.1968  1.6409
  730MOL0     H96353   8.961   4.320   9.062  2.3363 -0.7151 -2.0284
  730MOL0     H96354   9.117   4.481   8.887  0.2168  0.0417 -1.1332
  730MOL0     H96355   8.983   4.435   8.792  0.4242  0.6601  1.5990
  730MOL0     H96356   9.169   4.261   8.776  1.9657 -0.5629  0.3374
  730MOL0     H96357   9.161   4.223   8.948 -1.8021  0.0924  0.0593
  730MOL0     H96358   8.824   4.031   8.782 -1.6064  2.2867  1.2207
  730MOL0     H96359   8.779   4.823   9.054 -2.2596 -1.0544  1.8799
  730MOL0     H96360   8.597   4.928   9.117 -2.6508 -0.0852  1.2206
  731MOL0     O96361   5.146   5.174   1.631 -0.3615  0.0655 -0.2133
  731MOL0     C96362   5.201   5.170   1.519 -0.2790  0.0048  1.2083
  731MOL0     O96363   5.242   5.269   1.446  0.0772 -0.7762  0.0952
  731MOL0     C96364   5.262   5.383   1.517  1.3317 -0.6614 -0.0559
  731MOL0     C96365   5.197   5.499   1.487  0.4263  0.1431 -0.5178
  731MOL0     C96366   5.220   5.613   1.558 -0.1812 -0.5495  0.7074
  731MOL0     C96367   5.313   5.617   1.660  0.5790 -0.6113  0.1007
  731MOL0     O96368   5.324   5.746   1.712  0.3795 -0.3144  0.7647
  731MOL0     C96369   5.396   5.763   1.838  0.3170  0.1815  0.1831
  731MOL0     C96370   5.383   5.912   1.879  0.0073  0.4852  0.4482
  731MOL0     C96371   5.465   5.935   2.007  0.3854  0.2169 -0.7762
  731MOL0     C96372   5.371   5.917   2.129  0.2017 -0.8193  1.1368
  731MOL0     C96373   5.443   5.930   2.266 -0.5560  0.3631 -0.1551
  731MOL0     C96374   5.521   5.801   2.299 -0.8132 -0.1970 -0.6693
  731MOL0     C96375   5.426   5.703   2.381 -0.3772 -1.4060 -0.2280
  731MOL0     C96376   5.496   5.569   2.412 -0.4680  0.1542  0.2539
  731MOL0     N96377   5.483   5.482   2.295 -0.0924  0.7218 -0.1453
  731MOL0     C96378   5.368   5.438   2.231 -0.3297 -0.7135 -0.2130
  731MOL0     C96379   5.412   5.364   2.129  0.5895  0.4550 -0.6144
  731MOL0     C96380   5.339   5.299   2.014 -0.0183 -1.2734 -1.2766
  731MOL0     C96381   5.200   5.249   2.040  0.3043  1.1112 -1.1823
  731MOL0     C96382   5.215   5.106   2.101  0.1407  0.1625  0.7571
  731MOL0     C96383   5.090   5.016   2.087 -0.2178 -0.7951  0.5715
  731MOL0     O96384   5.111   4.889   2.145  0.3502 -0.7247 -0.3055
  731MOL0     C96385   5.055   4.783   2.091  1.0814  0.1858  0.1090
  731MOL0     C96386   5.065   4.664   2.163 -0.9100 -0.0202 -0.1723
  731MOL0     C96387   5.011   4.542   2.117  0.0672  0.0363 -0.1000
  731MOL0     C96388   4.942   4.544   1.989  0.1074  0.1167 -0.1838
  731MOL0     C96389   4.880   4.420   1.933 -0.6911 -0.5320 -1.5551
  731MOL0     O96390   4.914   4.373   1.812  0.2110  0.1557 -0.1686
  731MOL0     C96391   4.872   4.242   1.782  0.4019 -1.2622 -0.0004
  731MOL0     C96392   4.904   4.124   1.856  0.3289 -0.0848 -0.5559
  731MOL0     C96393   4.849   4.006   1.816  0.3522  0.4265  0.5804
  731MOL0     C96394   4.774   3.991   1.701  1.1774 -0.1785 -1.0547
  731MOL0     O96395   4.740   3.869   1.641 -0.3255  0.1376 -0.0941
  731MOL0     C96396   4.827   3.752   1.648  0.3760  0.1226  0.0867
  731MOL0     C96397   4.784   3.675   1.517 -0.7072  0.7707  0.3166
  731MOL0     C96398   4.846   3.529   1.523 -0.4164 -0.1631 -0.2860
  731MOL0     C96399   4.786   3.446   1.414 -0.1848 -0.1128  0.0755
  731MOL0     C96400   4.827   3.311   1.427  0.2516  0.0490  0.6372
  731MOL0     C96401   4.727   3.199   1.390 -0.5278 -0.2016  0.8425
  731MOL0     C96402   4.811   3.066   1.387 -0.5303  0.3746  0.7105
  731MOL0     C96403   4.719   2.944   1.351  0.4250 -0.2832  0.3038
  731MOL0    Cl96404   4.810   2.797   1.392 -0.2359 -0.1440 -0.2686
  731MOL0     C96405   4.737   4.110   1.640  0.3248 -0.9019  0.7467
  731MOL0     C96406   4.786   4.237   1.672 -1.8863  0.2550  0.4304
  731MOL0     O96407   4.824   4.361   2.027  0.2262  0.4390 -0.4755
  731MOL0     C96408   4.934   4.664   1.912 -0.0927  0.0553  0.4550
  731MOL0     C96409   4.982   4.779   1.971  0.8049 -0.8709 -0.0942
  731MOL0     N96410   5.545   5.374   2.112  0.7533 -0.5355  0.4057
  731MOL0     N96411   5.588   5.441   2.214  0.5324  0.9471 -0.3625
  731MOL0     C96412   5.363   5.499   1.695  0.6635  0.6128 -0.3946
  731MOL0     C96413   5.338   5.383   1.626 -0.4250 -0.7145  0.0946
  731MOL0     C96414   5.202   5.036   1.454  0.5240  1.1711 -0.4689
  731MOL0     C96415   5.268   5.023   1.328 -0.4760  0.1860 -1.0709
  731MOL0     C96416   5.255   4.904   1.259 -0.6212 -0.6672 -0.2226
  731MOL0     C96417   5.183   4.800   1.303 -0.7367  0.9701 -0.3798
  731MOL0     O96418   5.190   4.681   1.227 -0.3820  0.1357 -0.3020
  731MOL0     C96419   5.102   4.581   1.264  0.2090  0.0023 -0.1645
  731MOL0     C96420   5.159   4.490   1.369  0.0992  0.3049  0.5862
  731MOL0     C96421   5.071   4.374   1.401  0.4879  0.4190 -0.5116
  731MOL0     C96422   5.143   4.251   1.471 -0.0451 -0.1084  0.0391
  731MOL0     C96423   5.069   4.127   1.477  0.0483  0.8861  0.3002
  731MOL0     C96424   5.018   4.017   1.488  0.1880 -0.0693  0.0213
  731MOL0     C96425   5.109   4.807   1.424 -0.1258 -0.6523 -0.5282
  731MOL0     C96426   5.118   4.927   1.498  0.8020 -0.6201  0.7931
  731MOL0     H96427   5.154   5.483   1.388  2.9336 -1.4165 -1.4640
  731MOL0     H96428   5.167   5.706   1.543 -0.6967 -0.6920  1.5715
  731MOL0     H96429   5.497   5.722   1.829  0.5365  0.6108  0.6100
  731MOL0     H96430   5.353   5.704   1.920  2.4848 -0.1042  1.1686
  731MOL0     H96431   5.279   5.945   1.874  0.8176  3.0963 -1.3132
  731MOL0     H96432   5.432   5.977   1.806 -2.3852  3.1639  1.0350
  731MOL0     H96433   5.511   6.034   2.001 -1.1903  0.9884 -0.6999
  731MOL0     H96434   5.546   5.862   2.007 -0.9214 -1.2932 -0.3257
  731MOL0     H96435   5.307   6.006   2.130  1.6986  0.5444 -2.9266
  731MOL0     H96436   5.322   5.820   2.123  1.8638 -1.7535 -5.5139
  731MOL0     H96437   5.371   5.945   2.348 -0.5075  1.4058 -0.2840
  731MOL0     H96438   5.504   6.020   2.277  1.3784 -1.0482  1.2711
  731MOL0     H96439   5.596   5.827   2.375 -1.4210 -0.7816  0.1408
  731MOL0     H96440   5.563   5.750   2.213  2.3118  1.1033 -0.0758
  731MOL0     H96441   5.408   5.751   2.478  0.7326 -0.4340 -0.4803
  731MOL0     H96442   5.332   5.682   2.330 -2.3573  1.9837  1.6125
  731MOL0     H96443   5.451   5.524   2.501  2.7024 -2.0506  0.9032
  731MOL0     H96444   5.601   5.582   2.438  0.3129  0.0069 -2.5431
  731MOL0     H96445   5.264   5.464   2.248 -1.4068 -2.8808 -2.7123
  731MOL0     H96446   5.389   5.222   1.955  2.7104 -1.0623  0.5562
  731MOL0     H96447   5.326   5.388   1.952 -2.7192  0.0386  0.9067
  731MOL0     H96448   5.151   5.256   1.942 -0.4927  0.0278 -0.8775
  731MOL0     H96449   5.147   5.320   2.103 -1.9949 -0.0231 -1.7318
  731MOL0     H96450   5.293   5.046   2.054  2.3674  1.9557  1.9879
  731MOL0     H96451   5.250   5.116   2.204 -2.1085 -0.7869  1.6949
  731MOL0     H96452   5.053   5.013   1.984  0.9350  0.6726  0.0751
  731MOL0     H96453   5.008   5.059   2.145  1.2727  1.5067  1.0985
  731MOL0     H96454   5.119   4.660   2.257  2.1998  0.2417 -1.8099
  731MOL0     H96455   5.018   4.449   2.173  0.1130  0.9652  1.5064
  731MOL0     H96456   4.964   4.121   1.946  1.3286 -0.0129 -1.2025
  731MOL0     H96457   4.868   3.918   1.878 -0.8286 -0.5386 -0.3800
  731MOL0     H96458   4.799   3.697   1.738 -1.7322  0.8735 -0.0471
  731MOL0     H96459   4.935   3.760   1.659  0.4997  0.4340 -1.1468
  731MOL0     H96460   4.824   3.733   1.433  0.0643 -1.5718 -1.0217
  731MOL0     H96461   4.675   3.670   1.514 -1.0040  1.1174  4.3851
  731MOL0     H96462   4.795   3.479   1.606 -0.4899 -1.1750 -0.9219
  731MOL0     H96463   4.952   3.513   1.539 -1.0555 -1.2181  4.1771
  731MOL0     H96464   4.677   3.436   1.425 -0.8057  2.0901 -2.7401
  731MOL0     H96465   4.810   3.494   1.318  3.3729 -0.6233  0.6008
  731MOL0     H96466   4.850   3.290   1.532  2.2104 -1.4396 -0.0197
  731MOL0     H96467   4.924   3.309   1.376 -1.2862  0.0241 -2.5444
  731MOL0     H96468   4.686   3.221   1.291  1.6228  2.0815  0.3577
  731MOL0     H96469   4.639   3.188   1.454 -0.6254 -1.9896  0.4551
  731MOL0     H96470   4.878   3.085   1.302 -1.2025  3.4609  0.7534
  731MOL0     H96471   4.873   3.052   1.476  0.6630  1.2531  0.0342
  731MOL0     H96472   4.696   2.937   1.245 -0.3975  0.7946  0.3895
  731MOL0     H96473   4.626   2.943   1.409  1.5581  0.9434  2.2548
  731MOL0     H96474   4.672   4.088   1.556  3.3617 -1.4201 -1.6957
  731MOL0     H96475   4.759   4.327   1.619 -0.0743  0.0906 -0.8843
  731MOL0     H96476   4.894   4.653   1.812  1.6246  2.4039 -0.5639
  731MOL0     H96477   4.960   4.866   1.910  0.3594  0.6959  2.1650
  731MOL0     H96478   5.432   5.507   1.778  0.4250  0.0931 -0.1410
  731MOL0     H96479   5.382   5.290   1.661  2.1702  1.1351  2.2089
  731MOL0     H96480   5.334   5.105   1.301  0.2416 -0.6400 -1.8921
  731MOL0     H96481   5.335   4.899   1.186  1.0565  3.4607  1.0470
  731MOL0     H96482   5.081   4.521   1.175  1.6630 -1.3819  0.3831
  731MOL0     H96483   5.003   4.613   1.295  0.0056  0.2725 -1.0616
  731MOL0     H96484   5.252   4.440   1.340  0.7669  1.5075  0.5694
  731MOL0     H96485   5.173   4.551   1.459 -1.9541  0.6352  0.7198
  731MOL0     H96486   5.016   4.342   1.312 -1.8100 -0.4092  1.1161
  731MOL0     H96487   4.993   4.407   1.471  1.0443 -0.2505  0.4520
  731MOL0     H96488   5.239   4.238   1.420  1.1929 -3.4328  2.8084
  731MOL0     H96489   5.169   4.279   1.574  2.2975 -0.6792 -0.3245
  731MOL0     H96490   4.959   3.927   1.488  1.7085 -1.1329 -1.9313
  731MOL0     H96491   5.042   4.731   1.464  1.4234 -0.9647  1.6108
  731MOL0     H96492   5.071   4.946   1.593  0.7827 -1.4404  0.9578
  732MOL0     O96493   6.313   5.902   2.977 -0.7131  0.1171 -0.7452
  732MOL0     C96494   6.282   5.813   2.903 -0.8669 -0.0957 -0.3727
  732MOL0     O96495   6.179   5.738   2.911 -0.3494 -0.0118  0.1664
  732MOL0     C96496   6.085   5.758   3.013  0.9045  0.5126 -0.4719
  732MOL0     C96497   6.035   5.885   3.047  0.7333 -0.4284  0.5046
  732MOL0     C96498   5.939   5.900   3.140  1.0158  1.1490 -0.5643
  732MOL0     C96499   5.878   5.796   3.210 -0.2268  0.0931 -0.2411
  732MOL0     O96500   5.777   5.825   3.298  0.9740  0.4395 -0.2724
  732MOL0     C96501   5.804   5.906   3.411  0.5046 -0.4938  0.6329
  732MOL0     C96502   5.908   5.840   3.504 -0.5036  0.7964 -0.6881
  732MOL0     C96503   5.883   5.694   3.543  0.3765 -0.8468  0.1815
  732MOL0     C96504   5.767   5.664   3.630  0.5398 -0.4165 -0.4395
  732MOL0     C96505   5.719   5.515   3.611 -0.0038  0.3444  0.4947
  732MOL0     C96506   5.588   5.476   3.698  0.0704 -1.1543  0.0157
  732MOL0     C96507   5.609   5.510   3.848 -0.2386  0.0357  0.5324
  732MOL0     C96508   5.464   5.478   3.907  0.0949 -0.2459  0.0859
  732MOL0     N96509   5.465   5.453   4.054  0.4267 -0.7028 -0.3860
  732MOL0     C96510   5.534   5.536   4.141  0.2427  0.6111 -0.2755
  732MOL0     C96511   5.523   5.479   4.267 -0.3693  0.3327  0.4083
  732MOL0     C96512   5.573   5.532   4.402 -0.4484  0.2664  0.4857
  732MOL0     C96513   5.531   5.672   4.431  0.0929 -0.6903 -0.5939
  732MOL0     C96514   5.401   5.695   4.503  0.6178 -0.5018 -0.2235
  732MOL0     C96515   5.283   5.664   4.403  0.4812 -0.7071 -0.2077
  732MOL0     O96516   5.308   5.723   4.265  0.1261  0.2068 -0.9534
  732MOL0     C96517   5.308   5.858   4.233  0.1219  0.3017  0.0819
  732MOL0     C96518   5.354   5.912   4.110  0.5415 -0.0510 -0.1759
  732MOL0     C96519   5.369   6.049   4.088  0.6113  0.5990 -0.1426
  732MOL0     C96520   5.311   6.142   4.167 -0.2719  0.4200 -0.7558
  732MOL0     C96521   5.303   6.281   4.141  1.2699 -0.1775  0.4464
  732MOL0     O96522   5.326   6.330   4.012 -0.0817  0.2277 -0.0794
  732MOL0     C96523   5.295   6.462   3.964  1.0931 -0.3964 -1.5992
  732MOL0     C96524   5.264   6.576   4.048 -0.1839  0.0340 -0.2568
  732MOL0     C96525   5.240   6.699   3.985 -0.5135 -0.4281 -0.7766
  732MOL0     C96526   5.247   6.723   3.850 -0.0333  0.3991  0.6247
  732MOL0     O96527   5.244   6.856   3.799  0.0939  0.4100 -0.3553
  732MOL0     C96528   5.142   6.866   3.690 -0.0991 -0.1473 -0.1566
  732MOL0     C96529   5.203   6.974   3.596 -0.7371  0.7520 -0.2331
  732MOL0     C96530   5.328   6.916   3.521 -0.5684  0.4211 -0.0695
  732MOL0     C96531   5.383   7.027   3.427  0.0849 -0.3195  0.6128
  732MOL0     C96532   5.278   7.054   3.315  0.0436  0.2422  0.0220
  732MOL0     C96533   5.355   7.087   3.187  0.9633 -0.7804  0.1026
  732MOL0     C96534   5.488   7.166   3.191  0.1556 -0.3002 -1.3406
  732MOL0     C96535   5.554   7.193   3.052 -0.1542 -0.1014 -0.0179
  732MOL0    Cl96536   5.567   7.028   2.957  0.0657 -0.4500  0.1021
  732MOL0     C96537   5.265   6.608   3.774 -1.3832 -0.3013  0.6857
  732MOL0     C96538   5.289   6.486   3.828 -1.6564 -0.5292  0.1810
  732MOL0     O96539   5.272   6.354   4.234 -1.1426  0.2297 -0.2058
  732MOL0     C96540   5.254   6.084   4.287  0.5508  0.3816 -0.0762
  732MOL0     C96541   5.253   5.949   4.321  0.4222 -0.4938  0.2539
  732MOL0     N96542   5.439   5.367   4.242 -0.3270  0.5506 -0.2201
  732MOL0     N96543   5.405   5.351   4.123  0.0868 -0.4947  0.1924
  732MOL0     C96544   5.916   5.661   3.170  0.2161 -0.2064 -0.4973
  732MOL0     C96545   6.011   5.649   3.062 -0.9466 -0.7418  0.1749
  732MOL0     C96546   6.359   5.808   2.772  0.1455  0.2785 -0.7805
  732MOL0     C96547   6.467   5.883   2.750 -0.5029 -0.6313 -0.6082
  732MOL0     C96548   6.540   5.891   2.637 -0.1686  0.9001 -0.0277
  732MOL0     C96549   6.484   5.807   2.531 -0.3114 -0.4165 -0.2774
  732MOL0     O96550   6.560   5.783   2.420 -0.2019  0.7384 -0.8320
  732MOL0     C96551   6.566   5.645   2.362  0.0216  0.6325 -1.3748
  732MOL0     C96552   6.678   5.575   2.442 -0.1774  0.3457  0.1299
  732MOL0     C96553   6.716   5.435   2.379  0.2798 -0.0547 -0.8890
  732MOL0     C96554   6.755   5.338   2.484 -0.4070  0.0688 -0.4428
  732MOL0     C96555   6.644   5.280   2.550  0.6559  1.2012  1.0824
  732MOL0     C96556   6.562   5.229   2.619  0.5828 -0.8608  0.1331
  732MOL0     C96557   6.374   5.721   2.551 -0.1064 -0.1500 -0.9844
  732MOL0     C96558   6.306   5.722   2.670  0.5733  0.5018 -0.4678
  732MOL0     H96559   6.067   5.980   3.006 -0.8695 -1.5323 -3.8756
  732MOL0     H96560   5.906   6.000   3.165  0.2431  0.2979  2.1687
  732MOL0     H96561   5.713   5.899   3.471  1.2738 -5.3112  1.6065
  732MOL0     H96562   5.802   6.015   3.397  0.4635 -0.4555  0.9201
  732MOL0     H96563   5.909   5.899   3.596 -0.3193 -0.0915 -0.1067
  732MOL0     H96564   6.012   5.835   3.470 -0.0324 -1.1616  0.8440
  732MOL0     H96565   5.967   5.640   3.589  0.1208 -2.8370 -1.5264
  732MOL0     H96566   5.870   5.635   3.452 -1.2643 -2.5630  1.4450
  732MOL0     H96567   5.809   5.657   3.731 -2.1766  0.8948  0.9069
  732MOL0     H96568   5.694   5.744   3.646  0.8793  0.0546 -1.1815
  732MOL0     H96569   5.803   5.451   3.638  0.6961  1.3478  0.7353
  732MOL0     H96570   5.704   5.508   3.503 -0.3914  1.0584  0.4946
  732MOL0     H96571   5.553   5.374   3.679  1.0087 -1.3300 -0.8338
  732MOL0     H96572   5.516   5.554   3.671  0.6797 -0.7402 -0.4316
  732MOL0     H96573   5.681   5.445   3.899  2.2909  2.7900  0.7778
  732MOL0     H96574   5.650   5.611   3.859  2.2453 -0.7596 -0.6921
  732MOL0     H96575   5.428   5.387   3.858 -0.6707  0.9096 -1.5676
  732MOL0     H96576   5.391   5.557   3.886 -0.5073 -0.5514  0.9803
  732MOL0     H96577   5.566   5.638   4.125  1.1667  0.0085 -2.6236
  732MOL0     H96578   5.682   5.526   4.385 -0.4215 -1.7393  1.1358
  732MOL0     H96579   5.552   5.466   4.486  0.4700  1.0500  1.3601
  732MOL0     H96580   5.527   5.734   4.341 -2.3732  1.6852  0.9785
  732MOL0     H96581   5.601   5.723   4.497 -0.6073 -2.1875  1.4179
  732MOL0     H96582   5.389   5.651   4.602 -0.0076  1.7787  0.8032
  732MOL0     H96583   5.400   5.800   4.535  2.8417 -0.5499  0.1396
  732MOL0     H96584   5.193   5.707   4.447  1.4526  1.5902 -0.3498
  732MOL0     H96585   5.285   5.555   4.394 -0.0229 -1.2532  4.1859
  732MOL0     H96586   5.397   5.842   4.039  1.9812  1.2955 -0.7018
  732MOL0     H96587   5.411   6.070   3.990 -2.0280  0.3995 -1.4163
  732MOL0     H96588   5.278   6.569   4.156  2.7579 -1.2853 -0.6205
  732MOL0     H96589   5.223   6.791   4.041 -4.0644 -0.8852 -0.9004
  732MOL0     H96590   5.045   6.900   3.728  0.6042  1.3396  0.4018
  732MOL0     H96591   5.138   6.772   3.635  0.9126 -0.0080 -0.4799
  732MOL0     H96592   5.239   7.054   3.661  3.3423  0.6542 -2.1044
  732MOL0     H96593   5.127   7.022   3.533 -1.4079  1.7875  1.3019
  732MOL0     H96594   5.303   6.823   3.470  2.0702 -1.3289  1.5817
  732MOL0     H96595   5.400   6.897   3.601 -2.1987  2.3872  2.0188
  732MOL0     H96596   5.413   7.124   3.468  4.3884 -1.0801 -0.2717
  732MOL0     H96597   5.475   6.989   3.382  0.6659  1.7899 -0.1033
  732MOL0     H96598   5.208   7.137   3.327  0.3136  0.3203  1.0982
  732MOL0     H96599   5.216   6.966   3.290 -0.1281  0.3914 -0.0797
  732MOL0     H96600   5.283   7.133   3.118 -0.2415 -0.8914  1.2383
  732MOL0     H96601   5.379   6.988   3.148  1.5516 -0.0583 -1.4194
  732MOL0     H96602   5.479   7.255   3.254  1.5427 -1.1667  0.1622
  732MOL0     H96603   5.566   7.111   3.246  2.2198 -0.1560 -3.9091
  732MOL0     H96604   5.654   7.232   3.071 -1.2460  2.2041  1.5460
  732MOL0     H96605   5.490   7.258   2.992 -1.5640 -0.0449  1.4642
  732MOL0     H96606   5.263   6.614   3.665 -1.9962 -0.7493  0.6693
  732MOL0     H96607   5.296   6.408   3.752  0.1200  0.5105 -0.7941
  732MOL0     H96608   5.196   6.143   4.358  0.7661 -1.0689  1.3517
  732MOL0     H96609   5.211   5.918   4.415 -2.6627  2.3842  0.0268
  732MOL0     H96610   5.868   5.571   3.206 -1.3702 -0.1852 -2.4216
  732MOL0     H96611   6.054   5.552   3.038  1.0659 -0.7239  3.0853
  732MOL0     H96612   6.487   5.955   2.830  1.8491  0.2607 -1.8714
  732MOL0     H96613   6.620   5.959   2.610  0.0029 -0.4158 -3.3496
  732MOL0     H96614   6.599   5.651   2.258 -0.8736  0.3620 -1.6794
  732MOL0     H96615   6.473   5.588   2.364  1.2639 -1.4747 -1.3937
  732MOL0     H96616   6.769   5.635   2.434 -0.8368  1.0906 -4.3833
  732MOL0     H96617   6.635   5.560   2.541  3.8627  2.3291  2.4432
  732MOL0     H96618   6.800   5.465   2.317  0.1280 -1.3865 -1.7693
  732MOL0     H96619   6.637   5.393   2.316 -2.0781  2.2950  0.2749
  732MOL0     H96620   6.799   5.259   2.422 -0.3286 -0.2583  0.0200
  732MOL0     H96621   6.835   5.376   2.548  1.7919 -2.6270 -1.3687
  732MOL0     H96622   6.506   5.181   2.697 -1.3416  0.1545 -0.5486
  732MOL0     H96623   6.343   5.648   2.477  0.2663 -2.9950  1.4696
  732MOL0     H96624   6.236   5.641   2.685  1.5363 -0.2884 -0.1698
  733MOL0     O96625   6.724  10.984   5.383 -0.3314  0.3004 -0.2627
  733MOL0     C96626   6.746  10.903   5.291  0.1690  0.1236 -0.5204
  733MOL0     O96627   6.855  10.901   5.221 -0.3499 -0.0328  0.3613
  733MOL0     C96628   6.930  11.020   5.208 -0.5294  1.3901 -0.3915
  733MOL0     C96629   7.066  11.012   5.208 -0.3567 -0.1615  0.1143
  733MOL0     C96630   7.147  11.121   5.176  0.5180 -0.1339  0.1030
  733MOL0     C96631   7.081  11.237   5.131 -0.1473  0.0249 -0.4003
  733MOL0     O96632   7.147  11.354   5.091 -0.0355 -0.0296 -0.6703
  733MOL0     C96633   7.278  11.338   5.024 -0.0758 -0.4646 -0.7760
  733MOL0     C96634   7.314  11.478   4.957 -0.0158  1.2844 -0.7311
  733MOL0     C96635   7.355  11.598   5.053 -0.8831  0.6192 -0.4181
  733MOL0     C96636   7.497  11.585   5.089 -0.0300  0.3695  0.0333
  733MOL0     C96637   7.541  11.687   5.198  0.1004 -0.1023  0.2552
  733MOL0     C96638   7.682  11.665   5.245  0.0776  1.0535  1.1421
  733MOL0     C96639   7.788  11.686   5.144 -0.2339  0.1778 -0.3334
  733MOL0     C96640   7.808  11.834   5.123 -0.7770 -0.1433  0.0471
  733MOL0     N96641   7.933  11.860   5.049  0.0513 -0.2015 -0.6771
  733MOL0     C96642   8.034  11.951   5.080 -0.0333 -0.7985  0.5642
  733MOL0     C96643   8.121  11.947   4.977  0.8544 -0.2235 -0.9441
  733MOL0     C96644   8.244  12.032   4.995  0.7154  0.4378 -0.1794
  733MOL0     C96645   8.213  12.172   4.938 -0.0346  0.6023 -0.2060
  733MOL0     C96646   8.329  12.271   4.963 -0.3734  0.8907 -0.1917
  733MOL0     C96647   8.325  12.341   5.097 -0.7065  0.9113  0.1306
  733MOL0     O96648   8.204  12.428   5.089 -0.0861  0.6096 -0.1624
  733MOL0     C96649   8.176  12.473   5.216 -0.6114  0.2749 -1.0894
  733MOL0     C96650   8.138  12.377   5.316  0.7592  0.2356  0.0271
  733MOL0     C96651   8.097  12.420   5.445 -1.2135 -0.5101  0.6295
  733MOL0     C96652   8.102  12.559   5.474 -0.5470  0.5125  0.1286
  733MOL0     C96653   8.063  12.606   5.611 -0.2028  0.7080 -0.4221
  733MOL0     O96654   8.041  12.739   5.626  0.7910  0.2568  0.1357
  733MOL0     C96655   8.016  12.787   5.750 -0.0800  0.7136  0.4352
  733MOL0     C96656   7.881  12.809   5.784 -0.2340  0.5279 -0.1923
  733MOL0     C96657   7.850  12.866   5.910  0.9025  0.5625  1.1921
  733MOL0     C96658   7.943  12.893   5.998  0.9239 -0.1468 -0.2859
  733MOL0     O96659   7.904  12.939   6.114  0.5511  0.0619 -0.2620
  733MOL0     C96660   7.993  12.933   6.217  0.3972 -0.0792 -0.9229
  733MOL0     C96661   7.910  12.913   6.342  0.1491 -0.5470  1.0033
  733MOL0     C96662   8.011  12.902   6.458 -0.3542 -0.1292 -0.2361
  733MOL0     C96663   8.063  12.765   6.491  0.0863  0.0336 -1.0171
  733MOL0     C96664   8.131  12.769   6.638  0.1127 -0.7272  0.4706
  733MOL0     C96665   8.151  12.625   6.688 -0.3486 -0.0747  0.9963
  733MOL0     C96666   8.240  12.636   6.806 -0.1979 -0.5061  0.3382
  733MOL0     C96667   8.280  12.501   6.873  0.4143 -0.1839 -0.4630
  733MOL0    Cl96668   8.129  12.432   6.940  0.2974  0.5649  0.4159
  733MOL0     C96669   8.088  12.880   5.961  0.2077  0.7120  0.4887
  733MOL0     C96670   8.121  12.823   5.832  0.2311 -0.2642 -0.2709
  733MOL0     O96671   8.077  12.530   5.700  0.5181 -0.5514 -0.4103
  733MOL0     C96672   8.135  12.663   5.366 -0.2292 -0.0084  1.4735
  733MOL0     C96673   8.173  12.615   5.239 -0.3645  0.1384  0.1137
  733MOL0     N96674   8.091  11.847   4.891 -0.2933  0.4320 -0.5353
  733MOL0     N96675   7.978  11.788   4.942 -0.0734 -0.1475 -0.0274
  733MOL0     C96676   6.946  11.245   5.138  0.0734  0.1945  0.2044
  733MOL0     C96677   6.867  11.137   5.171 -0.1814  0.2551  0.0908
  733MOL0     C96678   6.651  10.784   5.283  0.5843  0.6812 -0.8640
  733MOL0     C96679   6.675  10.689   5.178  0.1638  0.3243 -0.5692
  733MOL0     C96680   6.590  10.576   5.167 -0.2099  0.4201 -0.6998
  733MOL0     C96681   6.476  10.566   5.257 -0.7819 -1.1341  0.4341
  733MOL0     O96682   6.394  10.459   5.227  0.0637  0.6180  0.0250
  733MOL0     C96683   6.297  10.429   5.333 -0.8593  0.1640 -0.7977
  733MOL0     C96684   6.225  10.293   5.294  0.2313  0.4608  0.9754
  733MOL0     C96685   6.144  10.281   5.168  0.2790 -0.4944  0.4311
  733MOL0     C96686   6.075  10.142   5.154 -0.9144  0.0306 -0.3053
  733MOL0     C96687   6.160  10.029   5.172  0.3800  0.4929 -0.1361
  733MOL0     C96688   6.229   9.940   5.182  0.4780  0.5752 -0.7440
  733MOL0     C96689   6.451  10.663   5.354 -0.6661 -0.0707 -0.1169
  733MOL0     C96690   6.539  10.768   5.370  0.7678 -0.5596  0.6498
  733MOL0     H96691   7.106  10.915   5.237  1.6605 -1.3594 -5.4459
  733MOL0     H96692   7.254  11.122   5.195  0.7508  0.5016 -1.1363
  733MOL0     H96693   7.284  11.254   4.954 -1.4206 -0.5942 -0.7566
  733MOL0     H96694   7.345  11.310   5.106 -0.4097 -2.2037 -1.0437
  733MOL0     H96695   7.227  11.496   4.893 -2.5644  1.2911  2.4981
  733MOL0     H96696   7.396  11.475   4.885  3.1133  2.8207  2.4760
  733MOL0     H96697   7.287  11.583   5.137  0.1549 -1.9641  0.0661
  733MOL0     H96698   7.337  11.695   5.006  0.8300  1.9059  1.4085
  733MOL0     H96699   7.517  11.481   5.116  1.2623 -1.5695 -6.5600
  733MOL0     H96700   7.558  11.595   4.998 -1.0334  0.0519 -0.6980
  733MOL0     H96701   7.474  11.657   5.280  1.7409 -0.5482  1.4819
  733MOL0     H96702   7.519  11.790   5.168  3.9291  0.6588 -0.4182
  733MOL0     H96703   7.685  11.568   5.296 -0.3472  1.5120  2.0637
  733MOL0     H96704   7.707  11.734   5.326  1.7133  0.9434  0.7640
  733MOL0     H96705   7.876  11.638   5.186 -0.0084 -0.9641 -2.0234
  733MOL0     H96706   7.751  11.639   5.052 -1.3792  0.2711  0.0586
  733MOL0     H96707   7.824  11.883   5.220  0.2811  0.5380 -0.4483
  733MOL0     H96708   7.724  11.874   5.067 -1.4840 -1.4680  0.1385
  733MOL0     H96709   8.038  12.008   5.172 -2.9656  0.9622 -0.2711
  733MOL0     H96710   8.335  11.996   4.946 -0.3281  3.9318 -5.5547
  733MOL0     H96711   8.273  12.035   5.101 -1.5724  0.2886  0.4879
  733MOL0     H96712   8.121  12.214   4.979  0.6048 -1.4344  3.8823
  733MOL0     H96713   8.195  12.169   4.830 -2.6145 -2.2608  0.1349
  733MOL0     H96714   8.422  12.220   4.939 -1.8236 -0.9124 -2.4145
  733MOL0     H96715   8.321  12.351   4.889 -0.8511  0.7289 -0.3203
  733MOL0     H96716   8.413  12.405   5.111 -1.2363  1.2599  2.2205
  733MOL0     H96717   8.324  12.264   5.175  0.4372  0.0164 -0.7065
  733MOL0     H96718   8.133  12.272   5.289 -0.4651  0.3028 -0.0635
  733MOL0     H96719   8.066  12.349   5.521 -0.2864 -1.2387  0.3562
  733MOL0     H96720   7.814  12.786   5.701 -0.7454  0.1083  0.3307
  733MOL0     H96721   7.747  12.873   5.944 -0.5796 -3.0451 -1.7801
  733MOL0     H96722   8.066  13.014   6.211 -1.0325  1.6703  2.3443
  733MOL0     H96723   8.056  12.846   6.198  1.8110  1.6362 -5.0505
  733MOL0     H96724   7.848  12.824   6.328  0.5895 -0.7789  0.4534
  733MOL0     H96725   7.839  12.996   6.348 -1.1229 -1.4507 -0.5500
  733MOL0     H96726   7.949  12.931   6.543 -1.6700  0.2154 -1.2694
  733MOL0     H96727   8.086  12.981   6.452  0.2564 -0.3882  2.7231
  733MOL0     H96728   7.987  12.687   6.489  1.3100 -1.1816 -1.7657
  733MOL0     H96729   8.136  12.736   6.415 -0.4758  0.8695 -1.9049
  733MOL0     H96730   8.076  12.832   6.708  1.0438  1.4809 -0.7072
  733MOL0     H96731   8.217  12.834   6.621 -1.0505  0.5774 -0.6281
  733MOL0     H96732   8.168  12.557   6.604 -1.9198  1.3860 -0.6032
  733MOL0     H96733   8.056  12.579   6.717 -0.7487  0.2780  0.2742
  733MOL0     H96734   8.332  12.687   6.775 -1.0051  0.9009  0.1841
  733MOL0     H96735   8.190  12.709   6.870 -5.2683  0.0848 -3.6830
  733MOL0     H96736   8.360  12.512   6.946  3.0881  0.4568 -3.2416
  733MOL0     H96737   8.322  12.438   6.793  3.5890 -0.8267  1.5563
  733MOL0     H96738   8.171  12.912   6.022  1.6943 -1.6837 -0.1479
  733MOL0     H96739   8.224  12.814   5.798 -0.0745  1.0987 -1.6296
  733MOL0     H96740   8.130  12.770   5.378  0.7246  0.4417 -1.3601
  733MOL0     H96741   8.224  12.675   5.164 -1.3003 -0.2090 -0.8243
  733MOL0     H96742   6.897  11.338   5.113 -0.0241 -0.2540 -1.3821
  733MOL0     H96743   6.760  11.158   5.174 -0.9188 -3.0749  0.5834
  733MOL0     H96744   6.746  10.692   5.096 -1.6879  0.7186 -2.2333
  733MOL0     H96745   6.607  10.501   5.091 -0.3064  0.7000 -0.9989
  733MOL0     H96746   6.220  10.505   5.317 -1.0134 -0.1976 -1.8949
  733MOL0     H96747   6.335  10.433   5.435 -0.5319 -0.8678 -0.8566
  733MOL0     H96748   6.298  10.212   5.286  1.2607  1.4580 -0.1413
  733MOL0     H96749   6.149  10.270   5.370  0.1157 -0.8690  0.4683
  733MOL0     H96750   6.197  10.292   5.073 -2.9241  0.9344 -1.3466
  733MOL0     H96751   6.062  10.352   5.180  2.5720  2.3358  0.3465
  733MOL0     H96752   5.987  10.146   5.219  1.9233  2.6188  3.8182
  733MOL0     H96753   6.039  10.146   5.051 -2.1265 -0.5381  0.0863
  733MOL0     H96754   6.311   9.871   5.179 -0.0415 -0.1077  0.0872
  733MOL0     H96755   6.361  10.660   5.415 -0.7121 -3.2426 -0.1723
  733MOL0     H96756   6.512  10.850   5.437  0.1231 -0.1339 -0.1159
  734MOL0     O96757   9.231   7.322   9.122  1.2336 -0.0768 -0.0764
  734MOL0     C96758   9.262   7.342   9.236  0.3017 -1.2345  0.0687
  734MOL0     O96759   9.209   7.278   9.353  0.6876 -0.0567 -0.3263
  734MOL0     C96760   9.124   7.170   9.324  0.3560  0.4342 -0.1559
  734MOL0     C96761   9.164   7.069   9.236 -0.0422 -0.1537  0.2237
  734MOL0     C96762   9.072   6.959   9.210 -0.1608 -0.3609 -0.6512
  734MOL0     C96763   8.952   6.949   9.282  0.3588 -0.6188  1.4830
  734MOL0     O96764   8.870   6.842   9.250  0.8003  0.2932  0.0654
  734MOL0     C96765   8.733   6.880   9.228  0.3430 -0.5273 -0.0981
  734MOL0     C96766   8.670   6.844   9.095  0.2404 -1.0473 -0.3710
  734MOL0     C96767   8.679   6.699   9.059  0.6765 -0.2092  1.0582
  734MOL0     C96768   8.613   6.619   9.166  0.1559  0.2598  0.2105
  734MOL0     C96769   8.583   6.478   9.104  0.3192  0.4276 -0.1088
  734MOL0     C96770   8.479   6.408   9.194 -0.1226  0.2025 -0.1561
  734MOL0     C96771   8.436   6.275   9.138 -0.5101  0.2661  0.2957
  734MOL0     C96772   8.381   6.291   8.990 -0.8286 -0.3000 -0.8239
  734MOL0     N96773   8.341   6.155   8.952  0.6159 -0.2700 -0.8157
  734MOL0     C96774   8.401   6.082   8.854  1.0146  0.1806 -0.0624
  734MOL0     C96775   8.327   5.978   8.824  0.0675  0.6007 -0.9308
  734MOL0     C96776   8.367   5.868   8.727 -0.0897 -0.3951 -0.2504
  734MOL0     C96777   8.389   5.922   8.588 -0.3139  0.0062  1.1799
  734MOL0     C96778   8.260   6.004   8.551  0.7576 -0.2886  0.2990
  734MOL0     C96779   8.238   6.007   8.394  0.0749 -0.5148  0.5630
  734MOL0     O96780   8.117   6.075   8.362 -0.6476 -0.2968  0.6192
  734MOL0     C96781   8.003   5.995   8.346 -0.3858 -0.5170  0.3844
  734MOL0     C96782   7.899   6.070   8.300 -0.6819  0.3464 -1.4248
  734MOL0     C96783   7.767   6.015   8.313  0.1087  0.6686 -0.1799
  734MOL0     C96784   7.744   5.878   8.350  0.2967 -1.0394  0.3689
  734MOL0     C96785   7.612   5.818   8.364  0.1351  0.6993  0.4899
  734MOL0     O96786   7.600   5.680   8.330 -0.4452 -0.0832  0.4464
  734MOL0     C96787   7.482   5.606   8.331 -0.3702 -1.1272 -0.1853
  734MOL0     C96788   7.504   5.466   8.305 -0.4226 -0.3162 -0.5366
  734MOL0     C96789   7.394   5.380   8.285 -0.4349  1.0364 -0.7190
  734MOL0     C96790   7.270   5.424   8.320 -0.6232 -0.2642 -0.0551
  734MOL0     O96791   7.171   5.335   8.339  0.0567  0.2383 -0.5713
  734MOL0     C96792   7.093   5.309   8.223 -0.0749  0.1635  0.5256
  734MOL0     C96793   7.076   5.159   8.186  0.0938  0.0260 -0.1396
  734MOL0     C96794   7.029   5.062   8.302 -0.0793 -0.5703 -0.9074
  734MOL0     C96795   6.899   5.123   8.369 -0.0300 -0.9313 -0.3587
  734MOL0     C96796   6.776   5.124   8.276 -0.0114 -0.0175 -0.0122
  734MOL0     C96797   6.695   5.252   8.290 -0.2496 -0.3028  0.3406
  734MOL0     C96798   6.551   5.218   8.254 -0.1534  0.4152 -0.5936
  734MOL0     C96799   6.482   5.330   8.181 -0.3493 -0.8203  0.1933
  734MOL0    Cl96800   6.554   5.413   8.031  0.0313 -0.1496  0.2132
  734MOL0     C96801   7.243   5.557   8.343 -0.4909  0.0961 -1.7248
  734MOL0     C96802   7.349   5.650   8.339 -0.2968  0.8002  0.9380
  734MOL0     O96803   7.522   5.887   8.412 -0.0171 -0.3127 -0.3301
  734MOL0     C96804   7.852   5.807   8.386 -0.0914 -0.5290 -0.0930
  734MOL0     C96805   7.981   5.866   8.395 -0.8679  0.2251  0.5432
  734MOL0     N96806   8.219   5.980   8.910  1.0270  0.4010  0.3983
  734MOL0     N96807   8.224   6.092   8.982  0.1514 -0.0805  0.1635
  734MOL0     C96808   8.914   7.055   9.358  0.4431 -0.2658 -0.0023
  734MOL0     C96809   8.996   7.162   9.381 -0.5810 -0.5090  0.1869
  734MOL0     C96810   9.343   7.466   9.237  0.5749  0.4309  0.2250
  734MOL0     C96811   9.389   7.505   9.366 -0.9581  1.0307  1.5840
  734MOL0     C96812   9.449   7.630   9.385 -0.5505 -0.1043  0.9411
  734MOL0     C96813   9.461   7.715   9.275  0.5568  1.0424  0.7201
  734MOL0     O96814   9.523   7.832   9.308 -0.2991  1.2768  0.0744
  734MOL0     C96815   9.586   7.902   9.205  0.4910 -0.1916  1.0036
  734MOL0     C96816   9.645   8.037   9.242  0.1894 -0.2995 -0.5069
  734MOL0     C96817   9.734   8.043   9.370  0.0569  0.2335 -0.4436
  734MOL0     C96818   9.838   7.929   9.389  0.6147  0.2537  0.2398
  734MOL0     C96819   9.951   7.945   9.292  0.2287  0.2415  0.1752
  734MOL0     C96820  10.028   7.972   9.200  0.6183 -0.1147  0.1187
  734MOL0     C96821   9.406   7.682   9.151 -0.6464 -0.4753 -0.6631
  734MOL0     C96822   9.360   7.551   9.126  0.3884  0.3508 -0.6672
  734MOL0     H96823   9.259   7.087   9.187 -1.1865  1.8892 -1.4047
  734MOL0     H96824   9.104   6.880   9.143  0.2145 -1.5438  0.8540
  734MOL0     H96825   8.722   6.989   9.229 -3.1099 -0.7296 -1.9900
  734MOL0     H96826   8.676   6.831   9.306  1.1327 -0.3990  0.5739
  734MOL0     H96827   8.720   6.895   9.012 -1.8226 -1.5030 -1.9700
  734MOL0     H96828   8.564   6.871   9.090  0.0246 -1.9641 -0.8653
  734MOL0     H96829   8.782   6.666   9.049  1.5185  2.0899  1.4434
  734MOL0     H96830   8.631   6.687   8.961 -0.2499  0.6997  1.3699
  734MOL0     H96831   8.669   6.607   9.260  0.3722  1.6650  0.2734
  734MOL0     H96832   8.526   6.661   9.219  0.0532 -1.3422  1.3946
  734MOL0     H96833   8.670   6.417   9.131 -1.3686 -0.6281  3.5214
  734MOL0     H96834   8.554   6.490   8.999  0.8725  3.0464 -0.0484
  734MOL0     H96835   8.389   6.470   9.207 -0.5960 -0.7668  1.3988
  734MOL0     H96836   8.515   6.402   9.297 -2.3392 -0.0905  0.6561
  734MOL0     H96837   8.526   6.212   9.140  0.4194  1.5543  2.5217
  734MOL0     H96838   8.358   6.223   9.194 -1.4637 -0.2186 -1.4111
  734MOL0     H96839   8.443   6.339   8.914  1.7677 -0.6886  0.9279
  734MOL0     H96840   8.287   6.348   8.993  0.2361  1.5360  2.8379
  734MOL0     H96841   8.499   6.090   8.809  0.5230  1.5852 -0.9350
  734MOL0     H96842   8.285   5.798   8.718 -1.9905  1.9298 -2.4644
  734MOL0     H96843   8.456   5.820   8.770  0.4058  0.2789 -0.4883
  734MOL0     H96844   8.415   5.840   8.520  2.8498  0.8071  1.2823
  734MOL0     H96845   8.478   5.985   8.582  1.6600 -2.5796  1.7590
  734MOL0     H96846   8.177   5.946   8.592  0.4070  0.7120  1.0290
  734MOL0     H96847   8.259   6.108   8.585  2.8956 -0.0525 -0.2119
  734MOL0     H96848   8.237   5.904   8.356  1.6357  0.0797 -1.1951
  734MOL0     H96849   8.318   6.063   8.346  1.0898 -1.8932  0.5715
  734MOL0     H96850   7.895   6.176   8.278 -0.4322  1.3997  2.7373
  734MOL0     H96851   7.682   6.076   8.283 -0.9807  0.1243  1.5927
  734MOL0     H96852   7.607   5.433   8.308  0.0411  1.1927  1.0258
  734MOL0     H96853   7.414   5.275   8.264  4.1909  1.5686 -0.0891
  734MOL0     H96854   7.127   5.370   8.139  0.7641 -0.5487  0.3231
  734MOL0     H96855   6.988   5.337   8.236 -0.1427  0.0391  0.2496
  734MOL0     H96856   7.173   5.113   8.166 -1.2315 -3.6914  1.1894
  734MOL0     H96857   7.004   5.163   8.104  0.5779  0.0036 -0.5688
  734MOL0     H96858   7.107   5.055   8.378 -0.0935  0.3634 -0.7880
  734MOL0     H96859   7.008   4.962   8.263 -0.3383  0.0122 -2.3122
  734MOL0     H96860   6.876   5.058   8.454 -0.5935  0.8120  0.8853
  734MOL0     H96861   6.929   5.221   8.408  0.8881  0.0776 -3.3225
  734MOL0     H96862   6.712   5.044   8.314  2.3199  0.7263  7.0135
  734MOL0     H96863   6.806   5.113   8.171  1.1068  0.6182  0.2288
  734MOL0     H96864   6.737   5.337   8.236  0.6187 -0.4101  0.8117
  734MOL0     H96865   6.682   5.280   8.395 -4.0675  0.4827 -0.2082
  734MOL0     H96866   6.539   5.124   8.198 -1.4102  1.3287 -1.9206
  734MOL0     H96867   6.506   5.189   8.349  2.6200 -2.1597  0.0909
  734MOL0     H96868   6.473   5.405   8.260  1.9756 -3.9152  3.7124
  734MOL0     H96869   6.381   5.293   8.160 -0.4580  0.3784 -1.6604
  734MOL0     H96870   7.149   5.590   8.387  1.4547  2.2748  1.1680
  734MOL0     H96871   7.313   5.752   8.353  0.2887  1.1019  0.2956
  734MOL0     H96872   7.844   5.713   8.440  1.4392 -1.5790 -1.5879
  734MOL0     H96873   8.063   5.832   8.458 -0.2894 -1.0218 -0.8323
  734MOL0     H96874   8.812   7.054   9.397  0.4179 -1.6222 -0.0495
  734MOL0     H96875   8.962   7.246   9.441 -2.0702  0.3247 -1.7068
  734MOL0     H96876   9.376   7.437   9.449 -1.7974 -0.8237  0.0218
  734MOL0     H96877   9.492   7.649   9.483  0.0877  1.3018  0.4249
  734MOL0     H96878   9.512   7.916   9.125  1.0066 -0.3313  0.5020
  734MOL0     H96879   9.667   7.845   9.160  0.4147  0.5278 -0.0933
  734MOL0     H96880   9.712   8.074   9.165  0.5070 -1.4701 -0.8151
  734MOL0     H96881   9.560   8.106   9.248 -1.3192 -2.2028  2.3021
  734MOL0     H96882   9.658   8.042   9.448  0.3329 -1.3647 -0.1471
  734MOL0     H96883   9.784   8.136   9.398  0.5634  0.1273 -0.9476
  734MOL0     H96884   9.875   7.928   9.492 -0.0552 -2.6687  0.5308
  734MOL0     H96885   9.792   7.833   9.368 -2.3347  2.0507 -2.4078
  734MOL0     H96886  10.097   7.991   9.119 -1.4624  0.4528 -1.6200
  734MOL0     H96887   9.396   7.748   9.066  0.9317  0.4879 -0.1296
  734MOL0     H96888   9.325   7.540   9.024 -2.0561 -1.1486  0.2536
  735MOL0     O96889  11.432  10.347   9.972  0.8448  0.1944 -0.3278
  735MOL0     C96890  11.409  10.387  10.086 -1.3718  0.7260 -0.0164
  735MOL0     O96891  11.507  10.429  10.178 -0.2866  0.2355 -1.0694
  735MOL0     C96892  11.641  10.444  10.156 -0.6885 -0.1083  0.4595
  735MOL0     C96893  11.699  10.413  10.026  0.1258  0.5415 -0.1084
  735MOL0     C96894  11.832  10.401  10.009 -0.5834 -0.7304 -0.6112
  735MOL0     C96895  11.928  10.433  10.110 -0.3679  0.0177  1.7804
  735MOL0     O96896  12.061  10.409  10.090  0.6643  0.5418 -0.2178
  735MOL0     C96897  12.122  10.410   9.961  1.0663 -0.6248  1.2637
  735MOL0     C96898  12.268  10.377   9.962  0.2318 -0.5190 -1.0980
  735MOL0     C96899  12.330  10.401   9.821 -0.1716 -0.3004 -0.5458
  735MOL0     C96900  12.484  10.397   9.837 -0.7342 -0.0853 -0.3569
  735MOL0     C96901  12.549  10.392   9.699  0.1976  0.2968 -0.4229
  735MOL0     C96902  12.697  10.385   9.696  0.1024 -0.6770 -0.6128
  735MOL0     C96903  12.751  10.243   9.724  0.3587  0.6620  0.1127
  735MOL0     C96904  12.905  10.232   9.761  0.3037 -0.4668  0.6005
  735MOL0     N96905  12.978  10.321   9.670 -1.2055 -0.0205 -0.7267
  735MOL0     C96906  13.041  10.428   9.721 -0.1658  0.8290  0.8363
  735MOL0     C96907  13.143  10.471   9.633  0.7229 -0.0747  0.1384
  735MOL0     C96908  13.235  10.583   9.647 -0.8409  0.4285  0.6843
  735MOL0     C96909  13.288  10.627   9.784  0.4669  0.0217 -0.5092
  735MOL0     C96910  13.370  10.749   9.768 -0.8816 -0.4537  0.4377
  735MOL0     C96911  13.504  10.743   9.699  0.2155  0.3611 -0.7452
  735MOL0     O96912  13.581  10.671   9.788 -0.3447  0.9194 -0.5083
  735MOL0     C96913  13.710  10.645   9.756  0.0688 -0.3219 -0.0679
  735MOL0     C96914  13.752  10.597   9.631  0.5112  0.0571  0.1727
  735MOL0     C96915  13.888  10.580   9.592 -0.2304  0.4743 -0.5253
  735MOL0     C96916  13.988  10.599   9.692  0.0590 -0.2037  0.4204
  735MOL0     C96917  14.125  10.574   9.654  0.0123 -0.3551  0.1556
  735MOL0     O96918  14.164  10.474   9.560  0.4141  0.3972 -0.7466
  735MOL0     C96919  14.280  10.499   9.489 -0.1401 -0.3618 -1.3347
  735MOL0     C96920  14.398  10.430   9.503 -0.7448 -0.6919  1.1067
  735MOL0     C96921  14.518  10.469   9.443 -1.0392  0.0847  0.8332
  735MOL0     C96922  14.520  10.579   9.358  0.6632  0.6210  0.0858
  735MOL0     O96923  14.636  10.640   9.309  0.2334 -0.2273  0.3665
  735MOL0     C96924  14.747  10.604   9.389  0.0559 -0.2951  0.1742
  735MOL0     C96925  14.868  10.686   9.327 -0.2930  0.3329  1.5120
  735MOL0     C96926  15.014  10.651   9.379  0.1804  0.2365  0.6179
  735MOL0     C96927  15.129  10.733   9.320  0.5625  0.2453 -0.2272
  735MOL0     C96928  15.273  10.715   9.387  1.1842 -0.1841 -0.7231
  735MOL0     C96929  15.309  10.565   9.400 -0.1177 -0.1275  0.2993
  735MOL0     C96930  15.453  10.558   9.458 -0.5160  0.0852  0.3114
  735MOL0     C96931  15.476  10.613   9.595 -0.1333  0.0075  0.2759
  735MOL0    Cl96932  15.395  10.505   9.710  0.0958  0.2957 -0.3089
  735MOL0     C96933  14.396  10.644   9.334  0.2257  0.5388  1.0993
  735MOL0     C96934  14.285  10.603   9.398  0.7542  1.0909 -0.9756
  735MOL0     O96935  14.204  10.646   9.715 -0.2367  0.8131 -0.2682
  735MOL0     C96936  13.943  10.629   9.828  0.2458 -0.8983  0.9726
  735MOL0     C96937  13.807  10.656   9.856 -0.2092  0.0407 -0.3671
  735MOL0     N96938  13.133  10.397   9.524  0.3708 -0.0297  0.2756
  735MOL0     N96939  13.040  10.299   9.553 -0.1343  0.3826 -0.0044
  735MOL0     C96940  11.882  10.478  10.230  0.1885 -0.8155 -0.1326
  735MOL0     C96941  11.739  10.480  10.257  0.5495 -0.1136 -0.7062
  735MOL0     C96942  11.268  10.367  10.137  0.4397  0.5464 -0.3530
  735MOL0     C96943  11.220  10.454  10.244  0.4142  0.0765 -0.9392
  735MOL0     C96944  11.081  10.461  10.275  0.4822  0.3825 -0.9127
  735MOL0     C96945  10.993  10.382  10.200 -1.5643  0.4959 -0.4704
  735MOL0     O96946  10.868  10.395  10.241  0.4837  0.5128 -0.3411
  735MOL0     C96947  10.778  10.282  10.228 -0.4649 -0.4373 -0.3235
  735MOL0     C96948  10.652  10.320  10.308 -0.2537  0.3414 -0.7209
  735MOL0     C96949  10.685  10.323  10.461  0.4360 -0.3244 -0.6437
  735MOL0     C96950  10.755  10.203  10.529 -0.5935  0.8464  0.7407
  735MOL0     C96951  10.728  10.200  10.669  0.0786  0.5172  0.5436
  735MOL0     C96952  10.722  10.188  10.785  0.1730  0.1412 -0.7175
  735MOL0     C96953  11.034  10.295  10.094  0.0625 -0.0217 -0.2319
  735MOL0     C96954  11.168  10.291  10.068 -0.0737  0.3869 -0.5317
  735MOL0     H96955  11.650  10.373   9.938  2.1000 -2.7715  0.1249
  735MOL0     H96956  11.875  10.353   9.921  4.0578 -2.0286  2.0157
  735MOL0     H96957  12.109  10.501   9.902 -2.3563 -0.2444  2.3580
  735MOL0     H96958  12.073  10.332   9.903  2.6857 -0.2524 -0.7231
  735MOL0     H96959  12.285  10.272   9.986 -0.1600 -0.1917  0.7229
  735MOL0     H96960  12.315  10.424  10.048  0.1827 -1.6244 -0.4568
  735MOL0     H96961  12.307  10.497   9.774 -1.5833 -1.1133 -1.5929
  735MOL0     H96962  12.290  10.328   9.750  1.4372  0.1859 -2.0070
  735MOL0     H96963  12.510  10.490   9.887 -0.4207 -1.8334  3.0116
  735MOL0     H96964  12.513  10.313   9.902  1.8540  0.9128 -0.1263
  735MOL0     H96965  12.519  10.481   9.642 -1.1350 -0.4346 -0.9174
  735MOL0     H96966  12.504  10.317   9.633 -0.5776  0.5713 -0.2126
  735MOL0     H96967  12.726  10.455   9.776 -1.4415  0.3705 -0.9179
  735MOL0     H96968  12.732  10.423   9.600  1.7458 -1.3725 -0.3139
  735MOL0     H96969  12.688  10.205   9.806 -0.0540  0.2607 -0.3846
  735MOL0     H96970  12.718  10.185   9.638 -0.4735  1.3284 -0.0358
  735MOL0     H96971  12.941  10.129   9.755  0.2143 -0.4754  0.2131
  735MOL0     H96972  12.922  10.265   9.864 -0.5868 -0.9494  0.9202
  735MOL0     H96973  13.023  10.469   9.819 -0.5989  1.4757  0.4963
  735MOL0     H96974  13.191  10.669   9.596  1.3834  0.7752 -0.7873
  735MOL0     H96975  13.322  10.555   9.587 -0.4658  1.2140  0.8398
  735MOL0     H96976  13.350  10.542   9.814  0.0200 -0.5598 -1.2083
  735MOL0     H96977  13.216  10.652   9.862  3.1003  2.8088  1.2387
  735MOL0     H96978  13.312  10.827   9.719  1.4769  2.0546  1.3645
  735MOL0     H96979  13.381  10.784   9.871 -1.1947 -1.3199  0.7716
  735MOL0     H96980  13.558  10.838   9.695 -0.8347  0.9661 -0.8957
  735MOL0     H96981  13.500  10.702   9.598  1.7769 -0.2394 -0.6006
  735MOL0     H96982  13.673  10.584   9.558 -2.0839 -1.3690  3.0106
  735MOL0     H96983  13.920  10.551   9.492 -2.7043  1.6668 -1.7473
  735MOL0     H96984  14.398  10.335   9.557  1.3285 -0.5993  1.3505
  735MOL0     H96985  14.594  10.396   9.468  0.0539  1.2380  0.9892
  735MOL0     H96986  14.771  10.498   9.374 -1.1208 -0.7733  1.4878
  735MOL0     H96987  14.749  10.648   9.488  3.1141  1.0230 -0.3693
  735MOL0     H96988  14.850  10.794   9.331 -0.8073  0.6207 -2.9870
  735MOL0     H96989  14.861  10.665   9.220  0.5582 -0.2043  1.5585
  735MOL0     H96990  15.042  10.550   9.348  5.8100  1.7746 -0.3679
  735MOL0     H96991  15.022  10.666   9.488  0.5834 -2.5378  1.0411
  735MOL0     H96992  15.127  10.713   9.213 -1.5254 -3.2793  0.2972
  735MOL0     H96993  15.092  10.832   9.351  0.3136  0.3311 -0.7798
  735MOL0     H96994  15.264  10.739   9.493  2.5834 -1.0284 -0.3863
  735MOL0     H96995  15.352  10.778   9.346  0.8417  1.5130  1.0996
  735MOL0     H96996  15.301  10.520   9.301  2.1719  0.4238 -0.1855
  735MOL0     H96997  15.247  10.505   9.467  2.4831 -2.3617  0.9086
  735MOL0     H96998  15.489  10.455   9.451 -1.5780 -0.1931 -2.3525
  735MOL0     H96999  15.521  10.620   9.399  0.0960 -0.6482  0.2406
  735MOL0     H97000  15.445  10.718   9.601 -1.5837 -0.4034  0.2538
  735MOL0     H97001  15.585  10.610   9.603 -0.1417 -0.0245  0.3694
  735MOL0     H97002  14.389  10.729   9.267 -4.0130  0.0113  0.6303
  735MOL0     H97003  14.193  10.656   9.378 -1.5622 -2.9073 -1.7487
  735MOL0     H97004  14.011  10.655   9.908 -0.7431  1.0538  1.2418
  735MOL0     H97005  13.775  10.696   9.951  0.0677 -0.7320  0.0542
  735MOL0     H97006  11.945  10.508  10.312  0.0470  1.7732 -0.8787
  735MOL0     H97007  11.690  10.504  10.351 -1.8663 -4.1056 -0.7211
  735MOL0     H97008  11.286  10.522  10.297  0.2744 -1.4620  1.3370
  735MOL0     H97009  11.030  10.535  10.337  1.6318 -1.4944  2.4728
  735MOL0     H97010  10.827  10.190  10.262 -0.7816 -1.0777 -1.5241
  735MOL0     H97011  10.744  10.261  10.126 -2.2389 -3.1687  0.7004
  735MOL0     H97012  10.622  10.425  10.299  2.6875  1.4670  0.9967
  735MOL0     H97013  10.579  10.244  10.280  1.7577 -2.6631  1.5269
  735MOL0     H97014  10.589  10.341  10.509  0.7971  1.2885 -0.4433
  735MOL0     H97015  10.741  10.413  10.490 -4.6394  2.0391  3.3349
  735MOL0     H97016  10.721  10.106  10.492  0.0433  0.6136  0.7611
  735MOL0     H97017  10.863  10.202  10.514 -0.5335 -1.4546  1.0919
  735MOL0     H97018  10.691  10.164  10.885 -0.7634 -1.3416 -1.3382
  735MOL0     H97019  10.960  10.244  10.033 -1.0388 -0.5509  1.4856
  735MOL0     H97020  11.192  10.236   9.978 -3.6933 -0.0286 -1.3846
  736MOL0     O97021   0.125  10.371   7.596  0.0099 -0.1936  0.2516
  736MOL0     C97022   0.148  10.421   7.701 -0.6882 -0.1386 -0.7881
  736MOL0     O97023   0.224  10.366   7.798  0.0706  0.0370  0.0763
  736MOL0     C97024   0.287  10.251   7.768 -0.1404  0.1413  0.5832
  736MOL0     C97025   0.249  10.137   7.839 -0.7330 -0.0485  0.3115
  736MOL0     C97026   0.308  10.013   7.801 -0.0318 -0.4641 -1.2289
  736MOL0     C97027   0.388  10.000   7.682 -0.1114 -0.6135  0.3169
  736MOL0     O97028   0.433   9.874   7.642 -0.2230 -0.4245 -0.1982
  736MOL0     C97029   0.494   9.861   7.516 -0.1072 -0.2370 -0.5803
  736MOL0     C97030   0.531   9.724   7.489 -0.8773  0.3774 -0.1544
  736MOL0     C97031   0.625   9.715   7.360  0.9308  0.9029  0.3773
  736MOL0     C97032   0.673   9.566   7.339 -0.9732 -0.3453 -0.2691
  736MOL0     C97033   0.548   9.477   7.305 -0.6414  0.0983  0.4476
  736MOL0     C97034   0.604   9.359   7.227 -0.0131 -0.3590  0.4097
  736MOL0     C97035   0.489   9.277   7.182 -0.0655  0.0663  0.7606
  736MOL0     C97036   0.448   9.187   7.294  0.9832  0.9143 -0.3510
  736MOL0     N97037   0.312   9.110   7.270 -0.2066 -0.1527  0.6626
  736MOL0     C97038   0.266   9.000   7.329 -0.4959 -0.3723  0.4555
  736MOL0     C97039   0.169   8.961   7.255 -0.7058 -0.0176 -0.3690
  736MOL0     C97040   0.096   8.838   7.275  0.9421  0.3451  0.3937
  736MOL0     C97041   0.146   8.729   7.369  0.5380 -0.2920 -0.3457
  736MOL0     C97042   0.060   8.608   7.366 -0.8399  0.1564 -0.7930
  736MOL0     C97043   0.019   8.544   7.232  0.2477 -0.1267 -0.3811
  736MOL0     O97044  -0.079   8.449   7.252  0.2404 -0.1986 -0.4833
  736MOL0     C97045  -0.143   8.412   7.134 -0.1366  1.1647  0.2609
  736MOL0     C97046  -0.239   8.321   7.146  0.1058 -0.1898 -0.1620
  736MOL0     C97047  -0.342   8.291   7.049 -0.2392  0.3967  0.2229
  736MOL0     C97048  -0.315   8.340   6.919  0.6672 -1.0705 -0.5556
  736MOL0     C97049  -0.416   8.314   6.815 -0.5326 -0.1616 -0.1270
  736MOL0     O97050  -0.374   8.304   6.680  0.8158 -0.0358  0.1008
  736MOL0     C97051  -0.453   8.270   6.574 -0.6750 -0.6148 -0.0942
  736MOL0     C97052  -0.590   8.245   6.586  0.0465  0.2628  0.2161
  736MOL0     C97053  -0.661   8.181   6.481  0.3258 -0.1033 -1.4644
  736MOL0     C97054  -0.597   8.151   6.365  0.5238  0.0483  0.5531
  736MOL0     O97055  -0.675   8.098   6.260 -0.6350  0.5582 -0.4503
  736MOL0     C97056  -0.633   8.122   6.129 -0.1514 -0.5304  0.3076
  736MOL0     C97057  -0.757   8.086   6.041  0.9893  0.5969  0.3703
  736MOL0     C97058  -0.890   8.166   6.068 -0.0121 -0.1217  0.8210
  736MOL0     C97059  -0.992   8.148   5.965 -0.6823  0.5959  0.4046
  736MOL0     C97060  -0.999   8.248   5.864  0.6773 -0.0737  1.0068
  736MOL0     C97061  -1.100   8.200   5.752  0.0389 -0.1919  0.4363
  736MOL0     C97062  -1.108   8.297   5.633  0.0734  0.2442 -0.2502
  736MOL0     C97063  -1.204   8.268   5.525 -0.0081 -1.0058  0.2823
  736MOL0    Cl97064  -1.368   8.328   5.593 -0.1981 -0.0717 -0.2047
  736MOL0     C97065  -0.460   8.181   6.354 -1.3077  0.8271  0.8056
  736MOL0     C97066  -0.384   8.230   6.460 -0.3893 -0.2883 -1.2436
  736MOL0     O97067  -0.527   8.282   6.858 -0.4491 -0.0446  0.3735
  736MOL0     C97068  -0.204   8.427   6.901 -0.7058 -0.5166 -0.4064
  736MOL0     C97069  -0.125   8.467   7.009 -0.1770  0.3496 -0.0230
  736MOL0     N97070   0.146   9.059   7.162  1.2276 -0.5764 -0.6119
  736MOL0     N97071   0.220   9.157   7.185 -0.4198 -0.5972  0.2909
  736MOL0     C97072   0.432  10.119   7.624 -0.2817  0.4086 -0.0353
  736MOL0     C97073   0.387  10.244   7.678 -0.1582 -0.6576  0.3590
  736MOL0     C97074   0.110  10.568   7.730 -0.7760  0.5696 -0.5924
  736MOL0     C97075   0.093  10.601   7.865 -0.3108  0.0715 -0.4456
  736MOL0     C97076   0.049  10.730   7.903  0.4164 -1.0533  0.2182
  736MOL0     C97077   0.032  10.832   7.801  1.1420  0.5851 -0.1049
  736MOL0     O97078   0.001  10.959   7.823 -0.0392  0.2256  0.8749
  736MOL0     C97079  -0.049  11.006   7.949 -0.3662  0.5628  0.2796
  736MOL0     C97080  -0.099  11.156   7.945 -0.9327 -0.5335 -0.8667
  736MOL0     C97081  -0.230  11.170   7.874 -0.0549  0.4219  0.5028
  736MOL0     C97082  -0.297  11.313   7.883 -0.3902 -0.4326  0.2237
  736MOL0     C97083  -0.435  11.323   7.855  0.7632 -0.6937  0.3057
  736MOL0     C97084  -0.555  11.357   7.839 -0.3408  0.2868 -0.7454
  736MOL0     C97085   0.045  10.791   7.670 -1.0319  0.4370 -0.1853
  736MOL0     C97086   0.086  10.659   7.632  0.5196 -0.0325 -0.3819
  736MOL0     H97087   0.176  10.141   7.919 -0.8624 -1.0429  0.2537
  736MOL0     H97088   0.269   9.924   7.848 -0.8392  0.2075 -0.5996
  736MOL0     H97089   0.586   9.918   7.507 -0.2255 -0.1950 -1.6618
  736MOL0     H97090   0.431   9.899   7.434 -0.5579  0.4696  0.0769
  736MOL0     H97091   0.445   9.657   7.484 -0.9450  0.4920 -0.5081
  736MOL0     H97092   0.592   9.686   7.572 -0.4219  0.6184 -0.3787
  736MOL0     H97093   0.718   9.772   7.372  1.0851  0.4118  1.6972
  736MOL0     H97094   0.584   9.755   7.268  2.1362  0.0419 -0.5661
  736MOL0     H97095   0.749   9.573   7.260 -0.4174 -0.0942  0.2837
  736MOL0     H97096   0.730   9.532   7.425  2.5727  1.4046 -1.7257
  736MOL0     H97097   0.486   9.528   7.230  0.7500  0.7069 -0.3363
  736MOL0     H97098   0.486   9.440   7.387  0.6041  1.3979  2.0541
  736MOL0     H97099   0.679   9.303   7.284  1.9192  0.2655 -1.3614
  736MOL0     H97100   0.660   9.397   7.141  1.6813 -1.9540  0.7422
  736MOL0     H97101   0.412   9.346   7.147  0.3482  1.0959  1.8181
  736MOL0     H97102   0.518   9.217   7.095 -2.3884 -2.9633  1.8990
  736MOL0     H97103   0.425   9.252   7.378  0.5614  1.2317 -0.7071
  736MOL0     H97104   0.532   9.121   7.318 -1.1000 -2.8705 -2.3679
  736MOL0     H97105   0.314   8.955   7.416  0.3217  1.8064  1.1956
  736MOL0     H97106   0.084   8.802   7.172  0.4391 -4.3500  1.8535
  736MOL0     H97107  -0.007   8.850   7.310  0.9375 -2.5586  1.6536
  736MOL0     H97108   0.142   8.767   7.471 -1.5560  0.3663 -0.6205
  736MOL0     H97109   0.248   8.700   7.339 -0.1099 -0.4099 -2.6547
  736MOL0     H97110   0.103   8.534   7.435  0.1986  0.4064 -1.1530
  736MOL0     H97111  -0.034   8.621   7.421  1.7472 -1.6189  4.7593
  736MOL0     H97112   0.105   8.483   7.202 -0.3232 -0.5601 -1.1794
  736MOL0     H97113  -0.016   8.625   7.167 -2.2295 -0.8573 -0.0829
  736MOL0     H97114  -0.239   8.274   7.244  0.9232  1.6919  0.7787
  736MOL0     H97115  -0.422   8.224   7.078  1.0649 -2.2102 -1.7741
  736MOL0     H97116  -0.643   8.274   6.676 -0.0803 -1.6510  0.8085
  736MOL0     H97117  -0.769   8.175   6.485  0.1211  2.9243  1.2696
  736MOL0     H97118  -0.547   8.069   6.087  0.7555  2.1670 -1.4893
  736MOL0     H97119  -0.608   8.228   6.134  3.1232 -1.2335  1.3115
  736MOL0     H97120  -0.766   7.977   6.053  0.0685  0.6005 -0.1626
  736MOL0     H97121  -0.733   8.110   5.937  0.8632  1.0881  0.4538
  736MOL0     H97122  -0.870   8.273   6.059  1.0777 -0.4693 -2.0376
  736MOL0     H97123  -0.933   8.143   6.165  0.7112 -1.8113  0.7882
  736MOL0     H97124  -0.978   8.047   5.925 -0.4417  0.9534 -0.4343
  736MOL0     H97125  -1.081   8.146   6.028  1.3907 -0.9786  3.5624
  736MOL0     H97126  -0.897   8.250   5.824  0.2779  0.9144 -0.0302
  736MOL0     H97127  -1.020   8.350   5.896  0.3613  0.8595 -1.8269
  736MOL0     H97128  -1.195   8.211   5.806 -0.1251 -0.7790  0.2704
  736MOL0     H97129  -1.070   8.101   5.715 -1.5635 -0.2345 -0.8300
  736MOL0     H97130  -1.143   8.394   5.669  1.8073  0.6549  0.3958
  736MOL0     H97131  -1.011   8.294   5.583 -0.0184  1.8883 -0.5660
  736MOL0     H97132  -1.200   8.161   5.500  1.1749 -1.0141  0.4466
  736MOL0     H97133  -1.179   8.323   5.433 -0.4090 -0.5448  0.4481
  736MOL0     H97134  -0.418   8.164   6.255 -0.6495 -2.5774  1.5254
  736MOL0     H97135  -0.282   8.260   6.438 -0.4268  0.1559 -0.8200
  736MOL0     H97136  -0.184   8.486   6.812 -2.2727  2.3626  1.0203
  736MOL0     H97137  -0.057   8.549   6.988 -1.5713  1.6685  0.3672
  736MOL0     H97138   0.505  10.117   7.544  0.3328 -0.3061  0.5316
  736MOL0     H97139   0.432  10.325   7.622 -4.7010  1.1838 -1.1082
  736MOL0     H97140   0.087  10.530   7.946 -1.4651 -1.3355 -1.6924
  736MOL0     H97141   0.047  10.751   8.010  0.3829 -0.5298  0.1196
  736MOL0     H97142   0.030  10.998   8.024  2.3822  1.4876 -2.3303
  736MOL0     H97143  -0.127  10.940   7.989  0.5708 -2.1327 -2.0474
  736MOL0     H97144  -0.126  11.182   8.048 -1.4546 -2.9275 -0.3189
  736MOL0     H97145  -0.025  11.220   7.895  1.7581 -0.8896  2.2790
  736MOL0     H97146  -0.306  11.110   7.925  0.1518  0.1119  0.4393
  736MOL0     H97147  -0.221  11.140   7.770 -0.6412  4.5194 -0.9372
  736MOL0     H97148  -0.275  11.356   7.981 -1.4126 -1.7436  1.0582
  736MOL0     H97149  -0.243  11.380   7.815  2.1571  0.7532  3.1671
  736MOL0     H97150  -0.656  11.385   7.816 -0.6508 -0.9856 -0.9962
  736MOL0     H97151   0.021  10.867   7.597 -0.4242 -0.0021 -0.8620
  736MOL0     H97152   0.091  10.638   7.525 -0.5149 -1.7806 -0.1248
  737MOL0     O97153   6.837   4.016   0.756 -0.7317 -0.0581  0.0419
  737MOL0     C97154   6.887   4.073   0.856  0.2118  0.2810 -0.1524
  737MOL0     O97155   6.962   4.005   0.944  0.8043 -0.2312 -0.6651
  737MOL0     C97156   7.026   3.896   0.901  0.0855  1.1856  0.1340
  737MOL0     C97157   7.099   3.873   0.778  0.0816  1.0617  1.2874
  737MOL0     C97158   7.160   3.747   0.757 -0.3839  0.6918  0.8315
  737MOL0     C97159   7.145   3.645   0.847  0.3356  0.5619 -0.4382
  737MOL0     O97160   7.156   3.505   0.821  0.2885 -0.1781 -0.0022
  737MOL0     C97161   7.218   3.467   0.698  0.1190  0.1609 -0.5121
  737MOL0     C97162   7.250   3.312   0.703  0.7936  0.5770 -0.0343
  737MOL0     C97163   7.349   3.266   0.817  0.1173 -0.1362 -0.5568
  737MOL0     C97164   7.375   3.114   0.824  1.0143  1.2941  0.2135
  737MOL0     C97165   7.475   3.062   0.723  0.9521 -0.2141 -0.1480
  737MOL0     C97166   7.451   2.918   0.673  0.8276 -0.5090  0.1398
  737MOL0     C97167   7.565   2.879   0.573  1.3245 -0.3733  0.0658
  737MOL0     C97168   7.517   2.762   0.498 -0.4962 -0.4775  1.2567
  737MOL0     N97169   7.626   2.697   0.426 -1.0563 -0.6484  0.2276
  737MOL0     C97170   7.687   2.749   0.319  0.0436 -0.2483  0.0430
  737MOL0     C97171   7.806   2.690   0.321 -1.6509  0.5665  0.1533
  737MOL0     C97172   7.928   2.711   0.233  0.0024  0.5552  0.2681
  737MOL0     C97173   7.963   2.859   0.220  0.0028  0.0479  0.3400
  737MOL0     C97174   8.113   2.881   0.175 -0.8347  0.2309  0.0309
  737MOL0     C97175   8.190   3.000   0.242  0.1082  0.5980 -0.4351
  737MOL0     O97176   8.201   2.982   0.384 -0.7123 -0.1169  0.7266
  737MOL0     C97177   8.309   2.915   0.440 -0.0349  0.6203 -0.1300
  737MOL0     C97178   8.328   2.934   0.579  0.4789  0.4150  0.2417
  737MOL0     C97179   8.440   2.887   0.636 -0.4666 -0.3556  1.0501
  737MOL0     C97180   8.540   2.816   0.566 -0.6540 -0.5294  0.6541
  737MOL0     C97181   8.659   2.779   0.648  0.6272  1.0320 -0.5793
  737MOL0     O97182   8.732   2.672   0.607 -0.2840  0.5910  0.1887
  737MOL0     C97183   8.861   2.685   0.646 -0.1629  0.5602 -0.9333
  737MOL0     C97184   8.963   2.749   0.567 -0.1263 -0.3138 -0.3611
  737MOL0     C97185   9.100   2.741   0.609  0.2554 -0.3953 -1.1173
  737MOL0     C97186   9.138   2.665   0.723  0.3632 -0.0902  0.0679
  737MOL0     O97187   9.258   2.676   0.784  0.1415  0.1875 -0.0090
  737MOL0     C97188   9.343   2.562   0.766 -0.6794  0.1741  0.1829
  737MOL0     C97189   9.317   2.451   0.869 -1.0260  0.5005  0.3198
  737MOL0     C97190   9.306   2.492   1.020 -0.5583  0.4831  0.5259
  737MOL0     C97191   9.422   2.580   1.051 -0.8502  0.3876 -0.0350
  737MOL0     C97192   9.433   2.618   1.194  0.3365 -0.6359 -1.1091
  737MOL0     C97193   9.496   2.516   1.284 -0.6851 -0.3292  0.5484
  737MOL0     C97194   9.560   2.566   1.415 -0.7299  0.1124  0.1165
  737MOL0     C97195   9.574   2.461   1.518 -0.4220  0.9464  0.0745
  737MOL0    Cl97196   9.585   2.545   1.667 -0.0218 -0.2679 -0.0183
  737MOL0     C97197   9.037   2.605   0.788  0.4416  0.4252 -0.7763
  737MOL0     C97198   8.900   2.624   0.761  1.4786  0.8490 -0.4234
  737MOL0     O97199   8.680   2.849   0.741 -0.2545  1.1913 -0.2287
  737MOL0     C97200   8.527   2.808   0.430  0.2600 -0.0850 -0.6421
  737MOL0     C97201   8.414   2.851   0.363  0.6219 -0.3650 -0.7910
  737MOL0     N97202   7.813   2.604   0.424  0.0044  0.1230 -0.6809
  737MOL0     N97203   7.714   2.615   0.491  0.2431 -1.1650 -1.0096
  737MOL0     C97204   7.097   3.672   0.969  0.1101  0.5712 -0.6143
  737MOL0     C97205   7.040   3.793   0.997  0.6948  0.0132  0.2853
  737MOL0     C97206   6.840   4.211   0.901 -0.1204 -0.0991  0.5112
  737MOL0     C97207   6.850   4.242   1.037  0.2357 -0.1366 -0.0131
  737MOL0     C97208   6.819   4.365   1.097 -0.6008 -0.5690  0.2959
  737MOL0     C97209   6.761   4.462   1.014  0.1292 -0.2845 -0.2283
  737MOL0     O97210   6.720   4.585   1.074 -0.4613  0.0146 -0.0036
  737MOL0     C97211   6.636   4.674   0.994 -0.0902 -0.0632  0.0533
  737MOL0     C97212   6.556   4.763   1.091 -0.6773 -0.5196  0.4204
  737MOL0     C97213   6.521   4.694   1.220  0.9453 -0.1095 -0.6654
  737MOL0     C97214   6.433   4.768   1.321  0.2025 -0.3932 -0.5809
  737MOL0     C97215   6.318   4.838   1.265 -0.2736 -0.0133  0.0239
  737MOL0     C97216   6.215   4.890   1.235  0.5034  0.0361 -0.8928
  737MOL0     C97217   6.747   4.429   0.875  0.8488 -0.2981 -0.6708
  737MOL0     C97218   6.784   4.303   0.818 -0.2343 -0.6850 -0.3344
  737MOL0     H97219   7.100   3.949   0.700  1.0494 -0.3995 -0.2002
  737MOL0     H97220   7.187   3.725   0.654 -4.2618  1.8907 -0.6109
  737MOL0     H97221   7.317   3.512   0.685  0.3075 -0.6431 -2.0087
  737MOL0     H97222   7.156   3.496   0.612 -1.1488 -0.1004  0.2757
  737MOL0     H97223   7.306   3.288   0.612 -0.2766  0.3686 -0.6582
  737MOL0     H97224   7.159   3.251   0.691  2.7575 -2.3781 -1.1590
  737MOL0     H97225   7.314   3.305   0.913  1.1415  0.0309 -0.2447
  737MOL0     H97226   7.447   3.305   0.788  0.5795 -1.6306 -1.1111
  737MOL0     H97227   7.425   3.085   0.917  2.7934  0.0147 -1.0796
  737MOL0     H97228   7.279   3.065   0.814  1.2004  1.0001 -0.1232
  737MOL0     H97229   7.568   3.090   0.772  2.7185  0.9252 -3.7736
  737MOL0     H97230   7.447   3.117   0.633  0.3057 -1.0860 -0.4966
  737MOL0     H97231   7.346   2.914   0.643 -0.2350  1.2614  3.2621
  737MOL0     H97232   7.444   2.856   0.763 -1.3073  1.1307  1.1936
  737MOL0     H97233   7.581   2.964   0.506  1.1234  0.9654  1.6490
  737MOL0     H97234   7.666   2.867   0.613  1.4582  0.8324  0.1380
  737MOL0     H97235   7.429   2.778   0.434 -0.7726  2.6014  2.2574
  737MOL0     H97236   7.483   2.690   0.574 -0.3136 -0.1826  1.6186
  737MOL0     H97237   7.648   2.817   0.244 -1.4375  0.4277  1.3551
  737MOL0     H97238   7.903   2.670   0.135 -3.8220  1.3389  0.7561
  737MOL0     H97239   8.012   2.650   0.269 -0.2930  0.0991  0.1909
  737MOL0     H97240   7.961   2.906   0.319  0.5113 -2.5957  1.6738
  737MOL0     H97241   7.894   2.913   0.154  0.5713 -0.3418 -0.5770
  737MOL0     H97242   8.168   2.794   0.212  2.6326  1.2019 -2.3998
  737MOL0     H97243   8.128   2.883   0.067 -2.0602  0.4829 -0.1458
  737MOL0     H97244   8.134   3.091   0.218 -0.5733  0.1941 -0.3776
  737MOL0     H97245   8.288   3.008   0.194  0.1520  0.5514 -0.3535
  737MOL0     H97246   8.251   2.976   0.644 -0.6553 -2.0531  0.6271
  737MOL0     H97247   8.450   2.900   0.744 -3.4528 -0.8394  1.4523
  737MOL0     H97248   8.936   2.789   0.470  0.8994 -1.3007 -1.0718
  737MOL0     H97249   9.173   2.787   0.542 -2.4975 -0.6036 -4.5299
  737MOL0     H97250   9.443   2.601   0.785  0.2884 -1.1071 -1.9149
  737MOL0     H97251   9.327   2.517   0.667 -1.6494 -3.4819  1.8206
  737MOL0     H97252   9.386   2.366   0.870  2.2400  2.8184 -2.8316
  737MOL0     H97253   9.230   2.393   0.835  1.2127 -1.2188 -3.0802
  737MOL0     H97254   9.297   2.404   1.085 -1.7644 -0.2887 -0.6325
  737MOL0     H97255   9.216   2.552   1.028 -0.8096  0.0552  0.9318
  737MOL0     H97256   9.520   2.536   1.031 -0.1214  0.7320  2.5533
  737MOL0     H97257   9.434   2.672   0.993  2.4206  0.4171  0.5378
  737MOL0     H97258   9.332   2.648   1.227  0.7226 -1.5796  1.1685
  737MOL0     H97259   9.503   2.701   1.200  2.0766 -2.1113 -0.0011
  737MOL0     H97260   9.567   2.445   1.241 -1.7398 -1.1049  0.0368
  737MOL0     H97261   9.413   2.448   1.304 -0.0970 -1.4472 -0.6623
  737MOL0     H97262   9.663   2.603   1.401  0.1387 -1.3550  2.1638
  737MOL0     H97263   9.495   2.647   1.448  0.4325  1.5387 -0.8943
  737MOL0     H97264   9.664   2.405   1.491 -1.5864 -0.8658 -0.1352
  737MOL0     H97265   9.488   2.394   1.517 -0.3917  0.9085 -0.0936
  737MOL0     H97266   9.053   2.555   0.883  1.2996 -0.1317 -1.2027
  737MOL0     H97267   8.822   2.584   0.825  2.5692 -1.8451 -0.6522
  737MOL0     H97268   8.607   2.768   0.369  0.5794 -1.3968  0.5971
  737MOL0     H97269   8.408   2.824   0.258 -2.4939 -1.3487 -0.4676
  737MOL0     H97270   7.097   3.592   1.042  1.3474  0.7072 -0.4337
  737MOL0     H97271   6.984   3.800   1.090  0.8157  1.2231  0.2912
  737MOL0     H97272   6.902   4.171   1.100 -0.4539 -1.4972 -0.9212
  737MOL0     H97273   6.846   4.366   1.202  0.7860  1.0571 -0.0366
  737MOL0     H97274   6.565   4.623   0.929  1.4959 -0.7773 -1.2066
  737MOL0     H97275   6.712   4.726   0.936 -0.9447  0.2172 -0.8274
  737MOL0     H97276   6.624   4.846   1.111 -0.5026  0.2594 -2.7651
  737MOL0     H97277   6.464   4.796   1.042  1.5874  3.4008 -1.6836
  737MOL0     H97278   6.611   4.688   1.283 -0.2205 -2.2166  0.9192
  737MOL0     H97279   6.494   4.590   1.201  2.3735 -0.2257 -2.2863
  737MOL0     H97280   6.400   4.695   1.396  0.3288  2.3280  2.3628
  737MOL0     H97281   6.494   4.849   1.362 -0.6657  0.9187 -1.8084
  737MOL0     H97282   6.125   4.941   1.207  1.2467  0.2999 -2.9340
  737MOL0     H97283   6.691   4.491   0.806  1.5951  0.1019 -0.9163
  737MOL0     H97284   6.772   4.277   0.713 -1.3075  0.8345 -0.6203
  738MOL0     O97285   8.587   8.610   8.261  0.2828 -0.9233 -0.6083
  738MOL0     C97286   8.568   8.582   8.380 -0.5994  0.1425 -0.2630
  738MOL0     O97287   8.513   8.662   8.473  0.0735  0.3703 -0.6710
  738MOL0     C97288   8.511   8.800   8.446 -0.1172 -0.2768 -0.4334
  738MOL0     C97289   8.585   8.898   8.512 -0.0689  0.4322 -0.0468
  738MOL0     C97290   8.584   9.032   8.469 -0.4005 -0.5330 -0.0008
  738MOL0     C97291   8.520   9.074   8.351  0.2916 -0.1681 -0.6396
  738MOL0     O97292   8.509   9.204   8.311 -0.1463  0.3424 -0.5760
  738MOL0     C97293   8.377   9.255   8.300 -0.6294 -0.4472  0.5374
  738MOL0     C97294   8.374   9.390   8.219 -0.8003 -0.4273 -0.7298
  738MOL0     C97295   8.249   9.468   8.232 -0.1089  0.5254  0.6330
  738MOL0     C97296   8.219   9.513   8.375 -0.8497 -0.5197 -0.4761
  738MOL0     C97297   8.120   9.630   8.360 -0.2179  0.3377  0.3890
  738MOL0     C97298   8.063   9.669   8.502 -0.1368  0.0436  0.2995
  738MOL0     C97299   7.953   9.772   8.480  0.7210 -0.6735 -0.7192
  738MOL0     C97300   7.862   9.809   8.592  0.9385  0.2274 -0.1072
  738MOL0     N97301   7.794   9.686   8.645  0.1015 -0.6900  0.5487
  738MOL0     C97302   7.845   9.589   8.727 -0.1177  0.3521 -0.6331
  738MOL0     C97303   7.741   9.517   8.753 -0.0340  1.4497  0.7044
  738MOL0     C97304   7.737   9.418   8.861 -0.5238 -0.3445 -0.1269
  738MOL0     C97305   7.851   9.314   8.870 -0.1076 -0.6116  0.6417
  738MOL0     C97306   7.890   9.270   9.020 -0.4869 -0.2501 -0.0621
  738MOL0     C97307   7.984   9.150   9.017  0.1212 -0.2927  0.9621
  738MOL0     O97308   8.116   9.199   8.974 -0.5178  0.9839 -0.1135
  738MOL0     C97309   8.213   9.107   8.971  0.5350  0.8219 -0.5157
  738MOL0     C97310   8.217   8.973   9.024  0.4661 -0.6057 -0.5525
  738MOL0     C97311   8.326   8.896   9.015 -0.4281  0.4446 -0.2394
  738MOL0     C97312   8.439   8.933   8.948  0.1871  0.3413  0.3079
  738MOL0     C97313   8.562   8.847   8.941  0.0848 -0.2439 -1.0379
  738MOL0     O97314   8.664   8.887   8.867 -0.5537  0.5116 -0.5770
  738MOL0     C97315   8.779   8.903   8.934 -0.0842  0.0846 -0.0513
  738MOL0     C97316   8.889   8.821   8.904 -0.2443 -0.6337  0.8733
  738MOL0     C97317   9.014   8.835   8.965  1.0350 -1.3151 -1.0649
  738MOL0     C97318   9.029   8.931   9.067 -0.4662 -0.2853 -0.5040
  738MOL0     O97319   9.135   8.953   9.148  0.2088 -0.4511  0.4214
  738MOL0     C97320   9.275   8.915   9.101  0.8193 -0.2300 -1.0922
  738MOL0     C97321   9.313   8.976   8.969 -0.4829  0.4568 -0.8732
  738MOL0     C97322   9.468   8.969   8.955  0.4882  0.1000  0.0505
  738MOL0     C97323   9.518   9.026   8.823  0.0381 -0.1361 -1.0871
  738MOL0     C97324   9.672   9.032   8.836  0.1590 -0.3678  0.6615
  738MOL0     C97325   9.739   9.083   8.711  0.3718  0.4415  1.0822
  738MOL0     C97326   9.702   8.977   8.601 -0.5018  0.7425  0.6753
  738MOL0     C97327   9.818   8.977   8.505 -0.6045  0.0323  0.7600
  738MOL0    Cl97328   9.839   9.138   8.421  0.4143 -0.0463  0.3055
  738MOL0     C97329   8.926   9.023   9.096  0.3194  0.2733 -0.6112
  738MOL0     C97330   8.802   9.011   9.026 -0.0910 -0.1749 -0.2668
  738MOL0     O97331   8.562   8.745   9.011 -0.1575 -0.9432  0.3873
  738MOL0     C97332   8.435   9.061   8.880 -0.1225  0.6499 -0.3533
  738MOL0     C97333   8.327   9.150   8.906 -0.0727  0.0204  0.7019
  738MOL0     N97334   7.634   9.560   8.681  0.2565  0.0629  0.7879
  738MOL0     N97335   7.666   9.663   8.617  0.0754 -0.2044  0.1100
  738MOL0     C97336   8.445   8.972   8.287  0.0438  0.5115 -0.3907
  738MOL0     C97337   8.441   8.843   8.330  0.4309  0.1514  0.7391
  738MOL0     C97338   8.610   8.451   8.422 -1.0662  0.2027 -0.5644
  738MOL0     C97339   8.612   8.411   8.548 -0.3053  0.4016  0.3454
  738MOL0     C97340   8.645   8.268   8.571 -0.0410  0.0944  0.8949
  738MOL0     C97341   8.675   8.182   8.471 -0.7345 -0.6252 -0.4393
  738MOL0     O97342   8.707   8.052   8.502 -0.1901 -0.2567  1.0656
  738MOL0     C97343   8.723   7.960   8.386  0.5581 -0.1586 -1.1675
  738MOL0     C97344   8.785   7.824   8.425 -0.2924  0.0244 -0.8312
  738MOL0     C97345   8.681   7.749   8.508 -0.1803 -0.2716  0.4765
  738MOL0     C97346   8.706   7.596   8.498  0.4250 -0.0153 -0.0958
  738MOL0     C97347   8.639   7.530   8.610 -0.7253  0.4469  0.1046
  738MOL0     C97348   8.584   7.462   8.704  0.7341 -0.3310 -0.1957
  738MOL0     C97349   8.678   8.235   8.339  0.4813  0.0431 -0.6943
  738MOL0     C97350   8.636   8.358   8.321  0.2254 -0.2306  0.5176
  738MOL0     H97351   8.625   8.878   8.611 -3.8585 -1.3072  1.3147
  738MOL0     H97352   8.635   9.113   8.520  1.4555 -0.1486 -2.3268
  738MOL0     H97353   8.357   9.275   8.405  0.2366  0.8876  0.4786
  738MOL0     H97354   8.301   9.185   8.265 -1.2981  0.5106  0.0091
  738MOL0     H97355   8.385   9.372   8.112  2.3246  2.1202 -0.9930
  738MOL0     H97356   8.459   9.448   8.257  0.8582 -0.0419 -4.5722
  738MOL0     H97357   8.174   9.394   8.201 -0.3069 -0.3288  2.9121
  738MOL0     H97358   8.250   9.544   8.154  1.6277 -0.9021 -0.8055
  738MOL0     H97359   8.181   9.436   8.443 -0.6443  0.2281  0.5160
  738MOL0     H97360   8.308   9.558   8.420 -0.6789  0.8661 -2.1158
  738MOL0     H97361   8.033   9.605   8.298  0.2872  0.5786 -0.4418
  738MOL0     H97362   8.175   9.714   8.316 -0.5969  1.2109  1.5142
  738MOL0     H97363   8.138   9.690   8.579  1.0612 -3.1714  0.1699
  738MOL0     H97364   8.011   9.580   8.538 -3.4497 -0.5940 -4.9308
  738MOL0     H97365   8.010   9.865   8.463 -2.0624  2.1778  3.4776
  738MOL0     H97366   7.895   9.759   8.388 -0.2682 -5.3324  0.3114
  738MOL0     H97367   7.786   9.883   8.566 -0.9058 -1.0965  1.1510
  738MOL0     H97368   7.922   9.859   8.669 -0.0355  2.7932 -0.9236
  738MOL0     H97369   7.944   9.581   8.771  0.0282  0.3751 -0.9532
  738MOL0     H97370   7.647   9.356   8.859 -0.2659 -0.7094 -0.9257
  738MOL0     H97371   7.742   9.484   8.948  0.0516 -0.9877  0.3441
  738MOL0     H97372   7.940   9.342   8.813  2.0042 -6.4472  0.3391
  738MOL0     H97373   7.810   9.224   8.823  0.1448  0.4699 -1.8128
  738MOL0     H97374   7.923   9.352   9.084  0.7261 -3.0079  3.1365
  738MOL0     H97375   7.800   9.244   9.076 -1.4477  2.3912 -0.2102
  738MOL0     H97376   7.942   9.069   8.957  1.2942  1.0814 -1.8726
  738MOL0     H97377   7.994   9.111   9.119  0.8876 -0.6603  0.7500
  738MOL0     H97378   8.127   8.930   9.066  2.3738 -1.8652  2.7189
  738MOL0     H97379   8.315   8.799   9.062 -1.8030  1.2694  1.2739
  738MOL0     H97380   8.866   8.736   8.839 -2.7428 -0.1526  1.0006
  738MOL0     H97381   9.094   8.763   8.952  2.5890 -0.2035  1.5419
  738MOL0     H97382   9.277   8.806   9.087  0.9868 -0.9746  3.3902
  738MOL0     H97383   9.344   8.939   9.182 -1.2100  0.1722  0.6247
  738MOL0     H97384   9.272   9.077   8.959 -0.9238  0.7497  2.7573
  738MOL0     H97385   9.268   8.907   8.896 -0.3936 -1.0077  0.4036
  738MOL0     H97386   9.491   8.862   8.956 -0.2259 -0.0620  1.4731
  738MOL0     H97387   9.510   9.023   9.041  2.7723 -1.8418  0.2578
  738MOL0     H97388   9.487   8.959   8.742 -1.4101 -1.7834  0.7488
  738MOL0     H97389   9.474   9.125   8.804 -1.1190 -0.3286  0.3821
  738MOL0     H97390   9.707   8.933   8.866  0.2079  0.1401  2.3922
  738MOL0     H97391   9.706   9.096   8.918 -0.9989  1.4803 -0.2241
  738MOL0     H97392   9.848   9.094   8.714  0.4526  0.2650 -0.5170
  738MOL0     H97393   9.703   9.184   8.689 -0.6843 -0.3253 -0.9832
  738MOL0     H97394   9.697   8.874   8.640  1.0461  1.7237  3.7684
  738MOL0     H97395   9.607   9.003   8.553  0.1423  3.0726  0.5891
  738MOL0     H97396   9.795   8.899   8.432  1.4676 -1.2330  1.3922
  738MOL0     H97397   9.906   8.936   8.555  0.5803 -2.2068 -2.8107
  738MOL0     H97398   8.941   9.097   9.174 -2.4119  2.1158 -1.6840
  738MOL0     H97399   8.726   9.084   9.051 -0.8318 -1.4770  1.5397
  738MOL0     H97400   8.527   9.077   8.824 -1.3954  1.3492 -2.3705
  738MOL0     H97401   8.331   9.246   8.855 -3.9305 -0.6820 -1.2911
  738MOL0     H97402   8.418   8.987   8.183  2.7808 -3.0113 -1.8319
  738MOL0     H97403   8.384   8.767   8.277 -2.5363  3.4431 -1.2209
  738MOL0     H97404   8.589   8.468   8.637 -1.6732 -0.3467  0.4970
  738MOL0     H97405   8.644   8.234   8.674  3.3105 -0.0134  1.0088
  738MOL0     H97406   8.805   8.004   8.329  0.5361  0.5565 -0.6720
  738MOL0     H97407   8.632   7.973   8.326  0.8375 -0.2102 -1.6042
  738MOL0     H97408   8.813   7.771   8.333  1.1265  0.7607 -0.8509
  738MOL0     H97409   8.872   7.840   8.489  1.3881 -0.1192 -2.9507
  738MOL0     H97410   8.575   7.766   8.486 -0.2028 -2.1003 -1.0650
  738MOL0     H97411   8.702   7.783   8.610  0.8445 -0.7787  0.4394
  738MOL0     H97412   8.658   7.557   8.408  0.4191  0.3615 -0.2606
  738MOL0     H97413   8.812   7.570   8.500  0.0386 -2.1075 -2.3758
  738MOL0     H97414   8.555   7.410   8.793  2.6226 -0.2185  0.5403
  738MOL0     H97415   8.720   8.172   8.262 -1.0114 -2.4618  0.4350
  738MOL0     H97416   8.629   8.384   8.215  0.7121 -1.4482  0.1665
  739MOL0     O97417   6.091  10.470   2.072 -0.1835  0.4973 -1.0240
  739MOL0     C97418   6.120  10.361   2.023 -0.0335  0.6592 -0.1607
  739MOL0     O97419   6.067  10.315   1.908 -0.0220 -0.6192 -0.1407
  739MOL0     C97420   5.966  10.381   1.846  0.1174 -0.0513 -0.4100
  739MOL0     C97421   5.985  10.494   1.771  0.0324  0.1347  0.4705
  739MOL0     C97422   5.880  10.562   1.712 -0.2666  0.9479 -0.5847
  739MOL0     C97423   5.749  10.501   1.728 -0.2517  0.1904  0.2471
  739MOL0     O97424   5.647  10.570   1.660  0.2524 -0.3945  0.6660
  739MOL0     C97425   5.503  10.538   1.684 -0.0381  0.7991 -0.0709
  739MOL0     C97426   5.411  10.660   1.677 -0.5507 -0.4720 -0.6376
  739MOL0     C97427   5.428  10.755   1.793  0.0961  0.0304  0.9619
  739MOL0     C97428   5.558  10.831   1.796 -1.0433 -0.4804  0.1527
  739MOL0     C97429   5.579  10.881   1.942  0.0674 -0.2864  0.1452
  739MOL0     C97430   5.579  10.784   2.065  0.5374  0.0372 -1.4287
  739MOL0     C97431   5.660  10.659   2.050 -0.8426  0.8813  0.5857
  739MOL0     C97432   5.813  10.680   2.015 -0.3916  0.0139 -0.4028
  739MOL0     N97433   5.869  10.749   2.130  0.2596  0.4880  0.1429
  739MOL0     C97434   5.897  10.682   2.245  0.3437  0.3236 -0.4895
  739MOL0     C97435   5.964  10.777   2.313 -0.0611  1.8324  0.0501
  739MOL0     C97436   6.064  10.756   2.420 -0.3417 -0.5802  0.5574
  739MOL0     C97437   6.004  10.738   2.561  0.8634 -0.3730 -0.7017
  739MOL0     C97438   5.902  10.839   2.617  0.1888  0.1133 -0.0049
  739MOL0     C97439   5.966  10.953   2.680  0.6988 -1.5292 -0.5161
  739MOL0     O97440   6.039  10.911   2.792  0.6158  0.3587 -0.3563
  739MOL0     C97441   6.043  10.984   2.911  1.6534 -0.2164 -0.5096
  739MOL0     C97442   6.002  11.119   2.920 -0.3273 -0.0218  0.3777
  739MOL0     C97443   6.008  11.181   3.043 -0.2579  0.3314 -0.1177
  739MOL0     C97444   6.073  11.126   3.152  0.3657 -0.0176 -0.2629
  739MOL0     C97445   6.089  11.200   3.281  0.7007  0.4840  1.0722
  739MOL0     O97446   6.095  11.120   3.395  0.0665  0.4949 -0.3996
  739MOL0     C97447   6.093  11.164   3.529  0.3224  0.1271 -0.5699
  739MOL0     C97448   6.109  11.068   3.631 -0.0025 -0.1357  1.0481
  739MOL0     C97449   6.108  11.090   3.769  0.4539  0.4879 -1.1732
  739MOL0     C97450   6.071  11.213   3.815  0.0846  0.2883 -0.6197
  739MOL0     O97451   6.050  11.227   3.950 -1.2340  0.4938 -0.4306
  739MOL0     C97452   5.940  11.303   3.997  0.2008 -0.1580  0.1377
  739MOL0     C97453   5.980  11.363   4.127 -0.5248 -0.5081  0.3634
  739MOL0     C97454   6.063  11.483   4.115  0.6549  0.4426  0.2011
  739MOL0     C97455   6.126  11.516   4.241 -0.4082 -0.1751  0.0946
  739MOL0     C97456   6.206  11.652   4.232 -0.3592 -0.2654 -0.1875
  739MOL0     C97457   6.257  11.691   4.377  0.2185  0.2119 -0.0444
  739MOL0     C97458   6.356  11.804   4.372  0.1649 -0.6082  0.1539
  739MOL0     C97459   6.479  11.791   4.282 -1.0960 -0.7517 -0.2517
  739MOL0    Cl97460   6.589  11.934   4.274 -0.4433  0.3206 -0.3424
  739MOL0     C97461   6.049  11.315   3.722 -0.2547  0.4432  0.6531
  739MOL0     C97462   6.053  11.289   3.583 -0.3483 -0.1386  0.2353
  739MOL0     O97463   6.067  11.322   3.272 -0.5663 -0.2000 -0.8735
  739MOL0     C97464   6.123  11.002   3.133  1.3116  0.4410 -0.5475
  739MOL0     C97465   6.100  10.929   3.020 -0.3879  0.0753 -0.6076
  739MOL0     N97466   5.963  10.900   2.252 -0.1594  0.8001  0.3808
  739MOL0     N97467   5.898  10.881   2.138  0.3172 -0.1087 -0.4780
  739MOL0     C97468   5.727  10.378   1.793  0.1742 -0.5897 -0.1535
  739MOL0     C97469   5.842  10.315   1.846 -0.7175  0.0047  0.1477
  739MOL0     C97470   6.224  10.284   2.091  0.3329  0.0116 -0.1361
  739MOL0     C97471   6.284  10.176   2.032  1.1628  0.8103  1.2762
  739MOL0     C97472   6.390  10.110   2.096 -0.4005 -0.8106 -0.1772
  739MOL0     C97473   6.426  10.147   2.228 -0.2419  0.9903 -0.1643
  739MOL0     O97474   6.531  10.077   2.289  0.1623 -0.4207 -0.5188
  739MOL0     C97475   6.653  10.093   2.210  0.3837  0.5061  0.1665
  739MOL0     C97476   6.765  10.036   2.296  0.1339 -0.4843  0.2494
  739MOL0     C97477   6.905  10.052   2.219  0.9428  0.3324 -0.1346
  739MOL0     C97478   7.020  10.026   2.315  0.2645 -0.0990  0.8356
  739MOL0     C97479   7.142  10.055   2.247 -0.5370 -0.6953  0.1200
  739MOL0     C97480   7.241  10.106   2.191 -0.3408 -0.3435 -0.4407
  739MOL0     C97481   6.361  10.253   2.290 -0.4183 -0.9645 -0.2844
  739MOL0     C97482   6.265  10.320   2.221 -0.2274 -0.2935  0.0727
  739MOL0     H97483   6.088  10.523   1.754  0.5503 -0.6992  1.9546
  739MOL0     H97484   5.884  10.655   1.657 -3.1575  0.6946 -1.3985
  739MOL0     H97485   5.488  10.505   1.787 -1.4506  3.3755  0.6337
  739MOL0     H97486   5.476  10.454   1.620 -1.9087 -0.5595  2.3265
  739MOL0     H97487   5.305  10.633   1.670  0.0864 -2.9809 -1.5646
  739MOL0     H97488   5.423  10.712   1.582 -1.6292  0.1607 -0.4466
  739MOL0     H97489   5.405  10.706   1.888 -3.3570 -0.2435  0.1077
  739MOL0     H97490   5.345  10.825   1.780 -1.0880 -1.6538 -1.1521
  739MOL0     H97491   5.638  10.760   1.773 -0.5302 -0.0032  0.4326
  739MOL0     H97492   5.566  10.911   1.721  2.0305 -1.0749 -0.2963
  739MOL0     H97493   5.498  10.952   1.962 -0.8305 -0.9183 -1.0753
  739MOL0     H97494   5.670  10.940   1.948 -0.2715  0.1633  1.0743
  739MOL0     H97495   5.476  10.756   2.089  0.9709 -0.0465  0.5294
  739MOL0     H97496   5.617  10.842   2.150 -0.1856 -0.7525 -0.5319
  739MOL0     H97497   5.637  10.590   2.132  0.8906  0.7529  0.9961
  739MOL0     H97498   5.614  10.606   1.966  3.1006  0.9393 -1.8488
  739MOL0     H97499   5.820  10.737   1.922  2.0638 -2.1877 -1.6947
  739MOL0     H97500   5.869  10.590   1.985 -1.0899 -0.4777 -0.2547
  739MOL0     H97501   5.921  10.578   2.265  1.9141 -0.0150 -3.4323
  739MOL0     H97502   6.137  10.838   2.420 -0.3237 -0.5316 -1.6952
  739MOL0     H97503   6.129  10.671   2.394 -1.6682 -1.4434 -0.0411
  739MOL0     H97504   6.080  10.741   2.640 -1.3736  0.0682  1.5830
  739MOL0     H97505   5.969  10.634   2.555  0.3113 -0.1201 -2.7164
  739MOL0     H97506   5.842  10.879   2.534 -0.1635  2.2291  1.2115
  739MOL0     H97507   5.842  10.795   2.698  0.5970 -2.3476 -0.9428
  739MOL0     H97508   5.887  11.025   2.706  1.0987 -1.4400  0.5141
  739MOL0     H97509   6.039  11.008   2.619  2.5866  0.2026  2.9932
  739MOL0     H97510   5.958  11.170   2.835 -3.3716 -1.6159  0.8548
  739MOL0     H97511   5.961  11.278   3.058 -1.9804 -0.3677 -0.7643
  739MOL0     H97512   6.121  10.963   3.607 -0.1462 -0.2362  1.4045
  739MOL0     H97513   6.146  11.005   3.826  1.3139  1.0192 -0.9266
  739MOL0     H97514   5.852  11.239   4.008  1.0403 -1.5070 -0.7071
  739MOL0     H97515   5.918  11.385   3.927  0.7426 -0.7289 -0.7266
  739MOL0     H97516   6.015  11.289   4.199  1.7144 -1.3650 -1.4973
  739MOL0     H97517   5.890  11.405   4.174 -0.9523 -0.2279 -0.6764
  739MOL0     H97518   6.002  11.569   4.087  1.4483  0.6012 -1.1335
  739MOL0     H97519   6.139  11.464   4.038  0.2486 -4.4635  0.6985
  739MOL0     H97520   6.056  11.525   4.325  2.0117  1.3393  2.0953
  739MOL0     H97521   6.196  11.436   4.267  1.0934 -0.2699 -3.5501
  739MOL0     H97522   6.147  11.724   4.175 -1.0466  1.6831  2.7419
  739MOL0     H97523   6.296  11.635   4.173 -0.2202 -0.7487  0.1525
  739MOL0     H97524   6.300  11.603   4.425  1.5491  0.6118 -0.4731
  739MOL0     H97525   6.169  11.718   4.436  0.6242  1.2219  0.1178
  739MOL0     H97526   6.300  11.898   4.364 -1.2750 -0.7543  5.0070
  739MOL0     H97527   6.406  11.811   4.469  2.4154 -2.0126 -0.8339
  739MOL0     H97528   6.464  11.766   4.177  1.5865 -1.4284 -0.5378
  739MOL0     H97529   6.540  11.706   4.310  0.5944  0.2997 -0.6244
  739MOL0     H97530   6.019  11.413   3.755  0.5323  0.8233  0.2710
  739MOL0     H97531   6.036  11.376   3.521  3.3916  1.9378  1.8179
  739MOL0     H97532   6.171  10.943   3.210  0.0740  1.0680  0.7495
  739MOL0     H97533   6.125  10.825   3.038 -0.9246  0.2013  1.1174
  739MOL0     H97534   5.626  10.340   1.794  0.3357 -1.0327 -0.2604
  739MOL0     H97535   5.840  10.215   1.889  0.5459 -1.0921 -2.1546
  739MOL0     H97536   6.251  10.124   1.943 -0.4928 -1.0235  2.8702
  739MOL0     H97537   6.426  10.016   2.054  3.3400  0.9775 -1.3946
  739MOL0     H97538   6.674  10.200   2.206 -3.4832  1.4689  1.3930
  739MOL0     H97539   6.650  10.043   2.112 -1.4990  0.4739  0.2134
  739MOL0     H97540   6.769  10.101   2.383  2.0978  2.3397 -1.7612
  739MOL0     H97541   6.754   9.931   2.323 -0.3911 -0.8461 -1.2663
  739MOL0     H97542   6.906  10.151   2.172 -0.1851 -0.5320 -2.0907
  739MOL0     H97543   6.907   9.980   2.137  1.2375  0.9493 -0.6824
  739MOL0     H97544   7.022  10.102   2.395 -1.2087  0.2499  0.5622
  739MOL0     H97545   7.006   9.924   2.352 -0.2731  1.2476  4.9218
  739MOL0     H97546   7.330  10.155   2.159  0.8190 -0.5542  2.1730
  739MOL0     H97547   6.386  10.303   2.383 -0.4709  0.4482 -0.9958
  739MOL0     H97548   6.228  10.411   2.266  2.4925  0.0826  1.7460
  740MOL0     O97549   4.409   6.142   1.503 -0.0634 -0.4088 -0.8441
  740MOL0     C97550   4.351   6.092   1.596 -0.1155  0.3136  0.7875
  740MOL0     O97551   4.363   6.129   1.730 -0.7059  0.2168  0.9413
  740MOL0     C97552   4.395   6.266   1.752  0.7253  0.8369 -0.0504
  740MOL0     C97553   4.473   6.297   1.871  0.1202 -0.5627 -0.1537
  740MOL0     C97554   4.513   6.426   1.888  0.3169  0.2661  0.2841
  740MOL0     C97555   4.483   6.527   1.792 -0.1217  1.0889 -0.0208
  740MOL0     O97556   4.541   6.646   1.801 -0.2312 -0.8218 -0.7047
  740MOL0     C97557   4.523   6.764   1.712  0.6706  0.1315  0.0297
  740MOL0     C97558   4.597   6.883   1.751  0.2845  0.0704  0.1714
  740MOL0     C97559   4.549   6.938   1.885  0.1850 -0.4005  0.3242
  740MOL0     C97560   4.606   7.076   1.928  0.7131 -0.1774  0.3045
  740MOL0     C97561   4.526   7.131   2.050 -0.7847  0.2856  0.8725
  740MOL0     C97562   4.562   7.269   2.088 -0.3599 -0.1441  0.2384
  740MOL0     C97563   4.689   7.270   2.176  0.2083  0.0629  0.6248
  740MOL0     C97564   4.709   7.408   2.236  0.3207  0.4208  0.0345
  740MOL0     N97565   4.813   7.483   2.169 -0.8140 -0.2197  0.8517
  740MOL0     C97566   4.799   7.555   2.056 -0.1838 -0.3159  0.4195
  740MOL0     C97567   4.926   7.601   2.017 -0.0372 -0.6318 -0.8896
  740MOL0     C97568   4.936   7.684   1.886  0.4463  0.5895 -0.2011
  740MOL0     C97569   4.841   7.796   1.890 -0.7550 -0.7077 -0.2503
  740MOL0     C97570   4.884   7.910   1.981 -0.7147 -0.5610 -0.6851
  740MOL0     C97571   5.032   7.957   1.963  0.6615  0.2686 -0.3782
  740MOL0     O97572   5.032   8.076   2.039 -0.8918  0.0783 -0.6563
  740MOL0     C97573   5.029   8.066   2.183  0.4370  0.0255 -1.0233
  740MOL0     C97574   5.107   7.971   2.250  0.0036  0.3729 -0.6072
  740MOL0     C97575   5.119   7.973   2.387  0.2931  0.2305 -0.5059
  740MOL0     C97576   5.060   8.075   2.472  0.4086 -0.0312  0.1713
  740MOL0     C97577   5.091   8.078   2.614 -0.9059  0.1327  0.6657
  740MOL0     O97578   5.155   7.968   2.675  1.3196  0.2065  0.3434
  740MOL0     C97579   5.195   7.980   2.805 -0.2197  0.0281 -0.1256
  740MOL0     C97580   5.186   7.868   2.890  0.7364  0.2062  0.9064
  740MOL0     C97581   5.214   7.877   3.023 -0.2981 -1.3407 -0.6218
  740MOL0     C97582   5.252   8.003   3.079 -1.2203 -1.0661  0.9821
  740MOL0     O97583   5.306   8.018   3.200 -0.1081 -0.2299  0.3019
  740MOL0     C97584   5.300   7.911   3.292  0.4135 -0.4075 -0.4706
  740MOL0     C97585   5.331   7.964   3.430 -0.3067  0.7676  0.1904
  740MOL0     C97586   5.391   7.852   3.518  0.6570  0.2984  0.6981
  740MOL0     C97587   5.386   7.877   3.673  0.6007 -0.0503  0.1627
  740MOL0     C97588   5.415   7.753   3.753  0.4719  0.4394 -0.6270
  740MOL0     C97589   5.424   7.773   3.900 -0.3947  0.9088 -0.5712
  740MOL0     C97590   5.460   7.647   3.979 -0.0230  0.0856  0.0315
  740MOL0     C97591   5.359   7.539   3.990  0.1823 -0.2396  0.0239
  740MOL0    Cl97592   5.442   7.409   4.104  0.2181  0.3680  0.1279
  740MOL0     C97593   5.276   8.106   2.994 -0.2050  0.5372  0.8352
  740MOL0     C97594   5.261   8.097   2.858  1.2479 -0.4075 -0.1429
  740MOL0     O97595   5.058   8.178   2.674 -0.3691  0.3805  0.6567
  740MOL0     C97596   4.976   8.166   2.408 -0.3243  0.1335 -0.1740
  740MOL0     C97597   4.959   8.161   2.265  0.1936 -0.0745 -0.2041
  740MOL0     N97598   5.012   7.566   2.122 -0.0237 -0.8095  0.6130
  740MOL0     N97599   4.944   7.501   2.211 -0.4792  0.9083  0.2109
  740MOL0     C97600   4.383   6.504   1.694 -0.8772  0.0584 -1.7847
  740MOL0     C97601   4.342   6.374   1.672  0.7401  0.2485  0.9010
  740MOL0     C97602   4.237   6.003   1.570  0.0010  0.9851  0.3498
  740MOL0     C97603   4.164   5.921   1.663 -0.4225  0.4737  0.1717
  740MOL0     C97604   4.056   5.841   1.620 -0.6664  0.4499 -0.2622
  740MOL0     C97605   4.031   5.818   1.489 -0.0975  0.5821 -0.4311
  740MOL0     O97606   3.954   5.713   1.435 -0.2933 -1.0680 -0.0556
  740MOL0     C97607   3.883   5.627   1.526 -0.1710  0.1716 -0.1385
  740MOL0     C97608   3.772   5.574   1.442  0.3649 -1.2967  0.6129
  740MOL0     C97609   3.661   5.501   1.512  0.1835 -1.1479  0.3510
  740MOL0     C97610   3.534   5.518   1.420 -0.0447 -0.0794  1.1062
  740MOL0     C97611   3.425   5.432   1.482  0.2227  0.2795 -0.6045
  740MOL0     C97612   3.328   5.375   1.523  0.1537 -0.0489  0.5225
  740MOL0     C97613   4.097   5.903   1.404 -0.7351  0.7176 -0.8659
  740MOL0     C97614   4.195   5.992   1.436 -0.4949 -0.1689 -0.0849
  740MOL0     H97615   4.504   6.220   1.940 -0.2580 -0.0722  0.5772
  740MOL0     H97616   4.581   6.450   1.970 -1.0038  2.8713  0.7320
  740MOL0     H97617   4.415   6.783   1.704  0.4745 -1.1386 -0.6462
  740MOL0     H97618   4.549   6.750   1.606 -2.8095  1.9015 -1.2379
  740MOL0     H97619   4.584   6.956   1.670 -1.4616 -1.0048 -0.5756
  740MOL0     H97620   4.695   6.838   1.771  0.3513  0.0095 -0.2778
  740MOL0     H97621   4.567   6.856   1.956  1.7440  0.0231  0.4643
  740MOL0     H97622   4.440   6.944   1.880  0.2203 -0.8617 -2.2329
  740MOL0     H97623   4.714   7.056   1.928  0.8623  0.5276  1.7888
  740MOL0     H97624   4.594   7.146   1.845 -1.1137 -0.6837  0.1099
  740MOL0     H97625   4.533   7.068   2.139 -3.5457  2.0936  2.5173
  740MOL0     H97626   4.421   7.135   2.017 -0.2841 -3.4251 -1.8743
  740MOL0     H97627   4.472   7.308   2.137 -0.0780  0.9868 -0.1149
  740MOL0     H97628   4.588   7.331   2.002  2.7588 -1.6367 -0.0292
  740MOL0     H97629   4.683   7.202   2.261 -1.3530 -2.3114 -1.2643
  740MOL0     H97630   4.776   7.242   2.116 -1.5434  0.5607 -2.2947
  740MOL0     H97631   4.747   7.385   2.336  0.6992 -3.2543 -0.8031
  740MOL0     H97632   4.613   7.459   2.234 -0.7246 -1.3700 -3.7250
  740MOL0     H97633   4.713   7.572   1.993  0.0102 -3.7678 -1.0156
  740MOL0     H97634   4.904   7.616   1.806  0.1635 -0.2231  0.5905
  740MOL0     H97635   5.038   7.722   1.871 -0.2514  1.5842 -3.0267
  740MOL0     H97636   4.739   7.765   1.912 -0.9142 -0.6950 -0.9235
  740MOL0     H97637   4.843   7.841   1.790 -2.5574 -1.4784 -0.6585
  740MOL0     H97638   4.808   7.984   1.954 -0.5946  0.4731  1.5685
  740MOL0     H97639   4.869   7.869   2.081 -0.3893 -2.2096 -1.2769
  740MOL0     H97640   5.049   7.975   1.857 -2.0474  1.9496 -0.6064
  740MOL0     H97641   5.105   7.883   1.999  0.6084 -0.0183 -0.8500
  740MOL0     H97642   5.175   7.901   2.202  0.0693 -2.0779  2.6990
  740MOL0     H97643   5.178   7.895   2.434 -0.4364  1.2649  2.3434
  740MOL0     H97644   5.151   7.774   2.851  0.1313 -0.3424  2.6684
  740MOL0     H97645   5.219   7.785   3.081 -2.6067 -0.1837  1.5888
  740MOL0     H97646   5.375   7.838   3.259 -0.8787 -1.0238 -2.2181
  740MOL0     H97647   5.206   7.855   3.296  1.5815 -2.4556 -0.0760
  740MOL0     H97648   5.239   7.995   3.480 -1.7884 -1.7064 -0.8028
  740MOL0     H97649   5.392   8.055   3.433  0.9210 -0.0328  0.3403
  740MOL0     H97650   5.490   7.854   3.473  1.0431  2.5478  1.5350
  740MOL0     H97651   5.343   7.754   3.504  1.9893 -0.2057 -0.5044
  740MOL0     H97652   5.466   7.946   3.699  0.4451  0.7286 -1.3571
  740MOL0     H97653   5.296   7.934   3.699  0.3867 -0.2167 -0.2019
  740MOL0     H97654   5.509   7.716   3.713  0.3909  0.2744 -0.6641
  740MOL0     H97655   5.331   7.684   3.744 -0.9123  1.5985  2.0157
  740MOL0     H97656   5.330   7.811   3.942 -1.8157 -0.1897 -2.5803
  740MOL0     H97657   5.508   7.839   3.923  0.4249 -0.7184  1.3525
  740MOL0     H97658   5.549   7.602   3.935  0.5253 -1.8120  2.7981
  740MOL0     H97659   5.485   7.662   4.085  0.8200 -4.6875  0.7267
  740MOL0     H97660   5.334   7.499   3.891  0.2093  2.5638 -1.1916
  740MOL0     H97661   5.270   7.580   4.037  0.6892  1.1172 -0.1715
  740MOL0     H97662   5.338   8.185   3.035 -0.3712  2.1520 -1.8457
  740MOL0     H97663   5.301   8.175   2.794 -0.4235 -0.0833 -0.8420
  740MOL0     H97664   4.915   8.234   2.467 -0.4874  0.0760 -0.2755
  740MOL0     H97665   4.879   8.221   2.223 -0.1380  0.4815  1.1635
  740MOL0     H97666   4.352   6.581   1.624 -1.4010  0.1509 -1.4572
  740MOL0     H97667   4.277   6.348   1.589  0.1603  2.7354  0.4737
  740MOL0     H97668   4.199   5.929   1.765  3.9716 -0.6945 -1.0019
  740MOL0     H97669   4.031   5.768   1.697 -0.4698 -0.2310 -0.8335
  740MOL0     H97670   3.856   5.689   1.613 -0.3709  2.6342 -1.8709
  740MOL0     H97671   3.943   5.540   1.553 -0.8328 -0.3237 -0.2384
  740MOL0     H97672   3.712   5.661   1.413  0.0925 -0.3722  3.5762
  740MOL0     H97673   3.799   5.504   1.363  0.4354  0.6062 -1.1538
  740MOL0     H97674   3.645   5.543   1.612  0.4454 -1.3625  0.4830
  740MOL0     H97675   3.691   5.397   1.529  1.2292 -0.8239  0.5628
  740MOL0     H97676   3.507   5.623   1.404  1.2922 -0.2898 -5.0397
  740MOL0     H97677   3.552   5.485   1.317 -2.6150  0.4484  0.4349
  740MOL0     H97678   3.240   5.316   1.540  0.0082  0.4052  1.3793
  740MOL0     H97679   4.082   5.874   1.301  2.7354  2.0628 -1.8611
  740MOL0     H97680   4.244   6.049   1.358  0.5713 -2.2996 -1.0842
  741MOL0     O97681   0.070   5.224   5.890 -0.7345 -0.0892  0.1227
  741MOL0     C97682  -0.042   5.261   5.894  0.3277 -0.3230  0.9075
  741MOL0     O97683  -0.115   5.312   5.783  0.5075 -0.1325  0.2851
  741MOL0     C97684  -0.059   5.319   5.664  0.1934 -0.4747  0.3530
  741MOL0     C97685  -0.133   5.271   5.556 -1.5018 -0.1854  0.2007
  741MOL0     C97686  -0.087   5.287   5.426  0.1076 -0.6068 -0.0656
  741MOL0     C97687   0.032   5.354   5.393 -0.9529  1.0407 -0.2082
  741MOL0     O97688   0.084   5.382   5.268 -1.0696 -0.8759  0.2032
  741MOL0     C97689   0.047   5.304   5.154  0.1581 -0.2148  0.2050
  741MOL0     C97690   0.151   5.296   5.048 -0.4922  0.4179  0.6498
  741MOL0     C97691   0.288   5.260   5.115  0.5634 -0.4211 -0.1746
  741MOL0     C97692   0.405   5.237   5.011 -0.5536 -0.9753 -0.1657
  741MOL0     C97693   0.545   5.226   5.074  0.7066 -0.2584 -1.0050
  741MOL0     C97694   0.658   5.188   4.979 -0.1945 -0.1229  0.0014
  741MOL0     C97695   0.796   5.191   5.048  0.3584  0.1693 -0.2515
  741MOL0     C97696   0.807   5.103   5.175  0.0633  0.6271 -0.5907
  741MOL0     N97697   0.948   5.097   5.235  1.3209 -1.1094  0.4970
  741MOL0     C97698   0.973   5.149   5.361 -0.3231  1.0629 -0.2534
  741MOL0     C97699   1.096   5.098   5.390  0.0240  0.2236  0.0168
  741MOL0     C97700   1.191   5.111   5.509 -0.0151  0.0860 -0.6538
  741MOL0     C97701   1.183   5.254   5.583 -0.0391 -0.3494  0.6086
  741MOL0     C97702   1.245   5.369   5.497  0.1492 -0.0705 -0.4468
  741MOL0     C97703   1.295   5.486   5.587 -0.7869 -0.1211 -0.2152
  741MOL0     O97704   1.419   5.437   5.659  0.6583  0.1683  0.2820
  741MOL0     C97705   1.444   5.466   5.790 -0.0892  0.4527 -0.0409
  741MOL0     C97706   1.398   5.570   5.855  0.3578 -0.8886  0.3479
  741MOL0     C97707   1.431   5.592   5.991 -0.7658 -0.6859 -0.5518
  741MOL0     C97708   1.521   5.502   6.054  0.0419  0.8451  1.0708
  741MOL0     C97709   1.565   5.511   6.204  0.5854  0.9485  0.7901
  741MOL0     O97710   1.611   5.408   6.279 -0.1891  0.3714  0.3606
  741MOL0     C97711   1.670   5.417   6.396 -0.5655 -0.6765 -0.5133
  741MOL0     C97712   1.762   5.520   6.439  0.4818 -0.8613  0.6660
  741MOL0     C97713   1.805   5.533   6.570 -0.6333 -0.0195 -0.7189
  741MOL0     C97714   1.768   5.447   6.669 -0.6889  0.1196 -0.0724
  741MOL0     O97715   1.817   5.470   6.798  1.0779  0.5533  0.1119
  741MOL0     C97716   1.717   5.439   6.900  0.0525 -0.2373  0.0368
  741MOL0     C97717   1.744   5.536   7.019  1.3762 -0.9951 -0.2240
  741MOL0     C97718   1.729   5.685   6.981  0.4750 -0.0506 -0.4414
  741MOL0     C97719   1.775   5.766   7.096 -0.1073  0.4848  0.1059
  741MOL0     C97720   1.809   5.913   7.076 -0.4271  0.0162 -0.6831
  741MOL0     C97721   1.686   5.988   7.041  0.8462 -0.9023  0.9134
  741MOL0     C97722   1.688   6.143   7.034 -0.5720  0.0568  0.1671
  741MOL0     C97723   1.546   6.201   7.055 -1.0389  0.4284  0.3938
  741MOL0    Cl97724   1.557   6.379   7.036 -0.1723 -0.1960  0.2357
  741MOL0     C97725   1.677   5.342   6.637  0.6198  0.6637 -0.4463
  741MOL0     C97726   1.639   5.331   6.501  0.1834 -0.4524 -0.4079
  741MOL0     O97727   1.557   5.621   6.248  0.5828 -0.4259 -0.5554
  741MOL0     C97728   1.576   5.399   5.973  0.2768 -0.0266  0.0535
  741MOL0     C97729   1.534   5.389   5.840 -0.6400 -0.0933  0.2368
  741MOL0     N97730   1.141   5.033   5.280 -0.0130  0.4752  0.6445
  741MOL0     N97731   1.050   5.032   5.182 -0.2502  0.5076 -1.1833
  741MOL0     C97732   0.114   5.379   5.500 -1.0545  1.1175  0.8760
  741MOL0     C97733   0.069   5.380   5.636  0.7236 -0.7025 -0.5271
  741MOL0     C97734  -0.132   5.243   6.005 -0.0432  0.2284 -0.7009
  741MOL0     C97735  -0.271   5.269   6.016  0.5462 -0.3220 -0.3409
  741MOL0     C97736  -0.346   5.250   6.126  0.5008 -0.1056 -1.1199
  741MOL0     C97737  -0.292   5.187   6.242  0.1074  0.0616  0.7506
  741MOL0     O97738  -0.370   5.158   6.351 -0.2666  0.2568  0.0766
  741MOL0     C97739  -0.333   5.086   6.475 -0.2908 -0.6173  0.5401
  741MOL0     C97740  -0.304   4.933   6.465  0.7787  0.0288 -0.2912
  741MOL0     C97741  -0.257   4.886   6.602 -0.3916  0.2543 -0.6707
  741MOL0     C97742  -0.143   4.788   6.598 -0.1284  0.1564 -0.0233
  741MOL0     C97743  -0.033   4.856   6.532 -0.6785  0.3602  0.9770
  741MOL0     C97744   0.057   4.907   6.465  0.4536  0.2834 -0.2734
  741MOL0     C97745  -0.156   5.148   6.228  0.4463  0.0017  0.1263
  741MOL0     C97746  -0.085   5.169   6.110 -0.0652  0.3022 -0.6267
  741MOL0     H97747  -0.231   5.227   5.566 -1.5734 -0.5025 -1.5701
  741MOL0     H97748  -0.160   5.261   5.349  1.7096 -2.4885 -1.0351
  741MOL0     H97749  -0.050   5.346   5.122 -0.2446 -0.2855  1.2993
  741MOL0     H97750   0.041   5.201   5.191 -2.3421 -0.4175 -0.5612
  741MOL0     H97751   0.147   5.388   4.988 -0.0849 -1.8645 -3.2229
  741MOL0     H97752   0.104   5.217   4.989 -1.7666  0.8765  1.0077
  741MOL0     H97753   0.252   5.177   5.177 -2.2956  3.1957  3.5420
  741MOL0     H97754   0.310   5.341   5.185 -0.7421 -0.8159  0.7314
  741MOL0     H97755   0.382   5.152   4.945 -0.7938 -1.7052  0.8286
  741MOL0     H97756   0.407   5.331   4.956  2.3124 -0.0384  1.3371
  741MOL0     H97757   0.532   5.149   5.151 -0.5195  1.1246  0.2513
  741MOL0     H97758   0.579   5.319   5.122  0.5467 -1.5212  1.7818
  741MOL0     H97759   0.651   5.253   4.891 -4.5014  2.7279  2.0953
  741MOL0     H97760   0.648   5.084   4.947 -2.3837 -0.2208  0.8239
  741MOL0     H97761   0.877   5.167   4.978  0.2569 -0.5000 -0.1432
  741MOL0     H97762   0.824   5.287   5.094  0.2370 -0.7952  1.9585
  741MOL0     H97763   0.787   5.000   5.146 -0.4872  0.3574  0.6961
  741MOL0     H97764   0.737   5.127   5.256  1.7643  0.0462  1.1110
  741MOL0     H97765   0.922   5.219   5.427  1.4194  1.7428  0.4518
  741MOL0     H97766   1.298   5.092   5.490 -0.2547 -0.9759 -1.0287
  741MOL0     H97767   1.166   5.034   5.583 -0.2622  2.2998  1.7105
  741MOL0     H97768   1.233   5.255   5.681  2.0020  1.5644 -0.3700
  741MOL0     H97769   1.079   5.267   5.614 -0.6013  1.0636 -1.6359
  741MOL0     H97770   1.319   5.333   5.425  0.2187  0.1078 -0.4644
  741MOL0     H97771   1.168   5.418   5.437  0.4454  3.5911  1.8502
  741MOL0     H97772   1.212   5.509   5.654  0.1547 -1.0603  1.3318
  741MOL0     H97773   1.332   5.569   5.526  4.3004 -0.9270  1.2985
  741MOL0     H97774   1.329   5.635   5.801  0.1641 -1.5583 -0.2190
  741MOL0     H97775   1.387   5.663   6.060 -1.3915 -0.5158 -1.1097
  741MOL0     H97776   1.800   5.591   6.366 -2.1155  2.9389  2.6254
  741MOL0     H97777   1.884   5.603   6.597 -0.2638 -0.7051  0.0246
  741MOL0     H97778   1.729   5.338   6.940 -0.4204  0.1957  1.3366
  741MOL0     H97779   1.618   5.462   6.859 -0.0995  0.3450  0.7225
  741MOL0     H97780   1.847   5.519   7.051  1.1429 -0.7254  0.7046
  741MOL0     H97781   1.672   5.509   7.096 -1.9856  0.8712 -2.4416
  741MOL0     H97782   1.622   5.702   6.966 -0.0551 -0.5037  2.3533
  741MOL0     H97783   1.789   5.724   6.898 -0.0246 -1.9596 -1.7685
  741MOL0     H97784   1.704   5.760   7.179  2.1103 -2.0851  2.0044
  741MOL0     H97785   1.866   5.728   7.144  1.0964  0.3561 -2.1476
  741MOL0     H97786   1.893   5.936   7.010 -0.6987  1.4156 -0.5758
  741MOL0     H97787   1.841   5.961   7.169  0.8327  1.1284 -1.6612
  741MOL0     H97788   1.610   5.958   7.115 -4.0135  2.6818 -2.0191
  741MOL0     H97789   1.649   5.969   6.939 -0.2470  2.1188  0.6615
  741MOL0     H97790   1.747   6.176   7.120 -0.1571 -1.3121  0.4451
  741MOL0     H97791   1.729   6.189   6.944  1.3815  3.6724  2.6739
  741MOL0     H97792   1.514   6.170   7.155 -0.7259 -2.7328 -0.3743
  741MOL0     H97793   1.474   6.156   6.987  2.7934 -5.4246 -0.4986
  741MOL0     H97794   1.636   5.262   6.698  0.4681 -0.6345 -2.1892
  741MOL0     H97795   1.572   5.247   6.484 -1.1645  0.5875 -0.4018
  741MOL0     H97796   1.645   5.321   6.007 -3.8290 -3.0340  2.4254
  741MOL0     H97797   1.583   5.314   5.779  3.5660  2.2647  0.3181
  741MOL0     H97798   0.217   5.403   5.473  0.1668 -0.9530  3.1654
  741MOL0     H97799   0.112   5.411   5.731 -3.7993  0.0370  1.5565
  741MOL0     H97800  -0.321   5.316   5.932  0.1547 -0.7952 -0.3788
  741MOL0     H97801  -0.453   5.263   6.130  0.1801 -2.1298 -2.0251
  741MOL0     H97802  -0.406   5.111   6.552 -2.1437  0.7882 -1.5558
  741MOL0     H97803  -0.236   5.122   6.509  1.9625 -1.6966 -4.0145
  741MOL0     H97804  -0.393   4.873   6.443  1.3143 -1.8111  2.0699
  741MOL0     H97805  -0.235   4.913   6.383  1.2259 -1.9515  0.5064
  741MOL0     H97806  -0.345   4.838   6.647 -1.2715  2.3792 -0.0129
  741MOL0     H97807  -0.236   4.967   6.672 -0.1262 -1.3705  1.2253
  741MOL0     H97808  -0.105   4.746   6.691  1.1856  1.7906  0.2126
  741MOL0     H97809  -0.183   4.704   6.539 -1.6151  0.5334  0.3936
  741MOL0     H97810   0.148   4.935   6.416  2.6439  1.4583  4.0108
  741MOL0     H97811  -0.128   5.075   6.303 -1.0109 -2.1622 -1.3212
  741MOL0     H97812   0.014   5.124   6.117 -0.5254 -0.4359  1.8480
  742MOL0     O97813   7.843  10.100   3.191 -0.1143  0.2800 -0.2931
  742MOL0     C97814   7.896  10.199   3.235  0.4621 -0.0471 -0.2978
  742MOL0     O97815   7.847  10.325   3.236  1.0853  0.2807  0.1353
  742MOL0     C97816   7.717  10.346   3.194  0.8133 -0.5967 -0.9225
  742MOL0     C97817   7.613  10.252   3.198 -0.3581  0.2350 -0.5593
  742MOL0     C97818   7.486  10.288   3.160  0.0801 -0.0791 -0.0950
  742MOL0     C97819   7.464  10.424   3.119  0.4519 -0.3219 -0.0499
  742MOL0     O97820   7.349  10.483   3.089  0.9062  0.0918  0.2977
  742MOL0     C97821   7.223  10.405   3.082  0.0603  0.3139  0.2472
  742MOL0     C97822   7.114  10.454   3.183 -0.0492 -0.1971  0.2320
  742MOL0     C97823   7.101  10.611   3.190 -0.5463  0.7201  0.3819
  742MOL0     C97824   7.021  10.652   3.308 -0.0890  0.0722 -1.0395
  742MOL0     C97825   6.880  10.604   3.330  0.7875  0.6175  0.4247
  742MOL0     C97826   6.819  10.687   3.445  1.0435 -0.2516 -0.4469
  742MOL0     C97827   6.669  10.684   3.461 -0.4303  0.7632 -0.4130
  742MOL0     C97828   6.608  10.778   3.358 -0.4365  0.7311  0.8029
  742MOL0     N97829   6.461  10.750   3.326 -0.1212 -0.3219  0.6282
  742MOL0     C97830   6.360  10.752   3.418  0.7215 -0.5756 -0.1555
  742MOL0     C97831   6.255  10.685   3.357 -0.5874 -0.0235  0.4277
  742MOL0     C97832   6.120  10.656   3.416 -0.4435 -0.1167  0.2393
  742MOL0     C97833   6.012  10.745   3.353  1.7619  0.1585 -0.0496
  742MOL0     C97834   5.871  10.728   3.409  1.0147  0.2821 -0.2706
  742MOL0     C97835   5.832  10.805   3.532  0.4346 -0.7107 -0.1584
  742MOL0     O97836   5.909  10.769   3.651 -0.1105  0.3166  0.5159
  742MOL0     C97837   5.867  10.823   3.771 -0.8009  1.3984  1.2837
  742MOL0     C97838   5.877  10.737   3.876  0.3552  0.4927  0.1731
  742MOL0     C97839   5.837  10.772   4.013  0.3019  0.5163 -0.3597
  742MOL0     C97840   5.778  10.898   4.025  0.4494 -0.7506 -0.5175
  742MOL0     C97841   5.715  10.945   4.151 -0.2506 -0.1567  1.1519
  742MOL0     O97842   5.630  11.052   4.147 -0.0865  0.2577 -0.6770
  742MOL0     C97843   5.578  11.096   4.270  0.1358  0.1027 -0.0953
  742MOL0     C97844   5.437  11.095   4.291 -0.2932 -0.2629  0.9406
  742MOL0     C97845   5.376  11.155   4.397  0.1337  0.0768  0.2187
  742MOL0     C97846   5.451  11.198   4.508 -0.0978 -0.3689  0.8541
  742MOL0     O97847   5.399  11.230   4.625 -0.5744 -0.2271 -0.7376
  742MOL0     C97848   5.456  11.342   4.702  0.7085  0.5836  0.3617
  742MOL0     C97849   5.334  11.404   4.759  0.3085  0.7089  0.3632
  742MOL0     C97850   5.270  11.483   4.638 -0.3571 -1.1969 -0.7574
  742MOL0     C97851   5.123  11.510   4.652  0.9625  0.5453 -0.6176
  742MOL0     C97852   5.077  11.591   4.781  0.2416  0.1439 -0.4721
  742MOL0     C97853   4.922  11.595   4.779 -0.3374  0.1319 -0.0314
  742MOL0     C97854   4.876  11.700   4.889 -0.6172  0.4678  0.6244
  742MOL0     C97855   4.779  11.818   4.846 -0.6447 -0.7741  0.9475
  742MOL0    Cl97856   4.842  11.977   4.914  0.3456 -0.4388  0.3469
  742MOL0     C97857   5.593  11.176   4.497  0.4276  0.2722 -0.1181
  742MOL0     C97858   5.657  11.141   4.379  0.0276  0.0258  0.8727
  742MOL0     O97859   5.744  10.884   4.250 -0.3212  1.1728  0.1574
  742MOL0     C97860   5.765  10.980   3.921  0.6773 -0.2578  0.7333
  742MOL0     C97861   5.810  10.948   3.789 -0.6830  0.6371  0.3079
  742MOL0     N97862   6.292  10.639   3.229 -0.7097  0.2698  0.4022
  742MOL0     N97863   6.418  10.683   3.216  0.1790  0.1892  0.9420
  742MOL0     C97864   7.567  10.520   3.122 -0.0021 -0.1033 -0.5047
  742MOL0     C97865   7.693  10.476   3.150 -0.2423  0.5227 -0.9267
  742MOL0     C97866   8.022  10.165   3.315 -0.1916  0.2131 -0.9095
  742MOL0     C97867   8.066  10.034   3.347  0.5144 -0.4707 -0.4547
  742MOL0     C97868   8.175  10.009   3.431 -0.0910 -0.5937  0.2914
  742MOL0     C97869   8.241  10.122   3.498  0.7024 -0.2197 -0.1880
  742MOL0     O97870   8.331  10.099   3.603  0.1544  0.1203  0.3380
  742MOL0     C97871   8.419  10.202   3.644 -0.6713 -0.4583 -0.1657
  742MOL0     C97872   8.344  10.284   3.751 -0.2409 -0.2958  0.9499
  742MOL0     C97873   8.431  10.403   3.797  0.1020 -0.3351 -0.3354
  742MOL0     C97874   8.373  10.436   3.941  0.3018 -0.4075  0.0229
  742MOL0     C97875   8.473  10.518   4.007  0.4772  0.7512  0.9430
  742MOL0     C97876   8.537  10.605   4.066  0.5817 -0.3623 -0.2071
  742MOL0     C97877   8.211  10.248   3.447  0.0969 -0.8199  1.2014
  742MOL0     C97878   8.103  10.273   3.364  0.7615 -0.0418 -1.1084
  742MOL0     H97879   7.625  10.148   3.227 -1.3863 -0.4597 -2.4511
  742MOL0     H97880   7.405  10.216   3.169  0.2474 -0.7509 -3.0365
  742MOL0     H97881   7.236  10.297   3.096 -0.2902  0.0079 -1.5489
  742MOL0     H97882   7.173  10.405   2.985  1.5011  0.9077 -0.5232
  742MOL0     H97883   7.157  10.423   3.279  0.6431  0.0195  0.0011
  742MOL0     H97884   7.020  10.400   3.177  0.0389 -0.5855  1.8160
  742MOL0     H97885   7.058  10.645   3.095 -1.1538  0.2600  0.4829
  742MOL0     H97886   7.197  10.661   3.203 -0.6833  1.1723 -0.3266
  742MOL0     H97887   7.077  10.638   3.400  1.7958  6.4433 -0.7459
  742MOL0     H97888   6.999  10.759   3.299 -0.9768  0.0848  0.9396
  742MOL0     H97889   6.867  10.501   3.362 -2.3039  2.0326  4.6591
  742MOL0     H97890   6.824  10.628   3.239  1.9316  1.7970 -0.0006
  742MOL0     H97891   6.824  10.794   3.420 -0.4536 -0.2262 -0.7340
  742MOL0     H97892   6.870  10.661   3.539 -1.3356 -2.9946  0.1945
  742MOL0     H97893   6.633  10.584   3.435  1.8356  0.6775 -4.0339
  742MOL0     H97894   6.638  10.709   3.563  0.0769  1.7404 -0.4833
  742MOL0     H97895   6.660  10.756   3.265 -3.8804 -1.6605 -0.7883
  742MOL0     H97896   6.619  10.884   3.383  0.1383  2.0296 -3.9915
  742MOL0     H97897   6.357  10.804   3.513  0.8046 -1.9640  0.6321
  742MOL0     H97898   6.131  10.694   3.518  1.8265 -1.6316  0.6411
  742MOL0     H97899   6.083  10.553   3.419 -1.3877  0.1707  4.3471
  742MOL0     H97900   6.002  10.724   3.246 -2.7402 -1.1649  0.4491
  742MOL0     H97901   6.034  10.852   3.351  2.5265  0.0207  0.5146
  742MOL0     H97902   5.790  10.755   3.342 -1.2476  2.4514  3.0184
  742MOL0     H97903   5.846  10.627   3.442  1.1828 -0.1897 -1.5699
  742MOL0     H97904   5.728  10.779   3.553  1.0919 -4.2456 -0.5976
  742MOL0     H97905   5.854  10.907   3.501  1.9308 -1.5619 -2.1681
  742MOL0     H97906   5.925  10.642   3.855  0.4870 -0.1133  2.8172
  742MOL0     H97907   5.848  10.698   4.092  1.3276  1.9685  0.9241
  742MOL0     H97908   5.368  11.064   4.213  4.3427 -2.7283 -2.7171
  742MOL0     H97909   5.268  11.160   4.406 -0.2085  0.7968 -2.9129
  742MOL0     H97910   5.517  11.412   4.644  0.8707 -0.8141 -1.2126
  742MOL0     H97911   5.517  11.312   4.787  0.1855  1.6256  1.1311
  742MOL0     H97912   5.360  11.466   4.845  2.8358  1.0871 -0.5856
  742MOL0     H97913   5.266  11.320   4.781  0.1634  0.4972 -0.8173
  742MOL0     H97914   5.294  11.425   4.549  1.7055 -3.2429  1.0071
  742MOL0     H97915   5.316  11.581   4.621 -5.1141  2.1471  2.8308
  742MOL0     H97916   5.084  11.556   4.561  0.5775 -2.0875 -1.8864
  742MOL0     H97917   5.076  11.411   4.652  1.6628  0.2023 -1.3749
  742MOL0     H97918   5.129  11.687   4.769  1.0777  0.0626  1.9829
  742MOL0     H97919   5.109  11.556   4.879  2.7020  1.8748 -0.5516
  742MOL0     H97920   4.882  11.496   4.801 -1.0055  0.2366 -0.7474
  742MOL0     H97921   4.887  11.628   4.681  0.8831  2.5764  0.2631
  742MOL0     H97922   4.819  11.641   4.961  0.7771 -0.2631  1.1602
  742MOL0     H97923   4.951  11.740   4.958  0.7031  2.6723 -1.9027
  742MOL0     H97924   4.677  11.807   4.885 -1.6962  0.6873 -1.2095
  742MOL0     H97925   4.767  11.823   4.738 -3.1262 -0.4122  1.1809
  742MOL0     H97926   5.655  11.192   4.585  0.1317 -3.0263  0.8436
  742MOL0     H97927   5.765  11.142   4.389  0.0124  1.3115  1.0845
  742MOL0     H97928   5.724  11.080   3.938 -1.6217 -0.6341 -1.8446
  742MOL0     H97929   5.806  11.024   3.712  2.7890  0.7603  0.1069
  742MOL0     H97930   7.541  10.621   3.094 -1.4593 -0.9009 -2.2791
  742MOL0     H97931   7.770  10.551   3.153  0.7766 -0.4189 -2.4614
  742MOL0     H97932   8.012   9.944   3.321 -2.2115  1.0615 -0.4905
  742MOL0     H97933   8.208   9.908   3.452  2.9242 -0.6747 -3.8067
  742MOL0     H97934   8.460  10.264   3.564  0.0764 -0.3566  0.2794
  742MOL0     H97935   8.499  10.153   3.700  1.3971  1.9806 -0.7939
  742MOL0     H97936   8.250  10.318   3.708  1.6049  2.1316 -1.5336
  742MOL0     H97937   8.333  10.221   3.840 -0.1400 -1.2486  0.3077
  742MOL0     H97938   8.426  10.481   3.721  1.7272  0.1459  0.0210
  742MOL0     H97939   8.537  10.379   3.806  0.5816  2.1196  1.5567
  742MOL0     H97940   8.268  10.468   3.934 -0.4554 -2.7014  0.0417
  742MOL0     H97941   8.364  10.347   4.005  2.2710  1.4586  3.1886
  742MOL0     H97942   8.579  10.691   4.115 -0.1167  0.8612 -1.7011
  742MOL0     H97943   8.254  10.335   3.496  0.8665 -1.2562  1.3173
  742MOL0     H97944   8.081  10.377   3.344 -0.9109  0.0864  1.0318
  743MOL0     O97945   0.647   7.819   6.688  0.1414 -0.4289 -0.2562
  743MOL0     C97946   0.593   7.930   6.709  0.2271  0.7157  0.7501
  743MOL0     O97947   0.651   8.035   6.769  0.7774  0.0313  0.1781
  743MOL0     C97948   0.779   8.030   6.810  0.1303 -0.2854  0.9403
  743MOL0     C97949   0.817   8.099   6.924 -0.0532 -0.2566  0.4328
  743MOL0     C97950   0.949   8.116   6.972 -0.4814 -0.3953 -0.8451
  743MOL0     C97951   1.047   8.072   6.896 -0.3168  0.2036  0.3425
  743MOL0     O97952   1.177   8.119   6.915  0.1403 -0.0682 -0.6303
  743MOL0     C97953   1.275   8.018   6.920  0.3945 -0.8577  0.1186
  743MOL0     C97954   1.408   8.083   6.936 -0.2288  0.4699 -0.3643
  743MOL0     C97955   1.430   8.226   6.890 -0.8384  0.1752  0.2974
  743MOL0     C97956   1.579   8.251   6.905 -0.2461 -0.5415 -0.2713
  743MOL0     C97957   1.614   8.388   6.878 -0.5399 -0.1382 -0.2710
  743MOL0     C97958   1.592   8.441   6.732  0.4615  0.4260 -1.0489
  743MOL0     C97959   1.711   8.525   6.684  0.2288  0.1402  0.5039
  743MOL0     C97960   1.664   8.589   6.553  0.3992  0.7062 -0.3746
  743MOL0     N97961   1.695   8.510   6.429  0.6090 -0.3671  0.1222
  743MOL0     C97962   1.719   8.555   6.304  0.4853 -1.3525 -0.3208
  743MOL0     C97963   1.728   8.446   6.228  0.9577 -0.4318 -0.1752
  743MOL0     C97964   1.755   8.441   6.082 -0.8629 -0.3084  0.5088
  743MOL0     C97965   1.828   8.325   6.029  0.4250 -0.1350 -0.0711
  743MOL0     C97966   1.979   8.311   6.052  0.5030 -0.0418 -0.2204
  743MOL0     C97967   2.046   8.199   5.981 -0.7103  0.2455  0.3093
  743MOL0     O97968   2.056   8.259   5.848 -0.1672  0.3430 -0.2585
  743MOL0     C97969   2.172   8.234   5.782 -0.5820  0.0679  0.6231
  743MOL0     C97970   2.222   8.105   5.772  0.6106 -1.0711  0.3897
  743MOL0     C97971   2.338   8.068   5.702  0.0358 -1.4741  0.3391
  743MOL0     C97972   2.410   8.171   5.640 -0.1607  0.1270 -1.0052
  743MOL0     C97973   2.519   8.128   5.559  0.0821 -0.8331 -0.6581
  743MOL0     O97974   2.578   8.010   5.586  0.0315  0.0486  0.1984
  743MOL0     C97975   2.710   7.969   5.550  1.4082  0.2657 -0.4624
  743MOL0     C97976   2.751   7.833   5.528 -0.6380 -0.2027 -0.6290
  743MOL0     C97977   2.890   7.791   5.501  0.7412 -0.7049 -0.0615
  743MOL0     C97978   2.985   7.886   5.480  0.4036  0.6527  0.0111
  743MOL0     O97979   3.125   7.862   5.468  0.2384  0.0257 -0.3179
  743MOL0     C97980   3.172   7.752   5.544  0.0029  0.4986  0.2875
  743MOL0     C97981   3.326   7.737   5.512 -0.3761  0.2559 -0.0865
  743MOL0     C97982   3.350   7.723   5.367  0.2170  0.6302 -0.0945
  743MOL0     C97983   3.506   7.730   5.350  0.8293 -0.4962  0.8524
  743MOL0     C97984   3.549   7.697   5.207  0.1646  0.0209 -0.4492
  743MOL0     C97985   3.673   7.775   5.169 -0.3185  0.5451  0.5087
  743MOL0     C97986   3.735   7.718   5.042  0.4774 -0.0499  0.3206
  743MOL0     C97987   3.858   7.806   5.010  0.3453  0.3192 -0.0530
  743MOL0    Cl97988   3.917   7.749   4.855 -0.1148 -0.6063 -0.2483
  743MOL0     C97989   2.951   8.010   5.503 -0.8457 -0.6749  0.4481
  743MOL0     C97990   2.825   8.055   5.541  0.1556 -0.0626  0.4594
  743MOL0     O97991   2.546   8.213   5.473 -0.2183 -0.1270 -0.2036
  743MOL0     C97992   2.376   8.301   5.663  0.3320 -0.5464  0.1426
  743MOL0     C97993   2.261   8.336   5.730  0.0667  0.8636  1.1255
  743MOL0     N97994   1.713   8.329   6.311  0.2051 -0.2864 -0.7825
  743MOL0     N97995   1.703   8.370   6.426  0.5078  0.2352 -0.2321
  743MOL0     C97996   1.020   8.010   6.773  0.0654  0.2853 -0.2755
  743MOL0     C97997   0.886   7.981   6.734 -0.1490 -0.3268 -0.5279
  743MOL0     C97998   0.453   7.937   6.667 -0.0359 -0.2302 -0.2913
  743MOL0     C97999   0.378   8.054   6.703  0.0489 -0.4243  0.9644
  743MOL0     C98000   0.240   8.058   6.686  0.5540 -0.1290 -0.0093
  743MOL0     C98001   0.173   7.941   6.654  0.1739  0.3475 -0.8400
  743MOL0     O98002   0.033   7.942   6.638 -0.1534 -0.6038  0.1064
  743MOL0     C98003  -0.046   8.011   6.724  0.3175  0.0552  0.8779
  743MOL0     C98004  -0.184   7.925   6.732  0.1950  0.4058 -0.7743
  743MOL0     C98005  -0.250   7.898   6.602  0.6105 -0.1117  0.3610
  743MOL0     C98006  -0.332   7.772   6.601 -0.0993 -0.4074  0.0700
  743MOL0     C98007  -0.425   7.772   6.492 -0.2285  0.8514  0.2638
  743MOL0     C98008  -0.515   7.771   6.410  0.2414 -0.3133  0.5131
  743MOL0     C98009   0.245   7.826   6.622 -0.9873 -0.9016  0.4984
  743MOL0     C98010   0.382   7.825   6.631  0.8086 -0.3692 -0.4450
  743MOL0     H98011   0.739   8.144   6.985  0.3771 -0.8375  1.4447
  743MOL0     H98012   0.969   8.174   7.062  0.0311 -0.5638 -0.8473
  743MOL0     H98013   1.269   7.944   6.840 -0.0506 -0.7414  0.0384
  743MOL0     H98014   1.266   7.955   7.010  1.3547 -0.9523  0.1598
  743MOL0     H98015   1.479   8.018   6.884 -2.1724 -0.7705 -1.6383
  743MOL0     H98016   1.433   8.097   7.042  1.5135 -0.8949 -0.5517
  743MOL0     H98017   1.365   8.301   6.936 -2.2746 -0.2449 -0.9464
  743MOL0     H98018   1.416   8.233   6.781  2.8956  1.8849 -0.2551
  743MOL0     H98019   1.601   8.228   7.009  1.3304 -0.8904 -0.6548
  743MOL0     H98020   1.633   8.186   6.835 -2.1776 -1.0408 -1.3786
  743MOL0     H98021   1.723   8.391   6.891 -0.0889  0.0225 -3.3900
  743MOL0     H98022   1.577   8.444   6.965 -1.5725 -2.7494  1.0817
  743MOL0     H98023   1.498   8.497   6.741 -1.0592 -2.3058  2.3316
  743MOL0     H98024   1.586   8.352   6.668  3.7567  0.3644 -1.4006
  743MOL0     H98025   1.727   8.601   6.761  2.5365 -0.2444  0.4576
  743MOL0     H98026   1.801   8.467   6.663  0.4401  1.3704 -2.3829
  743MOL0     H98027   1.703   8.691   6.545 -2.0929  1.8118  0.4819
  743MOL0     H98028   1.556   8.605   6.549  0.6104  2.1389 -0.6086
  743MOL0     H98029   1.712   8.659   6.271 -2.3110 -1.8263 -1.4904
  743MOL0     H98030   1.820   8.525   6.058 -0.6280 -1.0901 -1.8489
  743MOL0     H98031   1.666   8.445   6.019 -1.4514  1.6208  1.3838
  743MOL0     H98032   1.808   8.306   5.923 -0.8789 -3.1197  0.6007
  743MOL0     H98033   1.792   8.233   6.077 -2.4187  0.0748 -1.5381
  743MOL0     H98034   2.024   8.407   6.028  2.1654 -0.1044  2.2624
  743MOL0     H98035   1.983   8.300   6.161 -1.6674  1.3059  0.0529
  743MOL0     H98036   2.003   8.099   5.983  1.5130 -0.7831  1.7812
  743MOL0     H98037   2.149   8.198   6.020 -0.6074  0.5991  0.0530
  743MOL0     H98038   2.156   8.028   5.809  2.7351 -2.6848  1.0714
  743MOL0     H98039   2.363   7.962   5.695 -1.1032 -1.7270 -0.2316
  743MOL0     H98040   2.670   7.760   5.530 -0.1205 -0.9285 -3.1004
  743MOL0     H98041   2.908   7.685   5.489 -0.0039 -1.2140  2.5052
  743MOL0     H98042   3.134   7.653   5.516 -1.1639  0.7638  0.8421
  743MOL0     H98043   3.157   7.782   5.649 -2.3319  4.1505 -0.8671
  743MOL0     H98044   3.380   7.662   5.571  1.7367  2.0187  0.3372
  743MOL0     H98045   3.375   7.831   5.536  1.1246 -1.0714  2.5179
  743MOL0     H98046   3.301   7.804   5.312 -1.4589  0.3425  0.9266
  743MOL0     H98047   3.324   7.621   5.338  2.5051  0.7427 -3.0585
  743MOL0     H98048   3.536   7.833   5.374  0.2115 -0.0182 -0.3090
  743MOL0     H98049   3.550   7.670   5.430  1.0209 -2.6149 -0.7604
  743MOL0     H98050   3.465   7.702   5.136  0.2180  1.5772 -0.4303
  743MOL0     H98051   3.580   7.592   5.204  1.9033  0.5071 -0.4391
  743MOL0     H98052   3.752   7.775   5.244  1.0798  1.3741 -0.8841
  743MOL0     H98053   3.642   7.879   5.156 -0.0128  0.4442 -1.4160
  743MOL0     H98054   3.780   7.622   5.068 -0.2612 -0.8847 -1.3230
  743MOL0     H98055   3.664   7.715   4.959  0.4423  0.1149  0.3422
  743MOL0     H98056   3.941   7.805   5.080 -0.2416 -0.7813  0.6547
  743MOL0     H98057   3.832   7.912   4.998  1.8856  0.5477 -1.8046
  743MOL0     H98058   3.026   8.088   5.506 -1.6672  0.0836  2.3003
  743MOL0     H98059   2.805   8.162   5.547  0.9010  0.1606 -0.7628
  743MOL0     H98060   2.443   8.380   5.630  1.7389 -1.3684  0.9833
  743MOL0     H98061   2.236   8.440   5.749  3.3776  1.5605  2.3202
  743MOL0     H98062   1.111   7.978   6.723  1.1262 -0.3792  1.9433
  743MOL0     H98063   0.868   7.942   6.634  2.1744  0.4895 -1.3361
  743MOL0     H98064   0.420   8.145   6.743 -0.8797  1.3399 -1.7528
  743MOL0     H98065   0.191   8.148   6.722 -0.6068 -1.2188  1.2782
  743MOL0     H98066  -0.073   8.110   6.686  1.3260  0.6483  1.6759
  743MOL0     H98067  -0.016   8.032   6.827 -1.2199  3.2369  0.7791
  743MOL0     H98068  -0.162   7.832   6.785  0.4123 -0.8096 -2.8841
  743MOL0     H98069  -0.253   7.978   6.799  0.6301  0.4945 -0.3861
  743MOL0     H98070  -0.180   7.891   6.519  0.1145 -0.6910 -0.0111
  743MOL0     H98071  -0.313   7.986   6.591 -0.8716 -1.1373  0.4527
  743MOL0     H98072  -0.264   7.689   6.584 -1.9220 -1.7525 -0.9465
  743MOL0     H98073  -0.389   7.770   6.695 -0.0447  3.0402  0.3035
  743MOL0     H98074  -0.589   7.758   6.333  0.8548 -0.3308 -0.0838
  743MOL0     H98075   0.197   7.738   6.579 -2.0396  0.3567 -1.0331
  743MOL0     H98076   0.434   7.732   6.611 -0.2752 -0.7671 -1.5105
  744MOL0     O98077   9.943   1.116   1.696 -0.3302 -0.2241 -0.1367
  744MOL0     C98078  10.031   1.136   1.610 -1.1469 -0.0452 -0.4407
  744MOL0     O98079  10.128   1.229   1.620 -0.2662  0.2693  0.0407
  744MOL0     C98080  10.112   1.329   1.699  1.2564 -0.0193 -1.0759
  744MOL0     C98081   9.988   1.396   1.733 -0.0914 -0.5056 -0.4771
  744MOL0     C98082   9.970   1.493   1.837  1.0119 -0.2700  0.7448
  744MOL0     C98083  10.086   1.535   1.893 -0.3457  0.3996  0.6275
  744MOL0     O98084  10.090   1.637   1.982  0.1316 -0.4491 -0.1891
  744MOL0     C98085   9.996   1.744   1.961  0.0676 -0.3551 -0.0470
  744MOL0     C98086  10.038   1.837   1.852  0.0261 -0.2765 -0.3391
  744MOL0     C98087  10.156   1.927   1.889  0.3938  0.8405  0.3768
  744MOL0     C98088  10.150   2.061   1.823  0.2199 -0.8326 -0.6271
  744MOL0     C98089  10.278   2.140   1.831 -0.1511 -0.1739  0.4535
  744MOL0     C98090  10.319   2.216   1.959  0.1774 -0.5887  0.6152
  744MOL0     C98091  10.336   2.363   1.923  0.1198  0.4336 -0.5770
  744MOL0     C98092  10.467   2.377   1.829  0.1054  0.0312  0.0228
  744MOL0     N98093  10.512   2.518   1.822 -0.1475  0.3206  0.6760
  744MOL0     C98094  10.545   2.602   1.718  0.2649  0.4402  1.1566
  744MOL0     C98095  10.606   2.710   1.763  0.7510  0.8295 -0.0210
  744MOL0     C98096  10.672   2.807   1.668 -0.1101 -0.7233  0.9386
  744MOL0     C98097  10.807   2.752   1.606 -1.1026 -0.0890 -0.3953
  744MOL0     C98098  10.884   2.860   1.536  0.0534 -1.1587 -0.2164
  744MOL0     C98099  11.011   2.822   1.462 -0.5611 -0.0347 -0.3405
  744MOL0     O98100  11.133   2.819   1.534  0.2286  0.4934  0.1389
  744MOL0     C98101  11.192   2.701   1.583 -0.0660 -0.5194 -0.5333
  744MOL0     C98102  11.168   2.562   1.565  0.0824  0.2716 -0.7345
  744MOL0     C98103  11.261   2.471   1.624 -0.7927  0.0394 -0.1490
  744MOL0     C98104  11.375   2.513   1.708  0.4845 -0.4760 -0.9601
  744MOL0     C98105  11.468   2.424   1.788  0.4775 -0.0832  0.0975
  744MOL0     O98106  11.544   2.481   1.886 -0.0661 -0.2916  0.3461
  744MOL0     C98107  11.607   2.390   1.976 -0.1771  0.5167 -0.1116
  744MOL0     C98108  11.539   2.327   2.083 -0.1391  0.4504  0.4160
  744MOL0     C98109  11.601   2.233   2.167  0.9009  0.6044 -0.6587
  744MOL0     C98110  11.739   2.201   2.155 -0.9279 -0.4541  0.1869
  744MOL0     O98111  11.814   2.116   2.226 -0.2416  0.5092  0.7898
  744MOL0     C98112  11.754   1.992   2.268  0.7560 -1.0582  0.2864
  744MOL0     C98113  11.850   1.911   2.364  1.1395 -0.0790  0.4029
  744MOL0     C98114  11.987   1.882   2.307  0.3289 -0.0857 -0.2155
  744MOL0     C98115  12.095   1.919   2.400 -0.3749  0.5874 -0.6472
  744MOL0     C98116  12.225   1.906   2.320 -0.0490  0.0061  0.2211
  744MOL0     C98117  12.339   1.927   2.410  0.4394  0.0302 -1.0413
  744MOL0     C98118  12.464   1.925   2.332 -0.0560  0.3193  0.5613
  744MOL0     C98119  12.562   2.011   2.399 -1.5054  0.1162 -0.6355
  744MOL0    Cl98120  12.545   2.021   2.583  0.1123  0.0539  0.3278
  744MOL0     C98121  11.816   2.275   2.059 -0.2276  0.0581  0.9398
  744MOL0     C98122  11.749   2.364   1.971  0.3892 -0.1544 -0.5733
  744MOL0     O98123  11.480   2.307   1.750  0.3957 -0.5610  0.6014
  744MOL0     C98124  11.391   2.653   1.728 -0.0603 -0.3133  0.0917
  744MOL0     C98125  11.301   2.740   1.664 -0.0743  0.4531  0.2270
  744MOL0     N98126  10.605   2.704   1.901 -0.7017 -0.1523 -0.0964
  744MOL0     N98127  10.538   2.596   1.937  0.0781 -0.5418  0.0517
  744MOL0     C98128  10.207   1.494   1.846 -0.0676 -0.5579  0.1069
  744MOL0     C98129  10.221   1.396   1.750 -0.3875 -0.1853 -0.6570
  744MOL0     C98130  10.040   1.039   1.493 -0.2361 -0.0950  0.0275
  744MOL0     C98131   9.937   0.942   1.470 -0.4936 -0.5527  0.0515
  744MOL0     C98132   9.944   0.863   1.349  0.0229  0.2559  0.3759
  744MOL0     C98133  10.056   0.855   1.266  0.2306 -0.1310 -0.0738
  744MOL0     O98134  10.075   0.788   1.151 -0.4559 -0.0626  0.5389
  744MOL0     C98135   9.975   0.797   1.053  0.3687 -0.3259 -0.7987
  744MOL0     C98136   9.950   0.945   1.010 -0.1954  0.1336 -0.8922
  744MOL0     C98137  10.066   1.014   0.925  0.1913 -0.0431 -0.3115
  744MOL0     C98138  10.126   0.938   0.819  0.5460  0.9104 -0.5523
  744MOL0     C98139  10.199   1.018   0.722 -0.6311 -0.3398 -1.1239
  744MOL0     C98140  10.263   1.078   0.639  0.4940 -0.8080 -0.0508
  744MOL0     C98141  10.162   0.938   1.302 -0.0482  0.0910  0.4825
  744MOL0     C98142  10.152   1.034   1.402  0.4919  0.3661  0.3813
  744MOL0     H98143   9.900   1.356   1.684 -2.2138  2.4973  0.6404
  744MOL0     H98144   9.868   1.521   1.861  1.3057  1.4928  0.0321
  744MOL0     H98145   9.974   1.802   2.052 -1.5925  0.2224 -0.7574
  744MOL0     H98146   9.893   1.715   1.935  0.1443 -1.6169  0.9435
  744MOL0     H98147   9.956   1.904   1.826  1.0465  0.0571 -3.0098
  744MOL0     H98148  10.067   1.772   1.769 -0.1517  1.0940 -1.5158
  744MOL0     H98149  10.250   1.882   1.856 -0.9035 -3.7183  2.2032
  744MOL0     H98150  10.163   1.941   1.997 -0.0897  2.2466  0.2488
  744MOL0     H98151  10.119   2.037   1.721  1.1926 -0.3053 -1.0592
  744MOL0     H98152  10.071   2.116   1.875 -0.7817 -2.1975 -0.6557
  744MOL0     H98153  10.279   2.196   1.737  0.3791 -1.2862 -0.2150
  744MOL0     H98154  10.353   2.060   1.836 -0.4981 -0.4422  3.7840
  744MOL0     H98155  10.407   2.176   2.010  0.7442  0.7640  0.7373
  744MOL0     H98156  10.227   2.215   2.018 -1.9076 -0.3139 -2.4001
  744MOL0     H98157  10.245   2.400   1.875 -0.8459  0.6829  1.3253
  744MOL0     H98158  10.355   2.429   2.009 -2.3383  2.7645 -1.6509
  744MOL0     H98159  10.454   2.325   1.734  3.1876 -0.3559 -0.2643
  744MOL0     H98160  10.549   2.319   1.873  1.6877  2.2481  0.1371
  744MOL0     H98161  10.553   2.589   1.611  1.8320  2.2052  1.0096
  744MOL0     H98162  10.691   2.902   1.719  1.3907 -1.5801  2.0783
  744MOL0     H98163  10.596   2.819   1.591  0.9745 -1.5139 -0.3101
  744MOL0     H98164  10.792   2.663   1.543  0.7711 -0.2405 -0.6768
  744MOL0     H98165  10.868   2.721   1.691 -3.5765 -0.6140  1.3197
  744MOL0     H98166  10.814   2.898   1.461  1.1798  1.6235  0.0217
  744MOL0     H98167  10.924   2.939   1.600  0.3353 -1.1581 -0.3934
  744MOL0     H98168  11.033   2.884   1.374  4.2013 -0.2710  0.3873
  744MOL0     H98169  10.991   2.721   1.428 -0.9464 -0.0418 -0.0945
  744MOL0     H98170  11.091   2.525   1.498 -3.3789  0.3248  2.8000
  744MOL0     H98171  11.255   2.364   1.608 -1.1353  0.4985 -4.2315
  744MOL0     H98172  11.436   2.352   2.107 -0.8236 -1.8149  0.1533
  744MOL0     H98173  11.560   2.196   2.261  2.2928  1.4908  0.3347
  744MOL0     H98174  11.737   1.925   2.184 -0.9140 -1.9512  1.2784
  744MOL0     H98175  11.657   2.020   2.312 -0.2285  0.1961 -2.4473
  744MOL0     H98176  11.789   1.820   2.370 -2.1438  1.8809 -0.5434
  744MOL0     H98177  11.851   1.969   2.456  1.2147 -1.2059  1.1312
  744MOL0     H98178  11.999   1.944   2.218 -1.2982 -1.2428 -1.3274
  744MOL0     H98179  11.998   1.779   2.271  0.3322 -1.2997  2.9456
  744MOL0     H98180  12.093   2.027   2.416  3.1763  1.5674 -4.8841
  744MOL0     H98181  12.075   1.857   2.488  0.7726  0.4580 -0.4579
  744MOL0     H98182  12.215   1.974   2.234 -1.8701 -1.9039 -1.1546
  744MOL0     H98183  12.237   1.806   2.278 -1.5277 -0.6975  1.3948
  744MOL0     H98184  12.343   1.852   2.490  1.8261  0.6955 -0.4584
  744MOL0     H98185  12.321   2.026   2.454 -0.9348  0.7556 -3.0888
  744MOL0     H98186  12.486   1.819   2.322  0.4823  0.5358 -0.8178
  744MOL0     H98187  12.455   1.969   2.232  0.1086 -0.8440  0.0255
  744MOL0     H98188  12.557   2.115   2.364 -0.5098 -0.0164 -1.2386
  744MOL0     H98189  12.659   1.973   2.366 -1.8596 -1.2821 -0.1206
  744MOL0     H98190  11.923   2.259   2.057 -0.1731  0.4413  0.5045
  744MOL0     H98191  11.821   2.417   1.910  3.8708 -0.9796  2.4760
  744MOL0     H98192  11.474   2.691   1.787 -0.9379  2.3128 -0.2383
  744MOL0     H98193  11.314   2.846   1.681  1.5806  0.1903  0.7651
  744MOL0     H98194  10.300   1.526   1.892 -0.4915  1.1572 -0.1392
  744MOL0     H98195  10.318   1.366   1.713  0.0672 -1.8842  1.6574
  744MOL0     H98196   9.847   0.942   1.531 -0.1385  0.7069  0.6247
  744MOL0     H98197   9.872   0.790   1.313  2.4007 -0.5618 -3.3195
  744MOL0     H98198   9.886   0.739   1.079  1.5267 -2.5922 -1.5436
  744MOL0     H98199  10.007   0.734   0.969 -0.6717 -1.1991 -0.5538
  744MOL0     H98200   9.849   0.951   0.967  0.4616  3.8514 -2.2460
  744MOL0     H98201   9.936   0.999   1.103 -2.4467  0.3044 -1.2660
  744MOL0     H98202  10.141   1.056   0.993  1.1468 -0.7289 -0.9206
  744MOL0     H98203  10.014   1.093   0.870  0.9030  1.6353  1.3333
  744MOL0     H98204  10.198   0.875   0.873 -0.5031  0.1521 -0.0081
  744MOL0     H98205  10.058   0.883   0.754  0.9240 -0.2240 -0.0220
  744MOL0     H98206  10.314   1.124   0.556 -2.4206  2.3008 -0.3436
  744MOL0     H98207  10.248   0.947   1.236 -0.6163  0.5306 -0.2170
  744MOL0     H98208  10.238   1.101   1.409  1.4539 -0.9273  1.4495
  745MOL0     O98209  10.705   5.008   1.678 -0.2097  0.1352 -0.6858
  745MOL0     C98210  10.586   5.012   1.657 -0.7744 -1.0101  0.6729
  745MOL0     O98211  10.532   5.114   1.580  0.6244  0.7764  0.4070
  745MOL0     C98212  10.594   5.233   1.531 -0.2128  0.8779 -0.1557
  745MOL0     C98213  10.509   5.310   1.450 -0.2375  0.2760  0.8193
  745MOL0     C98214  10.556   5.428   1.395 -0.7123  0.0672  0.1197
  745MOL0     C98215  10.683   5.479   1.425 -0.1534 -0.0641 -0.1515
  745MOL0     O98216  10.725   5.599   1.365 -1.1990  0.4186 -1.4674
  745MOL0     C98217  10.865   5.628   1.363  0.6140  0.3572  0.2553
  745MOL0     C98218  10.876   5.736   1.257 -0.4423 -0.9335  0.6947
  745MOL0     C98219  11.022   5.790   1.252  1.0964 -0.8203  0.5524
  745MOL0     C98220  11.037   5.904   1.148 -0.1030  0.1775  0.3753
  745MOL0     C98221  11.089   6.036   1.190 -0.8348 -0.1308  0.3022
  745MOL0     C98222  11.145   6.110   1.066 -0.9339 -0.1233 -0.1933
  745MOL0     C98223  11.168   6.256   1.116  0.0471 -0.5339 -0.2738
  745MOL0     C98224  11.136   6.355   0.996  1.3071 -0.7378  0.7900
  745MOL0     N98225  11.237   6.359   0.891 -0.7217  0.1362  0.0881
  745MOL0     C98226  11.365   6.415   0.897 -0.0783  1.1994 -0.0154
  745MOL0     C98227  11.419   6.373   0.780  0.2120  0.3264  0.2957
  745MOL0     C98228  11.563   6.400   0.735 -0.4143 -0.1192  0.0636
  745MOL0     C98229  11.577   6.512   0.636 -0.5643 -1.0220 -0.3926
  745MOL0     C98230  11.516   6.642   0.686  0.4057  0.0777 -0.1233
  745MOL0     C98231  11.602   6.761   0.632 -0.0007  0.0290  0.0050
  745MOL0     O98232  11.634   6.763   0.491  0.6169 -0.0348  0.4368
  745MOL0     C98233  11.739   6.838   0.463 -0.2855 -0.2839 -0.4415
  745MOL0     C98234  11.859   6.777   0.443 -0.7276 -0.4032  0.1574
  745MOL0     C98235  11.968   6.852   0.382  0.0546  0.1056 -0.9946
  745MOL0     C98236  11.962   6.989   0.367 -0.2575 -0.2917  0.8924
  745MOL0     C98237  12.079   7.069   0.340 -0.6253 -1.5489 -0.0093
  745MOL0     O98238  12.186   7.008   0.282  0.1502 -0.0114  0.6874
  745MOL0     C98239  12.288   7.078   0.221  0.2401  0.4568 -0.4643
  745MOL0     C98240  12.404   7.011   0.202 -0.5854  0.6074 -0.4629
  745MOL0     C98241  12.525   7.058   0.150 -0.1011  0.1808 -0.3257
  745MOL0     C98242  12.536   7.196   0.135  0.4402 -0.6792  0.9877
  745MOL0     O98243  12.661   7.251   0.128  0.6176 -0.1195  0.0045
  745MOL0     C98244  12.703   7.330   0.240 -0.4876  0.8670  0.1913
  745MOL0     C98245  12.852   7.350   0.246 -1.1059  0.2726 -1.4137
  745MOL0     C98246  12.891   7.461   0.354 -0.9441 -0.1953  0.4767
  745MOL0     C98247  13.038   7.517   0.341 -0.3726  0.8441 -0.6892
  745MOL0     C98248  13.070   7.615   0.446 -0.5749 -0.1579 -0.8054
  745MOL0     C98249  13.224   7.622   0.457  0.3445  1.0225 -0.2804
  745MOL0     C98250  13.268   7.557   0.587  0.0910  0.3411 -0.1851
  745MOL0     C98251  13.255   7.412   0.601  1.0555 -0.4304  0.5911
  745MOL0    Cl98252  13.330   7.392   0.768  0.0763 -0.1714 -0.1503
  745MOL0     C98253  12.420   7.270   0.157 -0.3168 -0.6577 -0.9897
  745MOL0     C98254  12.303   7.211   0.198  0.1528 -0.1514 -0.4315
  745MOL0     O98255  12.074   7.191   0.378  0.2916 -0.3933  0.8091
  745MOL0     C98256  11.841   7.054   0.399 -0.1055 -0.0036 -0.1730
  745MOL0     C98257  11.730   6.975   0.439 -0.3368 -0.5220 -0.3086
  745MOL0     N98258  11.317   6.304   0.704 -0.7411 -0.1124 -0.5645
  745MOL0     N98259  11.211   6.290   0.776 -0.3820  0.2316 -1.0703
  745MOL0     C98260  10.768   5.402   1.514 -0.8236 -0.5645 -0.1075
  745MOL0     C98261  10.717   5.282   1.562 -0.6341 -0.1343  0.0772
  745MOL0     C98262  10.520   4.890   1.721  0.3697 -0.4418 -0.7292
  745MOL0     C98263  10.380   4.873   1.684  0.1981 -0.1931  0.2074
  745MOL0     C98264  10.304   4.767   1.740 -0.1456  0.9694 -0.2349
  745MOL0     C98265  10.367   4.678   1.822  0.2502 -0.2277  0.2011
  745MOL0     O98266  10.290   4.573   1.869  0.3571  0.9142  0.6562
  745MOL0     C98267  10.250   4.563   1.996  0.3749 -0.0590  0.3400
  745MOL0     C98268  10.121   4.468   2.012 -0.2582 -0.1111 -0.4209
  745MOL0     C98269  10.083   4.497   2.155 -0.1303  1.0679 -0.1567
  745MOL0     C98270   9.972   4.399   2.204 -1.0540  0.5182 -0.6574
  745MOL0     C98271   9.969   4.399   2.354  0.2683  0.8008  0.3508
  745MOL0     C98272   9.961   4.409   2.470  0.2942  0.5478 -0.3690
  745MOL0     C98273  10.506   4.684   1.850  0.6877 -0.4007  0.1167
  745MOL0     C98274  10.579   4.792   1.798  0.8829 -0.1244  0.1440
  745MOL0     H98275  10.415   5.261   1.429  0.5256 -2.1960  2.6553
  745MOL0     H98276  10.492   5.483   1.326 -0.3976  0.6243  0.2579
  745MOL0     H98277  10.933   5.543   1.354 -0.9189 -1.1079  1.6474
  745MOL0     H98278  10.891   5.689   1.451  3.0131 -0.2482  0.0346
  745MOL0     H98279  10.801   5.814   1.272  1.2620  0.8575  0.2223
  745MOL0     H98280  10.843   5.686   1.166 -3.2957 -0.0055  1.1188
  745MOL0     H98281  11.093   5.713   1.221 -0.6277 -1.6598 -1.5396
  745MOL0     H98282  11.055   5.827   1.350  1.0660  1.5001 -0.2452
  745MOL0     H98283  11.111   5.864   1.078  0.2956  2.2474 -0.4483
  745MOL0     H98284  10.948   5.913   1.086  0.3547  0.4506 -0.2595
  745MOL0     H98285  11.172   6.029   1.261  0.6780  2.4573 -1.0472
  745MOL0     H98286  11.002   6.088   1.233 -1.4743 -1.8685  1.1976
  745MOL0     H98287  11.088   6.103   0.973  2.3081 -0.7119 -2.2839
  745MOL0     H98288  11.240   6.065   1.036 -0.0786  1.6778 -0.2858
  745MOL0     H98289  11.114   6.288   1.205 -0.6806 -1.9367 -0.1987
  745MOL0     H98290  11.274   6.262   1.144 -1.1465  0.7141  5.2021
  745MOL0     H98291  11.117   6.460   1.020 -1.5198 -1.0869  0.3184
  745MOL0     H98292  11.044   6.323   0.948  1.0453 -0.9809  1.4395
  745MOL0     H98293  11.418   6.468   0.975 -1.9855  0.2641  2.0235
  745MOL0     H98294  11.588   6.303   0.690 -2.4583 -0.4003 -0.5881
  745MOL0     H98295  11.633   6.426   0.815 -1.8045  0.7168  1.0679
  745MOL0     H98296  11.526   6.471   0.548 -4.2143 -2.2870  2.0747
  745MOL0     H98297  11.684   6.529   0.627 -0.5127 -1.7963 -1.5780
  745MOL0     H98298  11.415   6.667   0.652  1.7253  2.7425 -2.5152
  745MOL0     H98299  11.518   6.637   0.795  1.8764 -1.2440 -0.1661
  745MOL0     H98300  11.702   6.752   0.674  1.6805  1.7613 -3.2496
  745MOL0     H98301  11.551   6.846   0.678 -0.3883  0.1404 -0.6212
  745MOL0     H98302  11.879   6.671   0.456  2.7820 -0.3087 -2.8899
  745MOL0     H98303  12.068   6.810   0.383  0.3655  0.8497  0.2114
  745MOL0     H98304  12.406   6.906   0.230 -0.2368  1.0344  1.1907
  745MOL0     H98305  12.611   6.992   0.138 -2.0331 -2.0681 -3.8352
  745MOL0     H98306  12.679   7.274   0.331  2.2777  2.8528  2.3091
  745MOL0     H98307  12.658   7.429   0.236  0.3951  1.3962  2.0866
  745MOL0     H98308  12.896   7.381   0.150  1.1618 -0.7374 -0.7702
  745MOL0     H98309  12.886   7.252   0.281 -0.7949  0.7881 -0.2579
  745MOL0     H98310  12.880   7.419   0.454 -0.1351 -2.4411 -0.3315
  745MOL0     H98311  12.825   7.549   0.348  0.3883  0.7527 -3.0390
  745MOL0     H98312  13.100   7.427   0.346 -2.9039 -0.9462  1.8836
  745MOL0     H98313  13.048   7.558   0.240 -1.4173 -0.9037 -1.5646
  745MOL0     H98314  13.015   7.585   0.535  0.1015  3.5180  1.0370
  745MOL0     H98315  13.026   7.715   0.437 -0.5846 -0.0442  0.4278
  745MOL0     H98316  13.255   7.724   0.433 -1.3314  1.3769 -1.0757
  745MOL0     H98317  13.270   7.559   0.380 -1.2898  1.3521 -1.5665
  745MOL0     H98318  13.375   7.575   0.599 -0.0569  0.5451  0.8695
  745MOL0     H98319  13.216   7.586   0.678 -0.5225 -4.8249  1.4404
  745MOL0     H98320  13.308   7.363   0.519  0.2353  3.0951 -2.2935
  745MOL0     H98321  13.148   7.390   0.594  0.6726  1.3823  0.0963
  745MOL0     H98322  12.429   7.378   0.153  2.6482 -0.8583 -1.4137
  745MOL0     H98323  12.218   7.279   0.195  2.9315  3.6197 -3.0155
  745MOL0     H98324  11.816   7.159   0.410 -2.1529 -0.6428  2.3734
  745MOL0     H98325  11.636   7.026   0.457  0.4774  0.9522 -0.0239
  745MOL0     H98326  10.863   5.447   1.539 -0.4685  0.2694 -2.6942
  745MOL0     H98327  10.770   5.237   1.645 -1.6988  1.4354  1.7029
  745MOL0     H98328  10.332   4.946   1.620 -2.6011  0.6856  3.0018
  745MOL0     H98329  10.202   4.750   1.710 -0.6952 -2.2160  2.7877
  745MOL0     H98330  10.236   4.667   2.028  0.5853  0.5662 -1.5075
  745MOL0     H98331  10.324   4.512   2.059 -3.5768 -1.1583  4.6429
  745MOL0     H98332  10.048   4.486   1.934 -1.0929 -1.8597 -0.0975
  745MOL0     H98333  10.146   4.361   2.013 -3.1341 -0.8661  0.7416
  745MOL0     H98334  10.048   4.600   2.156  2.2544  1.9962 -2.1917
  745MOL0     H98335  10.168   4.498   2.224 -1.5299 -1.0265  1.7512
  745MOL0     H98336   9.872   4.428   2.172 -0.7700  0.5325 -1.5742
  745MOL0     H98337   9.990   4.297   2.168  0.3398  1.2867 -2.2699
  745MOL0     H98338   9.942   4.408   2.576 -2.4640  0.4939 -0.7840
  745MOL0     H98339  10.551   4.613   1.919 -0.5222 -1.3977 -0.0943
  745MOL0     H98340  10.685   4.802   1.819  0.8528 -1.4033  0.9821
  746MOL0     O98341   5.481   1.651   3.609  0.3216  0.3131 -0.1203
  746MOL0     C98342   5.438   1.762   3.579  0.4939  0.5678 -0.2028
  746MOL0     O98343   5.432   1.808   3.445  0.8157 -0.0981  0.0765
  746MOL0     C98344   5.479   1.729   3.341 -0.5277  1.6878 -1.4363
  746MOL0     C98345   5.377   1.668   3.258  0.6216 -1.2971 -0.1516
  746MOL0     C98346   5.403   1.568   3.169  0.9133 -0.4063 -0.1179
  746MOL0     C98347   5.538   1.529   3.148  0.3880 -0.3720  0.4236
  746MOL0     O98348   5.580   1.421   3.074  0.0369 -0.2292 -0.0281
  746MOL0     C98349   5.494   1.305   3.058  0.0194 -0.3057 -1.3119
  746MOL0     C98350   5.542   1.194   3.153 -0.7435 -0.1448 -0.2976
  746MOL0     C98351   5.468   1.059   3.124  0.1601  0.9925  1.0558
  746MOL0     C98352   5.524   0.955   3.214  0.1471  0.9066 -0.2716
  746MOL0     C98353   5.467   0.812   3.193  0.4461  0.4309 -0.0132
  746MOL0     C98354   5.320   0.809   3.220  0.0858 -0.4399  0.5282
  746MOL0     C98355   5.268   0.667   3.224 -1.0009 -0.3999  0.3981
  746MOL0     C98356   5.264   0.603   3.096  0.0439  0.3437 -0.6059
  746MOL0     N98357   5.206   0.474   3.092  0.8155  0.7397 -0.1377
  746MOL0     C98358   5.248   0.363   3.158  0.7727  0.8564 -0.0419
  746MOL0     C98359   5.130   0.305   3.199 -0.1526  0.4562 -0.0864
  746MOL0     C98360   5.121   0.193   3.299  0.3066  0.6493  0.1765
  746MOL0     C98361   5.079   0.066   3.227  1.1643 -0.6085 -0.9114
  746MOL0     C98362   5.077  -0.074   3.303  0.5514  0.1705  0.5044
  746MOL0     C98363   5.212  -0.132   3.305  0.3247 -0.6883  0.0661
  746MOL0     O98364   5.199  -0.277   3.334  0.3306 -0.5604  0.3628
  746MOL0     C98365   5.216  -0.373   3.234 -0.6356  0.1684  0.2883
  746MOL0     C98366   5.215  -0.510   3.288 -0.5170 -0.8487 -0.0418
  746MOL0     C98367   5.218  -0.624   3.209  0.5975  0.1529 -0.6594
  746MOL0     C98368   5.223  -0.608   3.072  0.2650  0.2585  0.5512
  746MOL0     C98369   5.236  -0.721   2.985 -0.7090  0.7486 -0.6172
  746MOL0     O98370   5.265  -0.701   2.852  0.4443 -0.9022  0.2500
  746MOL0     C98371   5.235  -0.806   2.760 -0.7887 -0.5029 -0.4620
  746MOL0     C98372   5.266  -0.939   2.778  0.1325  0.2477 -0.2622
  746MOL0     C98373   5.231  -1.034   2.678  0.6475 -1.2637 -0.3437
  746MOL0     C98374   5.178  -0.993   2.557  0.2053  0.0996  0.0959
  746MOL0     O98375   5.137  -1.071   2.449  0.7482  0.9521  0.0414
  746MOL0     C98376   5.144  -1.212   2.460  0.3795 -0.3912 -0.2848
  746MOL0     C98377   5.269  -1.283   2.422 -0.1704  0.1967  0.0137
  746MOL0     C98378   5.259  -1.435   2.450 -0.3055 -0.1510  0.6790
  746MOL0     C98379   5.395  -1.516   2.451 -0.1172 -0.3429 -1.2288
  746MOL0     C98380   5.495  -1.464   2.558 -0.4990 -0.6084 -0.8440
  746MOL0     C98381   5.581  -1.570   2.628  0.3201  0.4612 -0.1134
  746MOL0     C98382   5.628  -1.533   2.777  0.1457 -0.1441 -0.5120
  746MOL0     C98383   5.690  -1.656   2.836 -0.0438  0.3998  0.6840
  746MOL0    Cl98384   5.836  -1.735   2.744 -0.2723  0.1759  0.3598
  746MOL0     C98385   5.155  -0.858   2.533 -0.1948  0.5771  0.7689
  746MOL0     C98386   5.181  -0.769   2.635 -0.6820 -0.2210 -0.5848
  746MOL0     O98387   5.223  -0.832   3.033 -1.0762  0.0284 -0.2559
  746MOL0     C98388   5.215  -0.479   3.023 -0.1247 -0.4028  0.7118
  746MOL0     C98389   5.220  -0.354   3.094 -0.3133  0.0402 -0.5618
  746MOL0     N98390   5.024   0.370   3.138 -0.3762  0.0368  0.2505
  746MOL0     N98391   5.073   0.467   3.070 -0.0607  0.3140  0.2701
  746MOL0     C98392   5.633   1.599   3.209 -0.3449  0.5035 -0.5823
  746MOL0     C98393   5.614   1.690   3.314 -0.2156 -0.1384 -0.1626
  746MOL0     C98394   5.411   1.850   3.699  0.8136  0.2153  0.5318
  746MOL0     C98395   5.445   1.822   3.829  0.4854  0.2017  0.9116
  746MOL0     C98396   5.392   1.903   3.934  0.1079 -0.0349 -0.1255
  746MOL0     C98397   5.326   2.017   3.908  0.6320 -0.7359  0.3057
  746MOL0     O98398   5.288   2.096   4.019 -0.7900 -1.5597 -0.1577
  746MOL0     C98399   5.239   2.236   3.987  0.1855 -0.4363 -0.2408
  746MOL0     C98400   5.280   2.320   4.104 -0.2206 -0.0021 -0.2977
  746MOL0     C98401   5.210   2.460   4.108  0.6470 -1.2673  0.4271
  746MOL0     C98402   5.285   2.553   4.195 -0.1503  0.4726  0.8028
  746MOL0     C98403   5.270   2.532   4.338  0.1128 -1.4445 -0.7111
  746MOL0     C98404   5.251   2.507   4.456 -0.1792 -0.3418 -0.5698
  746MOL0     C98405   5.291   2.038   3.779 -0.2873  0.1916  0.9681
  746MOL0     C98406   5.328   1.961   3.679 -0.0066 -0.3139  0.8357
  746MOL0     H98407   5.282   1.721   3.260  1.6352  0.6223  2.0100
  746MOL0     H98408   5.322   1.527   3.109  3.2454 -0.8745 -3.2057
  746MOL0     H98409   5.510   1.284   2.952 -1.9280  1.2865 -1.9705
  746MOL0     H98410   5.390   1.335   3.070  1.0852  4.7747 -2.4801
  746MOL0     H98411   5.532   1.223   3.258 -1.3131  2.0780 -0.8928
  746MOL0     H98412   5.647   1.172   3.133 -1.6341 -2.7812 -2.6414
  746MOL0     H98413   5.487   1.031   3.020 -1.9435 -3.3314  1.6018
  746MOL0     H98414   5.361   1.080   3.134  0.5446  3.1096  1.2990
  746MOL0     H98415   5.630   0.947   3.188 -0.0471  1.0762 -1.1476
  746MOL0     H98416   5.504   0.988   3.316  0.8005  3.3591 -0.8697
  746MOL0     H98417   5.516   0.743   3.262 -1.3747 -2.0714 -1.0306
  746MOL0     H98418   5.491   0.782   3.090  0.0896 -0.3163  0.1130
  746MOL0     H98419   5.272   0.877   3.149  2.1142  2.4020  1.6930
  746MOL0     H98420   5.292   0.840   3.321 -2.7291 -2.8902  0.6440
  746MOL0     H98421   5.318   0.623   3.311 -3.7704  1.0828  2.9622
  746MOL0     H98422   5.165   0.669   3.262 -0.9705 -2.3873  0.7144
  746MOL0     H98423   5.365   0.607   3.053  1.0573  0.6285  1.6423
  746MOL0     H98424   5.212   0.676   3.034 -1.4208  0.3294  0.5530
  746MOL0     H98425   5.341   0.324   3.199 -0.8728 -1.1298  2.0926
  746MOL0     H98426   5.048   0.201   3.381  0.6017  2.3989  0.3113
  746MOL0     H98427   5.221   0.186   3.343  0.0863  0.3601  0.6479
  746MOL0     H98428   5.140   0.052   3.137  2.1065  3.2431 -1.0310
  746MOL0     H98429   4.981   0.082   3.180  2.1120 -0.4350 -2.9366
  746MOL0     H98430   5.028  -0.057   3.399  0.7832 -2.7222  1.2345
  746MOL0     H98431   5.002  -0.135   3.250 -1.3526  2.1398  0.7829
  746MOL0     H98432   5.273  -0.083   3.381 -0.6650  2.9402 -1.2858
  746MOL0     H98433   5.265  -0.120   3.210 -0.9398 -1.3309 -0.7656
  746MOL0     H98434   5.225  -0.526   3.394  4.3097  0.5989 -0.0355
  746MOL0     H98435   5.204  -0.723   3.250  2.9589 -1.2046 -2.8229
  746MOL0     H98436   5.328  -0.972   2.861 -3.0369  0.6423  2.4789
  746MOL0     H98437   5.268  -1.134   2.701  3.0277 -0.1003  1.2723
  746MOL0     H98438   5.069  -1.252   2.391  0.1257 -2.4937  1.0997
  746MOL0     H98439   5.112  -1.235   2.563  2.6997  1.1592  0.8636
  746MOL0     H98440   5.345  -1.241   2.489  2.1181 -2.9483 -0.3756
  746MOL0     H98441   5.285  -1.248   2.320 -0.8595  2.8308  0.7250
  746MOL0     H98442   5.192  -1.478   2.375 -2.0547  0.1736  1.9915
  746MOL0     H98443   5.198  -1.448   2.540 -0.9271 -2.0311  0.0537
  746MOL0     H98444   5.371  -1.621   2.471 -0.7240  0.1193  0.8223
  746MOL0     H98445   5.438  -1.502   2.352 -2.6777 -2.1958 -2.7455
  746MOL0     H98446   5.435  -1.405   2.628 -1.3259 -2.4885  0.1099
  746MOL0     H98447   5.567  -1.390   2.520  2.0624 -2.3980  0.2589
  746MOL0     H98448   5.670  -1.573   2.565 -0.0111  2.4733 -0.7402
  746MOL0     H98449   5.523  -1.663   2.632 -1.4232  1.5541  1.1916
  746MOL0     H98450   5.697  -1.449   2.770 -0.5213  0.6360  1.5710
  746MOL0     H98451   5.544  -1.510   2.843 -0.0547 -2.9517  0.3607
  746MOL0     H98452   5.617  -1.735   2.855  0.0845  0.2677  0.6282
  746MOL0     H98453   5.724  -1.645   2.939  3.1509 -0.3776 -0.1935
  746MOL0     H98454   5.107  -0.844   2.437 -0.6616 -2.7850  0.4149
  746MOL0     H98455   5.173  -0.663   2.614  0.0432  0.4242  2.0498
  746MOL0     H98456   5.208  -0.465   2.916  0.8311  0.6343  0.7587
  746MOL0     H98457   5.226  -0.266   3.030  2.8232 -2.8442 -4.7685
  746MOL0     H98458   5.727   1.550   3.186  1.2152  2.0808  1.9650
  746MOL0     H98459   5.693   1.724   3.380 -1.2018 -0.7402  1.3825
  746MOL0     H98460   5.505   1.733   3.844  0.1294 -0.4256 -1.1065
  746MOL0     H98461   5.401   1.885   4.040 -0.7745  1.5883  0.2660
  746MOL0     H98462   5.131   2.239   3.975  0.3490 -0.8236 -2.1360
  746MOL0     H98463   5.285   2.264   3.892 -0.0747 -2.2741 -0.9513
  746MOL0     H98464   5.254   2.266   4.196 -1.6666  2.8933  1.1305
  746MOL0     H98465   5.388   2.337   4.103 -0.0512 -0.3843  2.5345
  746MOL0     H98466   5.113   2.448   4.158 -0.4156 -0.8734 -1.4451
  746MOL0     H98467   5.190   2.495   4.006  0.7447 -1.8355  0.2042
  746MOL0     H98468   5.391   2.535   4.176 -0.5911 -3.1997  1.0605
  746MOL0     H98469   5.262   2.656   4.168 -0.9691  0.6876  2.2124
  746MOL0     H98470   5.234   2.471   4.556 -1.2391 -3.7250 -1.8313
  746MOL0     H98471   5.231   2.123   3.748 -1.0876 -0.6327  0.1839
  746MOL0     H98472   5.289   1.978   3.579 -0.8173 -2.6315  0.6985
  747MOL0     O98473   3.611   2.096   6.786  0.2234  0.5618 -0.0900
  747MOL0     C98474   3.585   2.020   6.691 -1.1337  0.4905  0.2464
  747MOL0     O98475   3.674   1.967   6.607  0.5304  1.0011 -0.5273
  747MOL0     C98476   3.806   1.968   6.633  0.5402  0.2590 -0.1855
  747MOL0     C98477   3.864   1.950   6.759 -0.4337 -1.6220  0.3305
  747MOL0     C98478   4.003   1.962   6.770  0.1851 -0.6065 -0.8562
  747MOL0     C98479   4.082   1.970   6.657 -0.0696  0.4834  0.5081
  747MOL0     O98480   4.216   1.968   6.688 -0.0461 -0.1328  0.2452
  747MOL0     C98481   4.311   1.944   6.573  0.8708 -0.5478 -0.4765
  747MOL0     C98482   4.439   1.916   6.644 -0.2953  1.2831 -0.9905
  747MOL0     C98483   4.471   2.035   6.750 -0.4470 -0.0550 -0.0084
  747MOL0     C98484   4.625   2.018   6.767 -0.0137  0.2406 -0.2515
  747MOL0     C98485   4.694   2.148   6.819 -0.4480 -1.0123 -0.5931
  747MOL0     C98486   4.621   2.180   6.955 -0.3922 -0.9867  0.3225
  747MOL0     C98487   4.698   2.306   7.005  1.4626 -0.1640  0.7235
  747MOL0     C98488   4.620   2.406   7.086  0.9291 -0.4183 -0.7404
  747MOL0     N98489   4.554   2.339   7.200 -0.5354  0.7277  0.1262
  747MOL0     C98490   4.435   2.274   7.210 -0.8364 -0.1767 -0.2385
  747MOL0     C98491   4.440   2.205   7.323 -0.3042  0.5715 -0.3560
  747MOL0     C98492   4.326   2.117   7.367  0.4777 -0.2018 -0.6950
  747MOL0     C98493   4.323   1.970   7.316 -0.1714 -0.5202 -0.0276
  747MOL0     C98494   4.290   1.952   7.169 -0.1265 -0.7003 -0.6040
  747MOL0     C98495   4.351   1.823   7.112  0.5040  0.0980 -0.7410
  747MOL0     O98496   4.267   1.779   6.999  0.4526 -0.2635 -0.0088
  747MOL0     C98497   4.274   1.651   6.957  0.2421 -0.5587  0.3604
  747MOL0     C98498   4.369   1.555   6.994  0.2860  0.2180 -1.1010
  747MOL0     C98499   4.368   1.433   6.919 -1.1125 -0.2632 -0.6255
  747MOL0     C98500   4.289   1.421   6.806  0.3191  0.1616 -0.1519
  747MOL0     C98501   4.302   1.295   6.729  0.0490 -0.4441 -0.5960
  747MOL0     O98502   4.389   1.194   6.775  0.3679 -0.4708  0.6288
  747MOL0     C98503   4.427   1.082   6.707  0.3029  0.3137 -0.0231
  747MOL0     C98504   4.529   1.003   6.764 -0.0340  0.1100 -0.7050
  747MOL0     C98505   4.580   0.880   6.724 -0.7977  0.9951  0.5729
  747MOL0     C98506   4.539   0.842   6.594  0.1599  0.0272 -0.2412
  747MOL0     O98507   4.577   0.725   6.538  0.2074 -0.3022 -1.0646
  747MOL0     C98508   4.612   0.724   6.403 -0.2039  0.4289  0.6880
  747MOL0     C98509   4.719   0.609   6.393 -0.5734 -1.0017 -0.1272
  747MOL0     C98510   4.776   0.600   6.248  0.3004 -1.1744  0.0911
  747MOL0     C98511   4.834   0.739   6.210  0.0945  0.3476  0.3304
  747MOL0     C98512   4.892   0.748   6.072  0.1541  0.3059 -0.3899
  747MOL0     C98513   4.937   0.892   6.063 -0.1154 -1.4373 -0.1897
  747MOL0     C98514   5.006   0.921   5.927 -0.1761  0.1294 -0.3291
  747MOL0     C98515   4.987   1.064   5.874 -0.3719 -0.0548  0.3300
  747MOL0    Cl98516   5.113   1.087   5.747 -0.0367 -0.1664 -0.0625
  747MOL0     C98517   4.448   0.919   6.526 -0.0192 -0.1282  0.5355
  747MOL0     C98518   4.379   1.032   6.586 -0.6446 -0.1506  0.2200
  747MOL0     O98519   4.231   1.297   6.636 -0.2971  0.3310  0.2806
  747MOL0     C98520   4.198   1.529   6.765  0.9705  0.7161 -0.1564
  747MOL0     C98521   4.187   1.635   6.852  0.6711  0.2002  0.3755
  747MOL0     N98522   4.557   2.245   7.393  0.3623 -0.2069  0.7324
  747MOL0     N98523   4.626   2.321   7.316  0.4550 -1.2613  0.3957
  747MOL0     C98524   4.032   1.967   6.533  0.5582 -0.0180 -0.2439
  747MOL0     C98525   3.893   1.972   6.520 -0.8660  1.3645 -0.3131
  747MOL0     C98526   3.437   1.993   6.668 -0.1962 -0.3679 -0.1548
  747MOL0     C98527   3.331   2.017   6.769  0.0859 -0.5389 -0.0218
  747MOL0     C98528   3.199   2.005   6.746  0.7988 -0.0304  0.4763
  747MOL0     C98529   3.154   1.973   6.623  1.3848  1.2965  0.1589
  747MOL0     O98530   3.019   1.941   6.604  0.1169 -0.0332  0.5709
  747MOL0     C98531   2.983   1.883   6.482  0.5372  0.2409 -0.3928
  747MOL0     C98532   2.833   1.846   6.484  0.1868 -0.5002  0.0547
  747MOL0     C98533   2.800   1.722   6.405 -0.0045  1.2486 -0.8923
  747MOL0     C98534   2.652   1.682   6.429  0.0197 -0.0479  0.4169
  747MOL0     C98535   2.616   1.556   6.360 -0.4915 -0.0976  0.5510
  747MOL0     C98536   2.594   1.444   6.308 -0.8884 -0.0022  0.0217
  747MOL0     C98537   3.249   1.928   6.529 -0.2544 -0.7149 -0.6975
  747MOL0     C98538   3.388   1.943   6.551  0.0392 -0.7933  0.3504
  747MOL0     H98539   3.806   1.950   6.850  2.2426 -0.0491  2.1994
  747MOL0     H98540   4.053   1.960   6.867  0.0435 -1.2727 -0.7936
  747MOL0     H98541   4.325   2.029   6.506  0.5652  0.0719  0.2328
  747MOL0     H98542   4.287   1.860   6.507  0.5063 -0.1178 -0.9002
  747MOL0     H98543   4.511   1.910   6.562 -0.6500  0.1807 -1.2342
  747MOL0     H98544   4.444   1.814   6.684  3.0533  1.8172  0.2149
  747MOL0     H98545   4.427   2.023   6.849  1.9805  0.8518  1.2576
  747MOL0     H98546   4.445   2.139   6.729 -2.7808 -0.5333  0.2640
  747MOL0     H98547   4.630   1.936   6.839 -2.2216 -1.8998 -2.3596
  747MOL0     H98548   4.676   1.992   6.674  0.6073 -0.9209  0.3929
  747MOL0     H98549   4.696   2.236   6.755 -4.7186  0.0081  0.3793
  747MOL0     H98550   4.799   2.116   6.819  0.4667  1.5877  1.9254
  747MOL0     H98551   4.629   2.102   7.031 -3.4241 -1.1237  0.6106
  747MOL0     H98552   4.518   2.211   6.937  0.4971  0.8697 -2.2767
  747MOL0     H98553   4.774   2.266   7.074  0.8938 -0.7145  1.0432
  747MOL0     H98554   4.750   2.360   6.925 -0.0890 -1.3436 -1.1604
  747MOL0     H98555   4.552   2.473   7.032 -0.4614  1.0467  2.5148
  747MOL0     H98556   4.694   2.475   7.129  1.0464  1.6517 -3.9003
  747MOL0     H98557   4.355   2.261   7.137 -1.0221 -0.9518  0.0824
  747MOL0     H98558   4.228   2.157   7.340  1.1203  1.1106 -1.1605
  747MOL0     H98559   4.332   2.100   7.475 -1.1189 -1.9458 -0.8084
  747MOL0     H98560   4.253   1.908   7.373 -0.7446 -1.2749 -1.4904
  747MOL0     H98561   4.426   1.935   7.327 -0.3856 -1.8133 -1.6758
  747MOL0     H98562   4.184   1.957   7.145 -0.4765 -1.0593  0.7567
  747MOL0     H98563   4.325   2.046   7.127 -0.3111 -0.9679 -1.3794
  747MOL0     H98564   4.335   1.744   7.185 -0.5851 -0.8973 -2.0103
  747MOL0     H98565   4.456   1.825   7.083  0.0270 -0.2909 -2.6593
  747MOL0     H98566   4.436   1.553   7.079  0.5148  1.0123 -1.2556
  747MOL0     H98567   4.422   1.345   6.954 -2.8130 -1.2584 -0.3743
  747MOL0     H98568   4.566   1.033   6.861 -0.3215 -0.3605 -0.4431
  747MOL0     H98569   4.646   0.818   6.784 -0.5164  1.1201  0.3970
  747MOL0     H98570   4.635   0.826   6.373 -1.3163  0.7427  0.8729
  747MOL0     H98571   4.529   0.682   6.346 -2.0755  2.6087  1.6214
  747MOL0     H98572   4.680   0.510   6.421  1.6331 -2.2638 -1.1668
  747MOL0     H98573   4.807   0.637   6.452 -2.5649  1.6272  1.8048
  747MOL0     H98574   4.696   0.585   6.176 -0.9502  2.3385  0.5707
  747MOL0     H98575   4.856   0.525   6.239  0.2441 -1.6138  2.5521
  747MOL0     H98576   4.761   0.820   6.219 -0.2700  0.0740 -0.1398
  747MOL0     H98577   4.911   0.759   6.286  0.7931 -2.1192  0.3703
  747MOL0     H98578   4.819   0.715   5.998  0.6152 -2.5037  0.3158
  747MOL0     H98579   4.978   0.683   6.058 -0.7867 -1.8923  2.8375
  747MOL0     H98580   5.004   0.929   6.141  1.8025 -2.6542 -1.1926
  747MOL0     H98581   4.848   0.952   6.083  0.2710 -1.2372  0.9642
  747MOL0     H98582   5.112   0.898   5.941  0.1159 -0.0538 -2.4307
  747MOL0     H98583   4.973   0.855   5.846  1.5490  2.4726 -3.1663
  747MOL0     H98584   5.007   1.141   5.949 -0.2560 -3.4961  4.1739
  747MOL0     H98585   4.888   1.054   5.829 -0.1381  1.4340 -0.5885
  747MOL0     H98586   4.403   0.905   6.429  2.4802 -2.7364 -0.3673
  747MOL0     H98587   4.299   1.084   6.535  0.8324  3.8362  1.5786
  747MOL0     H98588   4.138   1.509   6.677 -2.8264  0.9692  2.1617
  747MOL0     H98589   4.112   1.708   6.824  0.7052  0.2572  0.4297
  747MOL0     H98590   4.069   1.965   6.431 -2.7956  3.6280 -1.7646
  747MOL0     H98591   3.842   1.966   6.424 -0.9024  0.5935 -0.2502
  747MOL0     H98592   3.360   2.056   6.866  1.4629  0.3451 -0.7479
  747MOL0     H98593   3.126   2.024   6.824 -0.1119  4.7694 -1.1786
  747MOL0     H98594   3.043   1.793   6.464  1.5446  1.5547 -4.5004
  747MOL0     H98595   2.994   1.953   6.400 -1.4908  1.5557  0.3803
  747MOL0     H98596   2.807   1.824   6.588 -0.4987  1.4550  0.3285
  747MOL0     H98597   2.784   1.937   6.447 -2.8381  0.1805  4.8299
  747MOL0     H98598   2.860   1.635   6.432 -1.9242  0.4387  1.1514
  747MOL0     H98599   2.801   1.725   6.296 -1.1439 -1.5184 -1.0651
  747MOL0     H98600   2.629   1.662   6.534  0.8352 -0.8897  0.4470
  747MOL0     H98601   2.592   1.767   6.396  1.4776  0.7551 -0.2517
  747MOL0     H98602   2.575   1.362   6.242  5.3841 -1.3696 -0.7023
  747MOL0     H98603   3.227   1.892   6.429  0.4540  0.2836 -1.2317
  747MOL0     H98604   3.460   1.917   6.474  2.2338 -0.6983  2.2580
  748MOL0     O98605   0.726   4.183   5.646 -0.2931  0.0481  0.0394
  748MOL0     C98606   0.706   4.298   5.644  0.1473 -0.2282  0.5187
  748MOL0     O98607   0.796   4.393   5.635  0.3915  0.0662 -0.6253
  748MOL0     C98608   0.929   4.352   5.650 -0.5453  0.1060 -0.8500
  748MOL0     C98609   0.999   4.309   5.533 -1.0827  0.2293 -1.4403
  748MOL0     C98610   1.133   4.255   5.550 -0.7774  0.4753  0.3644
  748MOL0     C98611   1.177   4.247   5.678 -1.0062 -0.0833  0.0517
  748MOL0     O98612   1.300   4.180   5.677 -0.2679  0.6613 -0.0429
  748MOL0     C98613   1.338   4.116   5.808 -0.2644 -0.4912  0.6262
  748MOL0     C98614   1.427   3.997   5.768  0.0889 -0.9167 -0.2762
  748MOL0     C98615   1.346   3.892   5.685  0.3319  0.5407 -0.7028
  748MOL0     C98616   1.439   3.779   5.636  0.3096 -0.1733  0.1957
  748MOL0     C98617   1.373   3.669   5.550  1.1357 -0.0941  0.9318
  748MOL0     C98618   1.463   3.538   5.540 -0.2657  0.0981 -0.0207
  748MOL0     C98619   1.566   3.537   5.416 -0.9048  0.3480  0.0419
  748MOL0     C98620   1.699   3.603   5.467  0.2598  1.2590 -0.3637
  748MOL0     N98621   1.805   3.576   5.363  0.0792 -0.3035 -0.5672
  748MOL0     C98622   1.831   3.448   5.309 -0.4954 -0.4806  0.6450
  748MOL0     C98623   1.907   3.478   5.198  0.5194  0.7705 -1.0974
  748MOL0     C98624   1.985   3.383   5.113 -0.0320 -0.3512  0.0010
  748MOL0     C98625   2.122   3.333   5.162 -0.6223  0.6241  0.2328
  748MOL0     C98626   2.112   3.277   5.305  0.8753 -0.4427  0.0281
  748MOL0     C98627   2.052   3.138   5.312 -0.2647  0.8462  0.8220
  748MOL0     O98628   1.954   3.132   5.419 -0.6040 -0.3692 -0.4528
  748MOL0     C98629   1.874   3.023   5.432  0.0358 -0.5081 -1.1931
  748MOL0     C98630   1.892   2.905   5.359 -0.8448  0.0365 -0.5778
  748MOL0     C98631   1.807   2.800   5.373  1.3644 -0.1951  0.2752
  748MOL0     C98632   1.705   2.816   5.472 -0.7721 -0.1656 -0.5235
  748MOL0     C98633   1.621   2.695   5.509 -0.4973 -0.6826  0.2180
  748MOL0     O98634   1.686   2.581   5.527 -0.0842  0.4635  0.1454
  748MOL0     C98635   1.627   2.460   5.546 -0.5464 -0.2519  0.3865
  748MOL0     C98636   1.674   2.348   5.477 -0.1762  0.4550  0.7640
  748MOL0     C98637   1.609   2.214   5.488 -0.2920  0.3804  0.6296
  748MOL0     C98638   1.475   2.214   5.549 -0.4939  0.0145  0.2091
  748MOL0     O98639   1.401   2.099   5.557  0.6311  0.1579  0.4371
  748MOL0     C98640   1.452   1.961   5.573 -0.2189 -0.1514  0.7414
  748MOL0     C98641   1.502   1.895   5.454  0.3516 -0.9793  0.2444
  748MOL0     C98642   1.555   1.762   5.490  0.4252  0.5341 -0.8059
  748MOL0     C98643   1.679   1.711   5.412 -1.2451  0.2031  0.0122
  748MOL0     C98644   1.722   1.563   5.422  0.4956 -0.4862 -0.1471
  748MOL0     C98645   1.606   1.457   5.420  0.7645  1.1710 -0.0776
  748MOL0     C98646   1.651   1.300   5.402 -0.6229 -0.0146  0.0008
  748MOL0     C98647   1.651   1.250   5.261 -0.3541 -0.3303 -0.2815
  748MOL0    Cl98648   1.488   1.238   5.189 -0.1761  0.0185  0.3997
  748MOL0     C98649   1.428   2.327   5.605 -0.0876 -0.2962 -0.3805
  748MOL0     C98650   1.507   2.443   5.624  0.4532 -0.4959 -0.7278
  748MOL0     O98651   1.507   2.721   5.536  0.0741  0.4829 -0.2750
  748MOL0     C98652   1.678   2.943   5.526  0.0846  1.2166 -0.4345
  748MOL0     C98653   1.767   3.046   5.523 -0.9268  0.0913 -0.2765
  748MOL0     N98654   1.916   3.613   5.184  0.0148 -0.4771 -0.1961
  748MOL0     N98655   1.835   3.671   5.274 -0.4237  0.1142 -0.1937
  748MOL0     C98656   1.113   4.290   5.787  0.4215 -0.9189 -0.3728
  748MOL0     C98657   0.990   4.346   5.781 -0.0829 -0.2685 -0.3300
  748MOL0     C98658   0.566   4.337   5.674 -0.4494  0.2633 -0.3314
  748MOL0     C98659   0.529   4.469   5.662  0.0720 -1.5056 -0.7895
  748MOL0     C98660   0.403   4.513   5.665  0.3775  0.0365  0.4644
  748MOL0     C98661   0.294   4.419   5.708 -0.0416  0.2383  0.1493
  748MOL0     O98662   0.165   4.462   5.730 -0.3192  0.6401 -0.0115
  748MOL0     C98663   0.117   4.590   5.695 -0.6922  0.6189 -0.0351
  748MOL0     C98664   0.083   4.595   5.553 -0.5567  0.1849  0.7022
  748MOL0     C98665  -0.011   4.475   5.523  0.7231  0.9200  0.5128
  748MOL0     C98666  -0.111   4.504   5.406 -0.0857  0.3629  0.1805
  748MOL0     C98667  -0.042   4.536   5.280  0.4192 -0.0214 -0.0279
  748MOL0     C98668   0.021   4.559   5.175  0.2376  0.3006 -1.3145
  748MOL0     C98669   0.332   4.284   5.734  0.4953  0.0573 -0.2061
  748MOL0     C98670   0.463   4.247   5.703  0.1539 -0.4629  1.1860
  748MOL0     H98671   0.952   4.316   5.436  1.6639 -1.6804 -3.0294
  748MOL0     H98672   1.174   4.208   5.461 -0.3420  4.0630 -1.5232
  748MOL0     H98673   1.247   4.092   5.865 -1.4921  2.4136  0.0902
  748MOL0     H98674   1.392   4.190   5.867 -0.4062  0.4457 -0.3899
  748MOL0     H98675   1.446   3.937   5.857 -1.5811 -2.3185 -0.7978
  748MOL0     H98676   1.524   4.027   5.727  0.6283 -0.5161  1.2168
  748MOL0     H98677   1.307   3.931   5.591 -0.9579  0.7144 -0.1170
  748MOL0     H98678   1.263   3.843   5.737 -0.1237 -1.1313 -2.8737
  748MOL0     H98679   1.509   3.832   5.571  1.4775 -1.0684  0.6738
  748MOL0     H98680   1.504   3.738   5.714  1.2478  3.2104  1.3432
  748MOL0     H98681   1.357   3.719   5.454  1.9300  1.5270  1.6043
  748MOL0     H98682   1.281   3.636   5.600  0.3407 -4.5332 -2.8047
  748MOL0     H98683   1.399   3.450   5.528 -0.1026 -0.0158 -0.0644
  748MOL0     H98684   1.523   3.520   5.630 -1.6584 -0.2896  0.8595
  748MOL0     H98685   1.582   3.429   5.402 -1.4830 -0.2053  2.8912
  748MOL0     H98686   1.523   3.582   5.326  2.2700 -0.3212 -1.9476
  748MOL0     H98687   1.720   3.558   5.565  1.5302  1.5322 -0.4937
  748MOL0     H98688   1.682   3.708   5.488 -2.9076  0.6194  0.7269
  748MOL0     H98689   1.807   3.353   5.357  0.5091 -0.4130  1.3279
  748MOL0     H98690   2.006   3.419   5.012  0.2427 -0.0075  0.1764
  748MOL0     H98691   1.925   3.292   5.103 -2.1787  0.8353  1.1805
  748MOL0     H98692   2.198   3.411   5.159 -0.4186  0.5143 -3.9291
  748MOL0     H98693   2.148   3.249   5.096 -0.9321 -1.6435  2.8195
  748MOL0     H98694   2.214   3.270   5.342  0.6048 -1.8635  0.5670
  748MOL0     H98695   2.055   3.349   5.365  0.5051  1.2511 -2.2157
  748MOL0     H98696   2.128   3.064   5.339  1.1060  2.1355  0.5820
  748MOL0     H98697   2.007   3.111   5.216 -0.5894 -0.0558  1.2197
  748MOL0     H98698   1.974   2.884   5.292  0.4720  0.2297  0.8984
  748MOL0     H98699   1.850   2.712   5.327  3.4296  0.3850  1.0054
  748MOL0     H98700   1.770   2.356   5.426 -0.7697 -0.9836 -0.6341
  748MOL0     H98701   1.661   2.124   5.457  0.6454  1.3562 -0.7330
  748MOL0     H98702   1.368   1.900   5.606  1.1425 -0.7222  3.3994
  748MOL0     H98703   1.524   1.959   5.655 -0.6544 -1.3937  1.1074
  748MOL0     H98704   1.576   1.954   5.401 -0.2253  1.7081  2.2158
  748MOL0     H98705   1.415   1.885   5.388  0.2509  0.4348  0.1306
  748MOL0     H98706   1.472   1.690   5.488  2.1498 -1.6805  0.8415
  748MOL0     H98707   1.596   1.769   5.591 -1.8768  1.5855  0.1221
  748MOL0     H98708   1.652   1.746   5.312  1.9928 -0.4174 -1.1970
  748MOL0     H98709   1.763   1.770   5.451 -1.2347 -0.1755  0.5679
  748MOL0     H98710   1.780   1.547   5.514  4.1056  0.2970 -2.0905
  748MOL0     H98711   1.796   1.528   5.349 -1.2100 -1.1410 -1.6377
  748MOL0     H98712   1.541   1.476   5.334  2.7342 -0.1795 -1.9589
  748MOL0     H98713   1.542   1.458   5.510  1.5916 -2.4335  0.6986
  748MOL0     H98714   1.749   1.286   5.449  0.8131 -2.5609 -3.3486
  748MOL0     H98715   1.576   1.243   5.456  0.6306  0.0351  1.8996
  748MOL0     H98716   1.696   1.152   5.242  0.8402  0.4795 -1.8154
  748MOL0     H98717   1.719   1.316   5.206 -1.0781  0.8527  0.1950
  748MOL0     H98718   1.331   2.324   5.653 -1.5248 -0.6086 -3.1176
  748MOL0     H98719   1.456   2.521   5.679  1.0905 -0.4721 -0.1572
  748MOL0     H98720   1.590   2.945   5.590  0.4162 -3.7359  0.6272
  748MOL0     H98721   1.779   3.143   5.570  3.5146 -0.2067 -0.3742
  748MOL0     H98722   1.140   4.278   5.892  2.1657  3.2519 -0.1510
  748MOL0     H98723   0.930   4.361   5.870  0.7941 -2.3950  0.6903
  748MOL0     H98724   0.612   4.534   5.634 -0.6918  0.3609  1.0271
  748MOL0     H98725   0.391   4.619   5.647  3.8646  1.0519  3.0055
  748MOL0     H98726   0.190   4.670   5.711  0.4287 -0.1781 -1.0584
  748MOL0     H98727   0.032   4.608   5.762 -1.7001 -1.3466 -0.7257
  748MOL0     H98728   0.037   4.692   5.533 -0.5116 -0.0888 -0.8720
  748MOL0     H98729   0.173   4.587   5.492 -2.6645 -1.9523 -2.4770
  748MOL0     H98730  -0.065   4.435   5.609 -2.6951  3.1310 -0.4129
  748MOL0     H98731   0.043   4.387   5.485 -1.9991 -0.7472  0.2857
  748MOL0     H98732  -0.180   4.420   5.392 -0.0979  0.5187 -0.7882
  748MOL0     H98733  -0.173   4.589   5.436  1.0712  2.1250 -2.0781
  748MOL0     H98734   0.086   4.596   5.099  0.5272  0.4321 -1.0034
  748MOL0     H98735   0.263   4.215   5.781 -0.5201  0.7798 -0.5860
  748MOL0     H98736   0.484   4.142   5.717 -0.4453 -0.5183  1.6958
  749MOL0     O98737   4.151   6.592   1.450 -0.1911  0.3036  0.7491
  749MOL0     C98738   4.122   6.620   1.332  0.1281 -0.1169 -0.4634
  749MOL0     O98739   4.188   6.711   1.251  0.6690 -0.3808  0.3175
  749MOL0     C98740   4.265   6.801   1.317  0.1918  0.2728  0.7277
  749MOL0     C98741   4.204   6.901   1.398 -0.1939  0.5954  0.2794
  749MOL0     C98742   4.280   7.014   1.437  0.7572  0.5463 -0.5572
  749MOL0     C98743   4.410   7.021   1.399 -1.3777  0.4580  0.0319
  749MOL0     O98744   4.490   7.110   1.474 -0.4502  0.2342 -0.2758
  749MOL0     C98745   4.635   7.130   1.442  1.3595  0.3613 -0.1656
  749MOL0     C98746   4.681   7.252   1.526 -1.5699 -0.1953 -1.7341
  749MOL0     C98747   4.835   7.270   1.518  0.2890  0.7021  0.3553
  749MOL0     C98748   4.891   7.400   1.580  0.0509  0.5812 -0.4525
  749MOL0     C98749   5.038   7.423   1.534 -0.5861  0.9667 -0.9318
  749MOL0     C98750   5.074   7.564   1.557  0.1706 -0.6993  0.1640
  749MOL0     C98751   5.219   7.587   1.490 -0.1021  0.4823 -0.4154
  749MOL0     C98752   5.229   7.728   1.442  0.5834  0.5967  0.9037
  749MOL0     N98753   5.319   7.808   1.525 -0.6318  0.1550 -1.0961
  749MOL0     C98754   5.455   7.822   1.506 -0.5442 -0.0344 -1.3325
  749MOL0     C98755   5.483   7.939   1.572  0.6165 -0.0603  0.1448
  749MOL0     C98756   5.621   7.984   1.621 -0.3025  0.1482  0.4335
  749MOL0     C98757   5.718   7.975   1.503  0.2928  0.9058 -0.4299
  749MOL0     C98758   5.846   8.049   1.531 -0.0506 -0.2555  1.1772
  749MOL0     C98759   5.967   7.975   1.465  0.9362  0.8602 -0.7267
  749MOL0     O98760   5.966   7.966   1.321  0.5615  0.2544 -0.8388
  749MOL0     C98761   5.958   8.074   1.248  0.1136 -0.5452  0.1244
  749MOL0     C98762   5.970   8.211   1.293  0.3472 -0.5866 -0.1479
  749MOL0     C98763   5.964   8.312   1.196  0.5081  0.1116  0.0538
  749MOL0     C98764   5.922   8.291   1.067  1.2701 -0.3117  0.6817
  749MOL0     C98765   5.908   8.396   0.968  0.0410 -0.3816  1.1356
  749MOL0     O98766   5.903   8.522   1.011 -0.3627 -0.3949 -0.0560
  749MOL0     C98767   5.885   8.622   0.927 -0.2778  0.5465  0.5936
  749MOL0     C98768   5.973   8.669   0.819  0.0321  0.4076  1.7210
  749MOL0     C98769   5.941   8.785   0.751  0.9217  0.1532  0.2119
  749MOL0     C98770   5.813   8.854   0.771  0.0476 -0.0710  0.0097
  749MOL0     O98771   5.774   8.969   0.706  0.3215 -0.5904 -0.5267
  749MOL0     C98772   5.816   8.983   0.569 -0.0880  0.2059 -0.6626
  749MOL0     C98773   5.719   9.081   0.502 -0.0097 -0.7387  0.3957
  749MOL0     C98774   5.709   9.084   0.353  0.6760 -0.6388 -0.4828
  749MOL0     C98775   5.599   9.169   0.296 -0.5035 -0.4984  0.5664
  749MOL0     C98776   5.620   9.188   0.137 -0.5996  0.8977 -1.5438
  749MOL0     C98777   5.526   9.307   0.091  0.2675 -0.0199  0.6501
  749MOL0     C98778   5.588   9.441   0.102 -0.1530  0.5419  0.4284
  749MOL0     C98779   5.487   9.553   0.104  0.5578 -0.0151  0.3496
  749MOL0    Cl98780   5.385   9.544   0.249  0.3758  0.7578  0.0466
  749MOL0     C98781   5.729   8.805   0.867  0.2807 -0.0602 -0.4187
  749MOL0     C98782   5.760   8.694   0.948  0.5341  0.2849 -0.2324
  749MOL0     O98783   5.916   8.356   0.848 -0.0076 -0.0044  0.0025
  749MOL0     C98784   5.881   8.158   1.032  0.6041 -0.5661 -0.4870
  749MOL0     C98785   5.912   8.056   1.121  0.1842  1.3473 -0.4039
  749MOL0     N98786   5.374   7.981   1.633  0.0167 -0.6950 -0.1532
  749MOL0     N98787   5.275   7.910   1.602  0.3451 -0.8419  1.0616
  749MOL0     C98788   4.467   6.927   1.319  0.2802  0.7643  0.2805
  749MOL0     C98789   4.393   6.822   1.261  0.4687 -0.1917 -0.5943
  749MOL0     C98790   4.010   6.548   1.279 -0.0245  0.3857  0.4336
  749MOL0     C98791   3.924   6.613   1.180  0.2723 -0.3268  0.5681
  749MOL0     C98792   3.812   6.550   1.115 -1.0819 -0.2047 -0.6782
  749MOL0     C98793   3.780   6.415   1.156  0.2348  0.3770  0.2109
  749MOL0     O98794   3.674   6.362   1.084 -0.3391  1.0778 -0.0155
  749MOL0     C98795   3.622   6.232   1.115 -0.6848  0.1891 -0.1163
  749MOL0     C98796   3.523   6.195   0.998 -0.0966 -0.5464  0.0214
  749MOL0     C98797   3.397   6.286   1.007 -0.0639 -0.7764  0.0916
  749MOL0     C98798   3.280   6.237   0.918  0.2009  0.9820  0.4215
  749MOL0     C98799   3.242   6.098   0.935 -0.6686 -0.2897 -0.1032
  749MOL0     C98800   3.214   5.979   0.945  0.3883 -0.1166 -0.0814
  749MOL0     C98801   3.868   6.346   1.245  0.3406  0.5519  0.9186
  749MOL0     C98802   3.974   6.415   1.312  0.5870 -0.1484  0.1087
  749MOL0     H98803   4.097   6.907   1.412  0.0534  1.1509  2.1765
  749MOL0     H98804   4.246   7.099   1.495 -0.6469 -0.1942 -0.2529
  749MOL0     H98805   4.647   7.135   1.334 -0.0092  0.4712 -0.3317
  749MOL0     H98806   4.690   7.044   1.481 -0.9860  0.3897  3.8143
  749MOL0     H98807   4.639   7.235   1.625  1.1673 -0.5089 -0.5251
  749MOL0     H98808   4.642   7.346   1.486  0.3851  0.9813 -1.0396
  749MOL0     H98809   4.852   7.273   1.410 -1.2541 -0.1446  0.0648
  749MOL0     H98810   4.880   7.185   1.570  0.4364  1.2985  1.2251
  749MOL0     H98811   4.829   7.487   1.559 -0.0748  0.6367  0.1119
  749MOL0     H98812   4.873   7.399   1.688 -0.9653  2.7374 -0.5606
  749MOL0     H98813   5.038   7.398   1.427 -0.6233 -0.3167 -0.6423
  749MOL0     H98814   5.097   7.355   1.596 -1.9075 -0.1940 -0.9043
  749MOL0     H98815   5.081   7.584   1.664  1.3416 -0.2433  0.0179
  749MOL0     H98816   5.001   7.628   1.507  1.1034 -0.2258 -0.6217
  749MOL0     H98817   5.303   7.551   1.550 -0.5085  0.8728  0.4025
  749MOL0     H98818   5.221   7.528   1.398  2.1206 -0.9777  0.4823
  749MOL0     H98819   5.133   7.778   1.456 -0.7517 -1.7052  0.4667
  749MOL0     H98820   5.254   7.726   1.335  1.1045 -4.2659  0.8936
  749MOL0     H98821   5.512   7.741   1.460  1.2229 -1.4528  2.8783
  749MOL0     H98822   5.660   7.916   1.698  0.5176 -0.7405 -0.7193
  749MOL0     H98823   5.596   8.083   1.658  0.1509  0.1616  0.7077
  749MOL0     H98824   5.670   8.019   1.415  1.9863 -0.6790 -2.2298
  749MOL0     H98825   5.733   7.870   1.477  0.1041  1.2263 -1.8959
  749MOL0     H98826   5.828   8.148   1.488  0.2258 -1.1431 -1.1245
  749MOL0     H98827   5.871   8.050   1.638  0.5839 -0.0591  1.0289
  749MOL0     H98828   5.969   7.877   1.515  2.4883  2.7765  3.4328
  749MOL0     H98829   6.066   8.010   1.494  2.1335 -3.1213  0.5935
  749MOL0     H98830   6.013   8.242   1.387 -1.6672 -1.0719  0.9938
  749MOL0     H98831   6.001   8.412   1.215 -0.4380  0.2009  1.5772
  749MOL0     H98832   6.062   8.623   0.777  0.7359  4.4560 -2.0980
  749MOL0     H98833   6.010   8.818   0.674  0.9947  2.7739  1.3012
  749MOL0     H98834   5.821   8.887   0.517 -2.3271  1.5947 -3.7276
  749MOL0     H98835   5.919   9.019   0.562  0.4137 -1.2180 -1.0628
  749MOL0     H98836   5.742   9.183   0.533  1.3980 -0.1390 -2.2417
  749MOL0     H98837   5.621   9.047   0.535  0.0144 -1.3650 -0.1525
  749MOL0     H98838   5.685   8.982   0.322 -3.1826 -0.4099  1.1351
  749MOL0     H98839   5.806   9.119   0.318 -1.3763  3.2600 -3.1404
  749MOL0     H98840   5.501   9.127   0.323 -0.0473 -0.9274  1.6171
  749MOL0     H98841   5.606   9.267   0.344 -2.1252  1.3811 -2.6957
  749MOL0     H98842   5.587   9.097   0.085  0.1729 -0.2410 -0.1144
  749MOL0     H98843   5.727   9.202   0.117 -0.3144  0.9233 -0.1011
  749MOL0     H98844   5.436   9.308   0.153 -1.8775 -3.6145 -1.9770
  749MOL0     H98845   5.492   9.300  -0.013 -0.5835  3.0750  0.6169
  749MOL0     H98846   5.652   9.436   0.191 -0.5435  0.2186  0.6953
  749MOL0     H98847   5.659   9.458   0.021  0.1891 -0.7533  0.4313
  749MOL0     H98848   5.421   9.539   0.018  0.1040 -2.2799  1.0014
  749MOL0     H98849   5.534   9.650   0.084  0.1617  0.5718  2.0298
  749MOL0     H98850   5.635   8.851   0.896  0.9011  0.6417  0.5395
  749MOL0     H98851   5.687   8.661   1.021  1.9266 -2.1814  0.1710
  749MOL0     H98852   5.833   8.143   0.936  0.6536  2.4345 -1.0514
  749MOL0     H98853   5.889   7.954   1.091 -1.5189  1.7484 -0.5654
  749MOL0     H98854   4.569   6.939   1.283 -0.1688  4.5326 -0.0965
  749MOL0     H98855   4.441   6.751   1.195  2.5878  1.6659 -1.2028
  749MOL0     H98856   3.957   6.710   1.144 -0.8829 -0.5279 -1.1278
  749MOL0     H98857   3.748   6.605   1.047 -1.1094  2.5096  1.3751
  749MOL0     H98858   3.579   6.226   1.215 -0.2013  0.1169  0.0935
  749MOL0     H98859   3.699   6.154   1.116 -0.8768 -0.0015 -0.1255
  749MOL0     H98860   3.567   6.210   0.899 -1.0886 -1.8658 -0.6513
  749MOL0     H98861   3.504   6.088   1.013 -0.5748 -0.3545  0.8362
  749MOL0     H98862   3.407   6.394   0.993  0.6360 -1.0443 -1.7182
  749MOL0     H98863   3.380   6.280   1.115  2.9046 -1.7204  0.5799
  749MOL0     H98864   3.192   6.302   0.921 -1.4067 -0.7277 -3.3868
  749MOL0     H98865   3.317   6.246   0.815 -3.1554 -2.6811 -1.3428
  749MOL0     H98866   3.181   5.878   0.957 -0.7395  0.3249  0.7394
  749MOL0     H98867   3.846   6.243   1.270  0.7945  0.3516  0.5082
  749MOL0     H98868   4.040   6.364   1.382  2.5839  0.7220 -1.0379
  750MOL0     O98869   0.681  10.752   9.038  0.0695  0.5286 -0.3073
  750MOL0     C98870   0.623  10.798   9.133  0.1610 -0.6556 -0.2358
  750MOL0     O98871   0.671  10.805   9.263  0.0686 -0.0256 -0.5551
  750MOL0     C98872   0.812  10.792   9.279 -0.4225 -1.2498  0.5010
  750MOL0     C98873   0.875  10.901   9.350 -0.1065 -0.5423 -0.0862
  750MOL0     C98874   1.008  10.892   9.380  0.3175  0.5188  0.1331
  750MOL0     C98875   1.080  10.780   9.343 -0.7924 -0.4508  0.4787
  750MOL0     O98876   1.216  10.762   9.379  0.0765 -1.0770  0.3150
  750MOL0     C98877   1.284  10.648   9.330 -0.8798 -0.1938  0.3132
  750MOL0     C98878   1.430  10.658   9.366 -0.2773 -0.2036 -0.5405
  750MOL0     C98879   1.511  10.768   9.297  0.6338 -0.0645 -0.1053
  750MOL0     C98880   1.654  10.763   9.333 -0.4751 -0.1863 -0.7876
  750MOL0     C98881   1.748  10.863   9.258  0.5974 -0.3192  0.4517
  750MOL0     C98882   1.714  11.007   9.294  0.3463 -0.4112 -0.4595
  750MOL0     C98883   1.802  11.112   9.243 -0.7645  0.2199  1.3929
  750MOL0     C98884   1.736  11.252   9.257  0.0478  0.1308 -0.4438
  750MOL0     N98885   1.786  11.360   9.165  0.6059  0.2557 -0.0588
  750MOL0     C98886   1.701  11.420   9.074 -0.2363  0.2397  0.0419
  750MOL0     C98887   1.781  11.498   9.008  0.9873  0.3334  0.4362
  750MOL0     C98888   1.738  11.566   8.879  0.6311 -0.6886  1.2311
  750MOL0     C98889   1.683  11.710   8.918 -0.9619 -0.1312 -0.2119
  750MOL0     C98890   1.613  11.780   8.807 -0.1967  0.3473 -1.0952
  750MOL0     C98891   1.604  11.924   8.842  0.2081 -0.8883  0.0043
  750MOL0     O98892   1.479  11.967   8.900  1.0281 -0.1520 -0.0783
  750MOL0     C98893   1.400  12.040   8.818  0.6881 -0.0627  0.0131
  750MOL0     C98894   1.406  12.176   8.823 -0.1478 -1.4821 -0.3636
  750MOL0     C98895   1.343  12.271   8.734  0.1286  0.2680  0.2778
  750MOL0     C98896   1.279  12.216   8.619  0.2414 -0.2368  0.3071
  750MOL0     C98897   1.222  12.297   8.515  0.0496 -0.1722 -0.1083
  750MOL0     O98898   1.219  12.250   8.386  0.2572 -0.4836 -0.9685
  750MOL0     C98899   1.207  12.331   8.279  0.2958  0.1663  1.0885
  750MOL0     C98900   1.106  12.282   8.195  0.2712 -1.2899 -0.1727
  750MOL0     C98901   1.074  12.350   8.076 -0.8356 -0.2273 -0.6108
  750MOL0     C98902   1.142  12.465   8.046 -0.8069 -0.2438 -0.0719
  750MOL0     O98903   1.105  12.534   7.938 -0.3392 -0.4757 -0.6958
  750MOL0     C98904   1.031  12.657   7.967  0.8732 -0.0117  0.8147
  750MOL0     C98905   1.016  12.737   7.829 -0.2680  0.8701  0.6125
  750MOL0     C98906   0.903  12.689   7.739 -0.1973  0.2333 -0.6033
  750MOL0     C98907   0.889  12.779   7.622  0.0350  0.6540  0.0967
  750MOL0     C98908   0.806  12.721   7.499  0.0535  0.3029 -0.5430
  750MOL0     C98909   0.661  12.748   7.532 -0.0411  0.2799 -0.5054
  750MOL0     C98910   0.579  12.665   7.427  0.1771 -0.7319  0.7023
  750MOL0     C98911   0.437  12.715   7.439 -0.1816  0.6154  0.3908
  750MOL0    Cl98912   0.417  12.885   7.375 -0.5267  0.4288  0.2254
  750MOL0     C98913   1.253  12.513   8.125 -0.6536 -1.2460 -1.0378
  750MOL0     C98914   1.285  12.444   8.241 -0.0661 -0.1577 -0.9176
  750MOL0     O98915   1.195  12.413   8.543 -0.3161 -0.4713  0.1962
  750MOL0     C98916   1.281  12.073   8.603 -0.3343 -0.2039  0.4719
  750MOL0     C98917   1.343  11.986   8.700 -0.0686 -0.1634 -0.5987
  750MOL0     N98918   1.904  11.492   9.068 -0.3572  0.0076 -0.6087
  750MOL0     N98919   1.913  11.402   9.161  0.6390  0.2805 -0.8951
  750MOL0     C98920   1.023  10.677   9.268 -0.1335 -0.2666  0.4464
  750MOL0     C98921   0.892  10.682   9.238 -0.2570 -0.2356 -0.3344
  750MOL0     C98922   0.488  10.855   9.109  0.2402 -0.1806 -0.0866
  750MOL0     C98923   0.419  10.919   9.212 -0.5448 -0.4106 -0.7409
  750MOL0     C98924   0.290  10.977   9.195  0.0829  0.8008 -0.3404
  750MOL0     C98925   0.232  10.952   9.077 -0.9180 -0.3975 -0.4209
  750MOL0     O98926   0.102  10.990   9.050 -0.4057 -0.0751 -0.3970
  750MOL0     C98927   0.045  11.116   9.115  0.3439  0.4204  0.7447
  750MOL0     C98928  -0.033  11.080   9.239  0.2168  0.0752 -0.1975
  750MOL0     C98929  -0.094  11.210   9.305  0.0043  0.3440 -0.0908
  750MOL0     C98930  -0.176  11.299   9.209 -0.2894 -0.6355  0.4886
  750MOL0     C98931  -0.300  11.240   9.153 -0.4186 -0.2317 -0.5954
  750MOL0     C98932  -0.403  11.192   9.117 -0.3169  0.2111 -0.1224
  750MOL0     C98933   0.294  10.884   8.971 -0.5224  0.3102 -0.3283
  750MOL0     C98934   0.427  10.844   8.984 -0.5255 -0.3518 -0.3935
  750MOL0     H98935   0.822  10.986   9.391  3.4727  2.5342 -1.3585
  750MOL0     H98936   1.067  10.969   9.430  2.1978 -0.0444 -1.1102
  750MOL0     H98937   1.273  10.641   9.221  0.5398 -1.1598  0.2019
  750MOL0     H98938   1.240  10.558   9.375 -0.9352 -1.0973 -1.4274
  750MOL0     H98939   1.478  10.566   9.332  1.7556  0.7165 -0.3014
  750MOL0     H98940   1.446  10.667   9.474 -1.2892 -0.3229 -0.3718
  750MOL0     H98941   1.458  10.862   9.313 -0.0497 -0.9793  4.3864
  750MOL0     H98942   1.501  10.737   9.192  0.5558 -1.9653  0.4256
  750MOL0     H98943   1.668  10.786   9.439  0.2450 -1.3875 -0.5962
  750MOL0     H98944   1.692  10.663   9.314 -2.0675 -0.3490 -3.5444
  750MOL0     H98945   1.742  10.862   9.149 -0.1731 -1.4092  0.4909
  750MOL0     H98946   1.848  10.832   9.289  0.6016  0.7256  1.5392
  750MOL0     H98947   1.714  11.015   9.403  1.4704 -1.7455 -0.3314
  750MOL0     H98948   1.612  11.037   9.269  1.1389  2.5727 -0.5334
  750MOL0     H98949   1.896  11.119   9.297  0.8192 -1.2045 -0.9882
  750MOL0     H98950   1.827  11.090   9.138 -1.8911 -0.4956  1.2585
  750MOL0     H98951   1.739  11.287   9.361  5.2036  2.0137 -0.9366
  750MOL0     H98952   1.630  11.230   9.240  0.1762 -3.8714  2.5943
  750MOL0     H98953   1.598  11.393   9.056 -0.4957  1.1450  0.1313
  750MOL0     H98954   1.662  11.505   8.829 -1.0051  0.9373  1.6344
  750MOL0     H98955   1.825  11.566   8.814  0.6974 -0.9699  1.3176
  750MOL0     H98956   1.771  11.769   8.947 -0.2217 -0.4729 -1.6458
  750MOL0     H98957   1.620  11.705   9.007  2.2026  2.0294  2.3642
  750MOL0     H98958   1.650  11.766   8.705 -0.5838 -1.4654 -1.0098
  750MOL0     H98959   1.511  11.739   8.811 -0.2643  0.5865  0.1260
  750MOL0     H98960   1.596  11.974   8.745 -1.2312  2.9610  1.8750
  750MOL0     H98961   1.695  11.960   8.891 -0.3534  2.5255 -1.1330
  750MOL0     H98962   1.464  12.203   8.911 -1.3135  0.7758 -0.2070
  750MOL0     H98963   1.342  12.379   8.736  0.0050  0.2649  0.4338
  750MOL0     H98964   1.041  12.198   8.216 -2.3604  1.1076  2.1595
  750MOL0     H98965   0.998  12.319   8.005 -0.0755 -0.5582 -1.3051
  750MOL0     H98966   1.096  12.716   8.031  1.7675  0.7138 -0.7137
  750MOL0     H98967   0.937  12.636   8.020 -2.4798  0.8445 -4.0862
  750MOL0     H98968   1.113  12.722   7.782 -0.3573  3.7651 -0.6894
  750MOL0     H98969   1.003  12.844   7.850  0.7256  0.8347  1.5609
  750MOL0     H98970   0.813  12.695   7.801  1.9851 -0.8827  2.9862
  750MOL0     H98971   0.932  12.590   7.705 -0.9984 -0.5793  0.9730
  750MOL0     H98972   0.836  12.871   7.650 -1.1909  0.4611 -1.4185
  750MOL0     H98973   0.992  12.799   7.590 -0.1335 -1.5577 -2.1439
  750MOL0     H98974   0.822  12.615   7.476 -2.2876  0.1478 -1.8225
  750MOL0     H98975   0.815  12.778   7.406  0.3405 -0.2444 -0.8591
  750MOL0     H98976   0.640  12.853   7.510  0.8206  0.6411  0.3560
  750MOL0     H98977   0.625  12.718   7.631 -0.1372  0.4259 -0.4970
  750MOL0     H98978   0.619  12.680   7.327 -0.6509 -1.1443  0.3041
  750MOL0     H98979   0.565  12.564   7.466 -0.9549  0.1777  2.8981
  750MOL0     H98980   0.415  12.709   7.546  1.5423  2.4711  0.9057
  750MOL0     H98981   0.365  12.652   7.385  1.0365  0.8060 -1.5671
  750MOL0     H98982   1.302  12.608   8.103 -0.3718 -1.5422 -1.7243
  750MOL0     H98983   1.364  12.495   8.297 -0.0155  2.4678 -3.1636
  750MOL0     H98984   1.257  12.019   8.512 -0.5062 -3.7117  2.4282
  750MOL0     H98985   1.351  11.878   8.700  2.9285 -0.1837  3.2738
  750MOL0     H98986   1.069  10.600   9.208 -1.7426  0.2006 -1.4719
  750MOL0     H98987   0.845  10.598   9.187 -1.1660  0.6413 -0.9892
  750MOL0     H98988   0.460  10.894   9.309 -0.0121 -2.1541 -1.3771
  750MOL0     H98989   0.224  11.010   9.274  1.4798  2.7991  0.0683
  750MOL0     H98990  -0.029  11.157   9.046  0.4817  0.6007  0.7041
  750MOL0     H98991   0.123  11.191   9.131 -2.1608  2.7771  3.1766
  750MOL0     H98992  -0.119  11.014   9.222 -0.8023  0.8199  1.6943
  750MOL0     H98993   0.032  11.041   9.317  0.5246 -0.7625 -0.8654
  750MOL0     H98994  -0.012  11.275   9.337  1.1781  1.7448 -5.1679
  750MOL0     H98995  -0.154  11.175   9.390  0.7793 -0.7024  0.0360
  750MOL0     H98996  -0.202  11.396   9.252  1.3103  1.6608 -3.1705
  750MOL0     H98997  -0.107  11.329   9.130  0.3454  1.1093  1.6510
  750MOL0     H98998  -0.491  11.136   9.091 -1.5699  0.4213  3.2212
  750MOL0     H98999   0.254  10.879   8.870  2.8353  2.7471 -2.0109
  750MOL0     H99000   0.472  10.797   8.898 -1.2991  2.0209 -2.2152
  751MOL0     O99001   1.463   4.137   2.909 -0.2782 -0.0462  0.0527
  751MOL0     C99002   1.380   4.224   2.941  0.1700 -0.1531 -0.5842
  751MOL0     O99003   1.327   4.325   2.861  0.2225 -0.0215 -0.0436
  751MOL0     C99004   1.282   4.287   2.733  0.6326 -0.9045 -0.4878
  751MOL0     C99005   1.310   4.381   2.630 -0.0004  0.0242  0.9928
  751MOL0     C99006   1.287   4.337   2.495  0.2599  0.5663 -0.2810
  751MOL0     C99007   1.235   4.211   2.472  0.4129 -0.0031  0.6725
  751MOL0     O99008   1.205   4.172   2.341  0.2836 -0.3775 -0.8234
  751MOL0     C99009   1.298   4.210   2.229  0.1467 -0.7627 -0.5824
  751MOL0     C99010   1.229   4.198   2.086 -0.4616 -0.6498  0.2736
  751MOL0     C99011   1.312   4.265   1.981 -0.2323 -1.0510  0.2098
  751MOL0     C99012   1.250   4.260   1.839 -0.1758 -0.0143  0.5293
  751MOL0     C99013   1.355   4.275   1.726 -0.1118  0.1744 -0.0523
  751MOL0     C99014   1.452   4.153   1.716  0.2144 -0.2988 -0.4603
  751MOL0     C99015   1.537   4.158   1.591  0.2877 -0.0197  0.1077
  751MOL0     C99016   1.619   4.282   1.590  0.1762 -0.5561  0.0418
  751MOL0     N99017   1.717   4.274   1.483  0.5030 -0.3112 -0.5400
  751MOL0     C99018   1.689   4.253   1.351  1.0378 -0.3952 -0.2416
  751MOL0     C99019   1.802   4.250   1.288 -0.4354 -0.0766  0.2985
  751MOL0     C99020   1.818   4.259   1.140  0.5950  0.5095  0.3071
  751MOL0     C99021   1.883   4.383   1.084  0.6071 -0.8436 -0.7011
  751MOL0     C99022   1.908   4.367   0.936  0.2357  0.4740 -0.4626
  751MOL0     C99023   1.970   4.504   0.889 -0.5272  0.1330 -0.6713
  751MOL0     O99024   2.028   4.504   0.760 -0.1774 -0.0445  0.0687
  751MOL0     C99025   2.165   4.475   0.734  0.9596 -0.3053  0.7425
  751MOL0     C99026   2.224   4.530   0.616 -0.6125 -0.1681 -0.4404
  751MOL0     C99027   2.363   4.518   0.603 -0.4048  0.1845  0.8468
  751MOL0     C99028   2.443   4.451   0.693  0.2046  0.2318 -1.0418
  751MOL0     C99029   2.599   4.454   0.684  0.7520  0.6353  0.6524
  751MOL0     O99030   2.669   4.376   0.774 -0.6230  0.6896 -0.7457
  751MOL0     C99031   2.813   4.381   0.772  0.9274  0.4011  0.1558
  751MOL0     C99032   2.905   4.468   0.700  0.8135  0.2789  0.1920
  751MOL0     C99033   3.040   4.442   0.690  0.7576 -0.1852 -0.5954
  751MOL0     C99034   3.097   4.331   0.754  0.6312 -0.0386  0.1863
  751MOL0     O99035   3.234   4.318   0.746 -0.1809 -0.5265  0.1886
  751MOL0     C99036   3.316   4.290   0.859  1.0863  0.4835 -0.3097
  751MOL0     C99037   3.462   4.289   0.808 -0.2311  0.7334 -0.0130
  751MOL0     C99038   3.573   4.306   0.916  0.6604  0.6250  0.3449
  751MOL0     C99039   3.711   4.253   0.851 -0.2038 -0.2730 -0.7966
  751MOL0     C99040   3.824   4.336   0.915 -0.4420  0.0850  0.5468
  751MOL0     C99041   3.965   4.285   0.859 -0.1092 -0.2313  0.3233
  751MOL0     C99042   4.080   4.333   0.946 -0.9350 -0.2131  0.3491
  751MOL0     C99043   4.138   4.234   1.045 -0.1737  0.4967  1.0088
  751MOL0    Cl99044   4.289   4.294   1.103 -0.1498  0.0357  0.1027
  751MOL0     C99045   3.010   4.257   0.837  0.1643 -0.1198  0.1548
  751MOL0     C99046   2.876   4.286   0.850  0.3036  0.1684 -0.2956
  751MOL0     O99047   2.644   4.516   0.591 -0.1667 -0.0284  0.1724
  751MOL0     C99048   2.375   4.392   0.798 -0.2451 -0.7423 -0.8496
  751MOL0     C99049   2.241   4.409   0.829 -0.2813 -0.5988  0.0632
  751MOL0     N99050   1.902   4.271   1.385 -0.2163  0.0915  0.0541
  751MOL0     N99051   1.846   4.277   1.502  0.3510 -0.2541 -0.7825
  751MOL0     C99052   1.195   4.125   2.573  0.3085 -0.0635  0.2205
  751MOL0     C99053   1.211   4.167   2.706  0.2535 -0.5994 -0.2865
  751MOL0     C99054   1.343   4.223   3.083 -0.3663  0.0477 -0.1401
  751MOL0     C99055   1.210   4.269   3.107  0.2424 -0.0322  0.7187
  751MOL0     C99056   1.153   4.277   3.241  0.5440  0.1998  0.1574
  751MOL0     C99057   1.228   4.233   3.349  0.2975  0.2039  0.1057
  751MOL0     O99058   1.180   4.216   3.477 -0.3563 -0.5094 -0.1033
  751MOL0     C99059   1.042   4.266   3.504  0.3985 -0.2743  0.0534
  751MOL0     C99060   0.977   4.233   3.646 -0.3327 -0.6433  0.6812
  751MOL0     C99061   1.074   4.290   3.757  0.3284  0.7945  0.5474
  751MOL0     C99062   1.114   4.430   3.738  0.5013  0.5141  0.3764
  751MOL0     C99063   0.994   4.528   3.737 -0.3373  0.1587 -0.4079
  751MOL0     C99064   0.922   4.622   3.707 -0.0315  0.4093  0.2299
  751MOL0     C99065   1.363   4.186   3.322  0.2142 -0.6892  0.6722
  751MOL0     C99066   1.422   4.191   3.193 -0.3112  0.4214 -0.5701
  751MOL0     H99067   1.346   4.483   2.635  2.4411 -0.5527 -1.6218
  751MOL0     H99068   1.296   4.408   2.414  0.2722  2.3256  1.1948
  751MOL0     H99069   1.382   4.140   2.222  4.8534  4.0548  0.8587
  751MOL0     H99070   1.333   4.313   2.239 -2.2143  0.1008 -0.5126
  751MOL0     H99071   1.138   4.259   2.091  0.9418  1.5362  0.5444
  751MOL0     H99072   1.206   4.094   2.060  0.4136 -1.0006  0.8576
  751MOL0     H99073   1.402   4.202   1.980  0.6265  0.1414 -0.1017
  751MOL0     H99074   1.340   4.367   2.008 -3.8835  0.6847 -1.7692
  751MOL0     H99075   1.191   4.170   1.823  1.6708 -1.5107  1.7231
  751MOL0     H99076   1.186   4.348   1.827  2.9717  2.0597 -3.1922
  751MOL0     H99077   1.412   4.363   1.756  1.6125  0.2008 -2.9940
  751MOL0     H99078   1.316   4.300   1.627  0.8077 -1.7909 -0.9819
  751MOL0     H99079   1.390   4.063   1.726 -2.4053  1.5855  2.1718
  751MOL0     H99080   1.522   4.151   1.801 -0.0891 -4.8511 -0.0716
  751MOL0     H99081   1.594   4.066   1.578  0.0457 -0.3868  1.5164
  751MOL0     H99082   1.474   4.164   1.501 -0.2026 -0.5107  0.4141
  751MOL0     H99083   1.659   4.301   1.690 -0.4758  0.5043  0.1159
  751MOL0     H99084   1.548   4.364   1.582 -1.0172 -1.3888  1.7244
  751MOL0     H99085   1.592   4.238   1.306  0.2906  1.5193  0.5983
  751MOL0     H99086   1.721   4.236   1.094 -0.5162 -1.6974  3.3577
  751MOL0     H99087   1.888   4.176   1.131 -2.1992 -1.9381 -0.8204
  751MOL0     H99088   1.968   4.413   1.146 -0.9405  0.6438  0.8567
  751MOL0     H99089   1.821   4.473   1.099 -2.9606 -2.5800 -3.5529
  751MOL0     H99090   1.979   4.284   0.930 -0.5839 -0.4221  1.2583
  751MOL0     H99091   1.820   4.354   0.873 -0.7295  3.0927  0.2239
  751MOL0     H99092   2.049   4.544   0.954 -2.3992  1.2023  1.0669
  751MOL0     H99093   1.885   4.571   0.905 -0.4230  0.3357 -0.9610
  751MOL0     H99094   2.156   4.574   0.544  0.5181  2.5663  0.0555
  751MOL0     H99095   2.397   4.568   0.513 -6.0807  1.3287 -1.0660
  751MOL0     H99096   2.872   4.546   0.631 -1.1640 -1.2761 -0.7116
  751MOL0     H99097   3.097   4.516   0.636  0.6382  2.7368  2.8542
  751MOL0     H99098   3.291   4.191   0.898  0.9994  1.3589  1.9917
  751MOL0     H99099   3.310   4.365   0.939 -3.0653 -0.5054  0.5213
  751MOL0     H99100   3.471   4.368   0.733  1.7818  0.1478 -0.4468
  751MOL0     H99101   3.481   4.195   0.756  0.1673  0.8155 -0.0177
  751MOL0     H99102   3.555   4.244   1.005  1.0911 -2.2642 -1.4321
  751MOL0     H99103   3.573   4.403   0.967  0.6231  0.6525  0.2919
  751MOL0     H99104   3.714   4.151   0.891  1.8149 -0.1926 -0.6087
  751MOL0     H99105   3.721   4.261   0.742  0.8307  1.4897 -0.6090
  751MOL0     H99106   3.820   4.323   1.023 -0.6785  0.6164  0.6057
  751MOL0     H99107   3.822   4.444   0.898  5.5102  0.5458  0.7213
  751MOL0     H99108   3.977   4.338   0.764  0.5014 -0.3758  0.3173
  751MOL0     H99109   3.972   4.176   0.844  3.4224  0.1795 -2.2750
  751MOL0     H99110   4.165   4.355   0.880 -0.4617 -5.5796 -1.2850
  751MOL0     H99111   4.045   4.421   1.002 -1.0778 -1.5732  2.5036
  751MOL0     H99112   4.129   4.136   0.996 -2.6184  0.8955  0.5296
  751MOL0     H99113   4.073   4.227   1.133 -0.5593  2.2744  0.9056
  751MOL0     H99114   3.054   4.174   0.890 -2.5656 -1.1557  0.9751
  751MOL0     H99115   2.807   4.229   0.911 -1.3865  1.5927 -0.7919
  751MOL0     H99116   2.438   4.343   0.872  0.6220 -0.0414 -1.1179
  751MOL0     H99117   2.198   4.361   0.917 -1.9360 -1.3439 -1.0886
  751MOL0     H99118   1.134   4.047   2.529 -1.2094  1.7323 -0.9928
  751MOL0     H99119   1.184   4.105   2.791  1.8853  2.3906  2.6317
  751MOL0     H99120   1.152   4.296   3.019 -0.1373 -1.6249  0.4401
  751MOL0     H99121   1.052   4.310   3.261 -0.1717 -0.7813 -1.5933
  751MOL0     H99122   0.966   4.209   3.450 -2.3429  2.4007  0.8046
  751MOL0     H99123   1.033   4.372   3.477  3.0564  0.6394  2.2154
  751MOL0     H99124   0.876   4.275   3.656 -1.3167 -1.5340 -3.4363
  751MOL0     H99125   0.964   4.127   3.668 -0.9444 -0.7095  0.0754
  751MOL0     H99126   1.158   4.219   3.755 -2.7363 -3.1878 -0.7051
  751MOL0     H99127   1.026   4.280   3.854 -4.1316  2.3901 -1.2590
  751MOL0     H99128   1.174   4.444   3.828  2.3563 -1.2008 -0.5112
  751MOL0     H99129   1.175   4.447   3.649  0.3350  1.8210  0.4992
  751MOL0     H99130   0.867   4.711   3.683 -0.4871 -0.0245 -0.3482
  751MOL0     H99131   1.415   4.156   3.412  1.0492  2.8727  1.5636
  751MOL0     H99132   1.526   4.165   3.175  0.6506  2.5517  1.3532
  752MOL0     O99133   3.119   1.681   7.783  0.3566  0.1166  0.9725
  752MOL0     C99134   3.232   1.704   7.830  0.1729 -0.1977  0.1929
  752MOL0     O99135   3.344   1.634   7.797  0.2416  0.4893 -1.0021
  752MOL0     C99136   3.321   1.511   7.733 -0.0069 -0.7035 -0.5503
  752MOL0     C99137   3.284   1.389   7.795  0.5896  0.7196 -0.0889
  752MOL0     C99138   3.264   1.276   7.721 -0.1402  0.5468 -0.1355
  752MOL0     C99139   3.277   1.289   7.587  0.1681  1.1743  0.5654
  752MOL0     O99140   3.256   1.180   7.507  0.2975 -0.6588  0.3662
  752MOL0     C99141   3.129   1.138   7.470  0.8630 -0.0472  0.1459
  752MOL0     C99142   3.094   1.010   7.556  0.2769 -0.6478 -0.1397
  752MOL0     C99143   2.982   0.925   7.481 -0.0018  0.2289  0.6997
  752MOL0     C99144   2.850   1.003   7.468 -0.0633  0.0647  0.0923
  752MOL0     C99145   2.731   0.922   7.441 -0.3622 -1.1070 -0.3321
  752MOL0     C99146   2.615   1.022   7.440  0.1713 -0.4940  0.7211
  752MOL0     C99147   2.483   0.940   7.410 -0.0089  0.4974 -0.3852
  752MOL0     C99148   2.371   1.007   7.495  0.1297  0.0933  0.1933
  752MOL0     N99149   2.239   0.947   7.485  0.6789 -0.5888  0.3152
  752MOL0     C99150   2.162   0.941   7.366 -1.6882  0.0049  0.6590
  752MOL0     C99151   2.049   0.882   7.402 -0.4277  0.9844 -0.6538
  752MOL0     C99152   1.925   0.861   7.309  1.2239 -0.1615 -1.0241
  752MOL0     C99153   1.844   0.992   7.301 -0.1651 -0.4902  0.6113
  752MOL0     C99154   1.743   0.979   7.184  0.1204  0.3716 -0.4994
  752MOL0     C99155   1.633   1.077   7.220 -1.1530  0.7351 -1.3526
  752MOL0     O99156   1.528   1.080   7.116  0.2116 -0.0448  0.3737
  752MOL0     C99157   1.542   1.141   6.995 -0.7373 -0.4221  0.0363
  752MOL0     C99158   1.656   1.203   6.961 -0.3002 -0.2030  0.2193
  752MOL0     C99159   1.669   1.265   6.835 -0.0603 -0.4037  0.7692
  752MOL0     C99160   1.569   1.264   6.737 -0.0529  0.8320  0.4589
  752MOL0     C99161   1.568   1.336   6.600 -0.0609  0.4913 -0.6211
  752MOL0     O99162   1.670   1.419   6.577 -0.6287 -0.9613  0.2772
  752MOL0     C99163   1.683   1.502   6.469 -0.1925  0.0475  0.3859
  752MOL0     C99164   1.609   1.613   6.458  0.1144 -0.1942  0.2921
  752MOL0     C99165   1.647   1.697   6.357 -0.2444 -0.6380 -1.0316
  752MOL0     C99166   1.782   1.692   6.294  0.5152 -0.4763  0.0840
  752MOL0     O99167   1.827   1.797   6.213  0.5844 -0.7695  0.3321
  752MOL0     C99168   1.955   1.823   6.198  0.4323 -0.1820  0.2502
  752MOL0     C99169   1.979   1.971   6.199  0.8689 -0.3643 -0.7306
  752MOL0     C99170   1.925   2.037   6.073 -0.4874  0.1705  0.7205
  752MOL0     C99171   2.025   2.148   6.034  0.4410  0.6021  0.1088
  752MOL0     C99172   1.969   2.244   5.933 -0.6573 -0.7663 -0.4926
  752MOL0     C99173   1.960   2.175   5.793  0.8296  0.6381 -0.2774
  752MOL0     C99174   1.976   2.283   5.678 -0.3628  0.3899 -0.5942
  752MOL0     C99175   2.040   2.228   5.544 -0.0550 -0.9385 -0.3283
  752MOL0    Cl99176   2.215   2.223   5.564 -0.0162  0.3409  0.8937
  752MOL0     C99177   1.845   1.572   6.305  0.6454 -0.5079 -0.1194
  752MOL0     C99178   1.795   1.477   6.394  0.9975  0.4474  0.3996
  752MOL0     O99179   1.471   1.314   6.525 -0.4265 -0.7918 -0.3729
  752MOL0     C99180   1.453   1.196   6.780  1.1596 -0.6989  0.6281
  752MOL0     C99181   1.436   1.133   6.900 -0.2196  0.2616 -0.7534
  752MOL0     N99182   2.051   0.849   7.539 -0.6690 -1.5420 -0.1607
  752MOL0     N99183   2.165   0.892   7.588  0.3342  0.6269 -0.4384
  752MOL0     C99184   3.317   1.405   7.520  0.3120 -0.2315 -0.7561
  752MOL0     C99185   3.343   1.515   7.595  0.2662 -0.1777 -0.1268
  752MOL0     C99186   3.252   1.816   7.928  0.2011  0.4084  0.1510
  752MOL0     C99187   3.371   1.839   8.004 -0.3111  1.2991 -0.4627
  752MOL0     C99188   3.374   1.952   8.094 -0.5529  0.6649  0.0986
  752MOL0     C99189   3.259   2.044   8.101 -0.1796 -0.1459  0.5528
  752MOL0     O99190   3.276   2.146   8.191  0.1677  0.2793 -0.2544
  752MOL0     C99191   3.150   2.208   8.236  0.1790  0.8174  0.3789
  752MOL0     C99192   3.192   2.322   8.342 -0.3584 -0.3591  0.0532
  752MOL0     C99193   3.074   2.419   8.376 -0.7728 -0.5212  0.5179
  752MOL0     C99194   3.016   2.375   8.502  0.4922  0.6167 -0.2221
  752MOL0     C99195   2.932   2.482   8.564  0.0747 -0.3884  0.4823
  752MOL0     C99196   2.858   2.569   8.597 -0.4734 -0.7975  0.3742
  752MOL0     C99197   3.144   2.019   8.028 -0.2680 -1.0190 -0.4118
  752MOL0     C99198   3.149   1.914   7.940  0.8306  0.4131 -0.5021
  752MOL0     H99199   3.287   1.382   7.904  0.5636 -0.3143 -0.1547
  752MOL0     H99200   3.241   1.186   7.777  2.4661  1.3814  2.5307
  752MOL0     H99201   3.146   1.105   7.367  2.4287  1.2883 -0.0729
  752MOL0     H99202   3.053   1.217   7.469 -1.4921 -2.1670  0.9340
  752MOL0     H99203   3.052   1.042   7.652  1.5750 -0.5007  0.4031
  752MOL0     H99204   3.182   0.947   7.574 -0.5513 -1.4374  1.3586
  752MOL0     H99205   2.957   0.841   7.546 -2.0021  0.3001  0.1019
  752MOL0     H99206   3.031   0.896   7.388  0.9792 -0.7410  1.4988
  752MOL0     H99207   2.841   1.061   7.561 -2.6125  0.3091 -0.2528
  752MOL0     H99208   2.861   1.087   7.400 -2.2620  0.0541 -0.3222
  752MOL0     H99209   2.731   0.854   7.527  2.0901  1.8742  2.2589
  752MOL0     H99210   2.733   0.861   7.349  1.9817  0.0059 -1.0994
  752MOL0     H99211   2.626   1.092   7.357 -3.9378  1.3357  1.4869
  752MOL0     H99212   2.618   1.085   7.529 -1.6484  0.5533  0.0921
  752MOL0     H99213   2.457   0.924   7.305  0.7395 -1.7287 -0.2882
  752MOL0     H99214   2.491   0.838   7.448 -2.3758  0.3076 -0.2728
  752MOL0     H99215   2.359   1.110   7.461 -1.0616 -1.0833 -3.3176
  752MOL0     H99216   2.406   1.002   7.599 -0.7782 -2.1245  0.4476
  752MOL0     H99217   2.179   0.981   7.266  0.9920 -0.7102  0.7492
  752MOL0     H99218   1.863   0.788   7.361 -0.7704  2.7334  1.0388
  752MOL0     H99219   1.953   0.821   7.211  2.3846 -0.4602 -0.5863
  752MOL0     H99220   1.909   1.078   7.279  0.2673 -0.5645  1.5797
  752MOL0     H99221   1.791   1.009   7.395  0.1432  2.6934  0.3428
  752MOL0     H99222   1.795   1.016   7.095  0.0565 -1.5736 -1.3838
  752MOL0     H99223   1.715   0.875   7.164  0.9381 -0.0007  0.2285
  752MOL0     H99224   1.680   1.176   7.223  3.2899 -1.1931  1.3244
  752MOL0     H99225   1.599   1.059   7.323 -0.9069  3.9424 -0.6024
  752MOL0     H99226   1.733   1.196   7.038 -1.7113 -3.1089  1.5059
  752MOL0     H99227   1.764   1.311   6.813 -0.4675 -1.3389 -3.9390
  752MOL0     H99228   1.523   1.629   6.521  1.0605 -2.1339  2.2180
  752MOL0     H99229   1.583   1.782   6.335 -0.4903  0.3128  2.6345
  752MOL0     H99230   1.986   1.781   6.102  0.7877 -0.5270  0.5130
  752MOL0     H99231   2.019   1.764   6.265  0.7931 -0.5948 -0.4537
  752MOL0     H99232   2.087   1.990   6.207  0.7397 -0.4970  3.6745
  752MOL0     H99233   1.940   2.027   6.285  1.8810  1.3840 -1.3458
  752MOL0     H99234   1.828   2.081   6.097 -1.3236 -1.0317 -0.3771
  752MOL0     H99235   1.918   1.968   5.989  1.3158 -2.9979  2.9216
  752MOL0     H99236   2.054   2.207   6.121 -3.5656  3.4812 -0.2296
  752MOL0     H99237   2.115   2.106   5.989  0.4011  1.0806 -0.4356
  752MOL0     H99238   2.044   2.324   5.933 -3.6381  2.2643 -1.6141
  752MOL0     H99239   1.879   2.289   5.977  1.0079  2.4397 -0.0540
  752MOL0     H99240   1.865   2.121   5.784  0.7897 -0.5402  4.4968
  752MOL0     H99241   2.031   2.092   5.786  0.1897 -0.0273  0.7446
  752MOL0     H99242   1.891   2.347   5.653 -0.1432  0.4635 -1.1709
  752MOL0     H99243   2.054   2.355   5.706  0.0232  0.4985 -1.8802
  752MOL0     H99244   2.008   2.296   5.464  0.6705  0.1600  0.2764
  752MOL0     H99245   2.004   2.127   5.524 -0.1201 -0.5935 -2.0596
  752MOL0     H99246   1.925   1.540   6.239 -0.7875 -2.1779 -1.1429
  752MOL0     H99247   1.847   1.381   6.399 -3.0723 -1.9392  1.5474
  752MOL0     H99248   1.361   1.222   6.729  1.4233 -1.1245 -0.0795
  752MOL0     H99249   1.345   1.077   6.919  0.0998 -1.0500 -2.8211
  752MOL0     H99250   3.308   1.397   7.412 -3.2661 -2.6427 -0.4386
  752MOL0     H99251   3.370   1.610   7.549 -0.5757 -0.0240 -0.3153
  752MOL0     H99252   3.450   1.766   7.987 -1.6527 -0.3088 -0.0795
  752MOL0     H99253   3.458   1.966   8.161 -0.0663 -1.8048  0.0933
  752MOL0     H99254   3.080   2.135   8.276 -1.6007  2.7218  0.9048
  752MOL0     H99255   3.091   2.262   8.161 -0.4837  2.6511  2.1220
  752MOL0     H99256   3.242   2.287   8.433  2.2262 -2.0977 -1.8811
  752MOL0     H99257   3.281   2.377   8.311  0.6167 -2.1406 -0.4540
  752MOL0     H99258   2.999   2.418   8.297 -1.9218 -1.4056  1.5986
  752MOL0     H99259   3.113   2.521   8.387 -0.0903 -0.1759 -3.6508
  752MOL0     H99260   2.955   2.285   8.491  2.2816 -0.9474  1.7914
  752MOL0     H99261   3.087   2.341   8.579 -0.5395  3.1835  2.0078
  752MOL0     H99262   2.779   2.639   8.616  0.3539 -0.4539  2.8378
  752MOL0     H99263   3.063   2.090   8.020  1.5635  1.8211  3.1946
  752MOL0     H99264   3.068   1.910   7.868 -0.2255 -0.6334  0.6990
  753MOL0     O99265   6.796   1.278   3.201  0.4624 -0.3081  0.2727
  753MOL0     C99266   6.865   1.211   3.120 -0.0373  0.5153 -0.2833
  753MOL0     O99267   6.852   1.227   2.980  0.0802  1.0606  0.7690
  753MOL0     C99268   6.760   1.309   2.913 -0.2798  0.6176  0.4260
  753MOL0     C99269   6.640   1.365   2.967  1.0057  0.5438 -1.2317
  753MOL0     C99270   6.565   1.463   2.900  0.2048  0.1469 -0.1061
  753MOL0     C99271   6.606   1.513   2.775 -1.2847 -0.6492  0.7003
  753MOL0     O99272   6.537   1.601   2.701  0.2884  0.6046 -0.5442
  753MOL0     C99273   6.473   1.539   2.584  0.3237 -0.7135 -0.0523
  753MOL0     C99274   6.344   1.465   2.637 -0.0174  0.5300 -0.0279
  753MOL0     C99275   6.251   1.545   2.718  0.5171 -0.4523 -0.4524
  753MOL0     C99276   6.116   1.476   2.748 -0.0413  0.4905  0.7301
  753MOL0     C99277   6.016   1.577   2.812 -0.1754  0.8934 -0.5477
  753MOL0     C99278   5.877   1.527   2.832 -0.4174 -0.0516 -0.3637
  753MOL0     C99279   5.797   1.473   2.709  0.3810 -0.8794  0.1138
  753MOL0     C99280   5.678   1.390   2.755  0.2984  0.6149  0.8964
  753MOL0     N99281   5.618   1.318   2.638 -0.5554  0.0044  0.1529
  753MOL0     C99282   5.664   1.197   2.585 -0.9624 -0.0139 -0.5718
  753MOL0     C99283   5.607   1.183   2.467  0.2225 -0.1580  0.6404
  753MOL0     C99284   5.651   1.082   2.368  0.2493  0.2354 -0.6865
  753MOL0     C99285   5.739   1.153   2.262 -0.1207 -0.8437  0.0769
  753MOL0     C99286   5.887   1.167   2.308  0.0685 -0.1672  0.0755
  753MOL0     C99287   5.969   1.048   2.350  0.3390 -0.5779 -0.0512
  753MOL0     O99288   5.962   1.024   2.485 -1.1410  0.0843 -0.4128
  753MOL0     C99289   6.045   0.918   2.523  0.4875 -0.0897  0.1097
  753MOL0     C99290   5.988   0.806   2.579  1.4078 -0.6593  0.3199
  753MOL0     C99291   6.060   0.701   2.628 -0.0393  0.7437 -0.8657
  753MOL0     C99292   6.203   0.714   2.622  0.2183 -1.0368  0.1895
  753MOL0     C99293   6.291   0.619   2.684  0.6866 -0.2216  0.5748
  753MOL0     O99294   6.423   0.610   2.658 -0.5045  0.1779 -0.6448
  753MOL0     C99295   6.499   0.511   2.700 -0.3431  0.1673 -1.4294
  753MOL0     C99296   6.457   0.379   2.670  0.0538  0.6373 -0.6908
  753MOL0     C99297   6.545   0.272   2.709  0.2387 -0.4432  1.1730
  753MOL0     C99298   6.671   0.292   2.770  0.5633 -0.3253 -0.1448
  753MOL0     O99299   6.731   0.180   2.804  0.5859  0.9115 -0.2081
  753MOL0     C99300   6.742   0.156   2.953 -0.6619 -0.9536  0.4560
  753MOL0     C99301   6.796   0.021   2.998 -0.2725  0.3800 -0.0863
  753MOL0     C99302   6.946   0.002   2.963  1.1067 -0.0578  0.2985
  753MOL0     C99303   7.004  -0.111   3.052  0.7781 -0.5436 -0.8257
  753MOL0     C99304   7.100  -0.071   3.165 -0.4475  0.0161  0.1972
  753MOL0     C99305   7.025   0.000   3.275  0.1960  0.0061 -0.6481
  753MOL0     C99306   7.120   0.074   3.358  0.2111  0.2800 -0.0493
  753MOL0     C99307   7.180  -0.009   3.471 -0.3209  0.0606 -0.5160
  753MOL0    Cl99308   7.293  -0.139   3.422  0.3382  0.9743 -0.2081
  753MOL0     C99309   6.711   0.424   2.789  0.1842  0.3657 -0.1024
  753MOL0     C99310   6.631   0.524   2.750 -0.0764 -0.1209 -0.2859
  753MOL0     O99311   6.237   0.554   2.775 -0.9622  0.1082 -0.2817
  753MOL0     C99312   6.265   0.823   2.557  0.4879 -0.1304  1.4569
  753MOL0     C99313   6.188   0.929   2.513 -0.2380 -0.5489  0.1723
  753MOL0     N99314   5.522   1.291   2.445  0.2862  0.5950 -0.4558
  753MOL0     N99315   5.522   1.367   2.560 -0.2938 -0.1222  0.9103
  753MOL0     C99316   6.727   1.454   2.721  1.0167  0.2890 -0.2069
  753MOL0     C99317   6.799   1.361   2.788  0.0367  0.7333 -0.5192
  753MOL0     C99318   6.973   1.121   3.175  0.1216 -0.1849 -0.5569
  753MOL0     C99319   6.964   1.085   3.307  0.7296 -0.0027 -1.0337
  753MOL0     C99320   7.048   0.988   3.366  0.4048 -0.0409  0.7305
  753MOL0     C99321   7.146   0.924   3.281 -0.4584 -0.9410  0.1648
  753MOL0     O99322   7.218   0.824   3.339  0.8040  0.4266 -0.0391
  753MOL0     C99323   7.154   0.695   3.358 -0.1202  0.3497  0.2031
  753MOL0     C99324   7.110   0.629   3.219 -0.3667  0.1820 -0.2605
  753MOL0     C99325   7.229   0.585   3.121 -0.0964 -0.2287  0.2430
  753MOL0     C99326   7.250   0.429   3.115 -0.1565  0.5051 -0.4903
  753MOL0     C99327   7.357   0.385   3.030  0.7502 -0.2196 -1.0765
  753MOL0     C99328   7.458   0.360   2.964  0.1006 -0.3776  0.2164
  753MOL0     C99329   7.161   0.959   3.150  0.2564 -0.8638  0.6493
  753MOL0     C99330   7.067   1.052   3.094 -0.6724  0.4198  1.5498
  753MOL0     H99331   6.595   1.333   3.060  2.3722  0.2882 -0.6334
  753MOL0     H99332   6.467   1.497   2.931 -0.9798 -1.0481 -2.3316
  753MOL0     H99333   6.536   1.483   2.514 -2.3569 -4.6177  0.3504
  753MOL0     H99334   6.439   1.620   2.519  1.2834  2.1132  2.6859
  753MOL0     H99335   6.386   1.390   2.705  1.7435  0.4514 -1.1286
  753MOL0     H99336   6.298   1.420   2.549 -0.5416  0.2045  0.4054
  753MOL0     H99337   6.225   1.636   2.663 -0.1970 -0.1064  0.4377
  753MOL0     H99338   6.296   1.586   2.809  5.5111  0.4516 -2.9811
  753MOL0     H99339   6.067   1.433   2.660 -1.9266  2.6250  0.6481
  753MOL0     H99340   6.136   1.390   2.813 -1.0409  0.6745  1.3034
  753MOL0     H99341   6.013   1.664   2.745 -1.3816  0.9503 -0.4401
  753MOL0     H99342   6.063   1.613   2.904 -0.1443  1.3621 -0.7429
  753MOL0     H99343   5.821   1.603   2.887  1.7550  0.9295  0.6296
  753MOL0     H99344   5.891   1.436   2.891 -0.5861 -1.6851 -2.7176
  753MOL0     H99345   5.774   1.565   2.654  2.0038  0.6363  1.8132
  753MOL0     H99346   5.854   1.417   2.634 -0.6096 -2.7379  0.6872
  753MOL0     H99347   5.602   1.448   2.809 -0.6195 -0.9947  1.4118
  753MOL0     H99348   5.717   1.313   2.821  1.8403  1.3588  0.9055
  753MOL0     H99349   5.750   1.140   2.622 -1.4586  0.4565  1.4489
  753MOL0     H99350   5.579   1.034   2.301  1.0861 -2.5628  0.2747
  753MOL0     H99351   5.704   0.999   2.415 -0.6092  0.0247 -0.0523
  753MOL0     H99352   5.698   1.252   2.240  2.4034  0.0762 -0.7989
  753MOL0     H99353   5.735   1.098   2.168 -3.1364  1.5409 -1.3864
  753MOL0     H99354   5.941   1.207   2.222  0.6307  3.6569  2.0174
  753MOL0     H99355   5.892   1.252   2.376  3.0264  0.9352 -1.3145
  753MOL0     H99356   6.069   1.082   2.321  0.2652 -1.9763 -2.1915
  753MOL0     H99357   5.942   0.960   2.290  3.1205 -1.8557  0.4385
  753MOL0     H99358   5.881   0.815   2.592  1.6882  1.7419  1.5749
  753MOL0     H99359   6.020   0.611   2.673  2.7973 -0.2553 -0.1384
  753MOL0     H99360   6.354   0.363   2.639 -0.7921  0.0611  2.1811
  753MOL0     H99361   6.505   0.171   2.710 -1.0943  0.0252 -0.2175
  753MOL0     H99362   6.643   0.169   2.996 -1.3017 -2.2613 -0.5629
  753MOL0     H99363   6.813   0.228   2.996 -0.8421 -0.7214  0.3643
  753MOL0     H99364   6.741  -0.055   2.943  2.7858 -1.0980 -1.3425
  753MOL0     H99365   6.767   0.013   3.103 -0.8920 -2.5638 -0.4045
  753MOL0     H99366   7.015   0.086   2.974 -2.3414  2.9210  1.1217
  753MOL0     H99367   6.954  -0.025   2.857 -3.8345 -0.5748 -0.1778
  753MOL0     H99368   6.939  -0.189   3.093  2.1024 -1.6384 -0.7336
  753MOL0     H99369   7.078  -0.152   2.983  1.9057  3.3034 -2.1033
  753MOL0     H99370   7.181  -0.012   3.118  0.4017 -0.8596  0.5273
  753MOL0     H99371   7.147  -0.160   3.208 -0.1632 -0.1306 -0.3978
  753MOL0     H99372   6.961  -0.067   3.334  0.2417  2.0780  1.9891
  753MOL0     H99373   6.948   0.072   3.243 -1.0133 -0.4197  1.1334
  753MOL0     H99374   7.190   0.131   3.296 -1.7461  0.5499 -2.1267
  753MOL0     H99375   7.071   0.153   3.416 -1.7724 -2.9354  3.0745
  753MOL0     H99376   7.088  -0.044   3.518  0.1734 -2.0197 -1.0265
  753MOL0     H99377   7.228   0.055   3.546  3.2261 -1.4198 -1.3084
  753MOL0     H99378   6.802   0.441   2.846 -0.5155 -0.9476  1.5167
  753MOL0     H99379   6.670   0.624   2.767 -0.5501 -0.2801  2.0640
  753MOL0     H99380   6.373   0.824   2.542  0.1424 -0.0863 -1.5425
  753MOL0     H99381   6.233   1.022   2.481  1.0732 -2.3344 -3.7983
  753MOL0     H99382   6.756   1.497   2.625  0.6626  3.7883  1.1133
  753MOL0     H99383   6.889   1.324   2.741  2.5636  1.6092  3.1132
  753MOL0     H99384   6.902   1.135   3.380  0.4219 -2.0569  0.1875
  753MOL0     H99385   7.043   0.951   3.468  0.3160  0.2730  0.8416
  753MOL0     H99386   7.063   0.689   3.419 -1.2900 -5.5807 -1.5071
  753MOL0     H99387   7.237   0.640   3.404  1.1537 -0.3195 -2.6757
  753MOL0     H99388   7.060   0.537   3.250  0.6429  0.0458  1.0680
  753MOL0     H99389   7.030   0.681   3.164 -2.2561 -3.7243 -1.5470
  753MOL0     H99390   7.315   0.635   3.166 -2.1741  1.7179  2.3460
  753MOL0     H99391   7.223   0.628   3.021  1.7678  0.2716  0.3197
  753MOL0     H99392   7.267   0.384   3.213  1.5738  0.1632 -0.9249
  753MOL0     H99393   7.156   0.400   3.066  1.2503 -2.2774 -1.7904
  753MOL0     H99394   7.547   0.326   2.916  0.5556  0.6120  0.3377
  753MOL0     H99395   7.235   0.915   3.084  1.3346 -0.3752  1.5065
  753MOL0     H99396   7.063   1.064   2.986  1.1137  0.9634  1.5173
  754MOL0     O99397   8.817   8.035   5.953  1.0385 -0.3835 -0.2934
  754MOL0     C99398   8.709   8.004   5.896 -0.5942 -0.5961 -0.5522
  754MOL0     O99399   8.613   7.912   5.938  0.2506 -0.5413 -0.2317
  754MOL0     C99400   8.621   7.848   6.054 -0.0492 -0.1301  0.1001
  754MOL0     C99401   8.538   7.873   6.162 -0.5039 -0.6765 -0.7577
  754MOL0     C99402   8.555   7.806   6.285 -0.0628  0.3877 -0.0313
  754MOL0     C99403   8.658   7.707   6.296  1.6906  0.1723  0.4867
  754MOL0     O99404   8.671   7.652   6.417 -0.3259 -0.1773  1.1258
  754MOL0     C99405   8.688   7.518   6.432  0.3099  0.8820  1.6971
  754MOL0     C99406   8.710   7.479   6.576  0.6124  0.0490  0.9090
  754MOL0     C99407   8.846   7.526   6.627 -0.1904  0.1881  0.2922
  754MOL0     C99408   8.854   7.659   6.697  0.2710  0.2631 -0.3928
  754MOL0     C99409   8.896   7.789   6.620  0.3636 -1.2567  0.7011
  754MOL0     C99410   8.886   7.920   6.695 -0.4880 -0.3506 -0.4019
  754MOL0     C99411   9.010   7.969   6.772  0.0380 -0.1187 -0.6664
  754MOL0     C99412   8.973   8.080   6.873  0.3393 -0.2092  0.5737
  754MOL0     N99413   8.849   8.154   6.841 -1.1487 -0.0268  0.6846
  754MOL0     C99414   8.828   8.254   6.759 -0.0248 -0.1768  0.1581
  754MOL0     C99415   8.707   8.296   6.782 -0.8389  1.0336 -0.0687
  754MOL0     C99416   8.648   8.411   6.717  0.3433 -0.2273  0.5431
  754MOL0     C99417   8.677   8.551   6.787 -0.5325 -0.8971  0.3681
  754MOL0     C99418   8.609   8.572   6.923 -0.1497 -0.2741  0.3132
  754MOL0     C99419   8.606   8.704   6.997 -0.8926 -0.3746  0.4805
  754MOL0     O99420   8.736   8.757   6.999 -0.2888 -0.8985 -1.1371
  754MOL0     C99421   8.768   8.849   7.095 -0.2757 -0.0308 -0.1315
  754MOL0     C99422   8.678   8.932   7.166  0.2933  1.0409 -0.6620
  754MOL0     C99423   8.725   9.030   7.250  0.1412 -0.1194 -0.0104
  754MOL0     C99424   8.865   9.053   7.255  0.6913  0.4161 -0.1300
  754MOL0     C99425   8.927   9.148   7.349 -0.7553  0.3559 -0.9514
  754MOL0     O99426   9.058   9.132   7.388 -0.6161 -0.9359  0.3575
  754MOL0     C99427   9.122   9.238   7.448  1.0274 -0.3417 -1.1942
  754MOL0     C99428   9.156   9.224   7.582 -0.1541  0.1128 -0.1512
  754MOL0     C99429   9.228   9.328   7.653 -1.4067  1.1580 -0.3335
  754MOL0     C99430   9.267   9.442   7.582 -0.4629 -0.0032  0.7475
  754MOL0     O99431   9.347   9.541   7.624 -0.2243 -0.1257 -0.6504
  754MOL0     C99432   9.399   9.536   7.760 -0.2237  0.9137 -0.5436
  754MOL0     C99433   9.466   9.670   7.803  0.5382  0.2756 -0.4840
  754MOL0     C99434   9.571   9.644   7.909 -0.4802  0.3728  0.2089
  754MOL0     C99435   9.645   9.778   7.922  1.0900  0.4663 -0.7833
  754MOL0     C99436   9.747   9.755   8.033  0.0394  0.3974 -0.7760
  754MOL0     C99437   9.860   9.848   8.033 -0.4254 -0.3475  0.1578
  754MOL0     C99438   9.935   9.837   8.172  0.9056  0.3969 -0.7043
  754MOL0     C99439  10.069   9.903   8.153 -0.5486  0.2002 -0.2990
  754MOL0    Cl99440  10.177   9.793   8.042 -0.3513  0.2166 -0.4847
  754MOL0     C99441   9.221   9.460   7.449  0.0204 -0.0166 -0.8160
  754MOL0     C99442   9.145   9.359   7.387 -0.3617  0.3181 -0.5810
  754MOL0     O99443   8.849   9.224   7.408 -0.3901 -0.3705 -0.6030
  754MOL0     C99444   8.955   8.967   7.194 -0.9732  0.3762 -0.6022
  754MOL0     C99445   8.907   8.861   7.114 -0.4279  0.9300 -0.1753
  754MOL0     N99446   8.659   8.219   6.888  0.4393 -0.3059 -0.0133
  754MOL0     N99447   8.749   8.140   6.923 -0.3959  0.0976  0.1680
  754MOL0     C99448   8.733   7.668   6.179  0.3843 -0.3269  0.1387
  754MOL0     C99449   8.712   7.744   6.058 -0.1272  0.3530 -0.2184
  754MOL0     C99450   8.705   8.070   5.770 -0.1212 -0.1477  0.4227
  754MOL0     C99451   8.797   8.154   5.713  0.5599  0.0980  0.4669
  754MOL0     C99452   8.788   8.199   5.580 -0.4538  0.4319  0.1692
  754MOL0     C99453   8.683   8.163   5.494  0.4714  0.2662 -0.3698
  754MOL0     O99454   8.662   8.196   5.361  0.1092  0.2579  0.4411
  754MOL0     C99455   8.705   8.315   5.306  1.2492 -0.2141  0.2328
  754MOL0     C99456   8.637   8.346   5.171 -0.4445 -0.0027  0.0094
  754MOL0     C99457   8.488   8.373   5.169  0.3115 -0.2030 -1.0094
  754MOL0     C99458   8.434   8.413   5.036  0.7848  0.0015 -0.4056
  754MOL0     C99459   8.467   8.314   4.946 -0.3350  0.0731 -0.2397
  754MOL0     C99460   8.503   8.226   4.869 -1.2428  0.6565  0.0949
  754MOL0     C99461   8.591   8.081   5.555 -0.2771  0.0487  0.6901
  754MOL0     C99462   8.601   8.035   5.682  0.1097  0.1522  0.6901
  754MOL0     H99463   8.474   7.959   6.143 -1.3962 -1.5241 -1.7055
  754MOL0     H99464   8.506   7.838   6.376  1.0616  0.8155  0.4408
  754MOL0     H99465   8.767   7.499   6.358 -0.6169  2.4661  0.2198
  754MOL0     H99466   8.608   7.464   6.381  2.6073 -2.2740  1.1765
  754MOL0     H99467   8.720   7.371   6.563  3.9738  0.4390 -0.7962
  754MOL0     H99468   8.631   7.505   6.647 -0.4000 -1.5410  0.4197
  754MOL0     H99469   8.919   7.520   6.546 -0.8628 -3.2213 -0.2237
  754MOL0     H99470   8.877   7.446   6.695  0.9346  2.2057  2.2934
  754MOL0     H99471   8.750   7.675   6.728  0.9545  1.7454  1.3348
  754MOL0     H99472   8.924   7.640   6.778 -1.8103  1.0102  1.7003
  754MOL0     H99473   8.839   7.803   6.528  2.9228 -0.2836 -0.8700
  754MOL0     H99474   8.999   7.772   6.588  0.2526 -1.0704  0.2452
  754MOL0     H99475   8.797   7.918   6.758 -1.5769 -1.3844 -1.9151
  754MOL0     H99476   8.853   7.995   6.623 -0.2653  0.6805  0.5341
  754MOL0     H99477   9.066   7.888   6.820  1.6091  1.0788 -0.3855
  754MOL0     H99478   9.082   8.001   6.697 -0.8684  0.0417 -1.4815
  754MOL0     H99479   9.060   8.144   6.890  0.9508 -0.4226 -1.4939
  754MOL0     H99480   8.954   8.036   6.971 -0.2123 -0.9551  0.1468
  754MOL0     H99481   8.893   8.301   6.685 -1.4780  1.9441  0.1317
  754MOL0     H99482   8.541   8.391   6.710  0.7906 -2.6342 -0.6867
  754MOL0     H99483   8.684   8.412   6.614  0.2825 -0.4540  0.5187
  754MOL0     H99484   8.636   8.632   6.726  0.0038  0.9659  2.3729
  754MOL0     H99485   8.783   8.570   6.802 -0.3054 -1.8368  0.0136
  754MOL0     H99486   8.504   8.540   6.916 -0.4440  0.9141 -1.1997
  754MOL0     H99487   8.670   8.505   6.984  2.5735  0.0741 -1.8513
  754MOL0     H99488   8.564   8.688   7.096 -3.9736 -1.7413 -0.9278
  754MOL0     H99489   8.545   8.769   6.934 -0.4248 -0.7556 -0.3831
  754MOL0     H99490   8.571   8.917   7.159  0.2508 -1.0762  2.5643
  754MOL0     H99491   8.659   9.093   7.309  2.0924  2.2662 -0.2282
  754MOL0     H99492   9.119   9.143   7.644 -0.0787  1.0396  1.1384
  754MOL0     H99493   9.259   9.296   7.751 -1.0918 -2.1630 -1.3974
  754MOL0     H99494   9.464   9.447   7.766 -0.8015  0.5862  2.3822
  754MOL0     H99495   9.323   9.519   7.836 -0.9226  0.4218 -1.3424
  754MOL0     H99496   9.399   9.746   7.844  0.5695  0.7820 -1.3398
  754MOL0     H99497   9.518   9.711   7.715 -1.1922  2.0911 -0.7487
  754MOL0     H99498   9.635   9.562   7.876  0.8527  2.2679 -2.3349
  754MOL0     H99499   9.534   9.606   8.004  3.2429 -0.8506  1.3615
  754MOL0     H99500   9.692   9.792   7.824  0.8752  0.5772 -0.8697
  754MOL0     H99501   9.581   9.863   7.948 -2.0443 -2.1555  0.7484
  754MOL0     H99502   9.791   9.655   8.045  0.0298  0.5401  0.5304
  754MOL0     H99503   9.695   9.775   8.127  2.2352  2.0114  0.1631
  754MOL0     H99504   9.826   9.951   8.016  1.4104  0.1135 -1.0467
  754MOL0     H99505   9.928   9.826   7.950 -3.8733  0.0979 -3.0681
  754MOL0     H99506   9.876   9.880   8.254  1.0262 -1.7482  0.5963
  754MOL0     H99507   9.938   9.732   8.203 -1.3676  0.3348 -0.4860
  754MOL0     H99508  10.122   9.920   8.247  1.0422 -1.0181 -0.9449
  754MOL0     H99509  10.043  10.005   8.121 -2.4319  0.2735  1.2177
  754MOL0     H99510   9.265   9.543   7.394  1.6067  0.1155  0.5772
  754MOL0     H99511   9.114   9.369   7.284 -0.2323  0.2534 -0.6272
  754MOL0     H99512   9.060   8.971   7.220 -0.4501 -0.5173 -2.3940
  754MOL0     H99513   8.970   8.780   7.077  0.3895  0.4956  2.0012
  754MOL0     H99514   8.805   7.589   6.162 -0.3902 -1.2664  1.0745
  754MOL0     H99515   8.756   7.701   5.969 -3.1618 -0.0301 -1.6897
  754MOL0     H99516   8.897   8.167   5.752  0.6009 -0.7021  0.6347
  754MOL0     H99517   8.859   8.272   5.542 -1.5892  2.0562  1.0486
  754MOL0     H99518   8.814   8.310   5.307  1.3580  1.7228  0.7364
  754MOL0     H99519   8.682   8.400   5.371  0.6005 -0.4955  0.3876
  754MOL0     H99520   8.676   8.438   5.128 -0.1964  0.1533  0.5592
  754MOL0     H99521   8.659   8.259   5.109 -1.0525  0.6377 -1.1400
  754MOL0     H99522   8.470   8.456   5.237  2.0243 -0.2567 -0.4515
  754MOL0     H99523   8.438   8.283   5.205 -0.6757  0.7568  0.0959
  754MOL0     H99524   8.326   8.430   5.040  0.3312  0.0969 -5.6467
  754MOL0     H99525   8.483   8.506   5.007  0.9021  1.0004  2.6448
  754MOL0     H99526   8.538   8.148   4.805 -0.5241 -2.6921  4.1703
  754MOL0     H99527   8.516   8.041   5.487  1.9899 -1.3299 -1.1675
  754MOL0     H99528   8.527   7.957   5.697  2.1828 -1.9779  0.3706
  755MOL0     O99529   4.302   7.023   3.489 -0.0076  0.0441  0.4086
  755MOL0     C99530   4.204   7.054   3.430  0.5282 -0.9305 -0.2097
  755MOL0     O99531   4.158   7.182   3.409 -0.2359  0.1466 -0.4680
  755MOL0     C99532   4.242   7.285   3.456  0.1654 -0.0866 -1.0361
  755MOL0     C99533   4.241   7.333   3.588  0.0220 -1.4301 -0.5302
  755MOL0     C99534   4.330   7.436   3.628 -0.3683 -0.1236 -0.0783
  755MOL0     C99535   4.414   7.498   3.532 -0.1884  0.0137  1.0802
  755MOL0     O99536   4.499   7.597   3.568  0.2300 -0.7182 -0.1182
  755MOL0     C99537   4.425   7.711   3.606  0.3728  0.4163 -0.6208
  755MOL0     C99538   4.527   7.798   3.678 -0.1451 -0.0348  0.2528
  755MOL0     C99539   4.473   7.889   3.786 -1.6318 -0.0784  0.1118
  755MOL0     C99540   4.404   8.011   3.723 -0.7747  1.2103 -0.7273
  755MOL0     C99541   4.303   8.079   3.813  0.3349  0.5199 -0.0721
  755MOL0     C99542   4.369   8.169   3.914  1.1914 -0.1290  0.1698
  755MOL0     C99543   4.401   8.303   3.849 -0.7180  0.4220  0.4068
  755MOL0     C99544   4.498   8.389   3.946  0.8131  0.2096  0.5601
  755MOL0     N99545   4.522   8.526   3.883  0.5348  0.0941  0.7025
  755MOL0     C99546   4.455   8.636   3.915  0.7570 -0.5786 -0.8507
  755MOL0     C99547   4.506   8.735   3.828 -0.0284 -0.6019 -1.0896
  755MOL0     C99548   4.472   8.883   3.816 -0.2890 -0.6596 -0.5362
  755MOL0     C99549   4.365   8.911   3.709  0.2097  0.3284 -0.8743
  755MOL0     C99550   4.366   9.060   3.674 -0.4681  0.6496 -0.0658
  755MOL0     C99551   4.295   9.087   3.539  0.1232  0.5673 -0.7853
  755MOL0     O99552   4.279   9.229   3.523  0.0801  0.0889  0.2230
  755MOL0     C99553   4.176   9.299   3.570 -0.5349 -0.3985  0.2467
  755MOL0     C99554   4.207   9.430   3.610  0.5684  0.1614  0.6608
  755MOL0     C99555   4.110   9.530   3.632  0.1010  0.3061 -0.3923
  755MOL0     C99556   3.974   9.476   3.635 -0.5654 -0.4860  0.2887
  755MOL0     C99557   3.863   9.563   3.674 -0.5891  0.6555 -0.0557
  755MOL0     O99558   3.733   9.520   3.655  0.6709 -0.2792 -0.0026
  755MOL0     C99559   3.620   9.593   3.689 -0.5633 -1.1876  0.1456
  755MOL0     C99560   3.609   9.724   3.647  0.0891 -0.3527 -0.5653
  755MOL0     C99561   3.507   9.800   3.704  1.2647  0.6695 -0.0304
  755MOL0     C99562   3.415   9.750   3.796  0.6443  0.1433 -0.6787
  755MOL0     O99563   3.320   9.823   3.841 -0.3040 -0.5895 -0.1300
  755MOL0     C99564   3.187   9.799   3.796 -1.0830  0.3078  0.2003
  755MOL0     C99565   3.106   9.907   3.864 -0.1729  0.7228 -0.3387
  755MOL0     C99566   3.099   9.906   4.015  0.0780  0.0974 -0.2425
  755MOL0     C99567   3.087   9.765   4.066 -0.4034 -0.8506  0.3040
  755MOL0     C99568   3.073   9.764   4.225  0.5949 -1.0565 -0.3602
  755MOL0     C99569   2.925   9.802   4.275  0.4028  0.3215  0.0358
  755MOL0     C99570   2.816   9.708   4.218  0.2128 -0.6591 -0.5699
  755MOL0     C99571   2.684   9.727   4.290  0.0896 -0.1276  0.0771
  755MOL0    Cl99572   2.699   9.652   4.450 -0.4704 -0.0871 -0.1660
  755MOL0     C99573   3.436   9.626   3.841 -0.1939  0.2638 -0.4835
  755MOL0     C99574   3.538   9.550   3.791 -0.0797  0.2766 -0.4415
  755MOL0     O99575   3.893   9.671   3.725 -0.0234 -0.6226  0.4278
  755MOL0     C99576   3.947   9.343   3.593 -0.6469  0.3795  0.3651
  755MOL0     C99577   4.047   9.257   3.553 -0.0304  0.4533 -0.6573
  755MOL0     N99578   4.606   8.674   3.754  0.2961  0.3277  0.4660
  755MOL0     N99579   4.610   8.551   3.770  0.5130  0.2209 -0.0607
  755MOL0     C99580   4.414   7.455   3.402  0.8811 -0.0203  0.8646
  755MOL0     C99581   4.335   7.348   3.371 -0.5030 -0.0843  0.0234
  755MOL0     C99582   4.105   6.951   3.386 -0.4328  0.3084 -0.3932
  755MOL0     C99583   4.010   6.979   3.275  0.1872 -0.7257  0.0170
  755MOL0     C99584   3.911   6.885   3.246  0.1779  1.4561  0.4569
  755MOL0     C99585   3.931   6.758   3.299  0.3026 -0.5826 -0.5026
  755MOL0     O99586   3.843   6.671   3.249 -0.1598  0.5104  0.4269
  755MOL0     C99587   3.856   6.528   3.255 -0.4735  0.4780 -0.1593
  755MOL0     C99588   3.722   6.464   3.221 -0.3906 -0.0623 -0.3562
  755MOL0     C99589   3.633   6.435   3.343  0.1457  0.1445  0.4286
  755MOL0     C99590   3.580   6.549   3.423 -0.1095  1.3443  0.1040
  755MOL0     C99591   3.473   6.628   3.371  0.6749  0.5702  0.2227
  755MOL0     C99592   3.361   6.648   3.334 -0.0979 -0.2265 -0.0889
  755MOL0     C99593   4.014   6.735   3.409 -0.5301 -0.4244  0.4681
  755MOL0     C99594   4.099   6.829   3.453 -0.3466 -0.7326 -0.3641
  755MOL0     H99595   4.163   7.283   3.646  1.3034 -2.4878  0.3512
  755MOL0     H99596   4.334   7.458   3.734  5.7142 -1.7790  0.4016
  755MOL0     H99597   4.344   7.692   3.677 -0.6658 -0.0757 -1.8911
  755MOL0     H99598   4.388   7.768   3.521  2.4094  4.2580  0.8336
  755MOL0     H99599   4.590   7.854   3.607  0.3695 -3.1969 -1.9894
  755MOL0     H99600   4.589   7.727   3.733  1.2314 -0.4364 -1.6892
  755MOL0     H99601   4.558   7.931   3.839 -1.6836 -0.3397  0.4011
  755MOL0     H99602   4.404   7.845   3.858  0.0312 -1.2545  1.0401
  755MOL0     H99603   4.480   8.081   3.686  1.8632 -1.4179 -0.6134
  755MOL0     H99604   4.362   7.986   3.625 -1.1057 -1.9834  0.1315
  755MOL0     H99605   4.247   7.999   3.861 -3.5676  3.1760  0.2451
  755MOL0     H99606   4.239   8.134   3.743  0.5478 -1.2923 -1.7638
  755MOL0     H99607   4.454   8.121   3.963  1.3128 -3.7084 -3.0288
  755MOL0     H99608   4.290   8.198   3.984  2.8598  2.8268  0.9732
  755MOL0     H99609   4.448   8.286   3.751 -4.5199  1.3827 -1.7935
  755MOL0     H99610   4.317   8.371   3.830 -2.4396 -1.5832  0.6013
  755MOL0     H99611   4.598   8.346   3.957  1.2088  0.3673 -1.8383
  755MOL0     H99612   4.462   8.394   4.049  0.8154 -1.5990  0.6705
  755MOL0     H99613   4.375   8.642   3.988  0.9953 -0.7242 -0.5747
  755MOL0     H99614   4.558   8.943   3.786 -0.5119 -0.2476 -0.3584
  755MOL0     H99615   4.435   8.912   3.915 -4.1911 -1.8056 -1.5000
  755MOL0     H99616   4.268   8.872   3.741  0.4797 -2.2905 -2.8957
  755MOL0     H99617   4.389   8.858   3.616 -0.6881 -0.5656 -0.6163
  755MOL0     H99618   4.320   9.121   3.752  2.3003  3.0493 -0.1409
  755MOL0     H99619   4.473   9.082   3.662 -0.6279  0.4873 -1.9688
  755MOL0     H99620   4.198   9.041   3.561 -0.5885  1.2898 -2.2787
  755MOL0     H99621   4.354   9.036   3.463  0.7527  0.1465 -0.0312
  755MOL0     H99622   4.305   9.474   3.594  0.4949  0.2342  0.4118
  755MOL0     H99623   4.152   9.628   3.651 -1.2354  0.6141  1.2218
  755MOL0     H99624   3.664   9.770   3.566  0.6837  1.6192  0.8994
  755MOL0     H99625   3.482   9.897   3.661  0.2456  0.2011 -0.5424
  755MOL0     H99626   3.163   9.695   3.822 -1.2625 -0.0754 -1.3637
  755MOL0     H99627   3.168   9.802   3.688  0.6693 -2.2616 -0.2835
  755MOL0     H99628   3.004   9.896   3.825 -0.8954  2.0320  1.0770
  755MOL0     H99629   3.142  10.007   3.838 -2.4945  1.0069 -2.9126
  755MOL0     H99630   3.012   9.966   4.044  1.9436  3.2887 -0.8500
  755MOL0     H99631   3.189   9.950   4.058  2.1891 -3.3045 -0.7891
  755MOL0     H99632   2.997   9.719   4.024 -3.2702  2.8478  1.8191
  755MOL0     H99633   3.178   9.711   4.040  0.9531  1.8853 -0.9965
  755MOL0     H99634   3.138   9.843   4.263  1.9659 -1.4750 -1.7682
  755MOL0     H99635   3.093   9.667   4.271  1.5448 -0.0227  1.5075
  755MOL0     H99636   2.895   9.897   4.229  2.4892 -0.1176 -2.4319
  755MOL0     H99637   2.944   9.818   4.381  1.9336 -2.0842  0.1838
  755MOL0     H99638   2.807   9.729   4.111  0.2508  1.9765 -0.1382
  755MOL0     H99639   2.837   9.601   4.225 -1.1775 -0.8784  0.9141
  755MOL0     H99640   2.602   9.685   4.232  0.3135 -0.3002 -0.1146
  755MOL0     H99641   2.669   9.835   4.294  0.8409  0.0322 -1.0498
  755MOL0     H99642   3.370   9.596   3.923 -1.6871 -0.0191 -1.7384
  755MOL0     H99643   3.554   9.448   3.824  0.7955  0.2152 -1.0552
  755MOL0     H99644   3.840   9.322   3.601 -0.5399 -2.0630 -2.7008
  755MOL0     H99645   4.022   9.164   3.503  1.7112  0.1067 -0.9335
  755MOL0     H99646   4.475   7.515   3.336  1.3987  0.2528  1.5790
  755MOL0     H99647   4.327   7.323   3.266 -0.2150  0.8624 -0.2276
  755MOL0     H99648   4.004   7.079   3.236 -2.0437 -0.0267  1.9112
  755MOL0     H99649   3.829   6.896   3.176  2.8458 -0.4508 -3.3054
  755MOL0     H99650   3.894   6.504   3.355 -0.7177  3.1147  0.6592
  755MOL0     H99651   3.928   6.484   3.185  1.1615 -0.2344  1.8626
  755MOL0     H99652   3.661   6.524   3.154 -1.5457 -1.2988 -0.4374
  755MOL0     H99653   3.751   6.376   3.163  0.6247  1.4158 -2.2008
  755MOL0     H99654   3.684   6.365   3.410 -1.1008  1.2985  2.7055
  755MOL0     H99655   3.547   6.385   3.298 -2.3917  1.9745  2.9110
  755MOL0     H99656   3.538   6.511   3.517  0.2950 -2.9782 -1.2473
  755MOL0     H99657   3.664   6.618   3.435 -0.7457  2.3428 -0.9877
  755MOL0     H99658   3.257   6.665   3.317  0.0448  0.2952 -0.4588
  755MOL0     H99659   4.021   6.637   3.457 -1.5509 -1.0368 -0.5877
  755MOL0     H99660   4.158   6.818   3.544  1.6723  1.8006 -1.2447
  756MOL0     O99661   6.117   8.664   3.591  0.4204 -1.2748  0.2866
  756MOL0     C99662   6.220   8.693   3.649  0.2688 -0.2087 -0.9729
  756MOL0     O99663   6.297   8.799   3.624  0.1724  0.4479  0.3567
  756MOL0     C99664   6.283   8.886   3.517 -0.1391 -0.3588  0.1263
  756MOL0     C99665   6.408   8.948   3.461  0.5664  0.5592 -0.2252
  756MOL0     C99666   6.412   9.035   3.354  0.3334  0.1912 -0.8063
  756MOL0     C99667   6.288   9.067   3.294  0.2979  0.1327  0.8189
  756MOL0     O99668   6.271   9.153   3.184 -0.4518  0.0384  0.1147
  756MOL0     C99669   6.362   9.263   3.174 -0.2508 -0.0972  0.2904
  756MOL0     C99670   6.309   9.364   3.072  0.0519 -0.9032  0.5857
  756MOL0     C99671   6.420   9.474   3.054 -0.5607  0.1083 -0.3582
  756MOL0     C99672   6.385   9.592   2.980 -0.7636 -0.2657  0.0341
  756MOL0     C99673   6.343   9.561   2.837 -0.0901 -0.0511  0.0249
  756MOL0     C99674   6.310   9.690   2.766 -1.7273  0.6712 -0.0396
  756MOL0     C99675   6.350   9.667   2.617  0.1166 -0.0596 -0.6659
  756MOL0     C99676   6.294   9.784   2.523 -1.4422  0.6893  0.0975
  756MOL0     N99677   6.369   9.909   2.547 -0.1853 -1.0714  0.3793
  756MOL0     C99678   6.501   9.937   2.583  0.1551 -0.4654 -0.2225
  756MOL0     C99679   6.499  10.071   2.605 -0.3260 -0.2903  0.3544
  756MOL0     C99680   6.618  10.148   2.660  0.0612  0.0082 -0.4395
  756MOL0     C99681   6.578  10.301   2.675 -0.3734  0.8187 -0.4001
  756MOL0     C99682   6.685  10.388   2.723  0.5448 -1.1513  0.2679
  756MOL0     C99683   6.634  10.512   2.794 -0.1087 -0.5153 -0.3936
  756MOL0     O99684   6.752  10.597   2.804  0.5144  0.4639  0.1475
  756MOL0     C99685   6.729  10.706   2.878 -1.1120  0.2171 -0.5310
  756MOL0     C99686   6.838  10.783   2.905 -0.0299  0.0579  1.1014
  756MOL0     C99687   6.830  10.894   2.991 -0.1387 -0.5901 -0.9495
  756MOL0     C99688   6.710  10.927   3.055  0.1440 -0.3413 -0.6868
  756MOL0     C99689   6.708  11.045   3.150  0.6360  0.6980  0.5853
  756MOL0     O99690   6.595  11.116   3.162 -0.2108 -0.4953  0.3715
  756MOL0     C99691   6.568  11.215   3.257  0.1791 -0.5850  0.0816
  756MOL0     C99692   6.662  11.305   3.309 -0.0870 -0.5690 -0.0350
  756MOL0     C99693   6.634  11.399   3.409  0.1574  0.1406  1.1713
  756MOL0     C99694   6.513  11.390   3.481  0.5634 -0.0402  0.8034
  756MOL0     O99695   6.484  11.489   3.574 -0.2210 -0.2688  1.3691
  756MOL0     C99696   6.358  11.505   3.641 -0.1506 -0.3331 -0.6035
  756MOL0     C99697   6.358  11.417   3.763  0.2038 -0.2020 -0.6886
  756MOL0     C99698   6.481  11.467   3.857  1.0682  0.0524 -0.1270
  756MOL0     C99699   6.468  11.416   4.000 -0.3214  0.0832 -0.4984
  756MOL0     C99700   6.600  11.409   4.085 -0.2310  0.2512  0.5229
  756MOL0     C99701   6.581  11.397   4.240 -0.5841 -0.3397  0.4787
  756MOL0     C99702   6.500  11.273   4.281  0.1631  0.9629  0.4054
  756MOL0     C99703   6.539  11.227   4.421  0.2008 -0.5485  0.0755
  756MOL0    Cl99704   6.439  11.317   4.528 -0.3859  0.2321 -0.4359
  756MOL0     C99705   6.426  11.287   3.444 -0.2169 -0.4354  0.1816
  756MOL0     C99706   6.452  11.208   3.334  0.0630  0.1266 -0.3630
  756MOL0     O99707   6.804  11.059   3.214 -0.7500  0.0072 -0.5434
  756MOL0     C99708   6.598  10.848   3.018  0.1003 -0.8062 -0.1407
  756MOL0     C99709   6.608  10.747   2.934 -0.0990  0.8204  0.0965
  756MOL0     N99710   6.375  10.130   2.581 -0.3301 -0.4979  0.2346
  756MOL0     N99711   6.305  10.031   2.549  0.0720  0.7546 -0.2621
  756MOL0     C99712   6.165   9.013   3.338 -1.1341 -0.9905 -0.2072
  756MOL0     C99713   6.162   8.924   3.452  0.2423 -0.2850  0.1481
  756MOL0     C99714   6.265   8.602   3.762  0.4015  0.1575  0.9139
  756MOL0     C99715   6.294   8.460   3.738 -1.3982 -0.3884 -0.0522
  756MOL0     C99716   6.365   8.394   3.835 -0.6890  0.7039  1.3060
  756MOL0     C99717   6.401   8.448   3.963 -0.3082  0.2318 -0.7287
  756MOL0     O99718   6.470   8.376   4.058 -0.0303 -0.5298  0.1425
  756MOL0     C99719   6.527   8.251   4.010 -0.1054  0.0165  0.1108
  756MOL0     C99720   6.599   8.186   4.132 -0.5135 -0.8083  0.3760
  756MOL0     C99721   6.499   8.123   4.225  0.7708  0.6785 -0.3448
  756MOL0     C99722   6.564   8.023   4.325  0.6203  0.6153  0.3172
  756MOL0     C99723   6.468   7.975   4.419 -0.1942 -0.2908 -0.0068
  756MOL0     C99724   6.372   7.938   4.488 -0.6238 -0.0695 -0.5263
  756MOL0     C99725   6.362   8.582   3.984 -0.7284  0.3113 -0.0792
  756MOL0     C99726   6.312   8.662   3.876  0.2164 -0.2525  0.0076
  756MOL0     H99727   6.499   8.912   3.509  1.4547  4.1185  1.0814
  756MOL0     H99728   6.507   9.062   3.309  0.6432  0.1388 -0.2007
  756MOL0     H99729   6.458   9.222   3.142 -1.2423 -0.4571 -2.5134
  756MOL0     H99730   6.376   9.312   3.270  0.5580  2.0318 -0.8454
  756MOL0     H99731   6.218   9.410   3.113 -0.5221 -2.3237  0.9629
  756MOL0     H99732   6.293   9.316   2.975  1.5497 -1.8417  0.7838
  756MOL0     H99733   6.507   9.425   3.009 -0.4918 -0.0904 -0.0142
  756MOL0     H99734   6.466   9.502   3.149 -1.8046  2.1985 -0.3053
  756MOL0     H99735   6.310   9.648   3.036 -0.5734 -0.0015  0.0229
  756MOL0     H99736   6.470   9.660   2.969  0.0121 -1.3711 -1.2407
  756MOL0     H99737   6.249   9.506   2.840 -1.7864  2.5829 -1.2349
  756MOL0     H99738   6.422   9.505   2.786  1.1274  0.6111  1.1254
  756MOL0     H99739   6.352   9.775   2.821 -0.9535 -1.8001  3.5538
  756MOL0     H99740   6.201   9.697   2.774 -1.9862 -1.5389 -1.1423
  756MOL0     H99741   6.460   9.665   2.617  0.2343  2.2149  0.9487
  756MOL0     H99742   6.307   9.571   2.586  0.6501 -0.2151 -0.9326
  756MOL0     H99743   6.186   9.803   2.531 -1.9836 -1.4612 -1.1327
  756MOL0     H99744   6.318   9.749   2.422 -3.2745  0.3724 -0.2772
  756MOL0     H99745   6.570   9.853   2.593 -3.1675 -3.1642  3.8747
  756MOL0     H99746   6.698  10.135   2.586  0.4363  1.3935 -0.3089
  756MOL0     H99747   6.652  10.097   2.751 -1.8946 -1.4339 -0.4553
  756MOL0     H99748   6.506  10.305   2.757  0.9225  0.3291  0.7987
  756MOL0     H99749   6.537  10.328   2.577  2.2658  3.2912 -0.9800
  756MOL0     H99750   6.753  10.334   2.789  1.0877 -1.3249 -0.4121
  756MOL0     H99751   6.750  10.426   2.643  0.2350  0.6629  0.8362
  756MOL0     H99752   6.579  10.484   2.884 -2.0877 -0.0714 -1.4308
  756MOL0     H99753   6.557  10.553   2.728  2.0553 -0.0463 -2.7942
  756MOL0     H99754   6.929  10.735   2.868 -0.4418 -1.1547  1.6067
  756MOL0     H99755   6.923  10.948   3.004  1.0349 -2.4564 -1.2481
  756MOL0     H99756   6.766  11.306   3.277 -0.1286  0.3937 -0.1896
  756MOL0     H99757   6.721  11.452   3.448  1.0851  0.1369 -0.7990
  756MOL0     H99758   6.274  11.475   3.578 -1.2851 -1.1449  1.2086
  756MOL0     H99759   6.345  11.612   3.661  1.1820  0.9032 -5.1371
  756MOL0     H99760   6.378  11.312   3.737  0.7671 -0.0150 -1.0193
  756MOL0     H99761   6.265  11.412   3.820 -1.7683 -3.5139 -3.7756
  756MOL0     H99762   6.489  11.575   3.874  0.7790 -0.0282  0.5430
  756MOL0     H99763   6.575  11.445   3.805 -0.5031  1.6513 -4.0508
  756MOL0     H99764   6.387  11.470   4.050 -1.1586  0.8698 -2.5976
  756MOL0     H99765   6.417  11.319   3.995 -1.9310  0.8905 -0.4779
  756MOL0     H99766   6.644  11.505   4.058  0.9747 -1.0653 -2.6984
  756MOL0     H99767   6.672  11.328   4.069 -2.4741 -1.6574 -0.4924
  756MOL0     H99768   6.533  11.489   4.278 -4.6398 -1.8345 -0.4950
  756MOL0     H99769   6.683  11.394   4.279  0.1542  1.8591 -1.0712
  756MOL0     H99770   6.392  11.281   4.271  0.4344  2.5127 -2.0352
  756MOL0     H99771   6.546  11.188   4.229  0.4696  1.3053  0.1096
  756MOL0     H99772   6.646  11.243   4.439 -0.1314  1.3473  0.5947
  756MOL0     H99773   6.521  11.121   4.443 -5.3356  0.1998  0.6957
  756MOL0     H99774   6.330  11.273   3.493 -0.9565  1.8757 -0.4635
  756MOL0     H99775   6.378  11.129   3.320 -2.6470  1.8861  2.6257
  756MOL0     H99776   6.502  10.877   3.059  1.3546  2.3477  0.9121
  756MOL0     H99777   6.523  10.682   2.916 -0.3718  1.2368 -0.1292
  756MOL0     H99778   6.075   9.037   3.282 -3.0551 -1.3570  2.5275
  756MOL0     H99779   6.067   8.878   3.478 -0.7922  1.0570 -1.1257
  756MOL0     H99780   6.263   8.410   3.646 -0.6933 -1.3225  0.1977
  756MOL0     H99781   6.374   8.286   3.827 -0.0523  0.8870 -1.4472
  756MOL0     H99782   6.601   8.279   3.934 -1.8959  1.5863 -1.1574
  756MOL0     H99783   6.454   8.177   3.978 -0.3140  0.0240  0.5639
  756MOL0     H99784   6.669   8.107   4.102 -0.6793 -1.6883  2.1950
  756MOL0     H99785   6.670   8.257   4.176  1.1329 -2.4549  0.4932
  756MOL0     H99786   6.425   8.060   4.174 -0.8055  0.6342  1.8387
  756MOL0     H99787   6.446   8.199   4.283  1.1468  0.8846 -0.2667
  756MOL0     H99788   6.612   7.943   4.267  1.5995  2.8961 -2.2435
  756MOL0     H99789   6.641   8.078   4.380  1.4202  1.4774 -1.5492
  756MOL0     H99790   6.286   7.914   4.548 -0.2778  1.2245  0.5318
  756MOL0     H99791   6.373   8.624   4.084  2.5473 -0.1685 -0.1149
  756MOL0     H99792   6.288   8.766   3.897  1.4532  0.1792 -0.6373
  757MOL0     O99793   8.105   1.209   8.787  0.4732 -0.7342 -0.6348
  757MOL0     C99794   8.036   1.120   8.836  0.3417 -0.3019 -1.2340
  757MOL0     O99795   7.977   1.016   8.770  1.1200  0.2061  0.4590
  757MOL0     C99796   7.989   0.989   8.628 -0.5962  0.4091 -1.1438
  757MOL0     C99797   8.110   1.014   8.568  0.0866  0.9962  0.4889
  757MOL0     C99798   8.130   0.976   8.429 -0.3150  0.5339 -1.0736
  757MOL0     C99799   8.024   0.935   8.355  0.3865 -0.5990 -0.4947
  757MOL0     O99800   8.041   0.902   8.215  0.5031 -0.5858  0.0994
  757MOL0     C99801   8.131   0.975   8.140 -0.3637 -1.0110  0.4929
  757MOL0     C99802   8.254   0.892   8.108 -0.8306 -0.2759  0.1978
  757MOL0     C99803   8.377   0.978   8.059 -0.9782 -0.0053 -0.6141
  757MOL0     C99804   8.432   1.069   8.170 -0.6083 -0.6795  0.0223
  757MOL0     C99805   8.580   1.107   8.164  0.2723  0.5580  0.5821
  757MOL0     C99806   8.650   1.124   8.298 -0.3693  0.3777  0.9078
  757MOL0     C99807   8.784   1.192   8.288 -0.7730  0.0636 -0.0054
  757MOL0     C99808   8.891   1.108   8.223 -0.7147  0.3690 -0.3076
  757MOL0     N99809   9.004   1.190   8.185  0.7299 -0.2620 -0.2412
  757MOL0     C99810   9.108   1.217   8.264  0.2144  0.2061  0.2929
  757MOL0     C99811   9.198   1.281   8.180  0.0764 -0.3642  0.9632
  757MOL0     C99812   9.330   1.328   8.226 -0.5703  0.7821 -0.1927
  757MOL0     C99813   9.378   1.454   8.163  0.1412 -0.3212 -0.8090
  757MOL0     C99814   9.520   1.491   8.203 -0.0634  1.4050 -0.3899
  757MOL0     C99815   9.553   1.628   8.140 -0.1368  1.0643  0.9187
  757MOL0     O99816   9.696   1.631   8.107  0.1851  0.3015 -0.0460
  757MOL0     C99817   9.754   1.754   8.104  0.3951  0.1066  0.7828
  757MOL0     C99818   9.867   1.754   8.019 -0.2500 -0.5408  0.1595
  757MOL0     C99819   9.933   1.867   7.985 -0.2597  0.0920  0.0740
  757MOL0     C99820   9.884   1.987   8.039 -0.7828  0.3631 -0.9290
  757MOL0     C99821   9.942   2.118   7.991  0.2111 -0.1015 -0.1463
  757MOL0     O99822   9.889   2.241   8.035 -0.1503  0.1010  0.3115
  757MOL0     C99823   9.969   2.349   8.007  0.9688 -0.6617 -0.5305
  757MOL0     C99824   9.922   2.453   7.927  0.4446 -0.2565 -0.3167
  757MOL0     C99825   9.998   2.567   7.913  0.1910  0.3425 -0.6240
  757MOL0     C99826  10.125   2.581   7.968 -0.6370  0.7790 -0.0266
  757MOL0     O99827  10.215   2.682   7.941  0.4044  0.3098 -0.4232
  757MOL0     C99828  10.180   2.770   7.833 -0.1030  0.2489 -0.5499
  757MOL0     C99829  10.276   2.882   7.810 -0.2544 -0.2039  0.4361
  757MOL0     C99830  10.214   2.982   7.710  0.1621 -0.5026  0.4563
  757MOL0     C99831  10.307   3.098   7.688  0.1565 -0.1889 -0.8133
  757MOL0     C99832  10.266   3.210   7.598 -0.4467  0.7415  0.2204
  757MOL0     C99833  10.299   3.177   7.454  0.1471  0.8454 -0.6953
  757MOL0     C99834  10.236   3.267   7.358 -0.9493 -0.2527  0.8090
  757MOL0     C99835  10.252   3.420   7.392 -0.5093 -0.8097  0.1731
  757MOL0    Cl99836  10.432   3.488   7.349  0.2524  0.0427 -0.3104
  757MOL0     C99837  10.168   2.474   8.054 -0.3416 -0.3293 -0.3298
  757MOL0     C99838  10.096   2.358   8.065  0.9579 -0.0444 -0.2948
  757MOL0     O99839  10.036   2.109   7.915  0.2195  1.3935 -0.0712
  757MOL0     C99840   9.781   1.993   8.138 -0.2002  1.1504  0.5919
  757MOL0     C99841   9.716   1.872   8.177 -1.0873  0.1222 -0.3205
  757MOL0     N99842   9.145   1.284   8.060  0.4124  0.0977  0.0106
  757MOL0     N99843   9.023   1.234   8.061 -0.2068  0.6472  0.0694
  757MOL0     C99844   7.904   0.901   8.427 -1.0260 -0.2684  0.6618
  757MOL0     C99845   7.888   0.927   8.561 -0.2533 -0.2299 -0.5084
  757MOL0     C99846   8.045   1.122   8.988 -0.5163  0.1358 -0.0205
  757MOL0     C99847   8.134   1.211   9.058 -0.3813  1.4178 -0.4170
  757MOL0     C99848   8.116   1.218   9.206  0.4996 -1.2594  0.9015
  757MOL0     C99849   8.041   1.124   9.264  0.0045  0.3651 -0.0153
  757MOL0     O99850   8.046   1.131   9.401 -0.4971 -0.9663 -0.0177
  757MOL0     C99851   7.999   1.024   9.490 -0.4687  0.6055 -0.3987
  757MOL0     C99852   8.078   0.897   9.479  0.5998 -0.7028 -0.5735
  757MOL0     C99853   8.231   0.897   9.505  1.0338 -0.1900 -0.7538
  757MOL0     C99854   8.298   0.930   9.369 -0.1828  0.7003  0.2895
  757MOL0     C99855   8.284   0.818   9.264 -0.2376  0.0885 -0.3200
  757MOL0     C99856   8.282   0.721   9.182  0.7016  0.1639 -0.5417
  757MOL0     C99857   7.967   1.037   9.195 -0.0727  1.0748 -0.2844
  757MOL0     C99858   7.957   1.031   9.055  0.9946 -0.5648  0.4733
  757MOL0     H99859   8.191   1.059   8.625  0.7155 -0.8959  1.1981
  757MOL0     H99860   8.228   0.970   8.385 -0.3733 -2.1425 -1.0143
  757MOL0     H99861   8.165   1.067   8.188 -1.7297 -1.7775  3.1467
  757MOL0     H99862   8.078   1.003   8.048  0.2420 -3.4888 -0.6952
  757MOL0     H99863   8.229   0.819   8.031  0.6215 -0.3922 -0.2114
  757MOL0     H99864   8.279   0.830   8.195  0.3141  1.5365  1.2155
  757MOL0     H99865   8.355   1.050   7.980  0.0484  2.4582  1.1975
  757MOL0     H99866   8.460   0.909   8.041 -0.5224 -0.2279  1.8863
  757MOL0     H99867   8.375   1.161   8.183  1.8009  0.6600  2.1748
  757MOL0     H99868   8.417   1.020   8.267 -2.2457 -1.5818 -0.6450
  757MOL0     H99869   8.589   1.210   8.128 -0.1666  0.1641 -0.7059
  757MOL0     H99870   8.630   1.039   8.095 -0.9911 -1.6607  1.7445
  757MOL0     H99871   8.651   1.025   8.344 -3.0859 -0.6416 -0.9580
  757MOL0     H99872   8.588   1.171   8.375 -1.6392 -1.6287  1.1820
  757MOL0     H99873   8.780   1.295   8.251  1.8088  0.1631 -0.1935
  757MOL0     H99874   8.831   1.209   8.385 -1.1900  0.9133  0.0595
  757MOL0     H99875   8.842   1.069   8.133 -1.7484 -2.8484  1.5045
  757MOL0     H99876   8.936   1.029   8.283  1.1452  1.1547 -0.6029
  757MOL0     H99877   9.109   1.217   8.372  2.2626 -1.2432  0.3334
  757MOL0     H99878   9.400   1.246   8.207  0.8063  1.1500  2.8048
  757MOL0     H99879   9.318   1.339   8.334 -0.9788  0.1811 -0.1682
  757MOL0     H99880   9.320   1.538   8.202  1.4136 -0.3324  1.2710
  757MOL0     H99881   9.363   1.452   8.055 -3.1045 -2.4336 -0.4311
  757MOL0     H99882   9.527   1.491   8.312  2.8466  0.4607 -0.4927
  757MOL0     H99883   9.577   1.402   8.174 -3.3853 -2.4033  3.3103
  757MOL0     H99884   9.507   1.708   8.199 -3.3122 -1.1074  1.6615
  757MOL0     H99885   9.496   1.623   8.047 -1.8253  1.5113  1.8948
  757MOL0     H99886   9.897   1.660   7.974  1.4568  0.5981 -1.2093
  757MOL0     H99887  10.019   1.861   7.918 -0.8072 -0.5309 -0.5806
  757MOL0     H99888   9.828   2.454   7.873  0.7140  1.2988 -0.8235
  757MOL0     H99889   9.963   2.647   7.849 -4.6226 -1.0755 -0.1071
  757MOL0     H99890  10.083   2.816   7.857 -0.0950 -0.3406  0.6747
  757MOL0     H99891  10.173   2.715   7.739 -0.6429  1.0984 -1.0157
  757MOL0     H99892  10.367   2.837   7.768  0.0524  0.5661  0.2675
  757MOL0     H99893  10.307   2.920   7.908  1.9775  2.1650 -1.0437
  757MOL0     H99894  10.121   3.020   7.752 -1.1887 -2.2547 -0.7528
  757MOL0     H99895  10.192   2.924   7.619 -1.3074 -1.0977  1.1585
  757MOL0     H99896  10.314   3.151   7.783  0.1654  0.6535 -1.2710
  757MOL0     H99897  10.405   3.058   7.660 -0.4207  0.3383 -4.0021
  757MOL0     H99898  10.314   3.301   7.636  1.2271  0.9647 -2.2203
  757MOL0     H99899  10.159   3.232   7.599 -1.0258 -0.5865 -4.9970
  757MOL0     H99900  10.278   3.074   7.425 -2.9663  0.3375  2.5858
  757MOL0     H99901  10.408   3.183   7.445  0.2482  0.2657  0.0186
  757MOL0     H99902  10.271   3.253   7.255 -0.5924  1.0441  0.7349
  757MOL0     H99903  10.127   3.258   7.352 -1.0039  1.1670 -0.9045
  757MOL0     H99904  10.228   3.426   7.499  2.7350 -0.2775  0.9882
  757MOL0     H99905  10.173   3.474   7.338  1.3273  1.8694 -0.0730
  757MOL0     H99906  10.270   2.483   8.090 -1.0824  0.8000  1.6335
  757MOL0     H99907  10.137   2.267   8.108  2.4976  1.2322  1.0560
  757MOL0     H99908   9.747   2.078   8.197  0.3871  0.4579  1.9687
  757MOL0     H99909   9.644   1.871   8.258 -0.2555 -3.3025  0.5356
  757MOL0     H99910   7.827   0.861   8.362 -1.2615  1.8114 -0.4293
  757MOL0     H99911   7.790   0.909   8.603  0.4368 -0.4562  1.0856
  757MOL0     H99912   8.199   1.276   8.999 -0.3088  0.7915 -1.0440
  757MOL0     H99913   8.176   1.278   9.275  2.0474 -1.2808 -0.3497
  757MOL0     H99914   7.890   1.020   9.482 -0.5639  2.0491 -0.1506
  757MOL0     H99915   8.021   1.045   9.595  0.2230  1.6105 -0.7253
  757MOL0     H99916   8.048   0.848   9.572 -1.0647  0.2079 -0.5799
  757MOL0     H99917   8.043   0.835   9.396 -0.5285  1.7200 -2.0362
  757MOL0     H99918   8.263   0.799   9.542  1.9807 -0.6786 -2.7344
  757MOL0     H99919   8.263   0.965   9.585  1.7695 -1.7623  0.3269
  757MOL0     H99920   8.259   1.023   9.327  0.3792  2.0100  2.5236
  757MOL0     H99921   8.400   0.953   9.399 -0.0314 -0.7997  0.9977
  757MOL0     H99922   8.270   0.633   9.123 -0.1625  0.7963 -1.3293
  757MOL0     H99923   7.911   0.966   9.256  1.2106 -1.9148 -2.3424
  757MOL0     H99924   7.888   0.960   9.012  1.0894  1.1708 -2.8826
  758MOL0     O99925   2.826   5.275   0.814 -1.0646  0.5669 -0.1897
  758MOL0     C99926   2.737   5.193   0.848  0.2543  0.6376  0.0607
  758MOL0     O99927   2.741   5.107   0.958 -0.4213 -1.0949  0.4923
  758MOL0     C99928   2.846   5.093   1.048  0.3696 -0.1081  0.4348
  758MOL0     C99929   2.978   5.084   0.997  0.3797 -0.6093 -0.2492
  758MOL0     C99930   3.094   5.061   1.076  0.4431 -0.0356  0.5724
  758MOL0     C99931   3.078   5.042   1.219  0.4964  0.3380  0.3762
  758MOL0     O99932   3.183   5.030   1.307 -0.2800 -0.0423  0.2813
  758MOL0     C99933   3.323   4.999   1.260  0.0590 -0.1312  1.0519
  758MOL0     C99934   3.389   5.133   1.229 -0.8562 -0.2793  0.0170
  758MOL0     C99935   3.533   5.108   1.174 -0.0582 -0.4829  0.0838
  758MOL0     C99936   3.622   5.049   1.283 -1.0626  0.2374  0.6489
  758MOL0     C99937   3.770   5.071   1.237 -0.6699  0.2309 -0.2193
  758MOL0     C99938   3.840   5.204   1.255  0.2028 -0.2663  0.4220
  758MOL0     C99939   3.984   5.200   1.262 -0.3976 -0.3096  0.0305
  758MOL0     C99940   4.045   5.223   1.129  0.9451 -0.0091 -0.5951
  758MOL0     N99941   4.190   5.208   1.136  0.1198 -0.5329  0.3896
  758MOL0     C99942   4.280   5.277   1.063  0.9396 -0.5684  0.4656
  758MOL0     C99943   4.402   5.210   1.075 -0.3942  0.2175  0.9690
  758MOL0     C99944   4.537   5.262   1.015  0.0902  1.3123  0.1540
  758MOL0     C99945   4.562   5.412   1.018  0.3360 -0.3656 -0.1005
  758MOL0     C99946   4.718   5.434   0.990 -0.9000  0.3829  0.1558
  758MOL0     C99947   4.748   5.583   0.973  0.2838 -0.5431 -0.4757
  758MOL0     O99948   4.886   5.610   0.987  0.4301 -0.1768 -0.4897
  758MOL0     C99949   4.960   5.694   0.899  0.5888  0.2787 -0.5667
  758MOL0     C99950   4.903   5.774   0.790 -0.5055  1.4386 -0.0723
  758MOL0     C99951   4.994   5.848   0.717 -0.8194  0.5965 -0.4331
  758MOL0     C99952   5.131   5.867   0.748 -0.2964 -0.1426  1.0300
  758MOL0     C99953   5.210   5.939   0.645  0.0629 -0.1724 -0.1345
  758MOL0     O99954   5.147   6.026   0.565  0.3697  0.6227  0.2224
  758MOL0     C99955   5.211   6.134   0.509 -0.0704  0.7579 -1.7563
  758MOL0     C99956   5.322   6.144   0.421  0.4876 -0.0750 -0.7329
  758MOL0     C99957   5.367   6.259   0.376 -0.1229 -0.0223 -0.0691
  758MOL0     C99958   5.305   6.384   0.419 -0.5435  0.8514  0.1555
  758MOL0     O99959   5.345   6.511   0.378  0.6635 -0.6269 -0.0077
  758MOL0     C99960   5.482   6.532   0.351  0.1157 -0.0257 -0.1334
  758MOL0     C99961   5.520   6.682   0.376 -0.0054 -0.9146 -0.5235
  758MOL0     C99962   5.484   6.721   0.520  0.0788  0.5787  0.8476
  758MOL0     C99963   5.545   6.860   0.554  0.5033 -0.9499 -0.8266
  758MOL0     C99964   5.700   6.890   0.556  0.4963  0.0898 -0.0174
  758MOL0     C99965   5.777   6.811   0.664  0.6148  0.0019 -0.3122
  758MOL0     C99966   5.919   6.858   0.694 -1.0654 -0.3870  1.1197
  758MOL0     C99967   5.994   6.762   0.788  0.2740  0.1151  0.1763
  758MOL0    Cl99968   5.922   6.737   0.949  0.2433  0.0830  0.0715
  758MOL0     C99969   5.189   6.375   0.495 -0.1066  0.3354  0.6961
  758MOL0     C99970   5.151   6.251   0.547  0.5082 -0.0365  1.1975
  758MOL0     O99971   5.327   5.909   0.643 -0.2198  0.7414  0.2232
  758MOL0     C99972   5.184   5.793   0.852  0.0958  0.1492  0.8652
  758MOL0     C99973   5.094   5.708   0.922 -0.6271 -0.2317  0.9031
  758MOL0     N99974   4.385   5.099   1.154  0.3072  0.2715  0.3613
  758MOL0     N99975   4.260   5.109   1.201  0.1586  0.3896  0.2507
  758MOL0     C99976   2.945   5.023   1.268 -0.3930  0.7135 -1.2026
  758MOL0     C99977   2.830   5.048   1.182 -0.9642 -0.7906 -0.2734
  758MOL0     C99978   2.618   5.179   0.756  0.0276 -0.0320  0.4432
  758MOL0     C99979   2.624   5.231   0.624 -0.4835 -0.5875  0.2100
  758MOL0     C99980   2.518   5.217   0.537  0.4617 -0.4704  0.7774
  758MOL0     C99981   2.405   5.145   0.573  0.6389  0.1075  0.6761
  758MOL0     O99982   2.305   5.145   0.484 -0.4387 -0.0162 -0.6965
  758MOL0     C99983   2.164   5.119   0.539 -0.0677 -0.0238 -0.8474
  758MOL0     C99984   2.059   5.224   0.486  0.1849  0.8116 -0.6147
  758MOL0     C99985   1.932   5.176   0.528  1.1021 -0.1505 -0.2661
  758MOL0     C99986   1.871   5.065   0.440  0.5072  0.5949 -0.5201
  758MOL0     C99987   1.766   4.990   0.512  0.7793 -1.2619  0.6070
  758MOL0     C99988   1.679   4.934   0.562  1.0062 -1.0479 -0.4909
  758MOL0     C99989   2.405   5.078   0.697 -0.0070  0.3032 -0.2781
  758MOL0     C99990   2.509   5.099   0.794  0.4257 -0.9255 -0.3408
  758MOL0     H99991   2.993   5.125   0.898  1.0779  1.5812  0.7076
  758MOL0     H99992   3.186   5.063   1.019 -0.9635  0.5138 -1.8161
  758MOL0     H99993   3.326   4.938   1.169  1.7642  1.5881 -0.1039
  758MOL0     H99994   3.380   4.945   1.336 -1.8559 -1.5888  1.5278
  758MOL0     H99995   3.397   5.195   1.320 -1.0003  0.9318 -0.7715
  758MOL0     H99996   3.326   5.182   1.154 -1.1901 -0.5715  0.1042
  758MOL0     H99997   3.560   5.212   1.150 -2.8187  0.1907 -0.3794
  758MOL0     H99998   3.533   5.049   1.082  1.6767 -0.3534 -0.0415
  758MOL0     H99999   3.614   5.092   1.383  2.1125  1.0600  0.6557
  758MOL0     H    0   3.605   4.941   1.283 -2.7608  0.4629  0.0259
  758MOL0     H    1   3.782   5.057   1.129 -0.6286  0.9257 -0.3083
  758MOL0     H    2   3.829   5.001   1.296  0.8421  1.6074 -0.0322
  758MOL0     H    3   3.819   5.236   1.357  1.6406  3.4366 -0.2702
  758MOL0     H    4   3.810   5.290   1.194  2.2888 -0.0159 -0.3354
  758MOL0     H    5   4.017   5.284   1.324 -2.9648  2.8854 -2.5574
  758MOL0     H    6   4.014   5.105   1.307 -1.5363 -1.0248 -0.6669
  758MOL0     H    7   4.016   5.318   1.083 -1.0844  1.3217  3.0282
  758MOL0     H    8   4.017   5.144   1.058 -1.8629  1.4002 -1.1991
  758MOL0     H    9   4.270   5.377   1.021  1.3248  0.4093  2.5558
  758MOL0     H   10   4.532   5.236   0.909 -0.9752 -0.9403  0.6950
  758MOL0     H   11   4.625   5.212   1.056  1.5174  0.8587 -3.1243
  758MOL0     H   12   4.541   5.451   1.117  0.8750  1.9480 -0.8409
  758MOL0     H   13   4.509   5.467   0.940 -0.4100  0.7992  1.1852
  758MOL0     H   14   4.760   5.392   1.082 -0.4388 -3.0122 -1.4425
  758MOL0     H   15   4.751   5.388   0.896 -0.5162 -0.1330  0.5375
  758MOL0     H   16   4.684   5.652   1.030  1.8199 -1.4821  2.5713
  758MOL0     H   17   4.712   5.602   0.871 -2.0077 -1.6640  0.0441
  758MOL0     H   18   4.801   5.786   0.756  0.0386  3.3629 -1.1849
  758MOL0     H   19   4.964   5.894   0.623 -0.1573  2.3121  0.1727
  758MOL0     H   20   5.375   6.056   0.386  0.5046 -1.2950  2.1385
  758MOL0     H   21   5.442   6.256   0.298  0.0028 -2.0239  0.0772
  758MOL0     H   22   5.514   6.496   0.253 -0.6171 -0.2115 -0.3075
  758MOL0     H   23   5.535   6.476   0.429 -2.8076  1.6119  3.3399
  758MOL0     H   24   5.455   6.745   0.314  1.4026  0.8263 -0.3026
  758MOL0     H   25   5.621   6.714   0.348  1.3631 -3.6901  0.7766
  758MOL0     H   26   5.544   6.646   0.573  0.5809 -1.3608 -2.2292
  758MOL0     H   27   5.380   6.705   0.548 -0.8371  2.6186 -1.0744
  758MOL0     H   28   5.486   6.934   0.499  2.6161  1.8329  0.3765
  758MOL0     H   29   5.508   6.862   0.657 -3.9111 -4.2155 -2.0488
  758MOL0     H   30   5.693   6.993   0.592 -3.5460 -0.2235  0.5540
  758MOL0     H   31   5.759   6.877   0.464  2.5272 -2.0915  1.4545
  758MOL0     H   32   5.773   6.705   0.639  3.2866  0.4351 -3.1344
  758MOL0     H   33   5.726   6.841   0.756 -0.8463  0.9277 -1.3722
  758MOL0     H   34   5.955   6.866   0.591 -3.7271  0.0856  0.1419
  758MOL0     H   35   5.927   6.960   0.732 -0.1552 -0.9871  2.6220
  758MOL0     H   36   6.096   6.801   0.792  0.2360  0.0935  2.3490
  758MOL0     H   37   6.002   6.665   0.738  0.0846  0.5088 -0.6470
  758MOL0     H   38   5.140   6.470   0.515 -1.6815 -0.2907  0.0334
  758MOL0     H   39   5.060   6.249   0.606 -1.3612 -1.9001 -1.4974
  758MOL0     H   40   5.292   5.790   0.856  0.1719 -3.0883 -0.3459
  758MOL0     H   41   5.127   5.639   1.000 -1.5675  3.9509  5.5027
  758MOL0     H   42   2.936   4.999   1.373  2.8445  0.6307 -0.8172
  758MOL0     H   43   2.733   5.034   1.229 -2.3923 -0.2625 -2.8466
  758MOL0     H   44   2.719   5.275   0.593 -1.1138  0.8583  0.2580
  758MOL0     H   45   2.526   5.265   0.440 -0.4755  2.4235  2.0278
  758MOL0     H   46   2.164   5.127   0.648  0.1183  0.9750 -0.9102
  758MOL0     H   47   2.149   5.014   0.511  2.2015 -1.1971  1.8294
  758MOL0     H   48   2.081   5.319   0.535  1.6236  0.2251 -0.0688
  758MOL0     H   49   2.071   5.237   0.378 -2.5730 -1.9524 -1.4113
  758MOL0     H   50   1.868   5.264   0.527  1.9221  0.6298  3.1274
  758MOL0     H   51   1.946   5.144   0.632  1.9052  0.6274 -0.1231
  758MOL0     H   52   1.822   5.130   0.367  1.7675  1.6187 -0.4969
  758MOL0     H   53   1.945   5.005   0.387  2.0730  0.2019  1.9371
  758MOL0     H   54   1.589   4.892   0.602  0.9563  0.1383  0.6907
  758MOL0     H   55   2.330   5.003   0.721  1.4892 -1.5178 -1.0797
  758MOL0     H   56   2.505   5.046   0.889  3.5810 -1.5579 -0.4465
  759MOL0     O   57   5.879   0.723   6.523  0.6066 -0.9773 -0.3328
  759MOL0     C   58   5.847   0.801   6.438  0.4621 -1.4952 -1.0099
  759MOL0     O   59   5.830   0.940   6.454  0.4235  0.3142 -0.0338
  759MOL0     C   60   5.798   0.986   6.576  0.3197  0.0482  0.3853
  759MOL0     C   61   5.825   1.121   6.602 -0.4918  0.2777 -0.8931
  759MOL0     C   62   5.777   1.180   6.714 -0.2149  0.1221 -0.2633
  759MOL0     C   63   5.714   1.107   6.814  0.0247  0.8472  0.6660
  759MOL0     O   64   5.659   1.181   6.907  0.1660 -0.6348  1.6474
  759MOL0     C   65   5.747   1.250   6.998 -0.5962 -0.1783  0.2373
  759MOL0     C   66   5.657   1.334   7.087  0.4073 -0.1928  0.6579
  759MOL0     C   67   5.730   1.399   7.207  0.1726 -0.1831  0.6744
  759MOL0     C   68   5.772   1.308   7.315  0.1001  0.0378  0.3262
  759MOL0     C   69   5.795   1.402   7.436  0.7454  0.0172  0.0129
  759MOL0     C   70   5.924   1.489   7.443 -0.7635  0.1923  0.7625
  759MOL0     C   71   5.929   1.565   7.577  0.1647 -0.5874  0.6381
  759MOL0     C   72   6.073   1.606   7.579  0.3847 -1.4700  0.7325
  759MOL0     N   73   6.131   1.654   7.706 -0.6914 -0.5979 -0.1472
  759MOL0     C   74   6.112   1.778   7.748 -0.8267 -0.2487  0.7862
  759MOL0     C   75   6.160   1.787   7.871  0.0792 -0.5103  0.9746
  759MOL0     C   76   6.153   1.910   7.948 -0.2278  0.0336 -0.6304
  759MOL0     C   77   6.266   2.012   7.925 -0.0753 -0.8014 -0.2980
  759MOL0     C   78   6.401   1.944   7.930 -0.1003  0.4084  0.1250
  759MOL0     C   79   6.437   1.888   8.062 -0.6599 -0.3078  1.0735
  759MOL0     O   80   6.420   1.978   8.173 -0.0532 -0.5230 -0.7351
  759MOL0     C   81   6.438   1.902   8.285  0.8050  0.4635  0.8332
  759MOL0     C   82   6.330   1.824   8.346 -0.1807  0.4998  0.1755
  759MOL0     C   83   6.351   1.739   8.452  0.0274 -0.5284  0.3192
  759MOL0     C   84   6.481   1.721   8.513 -0.6379 -2.1024  0.3459
  759MOL0     C   85   6.516   1.610   8.610  0.3629  0.5574 -0.0929
  759MOL0     O   86   6.418   1.527   8.649  1.0738  0.8548  1.0343
  759MOL0     C   87   6.428   1.460   8.767 -0.1335 -0.0441 -0.0490
  759MOL0     C   88   6.550   1.384   8.797  1.0027  0.0334  0.1804
  759MOL0     C   89   6.555   1.313   8.912  0.1096 -0.0875 -0.0617
  759MOL0     C   90   6.442   1.308   8.994  0.3646 -0.1151  0.2187
  759MOL0     O   91   6.451   1.216   9.094  0.1038 -1.4072 -0.5734
  759MOL0     C   92   6.338   1.137   9.124  0.0600  0.4642 -1.1227
  759MOL0     C   93   6.287   1.172   9.265 -0.7474 -0.4885 -0.0024
  759MOL0     C   94   6.401   1.173   9.363  0.4361 -0.0363 -0.3776
  759MOL0     C   95   6.339   1.154   9.498  0.4372  0.0562  0.5543
  759MOL0     C   96   6.452   1.131   9.591  1.0653  0.2170 -0.5851
  759MOL0     C   97   6.390   1.071   9.724 -0.1317 -0.0982 -0.0140
  759MOL0     C   98   6.504   1.071   9.828 -0.3224 -0.3519  0.2787
  759MOL0     C   99   6.451   1.020   9.960  0.2419 -0.4001  0.6974
  759MOL0    Cl  100   6.575   1.012  10.076  0.0122  0.0402 -0.2394
  759MOL0     C  101   6.328   1.376   8.963  1.1433  0.0841  0.6638
  759MOL0     C  102   6.317   1.444   8.855 -0.4253 -0.9586 -0.2909
  759MOL0     O  103   6.631   1.614   8.667 -0.1288  0.0585  1.1271
  759MOL0     C  104   6.585   1.815   8.474  0.5909 -0.6592 -1.0216
  759MOL0     C  105   6.557   1.889   8.352  0.5074  0.5257 -0.2506
  759MOL0     N  106   6.229   1.669   7.899  0.2397  0.3174  1.0564
  759MOL0     N  107   6.201   1.583   7.799 -0.1365  0.3744 -0.3936
  759MOL0     C  108   5.676   0.978   6.790  0.1545 -0.2844 -0.4388
  759MOL0     C  109   5.711   0.916   6.667 -0.4795  0.5192  0.2654
  759MOL0     C  110   5.825   0.742   6.301  0.4701 -0.6067 -0.0602
  759MOL0     C  111   5.890   0.619   6.266 -0.0964  0.7642 -0.1294
  759MOL0     C  112   5.881   0.550   6.145  0.2267  0.4043  0.3226
  759MOL0     C  113   5.786   0.602   6.051  0.2144  0.1591  0.3463
  759MOL0     O  114   5.750   0.548   5.925 -0.2829 -0.1023  1.0776
  759MOL0     C  115   5.776   0.409   5.905 -0.0118  1.7258 -0.5970
  759MOL0     C  116   5.663   0.322   5.959  0.3168 -1.0212 -1.0931
  759MOL0     C  117   5.681   0.174   5.918  0.4385 -0.5848 -0.2371
  759MOL0     C  118   5.575   0.084   5.989 -0.3350 -0.7933  0.3070
  759MOL0     C  119   5.614   0.037   6.121 -0.7825  0.0612  1.0871
  759MOL0     C  120   5.650   0.034   6.229  0.4868  0.8880 -0.5755
  759MOL0     C  121   5.722   0.724   6.083 -0.1223 -0.3966 -1.0282
  759MOL0     C  122   5.739   0.788   6.204 -0.1101 -0.0954 -0.7058
  759MOL0     H  123   5.890   1.174   6.532  0.3224 -1.7830 -1.7829
  759MOL0     H  124   5.792   1.287   6.719  4.1736 -0.0509 -3.7277
  759MOL0     H  125   5.822   1.313   6.949  2.0744 -1.6029  2.2443
  759MOL0     H  126   5.804   1.176   7.055 -0.7863  0.2786  1.0263
  759MOL0     H  127   5.582   1.263   7.124  0.0915 -0.6784 -0.8525
  759MOL0     H  128   5.607   1.406   7.021  2.0349  0.7347  0.3875
  759MOL0     H  129   5.676   1.488   7.241  2.1789  1.2656  0.2337
  759MOL0     H  130   5.820   1.446   7.168 -0.3139 -1.0793 -1.6854
  759MOL0     H  131   5.691   1.243   7.348 -0.3737  1.8430  3.0915
  759MOL0     H  132   5.865   1.255   7.295  0.3399 -0.0159  1.5078
  759MOL0     H  133   5.804   1.332   7.520 -0.6037 -0.0180  0.1465
  759MOL0     H  134   5.711   1.470   7.451  1.2144  0.9907 -1.5559
  759MOL0     H  135   5.909   1.572   7.373  0.2653 -0.2114  0.0328
  759MOL0     H  136   6.013   1.427   7.425  0.0322  2.0717 -2.8070
  759MOL0     H  137   5.878   1.661   7.580  2.9622  1.1071 -1.1414
  759MOL0     H  138   5.902   1.511   7.668 -0.2503  1.5564  1.8589
  759MOL0     H  139   6.098   1.680   7.503  0.7689 -0.3228  1.9224
  759MOL0     H  140   6.126   1.510   7.572 -1.7174 -2.7992  1.9661
  759MOL0     H  141   6.065   1.861   7.696 -0.7720  0.8809  2.4435
  759MOL0     H  142   6.152   1.882   8.054 -1.5408 -0.5179 -0.7695
  759MOL0     H  143   6.057   1.958   7.929 -0.5841  0.0298  1.0133
  759MOL0     H  144   6.240   2.084   8.003 -3.5772 -1.8187 -0.3294
  759MOL0     H  145   6.249   2.061   7.828 -0.1146  0.5852  0.3803
  759MOL0     H  146   6.415   1.868   7.852  1.6325  2.4389 -1.6466
  759MOL0     H  147   6.482   2.012   7.903  3.1404 -1.8752  3.1362
  759MOL0     H  148   6.545   1.869   8.059 -0.8150 -1.0565 -0.0782
  759MOL0     H  149   6.387   1.792   8.071 -0.9981  0.0474  4.2315
  759MOL0     H  150   6.231   1.842   8.304 -1.3293 -0.6046  2.2278
  759MOL0     H  151   6.263   1.689   8.491 -0.8178  0.7376  0.0935
  759MOL0     H  152   6.629   1.380   8.722 -0.1476 -2.0931 -1.0123
  759MOL0     H  153   6.635   1.241   8.927  2.3533  2.0343 -1.1915
  759MOL0     H  154   6.375   1.034   9.129  1.7029  1.0864  1.4461
  759MOL0     H  155   6.255   1.143   9.053  0.1523  2.5331 -1.1030
  759MOL0     H  156   6.204   1.103   9.282 -0.9551 -0.4063 -0.6520
  759MOL0     H  157   6.244   1.273   9.267 -1.3498 -0.6245 -2.5046
  759MOL0     H  158   6.465   1.261   9.369  3.5687 -2.2191  3.9306
  759MOL0     H  159   6.454   1.080   9.340 -1.9491 -1.5549 -0.0694
  759MOL0     H  160   6.274   1.240   9.515 -0.2387 -0.3906  0.2576
  759MOL0     H  161   6.271   1.070   9.485  0.2609  0.5995 -3.1994
  759MOL0     H  162   6.495   1.228   9.615  0.8370  0.5184 -1.3793
  759MOL0     H  163   6.529   1.071   9.541  0.0128 -0.1515 -1.8217
  759MOL0     H  164   6.354   0.968   9.709 -0.1190 -0.0768 -0.1878
  759MOL0     H  165   6.316   1.139   9.766 -0.0948 -0.6264  0.9552
  759MOL0     H  166   6.582   1.003   9.790 -0.5540  0.6158 -2.0720
  759MOL0     H  167   6.557   1.166   9.831 -0.3651 -0.2675 -1.0981
  759MOL0     H  168   6.414   0.920   9.936 -1.0582  0.8798 -3.4450
  759MOL0     H  169   6.372   1.084  10.002 -1.1629 -1.9792  0.5412
  759MOL0     H  170   6.254   1.376   9.042  0.6655 -0.0973  0.2161
  759MOL0     H  171   6.219   1.482   8.829  0.8066  0.8827 -2.6184
  759MOL0     H  172   6.678   1.815   8.529  0.0890 -0.4534 -0.1541
  759MOL0     H  173   6.637   1.942   8.302  0.4798  0.2002 -0.6434
  759MOL0     H  174   5.627   0.926   6.871  0.4696  1.4702  0.9320
  759MOL0     H  175   5.678   0.815   6.647  1.7479 -0.2633  0.2648
  759MOL0     H  176   5.954   0.572   6.341  2.5280 -0.3357 -2.8202
  759MOL0     H  177   5.927   0.452   6.139 -0.3407  0.1990 -1.8012
  759MOL0     H  178   5.871   0.375   5.947 -0.2431 -1.3571 -2.2961
  759MOL0     H  179   5.784   0.388   5.798  0.0065  5.0563 -1.3801
  759MOL0     H  180   5.643   0.334   6.066 -1.9228 -2.6532 -1.2500
  759MOL0     H  181   5.572   0.360   5.910  1.4146  2.0961 -0.9326
  759MOL0     H  182   5.780   0.142   5.953  0.0976 -2.0854 -0.5748
  759MOL0     H  183   5.682   0.171   5.809  2.7897  1.2022 -0.3342
  759MOL0     H  184   5.480   0.137   5.999 -1.4577 -2.7057  0.2447
  759MOL0     H  185   5.572  -0.006   5.927 -0.1077 -1.1848  0.8492
  759MOL0     H  186   5.686   0.032   6.330 -0.0754 -0.7149 -0.3635
  759MOL0     H  187   5.655   0.779   6.017  1.5756  1.2835 -1.4448
  759MOL0     H  188   5.694   0.885   6.224  0.8746  0.2188  0.0780
  760MOL0     O  189   8.789   0.605   4.763  0.6668  0.1658 -0.4013
  760MOL0     C  190   8.862   0.512   4.736 -0.9101 -0.2110  0.4410
  760MOL0     O  191   8.955   0.512   4.633  1.3740  0.2976  0.1828
  760MOL0     C  192   8.909   0.577   4.521 -0.7398 -0.1981  0.0230
  760MOL0     C  193   8.991   0.671   4.457 -0.3062 -0.7761 -0.4961
  760MOL0     C  194   8.954   0.732   4.327 -0.8685 -0.2715 -1.1211
  760MOL0     C  195   8.842   0.686   4.264  0.0409  0.8129 -0.4174
  760MOL0     O  196   8.799   0.732   4.138 -0.4063  0.4926 -0.1643
  760MOL0     C  197   8.843   0.852   4.081  0.6103 -0.6130  0.2008
  760MOL0     C  198   8.741   0.901   3.984  0.3323  0.2971  0.2267
  760MOL0     C  199   8.710   0.805   3.864 -0.1126  0.4241 -0.2518
  760MOL0     C  200   8.577   0.841   3.794  0.7293 -0.0575  0.4134
  760MOL0     C  201   8.498   0.715   3.741 -0.1941  0.2106 -0.8778
  760MOL0     C  202   8.444   0.631   3.847  0.4294 -1.1661 -0.9255
  760MOL0     C  203   8.347   0.524   3.795  0.0722  0.5715 -0.0815
  760MOL0     C  204   8.304   0.422   3.907 -0.0344 -0.3102  0.2951
  760MOL0     N  205   8.243   0.293   3.850 -0.1354  0.5820  0.0428
  760MOL0     C  206   8.322   0.172   3.850 -0.4087 -0.0131  0.2177
  760MOL0     C  207   8.251   0.084   3.790 -0.0441 -0.4886  0.5889
  760MOL0     C  208   8.265  -0.062   3.785  0.6321 -0.6282 -0.0269
  760MOL0     C  209   8.225  -0.131   3.906 -0.2101 -0.7975  0.6878
  760MOL0     C  210   8.159  -0.272   3.885  0.3474  0.4032  0.4450
  760MOL0     C  211   8.010  -0.258   3.834 -0.6717  0.4203  0.3993
  760MOL0     O  212   7.912  -0.245   3.933  0.5440 -0.9795 -0.4461
  760MOL0     C  213   7.876  -0.113   3.967 -0.1496 -0.0592 -0.5624
  760MOL0     C  214   7.816  -0.104   4.095 -0.0238  0.0343  0.8596
  760MOL0     C  215   7.763   0.017   4.133 -0.1229 -0.3436 -0.6845
  760MOL0     C  216   7.773   0.134   4.062 -0.2465 -0.5532  0.9456
  760MOL0     C  217   7.728   0.263   4.113  0.3268  0.5593  0.4493
  760MOL0     O  218   7.772   0.372   4.045  0.4532  0.0075  0.2529
  760MOL0     C  219   7.744   0.491   4.104 -0.6273 -1.2605 -0.1931
  760MOL0     C  220   7.612   0.542   4.097  0.3289  0.5410  0.2825
  760MOL0     C  221   7.581   0.664   4.137  0.0873 -0.1830 -0.0461
  760MOL0     C  222   7.684   0.743   4.198 -0.1821 -0.2730  1.1147
  760MOL0     O  223   7.637   0.854   4.253  0.3393  0.0688  0.2728
  760MOL0     C  224   7.711   0.902   4.370 -1.0499 -0.6080 -0.6418
  760MOL0     C  225   7.647   1.026   4.432  0.7604 -0.8036  0.3111
  760MOL0     C  226   7.727   1.089   4.541  0.0012 -0.0498 -0.0334
  760MOL0     C  227   7.651   1.220   4.587 -0.0798 -0.1222  0.5598
  760MOL0     C  228   7.721   1.286   4.705 -0.3162  0.1643  1.1945
  760MOL0     C  229   7.657   1.423   4.730  0.4584  1.1400 -0.1235
  760MOL0     C  230   7.673   1.470   4.870  0.3366  0.0507 -0.9514
  760MOL0     C  231   7.596   1.604   4.891 -0.5587 -0.5932 -0.0795
  760MOL0    Cl  232   7.656   1.748   4.797 -0.0108  0.4085  0.0456
  760MOL0     C  233   7.812   0.693   4.194  0.3492 -0.6950  0.7511
  760MOL0     C  234   7.846   0.568   4.147  0.3059  0.2678  0.3957
  760MOL0     O  235   7.658   0.265   4.214 -0.3756  0.4178  0.0870
  760MOL0     C  236   7.854   0.125   3.940  0.2406 -0.7673  0.4804
  760MOL0     C  237   7.906   0.004   3.897  0.9106 -0.1535  0.5308
  760MOL0     N  238   8.141   0.149   3.743 -0.1598  0.7391 -0.0547
  760MOL0     N  239   8.144   0.275   3.766  0.4705  0.8617  0.6099
  760MOL0     C  240   8.764   0.586   4.321 -0.5786  0.1670  0.1269
  760MOL0     C  241   8.800   0.530   4.446 -0.3555 -1.0498 -0.3163
  760MOL0     C  242   8.871   0.400   4.829 -0.9352 -0.6446  0.6659
  760MOL0     C  243   8.988   0.313   4.829 -0.4016  0.6108  0.8003
  760MOL0     C  244   8.990   0.202   4.908 -0.7368  0.0270  0.2775
  760MOL0     C  245   8.880   0.174   4.988  0.5907 -0.6778 -0.1972
  760MOL0     O  246   8.900   0.073   5.080 -0.5582  0.4374  1.0882
  760MOL0     C  247   8.816   0.069   5.202 -0.8742 -0.0010  0.3212
  760MOL0     C  248   8.883  -0.013   5.317 -0.0421  0.0893  0.7361
  760MOL0     C  249   8.793  -0.046   5.436 -0.6061  0.1764  0.0582
  760MOL0     C  250   8.657  -0.118   5.405  0.4697 -0.5868 -0.2308
  760MOL0     C  251   8.586  -0.173   5.519 -0.6688  0.3407  0.3996
  760MOL0     C  252   8.523  -0.227   5.609 -0.5836 -0.1101  0.4928
  760MOL0     C  253   8.758   0.247   4.984  0.6564  0.1264 -0.0394
  760MOL0     C  254   8.764   0.362   4.908 -0.2675  0.2952 -0.6982
  760MOL0     H  255   9.085   0.705   4.500 -0.5343 -1.8732  0.9655
  760MOL0     H  256   9.023   0.797   4.274 -1.7330 -0.0340 -1.9733
  760MOL0     H  257   8.941   0.862   4.032  0.7976  0.2581  0.7270
  760MOL0     H  258   8.857   0.928   4.158 -1.5710 -0.6490  0.6893
  760MOL0     H  259   8.781   0.990   3.935  0.9479 -0.5868 -0.9322
  760MOL0     H  260   8.648   0.919   4.039  0.5312 -0.0933  0.6984
  760MOL0     H  261   8.690   0.707   3.908 -4.6041  1.1297 -0.2591
  760MOL0     H  262   8.790   0.819   3.790  0.4039  3.4098  0.7575
  760MOL0     H  263   8.503   0.882   3.864 -0.1218  0.9659 -1.0177
  760MOL0     H  264   8.595   0.908   3.709  2.1822 -1.2485 -0.2710
  760MOL0     H  265   8.562   0.660   3.672  2.0217  0.9538  0.4916
  760MOL0     H  266   8.409   0.750   3.687 -0.6636 -1.9552 -1.6086
  760MOL0     H  267   8.391   0.697   3.917  2.6967 -2.0128  1.7642
  760MOL0     H  268   8.530   0.584   3.896  2.6651  2.0667 -1.4109
  760MOL0     H  269   8.247   0.547   3.755 -0.0480 -1.0701 -0.8241
  760MOL0     H  270   8.418   0.468   3.733  0.6142 -2.3399  2.9218
  760MOL0     H  271   8.227   0.461   3.974  1.4624 -0.0169  1.9278
  760MOL0     H  272   8.394   0.407   3.968 -1.2641 -2.1282  1.7687
  760MOL0     H  273   8.417   0.156   3.900  0.7842  0.4813 -1.7793
  760MOL0     H  274   8.372  -0.071   3.766  1.1207  2.7280  0.4608
  760MOL0     H  275   8.217  -0.092   3.691  1.3074 -0.2660 -0.4955
  760MOL0     H  276   8.154  -0.075   3.967 -2.7315 -2.3687 -0.6041
  760MOL0     H  277   8.322  -0.145   3.954  1.4444  2.0719 -1.5338
  760MOL0     H  278   8.229  -0.326   3.821 -2.5443 -1.3700 -1.4689
  760MOL0     H  279   8.160  -0.334   3.975  0.2209  0.5094  0.5211
  760MOL0     H  280   7.978  -0.352   3.789  0.0602  1.6557 -2.9620
  760MOL0     H  281   8.001  -0.186   3.753  1.3706  0.8296  0.4810
  760MOL0     H  282   7.788  -0.196   4.145 -2.2078  1.4726  2.5079
  760MOL0     H  283   7.712   0.029   4.228 -1.0687  2.9581 -1.4929
  760MOL0     H  284   7.540   0.471   4.057  2.2339  1.4172 -5.7205
  760MOL0     H  285   7.483   0.709   4.125  0.6522  2.0828  2.6921
  760MOL0     H  286   7.810   0.934   4.337 -0.5618  0.3310  1.5596
  760MOL0     H  287   7.740   0.830   4.447 -1.7871  1.8405  2.1178
  760MOL0     H  288   7.546   1.004   4.468 -0.0780  0.1111 -1.3375
  760MOL0     H  289   7.636   1.100   4.352 -0.7505 -0.9707  0.3365
  760MOL0     H  290   7.830   1.111   4.511  0.2066  3.0234  2.4203
  760MOL0     H  291   7.733   1.014   4.619 -4.4560 -0.9167 -0.2841
  760MOL0     H  292   7.639   1.294   4.508 -0.4975 -1.7759 -0.9848
  760MOL0     H  293   7.548   1.197   4.616 -0.9724  0.8386 -1.6341
  760MOL0     H  294   7.830   1.292   4.698 -0.2411 -0.6936  1.4648
  760MOL0     H  295   7.712   1.220   4.792 -0.5696 -2.0613 -0.4255
  760MOL0     H  296   7.549   1.421   4.710  0.5855  1.1677 -0.8490
  760MOL0     H  297   7.710   1.494   4.667  2.0798  0.7169  0.7198
  760MOL0     H  298   7.625   1.401   4.941  2.1241  0.7275  1.0272
  760MOL0     H  299   7.777   1.479   4.904 -0.3448 -1.4930  1.8255
  760MOL0     H  300   7.597   1.648   4.991  0.4291  2.0573 -1.1648
  760MOL0     H  301   7.491   1.582   4.868 -0.0239 -2.6102 -0.8435
  760MOL0     H  302   7.883   0.757   4.246  1.2538 -0.2009 -1.0016
  760MOL0     H  303   7.950   0.538   4.149  0.4880  0.8875  0.4560
  760MOL0     H  304   7.878   0.211   3.879 -0.8113  0.9996  2.4027
  760MOL0     H  305   7.957  -0.003   3.802  0.8302 -1.2259  0.5499
  760MOL0     H  306   8.678   0.545   4.269 -0.5340 -0.2659  0.3943
  760MOL0     H  307   8.737   0.448   4.480 -1.6818 -0.0832 -0.3501
  760MOL0     H  308   9.079   0.333   4.774 -1.1963 -1.3533 -1.4321
  760MOL0     H  309   9.086   0.151   4.903 -0.3181  0.8329 -4.5688
  760MOL0     H  310   8.721   0.022   5.177 -1.1914  0.5402  0.5082
  760MOL0     H  311   8.814   0.172   5.239  0.2373  0.2181 -0.1561
  760MOL0     H  312   8.932  -0.104   5.281  4.0007  2.6189 -0.8451
  760MOL0     H  313   8.956   0.062   5.347 -1.6446  2.0395 -0.0363
  760MOL0     H  314   8.778   0.045   5.495  1.3939 -0.4864  1.7157
  760MOL0     H  315   8.854  -0.104   5.506 -0.3215 -0.3164 -0.5862
  760MOL0     H  316   8.588  -0.063   5.341  1.5674  1.1703  0.0379
  760MOL0     H  317   8.680  -0.199   5.334 -1.6094 -1.0653 -0.4293
  760MOL0     H  318   8.458  -0.293   5.664  1.8841 -0.7608  2.8292
  760MOL0     H  319   8.671   0.226   5.046  0.7225 -0.1107 -0.0273
  760MOL0     H  320   8.679   0.429   4.907 -2.0087 -1.7530  1.3612
  761MOL0     O  321   5.097   0.848   3.472  0.1448 -0.6971  0.7458
  761MOL0     C  322   5.150   0.771   3.542  0.3316  0.4221  0.4444
  761MOL0     O  323   5.074   0.681   3.617 -0.0440 -0.0354  0.8569
  761MOL0     C  324   4.937   0.689   3.631  0.1410 -0.3048  0.7263
  761MOL0     C  325   4.848   0.656   3.529  0.0223  0.3207  0.2412
  761MOL0     C  326   4.707   0.650   3.553  0.3956  0.5692 -0.4567
  761MOL0     C  327   4.659   0.680   3.676 -0.1321  0.1797 -0.2077
  761MOL0     O  328   4.525   0.670   3.696  0.8721  0.8862  0.1180
  761MOL0     C  329   4.483   0.532   3.691  1.1909 -0.0319  0.8324
  761MOL0     C  330   4.443   0.467   3.823 -0.2440 -0.3992 -0.1017
  761MOL0     C  331   4.324   0.364   3.803 -1.5846  0.2489 -0.2872
  761MOL0     C  332   4.297   0.299   3.934 -0.1904 -0.2069 -0.6760
  761MOL0     C  333   4.228   0.158   3.921 -1.0913  0.3094  0.2262
  761MOL0     C  334   4.115   0.151   3.833  0.4559 -0.4631  0.2969
  761MOL0     C  335   3.996   0.220   3.897  0.1934 -0.1894  0.0908
  761MOL0     C  336   3.941   0.149   4.019 -0.9692 -0.2232  0.4785
  761MOL0     N  337   3.851   0.043   3.982  0.3173 -0.0641 -0.0245
  761MOL0     C  338   3.716   0.065   3.952  0.6596  0.2655  1.0769
  761MOL0     C  339   3.664  -0.057   3.992  0.4553 -0.4312 -0.1437
  761MOL0     C  340   3.523  -0.103   3.960 -1.1378 -1.1782  0.9534
  761MOL0     C  341   3.501  -0.257   3.996 -0.6757 -0.4461  0.4113
  761MOL0     C  342   3.348  -0.282   4.026 -0.7875 -0.1360 -0.3657
  761MOL0     C  343   3.319  -0.396   4.125  0.2218  0.0275  1.0572
  761MOL0     O  344   3.200  -0.386   4.200  0.4141 -0.8628  0.2328
  761MOL0     C  345   3.198  -0.279   4.295 -0.5071 -0.4737  0.9971
  761MOL0     C  346   3.306  -0.196   4.333 -0.4666 -0.3212 -0.7476
  761MOL0     C  347   3.283  -0.109   4.435 -0.4504  0.6986  0.5327
  761MOL0     C  348   3.161  -0.112   4.508 -0.0822  0.5541 -0.1581
  761MOL0     C  349   3.150  -0.023   4.631  0.0856 -0.3118 -0.4116
  761MOL0     O  350   3.060  -0.070   4.714  0.5352 -0.1294 -0.2061
  761MOL0     C  351   2.994  -0.004   4.810  0.1995  0.6466  0.2518
  761MOL0     C  352   2.968   0.133   4.798  0.5117 -0.1736  0.2691
  761MOL0     C  353   2.918   0.200   4.915 -0.0982  0.5428 -0.1124
  761MOL0     C  354   2.894   0.132   5.039 -1.0911 -0.9187 -0.0963
  761MOL0     O  355   2.856   0.202   5.153 -0.0408  0.9397  0.1805
  761MOL0     C  356   2.893   0.342   5.170 -0.2566 -0.1845 -0.7657
  761MOL0     C  357   3.042   0.358   5.198 -0.5046 -0.2376 -1.1265
  761MOL0     C  358   3.070   0.321   5.349  0.4168  0.2247  0.2255
  761MOL0     C  359   3.101   0.167   5.363  0.9999 -0.7367  0.5620
  761MOL0     C  360   3.184   0.145   5.498  0.3933 -0.7514  0.4401
  761MOL0     C  361   3.197  -0.008   5.514 -0.0560 -0.7317  0.0632
  761MOL0     C  362   3.235  -0.069   5.646  0.5810 -0.1733  0.5872
  761MOL0     C  363   3.249  -0.222   5.619 -0.5619  0.7284 -0.2968
  761MOL0    Cl  364   3.385  -0.260   5.508  0.1142  0.2565 -0.1355
  761MOL0     C  365   2.905  -0.008   5.035 -0.3921 -0.5645 -0.1510
  761MOL0     C  366   2.963  -0.074   4.926  0.0153  0.1391  0.2009
  761MOL0     O  367   3.209   0.087   4.644  0.0326  0.2617 -0.2662
  761MOL0     C  368   3.060  -0.199   4.475 -1.3014 -0.7155  0.0716
  761MOL0     C  369   3.079  -0.287   4.370 -0.5725 -1.0199  0.7454
  761MOL0     N  370   3.767  -0.146   4.029 -0.9401  0.0873  0.3688
  761MOL0     N  371   3.883  -0.084   4.022 -0.0143  0.0368 -0.6218
  761MOL0     C  372   4.744   0.732   3.777  1.6695 -0.2939  0.7018
  761MOL0     C  373   4.885   0.725   3.757 -0.4588  1.0064  0.6531
  761MOL0     C  374   5.294   0.777   3.572 -0.0602  0.8594 -0.2334
  761MOL0     C  375   5.370   0.661   3.607 -0.2873 -0.0981  0.3454
  761MOL0     C  376   5.507   0.670   3.613 -0.3578 -0.2136  0.2157
  761MOL0     C  377   5.575   0.790   3.594 -1.1935 -0.1611 -0.9955
  761MOL0     O  378   5.715   0.806   3.599 -0.0118  0.4267 -0.5126
  761MOL0     C  379   5.796   0.717   3.668 -0.1131  0.0691 -0.4172
  761MOL0     C  380   5.939   0.703   3.615  0.3456 -0.7641 -0.5969
  761MOL0     C  381   5.942   0.696   3.460 -0.4972 -0.9945  0.0742
  761MOL0     C  382   6.053   0.610   3.405 -0.4289  0.6831  0.5986
  761MOL0     C  383   6.043   0.603   3.255  0.8525  0.6179 -0.3009
  761MOL0     C  384   6.032   0.590   3.137 -0.1500 -0.0742  0.6053
  761MOL0     C  385   5.496   0.903   3.585  0.2507  0.2890 -0.0103
  761MOL0     C  386   5.362   0.900   3.569 -0.5970 -0.3604 -0.2275
  761MOL0     H  387   4.863   0.618   3.428 -1.2979  2.1098 -0.6977
  761MOL0     H  388   4.649   0.604   3.473  0.7381 -0.6047 -0.0520
  761MOL0     H  389   4.551   0.466   3.637  0.7147 -1.3237  1.7364
  761MOL0     H  390   4.402   0.532   3.618  1.2580 -2.1879  0.6819
  761MOL0     H  391   4.418   0.550   3.890  0.3069 -1.7234  1.8451
  761MOL0     H  392   4.537   0.426   3.861 -0.4298 -1.3683 -0.6478
  761MOL0     H  393   4.357   0.291   3.728 -0.3600  0.2397  0.2411
  761MOL0     H  394   4.233   0.413   3.766 -0.5142  1.0228 -2.0375
  761MOL0     H  395   4.391   0.287   3.987 -1.7653  1.1999  2.7194
  761MOL0     H  396   4.239   0.363   4.001  2.6607  1.7347  0.1054
  761MOL0     H  397   4.225   0.110   4.019  0.7226  0.7859  0.5587
  761MOL0     H  398   4.297   0.094   3.865  0.5628  2.2156 -0.0253
  761MOL0     H  399   4.091   0.056   3.785 -0.8558  0.2222 -0.4699
  761MOL0     H  400   4.136   0.212   3.744 -0.2144  2.5539  2.0409
  761MOL0     H  401   4.043   0.308   3.942  0.1891 -1.4403  2.6722
  761MOL0     H  402   3.924   0.268   3.831 -0.6287  4.3337  3.7708
  761MOL0     H  403   3.904   0.217   4.096 -0.6508 -0.0020  0.4371
  761MOL0     H  404   4.017   0.092   4.075  0.0378 -0.7720 -1.3736
  761MOL0     H  405   3.674   0.158   3.915 -2.3900 -2.1039 -2.1131
  761MOL0     H  406   3.506  -0.100   3.852 -0.5497 -0.4663  0.8756
  761MOL0     H  407   3.456  -0.038   4.017  0.5351  1.1209  0.4156
  761MOL0     H  408   3.549  -0.289   4.089 -2.1273  1.2741  1.8156
  761MOL0     H  409   3.553  -0.327   3.930 -0.1891  1.0550 -0.8392
  761MOL0     H  410   3.307  -0.192   4.071  1.8326 -0.5137  3.2628
  761MOL0     H  411   3.301  -0.290   3.927  0.7931  0.8907 -1.2459
  761MOL0     H  412   3.399  -0.413   4.198 -0.5627 -0.8140  1.7324
  761MOL0     H  413   3.309  -0.492   4.074  3.3368  0.8193 -1.3642
  761MOL0     H  414   3.403  -0.199   4.284 -0.7168  1.2085 -1.3905
  761MOL0     H  415   3.365  -0.054   4.479  0.1203 -0.9833  1.6804
  761MOL0     H  416   2.998   0.186   4.708  0.7525 -0.3113  0.2657
  761MOL0     H  417   2.903   0.308   4.910  1.3449  0.8731  1.6157
  761MOL0     H  418   2.830   0.374   5.254  2.2308 -0.9183  1.5137
  761MOL0     H  419   2.869   0.397   5.079  1.4667  0.0725 -1.0984
  761MOL0     H  420   3.087   0.457   5.192 -1.2505  0.3992  2.0482
  761MOL0     H  421   3.100   0.298   5.127  1.9319  1.8404 -1.0079
  761MOL0     H  422   2.990   0.354   5.416 -0.8982 -0.1395 -1.1150
  761MOL0     H  423   3.166   0.363   5.381  1.7213 -0.3125 -2.6214
  761MOL0     H  424   3.006   0.112   5.358 -0.7197  2.0990 -1.2325
  761MOL0     H  425   3.164   0.142   5.278 -2.1894  1.3219 -2.7204
  761MOL0     H  426   3.123   0.185   5.580  0.7173  0.5442  0.0629
  761MOL0     H  427   3.281   0.194   5.486  0.1506 -0.5290 -0.7176
  761MOL0     H  428   3.277  -0.010   5.440 -1.3545  1.5456 -1.5222
  761MOL0     H  429   3.111  -0.061   5.473  1.0436 -0.5950 -2.6327
  761MOL0     H  430   3.332  -0.028   5.675  1.1725 -0.2867 -1.1541
  761MOL0     H  431   3.159  -0.057   5.724  1.4796  1.3472  1.2689
  761MOL0     H  432   3.150  -0.253   5.583 -0.8064  1.1695 -0.0168
  761MOL0     H  433   3.268  -0.283   5.708 -0.2607 -0.9313 -1.4512
  761MOL0     H  434   2.880  -0.054   5.130  1.2410  0.1415  0.6511
  761MOL0     H  435   2.970  -0.182   4.932 -3.6534 -0.1927  0.5414
  761MOL0     H  436   2.973  -0.218   4.538 -0.4193 -0.2495  1.4869
  761MOL0     H  437   3.015  -0.367   4.335  0.5848 -0.8972 -1.8391
  761MOL0     H  438   4.691   0.770   3.863  1.2326  0.5069  0.0986
  761MOL0     H  439   4.951   0.732   3.843  0.3360 -0.6748  0.2222
  761MOL0     H  440   5.336   0.558   3.617  0.4301 -0.2565  1.2311
  761MOL0     H  441   5.568   0.581   3.605 -1.4629 -0.8169 -2.8781
  761MOL0     H  442   5.756   0.616   3.663 -1.4127  0.5338  0.2044
  761MOL0     H  443   5.800   0.745   3.774  2.6201  0.5168 -0.5710
  761MOL0     H  444   6.003   0.780   3.662 -1.7251 -0.3917  1.8683
  761MOL0     H  445   5.990   0.613   3.651  2.2104  1.2252  2.1947
  761MOL0     H  446   5.942   0.798   3.423 -0.6241 -1.1210 -0.2783
  761MOL0     H  447   5.854   0.643   3.421  0.7850 -0.9427 -3.2327
  761MOL0     H  448   6.154   0.652   3.415 -0.0711  0.4512 -1.5911
  761MOL0     H  449   6.048   0.506   3.438 -2.7152  0.9017  1.0840
  761MOL0     H  450   6.011   0.583   3.032  3.8831 -3.3309 -0.2110
  761MOL0     H  451   5.545   1.000   3.582 -2.2215  1.5983 -1.0278
  761MOL0     H  452   5.300   0.983   3.536 -0.1795 -0.2188 -0.6829
  762MOL0     O  453  10.446   6.570  10.955  0.2103  0.0390 -0.4379
  762MOL0     C  454  10.422   6.577  10.835 -0.3591 -0.3578 -0.8187
  762MOL0     O  455  10.315   6.519  10.766 -0.0240 -0.0927  0.3394
  762MOL0     C  456  10.223   6.452  10.846 -0.8225 -0.2004  0.5549
  762MOL0     C  457  10.190   6.317  10.824 -0.4593 -0.1780 -0.1579
  762MOL0     C  458  10.087   6.253  10.900 -0.1265 -0.8343  0.7173
  762MOL0     C  459  10.004   6.333  10.979  0.2788 -0.1646 -0.1663
  762MOL0     O  460   9.897   6.274  11.050 -1.3840  0.4641 -0.1613
  762MOL0     C  461   9.919   6.152  11.132  0.3363 -0.7116  0.1393
  762MOL0     C  462   9.833   6.172  11.254  0.5415  0.4810  1.1709
  762MOL0     C  463   9.679   6.211  11.209 -0.8758 -0.3749  0.2283
  762MOL0     C  464   9.607   6.211  11.336 -1.0244  0.1933  0.1327
  762MOL0     C  465   9.451   6.232  11.314  0.1522  0.1588  0.0358
  762MOL0     C  466   9.363   6.254  11.438 -0.2397 -0.2263 -0.3074
  762MOL0     C  467   9.374   6.152  11.553  0.1620  0.0932  0.3587
  762MOL0     C  468   9.319   6.014  11.519  0.4689 -0.0417  0.1540
  762MOL0     N  469   9.189   6.008  11.590 -0.4884  0.1044 -0.8281
  762MOL0     C  470   9.155   5.951  11.710 -0.9759  0.0881 -0.1483
  762MOL0     C  471   9.023   5.990  11.735 -0.9049  0.1320  0.7531
  762MOL0     C  472   8.942   5.946  11.854 -0.3020  0.3870  0.4645
  762MOL0     C  473   8.944   6.050  11.965  0.2172 -0.8171 -0.4981
  762MOL0     C  474   9.074   6.051  12.039  0.6885 -0.7056 -0.7850
  762MOL0     C  475   9.120   6.166  12.129 -0.5238 -1.1620 -0.4626
  762MOL0     O  476   9.060   6.295  12.108  0.0444  0.0548 -0.0714
  762MOL0     C  477   9.086   6.381  12.011  0.2603  0.2206  0.3840
  762MOL0     C  478   9.205   6.375  11.932  0.1416 -0.1934  0.4316
  762MOL0     C  479   9.221   6.466  11.829  0.0114 -0.0058 -0.8134
  762MOL0     C  480   9.134   6.573  11.816  0.0811 -0.4098  0.2485
  762MOL0     C  481   9.161   6.668  11.713 -0.5942  0.2948 -0.2990
  762MOL0     O  482   9.240   6.621  11.607  0.3395  0.4000  0.0557
  762MOL0     C  483   9.261   6.694  11.496  0.2703 -0.2554  0.0099
  762MOL0     C  484   9.332   6.815  11.498  0.5972  0.4770  0.1282
  762MOL0     C  485   9.359   6.878  11.374  0.9943 -1.2309 -0.4729
  762MOL0     C  486   9.302   6.843  11.257  0.6565  0.0395  0.1338
  762MOL0     O  487   9.342   6.895  11.140 -1.1169 -0.2196  0.4178
  762MOL0     C  488   9.292   6.854  11.012 -0.7483 -0.3327 -0.4676
  762MOL0     C  489   9.322   6.939  10.893  0.2959 -0.0317  0.3332
  762MOL0     C  490   9.472   6.961  10.878 -0.0566 -0.3501 -0.0302
  762MOL0     C  491   9.516   7.040  10.756  0.6915 -1.2974  0.3479
  762MOL0     C  492   9.646   7.110  10.782  0.9066  0.6734 -0.0487
  762MOL0     C  493   9.709   7.189  10.669  0.0480 -0.4705  0.0687
  762MOL0     C  494   9.730   7.092  10.543  0.1282  0.6185  0.0323
  762MOL0     C  495   9.848   7.137  10.474 -0.1155  0.6173 -0.0301
  762MOL0    Cl  496   9.958   6.986  10.419 -0.2681 -0.1925 -0.4156
  762MOL0     C  497   9.214   6.737  11.262 -0.2384  0.3544 -0.0745
  762MOL0     C  498   9.191   6.665  11.383 -0.1646  1.0569 -0.7934
  762MOL0     O  499   9.100   6.772  11.718  0.5317 -0.1106  0.9462
  762MOL0     C  500   9.011   6.580  11.898 -0.1291  0.6999  0.1992
  762MOL0     C  501   8.993   6.481  11.994  0.2103  0.3715 -0.0078
  762MOL0     N  502   8.981   6.071  11.638  0.6880 -0.0729  1.0965
  762MOL0     N  503   9.082   6.083  11.551 -0.5023  0.3058 -0.1259
  762MOL0     C  504  10.031   6.471  11.001  0.2533  0.5074  0.4197
  762MOL0     C  505  10.146   6.525  10.929  0.1958  0.0842 -0.6207
  762MOL0     C  506  10.530   6.642  10.760  0.4978  0.4563  0.1180
  762MOL0     C  507  10.570   6.585  10.645 -0.3762  0.2435 -0.4414
  762MOL0     C  508  10.669   6.651  10.574  0.0363  0.4837  0.3000
  762MOL0     C  509  10.740   6.755  10.617  0.3128  0.0398  0.0142
  762MOL0     O  510  10.838   6.807  10.537  0.4630  0.6259 -0.0082
  762MOL0     C  511  10.891   6.935  10.559 -0.5724  0.5401  0.0657
  762MOL0     C  512  10.794   7.061  10.552  0.2362 -0.1087  0.1840
  762MOL0     C  513  10.700   7.079  10.421 -0.2937 -0.6193 -0.4019
  762MOL0     C  514  10.784   7.106  10.291  0.4429  0.0791 -1.2412
  762MOL0     C  515  10.813   7.250  10.280 -1.1299 -0.0059  0.0024
  762MOL0     C  516  10.808   7.373  10.281 -0.8510 -0.4016 -0.2640
  762MOL0     C  517  10.719   6.803  10.748 -0.1251 -0.5662 -0.4330
  762MOL0     C  518  10.603   6.751  10.813 -1.1440  0.9533 -0.1132
  762MOL0     H  519  10.252   6.259  10.755 -1.2529 -0.4144 -0.6769
  762MOL0     H  520  10.074   6.148  10.876 -2.6767 -0.4555  0.1873
  762MOL0     H  521  10.023   6.151  11.165  0.1330 -1.8807  0.7721
  762MOL0     H  522   9.887   6.060  11.083 -1.2938  0.2959 -0.8025
  762MOL0     H  523   9.871   6.262  11.304  1.5721  2.8209 -3.2287
  762MOL0     H  524   9.836   6.078  11.309  1.0810 -1.4469 -1.8889
  762MOL0     H  525   9.636   6.144  11.134  0.1078 -0.2249 -0.5001
  762MOL0     H  526   9.683   6.310  11.163  3.2508 -0.8764 -0.9207
  762MOL0     H  527   9.627   6.116  11.386  1.0552  1.5419  2.0227
  762MOL0     H  528   9.655   6.289  11.396  0.8718  1.6220 -2.9888
  762MOL0     H  529   9.415   6.134  11.283  0.7346 -0.0265 -0.0686
  762MOL0     H  530   9.427   6.309  11.240 -1.6790  1.7060  2.1171
  762MOL0     H  531   9.257   6.270  11.415  0.3460  2.0174 -1.7172
  762MOL0     H  532   9.394   6.343  11.492  0.0868 -1.8761  2.4116
  762MOL0     H  533   9.477   6.138  11.588 -0.2912 -3.1855  0.6884
  762MOL0     H  534   9.326   6.172  11.649  3.2202 -3.6768  2.9756
  762MOL0     H  535   9.377   5.935  11.566  1.1121  0.2549 -0.1303
  762MOL0     H  536   9.303   5.986  11.414  0.5980  2.2482 -0.5418
  762MOL0     H  537   9.212   5.901  11.787  0.1820  0.8575 -0.4812
  762MOL0     H  538   8.954   5.845  11.894 -0.8515  0.4429  0.7756
  762MOL0     H  539   8.845   5.948  11.803 -0.1750  3.8617  0.1250
  762MOL0     H  540   8.862   6.024  12.033  0.4358 -2.5476 -0.8584
  762MOL0     H  541   8.933   6.154  11.934  0.3200 -0.2649  1.2075
  762MOL0     H  542   9.086   5.961  12.100 -0.8161  0.6250  1.6333
  762MOL0     H  543   9.151   6.044  11.961  1.8998 -0.1284  0.3191
  762MOL0     H  544   9.226   6.176  12.105  0.0383 -4.3889  0.2785
  762MOL0     H  545   9.108   6.137  12.234 -1.4387  1.7216  0.3306
  762MOL0     H  546   9.270   6.289  11.932 -2.1291 -1.9932  0.3099
  762MOL0     H  547   9.305   6.444  11.764  2.7654  2.4328  1.6088
  762MOL0     H  548   9.369   6.850  11.594  0.4014  0.0346  0.3672
  762MOL0     H  549   9.431   6.959  11.368  1.3451 -1.2708  2.0382
  762MOL0     H  550   9.184   6.853  11.024 -0.8982 -0.8619 -1.7138
  762MOL0     H  551   9.321   6.751  10.986  0.7340 -0.6974  2.2260
  762MOL0     H  552   9.277   7.038  10.899 -0.3541 -0.1264 -1.9884
  762MOL0     H  553   9.272   6.896  10.805 -1.1429 -1.6931  1.8662
  762MOL0     H  554   9.528   6.867  10.883  0.9486  0.0003 -2.7446
  762MOL0     H  555   9.514   7.009  10.967  0.8971  0.7141 -1.0177
  762MOL0     H  556   9.522   6.976  10.668  0.9023 -0.1705 -0.4719
  762MOL0     H  557   9.434   7.111  10.744  1.1463 -0.5196  1.6355
  762MOL0     H  558   9.722   7.035  10.806 -1.7149 -2.4979 -0.9650
  762MOL0     H  559   9.631   7.176  10.868  2.2943 -1.2533  1.7821
  762MOL0     H  560   9.806   7.211  10.716  0.5869 -4.9231  1.4672
  762MOL0     H  561   9.658   7.283  10.648  2.9806  0.8784 -1.7908
  762MOL0     H  562   9.760   6.998  10.590  3.1643  1.3279 -0.2926
  762MOL0     H  563   9.653   7.076  10.468 -0.9756 -0.9006  1.3988
  762MOL0     H  564   9.908   7.207  10.533 -0.6319 -0.1005  1.4090
  762MOL0     H  565   9.812   7.196  10.390 -1.4413  0.4880  0.4161
  762MOL0     H  566   9.158   6.722  11.170 -0.9856  2.2157  0.0412
  762MOL0     H  567   9.131   6.575  11.385  2.0399 -0.4810  1.0142
  762MOL0     H  568   8.938   6.660  11.895 -1.6977 -0.6870  0.1783
  762MOL0     H  569   8.916   6.487  12.071  1.1517  0.1361  0.9812
  762MOL0     H  570   9.973   6.518  11.080 -0.6123 -1.9417  1.3641
  762MOL0     H  571  10.167   6.630  10.947  0.0358 -0.3213  2.5531
  762MOL0     H  572  10.521   6.490  10.626 -1.9570  0.5826  1.5540
  762MOL0     H  573  10.704   6.617  10.477 -0.6009  0.4872  0.0652
  762MOL0     H  574  10.965   6.938  10.478  1.8298 -2.0627  1.9568
  762MOL0     H  575  10.939   6.931  10.657 -0.1044  0.1684 -0.1741
  762MOL0     H  576  10.738   7.064  10.646  3.5637  1.6725  2.3010
  762MOL0     H  577  10.851   7.153  10.565  1.8930 -1.1519  0.6360
  762MOL0     H  578  10.620   7.151  10.442  1.9720  2.1128 -0.4946
  762MOL0     H  579  10.658   6.979  10.410  3.7400 -2.4418 -1.2996
  762MOL0     H  580  10.874   7.046  10.275  0.7502  0.3543 -0.6294
  762MOL0     H  581  10.711   7.093  10.211 -0.5228  0.3055 -0.4155
  762MOL0     H  582  10.798   7.479  10.292  1.9672 -0.3257  2.7652
  762MOL0     H  583  10.782   6.882  10.789  1.4933 -1.4132 -1.1727
  762MOL0     H  584  10.583   6.783  10.914  3.1263 -2.7345  2.2723
  763MOL0     O  585   0.495   7.331   9.226 -0.0892  0.2355 -0.2099
  763MOL0     C  586   0.551   7.437   9.195 -0.7469  0.1111  0.0622
  763MOL0     O  587   0.692   7.466   9.203 -0.3778 -1.0253  0.3086
  763MOL0     C  588   0.773   7.367   9.238  0.4700  0.1053  0.0468
  763MOL0     C  589   0.867   7.389   9.337 -0.2990 -0.2621 -0.7762
  763MOL0     C  590   0.969   7.300   9.372  0.1754 -0.5781 -0.2533
  763MOL0     C  591   0.974   7.174   9.299  0.5688 -0.4957 -0.3379
  763MOL0     O  592   1.051   7.067   9.326 -0.2244 -0.2817  0.5768
  763MOL0     C  593   1.152   7.069   9.424  0.2987  0.1686 -0.1211
  763MOL0     C  594   1.279   7.151   9.385  0.8777 -0.0145  0.3154
  763MOL0     C  595   1.384   7.135   9.500  0.3446 -0.5650  0.1606
  763MOL0     C  596   1.497   7.217   9.465 -0.4854  0.0644  0.3184
  763MOL0     C  597   1.555   7.200   9.322  1.1217 -0.5106  0.4008
  763MOL0     C  598   1.679   7.284   9.291 -0.5942  0.1393  0.3615
  763MOL0     C  599   1.756   7.339   9.413  1.3179  1.0962 -0.1078
  763MOL0     C  600   1.900   7.389   9.387  0.1779 -0.5391  0.8160
  763MOL0     N  601   1.963   7.433   9.517  0.1738  0.2039  0.2461
  763MOL0     C  602   2.094   7.471   9.522 -0.3284 -0.1217  0.4538
  763MOL0     C  603   2.138   7.443   9.649 -0.6440  0.3338  0.6427
  763MOL0     C  604   2.262   7.492   9.714  0.3583 -0.2551  0.9989
  763MOL0     C  605   2.245   7.613   9.808 -0.4453  0.3916  0.5787
  763MOL0     C  606   2.356   7.643   9.901 -0.7822 -0.0433 -0.2842
  763MOL0     C  607   2.488   7.639   9.828 -0.5119 -1.2483 -0.8021
  763MOL0     O  608   2.490   7.747   9.726  0.8289  0.2773 -0.8272
  763MOL0     C  609   2.558   7.865   9.739  0.1210  0.2821 -0.5930
  763MOL0     C  610   2.613   7.921   9.857  0.2287  0.6827  0.4606
  763MOL0     C  611   2.690   8.038   9.851 -0.1985  0.6456 -0.0988
  763MOL0     C  612   2.706   8.110   9.731  0.2819  0.2689 -0.1167
  763MOL0     C  613   2.783   8.239   9.727  0.7403  0.1051  0.0456
  763MOL0     O  614   2.779   8.314   9.619  0.4128  0.3413  0.9422
  763MOL0     C  615   2.857   8.430   9.611 -0.7601  0.5552 -0.1851
  763MOL0     C  616   2.803   8.542   9.675  0.7177 -0.0483  1.4920
  763MOL0     C  617   2.865   8.663   9.659  0.8245 -0.4102  0.8083
  763MOL0     C  618   2.985   8.670   9.590 -0.4997 -0.4853 -0.1126
  763MOL0     O  619   3.035   8.797   9.559 -0.1892 -0.1660 -0.4339
  763MOL0     C  620   3.067   8.810   9.421  0.6063  0.4227  0.6082
  763MOL0     C  621   3.111   8.956   9.400  0.1609  0.2028 -0.7436
  763MOL0     C  622   3.242   8.974   9.474  0.2786 -0.6457  0.8264
  763MOL0     C  623   3.287   9.125   9.470  0.4206  0.1000 -0.8940
  763MOL0     C  624   3.430   9.150   9.525  0.2908 -0.1652  0.5397
  763MOL0     C  625   3.474   9.277   9.483  0.2669  0.6783  0.6680
  763MOL0     C  626   3.622   9.314   9.516  0.8373  0.6079  0.8017
  763MOL0     C  627   3.667   9.313   9.655  0.9615  0.8220 -0.5801
  763MOL0    Cl  628   3.847   9.346   9.661  0.4906  0.0811 -0.3532
  763MOL0     C  629   3.043   8.556   9.537 -0.5377  0.4400 -0.2377
  763MOL0     C  630   2.984   8.431   9.550  0.2889  0.0810  0.3195
  763MOL0     O  631   2.853   8.255   9.827  0.8523 -1.0238 -1.0444
  763MOL0     C  632   2.632   8.065   9.621 -0.5322  0.3712  0.6898
  763MOL0     C  633   2.568   7.944   9.627  1.6107 -0.2030 -0.0365
  763MOL0     N  634   2.038   7.364   9.706  0.3221 -0.2074  0.4675
  763MOL0     N  635   1.929   7.377   9.639 -0.6723  0.3689  0.5890
  763MOL0     C  636   0.887   7.157   9.190  0.3042 -0.2971  0.5362
  763MOL0     C  637   0.793   7.255   9.158  0.1718  0.8122  0.3839
  763MOL0     C  638   0.459   7.542   9.170  0.7174  0.0383  0.5050
  763MOL0     C  639   0.321   7.526   9.198  0.5059  0.5735 -0.0395
  763MOL0     C  640   0.234   7.631   9.168 -0.6959 -0.1874  0.3710
  763MOL0     C  641   0.284   7.750   9.115  0.5658  0.8535  0.7714
  763MOL0     O  642   0.196   7.852   9.075 -0.5699  0.0161 -0.4920
  763MOL0     C  643   0.191   7.893   8.934 -0.5780  0.1185 -0.1347
  763MOL0     C  644   0.080   7.808   8.876  0.2380 -0.2500  0.6503
  763MOL0     C  645   0.038   7.841   8.729  0.3239  0.5151 -0.3937
  763MOL0     C  646  -0.015   7.710   8.646 -0.3058  0.1906 -0.0413
  763MOL0     C  647  -0.026   7.726   8.503 -0.5466  0.1117 -0.4582
  763MOL0     C  648  -0.034   7.753   8.384  0.5776  0.3611 -0.8674
  763MOL0     C  649   0.414   7.767   9.089 -0.5341 -0.3877  0.7180
  763MOL0     C  650   0.504   7.668   9.126 -0.3667  0.1484 -0.0603
  763MOL0     H  651   0.850   7.465   9.412 -0.9546 -0.1307 -1.0477
  763MOL0     H  652   1.034   7.319   9.456 -0.5944 -0.7170  0.3886
  763MOL0     H  653   1.176   6.962   9.436 -0.4415  0.0593  0.4402
  763MOL0     H  654   1.116   7.116   9.516 -0.4688  1.4608 -1.0465
  763MOL0     H  655   1.241   7.250   9.356 -2.6669 -1.3068 -0.0072
  763MOL0     H  656   1.301   7.106   9.288 -1.7742 -2.0857  0.5592
  763MOL0     H  657   1.405   7.028   9.493 -0.0339 -0.5482 -2.0907
  763MOL0     H  658   1.358   7.151   9.605  0.4094 -1.0457  0.2518
  763MOL0     H  659   1.478   7.324   9.477  0.7336  0.4889 -1.0965
  763MOL0     H  660   1.572   7.182   9.536 -0.9706  1.2139  1.4201
  763MOL0     H  661   1.482   7.223   9.244  0.5145 -0.6201  0.9266
  763MOL0     H  662   1.572   7.093   9.307 -1.8471 -0.9584 -0.3861
  763MOL0     H  663   1.641   7.370   9.235 -0.0471 -0.2178 -0.5826
  763MOL0     H  664   1.750   7.222   9.236  0.1993  0.1175  1.3891
  763MOL0     H  665   1.696   7.422   9.452 -2.2657 -1.2676 -0.1589
  763MOL0     H  666   1.762   7.256   9.483 -1.9504  1.0420  0.2699
  763MOL0     H  667   1.892   7.478   9.325  0.6920 -0.8159  0.3467
  763MOL0     H  668   1.966   7.313   9.345 -0.8660 -2.0550  1.8136
  763MOL0     H  669   2.145   7.518   9.439 -0.4160 -0.4919  0.1836
  763MOL0     H  670   2.328   7.515   9.631  0.8795 -2.5000  0.7291
  763MOL0     H  671   2.309   7.405   9.761  2.3800  0.4916  0.4301
  763MOL0     H  672   2.145   7.599   9.850 -0.7777 -3.1815 -1.0206
  763MOL0     H  673   2.235   7.706   9.751  0.9876  0.8928  1.0952
  763MOL0     H  674   2.339   7.745   9.936 -0.3669 -0.7348  2.1492
  763MOL0     H  675   2.355   7.577   9.989  0.7770 -0.2404 -0.3887
  763MOL0     H  676   2.496   7.537   9.790  1.6345 -2.0369  1.5168
  763MOL0     H  677   2.573   7.654   9.895 -0.5010  4.1880 -1.6203
  763MOL0     H  678   2.599   7.858   9.944  0.6190 -0.4924 -0.3017
  763MOL0     H  679   2.740   8.066   9.943 -0.7837  2.1226 -0.2040
  763MOL0     H  680   2.714   8.531   9.737 -1.2163 -0.0738 -1.1015
  763MOL0     H  681   2.829   8.748   9.714  0.8002  0.0375  0.1181
  763MOL0     H  682   2.984   8.791   9.352  0.0046  0.9703  1.1656
  763MOL0     H  683   3.146   8.739   9.397  0.5895  0.4773  0.3937
  763MOL0     H  684   3.033   9.021   9.441 -0.6005 -1.2779  0.2544
  763MOL0     H  685   3.133   8.979   9.295  0.1731  1.2166 -0.5208
  763MOL0     H  686   3.314   8.913   9.418 -1.5401 -3.5720  1.4675
  763MOL0     H  687   3.232   8.943   9.578  0.2519 -0.4863  0.8701
  763MOL0     H  688   3.287   9.162   9.367 -0.0747  2.1775 -0.1946
  763MOL0     H  689   3.218   9.189   9.526  1.3744 -3.1499  4.7655
  763MOL0     H  690   3.499   9.068   9.499 -0.8910 -1.8773  2.4514
  763MOL0     H  691   3.413   9.151   9.633 -5.0433 -1.8324  0.0071
  763MOL0     H  692   3.414   9.357   9.528  0.5036  0.3164  1.6347
  763MOL0     H  693   3.463   9.288   9.374  0.5443  1.7641  0.7324
  763MOL0     H  694   3.689   9.262   9.447  0.6346  1.6593 -0.2220
  763MOL0     H  695   3.631   9.420   9.489  2.1262 -0.1503 -2.2445
  763MOL0     H  696   3.645   9.216   9.698  0.6140  1.8867  1.7972
  763MOL0     H  697   3.615   9.386   9.717  2.0269  0.5467  0.6861
  763MOL0     H  698   3.139   8.558   9.487 -2.0572  1.0988 -3.3770
  763MOL0     H  699   3.028   8.348   9.495 -1.9029 -0.4343 -0.7459
  763MOL0     H  700   2.639   8.114   9.524 -0.4401 -2.4116 -0.8164
  763MOL0     H  701   2.506   7.920   9.541 -2.7026 -1.0017  2.9633
  763MOL0     H  702   0.901   7.068   9.130 -1.2838 -0.0607 -0.2489
  763MOL0     H  703   0.733   7.254   9.068 -0.9833  0.3171  1.1281
  763MOL0     H  704   0.277   7.436   9.240  0.0303  0.4701 -0.7471
  763MOL0     H  705   0.126   7.625   9.172 -0.6794 -1.2579 -0.4527
  763MOL0     H  706   0.285   7.882   8.879 -2.4953  1.1611 -3.9329
  763MOL0     H  707   0.168   7.997   8.911  1.1366 -0.1069 -3.5259
  763MOL0     H  708   0.110   7.702   8.873  1.9461  0.2086  0.1832
  763MOL0     H  709  -0.005   7.822   8.942 -0.9741  0.9850 -1.0796
  763MOL0     H  710   0.117   7.891   8.672 -0.5002  0.6261 -1.4699
  763MOL0     H  711  -0.040   7.917   8.733  0.8592  1.0716 -0.3622
  763MOL0     H  712   0.051   7.629   8.677 -2.7359 -2.1694 -0.6558
  763MOL0     H  713  -0.113   7.680   8.685 -0.3737  0.7983  0.2714
  763MOL0     H  714  -0.026   7.779   8.280  1.4727 -1.7338 -1.3772
  763MOL0     H  715   0.445   7.856   9.035 -1.4039  0.0223  0.8827
  763MOL0     H  716   0.608   7.688   9.103  0.5599 -3.8115  0.0451
  764MOL0     O  717   2.362   4.966  11.138 -0.2662 -0.3896  0.3568
  764MOL0     C  718   2.242   4.977  11.168 -0.5925  0.3374  0.1923
  764MOL0     O  719   2.194   5.041  11.279  0.6890 -0.4742 -0.2666
  764MOL0     C  720   2.276   5.131  11.342  0.0603 -0.1852  0.2635
  764MOL0     C  721   2.243   5.156  11.475 -0.3626 -0.0843 -1.0206
  764MOL0     C  722   2.323   5.240  11.556 -0.7580  0.5496 -0.3066
  764MOL0     C  723   2.417   5.325  11.494 -0.5338 -0.0827  0.1857
  764MOL0     O  724   2.505   5.399  11.569 -0.3385  0.5551  0.4620
  764MOL0     C  725   2.461   5.508  11.641  0.4071  0.4706 -0.5536
  764MOL0     C  726   2.583   5.580  11.707  0.4234  0.7017 -1.0962
  764MOL0     C  727   2.649   5.518  11.827  0.3376 -0.3305  0.5507
  764MOL0     C  728   2.766   5.610  11.869  0.3236 -0.0693  0.1063
  764MOL0     C  729   2.805   5.594  12.017  0.3314 -0.1083  0.4473
  764MOL0     C  730   2.941   5.660  12.045 -0.4986 -1.1976  0.6759
  764MOL0     C  731   2.989   5.638  12.194 -0.5127 -0.4862 -0.6697
  764MOL0     C  732   2.881   5.695  12.287 -0.7789 -0.7330 -0.6654
  764MOL0     N  733   2.915   5.652  12.418 -0.5908  0.4043 -0.9283
  764MOL0     C  734   2.927   5.519  12.464 -0.4819 -0.9115  0.2605
  764MOL0     C  735   2.950   5.525  12.595  0.6897  0.8438  0.0668
  764MOL0     C  736   2.954   5.401  12.685 -0.1178  0.1934  0.2694
  764MOL0     C  737   2.978   5.440  12.829  0.1218 -0.1759 -0.5010
  764MOL0     C  738   2.970   5.310  12.917 -0.7449 -0.2021  0.2006
  764MOL0     C  739   2.931   5.334  13.070  0.3560 -0.0937  1.2576
  764MOL0     O  740   3.039   5.392  13.143  0.2359 -0.2285 -0.6896
  764MOL0     C  741   3.050   5.379  13.275  0.1929 -0.2037  0.0881
  764MOL0     C  742   3.180   5.379  13.338  0.2283  0.7856  0.3171
  764MOL0     C  743   3.192   5.381  13.477  0.0439 -1.2636 -0.6986
  764MOL0     C  744   3.080   5.371  13.563  0.5955 -0.5015 -0.0085
  764MOL0     C  745   3.097   5.387  13.712 -1.1184 -1.3056  0.1597
  764MOL0     O  746   2.987   5.427  13.769  0.0540 -0.1810  0.1727
  764MOL0     C  747   2.996   5.465  13.902  0.0754  0.2120 -0.9265
  764MOL0     C  748   3.062   5.583  13.935 -1.0492  0.1837  0.9672
  764MOL0     C  749   3.094   5.617  14.066  0.3382  0.0545  0.2328
  764MOL0     C  750   3.047   5.540  14.173 -0.7331 -0.2729 -0.0516
  764MOL0     O  751   3.078   5.596  14.304 -0.1284  0.2860 -0.1156
  764MOL0     C  752   3.011   5.530  14.416 -0.0789 -0.0153  0.5482
  764MOL0     C  753   3.070   5.568  14.549 -1.0905 -0.2537  1.1584
  764MOL0     C  754   3.217   5.539  14.561 -0.0087 -0.4504  0.2649
  764MOL0     C  755   3.279   5.581  14.694  0.2991 -0.1583  0.8216
  764MOL0     C  756   3.217   5.500  14.809 -0.4540  0.3127  0.4306
  764MOL0     C  757   3.277   5.551  14.945  0.2890  0.1857  0.2204
  764MOL0     C  758   3.236   5.696  14.989  0.8818 -0.3882 -0.2841
  764MOL0     C  759   3.288   5.715  15.129 -0.0682 -0.8352  0.2922
  764MOL0    Cl  760   3.229   5.599  15.249 -0.4955  0.2791  0.1678
  764MOL0     C  761   2.985   5.414  14.139 -0.0116 -0.5388  0.2608
  764MOL0     C  762   2.965   5.377  14.007 -0.4939  0.7905 -0.6270
  764MOL0     O  763   3.207   5.364  13.763  0.5960 -0.1785 -0.8965
  764MOL0     C  764   2.957   5.361  13.493 -0.3996 -0.0139 -0.6025
  764MOL0     C  765   2.939   5.363  13.361 -0.6216 -0.9839 -0.0050
  764MOL0     N  766   2.945   5.660  12.627 -0.6162 -0.5300  0.3430
  764MOL0     N  767   2.921   5.736  12.527 -0.3037 -0.4735 -0.2715
  764MOL0     C  768   2.445   5.304  11.358  0.5077 -1.2141 -0.5594
  764MOL0     C  769   2.369   5.216  11.284  0.5488 -0.2054  0.0760
  764MOL0     C  770   2.148   4.878  11.108 -0.7732  0.0601  1.0990
  764MOL0     C  771   2.177   4.808  10.985 -0.5900 -0.6215 -0.2551
  764MOL0     C  772   2.084   4.727  10.923  0.0790  0.2302 -0.1199
  764MOL0     C  773   1.970   4.698  10.992 -0.4849 -0.1663  0.3616
  764MOL0     O  774   1.889   4.606  10.928 -0.1103  0.5030  0.5777
  764MOL0     C  775   1.777   4.554  10.991 -0.6496 -0.0707 -0.3790
  764MOL0     C  776   1.764   4.410  10.952 -0.2846  0.1811 -0.8208
  764MOL0     C  777   1.740   4.399  10.798  0.3690 -0.4951 -0.6040
  764MOL0     C  778   1.710   4.259  10.749  0.5194 -0.1809  0.0775
  764MOL0     C  779   1.785   4.152  10.816 -0.1678  0.1042  0.3486
  764MOL0     C  780   1.842   4.059  10.874  0.2285  0.0636  0.4269
  764MOL0     C  781   1.936   4.766  11.106  0.0470  0.0456 -0.8091
  764MOL0     C  782   2.024   4.856  11.166  0.7996 -0.5587  0.0515
  764MOL0     H  783   2.178   5.081  11.521  3.0600 -1.3953  2.1358
  764MOL0     H  784   2.320   5.244  11.664 -1.5572  0.1114 -0.3007
  764MOL0     H  785   2.396   5.476  11.723  1.8190  1.0933  0.8905
  764MOL0     H  786   2.399   5.577  11.583 -1.4923  0.2248  1.0766
  764MOL0     H  787   2.545   5.677  11.741 -1.4427  0.0732 -1.2398
  764MOL0     H  788   2.656   5.592  11.627  0.9023 -0.5053 -0.8602
  764MOL0     H  789   2.669   5.414  11.800  0.0111  0.3233 -2.7239
  764MOL0     H  790   2.586   5.512  11.916 -0.0467  0.1759  0.3191
  764MOL0     H  791   2.857   5.596  11.808  1.2403 -1.1993  1.6663
  764MOL0     H  792   2.744   5.716  11.850 -0.4905  0.1012  1.8473
  764MOL0     H  793   2.830   5.493  12.053  1.7696  0.4338  1.0562
  764MOL0     H  794   2.721   5.626  12.079 -2.4536 -2.3291 -1.8974
  764MOL0     H  795   2.927   5.764  12.013  0.9095 -1.7297 -1.8874
  764MOL0     H  796   3.017   5.611  11.984  0.6267  1.5948 -0.3334
  764MOL0     H  797   3.016   5.534  12.216  0.0732  0.3963  3.7531
  764MOL0     H  798   3.084   5.691  12.205 -1.6469  1.2614  1.6789
  764MOL0     H  799   2.779   5.657  12.278 -0.6134 -2.4797  2.9491
  764MOL0     H  800   2.887   5.804  12.277 -2.2468 -0.4526  0.9577
  764MOL0     H  801   2.906   5.440  12.393  1.2761 -2.9437  1.8302
  764MOL0     H  802   3.024   5.329  12.642 -1.8727  0.7424 -4.0108
  764MOL0     H  803   2.852   5.362  12.683 -0.1909  0.1497 -3.9282
  764MOL0     H  804   2.902   5.511  12.862  3.3962  4.0750 -1.2269
  764MOL0     H  805   3.076   5.489  12.828 -0.7697  1.8208  1.5525
  764MOL0     H  806   2.890   5.251  12.871  0.5242 -1.4915 -0.4481
  764MOL0     H  807   3.058   5.247  12.900 -2.3926 -2.0967 -2.0562
  764MOL0     H  808   2.910   5.238  13.117  0.0274 -0.1463  1.0096
  764MOL0     H  809   2.841   5.395  13.064  2.8224  3.8863 -3.5123
  764MOL0     H  810   3.272   5.399  13.283  0.0026 -0.9194 -0.7621
  764MOL0     H  811   3.289   5.394  13.524  0.2226  0.4235 -1.4588
  764MOL0     H  812   3.101   5.657  13.866  1.7716 -2.7826 -0.9077
  764MOL0     H  813   3.152   5.707  14.081  1.3660 -0.4746 -0.4528
  764MOL0     H  814   3.019   5.421  14.417  1.3672  0.0765  2.0185
  764MOL0     H  815   2.904   5.556  14.413  0.4959  2.5932 -0.6638
  764MOL0     H  816   3.022   5.513  14.631  0.5759 -2.3461  0.8232
  764MOL0     H  817   3.063   5.677  14.557 -0.0339  0.0497 -1.3443
  764MOL0     H  818   3.274   5.594  14.485 -1.9741  1.8478  0.3016
  764MOL0     H  819   3.239   5.439  14.525 -2.3535 -0.0906 -2.5275
  764MOL0     H  820   3.384   5.550  14.696  0.8365  1.3220  4.8713
  764MOL0     H  821   3.275   5.687  14.722 -0.6621 -0.0730  0.4087
  764MOL0     H  822   3.234   5.392  14.810 -0.2580  0.3442  0.4728
  764MOL0     H  823   3.110   5.521  14.822 -0.9212 -0.9873 -0.9862
  764MOL0     H  824   3.386   5.551  14.950  0.2812 -2.3046  2.0253
  764MOL0     H  825   3.227   5.486  15.017 -1.4292  3.4992  2.3088
  764MOL0     H  826   3.272   5.781  14.931 -0.5598  2.9759  3.2738
  764MOL0     H  827   3.131   5.721  15.007  0.5895  2.1616 -4.3503
  764MOL0     H  828   3.240   5.805  15.170  0.2327  0.4555 -2.0174
  764MOL0     H  829   3.397   5.718  15.129 -0.0819  0.9148 -0.2569
  764MOL0     H  830   2.942   5.351  14.216  0.3880 -0.4061  0.5953
  764MOL0     H  831   2.909   5.290  13.974 -0.5359  0.9749 -1.0505
  764MOL0     H  832   2.865   5.349  13.550 -1.3249 -2.5426 -2.4258
  764MOL0     H  833   2.839   5.365  13.319  0.2175 -2.6197 -2.2824
  764MOL0     H  834   2.522   5.363  11.310  2.1973 -1.2057  1.9432
  764MOL0     H  835   2.381   5.208  11.176 -2.8043  1.6376 -0.5683
  764MOL0     H  836   2.268   4.822  10.927  1.8197 -1.2363  3.1067
  764MOL0     H  837   2.110   4.670  10.834  1.1117 -1.6907  1.3426
  764MOL0     H  838   1.683   4.607  10.977 -2.3967 -2.4604  1.4327
  764MOL0     H  839   1.792   4.560  11.099  4.7079  1.4359 -0.9404
  764MOL0     H  840   1.856   4.368  10.992 -1.5826 -0.3518  1.8166
  764MOL0     H  841   1.689   4.356  11.010 -0.5635 -0.9009 -2.1228
  764MOL0     H  842   1.834   4.421  10.746  1.2190 -1.7561  0.3583
  764MOL0     H  843   1.656   4.458  10.759 -0.8869 -2.1245 -0.4484
  764MOL0     H  844   1.603   4.233  10.748  0.8635 -1.6868 -1.0862
  764MOL0     H  845   1.734   4.261  10.642 -1.1577 -1.5448 -0.3751
  764MOL0     H  846   1.898   3.979  10.919  0.0400 -1.5171 -1.8987
  764MOL0     H  847   1.834   4.768  11.141  0.1116  0.2838 -0.6311
  764MOL0     H  848   1.997   4.915  11.253 -0.8624  1.4207 -1.7062
  765MOL0     O  849   6.992   7.008   7.296 -0.3396 -0.1744  0.1016
  765MOL0     C  850   6.869   7.005   7.317 -0.0956  0.0152  0.8727
  765MOL0     O  851   6.794   7.104   7.357 -0.1893  0.1867 -0.4617
  765MOL0     C  852   6.829   7.238   7.335  0.4998 -0.2076  0.1565
  765MOL0     C  853   6.766   7.337   7.411  0.2473 -0.0990  0.7249
  765MOL0     C  854   6.801   7.476   7.394  0.8612 -0.1300  0.2793
  765MOL0     C  855   6.913   7.516   7.324  0.0648 -0.8084 -0.2313
  765MOL0     O  856   6.949   7.649   7.288  0.0259  0.6473 -0.0855
  765MOL0     C  857   6.865   7.746   7.348  0.1593 -0.5747 -0.9223
  765MOL0     C  858   6.879   7.761   7.497  0.7830  0.0437  0.0614
  765MOL0     C  859   6.752   7.839   7.551 -0.3431 -0.7434  0.5764
  765MOL0     C  860   6.777   7.851   7.696  0.4143  0.1519 -0.3533
  765MOL0     C  861   6.665   7.932   7.767 -0.3021  1.0542 -0.1436
  765MOL0     C  862   6.692   8.084   7.782 -0.5563 -0.6078 -1.1438
  765MOL0     C  863   6.791   8.124   7.901  0.0598  0.3530 -0.0488
  765MOL0     C  864   6.750   8.269   7.943 -0.0233  0.6701 -1.2974
  765MOL0     N  865   6.624   8.266   8.026  0.2476 -0.1797 -0.8572
  765MOL0     C  866   6.525   8.361   8.006 -1.0034 -0.7203  0.8256
  765MOL0     C  867   6.438   8.340   8.102  0.4156  0.1488  0.1033
  765MOL0     C  868   6.312   8.423   8.113 -0.0858  0.2049  0.9243
  765MOL0     C  869   6.174   8.348   8.081 -0.1193  0.5243 -1.3174
  765MOL0     C  870   6.042   8.418   8.104  0.0961 -0.0564  0.4140
  765MOL0     C  871   5.979   8.403   8.240 -0.2114 -0.2892  1.4461
  765MOL0     O  872   5.953   8.261   8.248  0.3750 -0.3003 -0.2852
  765MOL0     C  873   5.829   8.213   8.229  0.6166  1.2147 -0.3243
  765MOL0     C  874   5.805   8.099   8.300 -0.5600  0.3500 -0.3407
  765MOL0     C  875   5.682   8.053   8.336 -0.0384  0.4991  0.6512
  765MOL0     C  876   5.568   8.118   8.275  0.2783 -0.5822 -0.3569
  765MOL0     C  877   5.427   8.087   8.299 -0.4793  0.0156  0.6644
  765MOL0     O  878   5.325   8.139   8.212 -0.3411 -0.9102 -0.0519
  765MOL0     C  879   5.200   8.095   8.238  0.3142  1.1246  0.4846
  765MOL0     C  880   5.118   8.184   8.305 -0.0160 -0.4754 -0.7785
  765MOL0     C  881   4.976   8.154   8.322  0.0332 -1.1139 -1.8924
  765MOL0     C  882   4.922   8.035   8.261  0.0293 -0.0064  0.6130
  765MOL0     O  883   4.791   8.012   8.258  0.2737 -0.6471  0.6803
  765MOL0     C  884   4.730   8.087   8.152 -0.2158  0.2914  0.3354
  765MOL0     C  885   4.758   8.020   8.022  0.7324 -0.4359  0.7475
  765MOL0     C  886   4.651   8.075   7.919  0.0527  1.3061 -0.0308
  765MOL0     C  887   4.683   7.992   7.789  0.4261  0.4952 -0.1529
  765MOL0     C  888   4.590   8.018   7.674  0.2712  0.2515 -0.0244
  765MOL0     C  889   4.600   8.162   7.634 -0.0854  0.3506  0.6144
  765MOL0     C  890   4.595   8.180   7.478  0.7528  0.5218  0.0365
  765MOL0     C  891   4.728   8.151   7.404  0.7788 -0.1118  0.8994
  765MOL0    Cl  892   4.884   8.206   7.469 -0.4334 -0.1150 -0.0809
  765MOL0     C  893   5.011   7.947   8.185  0.1711  0.2934 -0.5669
  765MOL0     C  894   5.143   7.979   8.174 -0.2199 -0.7057 -0.0296
  765MOL0     O  895   5.405   8.025   8.403 -0.1801 -0.1676 -0.2966
  765MOL0     C  896   5.596   8.235   8.197  0.6737  0.1484  0.3192
  765MOL0     C  897   5.719   8.284   8.178  0.4579  0.0464  0.4802
  765MOL0     N  898   6.483   8.244   8.193 -0.8365 -0.3382 -0.0181
  765MOL0     N  899   6.603   8.213   8.147  0.9464  0.0032 -0.6724
  765MOL0     C  900   6.991   7.412   7.264 -0.4530 -0.1495  0.3217
  765MOL0     C  901   6.946   7.282   7.267 -1.1922 -0.3284  0.4904
  765MOL0     C  902   6.803   6.870   7.311 -0.1677  0.2500 -0.1743
  765MOL0     C  903   6.877   6.760   7.261 -0.0841  0.4023  1.0706
  765MOL0     C  904   6.818   6.634   7.262 -0.3850 -0.3411 -0.0658
  765MOL0     C  905   6.693   6.617   7.321 -0.2152  0.8384 -0.2230
  765MOL0     O  906   6.657   6.489   7.317  0.0983  0.1830 -0.1174
  765MOL0     C  907   6.543   6.458   7.402 -0.1290 -0.4768 -0.4601
  765MOL0     C  908   6.512   6.310   7.431  0.1212 -0.8933 -0.0661
  765MOL0     C  909   6.482   6.223   7.303  0.5596  0.3327 -0.9127
  765MOL0     C  910   6.448   6.078   7.339  0.4073 -0.7363  0.1108
  765MOL0     C  911   6.412   5.985   7.236  0.6799  0.5217  0.6638
  765MOL0     C  912   6.391   5.907   7.142 -0.3589  0.5188 -0.7893
  765MOL0     C  913   6.615   6.725   7.351 -0.1588 -0.2684 -0.6121
  765MOL0     C  914   6.669   6.848   7.346  0.2264 -0.2550 -0.8451
  765MOL0     H  915   6.684   7.316   7.478  0.0672  0.3254  0.6454
  765MOL0     H  916   6.744   7.551   7.448 -0.7857 -2.0980  1.4219
  765MOL0     H  917   6.762   7.739   7.313 -1.1960 -1.4311  2.8600
  765MOL0     H  918   6.911   7.836   7.307  1.4886 -0.7594  0.0851
  765MOL0     H  919   6.966   7.824   7.516 -0.2445  1.7581 -0.7567
  765MOL0     H  920   6.894   7.664   7.545  0.5987  0.1630  0.3627
  765MOL0     H  921   6.665   7.780   7.523 -1.1663 -0.1134  1.7649
  765MOL0     H  922   6.744   7.939   7.507 -3.4701 -2.0213 -2.1815
  765MOL0     H  923   6.771   7.748   7.731  1.3108 -0.1299 -0.9976
  765MOL0     H  924   6.878   7.879   7.726  1.5105 -3.6737 -0.0493
  765MOL0     H  925   6.662   7.897   7.870  0.5776  2.8077  0.5232
  765MOL0     H  926   6.577   7.923   7.703  2.8698  0.7190 -5.0456
  765MOL0     H  927   6.591   8.117   7.807  0.6741  2.4998  0.2809
  765MOL0     H  928   6.728   8.131   7.690  4.7656  1.4456  1.5766
  765MOL0     H  929   6.775   8.051   7.981 -0.4182  0.5801  0.0672
  765MOL0     H  930   6.891   8.125   7.858 -0.7182  1.2866 -1.9620
  765MOL0     H  931   6.736   8.335   7.857 -0.2953  0.2831 -1.5530
  765MOL0     H  932   6.829   8.305   8.010 -0.5658 -1.4349  0.5933
  765MOL0     H  933   6.519   8.433   7.925  0.2794 -0.1386  1.2372
  765MOL0     H  934   6.325   8.507   8.043  3.3691  0.7278  2.0223
  765MOL0     H  935   6.310   8.469   8.212  0.6412 -2.4414  2.2386
  765MOL0     H  936   6.187   8.263   8.149 -1.1254  1.1918 -0.2332
  765MOL0     H  937   6.170   8.322   7.975 -2.7167 -1.0115 -0.9398
  765MOL0     H  938   6.059   8.522   8.076  1.0789 -0.2471  0.2895
  765MOL0     H  939   5.977   8.385   8.022 -2.9464  5.6138  0.0269
  765MOL0     H  940   5.892   8.464   8.266  1.1205  0.9099  3.3502
  765MOL0     H  941   6.058   8.433   8.310  1.1031 -1.5740  0.5755
  765MOL0     H  942   5.888   8.059   8.357 -1.0768  1.2095  1.0785
  765MOL0     H  943   5.672   7.964   8.397  1.1270  1.0410  1.6945
  765MOL0     H  944   5.146   8.277   8.353 -0.9473 -0.1836 -0.7770
  765MOL0     H  945   4.913   8.228   8.369  3.1865 -0.5501  1.8788
  765MOL0     H  946   4.774   8.187   8.155  2.3313 -0.5994 -2.3009
  765MOL0     H  947   4.625   8.112   8.165 -0.0907  0.2031  1.5929
  765MOL0     H  948   4.738   7.913   8.034 -0.7132 -0.5244 -1.7767
  765MOL0     H  949   4.860   8.019   7.984  0.1474  0.7585 -0.9903
  765MOL0     H  950   4.673   8.182   7.904 -1.0575  1.5169 -0.2135
  765MOL0     H  951   4.546   8.057   7.943  0.7129 -0.8810  1.6021
  765MOL0     H  952   4.788   8.013   7.768  0.5838  0.0751  0.2100
  765MOL0     H  953   4.687   7.883   7.800 -3.0121  0.3246  0.7874
  765MOL0     H  954   4.489   7.994   7.711  0.7136 -1.0437  0.3881
  765MOL0     H  955   4.601   7.955   7.586  0.3299  2.1996 -1.4594
  765MOL0     H  956   4.695   8.204   7.668  1.3059 -0.4546 -2.0138
  765MOL0     H  957   4.517   8.213   7.685 -1.2740 -1.0819  0.1757
  765MOL0     H  958   4.511   8.120   7.440 -0.4664  0.6402  2.3535
  765MOL0     H  959   4.560   8.284   7.467 -2.8816 -0.6404 -0.8775
  765MOL0     H  960   4.710   8.191   7.304 -0.3460  0.4826  1.3158
  765MOL0     H  961   4.735   8.042   7.411 -1.2991 -0.3269  0.3843
  765MOL0     H  962   4.981   7.852   8.140  0.0320  0.0749 -0.0272
  765MOL0     H  963   5.211   7.916   8.118  0.4739 -0.3522  0.4124
  765MOL0     H  964   5.509   8.287   8.157 -0.4577 -1.2021  0.9287
  765MOL0     H  965   5.729   8.360   8.102  2.6418 -0.7425 -0.1014
  765MOL0     H  966   7.072   7.437   7.197 -1.5409 -3.5465 -2.5563
  765MOL0     H  967   7.008   7.223   7.200  1.6573  4.0644 -1.1624
  765MOL0     H  968   6.976   6.776   7.220 -1.1639  2.8640 -0.8400
  765MOL0     H  969   6.879   6.555   7.219 -1.4494 -0.0067 -2.3255
  765MOL0     H  970   6.445   6.486   7.362  0.0580  3.0689  1.2091
  765MOL0     H  971   6.543   6.510   7.498 -3.2143 -0.2723 -0.4776
  765MOL0     H  972   6.592   6.262   7.487  1.7711  0.6532 -0.9956
  765MOL0     H  973   6.423   6.303   7.496  1.4677  1.4194  2.2046
  765MOL0     H  974   6.568   6.224   7.236  1.0955 -0.8397 -0.2759
  765MOL0     H  975   6.393   6.268   7.258 -0.1726  0.9998  1.0633
  765MOL0     H  976   6.532   6.031   7.389  0.8231  0.8143  0.9170
  765MOL0     H  977   6.355   6.083   7.396 -0.1893  3.8287 -0.8439
  765MOL0     H  978   6.367   5.827   7.075  2.6020 -1.9600  0.8662
  765MOL0     H  979   6.508   6.708   7.361 -0.6633  3.2756  2.3334
  765MOL0     H  980   6.604   6.930   7.375  1.8337  0.9462 -0.4978
  766MOL0     O  981   4.449   9.404   2.499 -0.7251 -0.3680 -0.7272
  766MOL0     C  982   4.479   9.520   2.547 -0.1182  0.7959 -0.3493
  766MOL0     O  983   4.439   9.634   2.502  0.4860 -0.1364 -0.5528
  766MOL0     C  984   4.338   9.639   2.415 -0.5065  0.8077  0.4193
  766MOL0     C  985   4.355   9.734   2.306  0.2536  0.6706  0.4991
  766MOL0     C  986   4.239   9.772   2.229 -0.8205  0.7944 -0.3288
  766MOL0     C  987   4.119   9.698   2.240  0.2702 -0.7181  0.4959
  766MOL0     O  988   4.009   9.711   2.155  0.0342 -0.3156  0.0077
  766MOL0     C  989   4.027   9.773   2.032 -0.0039 -0.1136 -0.1811
  766MOL0     C  990   3.926   9.716   1.930 -0.1650  0.0577 -0.1129
  766MOL0     C  991   3.896   9.823   1.825  0.5117  0.2201  0.7839
  766MOL0     C  992   4.000   9.807   1.711 -0.9449  0.0713  0.3280
  766MOL0     C  993   3.961   9.897   1.602 -0.2827  0.6345  0.1859
  766MOL0     C  994   4.062   9.873   1.489 -0.4603  0.0369  0.1793
  766MOL0     C  995   4.032   9.971   1.387  0.3764  0.1773 -0.3791
  766MOL0     C  996   3.916   9.936   1.296  0.1779  0.2714  0.8074
  766MOL0     N  997   3.898  10.039   1.196  0.4502  0.1876  0.5387
  766MOL0     C  998   3.963  10.058   1.075 -0.8197 -1.2733 -0.0372
  766MOL0     C  999   3.919  10.177   1.025 -0.4618  0.2171 -0.3332
  766MOL0     C 1000   3.959  10.236   0.893  0.7787 -0.0963 -0.9551
  766MOL0     C 1001   3.836  10.220   0.802 -0.7139 -0.5668 -0.2402
  766MOL0     C 1002   3.885  10.198   0.663 -0.1497  0.0011 -0.1498
  766MOL0     C 1003   3.913  10.321   0.588 -0.0236 -0.6100 -0.6325
  766MOL0     O 1004   3.793  10.397   0.578 -0.4579 -0.3755 -1.1561
  766MOL0     C 1005   3.817  10.514   0.523 -0.8916 -0.5383 -0.1793
  766MOL0     C 1006   3.944  10.558   0.463 -0.6544  0.7618 -0.4700
  766MOL0     C 1007   3.948  10.684   0.398  1.0378 -0.0545 -1.4358
  766MOL0     C 1008   3.837  10.768   0.414 -0.3437  0.2490  0.1993
  766MOL0     C 1009   3.838  10.904   0.337 -0.2266 -0.3570  0.0411
  766MOL0     O 1010   3.949  10.948   0.261  0.5966  0.6160 -0.7144
  766MOL0     C 1011   3.927  11.072   0.199  0.7790  0.0040 -0.6852
  766MOL0     C 1012   3.920  11.075   0.062 -0.2236  0.5865  0.1632
  766MOL0     C 1013   3.913  11.204  -0.007 -0.4745  0.4344  0.6368
  766MOL0     C 1014   3.914  11.317   0.059  0.5476 -0.0641  0.1481
  766MOL0     O 1015   3.902  11.437  -0.008  0.2790  1.2940  0.2381
  766MOL0     C 1016   4.025  11.519   0.013 -0.1841  0.4989 -0.4707
  766MOL0     C 1017   4.030  11.630  -0.093 -0.4451 -0.1231 -0.0470
  766MOL0     C 1018   4.020  11.582  -0.237 -0.1651 -0.5117  1.0460
  766MOL0     C 1019   4.024  11.691  -0.341  0.3115 -0.2094 -0.4369
  766MOL0     C 1020   3.909  11.792  -0.346  0.1890  1.0140 -0.8021
  766MOL0     C 1021   3.951  11.930  -0.383 -0.0402  0.0968 -0.2229
  766MOL0     C 1022   3.822  12.018  -0.387  0.2259 -0.4162  0.0798
  766MOL0     C 1023   3.847  12.163  -0.428  0.2860 -0.5113 -0.0199
  766MOL0    Cl 1024   3.967  12.246  -0.326  0.2499  0.1726 -0.0141
  766MOL0     C 1025   3.901  11.305   0.198 -0.3698 -0.0328 -0.3723
  766MOL0     C 1026   3.919  11.194   0.276  0.5632 -0.1908  0.6979
  766MOL0     O 1027   3.743  10.979   0.361  0.7693 -1.0416  0.5768
  766MOL0     C 1028   3.718  10.724   0.470 -0.0728  0.0039  0.3175
  766MOL0     C 1029   3.713  10.601   0.519  1.0964  0.7067  0.2439
  766MOL0     N 1030   3.819  10.220   1.106  0.7006 -0.4449 -0.7968
  766MOL0     N 1031   3.805  10.142   1.207  0.3651  0.2925 -0.3899
  766MOL0     C 1032   4.118   9.596   2.328 -0.7994 -1.4623  0.6203
  766MOL0     C 1033   4.221   9.569   2.417 -1.2779 -1.0497  0.4434
  766MOL0     C 1034   4.586   9.518   2.654  0.1770  0.7126  0.5470
  766MOL0     C 1035   4.649   9.397   2.692 -0.3614  0.2492  0.8648
  766MOL0     C 1036   4.737   9.397   2.792 -0.2601 -0.4592 -0.5828
  766MOL0     C 1037   4.772   9.512   2.867  0.5330 -0.1863  0.2991
  766MOL0     O 1038   4.863   9.497   2.970  0.4057 -0.3774 -0.4866
  766MOL0     C 1039   4.906   9.603   3.050 -0.3101  0.9197 -0.6026
  766MOL0     C 1040   5.029   9.564   3.132  0.3458 -0.2733 -0.3827
  766MOL0     C 1041   4.999   9.460   3.240  0.6108 -0.1304  0.0034
  766MOL0     C 1042   5.108   9.464   3.350  0.2328 -0.2055  1.2520
  766MOL0     C 1043   5.228   9.394   3.314  0.0214 -0.3087  0.5997
  766MOL0     C 1044   5.330   9.337   3.290  0.3643  0.3245  0.1587
  766MOL0     C 1045   4.729   9.634   2.803 -0.2782  0.5387 -0.2674
  766MOL0     C 1046   4.637   9.644   2.706  1.6634  0.6166  0.4496
  766MOL0     H 1047   4.442   9.798   2.292  2.1190 -2.0030 -1.1220
  766MOL0     H 1048   4.250   9.861   2.168  4.1871  0.3916 -0.4102
  766MOL0     H 1049   4.128   9.767   1.990  0.4239 -4.0707  0.9843
  766MOL0     H 1050   4.008   9.878   2.055  2.2375  0.3025 -0.0088
  766MOL0     H 1051   3.840   9.685   1.990  1.8578  0.9469  3.5550
  766MOL0     H 1052   3.955   9.618   1.891 -4.3045 -1.7860  0.8961
  766MOL0     H 1053   3.881   9.925   1.864  0.5820  0.6515 -0.2818
  766MOL0     H 1054   3.797   9.803   1.784  0.7129  0.5860  0.1053
  766MOL0     H 1055   4.099   9.839   1.742 -0.7897  1.7281 -1.6687
  766MOL0     H 1056   4.011   9.704   1.673  2.0422 -0.4682  2.3356
  766MOL0     H 1057   3.955  10.002   1.632  1.8894  1.0645 -0.6897
  766MOL0     H 1058   3.862   9.867   1.567  0.4885 -0.4013 -1.2274
  766MOL0     H 1059   4.069   9.775   1.441 -1.3920  0.8403 -1.7215
  766MOL0     H 1060   4.159   9.906   1.527 -1.7817  5.2395 -0.2070
  766MOL0     H 1061   4.016  10.071   1.428 -4.7447 -0.9469  1.0695
  766MOL0     H 1062   4.118   9.979   1.320 -0.0153 -1.5553 -1.1297
  766MOL0     H 1063   3.826   9.904   1.350  0.9163  0.7126  2.3593
  766MOL0     H 1064   3.929   9.841   1.243 -0.1488  2.2607 -3.1561
  766MOL0     H 1065   4.031   9.992   1.022 -0.3244 -0.6129 -0.2217
  766MOL0     H 1066   4.048  10.189   0.851  1.8606  1.4503 -0.5103
  766MOL0     H 1067   3.977  10.338   0.928  0.9017 -1.1304  2.3208
  766MOL0     H 1068   3.757  10.295   0.813  0.3195  0.5349 -0.1122
  766MOL0     H 1069   3.783  10.128   0.828 -4.2676  1.9394  2.3563
  766MOL0     H 1070   3.979  10.142   0.667  0.4831  1.0344  3.7989
  766MOL0     H 1071   3.814  10.134   0.610  0.2739 -0.4403 -0.1834
  766MOL0     H 1072   3.956  10.288   0.493  0.2246 -0.3708 -0.6039
  766MOL0     H 1073   3.989  10.381   0.638 -0.3410  0.0271 -0.9112
  766MOL0     H 1074   4.039  10.506   0.466 -1.5389 -0.8989  2.7445
  766MOL0     H 1075   4.043  10.706   0.349  3.9849 -7.2451 -0.2659
  766MOL0     H 1076   3.927  10.983   0.004  0.2286  0.1459  0.9009
  766MOL0     H 1077   3.891  11.223  -0.111  2.0132  2.7125  0.4056
  766MOL0     H 1078   4.111  11.456  -0.010  0.5166  1.3362 -0.1980
  766MOL0     H 1079   4.028  11.570   0.109 -2.4907  2.4137 -1.3038
  766MOL0     H 1080   4.131  11.674  -0.092  0.0612 -1.0192 -2.5754
  766MOL0     H 1081   3.947  11.698  -0.074 -2.0962 -1.6904 -1.3606
  766MOL0     H 1082   3.921  11.534  -0.244  0.3287 -1.3366 -1.0879
  766MOL0     H 1083   4.101  11.513  -0.260  0.7602  0.3895  1.5139
  766MOL0     H 1084   4.118  11.743  -0.319 -1.3462  1.8894  2.3512
  766MOL0     H 1085   4.037  11.651  -0.442  1.0325 -0.8948 -0.0817
  766MOL0     H 1086   3.882  11.795  -0.240  2.5155 -3.1524  0.1230
  766MOL0     H 1087   3.832  11.747  -0.409  1.7515 -1.4910 -1.0697
  766MOL0     H 1088   4.000  11.916  -0.479  0.5380  0.8585 -0.0448
  766MOL0     H 1089   4.014  11.965  -0.301 -0.0193  0.4464 -0.3842
  766MOL0     H 1090   3.757  11.972  -0.462  2.0802  0.4865 -2.2124
  766MOL0     H 1091   3.776  12.020  -0.288  2.8438  0.7939  1.3608
  766MOL0     H 1092   3.751  12.213  -0.438 -0.3664 -1.8524 -0.8634
  766MOL0     H 1093   3.891  12.172  -0.528  2.8124  0.7291  1.1012
  766MOL0     H 1094   3.882  11.392   0.261  0.6976  0.6184 -0.9200
  766MOL0     H 1095   3.942  11.208   0.381 -3.3142  2.8569  1.3825
  766MOL0     H 1096   3.638  10.797   0.474  0.8343  1.1263 -1.0447
  766MOL0     H 1097   3.618  10.567   0.558 -0.0298  3.8012  0.4485
  766MOL0     H 1098   4.031   9.534   2.348 -1.7900  0.3352  2.2448
  766MOL0     H 1099   4.209   9.499   2.499  0.1302 -0.7930  0.8930
  766MOL0     H 1100   4.624   9.308   2.635 -3.1914  2.5752 -1.8628
  766MOL0     H 1101   4.785   9.313   2.840 -1.1469  0.7289  2.6595
  766MOL0     H 1102   4.822   9.636   3.111  1.6178  2.3839  1.4362
  766MOL0     H 1103   4.931   9.688   2.986  2.5069  0.1210 -0.6991
  766MOL0     H 1104   5.103   9.518   3.066  0.6879 -0.6232  0.2276
  766MOL0     H 1105   5.074   9.652   3.178 -1.2376 -0.6199  1.9974
  766MOL0     H 1106   4.975   9.356   3.213  0.5793  0.3497 -2.0269
  766MOL0     H 1107   4.905   9.497   3.280 -1.8922 -3.8208 -1.8506
  766MOL0     H 1108   5.134   9.569   3.363 -1.5196  0.2445  1.4190
  766MOL0     H 1109   5.064   9.406   3.432 -0.8490 -1.1094  0.0784
  766MOL0     H 1110   5.427   9.293   3.274 -0.2565 -2.0170  2.1933
  766MOL0     H 1111   4.782   9.723   2.834  3.3016 -0.2747 -3.2174
  766MOL0     H 1112   4.608   9.743   2.673  2.3691  1.3647  1.9918
  767MOL0     O 1113   2.927   4.275   6.849 -0.4425  0.7056 -0.3040
  767MOL0     C 1114   2.857   4.326   6.760  0.5068 -0.8541  0.4323
  767MOL0     O 1115   2.735   4.282   6.713 -0.0486 -0.4792  0.2763
  767MOL0     C 1116   2.674   4.178   6.786  0.5009  0.1257  0.3563
  767MOL0     C 1117   2.695   4.041   6.749 -0.4847 -0.5908 -0.3275
  767MOL0     C 1118   2.626   3.942   6.815 -0.9958  0.6977  0.8983
  767MOL0     C 1119   2.543   3.959   6.929  0.0261 -0.4333 -0.3534
  767MOL0     O 1120   2.486   3.867   7.007  0.0425  0.0710  1.0396
  767MOL0     C 1121   2.515   3.724   6.978  0.1193  0.4506 -0.3487
  767MOL0     C 1122   2.411   3.662   6.877 -0.3921  0.9384  0.2786
  767MOL0     C 1123   2.437   3.515   6.824 -0.3342 -0.1525 -1.0261
  767MOL0     C 1124   2.427   3.415   6.948  0.4150  0.6545  0.7843
  767MOL0     C 1125   2.488   3.282   6.904  0.5619  0.8021 -0.0482
  767MOL0     C 1126   2.402   3.206   6.798  1.1404 -0.7364 -0.0334
  767MOL0     C 1127   2.456   3.074   6.740 -0.3378 -0.8358  0.1240
  767MOL0     C 1128   2.493   2.970   6.845 -0.3664  0.4796 -0.4294
  767MOL0     N 1129   2.547   2.846   6.786 -0.0996 -0.2048  0.4136
  767MOL0     C 1130   2.470   2.741   6.741 -0.6920 -0.4975  0.5582
  767MOL0     C 1131   2.556   2.669   6.666  0.5499  0.0646  0.2607
  767MOL0     C 1132   2.515   2.561   6.576  0.6147 -0.0574 -0.1698
  767MOL0     C 1133   2.543   2.589   6.428 -0.4895  0.6909  0.5549
  767MOL0     C 1134   2.458   2.698   6.363 -0.1848  0.2595 -0.9679
  767MOL0     C 1135   2.307   2.673   6.361 -0.3156 -0.5169  0.7635
  767MOL0     O 1136   2.238   2.678   6.489  1.4706 -0.0577  0.0678
  767MOL0     C 1137   2.143   2.780   6.508 -0.9444  0.5600  0.5552
  767MOL0     C 1138   2.177   2.915   6.490 -0.8747  0.5111 -0.5717
  767MOL0     C 1139   2.080   3.013   6.507  0.4352 -1.1069  0.6351
  767MOL0     C 1140   1.942   2.984   6.520 -0.0136  1.1053  0.8515
  767MOL0     C 1141   1.830   3.086   6.499 -0.0734  0.4619 -0.4362
  767MOL0     O 1142   1.700   3.040   6.526 -0.1921  0.4114  1.3122
  767MOL0     C 1143   1.589   3.123   6.504  0.5627  0.1949  0.4081
  767MOL0     C 1144   1.512   3.099   6.388  0.1847  0.3958 -0.6329
  767MOL0     C 1145   1.390   3.174   6.367 -0.3877  0.7420 -0.2849
  767MOL0     C 1146   1.356   3.275   6.458  0.4214  0.0171 -0.2102
  767MOL0     O 1147   1.241   3.350   6.441  0.9136  0.4849 -0.7824
  767MOL0     C 1148   1.180   3.332   6.317 -1.8077 -0.0235  0.1657
  767MOL0     C 1149   1.079   3.450   6.305  0.2536 -0.2289 -0.7356
  767MOL0     C 1150   0.954   3.433   6.407 -0.3978  0.8147  0.6157
  767MOL0     C 1151   0.890   3.567   6.413  0.1388  0.1575 -1.7608
  767MOL0     C 1152   0.736   3.561   6.425  0.3654 -0.0258 -0.7142
  767MOL0     C 1153   0.665   3.551   6.281 -0.0854 -0.7555  0.0265
  767MOL0     C 1154   0.517   3.587   6.284  0.4222  0.0508 -0.1751
  767MOL0     C 1155   0.479   3.735   6.328 -0.1600  0.1457  0.0947
  767MOL0    Cl 1156   0.308   3.760   6.269 -0.0808  0.4811 -0.2059
  767MOL0     C 1157   1.435   3.298   6.570  0.9039 -0.5135  0.7982
  767MOL0     C 1158   1.551   3.224   6.590 -0.6647  0.6893  0.1885
  767MOL0     O 1159   1.854   3.194   6.453  0.0769 -0.5308  0.1596
  767MOL0     C 1160   1.912   2.852   6.552 -0.7337 -0.1365  0.0464
  767MOL0     C 1161   2.014   2.754   6.560 -0.1995  0.5988  0.3263
  767MOL0     N 1162   2.682   2.724   6.668 -0.4134 -0.1339  0.0509
  767MOL0     N 1163   2.676   2.826   6.746  0.1870  0.6922 -0.7120
  767MOL0     C 1164   2.538   4.099   6.967  0.4693 -0.5912 -0.7612
  767MOL0     C 1165   2.603   4.206   6.900  0.0279  0.0274 -0.4095
  767MOL0     C 1166   2.908   4.457   6.725  1.4144  0.8205 -0.0596
  767MOL0     C 1167   3.020   4.463   6.644  0.0122 -0.0598  0.6594
  767MOL0     C 1168   3.053   4.587   6.593  0.9319  0.7684  0.8502
  767MOL0     C 1169   2.971   4.692   6.600 -0.4596 -0.2476 -0.1048
  767MOL0     O 1170   3.001   4.815   6.552 -0.4029  0.2767 -0.2041
  767MOL0     C 1171   3.104   4.836   6.455 -0.2704 -1.0006 -0.1911
  767MOL0     C 1172   3.028   4.860   6.325 -0.8782 -0.4588 -0.0802
  767MOL0     C 1173   2.941   4.985   6.332 -0.3882  0.5234  1.1336
  767MOL0     C 1174   3.017   5.103   6.403  0.9084 -0.1658  0.0017
  767MOL0     C 1175   2.940   5.232   6.384  0.6687  0.2541 -0.4728
  767MOL0     C 1176   2.857   5.320   6.363 -0.3030 -0.2665 -0.9762
  767MOL0     C 1177   2.866   4.688   6.686  0.2141 -0.0498  0.3877
  767MOL0     C 1178   2.830   4.565   6.743  1.0345  0.3417  0.3173
  767MOL0     H 1179   2.764   4.011   6.670  1.3363  1.8683  0.2002
  767MOL0     H 1180   2.646   3.843   6.776  1.0030  2.5087 -3.4044
  767MOL0     H 1181   2.502   3.662   7.067  1.5764  0.5053 -0.0836
  767MOL0     H 1182   2.616   3.698   6.948  0.1451 -0.1589  0.2452
  767MOL0     H 1183   2.402   3.721   6.785  0.4105 -0.7821 -0.9859
  767MOL0     H 1184   2.314   3.660   6.925 -0.1670  1.0656  0.7407
  767MOL0     H 1185   2.536   3.495   6.782 -0.2204  2.5509 -2.2882
  767MOL0     H 1186   2.378   3.490   6.735 -1.6208 -1.5872  0.1874
  767MOL0     H 1187   2.482   3.454   7.034 -2.0415 -0.0456  2.7664
  767MOL0     H 1188   2.324   3.393   6.977  1.1528 -0.4568  2.7123
  767MOL0     H 1189   2.494   3.224   6.997  0.6093  1.0999  0.1357
  767MOL0     H 1190   2.588   3.291   6.860 -0.2750 -3.5048 -3.6181
  767MOL0     H 1191   2.376   3.278   6.720  1.2818 -1.2942 -0.5973
  767MOL0     H 1192   2.315   3.192   6.864 -0.6394  2.1759 -1.5515
  767MOL0     H 1193   2.370   3.036   6.684 -2.6111 -0.0962  2.8780
  767MOL0     H 1194   2.548   3.084   6.682  1.9812  2.0880  3.8971
  767MOL0     H 1195   2.399   2.948   6.896 -1.3427  0.9630 -1.9447
  767MOL0     H 1196   2.559   3.012   6.921 -0.4362 -0.9471  0.4645
  767MOL0     H 1197   2.363   2.724   6.735 -1.1243  1.9562  0.5676
  767MOL0     H 1198   2.409   2.535   6.580 -0.8856  4.9102 -0.4736
  767MOL0     H 1199   2.566   2.472   6.614 -0.4894  0.1157  1.9050
  767MOL0     H 1200   2.526   2.502   6.364  3.6287  0.1928 -0.1208
  767MOL0     H 1201   2.647   2.617   6.410  0.0985 -0.8116  1.4620
  767MOL0     H 1202   2.482   2.799   6.399  1.0432  0.5115 -2.4361
  767MOL0     H 1203   2.494   2.703   6.260  1.6573  2.0764 -0.3096
  767MOL0     H 1204   2.298   2.574   6.314 -3.3008  0.4096 -0.8770
  767MOL0     H 1205   2.262   2.755   6.304  0.6642 -0.6704 -0.2612
  767MOL0     H 1206   2.270   2.948   6.444 -2.7457 -0.4915 -5.6830
  767MOL0     H 1207   2.100   3.120   6.502 -3.9698 -0.0861  0.2936
  767MOL0     H 1208   1.554   3.017   6.330 -3.1054 -1.7433 -0.2238
  767MOL0     H 1209   1.346   3.141   6.274  1.6415 -3.4330  0.0355
  767MOL0     H 1210   1.125   3.239   6.298 -1.9771  0.1293 -0.0900
  767MOL0     H 1211   1.256   3.346   6.240 -0.7834 -0.6561  1.0420
  767MOL0     H 1212   1.022   3.453   6.212  0.1146  3.7702 -0.6644
  767MOL0     H 1213   1.121   3.550   6.317 -3.5423  2.1664 -4.5018
  767MOL0     H 1214   0.988   3.393   6.503 -0.4389  1.0208  0.7176
  767MOL0     H 1215   0.892   3.358   6.358 -3.7617  4.3229 -1.0078
  767MOL0     H 1216   0.935   3.620   6.498  0.9369 -4.3925  1.0144
  767MOL0     H 1217   0.922   3.633   6.332  0.6995  0.5624 -1.2236
  767MOL0     H 1218   0.690   3.650   6.471  0.2799 -0.0719 -0.7106
  767MOL0     H 1219   0.702   3.476   6.486  3.5206  0.8396  2.6211
  767MOL0     H 1220   0.677   3.445   6.255  0.5847 -1.6178  3.3148
  767MOL0     H 1221   0.720   3.615   6.213 -0.1594 -0.5722  0.1385
  767MOL0     H 1222   0.472   3.573   6.185  3.3902  0.6234 -1.7059
  767MOL0     H 1223   0.463   3.509   6.340  1.8252 -0.4134  0.5863
  767MOL0     H 1224   0.538   3.810   6.274 -1.4896  0.7513 -0.5668
  767MOL0     H 1225   0.496   3.746   6.435  2.3854 -2.1363  0.0460
  767MOL0     H 1226   1.405   3.372   6.643  0.3000 -1.1071  1.1569
  767MOL0     H 1227   1.612   3.252   6.675 -1.6843 -2.0314  1.9375
  767MOL0     H 1228   1.809   2.820   6.567 -0.3007 -2.2821 -1.0789
  767MOL0     H 1229   1.989   2.649   6.576 -2.5329  1.3697  2.5085
  767MOL0     H 1230   2.486   4.131   7.057  2.2046  1.0997 -0.2800
  767MOL0     H 1231   2.591   4.308   6.937 -2.7232  0.1324 -1.3705
  767MOL0     H 1232   3.071   4.371   6.616 -1.1208 -0.4845 -0.0922
  767MOL0     H 1233   3.144   4.579   6.535 -1.9631 -0.2451 -4.0863
  767MOL0     H 1234   3.173   4.751   6.455  2.0287  0.7808 -0.6531
  767MOL0     H 1235   3.168   4.919   6.486 -1.8442 -0.7511  2.7404
  767MOL0     H 1236   3.095   4.859   6.239  1.4633 -1.5208  1.6410
  767MOL0     H 1237   2.957   4.778   6.309 -2.1328  0.4579  0.5813
  767MOL0     H 1238   2.841   4.967   6.373 -0.0943 -2.7398  0.6861
  767MOL0     H 1239   2.916   5.026   6.234 -0.3028  1.8019  1.6228
  767MOL0     H 1240   3.020   5.089   6.511 -1.3227  0.2582  0.1645
  767MOL0     H 1241   3.121   5.122   6.376  1.3680 -0.3281  1.5416
  767MOL0     H 1242   2.774   5.386   6.345 -1.8999 -0.9970  2.8291
  767MOL0     H 1243   2.803   4.776   6.698  0.1105  0.0459 -0.7830
  767MOL0     H 1244   2.753   4.569   6.820 -0.2763  1.2091 -0.9671
  768MOL0     O 1245   2.748   8.846  10.888  1.0547  0.3716 -0.2493
  768MOL0     C 1246   2.674   8.873  10.980  0.4099 -0.1175 -0.0169
  768MOL0     O 1247   2.686   8.992  11.053 -0.6289  0.4066 -0.3828
  768MOL0     C 1248   2.780   9.088  11.023 -0.8568 -0.0526 -0.0771
  768MOL0     C 1249   2.850   9.144  11.124 -0.4032 -0.4302  0.6793
  768MOL0     C 1250   2.949   9.236  11.097 -0.2678 -0.3505 -0.2744
  768MOL0     C 1251   2.981   9.274  10.964  1.1777  0.6201 -0.4228
  768MOL0     O 1252   3.087   9.354  10.926  0.8650  0.2613  0.0524
  768MOL0     C 1253   3.205   9.296  10.870  0.0154 -0.5112 -0.4606
  768MOL0     C 1254   3.291   9.410  10.821 -0.2757 -0.1969 -1.0275
  768MOL0     C 1255   3.262   9.450  10.671 -0.4009  0.7298  0.3509
  768MOL0     C 1256   3.313   9.340  10.576 -0.0095  0.7510 -0.2801
  768MOL0     C 1257   3.244   9.357  10.436 -0.1712  0.3545  0.0245
  768MOL0     C 1258   3.104   9.298  10.436  0.2280 -0.1693  0.4417
  768MOL0     C 1259   3.017   9.312  10.308 -0.2471 -0.4699  0.6523
  768MOL0     C 1260   3.086   9.262  10.182 -0.0089 -0.4624  0.4835
  768MOL0     N 1261   3.081   9.121  10.169  0.5337 -0.7808 -0.3629
  768MOL0     C 1262   2.975   9.047  10.123  0.6593 -0.3021  0.0054
  768MOL0     C 1263   3.009   8.919  10.125  0.9204  0.4870  0.3398
  768MOL0     C 1264   2.937   8.799  10.067  0.1704 -0.4893  0.1240
  768MOL0     C 1265   2.794   8.803  10.032  1.0254  0.3174 -0.3354
  768MOL0     C 1266   2.724   8.667  10.042 -0.7508 -0.3604  0.0682
  768MOL0     C 1267   2.571   8.667  10.020 -0.0065 -0.2570  0.4432
  768MOL0     O 1268   2.532   8.699   9.880 -0.1625  0.3991  0.4992
  768MOL0     C 1269   2.403   8.698   9.845  0.2529  0.5909 -0.7980
  768MOL0     C 1270   2.295   8.704   9.937  0.4679  1.2919 -0.6028
  768MOL0     C 1271   2.162   8.708   9.898 -0.5409 -0.6384  0.5332
  768MOL0     C 1272   2.130   8.720   9.755  0.7416  0.4159 -0.1413
  768MOL0     C 1273   1.986   8.725   9.715 -0.2050 -0.8845  0.1557
  768MOL0     O 1274   1.899   8.672   9.807  0.4297  0.6750  0.1922
  768MOL0     C 1275   1.762   8.701   9.777  0.7472 -0.0863 -0.1127
  768MOL0     C 1276   1.684   8.627   9.698 -1.0221 -0.0980 -0.6620
  768MOL0     C 1277   1.560   8.679   9.662 -0.0895  0.2366  0.2559
  768MOL0     C 1278   1.500   8.791   9.717 -0.5473  0.6322 -1.5177
  768MOL0     O 1279   1.376   8.836   9.668  0.3063 -0.8416  0.1256
  768MOL0     C 1280   1.272   8.845   9.761 -0.3675 -0.0602  0.8518
  768MOL0     C 1281   1.207   8.704   9.784  0.3088 -0.6956 -0.6465
  768MOL0     C 1282   1.055   8.711   9.765  0.4843 -0.2425  0.5092
  768MOL0     C 1283   1.032   8.725   9.604 -0.1727 -0.1634  0.3664
  768MOL0     C 1284   0.884   8.784   9.579 -0.7775 -0.5903 -0.3392
  768MOL0     C 1285   0.840   8.759   9.437  0.0030 -0.3871  0.4847
  768MOL0     C 1286   0.749   8.869   9.391  0.8808 -0.5327 -0.0051
  768MOL0     C 1287   0.740   8.863   9.238 -0.3510 -0.1682 -1.1118
  768MOL0    Cl 1288   0.894   8.916   9.166  0.0065  0.2052 -0.2115
  768MOL0     C 1289   1.579   8.860   9.810  0.3943 -0.0516  0.2170
  768MOL0     C 1290   1.708   8.820   9.822 -0.3817  0.6144 -0.4394
  768MOL0     O 1291   1.956   8.785   9.614  0.4056 -0.1000  0.4553
  768MOL0     C 1292   2.232   8.703   9.664  0.1873 -0.0898  0.6284
  768MOL0     C 1293   2.372   8.693   9.705  0.1185 -0.1180  0.3476
  768MOL0     N 1294   3.145   8.904  10.153  0.5807 -0.1704  0.3138
  768MOL0     N 1295   3.180   9.031  10.186 -0.2979  0.4239  0.7465
  768MOL0     C 1296   2.911   9.220  10.864  0.0795  0.9021  0.4747
  768MOL0     C 1297   2.816   9.122  10.896 -0.0640 -1.0730  0.4638
  768MOL0     C 1298   2.576   8.782  11.043  0.0704 -0.4859  0.0695
  768MOL0     C 1299   2.523   8.668  10.970  0.5544 -0.5934 -0.5964
  768MOL0     C 1300   2.421   8.591  11.025  0.3247 -0.2783 -0.4662
  768MOL0     C 1301   2.394   8.593  11.162  0.6450  0.6010 -0.0605
  768MOL0     O 1302   2.301   8.503  11.215 -0.1998 -0.5643  0.7203
  768MOL0     C 1303   2.221   8.535  11.327  0.1700 -0.3724 -0.2772
  768MOL0     C 1304   2.295   8.491  11.460  1.2713 -0.0651  0.3279
  768MOL0     C 1305   2.200   8.492  11.579 -1.4834  0.1996 -0.2990
  768MOL0     C 1306   2.185   8.637  11.635  0.8870 -0.1049  0.1905
  768MOL0     C 1307   2.092   8.615  11.751  0.1798 -0.2199  0.8150
  768MOL0     C 1308   2.024   8.601  11.849 -0.4381  0.2425  0.3782
  768MOL0     C 1309   2.459   8.695  11.246 -0.1521  0.6089  0.4393
  768MOL0     C 1310   2.538   8.790  11.176  0.4777 -0.6379 -0.0131
  768MOL0     H 1311   2.832   9.095  11.219 -3.2584  2.2844  1.7099
  768MOL0     H 1312   3.005   9.265  11.185 -1.4430  1.6632 -0.1391
  768MOL0     H 1313   3.184   9.232  10.784 -3.3765  2.4259 -2.0983
  768MOL0     H 1314   3.250   9.240  10.952  0.6503  1.1731  0.3900
  768MOL0     H 1315   3.396   9.381  10.833  0.1909  2.2834  2.4444
  768MOL0     H 1316   3.270   9.496  10.885 -1.4269 -1.6621  0.6599
  768MOL0     H 1317   3.327   9.538  10.659  2.5709 -1.5845 -2.1025
  768MOL0     H 1318   3.157   9.480  10.667 -0.7450 -0.4232  0.5033
  768MOL0     H 1319   3.421   9.353  10.579  0.1889 -0.3510 -1.7028
  768MOL0     H 1320   3.305   9.235  10.607  0.9498  0.8502  0.3171
  768MOL0     H 1321   3.307   9.299  10.367 -1.7747 -3.0760  1.1887
  768MOL0     H 1322   3.221   9.458  10.401  0.7238 -0.8178 -4.6889
  768MOL0     H 1323   3.049   9.352  10.513  0.0201  2.1942 -1.2471
  768MOL0     H 1324   3.108   9.195  10.474  1.5202 -0.5143 -0.5450
  768MOL0     H 1325   2.932   9.244  10.320  2.0519 -3.9377 -1.0213
  768MOL0     H 1326   3.006   9.417  10.282  3.6365 -0.4089 -1.5284
  768MOL0     H 1327   3.192   9.289  10.181  0.4286 -2.0942 -1.1784
  768MOL0     H 1328   3.042   9.305  10.093  1.9059  1.3790  0.3360
  768MOL0     H 1329   2.888   9.101  10.087  0.8638  1.7044  2.2574
  768MOL0     H 1330   2.950   8.720  10.142  1.9295 -0.1062  0.2639
  768MOL0     H 1331   2.989   8.767   9.976 -1.6617  1.4534 -1.6989
  768MOL0     H 1332   2.778   8.830   9.927 -1.7443 -1.8826 -0.6001
  768MOL0     H 1333   2.749   8.883  10.092  2.4453 -0.2457  1.5890
  768MOL0     H 1334   2.758   8.595   9.966  2.5633 -0.2625  1.2944
  768MOL0     H 1335   2.754   8.615  10.133 -1.8320 -6.0553 -2.3781
  768MOL0     H 1336   2.526   8.737  10.091  2.5051 -1.7324  3.7139
  768MOL0     H 1337   2.526   8.571  10.044  0.1248 -0.4315  0.0025
  768MOL0     H 1338   2.307   8.709  10.045  1.3486 -0.4231 -0.5891
  768MOL0     H 1339   2.090   8.724   9.978 -0.4079 -3.1823  1.2659
  768MOL0     H 1340   1.732   8.540   9.655  1.1617 -0.1732  1.7282
  768MOL0     H 1341   1.502   8.629   9.585 -0.2914  1.4141 -0.3811
  768MOL0     H 1342   1.201   8.917   9.719  0.2519 -0.2712 -0.6148
  768MOL0     H 1343   1.312   8.889   9.853  2.7466 -3.8678  1.5834
  768MOL0     H 1344   1.227   8.677   9.888  2.4856 -2.1686 -1.3891
  768MOL0     H 1345   1.244   8.632   9.711 -0.0944 -2.7620  1.0798
  768MOL0     H 1346   1.015   8.798   9.817  0.0590 -1.7809  2.9076
  768MOL0     H 1347   1.012   8.618   9.804  0.5845 -0.4730  0.0786
  768MOL0     H 1348   1.094   8.801   9.555 -0.8845  0.5071  0.4745
  768MOL0     H 1349   1.055   8.628   9.559  0.9589  1.2435 -2.2899
  768MOL0     H 1350   0.897   8.892   9.593  1.2594 -1.2854  5.5767
  768MOL0     H 1351   0.802   8.742   9.638 -2.6280  0.1683 -2.2165
  768MOL0     H 1352   0.804   8.656   9.437  0.0250 -0.3946  0.4272
  768MOL0     H 1353   0.926   8.762   9.370  0.2342  1.6600  0.8090
  768MOL0     H 1354   0.649   8.848   9.432 -0.3012  1.6928 -1.5652
  768MOL0     H 1355   0.788   8.964   9.428  4.9380 -2.9540  2.7242
  768MOL0     H 1356   0.665   8.920   9.183 -3.0674 -2.7896 -0.4146
  768MOL0     H 1357   0.707   8.763   9.207  2.7482 -2.0572  1.1154
  768MOL0     H 1358   1.547   8.952   9.858  1.9301 -0.3351  1.8833
  768MOL0     H 1359   1.784   8.879   9.872 -0.2884 -1.0708  1.5064
  768MOL0     H 1360   2.220   8.697   9.556 -0.1271  1.7413  0.5388
  768MOL0     H 1361   2.455   8.688   9.636 -0.4892 -1.3828 -0.3222
  768MOL0     H 1362   2.923   9.260  10.764 -0.3145 -1.3080 -0.5005
  768MOL0     H 1363   2.762   9.077  10.813 -0.5800  1.3738 -0.6210
  768MOL0     H 1364   2.545   8.643  10.867 -1.4739 -0.7624 -1.0418
  768MOL0     H 1365   2.368   8.524  10.958 -0.8501  0.3239 -0.1797
  768MOL0     H 1366   2.122   8.492  11.310 -0.4861  0.5728  0.9906
  768MOL0     H 1367   2.184   8.638  11.323 -1.2787 -0.8271  0.6391
  768MOL0     H 1368   2.341   8.392  11.450 -0.8448 -1.4575  2.9582
  768MOL0     H 1369   2.387   8.547  11.479  2.1153 -1.5203  0.6950
  768MOL0     H 1370   2.247   8.434  11.659  1.8036  1.5161 -1.0943
  768MOL0     H 1371   2.102   8.452  11.550 -1.0455  0.1931 -1.8865
  768MOL0     H 1372   2.278   8.681  11.672  0.2258  0.9143  0.6901
  768MOL0     H 1373   2.133   8.700  11.563  0.2258  0.8045  1.4341
  768MOL0     H 1374   1.968   8.588  11.939 -0.8959  5.1274  1.0809
  768MOL0     H 1375   2.443   8.706  11.353  0.2878 -0.9891  0.6955
  768MOL0     H 1376   2.577   8.872  11.236 -3.0252  1.1531  0.0532
  769MOL0     O 1377   6.467   2.087   7.515  0.3870 -0.0985  0.3556
  769MOL0     C 1378   6.518   2.031   7.418 -0.1978  0.3683  0.0095
  769MOL0     O 1379   6.597   2.074   7.322  0.4039 -0.1636  0.2988
  769MOL0     C 1380   6.622   2.211   7.321  0.2538 -0.0635  0.4562
  769MOL0     C 1381   6.626   2.304   7.420 -0.2275 -0.1357  0.5571
  769MOL0     C 1382   6.659   2.438   7.395  0.6307  0.3212  0.1290
  769MOL0     C 1383   6.691   2.479   7.265 -0.4821 -0.0487  0.3100
  769MOL0     O 1384   6.702   2.603   7.219  0.6825 -1.2408  0.4032
  769MOL0     C 1385   6.738   2.700   7.321  0.0905  1.4360  0.3161
  769MOL0     C 1386   6.719   2.841   7.257  0.9540  0.0908  0.2528
  769MOL0     C 1387   6.841   2.896   7.175  0.9069  1.4474 -0.8888
  769MOL0     C 1388   6.793   3.018   7.104 -0.3242 -0.2589  0.5962
  769MOL0     C 1389   6.908   3.085   7.031 -0.4211 -0.1743 -1.2840
  769MOL0     C 1390   6.897   3.239   7.022 -0.0502  0.3568 -0.1342
  769MOL0     C 1391   7.016   3.304   6.971 -0.1001  0.7922  0.4200
  769MOL0     C 1392   7.059   3.292   6.827  0.3862  0.1980  0.5146
  769MOL0     N 1393   7.147   3.401   6.790  0.0243  0.0376  0.1127
  769MOL0     C 1394   7.281   3.410   6.825 -0.5848 -0.1835  1.2032
  769MOL0     C 1395   7.332   3.494   6.728  1.4477 -0.0079  1.0121
  769MOL0     C 1396   7.477   3.519   6.705  0.3303  0.8567  0.3303
  769MOL0     C 1397   7.501   3.579   6.569 -0.7823  0.4310  0.2404
  769MOL0     C 1398   7.553   3.478   6.462  0.7280  0.6926 -0.4701
  769MOL0     C 1399   7.577   3.538   6.319  1.1596  1.0177 -0.5123
  769MOL0     O 1400   7.639   3.444   6.232 -0.5211  0.0472  0.3057
  769MOL0     C 1401   7.662   3.486   6.098 -0.8371 -0.2587  0.0564
  769MOL0     C 1402   7.594   3.430   5.994  0.4105  0.2851  0.2120
  769MOL0     C 1403   7.605   3.464   5.858 -0.7627  0.1105 -0.5351
  769MOL0     C 1404   7.697   3.553   5.819  0.0587 -0.9805  0.9546
  769MOL0     C 1405   7.712   3.589   5.677  0.4430  0.3486  0.8695
  769MOL0     O 1406   7.639   3.521   5.584  0.2410 -0.7489 -0.0256
  769MOL0     C 1407   7.636   3.552   5.452 -0.0445 -0.3042  0.4553
  769MOL0     C 1408   7.748   3.543   5.366  0.8858  0.4602 -0.0465
  769MOL0     C 1409   7.727   3.578   5.227  0.2845  1.0011 -0.0763
  769MOL0     C 1410   7.600   3.598   5.171 -0.1728 -0.8173  0.1011
  769MOL0     O 1411   7.584   3.636   5.045 -0.6602  0.1745 -0.9413
  769MOL0     C 1412   7.457   3.661   4.990  0.8676 -0.5841  0.4846
  769MOL0     C 1413   7.477   3.706   4.848  0.9933 -0.3250  0.3113
  769MOL0     C 1414   7.552   3.828   4.825  0.3244 -0.4082 -0.5941
  769MOL0     C 1415   7.484   3.952   4.873  0.1630  0.9970  0.4832
  769MOL0     C 1416   7.461   4.051   4.759 -0.2511  0.9517  1.1158
  769MOL0     C 1417   7.593   4.123   4.725 -0.5782 -0.7913  0.1027
  769MOL0     C 1418   7.619   4.173   4.578  1.3586  0.0683 -0.4746
  769MOL0     C 1419   7.500   4.231   4.510  0.2251  0.0100  1.7439
  769MOL0    Cl 1420   7.539   4.319   4.350 -0.4454  0.1517 -0.1990
  769MOL0     C 1421   7.493   3.591   5.264 -0.0899 -0.0147 -0.0069
  769MOL0     C 1422   7.517   3.576   5.397  0.0909  0.4552 -0.2006
  769MOL0     O 1423   7.784   3.681   5.653 -0.2308 -0.3510 -0.2514
  769MOL0     C 1424   7.780   3.610   5.921 -0.2770  0.8434 -0.6435
  769MOL0     C 1425   7.761   3.579   6.056  0.4095  0.1438  1.0702
  769MOL0     N 1426   7.227   3.541   6.650  0.2308 -0.0039 -0.4644
  769MOL0     N 1427   7.118   3.477   6.677 -0.3558 -0.1079  0.0343
  769MOL0     C 1428   6.686   2.388   7.159 -0.1030  0.9587 -0.9820
  769MOL0     C 1429   6.654   2.254   7.192  0.1080 -0.5718  0.2396
  769MOL0     C 1430   6.509   1.888   7.421  0.0289 -0.7893 -0.9643
  769MOL0     C 1431   6.583   1.805   7.328 -0.3724  0.8975  0.3369
  769MOL0     C 1432   6.587   1.666   7.349  0.2622 -0.5089 -0.2971
  769MOL0     C 1433   6.510   1.614   7.452 -0.6016  0.7086  0.1052
  769MOL0     O 1434   6.502   1.480   7.471 -0.6483 -0.1084 -0.0706
  769MOL0     C 1435   6.556   1.430   7.601  0.5942 -1.1747 -0.0290
  769MOL0     C 1436   6.707   1.420   7.611 -0.1924 -0.4953  0.5994
  769MOL0     C 1437   6.760   1.327   7.496  0.4003  0.1772  0.2805
  769MOL0     C 1438   6.900   1.262   7.535  0.0735 -0.3019  0.4180
  769MOL0     C 1439   6.910   1.174   7.656 -0.0154  0.1455 -0.1223
  769MOL0     C 1440   6.948   1.098   7.743 -0.1156 -0.4520 -0.0179
  769MOL0     C 1441   6.423   1.692   7.529 -0.4061  0.1877  0.4471
  769MOL0     C 1442   6.422   1.833   7.510  0.5861  0.2374 -0.7691
  769MOL0     H 1443   6.605   2.288   7.525  0.5749  2.0450  1.1157
  769MOL0     H 1444   6.646   2.503   7.480 -4.4839  1.0703 -0.8873
  769MOL0     H 1445   6.844   2.694   7.346  0.3771  2.0609 -0.6719
  769MOL0     H 1446   6.679   2.709   7.413  0.1985  1.6665  0.3644
  769MOL0     H 1447   6.691   2.910   7.336 -2.2740 -0.2298 -0.4717
  769MOL0     H 1448   6.627   2.845   7.199  1.3399  2.3694 -0.3111
  769MOL0     H 1449   6.862   2.823   7.097  0.6913  0.9197 -0.4566
  769MOL0     H 1450   6.930   2.903   7.238  2.9007 -1.3471 -3.1354
  769MOL0     H 1451   6.721   2.988   7.028  0.5084 -2.8786  0.7346
  769MOL0     H 1452   6.733   3.097   7.149 -1.3238 -0.7402  0.1334
  769MOL0     H 1453   6.916   3.049   6.928  1.1887  2.1724 -2.0722
  769MOL0     H 1454   7.001   3.058   7.082  0.6720 -2.4123 -4.1652
  769MOL0     H 1455   6.878   3.276   7.123  0.3837  0.7610 -0.1971
  769MOL0     H 1456   6.810   3.255   6.959 -0.0897  1.2318  0.1261
  769MOL0     H 1457   6.999   3.410   6.989  2.0657  1.3022 -0.1976
  769MOL0     H 1458   7.101   3.270   7.032 -0.1828  0.3471  0.2919
  769MOL0     H 1459   6.963   3.305   6.775  0.6252 -1.7722 -0.5423
  769MOL0     H 1460   7.085   3.192   6.790 -1.7311 -0.2257  0.0301
  769MOL0     H 1461   7.339   3.359   6.900 -0.9760 -2.0778  0.2773
  769MOL0     H 1462   7.530   3.423   6.707 -0.7645  0.0807 -2.7127
  769MOL0     H 1463   7.527   3.588   6.774  1.1413  0.0244  0.6046
  769MOL0     H 1464   7.583   3.649   6.583  1.7650 -2.0404 -1.1475
  769MOL0     H 1465   7.411   3.629   6.533 -1.5112 -1.3194 -0.5208
  769MOL0     H 1466   7.645   3.428   6.493 -1.2626 -0.1545  5.1638
  769MOL0     H 1467   7.478   3.398   6.454 -1.9128  2.5464  2.8189
  769MOL0     H 1468   7.645   3.622   6.335 -0.2254  2.2403 -0.8604
  769MOL0     H 1469   7.480   3.573   6.285  1.2779  1.5092 -0.3501
  769MOL0     H 1470   7.512   3.368   6.028 -0.7232  0.5477 -1.8843
  769MOL0     H 1471   7.533   3.427   5.785 -0.9307 -0.3838 -0.1256
  769MOL0     H 1472   7.851   3.528   5.394  1.1353 -0.0629 -1.1861
  769MOL0     H 1473   7.815   3.581   5.164  0.6729 -0.9963  0.2873
  769MOL0     H 1474   7.401   3.740   5.041 -0.7084 -1.4877  0.1961
  769MOL0     H 1475   7.395   3.571   4.996  1.7809 -1.2707 -0.1203
  769MOL0     H 1476   7.376   3.715   4.807  0.8797 -0.0199  0.6571
  769MOL0     H 1477   7.520   3.627   4.786 -0.0037 -1.3377  0.8552
  769MOL0     H 1478   7.570   3.841   4.718 -2.3932 -0.3369 -1.1223
  769MOL0     H 1479   7.650   3.812   4.870 -0.0113  0.8233  0.6464
  769MOL0     H 1480   7.385   3.921   4.908  0.9720 -2.3541  0.1936
  769MOL0     H 1481   7.549   3.988   4.953  2.1698 -0.4789 -0.4080
  769MOL0     H 1482   7.381   4.118   4.791 -0.4732 -0.3080  3.4559
  769MOL0     H 1483   7.419   4.000   4.672 -0.6927  1.4100  1.0524
  769MOL0     H 1484   7.681   4.071   4.763  0.7282  2.3628  1.7982
  769MOL0     H 1485   7.598   4.216   4.783  2.1466  1.2139 -2.9304
  769MOL0     H 1486   7.699   4.248   4.575  0.2349  1.2919 -1.4886
  769MOL0     H 1487   7.664   4.091   4.521  3.9714  2.4362 -2.0877
  769MOL0     H 1488   7.446   4.301   4.575 -2.2271 -2.1515  2.2046
  769MOL0     H 1489   7.426   4.154   4.483 -0.3353  0.0585  3.0951
  769MOL0     H 1490   7.392   3.615   5.233 -0.3457 -1.6151 -0.5148
  769MOL0     H 1491   7.432   3.582   5.464  0.6616 -0.6289  0.6445
  769MOL0     H 1492   7.853   3.688   5.904 -0.5306  1.0389 -0.8438
  769MOL0     H 1493   7.822   3.636   6.125  0.7398  1.2556 -0.1088
  769MOL0     H 1494   6.702   2.414   7.055 -1.7847 -0.0947 -1.5578
  769MOL0     H 1495   6.656   2.175   7.118  2.5681  1.1836 -1.7256
  769MOL0     H 1496   6.662   1.840   7.262  2.2251  2.2708  3.7817
  769MOL0     H 1497   6.650   1.593   7.300  0.7977 -1.6840  2.0052
  769MOL0     H 1498   6.509   1.333   7.620  0.6579 -1.4583 -1.2496
  769MOL0     H 1499   6.516   1.489   7.684  0.4272 -1.3997  0.0542
  769MOL0     H 1500   6.761   1.515   7.603  0.6804 -1.0816 -0.9842
  769MOL0     H 1501   6.746   1.379   7.704  2.2084 -0.6770 -0.4158
  769MOL0     H 1502   6.777   1.384   7.404  0.2832 -0.5991 -0.2334
  769MOL0     H 1503   6.684   1.251   7.474 -1.8646  2.2783  0.4191
  769MOL0     H 1504   6.951   1.224   7.446  0.8317  0.6024  0.4600
  769MOL0     H 1505   6.964   1.342   7.572  2.1758 -0.3246 -2.7971
  769MOL0     H 1506   6.967   1.035   7.827 -3.8338 -0.2546  1.1193
  769MOL0     H 1507   6.367   1.646   7.609 -0.6973 -2.5384 -1.2035
  769MOL0     H 1508   6.357   1.899   7.566 -0.5293 -0.2215 -1.4871
  770MOL0     O 1509   5.370  11.313   5.801 -0.5004  0.3982 -0.4687
  770MOL0     C 1510   5.255  11.355   5.789  0.2233  0.8156  0.5552
  770MOL0     O 1511   5.150  11.335   5.866 -0.7491  0.8034 -0.4469
  770MOL0     C 1512   5.174  11.273   5.988 -0.5577  0.2488 -0.7086
  770MOL0     C 1513   5.057  11.207   6.047  0.7848  0.1162  1.1588
  770MOL0     C 1514   5.053  11.158   6.173 -0.2052 -0.0009 -0.1243
  770MOL0     C 1515   5.157  11.188   6.267  0.4679 -0.0844 -0.2139
  770MOL0     O 1516   5.143  11.185   6.403 -0.3779  0.4453 -0.1795
  770MOL0     C 1517   5.264  11.157   6.473  0.6742 -0.2236  0.8419
  770MOL0     C 1518   5.312  11.279   6.551 -0.4017 -0.5141 -0.1089
  770MOL0     C 1519   5.452  11.269   6.620 -0.2999  0.0770  0.8050
  770MOL0     C 1520   5.534  11.394   6.641  0.5181 -0.4355  0.5559
  770MOL0     C 1521   5.678  11.349   6.692 -0.4516 -0.3014  0.2414
  770MOL0     C 1522   5.764  11.468   6.705 -0.8005  0.5806  0.5522
  770MOL0     C 1523   5.755  11.554   6.834 -0.3663  0.3849  0.0715
  770MOL0     C 1524   5.837  11.676   6.811  0.5061 -0.5857  0.3912
  770MOL0     N 1525   5.979  11.634   6.792  0.5249  0.2906 -0.3710
  770MOL0     C 1526   6.056  11.588   6.892 -0.5184  0.1925 -0.0539
  770MOL0     C 1527   6.179  11.624   6.852  0.5694 -0.7292 -0.0241
  770MOL0     C 1528   6.295  11.599   6.946 -0.4451  0.4114  0.2429
  770MOL0     C 1529   6.391  11.467   6.921 -0.4142 -1.0613 -0.3881
  770MOL0     C 1530   6.327  11.335   6.979 -0.2698 -0.1365 -0.3453
  770MOL0     C 1531   6.406  11.217   6.913  1.0468 -0.1529  0.3358
  770MOL0     O 1532   6.541  11.212   6.972 -1.1311 -0.0992 -1.1412
  770MOL0     C 1533   6.614  11.097   6.966 -0.7368  0.4742  0.3068
  770MOL0     C 1534   6.757  11.113   6.992  0.4234  0.6483  0.8713
  770MOL0     C 1535   6.840  11.011   6.989 -0.5273  0.4769 -0.1690
  770MOL0     C 1536   6.797  10.882   6.954 -0.3048  0.4674  0.7602
  770MOL0     C 1537   6.897  10.771   6.936  0.2078  0.3303 -0.2226
  770MOL0     O 1538   7.025  10.804   6.960 -0.4825  0.4590  0.2355
  770MOL0     C 1539   7.124  10.715   6.990  0.8778  0.6957  1.3226
  770MOL0     C 1540   7.261  10.753   6.966  0.4017 -0.3758 -0.0015
  770MOL0     C 1541   7.361  10.654   6.976  1.2118 -0.1467  0.2157
  770MOL0     C 1542   7.333  10.527   7.032 -0.2740  0.3305 -0.4749
  770MOL0     O 1543   7.446  10.446   7.046  0.1785 -0.2809 -0.0145
  770MOL0     C 1544   7.452  10.342   7.147  0.5822 -0.8244 -0.4661
  770MOL0     C 1545   7.511  10.217   7.071 -0.3252 -0.1029  0.8258
  770MOL0     C 1546   7.442  10.152   6.951 -0.0149 -0.7371 -0.7265
  770MOL0     C 1547   7.307  10.081   6.994 -0.3801  0.2110  0.6988
  770MOL0     C 1548   7.219  10.035   6.870  0.9999 -1.4190 -0.3587
  770MOL0     C 1549   7.282   9.926   6.789 -0.4219 -0.2928  1.0395
  770MOL0     C 1550   7.179   9.879   6.678 -0.6758  0.0859  0.3206
  770MOL0     C 1551   7.140   9.981   6.580 -0.3539 -0.6232  1.0829
  770MOL0    Cl 1552   7.269  10.083   6.506 -0.3982 -0.0247  0.1985
  770MOL0     C 1553   7.200  10.498   7.070 -0.4275 -0.4663  0.0162
  770MOL0     C 1554   7.094  10.583   7.035  0.3193  0.5757 -0.5701
  770MOL0     O 1555   6.852  10.658   6.894 -0.0356 -0.1993 -0.0805
  770MOL0     C 1556   6.658  10.859   6.942  0.2764 -0.4356  0.4614
  770MOL0     C 1557   6.569  10.966   6.930 -0.7752 -0.0449 -0.9412
  770MOL0     N 1558   6.180  11.681   6.725  0.7471  0.0836  0.2694
  770MOL0     N 1559   6.058  11.686   6.692  0.3975  0.3268  0.4756
  770MOL0     C 1560   5.270  11.263   6.208 -0.9278  0.3635  0.4448
  770MOL0     C 1561   5.275  11.309   6.076  0.6737 -1.0891 -0.0880
  770MOL0     C 1562   5.228  11.443   5.676 -0.3131  0.0569  0.1719
  770MOL0     C 1563   5.330  11.450   5.575  0.7732  0.2626  0.4628
  770MOL0     C 1564   5.324  11.538   5.468  0.2760 -0.1727 -0.7152
  770MOL0     C 1565   5.220  11.622   5.452 -0.0970  1.0305 -0.3056
  770MOL0     O 1566   5.193  11.701   5.345 -0.7572  0.1166 -0.1962
  770MOL0     C 1567   5.283  11.689   5.233  1.3754 -1.5678  0.3512
  770MOL0     C 1568   5.245  11.799   5.141 -0.6230  0.0189 -0.3489
  770MOL0     C 1569   5.339  11.795   5.015 -0.1815  0.0374 -0.5432
  770MOL0     C 1570   5.355  11.932   4.944 -1.0081 -0.8553 -0.0611
  770MOL0     C 1571   5.407  12.031   5.041  0.2031 -0.0391  0.0431
  770MOL0     C 1572   5.451  12.104   5.121  0.5950  0.0780  0.1348
  770MOL0     C 1573   5.121  11.630   5.542 -0.1096 -1.0825 -0.9374
  770MOL0     C 1574   5.118  11.540   5.655 -0.2263  0.3278  0.5519
  770MOL0     H 1575   4.968  11.183   5.988  1.2810  0.5494  0.2062
  770MOL0     H 1576   4.959  11.118   6.210 -1.1250  0.5844 -1.6986
  770MOL0     H 1577   5.348  11.136   6.406 -0.4154  0.4537 -0.8160
  770MOL0     H 1578   5.255  11.074   6.542  2.3069 -0.5903  0.6653
  770MOL0     H 1579   5.240  11.309   6.628  0.1900 -0.3601  0.3928
  770MOL0     H 1580   5.315  11.361   6.478 -1.6962 -0.3948 -0.0537
  770MOL0     H 1581   5.514  11.201   6.560 -4.1285 -0.7058 -2.6487
  770MOL0     H 1582   5.448  11.214   6.715  1.4964 -0.0710  0.8463
  770MOL0     H 1583   5.546  11.468   6.562 -0.4951 -2.6107 -1.7807
  770MOL0     H 1584   5.496  11.447   6.728  1.7000 -2.8653  2.7005
  770MOL0     H 1585   5.730  11.293   6.614  0.3759  0.7230  0.0294
  770MOL0     H 1586   5.672  11.287   6.782 -1.3118  1.4158  1.4425
  770MOL0     H 1587   5.753  11.533   6.618 -1.9403 -1.3577 -0.8197
  770MOL0     H 1588   5.865  11.426   6.704 -1.2969 -0.6730  1.3166
  770MOL0     H 1589   5.653  11.592   6.848 -0.2911 -0.1742  2.5409
  770MOL0     H 1590   5.776  11.511   6.932  0.5767  0.0593 -0.2617
  770MOL0     H 1591   5.831  11.736   6.902  0.3964  0.0755 -0.0417
  770MOL0     H 1592   5.799  11.731   6.724 -0.1016 -0.4802  0.7144
  770MOL0     H 1593   6.037  11.550   6.991  0.0359  0.9616  0.3583
  770MOL0     H 1594   6.248  11.581   7.043 -0.9047 -5.5898 -0.7288
  770MOL0     H 1595   6.359  11.688   6.950 -1.8106  1.3811  1.2258
  770MOL0     H 1596   6.484  11.479   6.978 -1.2663  1.5063  0.5709
  770MOL0     H 1597   6.413  11.457   6.814  1.2320 -3.5645  0.0847
  770MOL0     H 1598   6.342  11.345   7.087 -3.4915  0.6009  0.1165
  770MOL0     H 1599   6.220  11.328   6.959 -0.1321  0.0546 -1.1970
  770MOL0     H 1600   6.412  11.241   6.807 -1.2010  1.0569  0.4184
  770MOL0     H 1601   6.350  11.124   6.922 -1.1324  1.1351  0.8111
  770MOL0     H 1602   6.798  11.213   7.009  1.2907  0.5818 -0.6280
  770MOL0     H 1603   6.948  11.015   6.995 -0.5374 -0.7445  3.0848
  770MOL0     H 1604   7.285  10.858   6.952  2.5117 -0.2510  3.2812
  770MOL0     H 1605   7.466  10.679   6.963  0.4399  3.0262 -0.8457
  770MOL0     H 1606   7.352  10.311   7.178  1.1929 -4.5010 -1.7595
  770MOL0     H 1607   7.497  10.372   7.243 -0.5224  2.3237 -0.8052
  770MOL0     H 1608   7.536  10.134   7.138  2.6490  1.8406  2.3254
  770MOL0     H 1609   7.613  10.250   7.049 -0.5545  0.2018  0.2055
  770MOL0     H 1610   7.504  10.065   6.926  2.8514 -0.2537  3.6530
  770MOL0     H 1611   7.432  10.225   6.870  0.7946 -1.4151 -1.4554
  770MOL0     H 1612   7.337   9.986   7.040  1.7963 -0.5472 -2.0114
  770MOL0     H 1613   7.258  10.149   7.063 -0.3665  0.3423  0.5784
  770MOL0     H 1614   7.202  10.121   6.805  1.6345  0.2467  1.5659
  770MOL0     H 1615   7.120  10.001   6.903  0.5385  0.8096  0.7260
  770MOL0     H 1616   7.299   9.840   6.853 -1.0117 -1.6081 -0.5099
  770MOL0     H 1617   7.372   9.970   6.746  0.4288 -1.1891  1.8638
  770MOL0     H 1618   7.205   9.784   6.630 -0.7028  0.9591 -1.5068
  770MOL0     H 1619   7.085   9.846   6.725 -2.2910  1.6187 -1.6807
  770MOL0     H 1620   7.074  10.050   6.633  0.6373  1.3318 -0.0858
  770MOL0     H 1621   7.072   9.940   6.504  0.3868  0.3291 -0.1370
  770MOL0     H 1622   7.168  10.399   7.102 -2.5383 -0.4076 -1.6668
  770MOL0     H 1623   6.995  10.543   7.054  1.2534 -2.2685 -1.2649
  770MOL0     H 1624   6.622  10.760   6.916 -5.6568  1.0260  1.7278
  770MOL0     H 1625   6.465  10.961   6.900 -1.3768  1.3789  0.7502
  770MOL0     H 1626   5.360  11.288   6.264  0.3443  1.8656 -2.0683
  770MOL0     H 1627   5.353  11.374   6.037 -2.1376  1.1349 -2.5204
  770MOL0     H 1628   5.415  11.384   5.592 -0.3833 -1.6119 -0.7058
  770MOL0     H 1629   5.400  11.519   5.393 -0.7684 -1.3617 -1.5306
  770MOL0     H 1630   5.291  11.593   5.181 -1.2623 -0.8355 -1.5910
  770MOL0     H 1631   5.383  11.703   5.277  0.5757 -3.6033  3.1428
  770MOL0     H 1632   5.141  11.784   5.111 -1.6200  2.7123  1.3754
  770MOL0     H 1633   5.255  11.897   5.189 -0.5072 -0.2653  0.2180
  770MOL0     H 1634   5.259  11.736   4.969 -3.9320  2.5607  2.1716
  770MOL0     H 1635   5.440  11.754   5.024  1.2923  3.2788 -0.7851
  770MOL0     H 1636   5.430  11.940   4.864 -2.0559  2.6440 -0.8457
  770MOL0     H 1637   5.262  11.971   4.902 -0.2264 -0.1747 -1.2168
  770MOL0     H 1638   5.499  12.168   5.192 -1.0844  2.6180 -0.8945
  770MOL0     H 1639   5.055  11.714   5.523  0.3719 -0.6825 -0.8529
  770MOL0     H 1640   5.042  11.540   5.732  0.4399 -2.5856  1.3256
  771MOL0     O 1641   7.760  10.232   8.523  0.4192  0.7287  0.3080
  771MOL0     C 1642   7.686  10.229   8.422  0.5540 -0.4452  0.3552
  771MOL0     O 1643   7.708  10.181   8.306 -0.6222  0.0007  0.6948
  771MOL0     C 1644   7.835  10.123   8.273 -0.0938 -0.2214 -0.7743
  771MOL0     C 1645   7.820  10.028   8.171 -0.7521 -0.1436  1.0047
  771MOL0     C 1646   7.934   9.961   8.128 -0.1971  0.4494  0.0900
  771MOL0     C 1647   8.062   9.973   8.198 -0.1332  0.0372  0.1471
  771MOL0     O 1648   8.161   9.899   8.140 -0.7193 -0.4181 -0.3089
  771MOL0     C 1649   8.254   9.977   8.067  0.6264 -0.5648 -0.5950
  771MOL0     C 1650   8.385   9.897   8.057  1.0575 -0.4920  0.2679
  771MOL0     C 1651   8.477   9.918   8.174 -0.5834 -0.4110  0.5482
  771MOL0     C 1652   8.620   9.850   8.131 -0.1164  0.2515 -0.8969
  771MOL0     C 1653   8.621   9.700   8.149  0.0012 -0.1374  0.8430
  771MOL0     C 1654   8.765   9.640   8.149 -0.8114  1.3731 -1.2337
  771MOL0     C 1655   8.767   9.485   8.186 -0.0652 -0.4904 -0.1845
  771MOL0     C 1656   8.780   9.456   8.341 -0.2425 -0.4885 -0.1857
  771MOL0     N 1657   8.900   9.498   8.416 -0.4802 -0.5045 -0.6938
  771MOL0     C 1658   8.899   9.606   8.501  0.9584  0.6592 -0.5719
  771MOL0     C 1659   9.024   9.614   8.542 -0.4320 -0.2308  0.2754
  771MOL0     C 1660   9.098   9.716   8.627 -0.0261  0.5400  0.0280
  771MOL0     C 1661   9.032   9.754   8.762  1.0446  0.1428 -0.2362
  771MOL0     C 1662   8.890   9.820   8.746 -0.7709 -0.0475 -0.1060
  771MOL0     C 1663   8.837   9.872   8.881 -0.5204 -0.4841 -0.5507
  771MOL0     O 1664   8.735   9.974   8.858  0.4073  0.4421  0.0088
  771MOL0     C 1665   8.631   9.985   8.948  1.7881  0.7913 -1.2071
  771MOL0     C 1666   8.529  10.082   8.926 -0.8448 -0.1281  0.5609
  771MOL0     C 1667   8.416  10.105   9.012 -0.0564  0.7807  0.0474
  771MOL0     C 1668   8.401  10.016   9.120 -0.2113  0.3213  0.6533
  771MOL0     C 1669   8.277  10.019   9.205 -0.5079 -0.3044 -0.5389
  771MOL0     O 1670   8.252   9.910   9.288  0.2261  0.3785 -0.3328
  771MOL0     C 1671   8.136   9.908   9.367  0.6257  0.3989 -0.0152
  771MOL0     C 1672   8.122   9.993   9.479  0.9126 -0.3360 -0.6011
  771MOL0     C 1673   7.990  10.008   9.530  0.0738  1.2450 -0.6738
  771MOL0     C 1674   7.887   9.925   9.485  0.2664  0.5898  0.7697
  771MOL0     O 1675   7.757   9.935   9.528  0.1867 -0.0564 -0.0204
  771MOL0     C 1676   7.729  10.019   9.644  1.0098 -0.7773 -0.2247
  771MOL0     C 1677   7.579  10.019   9.691  0.6051  0.0576 -0.0030
  771MOL0     C 1678   7.559  10.108   9.818 -0.5941 -0.3087 -0.5234
  771MOL0     C 1679   7.413  10.098   9.853 -0.7959 -0.4346  0.4276
  771MOL0     C 1680   7.342   9.954   9.859 -0.0526 -0.4776 -0.2013
  771MOL0     C 1681   7.198   9.973   9.915 -0.1023  0.3462  0.9406
  771MOL0     C 1682   7.188   9.985  10.058 -0.7903 -0.1541 -0.2471
  771MOL0     C 1683   7.075   9.894  10.105 -0.3845  0.5774 -0.8283
  771MOL0    Cl 1684   6.923   9.935  10.026 -0.2167  0.3374  0.6537
  771MOL0     C 1685   7.910   9.837   9.385  0.1468  0.2363  0.0482
  771MOL0     C 1686   8.032   9.835   9.317  0.8441  0.1220 -0.5740
  771MOL0     O 1687   8.203  10.115   9.199 -1.0057 -0.8037 -0.1911
  771MOL0     C 1688   8.500   9.921   9.142 -1.2961  0.4607  0.0996
  771MOL0     C 1689   8.612   9.910   9.066 -0.3161  0.6401 -0.0538
  771MOL0     N 1690   9.102   9.522   8.473 -0.2054  1.0211 -0.7105
  771MOL0     N 1691   9.025   9.441   8.405  0.0076 -0.6628  0.0192
  771MOL0     C 1692   8.069  10.063   8.301 -0.5280  0.7567  0.6372
  771MOL0     C 1693   7.954  10.139   8.337 -0.0576 -0.4710 -0.0920
  771MOL0     C 1694   7.552  10.291   8.446 -0.1273 -0.0121 -0.4443
  771MOL0     C 1695   7.504  10.308   8.579  0.3992  0.1867  0.2516
  771MOL0     C 1696   7.374  10.359   8.606 -1.5781  1.4071  0.2645
  771MOL0     C 1697   7.285  10.383   8.504 -1.1844  0.4151  0.2404
  771MOL0     O 1698   7.152  10.387   8.537  0.9330  0.0762  0.0440
  771MOL0     C 1699   7.084  10.264   8.540 -0.2747 -0.5247  0.0766
  771MOL0     C 1700   6.988  10.247   8.413 -0.6438  1.4536  1.1087
  771MOL0     C 1701   7.043  10.285   8.267  0.1064  0.5292  0.3063
  771MOL0     C 1702   6.923  10.261   8.168  0.3910  0.2314 -0.5877
  771MOL0     C 1703   6.962  10.251   8.029 -0.2293 -0.1265  0.0905
  771MOL0     C 1704   6.989  10.242   7.910 -0.0599  0.6163  0.6442
  771MOL0     C 1705   7.340  10.372   8.376 -0.0500 -0.4557  0.0757
  771MOL0     C 1706   7.465  10.334   8.344 -0.2641  0.1876 -0.4723
  771MOL0     H 1707   7.728  10.015   8.115  0.0267  1.7431 -0.8618
  771MOL0     H 1708   7.922   9.885   8.051  0.6740 -2.6677  2.7596
  771MOL0     H 1709   8.277  10.074   8.112 -0.9791 -0.1921 -0.5080
  771MOL0     H 1710   8.219  10.013   7.969 -2.3592  1.2269  0.9610
  771MOL0     H 1711   8.428   9.945   7.969  1.3942 -0.6172  0.3606
  771MOL0     H 1712   8.357   9.792   8.054  0.5989 -0.4033  1.1677
  771MOL0     H 1713   8.441   9.864   8.262 -0.1218  0.2991  1.1889
  771MOL0     H 1714   8.502  10.021   8.200 -1.0381 -0.4763  1.2422
  771MOL0     H 1715   8.663   9.871   8.033  0.5090 -0.3612 -0.7626
  771MOL0     H 1716   8.690   9.887   8.207  2.1594 -0.6991 -2.4020
  771MOL0     H 1717   8.567   9.647   8.070 -0.1093 -3.2461  2.8153
  771MOL0     H 1718   8.557   9.666   8.231 -1.7132 -3.5353 -1.6162
  771MOL0     H 1719   8.829   9.685   8.225 -0.0929  0.0806 -1.0470
  771MOL0     H 1720   8.811   9.660   8.051  1.4421  0.5115 -0.4099
  771MOL0     H 1721   8.673   9.440   8.152 -1.0322  0.5945  0.9587
  771MOL0     H 1722   8.845   9.428   8.134  1.4127  1.3312 -0.0605
  771MOL0     H 1723   8.759   9.349   8.351 -1.7501 -0.3902 -1.8126
  771MOL0     H 1724   8.697   9.502   8.394  2.0590  3.5537  0.3633
  771MOL0     H 1725   8.816   9.669   8.532 -0.0218 -0.4640 -0.8566
  771MOL0     H 1726   9.111   9.806   8.566 -1.6903 -0.8004 -2.4996
  771MOL0     H 1727   9.194   9.671   8.653  0.0118  0.6772  0.1204
  771MOL0     H 1728   9.096   9.819   8.820  0.3816 -0.3082  1.0352
  771MOL0     H 1729   9.038   9.661   8.819  0.8441  1.4742  2.0719
  771MOL0     H 1730   8.906   9.908   8.684  3.2427  0.7987  1.7371
  771MOL0     H 1731   8.815   9.752   8.706 -0.2088 -0.0228 -1.2304
  771MOL0     H 1732   8.923   9.911   8.936  0.7626 -2.1162 -1.3320
  771MOL0     H 1733   8.802   9.794   8.949  0.9181  1.3406  2.4874
  771MOL0     H 1734   8.538  10.133   8.831 -1.8291 -0.8976  0.0378
  771MOL0     H 1735   8.341  10.178   8.986 -1.1102  0.5053  2.0783
  771MOL0     H 1736   8.190  10.064   9.524 -1.9031  1.4130  1.2444
  771MOL0     H 1737   7.981  10.074   9.615 -1.0469  1.8654 -1.2491
  771MOL0     H 1738   7.765  10.121   9.625 -1.0065  0.0070 -0.0608
  771MOL0     H 1739   7.779   9.970   9.728 -0.2471 -1.0444  0.3792
  771MOL0     H 1740   7.556   9.913   9.698  0.1609  0.2140  1.1635
  771MOL0     H 1741   7.511  10.059   9.615 -1.6170 -0.6690  1.4914
  771MOL0     H 1742   7.605  10.207   9.808  3.5696 -1.3078  4.3396
  771MOL0     H 1743   7.617  10.058   9.897 -0.0940  2.3621  0.9111
  771MOL0     H 1744   7.395  10.129   9.956  0.4490 -1.4079  0.9663
  771MOL0     H 1745   7.355  10.163   9.787 -0.5734 -2.5256 -1.9756
  771MOL0     H 1746   7.406   9.887   9.915  0.7205  0.9725  0.7111
  771MOL0     H 1747   7.321   9.925   9.755 -2.8393  0.4198  0.0181
  771MOL0     H 1748   7.142   9.886   9.880 -1.2644  1.1666  0.7374
  771MOL0     H 1749   7.164  10.058   9.857  0.8469  0.5627  0.6751
  771MOL0     H 1750   7.276   9.950  10.112 -2.5959 -5.4249 -0.1453
  771MOL0     H 1751   7.171  10.085  10.099 -0.8685 -0.5253  0.6469
  771MOL0     H 1752   7.075   9.910  10.213  2.3892  1.6717 -0.9008
  771MOL0     H 1753   7.117   9.796  10.079 -0.2793  0.3579  0.1369
  771MOL0     H 1754   7.830   9.770   9.353 -0.6155  1.7322 -1.3069
  771MOL0     H 1755   8.047   9.778   9.225  1.2642 -0.7071 -0.0054
  771MOL0     H 1756   8.497   9.850   9.224 -1.6361  0.4482  0.0784
  771MOL0     H 1757   8.689   9.842   9.102  1.1922  1.8265 -0.9119
  771MOL0     H 1758   8.165  10.063   8.352  0.3727  0.0832 -1.0047
  771MOL0     H 1759   7.977  10.200   8.424  1.6888  0.7336 -1.3366
  771MOL0     H 1760   7.565  10.292   8.668  1.6557  4.0107  0.2721
  771MOL0     H 1761   7.335  10.356   8.707 -0.2335  2.2668  0.8300
  771MOL0     H 1762   7.032  10.240   8.633 -0.5749  0.6479  0.2300
  771MOL0     H 1763   7.155  10.181   8.535 -1.6703 -1.8349  0.9506
  771MOL0     H 1764   6.968  10.140   8.424  2.7821  0.8114  2.5633
  771MOL0     H 1765   6.906  10.316   8.433  0.6432  3.4054 -0.0320
  771MOL0     H 1766   7.134  10.231   8.239 -0.3667 -1.3475  2.1641
  771MOL0     H 1767   7.066  10.392   8.264  1.0999  0.3451 -3.2633
  771MOL0     H 1768   6.876  10.166   8.193 -0.5254  1.0462  0.9243
  771MOL0     H 1769   6.853  10.346   8.169 -2.1187 -1.7329 -0.2005
  771MOL0     H 1770   7.004  10.227   7.805 -0.9684  2.8147  0.1580
  771MOL0     H 1771   7.284  10.417   8.295 -1.6648 -0.8927  0.9239
  771MOL0     H 1772   7.500  10.320   8.242  0.1258  1.0548 -0.4659
  772MOL0     O 1773   0.384   1.367   4.504  0.7418 -0.3056  0.0534
  772MOL0     C 1774   0.371   1.463   4.577 -0.7292  0.5192  0.6184
  772MOL0     O 1775   0.440   1.574   4.568  0.4501  0.4362  0.4303
  772MOL0     C 1776   0.555   1.576   4.493 -0.1050  0.7575 -0.6016
  772MOL0     C 1777   0.550   1.571   4.352 -0.9055 -0.2090  0.5592
  772MOL0     C 1778   0.672   1.590   4.280  0.5041  0.5869 -0.0571
  772MOL0     C 1779   0.789   1.609   4.345 -0.6749 -0.0535 -0.3183
  772MOL0     O 1780   0.889   1.619   4.246  0.0422  0.7506  0.1180
  772MOL0     C 1781   1.014   1.680   4.286 -0.1002 -0.2872  0.8138
  772MOL0     C 1782   1.115   1.670   4.164 -0.5885  0.7894 -0.6861
  772MOL0     C 1783   1.251   1.731   4.201  0.2085  0.1265  0.7164
  772MOL0     C 1784   1.335   1.742   4.077 -0.8616 -0.1240  0.1740
  772MOL0     C 1785   1.465   1.824   4.099 -0.6149  0.5970  0.6041
  772MOL0     C 1786   1.449   1.980   4.093  0.5914 -1.5226  0.5484
  772MOL0     C 1787   1.567   2.052   4.168 -0.6387 -0.4374 -0.1805
  772MOL0     C 1788   1.695   2.040   4.078  0.0419 -0.3130  0.1271
  772MOL0     N 1789   1.803   2.115   4.152 -0.0441 -1.0424 -0.6518
  772MOL0     C 1790   1.854   2.089   4.276  0.9910 -0.5524 -0.4843
  772MOL0     C 1791   1.945   2.181   4.302  0.0760  0.1332  0.4955
  772MOL0     C 1792   2.020   2.194   4.434  0.2828  0.6316  0.0428
  772MOL0     C 1793   2.172   2.195   4.410  0.3623  0.2903  0.0437
  772MOL0     C 1794   2.238   2.168   4.546  0.7935 -1.5006  0.2552
  772MOL0     C 1795   2.388   2.134   4.524  1.3864 -0.5966 -0.3320
  772MOL0     O 1796   2.437   2.065   4.635 -0.7341 -0.1794 -0.4437
  772MOL0     C 1797   2.554   2.124   4.684  0.1319 -0.2623 -0.3930
  772MOL0     C 1798   2.547   2.234   4.775 -0.4917  0.7441 -0.0456
  772MOL0     C 1799   2.666   2.291   4.828  0.0420 -0.3880  0.2519
  772MOL0     C 1800   2.785   2.232   4.811  0.8628  0.4160 -0.7640
  772MOL0     C 1801   2.904   2.300   4.873  0.0862  0.0850  1.2105
  772MOL0     O 1802   2.887   2.400   4.960 -0.0595 -0.5546  0.5054
  772MOL0     C 1803   2.988   2.458   5.035  0.4963  0.6512  0.4133
  772MOL0     C 1804   3.123   2.466   4.996 -1.1411 -0.3599 -0.2579
  772MOL0     C 1805   3.208   2.564   5.060  0.4129 -0.3943 -0.1799
  772MOL0     C 1806   3.164   2.649   5.161 -1.0622  0.4025 -0.4619
  772MOL0     O 1807   3.268   2.727   5.222  0.0372 -0.0664  0.1162
  772MOL0     C 1808   3.233   2.803   5.340 -0.3855  0.6692 -0.0613
  772MOL0     C 1809   3.371   2.874   5.380  0.2594 -0.4127 -0.2312
  772MOL0     C 1810   3.484   2.788   5.439  0.3393 -0.6418  0.2238
  772MOL0     C 1811   3.597   2.867   5.504  0.8113  0.0080  0.3488
  772MOL0     C 1812   3.720   2.775   5.563  0.4379 -0.4612 -0.9102
  772MOL0     C 1813   3.815   2.868   5.627 -0.3107 -0.1011 -0.4634
  772MOL0     C 1814   3.903   2.801   5.733 -0.4888 -0.6586 -0.2665
  772MOL0     C 1815   3.983   2.901   5.817 -0.3043  0.0835  0.2236
  772MOL0    Cl 1816   4.094   2.810   5.932 -0.2215  0.2177 -0.2027
  772MOL0     C 1817   3.028   2.632   5.206 -0.8074  0.3918  0.5922
  772MOL0     C 1818   2.949   2.540   5.142  0.2282  0.1706  0.3545
  772MOL0     O 1819   3.018   2.255   4.835  0.1783 -0.1967  0.2976
  772MOL0     C 1820   2.797   2.135   4.704  0.0210 -0.8672  0.0524
  772MOL0     C 1821   2.682   2.083   4.638 -0.0968  0.3184  0.2173
  772MOL0     N 1822   1.950   2.259   4.190 -0.1022 -0.0015  0.9855
  772MOL0     N 1823   1.860   2.226   4.099 -0.3611 -0.8874  0.7055
  772MOL0     C 1824   0.796   1.633   4.480  0.7482 -0.2616  0.2428
  772MOL0     C 1825   0.678   1.614   4.551  0.3491 -0.4472 -0.6200
  772MOL0     C 1826   0.250   1.451   4.665  0.5151  0.1055 -0.0703
  772MOL0     C 1827   0.221   1.552   4.754 -0.7287 -0.3179 -0.3787
  772MOL0     C 1828   0.120   1.542   4.847  0.2723  0.3303 -0.1208
  772MOL0     C 1829   0.039   1.432   4.856 -0.0426  0.0556  0.1658
  772MOL0     O 1830  -0.062   1.428   4.942  1.1711 -0.0768 -1.0999
  772MOL0     C 1831  -0.188   1.352   4.921  0.0194  1.0283 -0.7635
  772MOL0     C 1832  -0.285   1.379   5.028  0.8621 -0.4443 -0.2187
  772MOL0     C 1833  -0.298   1.532   5.063 -0.4827  0.1804  0.1488
  772MOL0     C 1834  -0.397   1.565   5.176 -0.7750 -0.1076 -0.2853
  772MOL0     C 1835  -0.536   1.585   5.119 -0.4182  0.3634 -1.4851
  772MOL0     C 1836  -0.645   1.589   5.076  0.5769 -0.6304  0.0718
  772MOL0     C 1837   0.064   1.328   4.768 -0.6989  0.8773  0.4019
  772MOL0     C 1838   0.174   1.332   4.671  0.3693  0.1820  0.8506
  772MOL0     H 1839   0.456   1.572   4.297  0.8611  0.5541 -2.7413
  772MOL0     H 1840   0.677   1.565   4.175  1.8404 -1.0477  0.3524
  772MOL0     H 1841   1.058   1.629   4.372 -1.3932 -2.0697  0.4982
  772MOL0     H 1842   1.000   1.785   4.310  1.8617 -0.2506  2.0153
  772MOL0     H 1843   1.077   1.720   4.075  0.2803 -0.9510 -2.1036
  772MOL0     H 1844   1.127   1.562   4.151  1.6988  0.8236  0.6069
  772MOL0     H 1845   1.298   1.664   4.274 -1.4728  2.1014  3.8319
  772MOL0     H 1846   1.229   1.829   4.244 -1.6865 -0.5584  1.3996
  772MOL0     H 1847   1.374   1.642   4.061 -2.3628 -1.0387  1.7937
  772MOL0     H 1848   1.283   1.770   3.985 -1.2599  1.9380  0.9564
  772MOL0     H 1849   1.542   1.783   4.032 -0.9573  0.7151  0.1334
  772MOL0     H 1850   1.499   1.793   4.198  0.1502 -0.6116 -0.0151
  772MOL0     H 1851   1.352   1.998   4.140 -1.2510  0.4005 -3.4607
  772MOL0     H 1852   1.443   2.022   3.992  3.4656  0.0674  0.9264
  772MOL0     H 1853   1.536   2.155   4.187  5.1952  1.3246  1.8192
  772MOL0     H 1854   1.579   2.004   4.265 -2.4738 -0.0449  0.2740
  772MOL0     H 1855   1.684   2.073   3.974 -1.5883 -3.4444 -0.8261
  772MOL0     H 1856   1.724   1.934   4.077 -1.1108 -0.6570  0.9069
  772MOL0     H 1857   1.806   2.016   4.341 -0.9645  0.3376 -0.8422
  772MOL0     H 1858   1.982   2.113   4.497  1.7614  1.4023  2.0268
  772MOL0     H 1859   1.996   2.280   4.497 -0.9691  0.9467 -0.8287
  772MOL0     H 1860   2.194   2.293   4.368  1.5333  0.4831  1.0637
  772MOL0     H 1861   2.190   2.112   4.341 -0.7034 -0.5636  0.7542
  772MOL0     H 1862   2.220   2.240   4.626  1.9479 -1.3828  0.4266
  772MOL0     H 1863   2.198   2.071   4.578  1.0617 -1.7306 -0.0923
  772MOL0     H 1864   2.434   2.228   4.494  0.0133  0.4150  0.6165
  772MOL0     H 1865   2.398   2.054   4.450  1.3656 -2.8046  1.9063
  772MOL0     H 1866   2.448   2.264   4.809  0.0875 -1.9040  5.0979
  772MOL0     H 1867   2.670   2.382   4.888  1.7988 -1.4379  1.8309
  772MOL0     H 1868   3.163   2.404   4.916 -0.4113 -0.4096  0.1412
  772MOL0     H 1869   3.311   2.558   5.025  0.3513 -2.0741 -0.1672
  772MOL0     H 1870   3.204   2.736   5.421 -0.1886 -0.8826 -1.2380
  772MOL0     H 1871   3.155   2.878   5.325  0.0234  1.2752  0.7105
  772MOL0     H 1872   3.346   2.957   5.448  2.9218  0.8128 -0.6390
  772MOL0     H 1873   3.396   2.930   5.289 -1.3703 -0.3902 -0.6943
  772MOL0     H 1874   3.522   2.729   5.355 -0.6085  0.1873 -0.8283
  772MOL0     H 1875   3.448   2.713   5.510  0.4279 -2.1022 -1.2212
  772MOL0     H 1876   3.637   2.934   5.427  0.4513 -1.6761 -1.3756
  772MOL0     H 1877   3.552   2.930   5.582 -1.7213 -1.4139  0.1360
  772MOL0     H 1878   3.764   2.724   5.477 -1.6022  0.3289 -2.5284
  772MOL0     H 1879   3.677   2.704   5.634  0.5825 -2.2052 -2.4916
  772MOL0     H 1880   3.761   2.944   5.683  2.3195  2.1859 -0.8320
  772MOL0     H 1881   3.865   2.910   5.539 -2.0741 -1.3988 -2.1864
  772MOL0     H 1882   3.845   2.754   5.813 -2.3735  2.1922  0.1964
  772MOL0     H 1883   3.975   2.730   5.691  2.9612  1.0358  2.2094
  772MOL0     H 1884   3.919   2.957   5.886 -0.8349  0.4585 -0.5554
  772MOL0     H 1885   4.039   2.971   5.755 -1.1032 -1.0406 -1.8561
  772MOL0     H 1886   2.987   2.704   5.276 -2.7205  0.8878 -0.9585
  772MOL0     H 1887   2.841   2.540   5.157 -0.3675 -2.9784 -2.7377
  772MOL0     H 1888   2.896   2.098   4.682 -0.1931 -0.6969 -1.2729
  772MOL0     H 1889   2.693   2.007   4.561  2.3224  1.1961 -0.3948
  772MOL0     H 1890   0.880   1.665   4.541  2.0270 -0.2364 -1.4256
  772MOL0     H 1891   0.680   1.645   4.655 -1.5996  0.3253 -0.7507
  772MOL0     H 1892   0.283   1.640   4.763 -1.3614  0.1697 -0.6935
  772MOL0     H 1893   0.100   1.627   4.912  0.4042  1.6581 -1.7559
  772MOL0     H 1894  -0.175   1.243   4.925 -0.2509  1.0286  2.0269
  772MOL0     H 1895  -0.227   1.378   4.823  0.4139 -1.9712 -1.8095
  772MOL0     H 1896  -0.382   1.344   4.991  0.4551  0.8965 -0.4879
  772MOL0     H 1897  -0.247   1.327   5.116  1.9767 -2.9452 -2.0656
  772MOL0     H 1898  -0.294   1.606   4.983  0.4658  2.1717  1.9253
  772MOL0     H 1899  -0.208   1.552   5.121  1.1892 -0.8684 -1.9691
  772MOL0     H 1900  -0.401   1.493   5.258 -0.1407 -0.5516 -0.6308
  772MOL0     H 1901  -0.370   1.664   5.215  0.1965 -1.2325  2.1330
  772MOL0     H 1902  -0.748   1.580   5.048  0.1779 -3.5083  1.9662
  772MOL0     H 1903  -0.005   1.244   4.765 -0.8034  0.9820 -0.1650
  772MOL0     H 1904   0.164   1.251   4.599 -0.9643  0.1216  1.0808
  773MOL0     O 1905   8.045   9.215   2.623 -0.8404  0.1518 -0.1611
  773MOL0     C 1906   7.985   9.236   2.725 -0.2052 -0.0614 -0.1851
  773MOL0     O 1907   7.932   9.146   2.808  0.0750 -0.6646  0.0531
  773MOL0     C 1908   7.905   9.019   2.760 -0.1284  0.1692  0.5258
  773MOL0     C 1909   7.771   8.970   2.790  0.0226  0.2836  0.0036
  773MOL0     C 1910   7.734   8.837   2.744  0.2722  0.1190  0.7843
  773MOL0     C 1911   7.824   8.758   2.669 -0.6894  0.5006  0.1913
  773MOL0     O 1912   7.780   8.637   2.614  0.3220 -0.1726  0.0973
  773MOL0     C 1913   7.883   8.546   2.560  0.7040  0.2767 -0.3876
  773MOL0     C 1914   7.818   8.402   2.524 -0.3505 -0.3941 -1.2529
  773MOL0     C 1915   7.728   8.411   2.402  1.0091  0.5934 -0.0316
  773MOL0     C 1916   7.671   8.276   2.354 -0.0420 -0.0889  0.0127
  773MOL0     C 1917   7.573   8.221   2.452  0.8296  0.1860 -0.3361
  773MOL0     C 1918   7.478   8.123   2.382  0.1637  0.5309  0.1179
  773MOL0     C 1919   7.351   8.184   2.314  0.2398 -0.2154 -0.0229
  773MOL0     C 1920   7.366   8.189   2.161  0.0003 -0.0763  0.4317
  773MOL0     N 1921   7.394   8.057   2.101 -0.0111 -0.1112 -1.1701
  773MOL0     C 1922   7.323   7.941   2.125  0.0151 -0.1215  0.7832
  773MOL0     C 1923   7.390   7.843   2.049  0.5789  0.1060  0.5742
  773MOL0     C 1924   7.368   7.693   2.049 -0.1178  0.5916  0.4100
  773MOL0     C 1925   7.493   7.601   2.075 -0.6668 -0.7270 -0.0626
  773MOL0     C 1926   7.562   7.636   2.210  0.1519 -1.1153 -0.0955
  773MOL0     C 1927   7.664   7.529   2.263 -0.1770 -1.0065 -0.3732
  773MOL0     O 1928   7.605   7.402   2.253 -0.3101 -0.6265  0.3422
  773MOL0     C 1929   7.534   7.346   2.359  0.5258  0.2120  0.3930
  773MOL0     C 1930   7.507   7.206   2.347 -0.3829  0.0703 -1.2606
  773MOL0     C 1931   7.414   7.139   2.438  0.0374 -0.0437  0.0509
  773MOL0     C 1932   7.356   7.212   2.545  0.0227 -1.5327 -1.1837
  773MOL0     C 1933   7.247   7.145   2.625  0.2842 -0.4609  1.5680
  773MOL0     O 1934   7.221   7.014   2.601  0.8689  0.9214  0.7871
  773MOL0     C 1935   7.105   6.965   2.672 -0.8548  0.0344  0.3640
  773MOL0     C 1936   7.118   6.870   2.767 -0.1973  0.3260 -0.2673
  773MOL0     C 1937   7.006   6.807   2.833  0.4169  0.1959  0.0478
  773MOL0     C 1938   6.876   6.848   2.791  0.8010  0.3864  0.0410
  773MOL0     O 1939   6.765   6.789   2.843 -0.4155 -0.4574  0.0665
  773MOL0     C 1940   6.666   6.744   2.750  0.1863  0.3104  0.0239
  773MOL0     C 1941   6.559   6.655   2.807 -0.0485 -0.3486 -0.7502
  773MOL0     C 1942   6.442   6.615   2.715  0.2914 -0.1483  0.5277
  773MOL0     C 1943   6.363   6.492   2.767  0.7970  0.1788 -0.0394
  773MOL0     C 1944   6.275   6.529   2.875  0.4776 -1.1878 -0.0748
  773MOL0     C 1945   6.180   6.415   2.903  0.1279 -0.6586 -0.2255
  773MOL0     C 1946   6.121   6.448   3.029  0.3714 -0.8628 -0.2401
  773MOL0     C 1947   6.020   6.345   3.080  0.2845  0.3532 -0.6326
  773MOL0    Cl 1948   5.860   6.334   3.000 -0.5380  0.6878 -0.3348
  773MOL0     C 1949   6.863   6.955   2.688  0.4896 -0.1172 -0.7716
  773MOL0     C 1950   6.980   7.013   2.635  0.5780  0.3790 -0.4893
  773MOL0     O 1951   7.177   7.223   2.692 -0.6012  0.1268  1.0622
  773MOL0     C 1952   7.400   7.348   2.562  0.5435 -0.3522  1.1500
  773MOL0     C 1953   7.484   7.403   2.472 -0.0753 -0.7096 -0.4841
  773MOL0     N 1954   7.498   7.911   1.997 -0.7947  0.6319  0.1654
  773MOL0     N 1955   7.502   8.033   2.029  0.4953 -0.5135  0.5304
  773MOL0     C 1956   7.948   8.822   2.641  0.5450  0.6636  0.4768
  773MOL0     C 1957   7.995   8.945   2.682  0.8778 -0.7996 -0.8775
  773MOL0     C 1958   7.973   9.382   2.773 -0.3459 -0.3282  0.5887
  773MOL0     C 1959   8.064   9.481   2.732 -0.6197 -0.2367 -0.0408
  773MOL0     C 1960   8.037   9.618   2.757  0.1490  0.4190 -0.3682
  773MOL0     C 1961   7.924   9.656   2.837  0.2706  0.1619 -0.0911
  773MOL0     O 1962   7.883   9.785   2.878  0.0374 -0.1412  0.1377
  773MOL0     C 1963   7.905   9.892   2.787  0.1414  0.0846  0.0666
  773MOL0     C 1964   7.980  10.008   2.837  0.7598  0.5021 -1.5870
  773MOL0     C 1965   7.980  10.114   2.726 -0.3488 -0.2312  1.2168
  773MOL0     C 1966   7.967  10.260   2.773 -1.1327  0.2820  0.8357
  773MOL0     C 1967   7.828  10.272   2.812  1.3690  0.5443 -0.2307
  773MOL0     C 1968   7.710  10.287   2.853 -0.2955 -0.6826 -0.2479
  773MOL0     C 1969   7.831   9.556   2.866 -0.1943  0.1017  0.1864
  773MOL0     C 1970   7.858   9.417   2.831 -0.6755 -1.1701  0.1294
  773MOL0     H 1971   7.691   9.034   2.825 -3.2115 -3.2211 -0.3748
  773MOL0     H 1972   7.639   8.792   2.770  1.8955 -3.0882  1.6674
  773MOL0     H 1973   7.960   8.528   2.634  0.3016  0.0438 -0.0219
  773MOL0     H 1974   7.930   8.580   2.467 -0.9907  0.1612 -1.3275
  773MOL0     H 1975   7.758   8.363   2.606 -0.7439  1.3983 -0.6364
  773MOL0     H 1976   7.896   8.330   2.497 -1.2814 -2.0563  0.2594
  773MOL0     H 1977   7.788   8.451   2.320 -1.8487 -0.3810 -2.7821
  773MOL0     H 1978   7.652   8.484   2.431 -1.0027 -0.2146 -2.8977
  773MOL0     H 1979   7.624   8.284   2.256  1.6366 -1.1085 -0.9331
  773MOL0     H 1980   7.759   8.212   2.344  0.0466 -0.2030  1.3519
  773MOL0     H 1981   7.532   8.310   2.501  2.3429 -0.2833  1.9200
  773MOL0     H 1982   7.638   8.165   2.520 -0.6571 -2.6409 -1.0841
  773MOL0     H 1983   7.455   8.063   2.471 -1.0394  3.2211  1.7519
  773MOL0     H 1984   7.532   8.081   2.297 -4.7616  0.4923 -3.4421
  773MOL0     H 1985   7.263   8.122   2.333 -0.3409 -1.2172 -4.7506
  773MOL0     H 1986   7.335   8.286   2.350  0.4524 -0.7162  1.5740
  773MOL0     H 1987   7.444   8.260   2.132 -0.0319 -0.8333 -1.7263
  773MOL0     H 1988   7.268   8.213   2.119  0.0480 -2.6032 -1.3645
  773MOL0     H 1989   7.238   7.928   2.191  0.1807 -0.4381  0.9400
  773MOL0     H 1990   7.327   7.668   1.950  1.9903  0.8108 -0.5767
  773MOL0     H 1991   7.308   7.664   2.136  1.9651 -0.5331  1.5469
  773MOL0     H 1992   7.576   7.619   2.006 -1.0854  1.9142  0.0131
  773MOL0     H 1993   7.458   7.498   2.078  1.1834 -1.3566  0.9994
  773MOL0     H 1994   7.620   7.728   2.198  0.1085 -1.0871 -0.0914
  773MOL0     H 1995   7.484   7.642   2.287 -0.5745 -0.7102 -0.8360
  773MOL0     H 1996   7.682   7.564   2.365  0.5906  1.0345 -1.1419
  773MOL0     H 1997   7.762   7.542   2.215  0.2843 -0.1320  0.7674
  773MOL0     H 1998   7.554   7.150   2.267  0.9799 -3.6718  1.8578
  773MOL0     H 1999   7.379   7.039   2.415  0.1369 -0.5844  2.0409
  773MOL0     H 2000   7.214   6.845   2.811 -0.0997  0.7449 -0.2419
  773MOL0     H 2001   7.021   6.741   2.918  4.4421 -0.8216 -1.2105
  773MOL0     H 2002   6.721   6.684   2.677  0.4134  0.8210 -0.2328
  773MOL0     H 2003   6.631   6.835   2.700  3.5427  1.6261 -0.1886
  773MOL0     H 2004   6.536   6.701   2.903  0.2962 -0.9991 -0.3524
  773MOL0     H 2005   6.615   6.572   2.850 -1.1190 -0.3843  0.6067
  773MOL0     H 2006   6.484   6.593   2.616  0.4381 -0.2867  0.6218
  773MOL0     H 2007   6.360   6.686   2.698 -0.6120 -1.4613 -0.9292
  773MOL0     H 2008   6.298   6.456   2.686 -0.4191  2.0606  0.0318
  773MOL0     H 2009   6.431   6.410   2.791 -1.3938 -3.5709 -4.7852
  773MOL0     H 2010   6.209   6.613   2.850  0.8789 -0.9630 -0.3893
  773MOL0     H 2011   6.325   6.549   2.970 -2.0429 -1.0234  1.3197
  773MOL0     H 2012   6.243   6.326   2.914  1.2535 -0.0864 -1.6834
  773MOL0     H 2013   6.102   6.412   2.827 -1.0104  0.9687  0.8213
  773MOL0     H 2014   6.187   6.474   3.112 -0.9745  2.5780 -0.0678
  773MOL0     H 2015   6.071   6.544   3.016  2.5857  0.6055  1.3447
  773MOL0     H 2016   5.992   6.364   3.184  2.5873 -0.5153  0.2135
  773MOL0     H 2017   6.055   6.242   3.074 -0.4878  0.1134 -1.2267
  773MOL0     H 2018   6.761   6.985   2.668 -0.0075 -1.9104 -1.1126
  773MOL0     H 2019   6.981   7.092   2.561 -0.0653  0.9906  0.1427
  773MOL0     H 2020   7.371   7.423   2.635  0.9887 -0.5067  1.4932
  773MOL0     H 2021   7.511   7.508   2.484 -0.3025 -0.4870 -1.7347
  773MOL0     H 2022   8.027   8.777   2.581  0.2611  1.3324 -0.4191
  773MOL0     H 2023   8.090   8.996   2.669  1.5220 -1.8036 -0.2248
  773MOL0     H 2024   8.151   9.452   2.674 -0.8691  1.2923 -1.2415
  773MOL0     H 2025   8.111   9.687   2.716  2.2045 -2.1966 -1.3863
  773MOL0     H 2026   7.804   9.925   2.762 -0.6108 -1.5927  0.7654
  773MOL0     H 2027   7.957   9.856   2.697  1.2937  0.7043  0.4552
  773MOL0     H 2028   7.927  10.051   2.922  2.9429 -1.1258  0.7743
  773MOL0     H 2029   8.080   9.987   2.878 -1.6001 -1.7441  4.1702
  773MOL0     H 2030   7.898  10.092   2.656  1.0079 -1.1125 -0.1511
  773MOL0     H 2031   8.073  10.107   2.669 -0.5270 -0.2959  0.9346
  773MOL0     H 2032   8.036  10.285   2.854 -0.6274 -0.5415  0.6715
  773MOL0     H 2033   7.990  10.321   2.685 -0.3762 -0.3704  0.5689
  773MOL0     H 2034   7.608  10.315   2.865 -0.6398  0.7523 -4.6455
  773MOL0     H 2035   7.738   9.593   2.909 -0.5823  1.0813 -1.3863
  773MOL0     H 2036   7.795   9.331   2.852 -2.4255 -0.0081 -0.0687
  774MOL0     O 2037   8.776   2.766   5.206  0.4669 -0.1774  0.5470
  774MOL0     C 2038   8.772   2.820   5.314  0.0224 -0.4214 -0.2359
  774MOL0     O 2039   8.694   2.784   5.423 -0.0042  0.1191 -0.4676
  774MOL0     C 2040   8.613   2.676   5.412 -1.2449 -0.2009  1.0442
  774MOL0     C 2041   8.528   2.653   5.303 -0.6141 -0.2935  0.8291
  774MOL0     C 2042   8.461   2.531   5.275 -0.3652 -0.5367 -0.1036
  774MOL0     C 2043   8.468   2.429   5.369 -0.9471  1.4547 -0.1794
  774MOL0     O 2044   8.411   2.306   5.363 -0.1540  0.7014 -0.1950
  774MOL0     C 2045   8.326   2.276   5.255 -0.1059  0.1578  0.9629
  774MOL0     C 2046   8.285   2.121   5.252  1.0231 -0.4468  0.3831
  774MOL0     C 2047   8.414   2.039   5.257  0.0898 -1.0515 -0.5966
  774MOL0     C 2048   8.382   1.899   5.231 -0.3897 -0.3320 -0.0905
  774MOL0     C 2049   8.504   1.805   5.244 -0.5480  0.0002  0.0532
  774MOL0     C 2050   8.621   1.838   5.145  0.1380 -0.1002 -1.0934
  774MOL0     C 2051   8.707   1.715   5.132 -1.0329 -0.0066 -0.6600
  774MOL0     C 2052   8.809   1.722   5.017 -0.2175 -0.6804  0.1015
  774MOL0     N 2053   8.893   1.850   5.017  0.3966  0.7460  0.0998
  774MOL0     C 2054   8.968   1.905   5.119 -0.8047 -0.5939  0.7411
  774MOL0     C 2055   8.999   2.029   5.078  0.0229 -0.1196  0.1664
  774MOL0     C 2056   9.080   2.122   5.162 -0.1375  0.5009  0.5715
  774MOL0     C 2057   9.013   2.177   5.289  0.0349 -0.6289  0.2878
  774MOL0     C 2058   8.889   2.278   5.251 -0.3661 -0.2721 -1.0581
  774MOL0     C 2059   8.925   2.414   5.179  0.2422  1.1722 -0.9360
  774MOL0     O 2060   9.026   2.475   5.246  0.3642 -0.0574 -0.0906
  774MOL0     C 2061   9.077   2.580   5.172 -0.5484 -0.2355  0.3861
  774MOL0     C 2062   9.035   2.626   5.043  1.7308  0.1228 -0.1397
  774MOL0     C 2063   9.111   2.723   4.987 -0.3004  0.4451  0.4323
  774MOL0     C 2064   9.224   2.794   5.037  0.0496  0.9063 -0.9102
  774MOL0     C 2065   9.300   2.909   4.971  0.9503  0.1409  0.5349
  774MOL0     O 2066   9.402   2.965   5.042  0.2133  0.2159  0.6388
  774MOL0     C 2067   9.469   3.062   4.979  0.1475 -0.8767  0.2874
  774MOL0     C 2068   9.555   3.041   4.874 -0.1027 -0.8283 -0.3600
  774MOL0     C 2069   9.629   3.147   4.813  0.1102  0.1757 -0.4326
  774MOL0     C 2070   9.622   3.275   4.867  0.3678  0.1396  0.0133
  774MOL0     O 2071   9.705   3.371   4.805  0.1274  0.9556 -0.1270
  774MOL0     C 2072   9.803   3.425   4.889 -1.5593 -0.3269 -0.7348
  774MOL0     C 2073   9.915   3.324   4.921 -0.9557 -0.0897  1.0291
  774MOL0     C 2074  10.055   3.386   4.926 -0.1477  0.0600  0.1487
  774MOL0     C 2075  10.147   3.269   4.966 -0.2743 -1.1025  0.0149
  774MOL0     C 2076  10.279   3.327   5.014 -0.9099  0.0018  0.8332
  774MOL0     C 2077  10.350   3.391   4.899  0.1090 -0.1493  0.0395
  774MOL0     C 2078  10.489   3.428   4.950  0.7482 -0.1929 -0.5406
  774MOL0     C 2079  10.576   3.487   4.842  1.5398  0.3274 -0.0688
  774MOL0    Cl 2080  10.751   3.485   4.896 -0.0138 -0.1908  0.1692
  774MOL0     C 2081   9.550   3.288   4.987 -0.5581 -0.3091 -0.5902
  774MOL0     C 2082   9.469   3.181   5.039 -0.1549 -0.8223  1.3190
  774MOL0     O 2083   9.239   2.951   4.869  0.2700  0.4416 -0.0675
  774MOL0     C 2084   9.260   2.755   5.162 -0.1505  0.0826  0.3333
  774MOL0     C 2085   9.194   2.644   5.222 -0.7385 -0.7267  0.0174
  774MOL0     N 2086   8.924   2.047   4.955  0.4050  0.0901 -0.1443
  774MOL0     N 2087   8.861   1.944   4.926 -0.7473 -0.2749 -0.4880
  774MOL0     C 2088   8.558   2.442   5.481 -0.4896 -0.5013  0.2477
  774MOL0     C 2089   8.623   2.570   5.501  0.0353  0.1952  0.1154
  774MOL0     C 2090   8.839   2.949   5.326  0.0515  0.1152 -0.7698
  774MOL0     C 2091   8.812   3.050   5.423 -0.5078 -0.7735 -0.3035
  774MOL0     C 2092   8.873   3.173   5.425  0.5102  0.0073  0.0396
  774MOL0     C 2093   8.977   3.197   5.343  0.6107 -0.3678  0.1744
  774MOL0     O 2094   9.044   3.318   5.341  0.5939 -0.1148  0.1401
  774MOL0     C 2095   9.104   3.346   5.465  0.2034 -0.0863  0.1111
  774MOL0     C 2096   9.212   3.251   5.535  0.5011  0.9655  0.6747
  774MOL0     C 2097   9.333   3.230   5.440  0.4950 -0.1119 -0.7496
  774MOL0     C 2098   9.417   3.351   5.392 -0.0913  0.2353  0.3727
  774MOL0     C 2099   9.548   3.321   5.332  0.2075 -0.3043 -0.1920
  774MOL0     C 2100   9.670   3.307   5.313 -0.1186  0.8304 -0.2138
  774MOL0     C 2101   9.013   3.100   5.241  0.5353 -0.3618 -0.8842
  774MOL0     C 2102   8.944   2.975   5.241  0.6364  0.2688  1.0733
  774MOL0     H 2103   8.517   2.731   5.229  0.1279 -1.2296 -0.2871
  774MOL0     H 2104   8.416   2.525   5.176  1.0640 -1.8595 -0.7077
  774MOL0     H 2105   8.374   2.306   5.161  3.0042  1.6044  2.8522
  774MOL0     H 2106   8.240   2.341   5.273  0.2514  0.2883  2.2780
  774MOL0     H 2107   8.229   2.110   5.159  2.8341  1.0115 -0.9544
  774MOL0     H 2108   8.227   2.093   5.340  0.4981  1.0689  0.5418
  774MOL0     H 2109   8.465   2.056   5.353  0.5303 -0.7220 -0.8823
  774MOL0     H 2110   8.482   2.092   5.189 -2.6934 -1.0434 -3.5929
  774MOL0     H 2111   8.293   1.861   5.281 -1.7644 -1.0577 -2.8534
  774MOL0     H 2112   8.358   1.899   5.124  0.8586  0.4765 -0.3928
  774MOL0     H 2113   8.466   1.707   5.215  2.1406 -0.4647 -2.3841
  774MOL0     H 2114   8.542   1.797   5.347  2.9879  1.7945 -0.9429
  774MOL0     H 2115   8.684   1.925   5.168 -0.8601  0.1935  0.6733
  774MOL0     H 2116   8.564   1.862   5.055 -0.2975  1.7170 -0.3813
  774MOL0     H 2117   8.773   1.684   5.214  0.0646  0.4585 -1.3419
  774MOL0     H 2118   8.641   1.629   5.117 -0.9383 -0.1863 -0.0862
  774MOL0     H 2119   8.753   1.717   4.923 -0.7540 -1.4456  0.4535
  774MOL0     H 2120   8.885   1.644   5.021 -1.2175 -1.6327  1.5577
  774MOL0     H 2121   8.989   1.851   5.211  0.2667 -2.1089 -0.3313
  774MOL0     H 2122   9.108   2.203   5.095  2.4729  0.0940  1.0948
  774MOL0     H 2123   9.175   2.075   5.187 -0.4105 -0.2167  0.3125
  774MOL0     H 2124   9.088   2.228   5.350  0.0835 -0.1481 -0.1630
  774MOL0     H 2125   8.974   2.086   5.336 -1.7739  1.0069  2.1455
  774MOL0     H 2126   8.826   2.218   5.184 -0.4593  0.9314 -2.0721
  774MOL0     H 2127   8.819   2.303   5.332  1.6209  1.6685  0.1798
  774MOL0     H 2128   8.837   2.478   5.171  0.7621  1.7062 -3.2176
  774MOL0     H 2129   8.951   2.387   5.076 -1.7451  0.1158 -1.1988
  774MOL0     H 2130   8.957   2.592   4.977  0.2355  3.1469 -0.1186
  774MOL0     H 2131   9.080   2.753   4.887 -4.2031  1.7606  1.8744
  774MOL0     H 2132   9.549   2.945   4.825 -1.1615 -0.3800 -1.1593
  774MOL0     H 2133   9.686   3.129   4.723  0.4612 -2.2715  0.1887
  774MOL0     H 2134   9.759   3.473   4.976 -2.1417  1.6190 -2.0272
  774MOL0     H 2135   9.843   3.513   4.837 -2.0836  1.7123  2.0622
  774MOL0     H 2136   9.914   3.250   4.840 -0.7530  2.1558 -1.1311
  774MOL0     H 2137   9.891   3.274   5.015  2.2902  0.9335  2.5426
  774MOL0     H 2138  10.055   3.462   5.005  0.1552  3.0735 -2.5378
  774MOL0     H 2139  10.092   3.438   4.836  1.5483 -1.4025 -0.0546
  774MOL0     H 2140  10.097   3.217   5.048 -2.7946  0.6388 -0.3017
  774MOL0     H 2141  10.159   3.199   4.882  1.5973 -1.4899  0.5681
  774MOL0     H 2142  10.340   3.247   5.057  2.2160  1.2080 -0.9893
  774MOL0     H 2143  10.272   3.404   5.092  2.1181  0.9627  0.2646
  774MOL0     H 2144  10.305   3.483   4.860 -0.6739 -0.7058 -0.4129
  774MOL0     H 2145  10.348   3.321   4.814  0.3919  0.7029 -0.6831
  774MOL0     H 2146  10.483   3.485   5.043  0.4719  0.2380 -0.8215
  774MOL0     H 2147  10.542   3.335   4.972 -0.5953 -0.4059  2.0916
  774MOL0     H 2148  10.543   3.589   4.821 -1.2036  0.1924  2.8742
  774MOL0     H 2149  10.560   3.430   4.750 -2.1942  3.3705 -1.5570
  774MOL0     H 2150   9.541   3.379   5.046 -0.9015 -0.4253 -0.4609
  774MOL0     H 2151   9.394   3.210   5.112 -1.2632  0.6382 -0.2881
  774MOL0     H 2152   9.357   2.788   5.200 -1.0179  1.7182  1.2377
  774MOL0     H 2153   9.218   2.619   5.325 -1.0320 -0.8896  0.0484
  774MOL0     H 2154   8.588   2.356   5.540 -2.6672 -2.1176 -0.8710
  774MOL0     H 2155   8.682   2.582   5.591 -1.0917 -4.2182  1.7341
  774MOL0     H 2156   8.739   3.044   5.503  3.4635  2.6175  4.1852
  774MOL0     H 2157   8.834   3.242   5.499 -0.6325  1.1629 -1.5727
  774MOL0     H 2158   9.031   3.356   5.545  0.4393 -0.1859  0.3413
  774MOL0     H 2159   9.149   3.445   5.447 -1.0913  0.6130  0.6392
  774MOL0     H 2160   9.238   3.300   5.630  1.2200  0.8941  0.5188
  774MOL0     H 2161   9.154   3.159   5.549  1.2288  0.2030 -1.1090
  774MOL0     H 2162   9.299   3.167   5.357 -1.4475 -2.6675  1.7563
  774MOL0     H 2163   9.395   3.169   5.506 -1.9462  0.9565  2.8091
  774MOL0     H 2164   9.354   3.383   5.309 -1.2589 -3.5670 -0.4385
  774MOL0     H 2165   9.428   3.431   5.466  1.8737  1.6030 -1.2894
  774MOL0     H 2166   9.771   3.319   5.278 -0.2881 -3.3753 -2.9130
  774MOL0     H 2167   9.089   3.128   5.169 -1.2230  1.9601 -1.9639
  774MOL0     H 2168   8.984   2.899   5.175  1.7297  1.0350  0.8192
  775MOL0     O 2169   7.373   8.204   4.383  0.1068 -1.0837  0.1157
  775MOL0     C 2170   7.305   8.099   4.361 -0.3525  0.8285  0.5377
  775MOL0     O 2171   7.267   8.002   4.456 -0.5018  0.4637 -0.1318
  775MOL0     C 2172   7.325   8.027   4.576  0.3390 -0.0933  0.3445
  775MOL0     C 2173   7.413   7.931   4.627 -0.2892 -0.6655 -0.3927
  775MOL0     C 2174   7.473   7.953   4.749 -0.0530  0.3322 -0.5910
  775MOL0     C 2175   7.447   8.064   4.832 -0.1567 -0.6672  0.0406
  775MOL0     O 2176   7.498   8.089   4.959 -0.1634 -0.6068  0.4720
  775MOL0     C 2177   7.557   7.986   5.044  0.2397 -0.4323 -0.1302
  775MOL0     C 2178   7.641   8.055   5.154  0.0657  0.8642  0.4870
  775MOL0     C 2179   7.751   8.148   5.088 -0.9968  0.0479 -0.4576
  775MOL0     C 2180   7.865   8.168   5.191  0.4570  0.3984 -0.4785
  775MOL0     C 2181   7.854   8.298   5.270 -1.1275  0.4383  0.2143
  775MOL0     C 2182   7.968   8.324   5.376 -0.1173  0.3538  0.1089
  775MOL0     C 2183   7.982   8.230   5.498  0.3449  0.0435 -0.9619
  775MOL0     C 2184   7.857   8.231   5.582 -0.6377 -0.4144  0.6470
  775MOL0     N 2185   7.808   8.351   5.658 -0.4723  0.0919  0.0088
  775MOL0     C 2186   7.870   8.433   5.752  0.7925 -1.0462 -0.9090
  775MOL0     C 2187   7.771   8.523   5.787  1.0275 -0.4327  0.7314
  775MOL0     C 2188   7.762   8.615   5.903  0.0977 -0.6749 -0.4928
  775MOL0     C 2189   7.654   8.567   6.006 -0.3159  0.0743  0.3640
  775MOL0     C 2190   7.696   8.445   6.087  0.1749  0.0819  0.2555
  775MOL0     C 2191   7.695   8.314   6.002  0.1663 -0.3955 -0.1703
  775MOL0     O 2192   7.669   8.199   6.088 -0.3211 -0.1971 -0.4717
  775MOL0     C 2193   7.557   8.132   6.059  0.3021  0.4804  0.0680
  775MOL0     C 2194   7.436   8.177   6.103  0.0865  0.2255 -0.1444
  775MOL0     C 2195   7.318   8.096   6.067 -0.2543  0.3404 -0.1758
  775MOL0     C 2196   7.335   7.980   5.981 -0.3840 -0.1410 -0.4629
  775MOL0     C 2197   7.215   7.911   5.936 -0.1061 -0.1883  0.2551
  775MOL0     O 2198   7.236   7.790   5.875  0.1078  0.3591  0.4230
  775MOL0     C 2199   7.122   7.743   5.829 -0.0250  0.8704 -0.7200
  775MOL0     C 2200   7.047   7.806   5.725 -1.9860  0.8620 -0.1280
  775MOL0     C 2201   6.929   7.748   5.673 -0.1227 -0.5023  1.1424
  775MOL0     C 2202   6.886   7.621   5.721 -0.2689 -1.5231  0.3400
  775MOL0     O 2203   6.779   7.547   5.669  0.4016 -0.2141  0.3588
  775MOL0     C 2204   6.648   7.565   5.722  0.7272  0.6316  0.1346
  775MOL0     C 2205   6.578   7.671   5.646  0.7935  0.2487  0.1421
  775MOL0     C 2206   6.429   7.652   5.620 -0.1939 -0.0915 -0.0874
  775MOL0     C 2207   6.346   7.603   5.747  0.0291  0.6807 -1.0030
  775MOL0     C 2208   6.196   7.597   5.727 -0.0069  0.3670 -0.1295
  775MOL0     C 2209   6.130   7.738   5.695 -0.4160  0.1828  0.1535
  775MOL0     C 2210   6.158   7.844   5.798 -1.0347 -0.4255 -0.3900
  775MOL0     C 2211   6.133   7.814   5.945  0.0135 -0.9946  0.2723
  775MOL0    Cl 2212   5.966   7.846   6.000  0.1663 -0.4481 -0.4024
  775MOL0     C 2213   6.945   7.568   5.835 -0.6242  0.6674 -0.2094
  775MOL0     C 2214   7.065   7.629   5.876 -0.2838  0.6375  0.3500
  775MOL0     O 2215   7.109   7.962   5.960  0.2303 -0.3389 -0.0745
  775MOL0     C 2216   7.465   7.929   5.954 -0.1677  0.4120 -0.9166
  775MOL0     C 2217   7.575   8.004   6.001 -0.1243 -0.0635  0.2646
  775MOL0     N 2218   7.657   8.497   5.711 -0.6280  0.2092  0.7908
  775MOL0     N 2219   7.686   8.402   5.635  0.1093 -0.4865  0.1899
  775MOL0     C 2220   7.361   8.161   4.783 -0.5094  0.6483  0.5732
  775MOL0     C 2221   7.301   8.141   4.655  0.8292 -0.5962  0.6347
  775MOL0     C 2222   7.285   8.066   4.223  0.8720  0.0575 -0.7647
  775MOL0     C 2223   7.287   8.163   4.118  0.0698 -0.6194  0.7708
  775MOL0     C 2224   7.277   8.121   3.983  0.6050  0.0581 -0.3607
  775MOL0     C 2225   7.262   7.985   3.953 -0.5148  0.2138 -0.1460
  775MOL0     O 2226   7.260   7.962   3.819  0.3632 -0.4426 -0.2107
  775MOL0     C 2227   7.240   7.827   3.793 -0.2471 -1.0743 -0.7948
  775MOL0     C 2228   7.287   7.815   3.654  1.3808 -0.6349  0.6302
  775MOL0     C 2229   7.436   7.852   3.624  0.3157 -0.3019  0.4172
  775MOL0     C 2230   7.463   7.882   3.475 -1.0394 -0.4627  0.6449
  775MOL0     C 2231   7.432   7.772   3.384 -1.0308  1.0167 -0.6957
  775MOL0     C 2232   7.441   7.687   3.300 -0.4352  0.5719  0.0339
  775MOL0     C 2233   7.255   7.888   4.057  0.6659 -0.9537 -0.7347
  775MOL0     C 2234   7.265   7.931   4.186 -0.3263  0.2371 -0.3997
  775MOL0     H 2235   7.450   7.853   4.561  0.5731  0.5711 -1.4279
  775MOL0     H 2236   7.561   7.893   4.771  0.3958  0.7103 -1.2926
  775MOL0     H 2237   7.624   7.930   4.979  1.2721  0.0053  0.5399
  775MOL0     H 2238   7.477   7.916   5.071  2.1145 -2.6377  0.0169
  775MOL0     H 2239   7.687   7.976   5.213 -1.2512 -0.3524 -0.0560
  775MOL0     H 2240   7.572   8.114   5.215  0.1040  3.3015 -1.6460
  775MOL0     H 2241   7.715   8.247   5.061 -1.6055 -0.2380 -0.7252
  775MOL0     H 2242   7.786   8.100   4.996  2.3199  2.7225 -0.7625
  775MOL0     H 2243   7.868   8.084   5.261  0.5476 -0.0762 -1.0428
  775MOL0     H 2244   7.962   8.158   5.142  0.7052 -2.3555  0.3977
  775MOL0     H 2245   7.767   8.313   5.334  0.3367  3.5456  1.7232
  775MOL0     H 2246   7.842   8.379   5.197  2.5696 -1.1685 -2.5194
  775MOL0     H 2247   7.956   8.429   5.405  2.4335  1.4483 -2.3473
  775MOL0     H 2248   8.062   8.307   5.322 -0.1363 -0.0470  0.1976
  775MOL0     H 2249   8.013   8.128   5.470  0.2168 -0.3149  0.1598
  775MOL0     H 2250   8.064   8.264   5.563 -1.3249  0.4817  0.9938
  775MOL0     H 2251   7.852   8.145   5.650  0.2858 -0.3475  0.8195
  775MOL0     H 2252   7.782   8.201   5.509  1.1102 -1.7188 -0.7171
  775MOL0     H 2253   7.969   8.435   5.798  0.2871  0.0634  0.1932
  775MOL0     H 2254   7.738   8.716   5.869 -0.3818 -1.4235 -2.5375
  775MOL0     H 2255   7.863   8.615   5.946  1.5596  1.8595 -3.5806
  775MOL0     H 2256   7.562   8.554   5.948 -0.6888  0.8707  0.7601
  775MOL0     H 2257   7.640   8.648   6.077 -2.7751 -0.8278  1.0233
  775MOL0     H 2258   7.798   8.459   6.126  1.4180  0.0622 -2.6966
  775MOL0     H 2259   7.620   8.429   6.164 -0.4078  1.5905  0.0301
  775MOL0     H 2260   7.795   8.307   5.959 -0.1615 -0.1498 -0.9870
  775MOL0     H 2261   7.622   8.321   5.921 -0.3478  1.7487  0.3961
  775MOL0     H 2262   7.449   8.264   6.166  1.8386 -0.6507  0.7484
  775MOL0     H 2263   7.221   8.125   6.106 -0.4848 -0.8053  0.1430
  775MOL0     H 2264   7.080   7.902   5.685 -2.5710  0.7648 -0.8722
  775MOL0     H 2265   6.875   7.775   5.583  1.6912 -2.9036 -0.8127
  775MOL0     H 2266   6.660   7.585   5.829 -0.6944 -1.6636  0.7975
  775MOL0     H 2267   6.593   7.471   5.712 -0.7461  1.4169  0.6966
  775MOL0     H 2268   6.619   7.682   5.545 -0.2291  1.1133 -0.2026
  775MOL0     H 2269   6.585   7.769   5.695  0.2004 -0.0212  0.7800
  775MOL0     H 2270   6.415   7.578   5.540 -0.7019 -3.4421  2.8624
  775MOL0     H 2271   6.393   7.747   5.579  0.2539 -0.2620 -0.8944
  775MOL0     H 2272   6.377   7.511   5.796 -1.6796  1.3897  1.5904
  775MOL0     H 2273   6.380   7.670   5.827  0.0602  1.5105 -1.6944
  775MOL0     H 2274   6.168   7.564   5.827  1.2179 -1.8897 -0.4777
  775MOL0     H 2275   6.159   7.524   5.655  0.1126 -1.4425  1.5729
  775MOL0     H 2276   6.025   7.706   5.707 -0.3247  0.2207  1.1313
  775MOL0     H 2277   6.149   7.768   5.592 -1.3565  0.6571  0.1048
  775MOL0     H 2278   6.264   7.871   5.802 -1.0331 -0.5507  1.2199
  775MOL0     H 2279   6.104   7.935   5.770 -1.3856 -0.5258 -0.0479
  775MOL0     H 2280   6.204   7.877   5.999 -0.1517 -0.5898  0.0164
  775MOL0     H 2281   6.178   7.718   5.975  2.2675  0.1717  0.8478
  775MOL0     H 2282   6.899   7.482   5.884  0.7949  0.7999  1.4888
  775MOL0     H 2283   7.112   7.586   5.964 -0.7031  0.0056  0.2713
  775MOL0     H 2284   7.486   7.838   5.898 -1.7408 -1.7449  1.7827
  775MOL0     H 2285   7.674   7.975   5.967 -0.8640 -1.2312 -0.9728
  775MOL0     H 2286   7.336   8.253   4.834 -0.3420 -0.9660  3.7786
  775MOL0     H 2287   7.244   8.227   4.621  2.4314 -0.2735 -1.4659
  775MOL0     H 2288   7.289   8.268   4.148  0.0638 -1.1299  2.7348
  775MOL0     H 2289   7.295   8.186   3.897 -0.0783  0.9995  0.1879
  775MOL0     H 2290   7.135   7.797   3.791  0.5761 -4.2745 -1.1564
  775MOL0     H 2291   7.302   7.755   3.848  1.1066  0.9128  0.4368
  775MOL0     H 2292   7.272   7.709   3.628 -0.6840 -0.1666 -0.2865
  775MOL0     H 2293   7.219   7.884   3.604  0.2322 -2.7384 -0.8631
  775MOL0     H 2294   7.494   7.762   3.645  2.0180  0.9762  1.4177
  775MOL0     H 2295   7.467   7.934   3.690  0.7996  0.0234 -0.2087
  775MOL0     H 2296   7.407   7.967   3.435  1.4667  2.2215  2.4053
  775MOL0     H 2297   7.569   7.906   3.468 -0.9079 -0.9717  0.8151
  775MOL0     H 2298   7.466   7.608   3.231 -2.8287 -0.5679  0.3783
  775MOL0     H 2299   7.240   7.781   4.047  0.5427 -0.9068 -1.0723
  775MOL0     H 2300   7.261   7.856   4.264 -0.1905  0.8823  0.2321
  776MOL0     O 2301  10.729   2.478   3.582  0.1158 -0.7935  0.3562
  776MOL0     C 2302  10.608   2.454   3.566  0.4446  0.1550 -0.4930
  776MOL0     O 2303  10.544   2.335   3.603 -0.3765 -0.0681 -1.1027
  776MOL0     C 2304  10.625   2.222   3.636 -0.6495  0.4200 -0.6109
  776MOL0     C 2305  10.578   2.146   3.746 -0.6510 -0.3374  0.3188
  776MOL0     C 2306  10.638   2.031   3.790 -0.0054 -1.4391  0.2872
  776MOL0     C 2307  10.759   1.988   3.727 -0.2872  0.4621  0.3574
  776MOL0     O 2308  10.823   1.873   3.766  0.2720 -0.7043  0.1265
  776MOL0     C 2309  10.828   1.843   3.909  0.0828 -0.5748 -0.1714
  776MOL0     C 2310  10.916   1.940   3.994  0.0243 -0.0186  0.1744
  776MOL0     C 2311  11.075   1.931   3.972 -0.0565  0.0172  0.0298
  776MOL0     C 2312  11.150   1.991   4.096  0.2106  0.3482  1.0941
  776MOL0     C 2313  11.300   1.959   4.108  0.1897  0.2160 -0.2028
  776MOL0     C 2314  11.370   1.982   3.973 -0.2824 -0.9142  0.9614
  776MOL0     C 2315  11.383   2.134   3.929 -0.0363 -1.0124 -0.1700
  776MOL0     C 2316  11.349   2.165   3.777  0.1632  0.7369  0.3138
  776MOL0     N 2317  11.409   2.063   3.680 -0.1511 -0.8578 -0.5570
  776MOL0     C 2318  11.552   2.042   3.663 -0.4519  0.4962  0.5274
  776MOL0     C 2319  11.552   1.951   3.560 -0.3956  0.3070 -0.6094
  776MOL0     C 2320  11.684   1.887   3.509 -0.1418  0.5703  0.1355
  776MOL0     C 2321  11.689   1.732   3.530  1.4837  0.2275 -0.0607
  776MOL0     C 2322  11.717   1.717   3.677 -0.3538  0.0718  0.0847
  776MOL0     C 2323  11.737   1.568   3.717  0.2751  0.2809 -0.6930
  776MOL0     O 2324  11.859   1.512   3.666  0.3898 -0.1298 -0.2263
  776MOL0     C 2325  11.932   1.410   3.730  0.3800  0.4058 -0.1165
  776MOL0     C 2326  11.869   1.316   3.814  0.2444  0.0078 -0.4661
  776MOL0     C 2327  11.947   1.219   3.877 -0.6358 -0.3266  0.1324
  776MOL0     C 2328  12.090   1.207   3.851  0.2004 -0.4677  0.4491
  776MOL0     C 2329  12.157   1.102   3.915  0.4190 -0.3698  1.1354
  776MOL0     O 2330  12.286   1.083   3.885  0.0633  1.1161  0.6161
  776MOL0     C 2331  12.358   0.983   3.946 -0.0889 -0.7345 -0.0493
  776MOL0     C 2332  12.310   0.860   3.976 -0.2865 -0.3698  0.6558
  776MOL0     C 2333  12.383   0.769   4.061  0.1879 -0.2703 -0.0814
  776MOL0     C 2334  12.506   0.803   4.117 -0.2539 -0.0425 -0.5050
  776MOL0     O 2335  12.571   0.707   4.196 -0.1244  0.8251  0.3099
  776MOL0     C 2336  12.687   0.742   4.273  0.0354 -0.4448  0.4183
  776MOL0     C 2337  12.657   0.827   4.398  0.1853 -1.3872  0.7710
  776MOL0     C 2338  12.750   0.946   4.424 -0.9669 -0.3729  0.6693
  776MOL0     C 2339  12.892   0.908   4.445  0.2226  0.2702  0.7185
  776MOL0     C 2340  12.981   1.034   4.422 -0.0258  0.0346  0.7097
  776MOL0     C 2341  13.119   1.007   4.490 -0.0898  0.3622 -1.0841
  776MOL0     C 2342  13.205   1.117   4.451 -0.3954  0.6240  0.8200
  776MOL0     C 2343  13.344   1.090   4.490 -0.1239 -0.0033  0.2040
  776MOL0    Cl 2344  13.456   1.230   4.485 -0.4529 -0.0722 -0.5603
  776MOL0     C 2345  12.559   0.933   4.083 -0.0293 -0.0488 -0.0148
  776MOL0     C 2346  12.483   1.017   4.004 -0.0414 -1.2053 -0.1518
  776MOL0     O 2347  12.100   1.034   3.998  0.5537 -0.7160 -0.1865
  776MOL0     C 2348  12.150   1.293   3.763 -0.1054 -0.4519  0.0648
  776MOL0     C 2349  12.074   1.399   3.708 -0.8464 -0.1103  0.6382
  776MOL0     N 2350  11.427   1.926   3.513  0.8401  0.5396 -0.5804
  776MOL0     N 2351  11.342   1.996   3.590  0.7411 -0.8172  0.1986
  776MOL0     C 2352  10.798   2.055   3.614  0.6742 -1.1283  1.3528
  776MOL0     C 2353  10.732   2.172   3.567  0.6888 -0.3063 -1.4291
  776MOL0     C 2354  10.516   2.546   3.490 -0.1267  0.2483 -0.0915
  776MOL0     C 2355  10.548   2.673   3.438  0.2295  1.1067 -0.5099
  776MOL0     C 2356  10.468   2.735   3.347 -0.5895 -0.1413 -0.2124
  776MOL0     C 2357  10.341   2.687   3.311 -0.4901 -0.8212  0.2430
  776MOL0     O 2358  10.268   2.745   3.205 -0.9644  0.1324 -0.6503
  776MOL0     C 2359  10.341   2.809   3.097  0.6126 -1.2841  0.9270
  776MOL0     C 2360  10.251   2.832   2.989  0.8525  0.6048 -0.1978
  776MOL0     C 2361  10.173   2.965   2.996  0.0064  0.0009 -0.3064
  776MOL0     C 2362  10.106   2.989   2.863 -0.9541 -1.0117 -0.5950
  776MOL0     C 2363   9.988   2.908   2.835 -1.4787  0.2334  0.4059
  776MOL0     C 2364   9.887   2.849   2.830  0.0886 -0.5419  0.0527
  776MOL0     C 2365  10.292   2.580   3.382  0.7529 -0.7500 -0.3563
  776MOL0     C 2366  10.384   2.509   3.463  0.6976  0.7797 -0.1454
  776MOL0     H 2367  10.482   2.180   3.781 -0.8298  3.6972 -3.2246
  776MOL0     H 2368  10.595   1.979   3.875 -2.0196  1.9195  1.5116
  776MOL0     H 2369  10.879   1.746   3.898 -2.8962 -1.9163 -4.1956
  776MOL0     H 2370  10.728   1.827   3.950 -0.0419  1.2366  0.3095
  776MOL0     H 2371  10.905   1.917   4.101  0.7492  3.8555  1.2461
  776MOL0     H 2372  10.883   2.043   3.979 -1.7726 -0.5697  0.1826
  776MOL0     H 2373  11.101   1.986   3.881 -0.2752 -0.1017 -0.1046
  776MOL0     H 2374  11.112   1.828   3.977  1.4730  0.5984  3.6622
  776MOL0     H 2375  11.141   2.100   4.094  0.2577  0.3500  0.9471
  776MOL0     H 2376  11.104   1.961   4.191 -1.8782 -1.2504 -0.3363
  776MOL0     H 2377  11.309   1.855   4.141 -0.2497 -0.9500 -3.4192
  776MOL0     H 2378  11.362   2.025   4.170  3.6139 -1.9971 -1.0074
  776MOL0     H 2379  11.323   1.925   3.893 -0.6572  0.3587  0.2346
  776MOL0     H 2380  11.475   1.953   3.971 -0.0389 -0.2689 -2.9967
  776MOL0     H 2381  11.309   2.201   3.975 -0.8935  1.6771 -4.7522
  776MOL0     H 2382  11.486   2.167   3.946 -0.6585  0.9288  0.0852
  776MOL0     H 2383  11.394   2.261   3.750  0.9590  0.1383 -0.5771
  776MOL0     H 2384  11.242   2.176   3.758  0.5483  3.0562 -0.9932
  776MOL0     H 2385  11.633   2.058   3.734  1.3359 -0.4528 -1.2122
  776MOL0     H 2386  11.768   1.941   3.554 -0.6276 -0.4328  2.3883
  776MOL0     H 2387  11.687   1.917   3.404  1.5706 -0.4189 -0.1322
  776MOL0     H 2388  11.763   1.681   3.468 -0.0048  0.5177 -2.2049
  776MOL0     H 2389  11.590   1.689   3.510  2.2905 -2.7984  1.9103
  776MOL0     H 2390  11.807   1.771   3.709 -1.2656 -0.0307  3.1262
  776MOL0     H 2391  11.634   1.755   3.737  0.8183  0.1707  1.6860
  776MOL0     H 2392  11.655   1.502   3.687  0.0209  0.5857 -0.6690
  776MOL0     H 2393  11.747   1.562   3.826  0.9104 -1.0303 -0.7964
  776MOL0     H 2394  11.762   1.326   3.825 -0.0197 -2.6890  0.1227
  776MOL0     H 2395  11.913   1.150   3.954  3.1750 -2.3202  0.2419
  776MOL0     H 2396  12.208   0.848   3.939 -0.0187  2.8305 -1.5271
  776MOL0     H 2397  12.347   0.670   4.085 -0.9929  0.1798  0.0761
  776MOL0     H 2398  12.755   0.809   4.220  2.5765 -2.5977  0.7538
  776MOL0     H 2399  12.746   0.654   4.301 -1.0406 -0.3424  3.3470
  776MOL0     H 2400  12.672   0.755   4.479 -2.0713  0.3238  2.8264
  776MOL0     H 2401  12.557   0.870   4.392  2.1801  4.8117  3.6412
  776MOL0     H 2402  12.713   1.003   4.510 -0.8877  1.3910 -0.4217
  776MOL0     H 2403  12.736   1.003   4.331  2.3855 -1.8020 -0.8555
  776MOL0     H 2404  12.907   0.870   4.546 -2.7493 -0.1413  1.0777
  776MOL0     H 2405  12.920   0.813   4.397 -0.3660 -0.2179  1.3249
  776MOL0     H 2406  12.937   1.126   4.461  0.3048  1.4098 -1.9229
  776MOL0     H 2407  12.992   1.044   4.313  4.0260 -3.1199  0.5638
  776MOL0     H 2408  13.152   0.907   4.460 -0.9682 -0.2647 -0.0342
  776MOL0     H 2409  13.105   1.001   4.599 -1.3334 -3.6609 -1.3030
  776MOL0     H 2410  13.190   1.127   4.343 -1.7726  1.7253  1.0807
  776MOL0     H 2411  13.167   1.206   4.501  2.6787  0.7954  3.1789
  776MOL0     H 2412  13.374   1.007   4.425  1.4187  2.6668 -2.7619
  776MOL0     H 2413  13.347   1.053   4.593  1.0976  3.1665  1.4370
  776MOL0     H 2414  12.659   0.962   4.114  0.0538  0.8985 -1.1406
  776MOL0     H 2415  12.529   1.114   3.985  0.0833 -1.7451 -3.0721
  776MOL0     H 2416  12.252   1.269   3.734  0.3578  2.3188 -0.8526
  776MOL0     H 2417  12.117   1.464   3.633  3.9904 -3.6478 -0.0663
  776MOL0     H 2418  10.892   2.029   3.566  1.4700 -2.7431  3.5913
  776MOL0     H 2419  10.761   2.227   3.478 -0.7947  1.5510 -0.8293
  776MOL0     H 2420  10.640   2.717   3.473  0.9760  1.5536 -2.8799
  776MOL0     H 2421  10.511   2.824   3.303 -0.8655  0.6091  0.9875
  776MOL0     H 2422  10.432   2.756   3.066  1.6300  2.1130 -2.5791
  776MOL0     H 2423  10.376   2.907   3.130 -1.4045  0.2343 -1.1689
  776MOL0     H 2424  10.317   2.825   2.902  1.2850  2.7879 -0.0864
  776MOL0     H 2425  10.180   2.748   2.992  0.4157  0.9445  3.0432
  776MOL0     H 2426  10.247   3.046   3.007 -2.2837  2.4133 -1.5510
  776MOL0     H 2427  10.104   2.968   3.081 -0.8664  1.4357 -1.0296
  776MOL0     H 2428  10.078   3.095   2.861  1.6395 -0.2699 -0.6799
  776MOL0     H 2429  10.184   2.988   2.786 -0.5181  2.0937 -0.3576
  776MOL0     H 2430   9.789   2.804   2.825  0.2156 -0.6583 -3.4164
  776MOL0     H 2431  10.191   2.550   3.360 -1.0399  2.2735  2.7151
  776MOL0     H 2432  10.344   2.413   3.495 -2.1892  2.6123  2.3810
  777MOL0     O 2433   0.703   1.436   2.741 -0.0137 -0.3006  1.2238
  777MOL0     C 2434   0.621   1.499   2.810  0.5603 -0.3692  0.3989
  777MOL0     O 2435   0.498   1.547   2.766 -0.6167 -0.2918 -0.3608
  777MOL0     C 2436   0.436   1.552   2.646  1.2118 -0.0714  0.7533
  777MOL0     C 2437   0.502   1.507   2.534 -0.4208  0.3324 -0.1130
  777MOL0     C 2438   0.440   1.500   2.404 -0.3306  0.7560  0.4284
  777MOL0     C 2439   0.313   1.560   2.387 -0.2938 -0.4674  0.1047
  777MOL0     O 2440   0.249   1.572   2.270 -0.2466 -0.3013  0.3826
  777MOL0     C 2441   0.251   1.478   2.160 -0.0587  0.3261 -0.1102
  777MOL0     C 2442   0.274   1.545   2.027 -0.0889 -0.0180  0.1387
  777MOL0     C 2443   0.154   1.615   1.963 -0.1495  0.7245  0.2917
  777MOL0     C 2444   0.091   1.505   1.874 -0.1669  0.1067 -0.4883
  777MOL0     C 2445   0.020   1.590   1.768  0.0478 -0.3242 -0.5279
  777MOL0     C 2446  -0.095   1.513   1.694 -0.6288  1.0832 -0.3000
  777MOL0     C 2447  -0.164   1.584   1.578  0.4635  0.2768  0.8416
  777MOL0     C 2448  -0.308   1.544   1.559  0.3837  0.0131 -0.2286
  777MOL0     N 2449  -0.384   1.616   1.466 -0.2435 -0.3954 -0.8800
  777MOL0     C 2450  -0.366   1.614   1.329  0.1092  0.7817 -0.3723
  777MOL0     C 2451  -0.464   1.699   1.285 -0.0818  0.1985  0.7116
  777MOL0     C 2452  -0.486   1.718   1.145  0.6515  0.3597  0.1433
  777MOL0     C 2453  -0.532   1.857   1.098  0.5364  0.4774  0.0585
  777MOL0     C 2454  -0.588   1.844   0.958 -0.8422 -0.0966  0.2679
  777MOL0     C 2455  -0.576   1.983   0.892 -0.4423 -0.1830 -0.3007
  777MOL0     O 2456  -0.683   1.991   0.792 -0.0694 -0.7029  0.3931
  777MOL0     C 2457  -0.683   2.111   0.716 -0.1697  0.3986  0.2593
  777MOL0     C 2458  -0.585   2.207   0.741 -0.5226  0.5339  0.7617
  777MOL0     C 2459  -0.596   2.336   0.686  0.1997 -0.0247 -0.3198
  777MOL0     C 2460  -0.696   2.360   0.585  0.1449 -0.1224  0.9065
  777MOL0     C 2461  -0.712   2.491   0.512 -0.6850 -0.2383 -0.5609
  777MOL0     O 2462  -0.808   2.503   0.422 -0.5344  0.0973 -0.8178
  777MOL0     C 2463  -0.864   2.626   0.395  0.3615 -0.1375 -0.7011
  777MOL0     C 2464  -0.913   2.705   0.492  0.5823 -0.7225 -0.6483
  777MOL0     C 2465  -0.967   2.837   0.451 -0.3664  1.2367  0.5749
  777MOL0     C 2466  -0.982   2.868   0.309  0.2386  0.4584 -1.2972
  777MOL0     O 2467  -1.043   2.988   0.279 -0.1682  0.4533  0.1323
  777MOL0     C 2468  -1.053   3.046   0.147 -0.3930  0.4634 -0.2565
  777MOL0     C 2469  -1.136   3.180   0.162 -0.3219  0.0488  0.6440
  777MOL0     C 2470  -1.053   3.269   0.241  0.9891 -1.6301 -0.5455
  777MOL0     C 2471  -1.140   3.394   0.280 -0.1620 -0.0424 -0.5837
  777MOL0     C 2472  -1.072   3.478   0.378 -0.1567  0.6129  0.2078
  777MOL0     C 2473  -1.142   3.607   0.417 -0.8037 -0.3478  0.4013
  777MOL0     C 2474  -1.086   3.671   0.547  0.1623 -0.4002  1.0115
  777MOL0     C 2475  -1.116   3.605   0.680  0.5100  0.4761 -0.3069
  777MOL0    Cl 2476  -1.291   3.614   0.709 -0.6023 -0.2859 -0.3577
  777MOL0     C 2477  -0.937   2.772   0.218 -0.3331  0.6808  0.7794
  777MOL0     C 2478  -0.872   2.653   0.261  0.1524 -0.4656  0.0915
  777MOL0     O 2479  -0.649   2.590   0.555 -0.3099  0.6756 -0.2618
  777MOL0     C 2480  -0.791   2.263   0.552 -0.4813  0.0554 -0.1413
  777MOL0     C 2481  -0.778   2.138   0.616 -0.0001  0.4356  0.3612
  777MOL0     N 2482  -0.523   1.755   1.394 -0.6814 -0.7592  0.2873
  777MOL0     N 2483  -0.489   1.695   1.495  0.3804  1.0118 -0.6316
  777MOL0     C 2484   0.242   1.594   2.501  0.1934 -0.0963 -0.2455
  777MOL0     C 2485   0.304   1.597   2.627  0.0582 -0.1338 -1.3156
  777MOL0     C 2486   0.661   1.531   2.940 -0.8474  0.0324  0.1715
  777MOL0     C 2487   0.781   1.488   2.994 -0.8421  0.2979 -0.0761
  777MOL0     C 2488   0.819   1.521   3.130 -0.2820  0.5866 -0.0700
  777MOL0     C 2489   0.737   1.610   3.203  0.3707 -0.8296 -0.0498
  777MOL0     O 2490   0.776   1.660   3.328 -0.4061  0.0451  0.0609
  777MOL0     C 2491   0.904   1.715   3.336  0.0618 -0.0754 -0.2853
  777MOL0     C 2492   0.923   1.799   3.466  0.4410 -0.8333  0.3576
  777MOL0     C 2493   0.873   1.722   3.592 -0.6802  0.0591 -0.4472
  777MOL0     C 2494   0.981   1.621   3.641  0.2690 -0.4300  0.5454
  777MOL0     C 2495   0.964   1.571   3.786  0.2219  1.2868 -0.4969
  777MOL0     C 2496   0.952   1.533   3.903 -0.1534 -0.2201  0.7833
  777MOL0     C 2497   0.616   1.660   3.148  0.3155  0.4346 -0.1551
  777MOL0     C 2498   0.584   1.615   3.024  0.5470  0.4580  0.4947
  777MOL0     H 2499   0.603   1.468   2.530 -1.3214 -2.2600  0.1624
  777MOL0     H 2500   0.492   1.490   2.309 -1.1978 -1.2140  0.1234
  777MOL0     H 2501   0.163   1.413   2.160 -2.0511  2.8920 -0.5842
  777MOL0     H 2502   0.338   1.411   2.168  0.7488  1.5150  1.5248
  777MOL0     H 2503   0.310   1.466   1.962  0.5677 -0.2777  0.8118
  777MOL0     H 2504   0.364   1.605   2.039  0.2975 -0.2922 -1.2591
  777MOL0     H 2505   0.197   1.694   1.901 -1.1720  1.4433  0.4700
  777MOL0     H 2506   0.088   1.655   2.040 -0.3328 -0.7724  0.9427
  777MOL0     H 2507   0.166   1.445   1.822  0.2522 -0.6270  0.9105
  777MOL0     H 2508   0.029   1.437   1.932 -0.4381  2.2022  1.8348
  777MOL0     H 2509   0.101   1.619   1.701 -2.1216  0.4997 -2.9662
  777MOL0     H 2510  -0.017   1.689   1.797 -2.3328 -1.6352  1.2816
  777MOL0     H 2511  -0.177   1.505   1.766  0.5591 -1.1627  0.9148
  777MOL0     H 2512  -0.062   1.414   1.662  0.3379  0.0392  3.3982
  777MOL0     H 2513  -0.164   1.693   1.589 -0.7670  0.3151  0.5081
  777MOL0     H 2514  -0.109   1.559   1.487  0.0499 -1.7572  1.1061
  777MOL0     H 2515  -0.363   1.554   1.653 -2.7690  0.5701 -1.9826
  777MOL0     H 2516  -0.324   1.440   1.529 -2.7597  0.6480 -1.2106
  777MOL0     H 2517  -0.292   1.557   1.273  2.5740  0.6433  2.7326
  777MOL0     H 2518  -0.564   1.645   1.123  2.1843 -1.6278  0.9584
  777MOL0     H 2519  -0.390   1.699   1.097  0.7810  0.7790  0.2274
  777MOL0     H 2520  -0.444   1.920   1.094  1.3094 -0.6313 -1.9414
  777MOL0     H 2521  -0.604   1.891   1.173 -1.9483  0.3012 -2.0936
  777MOL0     H 2522  -0.527   1.771   0.904 -2.1354 -0.7002 -0.4336
  777MOL0     H 2523  -0.690   1.808   0.976 -1.7842  1.9794 -0.5429
  777MOL0     H 2524  -0.477   1.986   0.846 -0.5622 -1.2442 -0.6633
  777MOL0     H 2525  -0.574   2.058   0.972  1.4757 -1.1074  0.5840
  777MOL0     H 2526  -0.503   2.195   0.810 -1.3664 -0.9407  1.5666
  777MOL0     H 2527  -0.525   2.412   0.714 -1.0860  1.0051  0.2498
  777MOL0     H 2528  -0.917   2.675   0.596 -1.5713 -0.8379 -0.7004
  777MOL0     H 2529  -0.996   2.897   0.536 -0.9463  1.3069  0.3345
  777MOL0     H 2530  -1.099   2.981   0.073  0.8524 -0.7951  0.0226
  777MOL0     H 2531  -0.953   3.057   0.103 -0.1991  0.0966  0.0845
  777MOL0     H 2532  -1.238   3.154   0.193 -0.6095 -0.8802 -0.9676
  777MOL0     H 2533  -1.143   3.236   0.068  2.3876 -0.8105 -0.1501
  777MOL0     H 2534  -0.968   3.313   0.188 -1.6063 -0.4102 -4.0306
  777MOL0     H 2535  -1.004   3.222   0.326  0.0269 -1.1054  0.3181
  777MOL0     H 2536  -1.164   3.448   0.188 -1.6751 -1.1380 -0.8640
  777MOL0     H 2537  -1.230   3.352   0.325 -0.3952 -0.4962 -1.4402
  777MOL0     H 2538  -0.976   3.500   0.331  0.1261 -1.2561 -0.1649
  777MOL0     H 2539  -1.051   3.417   0.466  0.8440  0.3330 -0.2164
  777MOL0     H 2540  -1.250   3.595   0.410 -0.4705 -3.1278 -2.7609
  777MOL0     H 2541  -1.106   3.677   0.341  1.2271 -2.7298 -1.0081
  777MOL0     H 2542  -0.977   3.682   0.538  0.3656 -2.7385 -0.0632
  777MOL0     H 2543  -1.125   3.773   0.556  0.0347  0.0132 -2.9038
  777MOL0     H 2544  -1.064   3.649   0.766 -0.9907  0.9516  0.3933
  777MOL0     H 2545  -1.094   3.498   0.682 -0.9015  0.1795  0.2259
  777MOL0     H 2546  -0.943   2.795   0.112  0.0704 -4.0396 -0.4827
  777MOL0     H 2547  -0.847   2.575   0.190 -0.0725  1.3278 -2.0687
  777MOL0     H 2548  -0.869   2.287   0.480 -1.2201  0.5757  0.8042
  777MOL0     H 2549  -0.833   2.049   0.589 -1.0962  1.0467  0.4996
  777MOL0     H 2550   0.141   1.627   2.480 -0.8447 -3.3917 -1.0139
  777MOL0     H 2551   0.249   1.623   2.716  2.0073 -5.2201  1.8232
  777MOL0     H 2552   0.858   1.442   2.933 -3.9907 -0.1637 -4.2013
  777MOL0     H 2553   0.904   1.474   3.180 -0.7766 -2.1863 -1.6309
  777MOL0     H 2554   0.925   1.774   3.246  1.0521 -0.4571 -0.3218
  777MOL0     H 2555   0.977   1.633   3.337 -1.0684 -1.0973  0.3281
  777MOL0     H 2556   1.030   1.819   3.477  0.8670 -2.7441 -0.0391
  777MOL0     H 2557   0.874   1.896   3.456  0.2297 -1.1344 -1.8827
  777MOL0     H 2558   0.787   1.658   3.569 -3.3310  3.0107  0.5298
  777MOL0     H 2559   0.847   1.792   3.672 -0.3283 -0.6302  0.2825
  777MOL0     H 2560   0.990   1.528   3.583  2.2115  0.1356 -0.1378
  777MOL0     H 2561   1.081   1.665   3.640 -0.4203  1.3265  2.4105
  777MOL0     H 2562   0.943   1.497   4.004 -0.0639  0.1997  0.9442
  777MOL0     H 2563   0.547   1.711   3.213 -0.3918 -0.1202 -0.4590
  777MOL0     H 2564   0.485   1.637   2.987 -0.5394 -0.1839  2.8498
  778MOL0     O 2565   7.082   6.787   3.593  0.5032 -0.4240 -1.0671
  778MOL0     C 2566   7.060   6.681   3.656  0.2504 -0.1758  1.1286
  778MOL0     O 2567   7.062   6.555   3.593  0.2017 -1.0231 -0.1531
  778MOL0     C 2568   7.123   6.549   3.470  0.5171  0.3559 -0.5948
  778MOL0     C 2569   7.058   6.501   3.364  0.2648 -0.2717 -0.6902
  778MOL0     C 2570   7.128   6.482   3.246  1.3165  0.3158  0.2985
  778MOL0     C 2571   7.249   6.542   3.224  0.1175  1.0489 -0.5937
  778MOL0     O 2572   7.320   6.519   3.104  1.0226  0.4917 -0.2851
  778MOL0     C 2573   7.256   6.567   2.993  1.2533  0.3188  0.2289
  778MOL0     C 2574   7.333   6.521   2.878 -0.0441  0.7524  0.0984
  778MOL0     C 2575   7.470   6.582   2.851  0.3459  0.0518 -0.2109
  778MOL0     C 2576   7.539   6.538   2.721  0.1213  0.4418 -0.1844
  778MOL0     C 2577   7.675   6.603   2.704 -0.2083 -0.0365 -0.3628
  778MOL0     C 2578   7.724   6.600   2.557  0.0511  0.4248 -0.0853
  778MOL0     C 2579   7.644   6.695   2.460  0.2919 -0.1178 -0.5795
  778MOL0     C 2580   7.689   6.679   2.314  0.3580  0.6931 -0.1831
  778MOL0     N 2581   7.620   6.775   2.225 -0.0142  0.2864  1.0418
  778MOL0     C 2582   7.487   6.788   2.184  0.1491 -0.5349  0.3734
  778MOL0     C 2583   7.487   6.893   2.103  0.0742  0.3233  0.9584
  778MOL0     C 2584   7.369   6.962   2.041  0.3507 -0.7357  0.4500
  778MOL0     C 2585   7.292   6.866   1.940  0.0800  0.0059 -0.6283
  778MOL0     C 2586   7.145   6.850   1.975 -0.2713  0.7651  0.0299
  778MOL0     C 2587   7.081   6.758   1.880 -0.2253  0.1808 -0.0363
  778MOL0     O 2588   7.160   6.640   1.887 -0.1212  0.2017 -0.2356
  778MOL0     C 2589   7.155   6.559   1.776 -0.2002 -0.1059 -0.0518
  778MOL0     C 2590   7.270   6.475   1.775 -0.2313  0.6883 -0.1573
  778MOL0     C 2591   7.278   6.365   1.687 -0.8359  0.3070 -1.2370
  778MOL0     C 2592   7.171   6.345   1.591  0.3233 -0.7504 -0.6369
  778MOL0     C 2593   7.183   6.227   1.500  0.0971  0.3526 -0.9773
  778MOL0     O 2594   7.101   6.231   1.392  0.3002 -0.2369  0.6286
  778MOL0     C 2595   7.069   6.115   1.322  0.5396 -0.0641  0.9656
  778MOL0     C 2596   7.165   6.072   1.242 -0.1893  0.7166  0.2900
  778MOL0     C 2597   7.154   5.958   1.158  0.0476 -1.2893 -0.4690
  778MOL0     C 2598   7.029   5.891   1.141 -0.4272  0.4099 -1.1958
  778MOL0     O 2599   7.028   5.780   1.060  0.1112  0.5996 -0.1455
  778MOL0     C 2600   6.965   5.665   1.112  0.5044  0.5987  0.3120
  778MOL0     C 2601   6.992   5.545   1.012 -0.6454 -1.1344 -0.0830
  778MOL0     C 2602   6.911   5.424   1.056  0.3721  0.3043  0.1115
  778MOL0     C 2603   6.937   5.311   0.956 -0.2685  0.2653  1.2509
  778MOL0     C 2604   6.848   5.198   1.003  1.2692  0.3372  0.0735
  778MOL0     C 2605   6.803   5.086   0.903  0.1300 -1.1594  0.1654
  778MOL0     C 2606   6.926   5.033   0.821 -0.6311  0.0703 -0.2838
  778MOL0     C 2607   6.882   4.923   0.710  0.8781 -0.4814  0.3579
  778MOL0    Cl 2608   6.726   4.973   0.619 -0.4764  0.4034  0.1142
  778MOL0     C 2609   6.922   5.942   1.219 -0.6269 -0.4593  0.1416
  778MOL0     C 2610   6.934   6.056   1.317 -0.3145  0.2514  0.7246
  778MOL0     O 2611   7.233   6.124   1.546 -0.6059 -0.0940  0.2171
  778MOL0     C 2612   7.065   6.434   1.586  0.4579 -0.0500  0.4455
  778MOL0     C 2613   7.052   6.540   1.682  0.1919  1.3657  0.1603
  778MOL0     N 2614   7.609   6.957   2.103 -0.1458  0.7011 -0.2318
  778MOL0     N 2615   7.692   6.877   2.164 -0.1980  0.1527 -0.7152
  778MOL0     C 2616   7.324   6.590   3.328 -0.0385 -0.4010 -1.0285
  778MOL0     C 2617   7.257   6.593   3.457 -0.2790  0.2048 -1.1036
  778MOL0     C 2618   7.023   6.689   3.793  0.1032 -0.1431 -1.0168
  778MOL0     C 2619   6.984   6.579   3.878 -0.6473  0.1322  0.2348
  778MOL0     C 2620   6.937   6.602   4.012 -0.8722  0.0680 -0.3024
  778MOL0     C 2621   6.939   6.726   4.062  0.2753 -0.7354 -0.1129
  778MOL0     O 2622   6.896   6.786   4.178  0.3116  0.9767  0.2488
  778MOL0     C 2623   6.900   6.706   4.293  0.6538  0.5950 -0.0408
  778MOL0     C 2624   6.863   6.788   4.416 -0.7044 -0.2457  0.9450
  778MOL0     C 2625   6.856   6.695   4.544  0.9374 -0.0313  0.1859
  778MOL0     C 2626   6.744   6.590   4.548 -0.1096  0.1271 -0.6449
  778MOL0     C 2627   6.787   6.467   4.485  0.5858 -0.3681 -0.4198
  778MOL0     C 2628   6.826   6.357   4.442 -0.0012 -0.1938  0.3023
  778MOL0     C 2629   6.973   6.833   3.984  0.3164  0.3447  0.2903
  778MOL0     C 2630   7.021   6.817   3.860 -0.0133  0.9323  0.5281
  778MOL0     H 2631   6.956   6.466   3.373  0.4140 -0.5231  0.1560
  778MOL0     H 2632   7.074   6.415   3.180 -1.1881 -0.1985  2.6818
  778MOL0     H 2633   7.259   6.677   2.995 -1.6639  0.5183 -1.1350
  778MOL0     H 2634   7.154   6.534   2.970 -0.2124  2.7227  2.6401
  778MOL0     H 2635   7.266   6.543   2.794 -0.5682  1.3628  0.6633
  778MOL0     H 2636   7.332   6.413   2.897 -0.1272  0.7679  0.1833
  778MOL0     H 2637   7.533   6.570   2.940  0.4476  0.5191 -0.2142
  778MOL0     H 2638   7.458   6.690   2.862  3.5975  0.3013  2.7317
  778MOL0     H 2639   7.542   6.429   2.727 -2.4998  0.3381  0.0323
  778MOL0     H 2640   7.472   6.547   2.635 -2.0114  0.1733  1.3679
  778MOL0     H 2641   7.753   6.549   2.760  0.3953  0.4712 -0.6993
  778MOL0     H 2642   7.665   6.708   2.732  1.8076  1.0834 -3.3235
  778MOL0     H 2643   7.722   6.503   2.508 -1.3913  1.7225 -2.7861
  778MOL0     H 2644   7.831   6.624   2.547  0.1153 -0.9422 -4.9533
  778MOL0     H 2645   7.536   6.682   2.468  0.5534 -1.9288  0.8522
  778MOL0     H 2646   7.668   6.798   2.488  1.2189 -0.9967  2.1554
  778MOL0     H 2647   7.667   6.577   2.282 -0.6866  0.4320  1.2826
  778MOL0     H 2648   7.798   6.692   2.313  0.7601 -1.1028  3.5156
  778MOL0     H 2649   7.403   6.719   2.199  0.6049 -2.3204 -3.9531
  778MOL0     H 2650   7.395   7.054   1.986 -0.5099 -1.9671 -2.1433
  778MOL0     H 2651   7.298   7.000   2.114 -0.8435 -0.8613 -0.6179
  778MOL0     H 2652   7.347   6.772   1.943 -0.4136 -0.2576  0.9544
  778MOL0     H 2653   7.300   6.911   1.840 -3.3632  2.5787  0.0585
  778MOL0     H 2654   7.131   6.806   2.074 -2.3024  0.3285 -0.3898
  778MOL0     H 2655   7.086   6.942   1.980 -1.1459  0.2018  0.2978
  778MOL0     H 2656   7.070   6.801   1.780 -0.2261 -0.0824 -0.1509
  778MOL0     H 2657   6.979   6.745   1.918 -1.4161  1.7503 -2.4566
  778MOL0     H 2658   7.349   6.495   1.847  1.1680  2.3323 -2.0687
  778MOL0     H 2659   7.358   6.294   1.705  0.0012  1.6747  0.8135
  778MOL0     H 2660   7.257   6.127   1.258 -1.6479  2.6332  2.7241
  778MOL0     H 2661   7.235   5.937   1.088  0.9507 -1.3586  0.5647
  778MOL0     H 2662   6.856   5.669   1.114  0.5189  4.1083  2.0717
  778MOL0     H 2663   7.004   5.636   1.210  0.0039 -3.1987 -0.4595
  778MOL0     H 2664   7.097   5.520   0.993 -1.0799 -1.5308 -2.1208
  778MOL0     H 2665   6.956   5.578   0.914  1.3272 -2.2803 -1.2571
  778MOL0     H 2666   6.803   5.439   1.066  0.5074 -0.0532  2.7391
  778MOL0     H 2667   6.946   5.405   1.158  1.8752  2.7412  0.1255
  778MOL0     H 2668   6.902   5.340   0.856 -0.2625 -1.2259  0.7867
  778MOL0     H 2669   7.040   5.278   0.944 -0.8779 -1.1294 -0.7276
  778MOL0     H 2670   6.761   5.233   1.059  2.4504  0.7758  1.6872
  778MOL0     H 2671   6.898   5.139   1.080  0.6977 -3.5896 -2.2793
  778MOL0     H 2672   6.721   5.123   0.841 -0.2876 -0.3936  1.1624
  778MOL0     H 2673   6.766   5.002   0.962  1.2203 -1.3897  0.5532
  778MOL0     H 2674   6.968   5.107   0.753 -3.3966  1.6094 -0.4574
  778MOL0     H 2675   7.001   4.986   0.885  0.0285 -0.4781 -1.4334
  778MOL0     H 2676   6.849   4.825   0.744 -0.1482 -1.0720 -2.1322
  778MOL0     H 2677   6.970   4.915   0.645  1.0629 -0.5779  0.6168
  778MOL0     H 2678   6.824   5.895   1.217 -0.6300 -0.8518  3.5012
  778MOL0     H 2679   6.850   6.086   1.379  0.4678 -0.8702  2.4142
  778MOL0     H 2680   6.984   6.419   1.515  0.8436 -0.7534  0.1522
  778MOL0     H 2681   6.972   6.613   1.690 -1.0792  0.1446 -0.8534
  778MOL0     H 2682   7.426   6.622   3.309 -0.5270  0.0595 -3.1019
  778MOL0     H 2683   7.310   6.615   3.549 -4.4225  0.6287  1.4659
  778MOL0     H 2684   6.980   6.477   3.842  0.3457  0.9848 -2.6119
  778MOL0     H 2685   6.909   6.520   4.077 -0.0615  1.4544  1.9133
  778MOL0     H 2686   6.997   6.663   4.319  0.9179  1.3823  0.2936
  778MOL0     H 2687   6.824   6.629   4.278  0.3416  0.8810  0.0535
  778MOL0     H 2688   6.939   6.867   4.415 -1.5460  0.5908  0.3598
  778MOL0     H 2689   6.760   6.820   4.396 -1.4429 -2.8188  0.2162
  778MOL0     H 2690   6.836   6.760   4.630  2.8498 -0.2359  0.8337
  778MOL0     H 2691   6.940   6.626   4.556 -0.2422 -1.3231  1.4267
  778MOL0     H 2692   6.707   6.566   4.648 -0.4227 -0.7983 -0.9722
  778MOL0     H 2693   6.655   6.632   4.500  1.2173  3.1273 -0.7191
  778MOL0     H 2694   6.837   6.260   4.399  1.7656 -0.0124  0.2744
  778MOL0     H 2695   6.968   6.930   4.033  0.7746  0.2109  0.6052
  778MOL0     H 2696   7.059   6.898   3.800  1.9808 -1.4211 -1.6486
  779MOL0     O 2697   3.232   8.225   5.397 -0.4034  0.1189 -0.5950
  779MOL0     C 2698   3.291   8.317   5.331  0.8634  0.5596 -0.1071
  779MOL0     O 2699   3.261   8.449   5.319  0.2339 -0.2876  0.2727
  779MOL0     C 2700   3.159   8.497   5.393  1.0705  0.6193 -0.2608
  779MOL0     C 2701   3.038   8.435   5.384  0.0932 -0.0693  0.8247
  779MOL0     C 2702   2.922   8.480   5.431 -0.4209 -0.5530 -0.4709
  779MOL0     C 2703   2.924   8.598   5.512 -0.1016  0.8363 -0.1402
  779MOL0     O 2704   2.816   8.636   5.583 -0.7903 -0.8284  0.1328
  779MOL0     C 2705   2.709   8.677   5.501 -0.1045 -0.3192  0.1694
  779MOL0     C 2706   2.621   8.752   5.597  0.0051 -0.4968 -0.1360
  779MOL0     C 2707   2.502   8.811   5.526 -0.0252 -0.7597  0.4834
  779MOL0     C 2708   2.404   8.870   5.624  0.3811 -0.4923 -0.4184
  779MOL0     C 2709   2.271   8.924   5.555  0.2354 -0.0045 -0.2886
  779MOL0     C 2710   2.291   9.009   5.430  0.3778 -0.0742 -0.2915
  779MOL0     C 2711   2.165   9.086   5.407  0.4568  0.3749  0.5860
  779MOL0     C 2712   2.074   9.003   5.327  0.2527 -0.3059 -0.1903
  779MOL0     N 2713   2.097   9.025   5.185  0.3571 -0.5956 -0.9118
  779MOL0     C 2714   2.171   8.939   5.106  0.6222 -0.2638  0.1313
  779MOL0     C 2715   2.147   8.993   4.984 -0.7854  0.6003 -0.4250
  779MOL0     C 2716   2.188   8.921   4.854  0.0427 -0.0524 -0.1459
  779MOL0     C 2717   2.075   8.923   4.739  0.5012 -0.2141 -0.4974
  779MOL0     C 2718   2.105   8.842   4.606 -0.4450 -0.5959 -0.4506
  779MOL0     C 2719   2.107   8.689   4.609 -0.7551 -0.4336  0.1363
  779MOL0     O 2720   2.128   8.658   4.474  0.2499 -0.2482 -0.5884
  779MOL0     C 2721   2.123   8.528   4.439  0.5056  0.8758 -0.7086
  779MOL0     C 2722   2.111   8.498   4.298 -0.2300  0.0965  0.4759
  779MOL0     C 2723   2.089   8.368   4.255 -0.7571  0.4968 -0.2704
  779MOL0     C 2724   2.104   8.265   4.353 -0.2332 -0.5318  1.0609
  779MOL0     C 2725   2.104   8.131   4.296 -0.0660  0.1328  0.0196
  779MOL0     O 2726   2.106   8.122   4.158  0.2027 -0.2961 -0.0642
  779MOL0     C 2727   2.101   8.008   4.087 -0.6110  0.7962 -0.4885
  779MOL0     C 2728   2.139   8.017   3.960  0.0922  0.8032  0.4502
  779MOL0     C 2729   2.139   7.905   3.873  0.5768 -0.7794  0.4760
  779MOL0     C 2730   2.075   7.782   3.906 -0.5145 -0.2208 -0.9146
  779MOL0     O 2731   2.066   7.682   3.813 -0.3709  0.5903  0.4181
  779MOL0     C 2732   1.931   7.645   3.796 -0.2373  0.2510 -0.7450
  779MOL0     C 2733   1.918   7.601   3.646  0.3903 -0.2202 -0.9394
  779MOL0     C 2734   1.954   7.710   3.545 -0.3210  0.0874  0.3339
  779MOL0     C 2735   1.838   7.794   3.516 -0.7001 -0.4982  0.4516
  779MOL0     C 2736   1.862   7.866   3.383  0.3613 -0.6746 -0.8567
  779MOL0     C 2737   1.971   7.979   3.390  0.9094  0.4958  0.0917
  779MOL0     C 2738   1.979   8.039   3.249  0.6833  0.4920 -0.7803
  779MOL0     C 2739   2.051   8.173   3.230 -0.1507  0.8143  0.9604
  779MOL0    Cl 2740   2.013   8.291   3.352  0.1120 -0.2444 -0.6081
  779MOL0     C 2741   2.026   7.780   4.032  0.5169 -0.7321  1.0461
  779MOL0     C 2742   2.044   7.887   4.128 -1.0208 -0.0101 -0.4635
  779MOL0     O 2743   2.087   8.037   4.374  0.5419 -0.8145 -0.1629
  779MOL0     C 2744   2.123   8.293   4.491 -0.5785  0.1492 -0.1249
  779MOL0     C 2745   2.131   8.423   4.530 -1.0336  0.1533 -0.7950
  779MOL0     N 2746   2.075   9.104   4.985 -0.1403 -0.7912  0.4852
  779MOL0     N 2747   2.048   9.128   5.104  0.4640  0.2768 -0.9542
  779MOL0     C 2748   3.041   8.672   5.510  0.3428 -0.7271 -0.5251
  779MOL0     C 2749   3.166   8.629   5.446  0.0106  0.0828 -0.7528
  779MOL0     C 2750   3.399   8.269   5.238 -0.5556 -0.2223  0.1652
  779MOL0     C 2751   3.481   8.369   5.175 -0.2134  0.3485 -0.2089
  779MOL0     C 2752   3.583   8.325   5.082  0.1225 -0.5564  0.3127
  779MOL0     C 2753   3.590   8.189   5.053 -0.8596 -0.4672  0.8105
  779MOL0     O 2754   3.664   8.135   4.946 -0.5699  1.0256 -0.6055
  779MOL0     C 2755   3.682   8.204   4.821  0.1589 -0.4120 -0.1261
  779MOL0     C 2756   3.755   8.127   4.715 -0.3084 -0.7357 -0.3530
  779MOL0     C 2757   3.697   7.977   4.690  0.6091 -0.5474 -0.2112
  779MOL0     C 2758   3.555   7.989   4.648  0.2261 -0.6945  0.3288
  779MOL0     C 2759   3.543   8.042   4.508 -0.6285 -0.5388  0.0110
  779MOL0     C 2760   3.509   8.103   4.411  0.7436  0.6904 -0.3431
  779MOL0     C 2761   3.516   8.094   5.119 -0.0832 -0.3231  0.4480
  779MOL0     C 2762   3.420   8.132   5.212 -0.7270 -0.1052 -0.1686
  779MOL0     H 2763   3.032   8.352   5.315 -0.5341  2.1625 -1.9951
  779MOL0     H 2764   2.835   8.415   5.432 -1.7141  1.0857 -0.7640
  779MOL0     H 2765   2.663   8.593   5.447  1.3223  1.3608 -4.1450
  779MOL0     H 2766   2.742   8.754   5.430  2.4040 -0.4907  1.0360
  779MOL0     H 2767   2.686   8.830   5.637  0.7819 -1.4545  0.5436
  779MOL0     H 2768   2.584   8.694   5.683 -2.7766  1.0771 -0.1542
  779MOL0     H 2769   2.463   8.724   5.473  3.6726 -1.6781 -1.0736
  779MOL0     H 2770   2.538   8.887   5.456  1.8258 -1.7528  0.3000
  779MOL0     H 2771   2.370   8.797   5.698 -1.0171  3.1550  2.8406
  779MOL0     H 2772   2.454   8.944   5.686  1.8705 -0.9422 -1.0314
  779MOL0     H 2773   2.215   8.988   5.623  0.4267  1.8943 -1.8448
  779MOL0     H 2774   2.213   8.835   5.529  0.1226 -0.2804  0.8582
  779MOL0     H 2775   2.312   8.947   5.342 -0.1154  0.7869 -1.0263
  779MOL0     H 2776   2.382   9.070   5.427  0.1468  0.2440 -2.0649
  779MOL0     H 2777   2.109   9.112   5.497 -2.7533 -2.3723 -0.4052
  779MOL0     H 2778   2.197   9.181   5.363  1.4053  0.1326  0.7128
  779MOL0     H 2779   1.969   9.033   5.342  1.0578  3.6845 -1.2644
  779MOL0     H 2780   2.089   8.899   5.356  3.3229 -0.4847 -2.0415
  779MOL0     H 2781   2.230   8.855   5.142 -0.8268 -0.9070  1.1037
  779MOL0     H 2782   2.216   8.818   4.881 -1.4905  0.0517  2.1101
  779MOL0     H 2783   2.279   8.963   4.810 -0.2876 -1.9191 -2.8909
  779MOL0     H 2784   2.063   9.026   4.706  0.0623 -0.8322 -2.3750
  779MOL0     H 2785   1.983   8.894   4.790  2.2151 -0.7919  2.5680
  779MOL0     H 2786   2.031   8.871   4.531 -2.0789 -0.8115  1.0064
  779MOL0     H 2787   2.205   8.874   4.574 -0.6926  0.7504  0.0725
  779MOL0     H 2788   2.014   8.652   4.653 -1.6074  1.8438  0.3962
  779MOL0     H 2789   2.195   8.653   4.663 -1.0296 -1.9318 -0.3691
  779MOL0     H 2790   2.122   8.579   4.227 -0.6327 -2.5857 -2.9343
  779MOL0     H 2791   2.071   8.364   4.148  1.6789  1.3755 -0.7743
  779MOL0     H 2792   2.182   8.108   3.919  3.5780 -0.8350  0.1451
  779MOL0     H 2793   2.185   7.921   3.776 -0.9215  5.0725  0.3558
  779MOL0     H 2794   1.859   7.725   3.812  0.3094  1.4440 -3.6242
  779MOL0     H 2795   1.908   7.554   3.852 -0.9487  0.5692 -0.5097
  779MOL0     H 2796   1.819   7.558   3.630  0.5525 -0.7749 -0.4988
  779MOL0     H 2797   1.981   7.513   3.639 -0.4269 -0.8443 -0.6119
  779MOL0     H 2798   1.994   7.668   3.453  0.0363  0.5653  0.2728
  779MOL0     H 2799   2.040   7.764   3.586  0.8674 -0.9903 -0.6620
  779MOL0     H 2800   1.751   7.730   3.500  0.1674 -2.6569  3.3930
  779MOL0     H 2801   1.820   7.849   3.609  1.1376 -1.7105  1.6019
  779MOL0     H 2802   1.773   7.920   3.351  0.9405  0.4536 -0.6085
  779MOL0     H 2803   1.889   7.794   3.305 -0.9840 -2.1889 -0.0103
  779MOL0     H 2804   2.069   7.939   3.415  1.6099  3.0931  1.9106
  779MOL0     H 2805   1.942   8.044   3.474  0.3685 -2.9026  2.7833
  779MOL0     H 2806   2.028   7.959   3.192 -1.2404 -1.5564  0.3160
  779MOL0     H 2807   1.874   8.043   3.218  0.6490 -2.1778 -1.3159
  779MOL0     H 2808   2.011   8.214   3.137 -1.3371  1.7967  1.8546
  779MOL0     H 2809   2.159   8.159   3.231 -0.1150  1.0062  2.3917
  779MOL0     H 2810   1.963   7.702   4.073 -1.0144  1.3723  2.9705
  779MOL0     H 2811   2.000   7.866   4.225 -1.5182 -1.6700 -1.0167
  779MOL0     H 2812   2.134   8.214   4.565  4.2287 -1.0433 -1.6882
  779MOL0     H 2813   2.139   8.438   4.637  1.6379  1.0724 -1.0430
  779MOL0     H 2814   3.038   8.771   5.556 -1.7558  0.2642 -2.6334
  779MOL0     H 2815   3.250   8.696   5.438  1.1866 -1.1536  0.5913
  779MOL0     H 2816   3.455   8.473   5.185 -0.1475  0.3835 -0.3898
  779MOL0     H 2817   3.662   8.390   5.044  0.6610 -0.8123  0.9873
  779MOL0     H 2818   3.740   8.296   4.827  1.7782 -1.3639 -0.5192
  779MOL0     H 2819   3.583   8.232   4.784  0.4996  1.9150  0.5859
  779MOL0     H 2820   3.760   8.180   4.619  4.5799  0.3093  0.1727
  779MOL0     H 2821   3.861   8.128   4.745 -0.3548  0.5211 -0.2115
  779MOL0     H 2822   3.706   7.933   4.789 -1.5606 -2.7441 -0.9191
  779MOL0     H 2823   3.756   7.916   4.621 -0.5889 -1.3964 -0.5176
  779MOL0     H 2824   3.519   7.887   4.660  0.5554 -0.4716  5.0146
  779MOL0     H 2825   3.507   8.050   4.724  0.1868 -2.0834  1.4512
  779MOL0     H 2826   3.476   8.167   4.332 -1.9523  1.5436  1.3528
  779MOL0     H 2827   3.506   7.991   5.087 -1.6990 -0.1948  0.4419
  779MOL0     H 2828   3.360   8.056   5.261  0.9059 -2.2283 -1.2532
  780MOL0     O 2829   7.344   3.072   1.434 -0.3204  0.2025 -0.2000
  780MOL0     C 2830   7.376   2.958   1.467  0.4869  0.6225 -0.6749
  780MOL0     O 2831   7.399   2.914   1.596  0.1876  0.1770 -0.0554
  780MOL0     C 2832   7.383   2.991   1.706 -0.4420 -0.0698  0.0494
  780MOL0     C 2833   7.260   3.029   1.761  0.6829 -0.7800  0.9918
  780MOL0     C 2834   7.245   3.085   1.887 -0.4762  0.0774 -0.2679
  780MOL0     C 2835   7.354   3.116   1.964 -0.2236 -1.0228  0.1956
  780MOL0     O 2836   7.337   3.189   2.086 -1.0773  0.9844  0.0736
  780MOL0     C 2837   7.235   3.130   2.175 -0.6656 -0.0577 -0.5129
  780MOL0     C 2838   7.279   2.989   2.223  0.0063  0.0376  0.2381
  780MOL0     C 2839   7.426   2.991   2.270 -0.1372 -0.0599 -0.5639
  780MOL0     C 2840   7.471   2.894   2.375 -0.4100  0.2667  0.9090
  780MOL0     C 2841   7.626   2.877   2.362  0.0394  0.4437  0.4114
  780MOL0     C 2842   7.691   2.759   2.443  0.2885 -0.2723  0.6463
  780MOL0     C 2843   7.845   2.778   2.435 -0.1687  0.6509 -0.2061
  780MOL0     C 2844   7.917   2.638   2.434 -0.0088 -1.8446  0.9486
  780MOL0     N 2845   8.059   2.634   2.466 -0.8406  0.3839  0.8125
  780MOL0     C 2846   8.133   2.595   2.577  0.1543 -0.0787  0.7700
  780MOL0     C 2847   8.264   2.614   2.528  0.2143 -0.2805  0.4827
  780MOL0     C 2848   8.388   2.578   2.598  0.0166 -0.2129  1.2848
  780MOL0     C 2849   8.457   2.683   2.685 -0.0680 -0.0894 -0.0708
  780MOL0     C 2850   8.491   2.814   2.626  0.9112 -0.8470  0.7018
  780MOL0     C 2851   8.585   2.809   2.501  0.8855 -0.8749 -1.1155
  780MOL0     O 2852   8.713   2.775   2.558  0.4916 -0.8035  0.1870
  780MOL0     C 2853   8.824   2.860   2.546  0.4818 -0.5595 -0.1592
  780MOL0     C 2854   8.832   2.988   2.487  0.1784 -0.0679  0.3458
  780MOL0     C 2855   8.953   3.055   2.494  0.2904  0.4513 -0.3205
  780MOL0     C 2856   9.073   2.993   2.537 -0.1891 -0.3116 -0.9944
  780MOL0     C 2857   9.203   3.060   2.515  0.0377  0.2588  0.5247
  780MOL0     O 2858   9.281   2.982   2.431 -0.3153  0.4922  0.4259
  780MOL0     C 2859   9.410   3.011   2.415 -0.2109 -1.0564  0.6099
  780MOL0     C 2860   9.493   2.979   2.517  0.5078 -0.4925 -0.0610
  780MOL0     C 2861   9.628   3.023   2.519  0.0668  0.4903 -0.4241
  780MOL0     C 2862   9.679   3.081   2.405 -0.3938 -0.2367 -0.2347
  780MOL0     O 2863   9.809   3.106   2.424  0.3591  0.3866 -0.9286
  780MOL0     C 2864   9.900   3.161   2.329  0.4399 -0.0699  0.2785
  780MOL0     C 2865   9.936   3.047   2.226 -0.1615 -0.1128 -0.5310
  780MOL0     C 2866   9.960   3.118   2.095  0.7128  0.5036 -1.7481
  780MOL0     C 2867  10.007   3.007   2.004 -0.2023 -0.5830  1.1786
  780MOL0     C 2868  10.085   3.045   1.875 -0.2013 -0.4288  0.2359
  780MOL0     C 2869  10.235   3.085   1.893  0.1203 -0.1110 -0.1408
  780MOL0     C 2870  10.299   3.182   1.783 -0.8105 -0.8193 -1.0895
  780MOL0     C 2871  10.436   3.237   1.833 -0.5981 -0.7924 -0.1653
  780MOL0    Cl 2872  10.416   3.388   1.939  0.0911  0.6838  0.3407
  780MOL0     C 2873   9.593   3.121   2.304 -0.3172  0.2964  0.3905
  780MOL0     C 2874   9.461   3.087   2.308  0.5255  0.8755  0.2671
  780MOL0     O 2875   9.243   3.169   2.561  0.5809  0.0010  0.0978
  780MOL0     C 2876   9.061   2.869   2.596  1.0062 -1.0995 -0.5584
  780MOL0     C 2877   8.933   2.800   2.602  0.4500 -0.5465 -0.5153
  780MOL0     N 2878   8.265   2.655   2.400 -0.1025 -0.0762  0.1666
  780MOL0     N 2879   8.144   2.653   2.359  0.9821 -0.6975 -0.0904
  780MOL0     C 2880   7.476   3.073   1.921  0.4339  0.0448  0.3845
  780MOL0     C 2881   7.493   2.999   1.798 -0.2189  0.3237 -0.4260
  780MOL0     C 2882   7.382   2.861   1.360 -0.0525  0.2627  0.0804
  780MOL0     C 2883   7.379   2.722   1.385  0.3238 -0.2608 -0.8740
  780MOL0     C 2884   7.385   2.628   1.280  0.1249  1.2302 -0.2769
  780MOL0     C 2885   7.398   2.666   1.148  0.0915  0.2006 -0.2046
  780MOL0     O 2886   7.408   2.580   1.037  0.4611 -0.2158 -0.0974
  780MOL0     C 2887   7.373   2.436   1.049 -0.3980 -0.3622 -0.5676
  780MOL0     C 2888   7.430   2.366   0.922 -0.4596  0.7103 -0.2661
  780MOL0     C 2889   7.544   2.267   0.966  1.0142 -0.5209  0.5478
  780MOL0     C 2890   7.601   2.188   0.849  0.0190 -0.9473 -0.4527
  780MOL0     C 2891   7.694   2.271   0.777  0.9030 -0.8222  0.5081
  780MOL0     C 2892   7.780   2.340   0.726 -0.4845  0.4344  0.3598
  780MOL0     C 2893   7.401   2.805   1.126 -0.0051  0.4746  1.0685
  780MOL0     C 2894   7.394   2.895   1.226 -1.2823 -0.3629  1.2509
  780MOL0     H 2895   7.181   3.024   1.687 -0.9072 -2.8745  2.6968
  780MOL0     H 2896   7.157   3.142   1.917 -0.5497 -0.3961  0.4324
  780MOL0     H 2897   7.134   3.128   2.134 -0.9171 -0.7513  0.1212
  780MOL0     H 2898   7.248   3.182   2.271  0.7230 -2.5666  0.7735
  780MOL0     H 2899   7.269   2.916   2.141  1.8570  2.2909 -2.1730
  780MOL0     H 2900   7.215   2.955   2.305  1.1035 -0.8473  0.7731
  780MOL0     H 2901   7.456   3.087   2.314 -2.6070 -0.6761  2.7834
  780MOL0     H 2902   7.485   2.989   2.178 -2.1511  3.2570 -2.1109
  780MOL0     H 2903   7.448   2.932   2.475  0.7264  1.7603  0.6391
  780MOL0     H 2904   7.427   2.795   2.357 -0.6415  0.5664 -0.2586
  780MOL0     H 2905   7.669   2.967   2.407  2.6086 -1.3314  1.7125
  780MOL0     H 2906   7.671   2.882   2.262  2.3924 -0.8805  1.3263
  780MOL0     H 2907   7.654   2.664   2.405 -1.4972  0.9521 -0.8644
  780MOL0     H 2908   7.669   2.768   2.550  2.0579  1.7801  0.9237
  780MOL0     H 2909   7.866   2.838   2.346 -0.6961 -0.7568 -1.3066
  780MOL0     H 2910   7.883   2.834   2.521 -0.5478 -1.9696  1.7910
  780MOL0     H 2911   7.885   2.599   2.337 -1.8250  3.5000 -0.9400
  780MOL0     H 2912   7.873   2.582   2.517  0.3796  0.0016  2.4622
  780MOL0     H 2913   8.102   2.560   2.675  0.3157 -2.7327 -0.0459
  780MOL0     H 2914   8.461   2.546   2.522 -0.4140 -0.3392  0.9188
  780MOL0     H 2915   8.363   2.495   2.663 -0.2613 -2.7828 -1.8396
  780MOL0     H 2916   8.547   2.638   2.728 -0.3853 -0.6397  0.0336
  780MOL0     H 2917   8.385   2.703   2.765  1.2770  2.3633  0.6155
  780MOL0     H 2918   8.404   2.861   2.580  0.5109 -1.3929  0.8941
  780MOL0     H 2919   8.541   2.877   2.700  1.4795 -1.0700  0.5148
  780MOL0     H 2920   8.580   2.905   2.449 -1.0343 -1.1103 -1.4434
  780MOL0     H 2921   8.550   2.736   2.428 -1.9411 -0.8785  0.1232
  780MOL0     H 2922   8.748   3.035   2.436  1.6068  2.0419 -0.1736
  780MOL0     H 2923   8.961   3.149   2.440  1.7217  0.3903 -0.2421
  780MOL0     H 2924   9.452   2.937   2.608  2.6615  1.3343  1.9049
  780MOL0     H 2925   9.694   3.008   2.604 -0.7179 -1.6024 -0.1343
  780MOL0     H 2926   9.989   3.191   2.385 -0.3960  0.0471  1.5760
  780MOL0     H 2927   9.848   3.247   2.286  2.0427  1.4882  1.3291
  780MOL0     H 2928   9.853   2.978   2.213 -0.2683  0.1966 -1.6307
  780MOL0     H 2929  10.017   2.992   2.276 -0.6832 -0.1753  0.2649
  780MOL0     H 2930  10.034   3.193   2.125 -0.6641  0.5150  2.2346
  780MOL0     H 2931   9.866   3.159   2.056 -1.2941 -2.8532 -0.8065
  780MOL0     H 2932  10.071   2.945   2.067  1.3486 -0.3198 -0.0653
  780MOL0     H 2933   9.916   2.955   1.973 -0.3070 -0.5141  1.3671
  780MOL0     H 2934  10.018   3.111   1.819 -1.0320 -2.2652 -1.0243
  780MOL0     H 2935  10.082   2.957   1.810  0.0905  0.9353 -1.7376
  780MOL0     H 2936  10.304   3.001   1.886  0.6540  0.2307  0.8759
  780MOL0     H 2937  10.226   3.135   1.989 -1.6482 -2.3120  0.9585
  780MOL0     H 2938  10.318   3.112   1.701 -2.8229  0.0998 -2.4205
  780MOL0     H 2939  10.232   3.257   1.743  0.9911  0.1536 -2.4288
  780MOL0     H 2940  10.499   3.258   1.745 -0.3812 -0.7391  0.0008
  780MOL0     H 2941  10.490   3.158   1.887  2.3316  1.2063  0.1008
  780MOL0     H 2942   9.622   3.169   2.211 -0.8571 -1.5134 -0.7814
  780MOL0     H 2943   9.391   3.127   2.236 -2.3955 -3.1131  0.4873
  780MOL0     H 2944   9.146   2.815   2.635  1.3633  0.3858  0.8585
  780MOL0     H 2945   8.928   2.712   2.664  2.1415  0.5178  1.2381
  780MOL0     H 2946   7.562   3.105   1.979  0.4430  0.8568 -0.0612
  780MOL0     H 2947   7.594   2.970   1.771 -0.6621  0.2634 -2.1395
  780MOL0     H 2948   7.391   2.693   1.489  5.5183  1.1016 -0.8191
  780MOL0     H 2949   7.389   2.528   1.320 -1.4222  1.3259  0.1602
  780MOL0     H 2950   7.267   2.410   1.043  0.1128 -3.9128  2.2573
  780MOL0     H 2951   7.408   2.383   1.138 -0.3866 -0.0160 -0.3629
  780MOL0     H 2952   7.353   2.304   0.874 -1.3827 -0.2281  2.2605
  780MOL0     H 2953   7.465   2.444   0.854  0.6616 -0.9199 -1.6338
  780MOL0     H 2954   7.504   2.202   1.044 -1.1099  0.3120  0.2445
  780MOL0     H 2955   7.624   2.321   1.016  1.9780 -1.5372  0.1373
  780MOL0     H 2956   7.648   2.097   0.889 -0.9642 -1.0764  0.4439
  780MOL0     H 2957   7.522   2.158   0.780 -0.0136  1.4436 -1.5234
  780MOL0     H 2958   7.855   2.407   0.689 -2.1170  0.5672 -3.1540
  780MOL0     H 2959   7.415   2.839   1.024  0.2268 -2.0217  0.1880
  780MOL0     H 2960   7.417   2.996   1.194  4.9700 -2.2239 -1.6265
  781MOL0     O 2961   8.138   3.775   0.615  0.2281 -0.7979 -0.2054
  781MOL0     C 2962   8.200   3.864   0.552  0.7640 -0.5640  0.4228
  781MOL0     O 2963   8.195   3.875   0.411  0.0166  0.1816 -0.6069
  781MOL0     C 2964   8.085   3.822   0.344 -0.8334  0.0992 -0.5133
  781MOL0     C 2965   7.960   3.887   0.336 -0.5606 -0.3324 -0.3446
  781MOL0     C 2966   7.856   3.829   0.261  0.2625  0.8756  0.3811
  781MOL0     C 2967   7.872   3.704   0.200  0.9183 -0.1489  0.5225
  781MOL0     O 2968   7.758   3.674   0.128  1.3023 -0.1931  0.4123
  781MOL0     C 2969   7.729   3.542   0.107  0.5502  0.0859  0.4515
  781MOL0     C 2970   7.585   3.520   0.051  0.2449 -0.4498 -0.1217
  781MOL0     C 2971   7.487   3.545   0.164  0.1131  0.0847 -0.0893
  781MOL0     C 2972   7.345   3.513   0.127 -0.6760  0.8994  0.2797
  781MOL0     C 2973   7.258   3.513   0.254 -0.2002  0.1808 -0.3517
  781MOL0     C 2974   7.235   3.657   0.321  0.0731  0.0221  0.6376
  781MOL0     C 2975   7.156   3.738   0.232  0.0423  0.6809  1.6634
  781MOL0     C 2976   7.052   3.830   0.294  0.7590  0.0703  0.5797
  781MOL0     N 2977   7.027   3.949   0.217  0.2955  0.3393  0.3267
  781MOL0     C 2978   6.969   3.956   0.087  0.3348 -0.6026  0.2512
  781MOL0     C 2979   6.955   4.086   0.048 -0.1923 -0.2974 -0.1931
  781MOL0     C 2980   6.896   4.139  -0.086 -0.4013 -0.0038 -0.1356
  781MOL0     C 2981   6.749   4.137  -0.065 -0.2374  1.0994 -0.9379
  781MOL0     C 2982   6.679   4.191  -0.188  0.5625  0.3567 -0.2398
  781MOL0     C 2983   6.522   4.206  -0.178 -0.1509  0.7299 -0.8581
  781MOL0     O 2984   6.478   4.279  -0.057  0.0633  0.6882 -0.7305
  781MOL0     C 2985   6.523   4.406  -0.036  0.7153  0.1643  0.1688
  781MOL0     C 2986   6.549   4.496  -0.134  0.2951 -1.0108 -0.0337
  781MOL0     C 2987   6.568   4.636  -0.099 -0.7481  0.5231 -0.3068
  781MOL0     C 2988   6.569   4.678   0.035  1.1584  0.1200  0.8900
  781MOL0     C 2989   6.586   4.820   0.080 -0.0305 -0.2814 -0.5037
  781MOL0     O 2990   6.561   4.854   0.209  1.0125  0.0647 -0.0005
  781MOL0     C 2991   6.511   4.973   0.238  0.8765 -0.1507  0.1200
  781MOL0     C 2992   6.593   5.090   0.246  0.3428 -0.2043 -1.0120
  781MOL0     C 2993   6.544   5.206   0.296  0.2132  0.5889 -0.0187
  781MOL0     C 2994   6.407   5.215   0.346  1.0038 -0.5165  1.1049
  781MOL0     O 2995   6.359   5.333   0.396 -0.0634  0.2400 -0.0695
  781MOL0     C 2996   6.406   5.371   0.524 -0.0701  1.4159  0.7167
  781MOL0     C 2997   6.304   5.421   0.620  0.4062 -0.0145  0.2811
  781MOL0     C 2998   6.239   5.544   0.566  0.0009 -0.0196  0.0415
  781MOL0     C 2999   6.168   5.609   0.677 -0.5173  0.7550  0.4713
  781MOL0     C 3000   6.098   5.739   0.633  0.4416  0.9612  0.1240
  781MOL0     C 3001   6.034   5.811   0.754 -0.8300 -0.6240 -0.1073
  781MOL0     C 3002   5.949   5.939   0.713 -0.0744  0.7944  0.9288
  781MOL0     C 3003   5.935   6.031   0.819 -0.2130 -0.4969  0.4267
  781MOL0    Cl 3004   5.918   6.194   0.756 -0.1430  0.2236  0.3483
  781MOL0     C 3005   6.322   5.102   0.317  0.2542 -0.3707  0.5106
  781MOL0     C 3006   6.370   4.981   0.275 -0.7347  0.2731  0.5225
  781MOL0     O 3007   6.597   4.896  -0.015 -0.0050 -0.8093 -0.9559
  781MOL0     C 3008   6.545   4.584   0.125 -0.8936 -0.4484 -0.1496
  781MOL0     C 3009   6.515   4.445   0.095 -0.0194 -0.2290 -0.4720
  781MOL0     N 3010   7.007   4.162   0.152  0.3340  0.1980 -0.2459
  781MOL0     N 3011   7.051   4.075   0.253  0.8710 -0.3393  0.6176
  781MOL0     C 3012   7.987   3.642   0.209 -0.8469  0.3533 -0.3155
  781MOL0     C 3013   8.097   3.695   0.280 -0.2791  0.1144  0.2576
  781MOL0     C 3014   8.292   3.965   0.631 -0.0370 -0.0671 -0.4504
  781MOL0     C 3015   8.347   3.940   0.762  0.9322  0.5987  0.7667
  781MOL0     C 3016   8.418   4.036   0.833 -0.7582 -0.4223  0.1787
  781MOL0     C 3017   8.454   4.152   0.770 -1.2039 -0.5348 -0.3852
  781MOL0     O 3018   8.519   4.243   0.854 -0.3590 -0.3836 -0.8836
  781MOL0     C 3019   8.574   4.365   0.803 -0.1482 -0.0975  0.2389
  781MOL0     C 3020   8.642   4.457   0.907  0.9860 -0.1238  0.4292
  781MOL0     C 3021   8.565   4.489   1.033 -0.0322 -0.0875 -0.2863
  781MOL0     C 3022   8.595   4.617   1.103 -0.2861 -0.3572 -0.3580
  781MOL0     C 3023   8.554   4.728   1.024 -0.4652  0.4396  0.3436
  781MOL0     C 3024   8.511   4.830   0.968  0.9476 -0.0953  0.2969
  781MOL0     C 3025   8.411   4.172   0.639  0.2427  0.5234 -0.4095
  781MOL0     C 3026   8.332   4.085   0.572  0.6280  0.5045  0.4347
  781MOL0     H 3027   7.939   3.981   0.386  1.3354 -1.2254  2.3341
  781MOL0     H 3028   7.764   3.879   0.232 -0.6310 -1.6921 -1.6163
  781MOL0     H 3029   7.738   3.493   0.204 -1.4503  1.0032  1.1601
  781MOL0     H 3030   7.802   3.500   0.038  1.1760  0.0341  1.1368
  781MOL0     H 3031   7.559   3.421   0.013 -2.1249 -0.1595  0.5957
  781MOL0     H 3032   7.573   3.582  -0.038 -0.8190 -1.0757 -0.4285
  781MOL0     H 3033   7.495   3.650   0.195 -0.8729  0.2729 -0.4153
  781MOL0     H 3034   7.519   3.478   0.244 -2.2966  1.5639  2.2869
  781MOL0     H 3035   7.308   3.584   0.052 -1.2048  1.4362  1.0327
  781MOL0     H 3036   7.336   3.417   0.076 -0.0331  1.0797 -0.1841
  781MOL0     H 3037   7.306   3.446   0.326  1.8251  1.0296 -0.8355
  781MOL0     H 3038   7.164   3.464   0.226 -0.2930  0.9192 -1.3916
  781MOL0     H 3039   7.326   3.706   0.358 -1.0203  1.7078  1.2066
  781MOL0     H 3040   7.175   3.647   0.412 -1.7483 -2.6415 -0.7190
  781MOL0     H 3041   7.227   3.809   0.186  0.5605  0.2862  1.8446
  781MOL0     H 3042   7.117   3.673   0.153  3.2326 -1.7670  1.8639
  781MOL0     H 3043   7.068   3.866   0.396  0.1230 -1.3875  1.2174
  781MOL0     H 3044   6.958   3.775   0.290  0.1036  0.9500  2.7608
  781MOL0     H 3045   6.930   3.877   0.024 -2.9675  0.2526  1.0492
  781MOL0     H 3046   6.917   4.069  -0.168 -1.0103  0.7559 -0.9655
  781MOL0     H 3047   6.936   4.234  -0.122  1.1163 -0.5076  0.1542
  781MOL0     H 3048   6.711   4.198   0.017  1.9211 -0.2538  1.1954
  781MOL0     H 3049   6.725   4.033  -0.040 -0.1298  0.7836 -2.0931
  781MOL0     H 3050   6.722   4.284  -0.226 -0.4453  1.2740  0.7903
  781MOL0     H 3051   6.707   4.107  -0.253 -1.3230 -1.5861  1.3098
  781MOL0     H 3052   6.471   4.110  -0.177 -1.1375  1.1895 -2.6317
  781MOL0     H 3053   6.488   4.264  -0.264 -2.7481 -3.1100 -2.6762
  781MOL0     H 3054   6.548   4.473  -0.240 -2.0294  0.2678 -0.3576
  781MOL0     H 3055   6.578   4.714  -0.174  4.0503 -1.1336 -1.7502
  781MOL0     H 3056   6.701   5.077   0.238  0.5047  0.7782 -0.5104
  781MOL0     H 3057   6.620   5.283   0.309  1.9158 -0.1474 -4.1006
  781MOL0     H 3058   6.474   5.455   0.508  1.2393  0.4989  1.2277
  781MOL0     H 3059   6.464   5.292   0.573 -1.9112 -0.0023  0.7414
  781MOL0     H 3060   6.353   5.461   0.709 -1.7794  0.1590  1.4735
  781MOL0     H 3061   6.230   5.347   0.653 -0.5951  0.3842 -1.0001
  781MOL0     H 3062   6.160   5.509   0.499  1.2309  0.8904 -1.9483
  781MOL0     H 3063   6.295   5.609   0.499 -0.1576  0.1264  0.0499
  781MOL0     H 3064   6.095   5.532   0.704 -2.2795  2.2337  0.1734
  781MOL0     H 3065   6.241   5.627   0.756  1.7107  2.8292 -1.8999
  781MOL0     H 3066   6.020   5.714   0.560  0.3099  0.9513  0.2674
  781MOL0     H 3067   6.174   5.802   0.586  2.7409 -0.8772  1.1608
  781MOL0     H 3068   6.120   5.835   0.816 -0.3120 -3.1651  0.2950
  781MOL0     H 3069   5.960   5.753   0.812 -1.9255  2.8165  2.2555
  781MOL0     H 3070   5.996   5.991   0.628 -0.5407 -1.7441 -0.9987
  781MOL0     H 3071   5.851   5.907   0.678  0.3443  0.2246  0.2414
  781MOL0     H 3072   6.018   6.026   0.890  0.1586 -1.1041 -0.0449
  781MOL0     H 3073   5.848   6.002   0.879 -2.0267  1.2251 -1.2042
  781MOL0     H 3074   6.217   5.107   0.342  0.8040  0.0121  2.9376
  781MOL0     H 3075   6.303   4.895   0.281  1.4551 -1.4402  2.4425
  781MOL0     H 3076   6.567   4.601   0.230  0.9881  0.5465 -0.6538
  781MOL0     H 3077   6.495   4.383   0.182  0.4839  1.9403  1.2883
  781MOL0     H 3078   8.010   3.552   0.153 -1.5926 -1.1197  1.6520
  781MOL0     H 3079   8.197   3.655   0.267 -0.7765 -1.2265  0.4471
  781MOL0     H 3080   8.326   3.844   0.808  1.8145 -0.3819 -0.7617
  781MOL0     H 3081   8.449   4.023   0.936 -2.4701 -1.1272  0.6414
  781MOL0     H 3082   8.494   4.414   0.748 -0.6985 -4.5426 -3.5080
  781MOL0     H 3083   8.662   4.348   0.740  2.2989  1.5286  2.9327
  781MOL0     H 3084   8.733   4.407   0.938  1.1904  0.0931  0.1811
  781MOL0     H 3085   8.670   4.551   0.858 -1.2264  0.4322  0.1186
  781MOL0     H 3086   8.601   4.415   1.105 -0.1404 -1.6461 -1.7901
  781MOL0     H 3087   8.456   4.485   1.027 -0.0707 -3.2827  0.9089
  781MOL0     H 3088   8.559   4.616   1.206  0.8605  1.8467  0.1270
  781MOL0     H 3089   8.704   4.633   1.103 -0.4801  1.0931  0.1007
  781MOL0     H 3090   8.476   4.918   0.919  0.7473 -0.2004  0.2494
  781MOL0     H 3091   8.441   4.263   0.588 -0.0626  0.6012 -0.4537
  781MOL0     H 3092   8.298   4.113   0.473  1.8152 -1.6667 -0.6584
  782MOL0     O 3093   8.751   8.232   0.390 -0.1267  0.5618 -0.7514
  782MOL0     C 3094   8.810   8.135   0.338 -0.2839  0.2892  0.5872
  782MOL0     O 3095   8.791   8.093   0.214  0.2046  0.6446  0.0268
  782MOL0     C 3096   8.710   8.156   0.137 -0.6056  0.4585  0.3654
  782MOL0     C 3097   8.756   8.242   0.036  0.1261  0.1414 -1.0916
  782MOL0     C 3098   8.671   8.309  -0.050 -0.6876 -0.3338 -0.6972
  782MOL0     C 3099   8.531   8.307  -0.038  0.3590  0.5724 -0.2595
  782MOL0     O 3100   8.450   8.381  -0.116  0.6958  0.4529  0.0652
  782MOL0     C 3101   8.311   8.357  -0.113  0.5504  0.1027 -0.0820
  782MOL0     C 3102   8.243   8.437  -0.227  0.7084 -0.2131 -0.2788
  782MOL0     C 3103   8.097   8.392  -0.254 -0.7609  0.8248 -0.1940
  782MOL0     C 3104   8.016   8.492  -0.339  0.6011  0.3235 -0.3431
  782MOL0     C 3105   7.895   8.416  -0.381  0.2727  0.6836 -0.1081
  782MOL0     C 3106   7.788   8.512  -0.447 -1.1349  0.2014 -0.7868
  782MOL0     C 3107   7.659   8.446  -0.488  0.4904 -0.8623 -0.0067
  782MOL0     C 3108   7.572   8.505  -0.591 -0.6355  0.2222 -0.0790
  782MOL0     N 3109   7.534   8.647  -0.569 -0.0626 -0.9385  0.2185
  782MOL0     C 3110   7.596   8.758  -0.610 -0.3907 -0.2635 -0.4857
  782MOL0     C 3111   7.528   8.868  -0.559  0.4508  0.4268  0.7812
  782MOL0     C 3112   7.540   9.018  -0.594  0.5150  0.0247 -0.0474
  782MOL0     C 3113   7.509   9.118  -0.481 -0.2569 -0.1154  0.6280
  782MOL0     C 3114   7.535   9.264  -0.532  0.4527 -0.4270 -1.0859
  782MOL0     C 3115   7.410   9.336  -0.578 -0.3977  0.2325  0.0130
  782MOL0     O 3116   7.443   9.459  -0.630 -0.6109  0.1843  0.7078
  782MOL0     C 3117   7.339   9.511  -0.710 -0.0482  1.0627  0.7493
  782MOL0     C 3118   7.366   9.619  -0.798  0.2649  0.7768  0.5072
  782MOL0     C 3119   7.269   9.670  -0.878  0.7010 -0.0346 -0.6626
  782MOL0     C 3120   7.134   9.637  -0.873  0.3534  0.3683  0.2451
  782MOL0     C 3121   7.032   9.687  -0.967  0.0113  0.8003 -0.1722
  782MOL0     O 3122   6.913   9.733  -0.916  0.7765 -0.0802 -0.1757
  782MOL0     C 3123   6.833   9.788  -1.017  0.0058  1.0228 -0.0109
  782MOL0     C 3124   6.738   9.706  -1.080 -0.2338  0.3702  0.3401
  782MOL0     C 3125   6.647   9.770  -1.166  0.2088  0.9486  0.0829
  782MOL0     C 3126   6.653   9.911  -1.187  0.0330 -0.0790  0.0718
  782MOL0     O 3127   6.580   9.973  -1.286  0.3081  0.1448  0.1654
  782MOL0     C 3128   6.541   9.890  -1.396 -0.3021 -0.2531  0.9251
  782MOL0     C 3129   6.491   9.971  -1.522  0.2772 -0.4102  0.5766
  782MOL0     C 3130   6.562  10.111  -1.543  0.0013  1.1591 -0.9870
  782MOL0     C 3131   6.516  10.174  -1.673 -0.2708  0.2511  0.3959
  782MOL0     C 3132   6.418  10.286  -1.650 -0.4642  0.0945 -0.2797
  782MOL0     C 3133   6.361  10.336  -1.779  1.2003 -0.0666  0.7904
  782MOL0     C 3134   6.289  10.482  -1.756 -0.1489  0.6548  0.7447
  782MOL0     C 3135   6.200  10.486  -1.636  0.8645  0.0206  0.2591
  782MOL0    Cl 3136   6.133  10.649  -1.581  0.5764 -0.8039 -0.0657
  782MOL0     C 3137   6.740   9.985  -1.114  0.2288  0.5175  0.2375
  782MOL0     C 3138   6.837   9.922  -1.042 -0.9181 -0.1614 -0.3287
  782MOL0     O 3139   7.070   9.680  -1.084  0.1911 -0.2990  0.4038
  782MOL0     C 3140   7.102   9.548  -0.775  0.3026  0.5826 -0.7700
  782MOL0     C 3141   7.200   9.481  -0.694  0.2405  0.2615 -0.2064
  782MOL0     N 3142   7.420   8.811  -0.505  0.0072 -0.5827  0.8074
  782MOL0     N 3143   7.428   8.684  -0.504 -0.2505  0.4897 -0.3162
  782MOL0     C 3144   8.488   8.225   0.062 -0.3777  0.4957 -0.1213
  782MOL0     C 3145   8.577   8.149   0.145 -0.7746 -0.0983 -0.1223
  782MOL0     C 3146   8.917   8.065   0.415  0.8513 -0.1367 -0.1251
  782MOL0     C 3147   8.889   8.020   0.551 -0.6682  0.5398  0.2230
  782MOL0     C 3148   8.993   7.956   0.610 -0.0370 -0.4642 -0.1932
  782MOL0     C 3149   9.110   7.927   0.547 -0.5642  0.1757  0.1883
  782MOL0     O 3150   9.194   7.840   0.619  0.6661 -0.1340  0.4069
  782MOL0     C 3151   9.329   7.828   0.566  0.3010 -0.6871 -0.6366
  782MOL0     C 3152   9.403   7.961   0.580 -0.3503 -0.9808 -0.5867
  782MOL0     C 3153   9.545   7.923   0.540  0.1158 -0.8156 -0.0996
  782MOL0     C 3154   9.626   8.050   0.544  0.5040 -0.2602  0.8725
  782MOL0     C 3155   9.602   8.148   0.436  0.2028 -0.1404  0.0603
  782MOL0     C 3156   9.590   8.226   0.341  0.3936  0.0823 -0.4984
  782MOL0     C 3157   9.128   7.961   0.410  0.5855 -0.5362 -0.0310
  782MOL0     C 3158   9.029   8.029   0.344 -0.6126 -0.0313 -0.3203
  782MOL0     H 3159   8.863   8.244   0.017  0.3488 -3.4404 -0.8640
  782MOL0     H 3160   8.717   8.368  -0.128  0.4181 -0.7097 -0.3469
  782MOL0     H 3161   8.268   8.376  -0.014  1.7765 -5.2880  1.8149
  782MOL0     H 3162   8.288   8.252  -0.131 -2.6213  1.1852 -3.8426
  782MOL0     H 3163   8.300   8.439  -0.320  0.9906  2.9631 -0.1223
  782MOL0     H 3164   8.228   8.538  -0.189 -2.2525 -1.3021  1.8197
  782MOL0     H 3165   8.039   8.378  -0.163 -1.6117  1.6557 -0.6013
  782MOL0     H 3166   8.110   8.300  -0.312  1.8801  0.1726  1.2597
  782MOL0     H 3167   7.986   8.583  -0.286  2.0998  0.8951 -0.4518
  782MOL0     H 3168   8.077   8.524  -0.424  0.2925  0.2303 -0.6055
  782MOL0     H 3169   7.853   8.358  -0.299  3.2063 -2.8804 -0.8398
  782MOL0     H 3170   7.920   8.353  -0.467  0.0753 -0.1139  0.4145
  782MOL0     H 3171   7.826   8.554  -0.541  1.6694 -0.5857 -0.0925
  782MOL0     H 3172   7.759   8.594  -0.381  2.0659 -0.7129  1.9997
  782MOL0     H 3173   7.671   8.342  -0.521 -1.9911 -0.6228 -1.9527
  782MOL0     H 3174   7.590   8.448  -0.403  1.2047  1.0443  0.5763
  782MOL0     H 3175   7.479   8.453  -0.613 -0.2663  0.8423 -3.6564
  782MOL0     H 3176   7.622   8.489  -0.686 -0.1994  0.6132  0.0766
  782MOL0     H 3177   7.675   8.762  -0.685  1.3406  4.2474  1.2151
  782MOL0     H 3178   7.461   9.042  -0.666  0.4394  2.2551  0.6742
  782MOL0     H 3179   7.639   9.032  -0.639  0.2410  0.0468 -0.6566
  782MOL0     H 3180   7.572   9.097  -0.394  0.7545  0.2648  0.0120
  782MOL0     H 3181   7.405   9.111  -0.449 -0.8977 -1.0003 -1.4821
  782MOL0     H 3182   7.582   9.327  -0.456  0.4027  1.4049 -2.5017
  782MOL0     H 3183   7.596   9.272  -0.622  0.8136  2.3163 -0.6828
  782MOL0     H 3184   7.342   9.343  -0.493  0.3183  1.0720  0.5351
  782MOL0     H 3185   7.365   9.273  -0.656 -1.2665  3.3081 -2.1827
  782MOL0     H 3186   7.468   9.638  -0.828 -0.0241  1.8828  0.1858
  782MOL0     H 3187   7.307   9.722  -0.965 -1.6405  0.5992 -1.3748
  782MOL0     H 3188   6.739   9.598  -1.080  2.1480  0.3085 -1.9026
  782MOL0     H 3189   6.572   9.707  -1.215 -3.9854  5.5175 -0.0851
  782MOL0     H 3190   6.465   9.818  -1.365 -1.3835 -0.4749 -1.9019
  782MOL0     H 3191   6.622   9.824  -1.428 -0.4656  0.6092 -1.4885
  782MOL0     H 3192   6.387  10.001  -1.509  0.4528  0.9816 -0.8850
  782MOL0     H 3193   6.498   9.910  -1.613  2.1792  1.1200 -0.3773
  782MOL0     H 3194   6.668  10.086  -1.553  0.2254  1.7275 -0.1457
  782MOL0     H 3195   6.526  10.171  -1.459 -0.8524 -0.6885  0.0270
  782MOL0     H 3196   6.605  10.214  -1.723 -0.4042 -0.1188 -0.1397
  782MOL0     H 3197   6.474  10.105  -1.747  0.6323  1.3121 -1.1614
  782MOL0     H 3198   6.480  10.358  -1.596  1.1301 -0.7903 -0.8454
  782MOL0     H 3199   6.339  10.257  -1.580  0.8733 -0.0971  1.1932
  782MOL0     H 3200   6.278  10.273  -1.814  0.1466  0.5806  2.0600
  782MOL0     H 3201   6.439  10.340  -1.856  0.4098 -0.2319 -0.0354
  782MOL0     H 3202   6.359  10.565  -1.744 -0.6204  0.8546  2.2601
  782MOL0     H 3203   6.242  10.497  -1.853 -1.0435  0.7163  1.1809
  782MOL0     H 3204   6.264  10.463  -1.550  1.0204  1.0844  0.4432
  782MOL0     H 3205   6.114  10.420  -1.647 -0.6409  1.3351  3.1488
  782MOL0     H 3206   6.745  10.094  -1.122 -1.0332  0.6014  0.2849
  782MOL0     H 3207   6.905   9.989  -0.990 -2.3980  0.6103  0.6793
  782MOL0     H 3208   6.996   9.527  -0.760  0.4655  0.8252  1.0256
  782MOL0     H 3209   7.164   9.411  -0.619  2.9816 -0.7810  0.2456
  782MOL0     H 3210   8.386   8.217   0.098  0.1787 -1.7410  1.1452
  782MOL0     H 3211   8.528   8.085   0.219 -0.5704  0.0367  0.1309
  782MOL0     H 3212   8.793   8.062   0.580 -0.3672  2.0124 -0.7804
  782MOL0     H 3213   8.974   7.913   0.708  0.6699 -0.7866 -0.1931
  782MOL0     H 3214   9.335   7.794   0.462  3.2287  0.1490 -0.8208
  782MOL0     H 3215   9.378   7.750   0.624 -0.8454 -1.6080 -0.8812
  782MOL0     H 3216   9.365   8.041   0.516 -1.0369  0.8931  2.0200
  782MOL0     H 3217   9.412   8.003   0.680  0.3700 -4.2317  0.8629
  782MOL0     H 3218   9.547   7.878   0.440 -4.2601 -0.8622 -0.3250
  782MOL0     H 3219   9.588   7.851   0.611  2.0662 -2.3191 -2.6126
  782MOL0     H 3220   9.628   8.092   0.645  0.5693  1.3817  0.2222
  782MOL0     H 3221   9.730   8.019   0.531 -0.3541 -3.4059  0.5938
  782MOL0     H 3222   9.596   8.289   0.255 -1.0767  3.9269  1.9438
  782MOL0     H 3223   9.213   7.921   0.355 -0.6310  0.1172 -2.5301
  782MOL0     H 3224   9.038   8.048   0.237  4.2394  2.4075  0.2529
  783MOL0     O 3225   0.135   8.110   0.845  0.9081  0.2194  0.8889
  783MOL0     C 3226   0.160   8.042   0.739 -0.0089 -0.1464  0.3992
  783MOL0     O 3227   0.062   7.985   0.658 -0.9662 -0.1952  0.5136
  783MOL0     C 3228  -0.067   7.984   0.699 -0.3116 -1.0454  0.5163
  783MOL0     C 3229  -0.156   8.092   0.702 -1.2006  0.0303  0.3101
  783MOL0     C 3230  -0.284   8.066   0.740  0.3759  1.2628 -0.2055
  783MOL0     C 3231  -0.317   7.933   0.790 -0.2486 -0.4693 -0.1666
  783MOL0     O 3232  -0.448   7.907   0.829  0.0168 -0.0070  0.5133
  783MOL0     C 3233  -0.458   7.903   0.959  0.2473  0.0846  0.8766
  783MOL0     C 3234  -0.596   7.868   1.013  0.3246 -0.9208 -0.1475
  783MOL0     C 3235  -0.621   7.891   1.168  0.1992  0.1827  0.5112
  783MOL0     C 3236  -0.729   7.805   1.227  0.0907  0.3453 -0.3474
  783MOL0     C 3237  -0.868   7.836   1.168  0.2016  0.5771 -0.2200
  783MOL0     C 3238  -0.974   7.769   1.248 -0.6596  0.0770 -0.2249
  783MOL0     C 3239  -1.021   7.864   1.365 -0.3112 -0.2851  1.2755
  783MOL0     C 3240  -1.168   7.845   1.390  0.8375  0.6366 -0.2517
  783MOL0     N 3241  -1.262   7.865   1.287  0.0186 -1.0227  0.4078
  783MOL0     C 3242  -1.309   7.982   1.236 -0.5311  0.1883  0.0911
  783MOL0     C 3243  -1.405   7.956   1.144 -0.4042 -0.8560  0.6114
  783MOL0     C 3244  -1.485   8.054   1.060 -0.9205 -0.5819  0.3360
  783MOL0     C 3245  -1.629   8.014   1.045  0.2625  0.9458 -0.6058
  783MOL0     C 3246  -1.660   7.934   0.907  0.3377 -1.1454 -0.9563
  783MOL0     C 3247  -1.797   7.871   0.913 -0.2737  0.3803 -0.5220
  783MOL0     O 3248  -1.905   7.954   0.947 -0.5632 -0.4668 -0.6472
  783MOL0     C 3249  -2.031   7.896   0.954  0.0336 -0.4190 -0.6446
  783MOL0     C 3250  -2.057   7.768   0.915 -0.3756  0.5171  0.3561
  783MOL0     C 3251  -2.184   7.717   0.911 -0.6306 -0.2561  0.0164
  783MOL0     C 3252  -2.305   7.787   0.954 -0.8463 -0.6521  0.9113
  783MOL0     C 3253  -2.441   7.726   0.949  0.3492  0.8944 -0.1480
  783MOL0     O 3254  -2.543   7.790   1.007  0.3437 -0.5603  0.1441
  783MOL0     C 3255  -2.675   7.772   0.981  0.0704 -0.3109  0.0980
  783MOL0     C 3256  -2.722   7.664   0.900  0.4915  0.0169 -0.7027
  783MOL0     C 3257  -2.852   7.659   0.858 -1.2071  0.6457  0.1173
  783MOL0     C 3258  -2.947   7.741   0.906  0.1365 -0.9580 -0.6614
  783MOL0     O 3259  -3.078   7.736   0.879  0.1158  0.4125 -0.2315
  783MOL0     C 3260  -3.131   7.606   0.927  0.3351 -0.1636 -0.6217
  783MOL0     C 3261  -3.269   7.635   0.995  0.3235 -0.2402  0.1925
  783MOL0     C 3262  -3.380   7.650   0.884  0.9294  0.2574 -0.3809
  783MOL0     C 3263  -3.513   7.674   0.960  0.4445 -0.7601 -0.1544
  783MOL0     C 3264  -3.642   7.670   0.877  0.3028 -0.1408 -0.0687
  783MOL0     C 3265  -3.653   7.542   0.795 -0.5590  0.7312 -0.1942
  783MOL0     C 3266  -3.623   7.413   0.880  0.1546 -0.0148 -0.0458
  783MOL0     C 3267  -3.631   7.299   0.781  0.7372  0.3369  0.2580
  783MOL0    Cl 3268  -3.458   7.286   0.708  0.3375 -0.2106 -0.2436
  783MOL0     C 3269  -2.905   7.851   0.987 -0.1996 -0.2559  0.4688
  783MOL0     C 3270  -2.771   7.872   1.015 -0.3492 -0.1988  0.8565
  783MOL0     O 3271  -2.438   7.611   0.907  0.4636 -0.5364 -0.3447
  783MOL0     C 3272  -2.273   7.921   0.997  0.1777 -0.4446 -0.1586
  783MOL0     C 3273  -2.144   7.970   0.992 -0.1994 -0.2575 -0.0846
  783MOL0     N 3274  -1.401   7.817   1.137  0.6522 -0.1564 -0.2807
  783MOL0     N 3275  -1.335   7.765   1.232  0.2697 -1.0674 -1.0110
  783MOL0     C 3276  -0.223   7.833   0.787  0.2598  0.2672  0.4065
  783MOL0     C 3277  -0.096   7.858   0.747  0.6531  0.2763  0.0829
  783MOL0     C 3278   0.296   8.013   0.699 -0.0015  1.3699 -0.3818
  783MOL0     C 3279   0.326   7.912   0.591 -0.1569 -0.3902 -0.2947
  783MOL0     C 3280   0.459   7.892   0.559 -0.0846 -0.1765  0.2494
  783MOL0     C 3281   0.558   7.966   0.617 -0.2379  0.4111 -0.8722
  783MOL0     O 3282   0.685   7.941   0.588 -0.0906  0.0481 -0.3185
  783MOL0     C 3283   0.741   8.020   0.487  0.6965  0.1591  0.2185
  783MOL0     C 3284   0.745   7.951   0.355  0.4323  0.5745 -0.7193
  783MOL0     C 3285   0.809   8.042   0.254  0.8127 -0.2539  0.7198
  783MOL0     C 3286   0.962   8.061   0.292  0.9983  0.0412  0.0932
  783MOL0     C 3287   0.999   8.201   0.301 -0.0937 -0.4670  0.0611
  783MOL0     C 3288   1.040   8.315   0.294  0.0660  0.4249  0.2356
  783MOL0     C 3289   0.527   8.061   0.714 -0.3120 -0.0009 -0.8847
  783MOL0     C 3290   0.400   8.081   0.756 -0.2847  1.1228 -0.5611
  783MOL0     H 3291  -0.112   8.187   0.674  1.2435 -0.6883  1.3621
  783MOL0     H 3292  -0.357   8.147   0.744 -0.7269  0.3952 -1.8341
  783MOL0     H 3293  -0.439   8.004   0.997  0.8538 -0.1937  1.3299
  783MOL0     H 3294  -0.385   7.831   0.998  2.5795 -0.7449 -4.1698
  783MOL0     H 3295  -0.596   7.766   0.974  2.7215 -0.4786 -1.4931
  783MOL0     H 3296  -0.676   7.932   0.975 -0.8999 -1.3601  1.5569
  783MOL0     H 3297  -0.642   7.998   1.178  2.3701  0.8500 -1.2289
  783MOL0     H 3298  -0.529   7.870   1.224  0.2460 -0.1085  0.3288
  783MOL0     H 3299  -0.707   7.698   1.216 -3.0021 -0.7292  2.1897
  783MOL0     H 3300  -0.735   7.819   1.336 -0.5393 -5.8647  0.8010
  783MOL0     H 3301  -0.867   7.797   1.065  4.0236 -0.1922 -0.0604
  783MOL0     H 3302  -0.868   7.945   1.157  2.0463  0.4630 -2.3326
  783MOL0     H 3303  -0.938   7.679   1.299  2.2557  1.3219  0.1195
  783MOL0     H 3304  -1.054   7.742   1.177  2.4270  0.2843 -4.1386
  783MOL0     H 3305  -0.959   7.833   1.450 -1.3985 -0.0169  2.1861
  783MOL0     H 3306  -0.989   7.963   1.331  2.6461 -1.8381 -0.8963
  783MOL0     H 3307  -1.203   7.922   1.459 -1.6897 -0.9339  0.3580
  783MOL0     H 3308  -1.175   7.741   1.424  1.4511  0.5831 -0.2725
  783MOL0     H 3309  -1.269   8.079   1.261  0.4919  0.1931 -1.4280
  783MOL0     H 3310  -1.433   8.066   0.965  3.1080 -0.4016  2.3641
  783MOL0     H 3311  -1.475   8.147   1.116  0.8196 -1.0124  0.8103
  783MOL0     H 3312  -1.682   8.110   1.035 -1.7834 -0.1242 -0.4903
  783MOL0     H 3313  -1.661   7.949   1.127  4.2811 -0.7282 -0.1414
  783MOL0     H 3314  -1.666   8.001   0.820  1.8174  2.0816  1.2146
  783MOL0     H 3315  -1.581   7.860   0.889  1.1540 -0.5887  0.2238
  783MOL0     H 3316  -1.791   7.795   0.992  2.1980  0.0668 -0.9440
  783MOL0     H 3317  -1.814   7.816   0.820 -2.4169 -0.0894  0.0900
  783MOL0     H 3318  -1.988   7.693   0.878 -0.5286  0.9411 -0.8361
  783MOL0     H 3319  -2.199   7.614   0.880 -3.4925 -0.0316  0.3638
  783MOL0     H 3320  -2.659   7.580   0.870  2.6612  1.9085 -1.7022
  783MOL0     H 3321  -2.893   7.581   0.796 -2.9061  0.5567  1.2877
  783MOL0     H 3322  -3.061   7.548   0.988  0.6726 -1.3075 -2.0350
  783MOL0     H 3323  -3.138   7.547   0.835  2.4243  1.9393 -2.2479
  783MOL0     H 3324  -3.268   7.731   1.048  1.6813  0.7450 -1.5426
  783MOL0     H 3325  -3.312   7.560   1.063 -0.2087  0.9745  1.2514
  783MOL0     H 3326  -3.380   7.550   0.839  3.4907 -0.7314  1.5487
  783MOL0     H 3327  -3.349   7.729   0.815  1.8655 -0.8177 -1.2304
  783MOL0     H 3328  -3.506   7.611   1.049  3.3587  0.2807  0.4686
  783MOL0     H 3329  -3.513   7.781   0.985  0.2269 -1.0551  1.1435
  783MOL0     H 3330  -3.649   7.758   0.813  3.6519 -0.4963 -1.1141
  783MOL0     H 3331  -3.716   7.657   0.956  1.4720 -1.7536  0.8297
  783MOL0     H 3332  -3.582   7.549   0.711 -0.4571 -0.7661 -0.2636
  783MOL0     H 3333  -3.754   7.541   0.754 -0.5526  3.3818 -0.4102
  783MOL0     H 3334  -3.517   7.422   0.909  0.9480  1.3746 -3.0120
  783MOL0     H 3335  -3.691   7.401   0.964  1.4912 -1.6344  0.8722
  783MOL0     H 3336  -3.711   7.325   0.712 -0.7531  0.2630  1.8964
  783MOL0     H 3337  -3.658   7.206   0.832 -4.2197  0.3856 -1.7820
  783MOL0     H 3338  -2.980   7.918   1.028 -0.3562 -0.4660  0.5305
  783MOL0     H 3339  -2.741   7.970   1.051 -2.7491  2.0486 -2.6504
  783MOL0     H 3340  -2.345   8.000   1.020  0.2709 -0.1830 -0.7484
  783MOL0     H 3341  -2.122   8.075   1.010 -0.8793  0.6382 -3.6345
  783MOL0     H 3342  -0.247   7.739   0.837  1.6662  0.9245  2.4862
  783MOL0     H 3343  -0.019   7.783   0.752 -1.3561 -2.1707 -2.4989
  783MOL0     H 3344   0.254   7.863   0.526  2.2318 -1.9990 -1.8475
  783MOL0     H 3345   0.491   7.816   0.489 -0.4028 -0.0293 -0.0586
  783MOL0     H 3346   0.839   8.050   0.525  0.6089 -1.9798  2.3782
  783MOL0     H 3347   0.695   8.119   0.494 -0.4814 -0.4829  2.6058
  783MOL0     H 3348   0.814   7.867   0.371 -1.1807 -0.8787 -1.0575
  783MOL0     H 3349   0.642   7.923   0.329  0.3410 -1.3587  1.4472
  783MOL0     H 3350   0.762   8.139   0.243  1.1124  0.2343  3.1620
  783MOL0     H 3351   0.810   7.998   0.154 -1.4478  0.5396  0.3114
  783MOL0     H 3352   1.002   8.005   0.376  0.1724 -1.7525 -0.6619
  783MOL0     H 3353   1.015   8.018   0.207  0.0609 -1.8838  0.4162
  783MOL0     H 3354   1.093   8.408   0.281  1.4558 -0.5151 -1.3498
  783MOL0     H 3355   0.614   8.102   0.764  0.4830 -2.9635  0.3593
  783MOL0     H 3356   0.379   8.142   0.843 -0.3280  0.8863 -0.4062
  784MOL0     O 3357   5.871   7.572   5.042  0.0410 -0.4730 -0.1173
  784MOL0     C 3358   5.901   7.694   5.074  0.4849  0.4236  0.0054
  784MOL0     O 3359   5.807   7.800   5.097  0.9845 -0.8006  0.0196
  784MOL0     C 3360   5.667   7.774   5.116  0.4087 -0.0234  1.4814
  784MOL0     C 3361   5.585   7.667   5.158 -0.1460  0.5343 -0.2080
  784MOL0     C 3362   5.449   7.682   5.172  0.1059  0.6346 -0.5046
  784MOL0     C 3363   5.389   7.807   5.160  0.9290 -0.1590 -0.2330
  784MOL0     O 3364   5.253   7.800   5.201  0.3715  0.2368  0.0649
  784MOL0     C 3365   5.193   7.927   5.201  0.2315  0.5043  0.6018
  784MOL0     C 3366   5.080   7.903   5.306 -0.2983  0.2600 -0.1058
  784MOL0     C 3367   5.134   7.905   5.450 -0.5425  0.6764  0.2882
  784MOL0     C 3368   5.032   7.868   5.558 -0.0679 -0.8182 -0.0407
  784MOL0     C 3369   5.080   7.891   5.705 -0.6885 -0.3529  0.7109
  784MOL0     C 3370   4.976   7.839   5.803 -0.6482  0.0653 -0.1640
  784MOL0     C 3371   5.046   7.791   5.929  0.2190  0.5972 -0.6879
  784MOL0     C 3372   5.076   7.902   6.031  0.8512 -0.4405 -0.2828
  784MOL0     N 3373   4.956   7.982   6.073 -1.0175 -0.0409 -0.5924
  784MOL0     C 3374   4.926   8.109   6.036  0.5640  0.2964  0.2551
  784MOL0     C 3375   4.816   8.140   6.117  0.5769 -0.6780  1.2722
  784MOL0     C 3376   4.753   8.277   6.093 -0.8480 -0.2521 -0.1212
  784MOL0     C 3377   4.698   8.297   5.953  0.0191 -0.0845  0.0659
  784MOL0     C 3378   4.596   8.409   5.938 -1.0556 -0.6079 -0.1693
  784MOL0     C 3379   4.461   8.351   5.907 -0.8514  0.3904 -0.2489
  784MOL0     O 3380   4.380   8.302   6.010 -0.1296  0.0292 -0.7111
  784MOL0     C 3381   4.283   8.384   6.071 -0.3884 -0.7846  1.1908
  784MOL0     C 3382   4.210   8.327   6.167 -0.1913 -0.2271  0.4373
  784MOL0     C 3383   4.102   8.388   6.226  0.4167  0.8785 -0.2935
  784MOL0     C 3384   4.082   8.525   6.196 -0.7292 -1.2799 -0.0683
  784MOL0     C 3385   3.970   8.606   6.246 -1.0264  0.5373  0.0883
  784MOL0     O 3386   3.961   8.739   6.228  0.0367 -0.9464  0.1711
  784MOL0     C 3387   3.880   8.814   6.315  0.4624  0.2647 -0.3537
  784MOL0     C 3388   3.838   8.774   6.443  0.0896  0.9442 -0.0505
  784MOL0     C 3389   3.758   8.859   6.523 -0.3672 -0.4072  0.4586
  784MOL0     C 3390   3.732   8.989   6.487 -0.1203 -0.3254  0.5033
  784MOL0     O 3391   3.655   9.075   6.563 -0.2318 -0.1685  0.7401
  784MOL0     C 3392   3.616   9.048   6.696 -0.4766 -0.1987  0.0479
  784MOL0     C 3393   3.487   8.969   6.702  0.8337  0.2434 -0.4324
  784MOL0     C 3394   3.445   8.909   6.839 -0.7601  0.3198  0.6073
  784MOL0     C 3395   3.553   8.814   6.907  0.5865  0.6104  0.5452
  784MOL0     C 3396   3.501   8.728   7.029  0.6530 -1.0408 -0.3465
  784MOL0     C 3397   3.505   8.809   7.159 -0.7031  0.7555  0.2370
  784MOL0     C 3398   3.430   8.744   7.270  0.9167  0.1047 -0.1857
  784MOL0     C 3399   3.452   8.818   7.405 -0.1049  0.7782  0.8745
  784MOL0    Cl 3400   3.619   8.788   7.482  0.1521  0.2613 -0.4798
  784MOL0     C 3401   3.769   9.026   6.358  0.9624 -0.6155  0.2325
  784MOL0     C 3402   3.850   8.944   6.286 -0.3502 -0.2794  0.4044
  784MOL0     O 3403   3.889   8.530   6.301 -0.2494 -0.3568  0.5354
  784MOL0     C 3404   4.170   8.591   6.108 -0.1543  1.0623 -0.4889
  784MOL0     C 3405   4.270   8.521   6.036  0.5721 -0.4776  0.0602
  784MOL0     N 3406   4.794   8.040   6.211  0.6802 -0.5575  0.0947
  784MOL0     N 3407   4.877   7.947   6.176 -0.5803  0.1159 -0.0034
  784MOL0     C 3408   5.462   7.918   5.117  0.6130 -1.2753 -0.7733
  784MOL0     C 3409   5.601   7.902   5.101  0.2660 -0.9048 -0.6634
  784MOL0     C 3410   6.041   7.716   5.091 -0.3343  0.9494  0.6167
  784MOL0     C 3411   6.138   7.629   5.143  0.4888 -1.0779  0.2426
  784MOL0     C 3412   6.271   7.655   5.130 -0.6627 -0.5458  0.0455
  784MOL0     C 3413   6.311   7.783   5.082 -0.4549 -0.5249 -0.2704
  784MOL0     O 3414   6.442   7.823   5.071  0.5819  0.1492  0.4294
  784MOL0     C 3415   6.544   7.726   5.040  0.3951  0.1631 -0.6393
  784MOL0     C 3416   6.589   7.661   5.168 -0.4016 -0.0482 -0.5158
  784MOL0     C 3417   6.641   7.523   5.160  0.6322 -0.9219 -0.7629
  784MOL0     C 3418   6.776   7.518   5.090 -0.0952  0.1785 -0.2435
  784MOL0     C 3419   6.818   7.379   5.116 -0.0896  0.5977 -0.6566
  784MOL0     C 3420   6.838   7.261   5.150 -0.0517 -0.6203  0.2575
  784MOL0     C 3421   6.214   7.869   5.025  0.3464  0.3537 -0.1293
  784MOL0     C 3422   6.078   7.842   5.052 -0.0150  0.7087  1.8393
  784MOL0     H 3423   5.635   7.577   5.193 -0.2789  1.8863  4.0066
  784MOL0     H 3424   5.381   7.603   5.200 -1.2818  0.9079 -2.8395
  784MOL0     H 3425   5.145   7.947   5.104  1.5587  0.7635 -0.0322
  784MOL0     H 3426   5.241   8.019   5.234  1.7592  0.4838 -1.3613
  784MOL0     H 3427   5.016   7.817   5.279 -3.0613  1.6330  1.5938
  784MOL0     H 3428   5.024   7.996   5.291  3.1161  2.0906 -3.1562
  784MOL0     H 3429   5.175   8.007   5.457  0.5711  0.1883  1.1562
  784MOL0     H 3430   5.224   7.843   5.453 -1.0931 -0.1874 -0.3428
  784MOL0     H 3431   4.939   7.923   5.539 -0.5208 -2.6189 -4.1130
  784MOL0     H 3432   4.994   7.766   5.548 -2.4991 -0.1326  1.3653
  784MOL0     H 3433   5.079   8.000   5.711 -0.6191 -0.1092 -2.2319
  784MOL0     H 3434   5.175   7.842   5.725 -1.3454 -1.9702  0.0177
  784MOL0     H 3435   4.921   7.754   5.762  0.6602 -0.5364 -0.7398
  784MOL0     H 3436   4.908   7.922   5.826  0.6787  0.5575  2.3876
  784MOL0     H 3437   4.979   7.724   5.984 -0.9357  2.8998  0.8737
  784MOL0     H 3438   5.136   7.735   5.901  0.6083  1.2693 -0.8127
  784MOL0     H 3439   5.146   7.969   5.979 -0.8837  2.1866  0.5289
  784MOL0     H 3440   5.126   7.866   6.121  1.1761 -2.2207 -1.1429
  784MOL0     H 3441   4.986   8.174   5.973 -0.8785  0.7309 -0.7282
  784MOL0     H 3442   4.831   8.346   6.125 -0.5239 -0.1030 -1.2000
  784MOL0     H 3443   4.668   8.271   6.162 -0.7664 -2.3297 -0.1286
  784MOL0     H 3444   4.663   8.206   5.904  1.7294 -1.2275  0.8512
  784MOL0     H 3445   4.790   8.314   5.896  1.1174 -0.3876  1.6575
  784MOL0     H 3446   4.592   8.475   6.025  0.2666  1.9327 -1.8822
  784MOL0     H 3447   4.625   8.476   5.856 -0.3220 -0.9435 -0.1899
  784MOL0     H 3448   4.483   8.271   5.836 -1.7372 -1.3234  1.3000
  784MOL0     H 3449   4.408   8.426   5.848 -0.8991  0.0844 -0.5961
  784MOL0     H 3450   4.246   8.225   6.182  0.8485  0.2110  0.9884
  784MOL0     H 3451   4.034   8.329   6.287 -0.9898 -0.6597 -3.1588
  784MOL0     H 3452   3.873   8.678   6.480  1.6319  1.3456 -0.4006
  784MOL0     H 3453   3.727   8.818   6.619  1.8516 -2.9231  0.2314
  784MOL0     H 3454   3.598   9.145   6.743  1.9325  0.5112 -0.3599
  784MOL0     H 3455   3.694   8.999   6.757 -0.6609 -0.3176  0.1900
  784MOL0     H 3456   3.493   8.881   6.637 -1.9209  0.5712 -1.2577
  784MOL0     H 3457   3.404   9.026   6.660  0.8767  1.0669  0.5526
  784MOL0     H 3458   3.348   8.856   6.838  0.1981 -1.5397  0.9537
  784MOL0     H 3459   3.435   8.995   6.906  0.1226 -1.1483  2.7393
  784MOL0     H 3460   3.590   8.746   6.830  0.8044  0.7149  0.5561
  784MOL0     H 3461   3.644   8.867   6.937 -0.7194  2.7846  0.8987
  784MOL0     H 3462   3.548   8.630   7.045  2.0626 -0.4853 -0.9065
  784MOL0     H 3463   3.399   8.699   7.001 -0.7868  1.7197  1.6481
  784MOL0     H 3464   3.463   8.909   7.145 -1.2151  0.1941 -3.1413
  784MOL0     H 3465   3.606   8.821   7.200 -0.9780  0.4705  1.0192
  784MOL0     H 3466   3.326   8.756   7.239  0.2508  0.6532  2.0581
  784MOL0     H 3467   3.448   8.637   7.281  0.9865  0.0012 -1.2428
  784MOL0     H 3468   3.370   8.798   7.474 -1.2677  1.4338 -0.2870
  784MOL0     H 3469   3.449   8.925   7.384 -0.7299  0.4368 -0.9464
  784MOL0     H 3470   3.760   9.122   6.309 -1.1748 -1.5666 -1.4157
  784MOL0     H 3471   3.882   8.957   6.183 -0.1075 -2.4823  0.1621
  784MOL0     H 3472   4.135   8.692   6.087 -1.6145  0.5754 -0.5042
  784MOL0     H 3473   4.317   8.584   5.961  0.2245  0.4194  0.5823
  784MOL0     H 3474   5.426   8.018   5.094  1.7658 -0.8176 -0.6704
  784MOL0     H 3475   5.660   7.988   5.069 -0.9579 -0.4355 -1.7474
  784MOL0     H 3476   6.118   7.531   5.186  2.8270 -2.0244 -0.6905
  784MOL0     H 3477   6.342   7.575   5.145 -1.3695 -1.5165 -1.4942
  784MOL0     H 3478   6.628   7.778   4.993  1.6354 -2.2074 -1.1628
  784MOL0     H 3479   6.505   7.649   4.973  1.1590 -0.3711 -0.4865
  784MOL0     H 3480   6.664   7.727   5.212  0.5679 -1.2618 -0.3067
  784MOL0     H 3481   6.516   7.674   5.248  0.8211  0.1843  0.5832
  784MOL0     H 3482   6.576   7.446   5.118 -0.2113 -2.5041  2.9996
  784MOL0     H 3483   6.655   7.487   5.262  0.6532  0.6745 -0.1686
  784MOL0     H 3484   6.773   7.526   4.981  1.3459 -0.8940 -0.3974
  784MOL0     H 3485   6.847   7.593   5.124 -2.7696  3.6728 -1.7363
  784MOL0     H 3486   6.854   7.164   5.193  0.2073 -0.4677  0.5117
  784MOL0     H 3487   6.251   7.968   5.003 -1.5340  0.6918 -2.1205
  784MOL0     H 3488   6.007   7.915   5.014  1.1705  2.4380  2.7629
  785MOL0     O 3489  11.216   6.107  10.959 -0.3505 -0.0901 -0.7968
  785MOL0     C 3490  11.227   5.981  10.971  0.4634  0.4037  0.2365
  785MOL0     O 3491  11.343   5.919  11.013 -0.5905  1.0466  0.5041
  785MOL0     C 3492  11.441   5.995  11.064  0.6865  0.8712  0.1437
  785MOL0     C 3493  11.564   5.992  10.992  0.2134  0.0935 -0.5180
  785MOL0     C 3494  11.677   6.056  11.041 -0.6819  0.0214 -0.7696
  785MOL0     C 3495  11.674   6.131  11.153 -0.3965  0.2631 -0.0334
  785MOL0     O 3496  11.792   6.181  11.209  0.6183  0.0527  0.1748
  785MOL0     C 3497  11.885   6.229  11.107  0.4407 -0.0064 -0.2013
  785MOL0     C 3498  11.862   6.388  11.091 -0.0969  0.2122 -0.1961
  785MOL0     C 3499  11.955   6.467  10.995  0.9894  1.5594 -1.0859
  785MOL0     C 3500  12.105   6.444  11.010  0.0761  0.5795 -0.0929
  785MOL0     C 3501  12.188   6.494  10.897  0.0278  0.7189 -0.5309
  785MOL0     C 3502  12.338   6.461  10.901 -0.4188  0.7431 -0.4069
  785MOL0     C 3503  12.409   6.466  10.778 -0.2445  0.1931  0.6612
  785MOL0     C 3504  12.421   6.615  10.754 -0.3908 -0.0978  0.4248
  785MOL0     N 3505  12.513   6.643  10.644 -0.0972 -0.1956  0.5114
  785MOL0     C 3506  12.472   6.704  10.526  0.1475 -1.4059 -0.2016
  785MOL0     C 3507  12.590   6.733  10.458  0.3427  0.1736 -0.6731
  785MOL0     C 3508  12.613   6.802  10.318 -1.3933  0.5803 -0.0305
  785MOL0     C 3509  12.638   6.698  10.199  0.1678  0.0562 -0.0564
  785MOL0     C 3510  12.757   6.611  10.225 -0.6638  0.6785  0.3798
  785MOL0     C 3511  12.883   6.691  10.269 -0.1964  0.9278  0.4146
  785MOL0     O 3512  12.999   6.612  10.245  0.1855  0.1603  0.1496
  785MOL0     C 3513  13.116   6.671  10.273  0.5332  0.0856  0.7237
  785MOL0     C 3514  13.157   6.776  10.186 -0.1372 -0.4334 -0.3012
  785MOL0     C 3515  13.278   6.847  10.211  0.6589 -0.6010  0.5272
  785MOL0     C 3516  13.360   6.808  10.319 -0.6168 -0.5984  0.3196
  785MOL0     C 3517  13.491   6.869  10.340 -0.5320  1.0938 -0.5297
  785MOL0     O 3518  13.588   6.800  10.424  0.1535  0.0523 -0.4718
  785MOL0     C 3519  13.718   6.855  10.428  0.0032  0.0410  0.4145
  785MOL0     C 3520  13.823   6.760  10.423  1.2891  0.2695 -0.0398
  785MOL0     C 3521  13.951   6.802  10.415 -0.2732 -0.1164  0.0172
  785MOL0     C 3522  13.982   6.943  10.406 -0.9508 -0.1132  0.9706
  785MOL0     O 3523  14.111   6.986  10.381  0.2166 -0.4529 -0.1899
  785MOL0     C 3524  14.217   6.918  10.456  0.1625  0.3896  0.6991
  785MOL0     C 3525  14.353   6.979  10.402  0.0985  0.0829 -0.9650
  785MOL0     C 3526  14.360   6.984  10.253  0.1193  0.0853  0.9066
  785MOL0     C 3527  14.383   6.841  10.206  0.1437 -0.4813  0.2560
  785MOL0     C 3528  14.391   6.821  10.054  0.6663 -0.2627 -1.2789
  785MOL0     C 3529  14.509   6.885   9.978 -0.5025  0.1110 -0.0945
  785MOL0     C 3530  14.648   6.821  10.015 -0.7612 -0.7800 -0.4119
  785MOL0     C 3531  14.775   6.870   9.937  0.4816 -0.8841  0.6029
  785MOL0    Cl 3532  14.929   6.822  10.009  0.2731 -0.2463 -0.1694
  785MOL0     C 3533  13.874   7.034  10.416 -0.0559 -0.0804  0.2891
  785MOL0     C 3534  13.744   6.991  10.434  1.3633 -0.5628  0.2424
  785MOL0     O 3535  13.515   6.972  10.279 -0.1009  0.0505 -0.1259
  785MOL0     C 3536  13.314   6.716  10.413  0.7361  0.3237 -0.1082
  785MOL0     C 3537  13.191   6.639  10.384 -0.0217 -0.4561  0.6123
  785MOL0     N 3538  12.697   6.717  10.539  0.3567 -0.1890 -0.9728
  785MOL0     N 3539  12.648   6.663  10.650 -0.6899  0.6658 -0.1838
  785MOL0     C 3540  11.546   6.146  11.217  0.3312 -1.2994  0.1094
  785MOL0     C 3541  11.430   6.085  11.174 -0.5764  0.1465  0.1576
  785MOL0     C 3542  11.105   5.903  10.947 -0.3878  0.1540  0.4972
  785MOL0     C 3543  11.091   5.770  10.993  0.1574 -0.2644  0.5770
  785MOL0     C 3544  10.973   5.690  10.974 -0.0586 -0.8413 -0.2222
  785MOL0     C 3545  10.870   5.736  10.901 -0.2898  0.0629  1.2692
  785MOL0     O 3546  10.767   5.638  10.886 -0.0875 -0.4069  0.6903
  785MOL0     C 3547  10.652   5.665  10.810  0.6172  0.3724 -0.0645
  785MOL0     C 3548  10.621   5.536  10.733 -1.0913 -0.2476 -0.1719
  785MOL0     C 3549  10.578   5.420  10.831  0.3661  0.1700  0.1309
  785MOL0     C 3550  10.565   5.281  10.762  0.2750 -0.5824 -0.2061
  785MOL0     C 3551  10.541   5.163  10.856  0.8641 -0.8233  1.1572
  785MOL0     C 3552  10.506   5.077  10.934  0.4424  0.8007  0.7199
  785MOL0     C 3553  10.879   5.869  10.838 -0.3091  0.2614  0.5661
  785MOL0     C 3554  10.992   5.947  10.874 -1.2511  0.2727  0.0594
  785MOL0     H 3555  11.578   5.938  10.900 -3.1033  1.3664 -1.8979
  785MOL0     H 3556  11.762   6.037  10.977  0.3863  1.0687  0.3055
  785MOL0     H 3557  11.881   6.178  11.010  1.2248  3.0580 -1.9940
  785MOL0     H 3558  11.980   6.214  11.158 -0.3369  2.7222  2.3424
  785MOL0     H 3559  11.898   6.441  11.180 -1.0683  1.0139 -0.2661
  785MOL0     H 3560  11.759   6.409  11.062 -0.5338 -1.9500 -0.3673
  785MOL0     H 3561  11.942   6.575  11.009 -0.7547  1.1790  0.7100
  785MOL0     H 3562  11.919   6.444  10.894  2.1606  1.4168 -1.4833
  785MOL0     H 3563  12.146   6.492  11.099  1.5763  0.4531 -0.6849
  785MOL0     H 3564  12.113   6.336  11.019 -0.4251  0.7091  3.1176
  785MOL0     H 3565  12.168   6.601  10.884 -0.2807  0.9053  1.2888
  785MOL0     H 3566  12.130   6.457  10.812 -2.6418  1.3621  0.8702
  785MOL0     H 3567  12.367   6.365  10.945  1.4332  1.9567  1.2318
  785MOL0     H 3568  12.389   6.527  10.972  2.2638  0.7477 -2.2002
  785MOL0     H 3569  12.501   6.411  10.798 -2.0380 -2.6884  1.5852
  785MOL0     H 3570  12.361   6.412  10.696  1.9353  1.2420 -1.4059
  785MOL0     H 3571  12.465   6.674  10.836  4.2560  1.9968 -3.0971
  785MOL0     H 3572  12.325   6.658  10.726  0.2353 -0.4553 -2.5092
  785MOL0     H 3573  12.374   6.741  10.497 -0.0517  1.4610  3.3070
  785MOL0     H 3574  12.704   6.862  10.330 -0.9088 -0.3307  1.0859
  785MOL0     H 3575  12.528   6.863  10.287 -0.2646  1.4600 -1.5341
  785MOL0     H 3576  12.648   6.768  10.116 -1.2663 -3.2481 -3.2855
  785MOL0     H 3577  12.547   6.638  10.197  0.4269 -0.4416  1.3919
  785MOL0     H 3578  12.742   6.550  10.315 -0.1110 -1.0650 -0.6445
  785MOL0     H 3579  12.777   6.542  10.142  0.7044 -0.6606  1.7506
  785MOL0     H 3580  12.880   6.719  10.375 -0.2547 -0.0160  0.6700
  785MOL0     H 3581  12.897   6.778  10.204  3.3955  0.9442  0.9768
  785MOL0     H 3582  13.087   6.803  10.107 -2.1991 -0.1424  1.5072
  785MOL0     H 3583  13.303   6.923  10.138 -2.0084 -1.2473 -1.1983
  785MOL0     H 3584  13.794   6.657  10.412  1.0106  0.3978 -0.5208
  785MOL0     H 3585  14.031   6.729  10.406  1.5275  2.0406 -4.0633
  785MOL0     H 3586  14.216   6.809  10.440  3.5229  0.5503 -1.8934
  785MOL0     H 3587  14.211   6.929  10.564 -2.4170  0.3306  0.6119
  785MOL0     H 3588  14.441   6.937  10.451 -2.8557 -0.8098  4.4178
  785MOL0     H 3589  14.350   7.084  10.433  0.8337 -0.8997  3.0564
  785MOL0     H 3590  14.438   7.053  10.220 -0.4009 -0.6398 -2.1150
  785MOL0     H 3591  14.274   7.033  10.207  1.2297  1.3219  0.0980
  785MOL0     H 3592  14.464   6.788  10.257 -1.5352  1.1104  5.2242
  785MOL0     H 3593  14.297   6.783  10.243 -0.9790  1.5886  1.0454
  785MOL0     H 3594  14.303   6.865  10.007  0.6080 -0.5138 -1.4041
  785MOL0     H 3595  14.377   6.714  10.037  1.1138 -0.3755 -0.9435
  785MOL0     H 3596  14.505   6.992   9.999  0.1303 -0.1802  1.7146
  785MOL0     H 3597  14.493   6.870   9.871  0.3050  0.1012 -0.2233
  785MOL0     H 3598  14.675   6.834  10.120  3.5473  0.9304 -1.5010
  785MOL0     H 3599  14.634   6.714   9.998 -1.5040 -0.6879 -0.4264
  785MOL0     H 3600  14.779   6.978   9.922 -0.8793 -0.9253 -0.2493
  785MOL0     H 3601  14.778   6.827   9.836  2.2376  0.9794 -0.2135
  785MOL0     H 3602  13.893   7.141  10.414 -1.9291  0.4550  3.6325
  785MOL0     H 3603  13.663   7.063  10.436  0.9579 -0.9859  2.4552
  785MOL0     H 3604  13.375   6.678  10.493  0.3721  1.2369  0.6291
  785MOL0     H 3605  13.158   6.556  10.444 -1.9684 -1.1619 -1.3167
  785MOL0     H 3606  11.527   6.213  11.300 -0.6274  0.3313 -1.3402
  785MOL0     H 3607  11.344   6.106  11.238  0.8411  1.9327  1.6005
  785MOL0     H 3608  11.171   5.746  11.062  0.8191 -4.9766 -1.4482
  785MOL0     H 3609  10.935   5.601  11.023 -2.3867  0.7035  0.9809
  785MOL0     H 3610  10.660   5.757  10.752  1.4050  1.3585  1.5366
  785MOL0     H 3611  10.571   5.695  10.877  0.2668  0.0418 -0.3346
  785MOL0     H 3612  10.538   5.554  10.664 -0.3962  1.5959 -0.5878
  785MOL0     H 3613  10.713   5.509  10.681 -0.3411  0.5039  0.7311
  785MOL0     H 3614  10.477   5.447  10.864  0.3161 -0.3960  0.4609
  785MOL0     H 3615  10.638   5.405  10.921  0.5574 -1.2059 -0.2035
  785MOL0     H 3616  10.482   5.288  10.691  1.2334  0.2670 -1.2829
  785MOL0     H 3617  10.655   5.250  10.708 -1.0197 -3.9927 -0.6888
  785MOL0     H 3618  10.472   5.002  11.002 -0.0980  1.7547  1.5274
  785MOL0     H 3619  10.795   5.920  10.792 -1.0870  0.5765  2.2550
  785MOL0     H 3620  10.982   6.043  10.825 -1.0683 -0.1430 -0.8205
  786MOL0     O 3621   4.582   9.658  10.262  0.3621  0.5517  0.2606
  786MOL0     C 3622   4.484   9.588  10.248  0.0986 -0.1782 -0.2243
  786MOL0     O 3623   4.445   9.501  10.339 -0.2698 -0.0193  0.5733
  786MOL0     C 3624   4.487   9.517  10.472  0.3997  0.6058  0.6983
  786MOL0     C 3625   4.414   9.603  10.551  0.6434 -0.2415 -0.0347
  786MOL0     C 3626   4.445   9.607  10.684  0.2532  0.7149  0.2591
  786MOL0     C 3627   4.547   9.522  10.737  1.0721  0.2311 -0.2675
  786MOL0     O 3628   4.580   9.509  10.870 -0.4536  0.3175  0.7641
  786MOL0     C 3629   4.488   9.553  10.967 -0.5379 -0.6030 -0.0339
  786MOL0     C 3630   4.533   9.508  11.111  1.2598 -0.5317  0.2958
  786MOL0     C 3631   4.664   9.566  11.142  0.1237 -0.5790  0.0698
  786MOL0     C 3632   4.717   9.563  11.293  0.7714 -0.7902  0.7464
  786MOL0     C 3633   4.844   9.639  11.328 -0.3918  0.3448 -0.4700
  786MOL0     C 3634   4.879   9.662  11.475 -0.1592 -1.0740 -0.5995
  786MOL0     C 3635   5.026   9.690  11.510 -0.4663 -1.0658 -0.0182
  786MOL0     C 3636   5.076   9.832  11.473 -0.5037  0.6652  0.2519
  786MOL0     N 3637   5.211   9.864  11.508 -1.2120 -0.3229 -0.8289
  786MOL0     C 3638   5.253   9.895  11.639 -1.4046 -0.9618  0.3019
  786MOL0     C 3639   5.381   9.937  11.627  1.0047 -0.5103 -0.1181
  786MOL0     C 3640   5.470   9.981  11.738 -0.5745 -0.1255  0.7463
  786MOL0     C 3641   5.571   9.874  11.779 -0.7178  0.2215  1.1204
  786MOL0     C 3642   5.667   9.947  11.876 -0.3880 -0.8767 -0.2052
  786MOL0     C 3643   5.787   9.872  11.925  0.7239  0.0461  0.6169
  786MOL0     O 3644   5.732   9.753  11.981 -0.3554 -0.3923  0.4540
  786MOL0     C 3645   5.817   9.647  11.987 -0.2020  0.7100  0.4439
  786MOL0     C 3646   5.783   9.530  11.911  0.2822 -0.7223 -0.5884
  786MOL0     C 3647   5.875   9.422  11.897 -0.7322  0.4215 -0.9257
  786MOL0     C 3648   6.003   9.427  11.956 -0.4329  0.3162 -0.1922
  786MOL0     C 3649   6.096   9.303  11.951  0.3907 -0.7269 -0.7735
  786MOL0     O 3650   6.219   9.303  12.007  0.0045 -0.2507  0.4931
  786MOL0     C 3651   6.278   9.182  12.028 -0.0463 -0.0370  0.8536
  786MOL0     C 3652   6.397   9.151  11.969  0.4455  0.4718  0.5416
  786MOL0     C 3653   6.447   9.022  11.978 -0.9551 -0.6106  1.2610
  786MOL0     C 3654   6.392   8.925  12.058  0.5899 -0.1557  0.8574
  786MOL0     O 3655   6.461   8.808  12.064  0.2060  0.6405 -0.0844
  786MOL0     C 3656   6.442   8.710  12.165 -0.7003  0.0792  0.4652
  786MOL0     C 3657   6.559   8.603  12.149 -0.1865  0.4918  0.2245
  786MOL0     C 3658   6.579   8.515  12.275  1.2002 -0.3217 -0.9362
  786MOL0     C 3659   6.487   8.392  12.269  0.0639 -0.5224 -0.0326
  786MOL0     C 3660   6.425   8.370  12.409 -0.0932  0.2111  0.6535
  786MOL0     C 3661   6.349   8.234  12.416  0.3485  0.4698  0.9430
  786MOL0     C 3662   6.283   8.203  12.554  1.3833 -0.2709  0.3672
  786MOL0     C 3663   6.379   8.183  12.680  0.7922  0.0571 -0.7820
  786MOL0    Cl 3664   6.273   8.092  12.806 -0.2342 -0.2499 -0.2688
  786MOL0     C 3665   6.268   8.945  12.126 -0.2002 -0.3429  0.6877
  786MOL0     C 3666   6.216   9.077  12.108  0.0141  0.6801 -0.2757
  786MOL0     O 3667   6.034   9.204  11.915 -0.0873 -0.2903  0.1313
  786MOL0     C 3668   6.038   9.544  12.026  0.3023  0.3140  0.2305
  786MOL0     C 3669   5.944   9.647  12.049  0.5810  0.3163 -0.5891
  786MOL0     N 3670   5.417   9.936  11.495 -0.6076  0.6415  0.5703
  786MOL0     N 3671   5.307   9.907  11.420 -0.2381  0.4226 -0.1668
  786MOL0     C 3672   4.609   9.435  10.654 -0.7426  0.1735  0.5738
  786MOL0     C 3673   4.584   9.426  10.520  0.9090  0.4551  0.1482
  786MOL0     C 3674   4.408   9.590  10.121 -0.4707  0.0671 -0.1485
  786MOL0     C 3675   4.471   9.649  10.011 -0.9573 -1.0094 -0.1478
  786MOL0     C 3676   4.417   9.643   9.881 -0.4901 -1.0693 -0.0171
  786MOL0     C 3677   4.298   9.580   9.865  0.5217  0.7856 -0.0380
  786MOL0     O 3678   4.258   9.575   9.738  0.3784  0.1318 -0.9072
  786MOL0     C 3679   4.131   9.512   9.702 -0.5737 -0.3084 -0.4336
  786MOL0     C 3680   4.082   9.548   9.566 -0.4644 -0.2592  0.1426
  786MOL0     C 3681   3.988   9.674   9.565  0.6645 -0.5403 -0.2295
  786MOL0     C 3682   3.967   9.722   9.420 -0.0437 -0.1311  0.2568
  786MOL0     C 3683   3.845   9.801   9.401 -0.2331 -0.1616  0.3335
  786MOL0     C 3684   3.743   9.862   9.379  1.1230  0.1231 -0.3150
  786MOL0     C 3685   4.229   9.522   9.974  0.5077  0.4800  0.2997
  786MOL0     C 3686   4.288   9.532  10.100  0.4355  0.8000  0.7237
  786MOL0     H 3687   4.327   9.653  10.509 -0.4881  0.0637  2.4872
  786MOL0     H 3688   4.392   9.680  10.744  0.6914  3.8768 -2.9023
  786MOL0     H 3689   4.396   9.497  10.948 -1.3952  1.3723 -2.2381
  786MOL0     H 3690   4.478   9.662  10.966  1.0904 -0.3436  2.6651
  786MOL0     H 3691   4.537   9.399  11.114 -0.8556 -0.7962 -2.3952
  786MOL0     H 3692   4.463   9.536  11.190 -1.4414  0.1595 -2.1410
  786MOL0     H 3693   4.665   9.671  11.113 -0.3532 -0.3766  0.7402
  786MOL0     H 3694   4.729   9.511  11.073  0.9931  2.8307 -2.0469
  786MOL0     H 3695   4.652   9.618  11.361 -0.1529 -1.5446  0.4939
  786MOL0     H 3696   4.722   9.460  11.330 -2.7755  0.1606  4.6557
  786MOL0     H 3697   4.845   9.734  11.275  0.7541  0.9181  0.5355
  786MOL0     H 3698   4.931   9.597  11.277  0.2803 -2.7669  2.8136
  786MOL0     H 3699   4.855   9.567  11.523 -1.2273 -0.6693 -0.2919
  786MOL0     H 3700   4.805   9.736  11.509 -0.0670 -1.5313  0.6396
  786MOL0     H 3701   5.043   9.678  11.617 -1.5257 -0.3851  0.2384
  786MOL0     H 3702   5.090   9.618  11.458  0.7102  1.9554 -3.1352
  786MOL0     H 3703   5.008   9.910  11.509 -2.1186 -1.2323  1.5385
  786MOL0     H 3704   5.070   9.837  11.364 -2.9370 -1.6781  0.1742
  786MOL0     H 3705   5.222   9.895  11.743 -1.0998  3.3017  0.5821
  786MOL0     H 3706   5.406  10.009  11.822 -0.3553 -0.2115  0.9419
  786MOL0     H 3707   5.525  10.072  11.710  1.3469 -1.6987 -0.9270
  786MOL0     H 3708   5.622   9.841  11.689 -4.3144  0.2768 -1.1190
  786MOL0     H 3709   5.514   9.786  11.810 -1.5917  0.9971  1.7748
  786MOL0     H 3710   5.699  10.042  11.835  0.7608 -1.7179 -1.3246
  786MOL0     H 3711   5.604   9.980  11.959 -1.2353  3.3060 -2.2590
  786MOL0     H 3712   5.832   9.920  12.012 -3.5996  0.0917  3.1154
  786MOL0     H 3713   5.856   9.851  11.843  0.6306  2.1285 -0.0354
  786MOL0     H 3714   5.696   9.518  11.848  1.2570 -0.4955 -2.0346
  786MOL0     H 3715   5.843   9.346  11.826 -2.1836 -0.6731  0.8251
  786MOL0     H 3716   6.449   9.232  11.918 -1.1610  1.7192  0.8049
  786MOL0     H 3717   6.537   9.003  11.921  0.0185  2.4156  1.6412
  786MOL0     H 3718   6.340   8.670  12.165 -1.1282  0.8308 -3.3322
  786MOL0     H 3719   6.447   8.761  12.262  1.3598  0.5560  0.1500
  786MOL0     H 3720   6.652   8.658  12.132  0.5868 -1.1217 -1.1422
  786MOL0     H 3721   6.546   8.546  12.056 -1.0385  1.8344 -0.5137
  786MOL0     H 3722   6.544   8.572  12.361 -0.0668  0.5397 -1.9834
  786MOL0     H 3723   6.681   8.480  12.294  1.6054  2.3340  2.5679
  786MOL0     H 3724   6.402   8.408  12.203  0.8864 -3.1346 -1.8921
  786MOL0     H 3725   6.548   8.308  12.235 -0.5363 -0.3305 -1.6633
  786MOL0     H 3726   6.348   8.444  12.431 -0.1214 -0.1990  2.0141
  786MOL0     H 3727   6.498   8.376  12.491 -0.7618 -0.0328  1.2752
  786MOL0     H 3728   6.414   8.151  12.387 -0.3221 -1.8306  5.2101
  786MOL0     H 3729   6.276   8.255  12.337  2.5137  0.4694 -1.1627
  786MOL0     H 3730   6.222   8.292  12.570 -0.5203 -1.6995  1.6191
  786MOL0     H 3731   6.224   8.111  12.543 -1.3394  1.1850  1.8105
  786MOL0     H 3732   6.418   8.276  12.722  1.3480  0.0974 -1.3717
  786MOL0     H 3733   6.464   8.119  12.656  0.6782 -0.6841  0.7239
  786MOL0     H 3734   6.218   8.867  12.184  0.2218 -0.6847  0.5963
  786MOL0     H 3735   6.122   9.111  12.150 -0.1523  1.8572 -1.5296
  786MOL0     H 3736   6.139   9.554  12.066 -0.4145 -0.8965  2.5545
  786MOL0     H 3737   5.977   9.738  12.099  0.7159  0.0845 -0.2551
  786MOL0     H 3738   4.679   9.369  10.705 -0.4674 -0.7420 -0.9353
  786MOL0     H 3739   4.644   9.362  10.456 -0.8854 -0.9454 -0.2269
  786MOL0     H 3740   4.563   9.706  10.018 -1.6002 -0.0541  1.2795
  786MOL0     H 3741   4.456   9.688   9.790 -0.8618  2.0343  1.2354
  786MOL0     H 3742   4.058   9.541   9.778 -1.9928  2.0849 -2.5433
  786MOL0     H 3743   4.142   9.403   9.699  2.2342 -0.0958 -2.6783
  786MOL0     H 3744   4.168   9.573   9.503  0.3655 -2.2649  0.3840
  786MOL0     H 3745   4.042   9.456   9.520  1.5876 -2.2345  2.0537
  786MOL0     H 3746   4.025   9.757   9.626 -2.5367 -0.0441  1.2071
  786MOL0     H 3747   3.889   9.646   9.601 -0.9825 -0.5045 -4.2156
  786MOL0     H 3748   4.050   9.785   9.390 -1.5257  0.3974 -3.1971
  786MOL0     H 3749   3.970   9.628   9.363 -0.6698 -1.9057  2.9223
  786MOL0     H 3750   3.663   9.930   9.357  0.1725 -0.3820  1.3818
  786MOL0     H 3751   4.137   9.466   9.963  0.8674 -0.4415  1.7078
  786MOL0     H 3752   4.239   9.486  10.185 -1.2985  0.4119 -0.4345
  787MOL0     O 3753  10.103   2.364  11.097  0.3380 -0.3381  0.0052
  787MOL0     C 3754  10.222   2.390  11.126  0.8941 -0.1421  0.1157
  787MOL0     O 3755  10.332   2.321  11.088  0.8017 -0.2691 -0.4609
  787MOL0     C 3756  10.309   2.199  11.036  0.5387 -0.4593 -0.1056
  787MOL0     C 3757  10.297   2.180  10.893  0.5305 -0.0177 -1.0700
  787MOL0     C 3758  10.296   2.045  10.848 -0.4508  0.2280  0.0217
  787MOL0     C 3759  10.269   1.940  10.944  0.1149 -0.2353  0.7664
  787MOL0     O 3760  10.260   1.813  10.901 -0.1375 -0.2939  0.2466
  787MOL0     C 3761  10.279   1.701  10.991 -0.1924 -1.2693  0.1766
  787MOL0     C 3762  10.266   1.565  10.919  0.5763  0.0033 -0.2392
  787MOL0     C 3763  10.132   1.554  10.838 -0.4933 -0.6888  0.6843
  787MOL0     C 3764  10.101   1.408  10.789  0.3308 -0.8104 -0.7669
  787MOL0     C 3765   9.958   1.402  10.725  0.7994  0.5109 -0.2094
  787MOL0     C 3766   9.927   1.259  10.673  0.4895  0.4345  0.4049
  787MOL0     C 3767   9.785   1.251  10.614 -1.1108  0.3914 -0.3473
  787MOL0     C 3768   9.756   1.111  10.562 -0.2470 -0.4700 -0.4573
  787MOL0     N 3769   9.614   1.096  10.528 -0.1834 -0.0298 -0.6922
  787MOL0     C 3770   9.509   1.084  10.614  0.5922 -0.3317 -0.2824
  787MOL0     C 3771   9.413   1.029  10.533  0.0244  1.0861  0.3849
  787MOL0     C 3772   9.270   0.993  10.571  0.0115 -0.4959  0.0332
  787MOL0     C 3773   9.233   0.846  10.573 -0.4135  0.1161 -0.0900
  787MOL0     C 3774   9.103   0.819  10.662 -0.4823  0.9521  0.8157
  787MOL0     C 3775   8.988   0.916  10.647  0.8540 -0.4981 -0.1972
  787MOL0     O 3776   8.872   0.883  10.725  0.0369 -0.2709 -0.4679
  787MOL0     C 3777   8.858   0.932  10.860  0.8896 -0.2484  0.9305
  787MOL0     C 3778   8.960   0.989  10.935  1.1296 -0.5995 -0.2964
  787MOL0     C 3779   8.929   1.060  11.057  0.1303  0.0171  0.1713
  787MOL0     C 3780   8.797   1.061  11.111 -0.0670  0.6394  1.2862
  787MOL0     C 3781   8.753   1.141  11.224  0.2315  0.0394 -0.0302
  787MOL0     O 3782   8.840   1.239  11.245  0.0133  0.2047  0.1485
  787MOL0     C 3783   8.793   1.342  11.317  0.8905  0.2364  0.4395
  787MOL0     C 3784   8.859   1.392  11.425 -0.6988  0.3255  0.6417
  787MOL0     C 3785   8.826   1.503  11.498 -0.0074 -0.0137 -0.3016
  787MOL0     C 3786   8.714   1.578  11.467 -0.1323 -0.4242  0.5070
  787MOL0     O 3787   8.671   1.694  11.529 -0.2103 -0.1421 -0.2830
  787MOL0     C 3788   8.765   1.751  11.627  0.8445 -0.0511  0.0288
  787MOL0     C 3789   8.726   1.897  11.651  0.6893 -0.3445 -0.2484
  787MOL0     C 3790   8.758   1.977  11.523 -0.7660  0.7250  0.3340
  787MOL0     C 3791   8.707   2.124  11.543 -0.2632 -0.7869  0.1679
  787MOL0     C 3792   8.691   2.212  11.418 -0.1231  0.0950  0.7530
  787MOL0     C 3793   8.630   2.349  11.447 -0.6888  0.9342  0.3508
  787MOL0     C 3794   8.655   2.445  11.323  0.4749 -0.0089  0.0682
  787MOL0     C 3795   8.534   2.459  11.239 -0.2179 -0.0357 -0.2935
  787MOL0    Cl 3796   8.577   2.559  11.095  0.2578 -0.3264  0.1687
  787MOL0     C 3797   8.637   1.534  11.354 -0.0743 -0.2079  0.3620
  787MOL0     C 3798   8.686   1.423  11.277 -0.0649 -0.9076  0.3784
  787MOL0     O 3799   8.652   1.123  11.292  0.4511 -0.2419 -0.3473
  787MOL0     C 3800   8.697   0.994  11.039 -0.2250  0.3115  0.6907
  787MOL0     C 3801   8.728   0.933  10.912  0.4355  0.2574 -0.5196
  787MOL0     N 3802   9.472   0.992  10.411  0.2063 -0.5011  0.4459
  787MOL0     N 3803   9.589   1.034  10.412 -0.4391  0.2979  0.5899
  787MOL0     C 3804  10.268   1.972  11.091 -0.1402  0.1447  1.1127
  787MOL0     C 3805  10.287   2.104  11.126  1.1353 -0.5937  0.3688
  787MOL0     C 3806  10.252   2.529  11.172 -0.5499 -0.3080 -0.0389
  787MOL0     C 3807  10.391   2.570  11.183  0.1285  0.8868 -0.2206
  787MOL0     C 3808  10.432   2.696  11.215  0.1223  1.0552 -0.4467
  787MOL0     C 3809  10.339   2.799  11.208  1.8059  0.9294 -0.7211
  787MOL0     O 3810  10.379   2.926  11.222  0.3391  0.1520 -0.1980
  787MOL0     C 3811  10.281   3.039  11.232 -0.6181 -0.3481 -0.3877
  787MOL0     C 3812  10.353   3.177  11.235  0.4148 -0.4576  0.2307
  787MOL0     C 3813  10.486   3.186  11.302 -0.3624  0.2851 -0.1940
  787MOL0     C 3814  10.562   3.309  11.250 -0.3484 -0.0547  0.4547
  787MOL0     C 3815  10.698   3.292  11.283  0.3740  0.2841 -0.8422
  787MOL0     C 3816  10.810   3.269  11.315 -0.4522  0.7403 -0.3900
  787MOL0     C 3817  10.199   2.761  11.212  0.0129 -0.1739  0.9270
  787MOL0     C 3818  10.162   2.633  11.195 -0.0141  0.0420  0.1371
  787MOL0     H 3819  10.314   2.261  10.823  1.1856  0.2452 -0.6129
  787MOL0     H 3820  10.292   2.027  10.741 -1.7348 -1.2319  0.2692
  787MOL0     H 3821  10.215   1.712  11.079 -0.1435  1.4367 -0.0493
  787MOL0     H 3822  10.381   1.707  11.029  0.3557  0.9420 -1.4361
  787MOL0     H 3823  10.258   1.493  11.000  0.4209  0.3560  0.0622
  787MOL0     H 3824  10.358   1.541  10.863  1.2702  0.0832  0.8398
  787MOL0     H 3825  10.120   1.619  10.751 -3.4530  2.2152  2.9852
  787MOL0     H 3826  10.044   1.576  10.898 -3.2598 -1.5635 -2.7226
  787MOL0     H 3827  10.173   1.385  10.710  1.0360 -0.4691 -0.2380
  787MOL0     H 3828  10.110   1.328  10.864 -1.8611 -1.7004 -1.3721
  787MOL0     H 3829   9.959   1.485  10.654  1.5313 -0.3050 -1.1795
  787MOL0     H 3830   9.890   1.433  10.805  1.0308 -0.0861  0.2243
  787MOL0     H 3831   9.923   1.185  10.753  0.9239 -1.2178 -1.0247
  787MOL0     H 3832  10.003   1.243  10.596 -0.5622 -0.7094 -0.4322
  787MOL0     H 3833   9.710   1.272  10.691  0.0714 -0.5703  1.1104
  787MOL0     H 3834   9.780   1.331  10.540  2.3248  1.9331  0.8883
  787MOL0     H 3835   9.765   1.032  10.637 -0.6282 -0.4622 -0.4017
  787MOL0     H 3836   9.809   1.086  10.470 -2.3180 -0.7898 -1.6355
  787MOL0     H 3837   9.486   1.108  10.718 -0.6598  1.7370 -0.9763
  787MOL0     H 3838   9.209   1.045  10.497  1.0326 -1.3070 -1.4279
  787MOL0     H 3839   9.251   1.026  10.674 -1.9398  1.8626 -0.9821
  787MOL0     H 3840   9.316   0.788  10.615 -1.2457  0.3080  1.9480
  787MOL0     H 3841   9.224   0.814  10.469 -0.3416 -1.3670  0.3263
  787MOL0     H 3842   9.051   0.729  10.629  1.4389  1.1047 -3.2581
  787MOL0     H 3843   9.139   0.813  10.765 -1.6769 -4.0144  1.1834
  787MOL0     H 3844   8.952   0.931  10.545 -0.1960  0.7400  0.3233
  787MOL0     H 3845   9.028   1.014  10.673  3.9519 -1.0360 -2.4033
  787MOL0     H 3846   9.068   0.996  10.921  1.4438  2.9145  2.5199
  787MOL0     H 3847   9.002   1.124  11.107 -1.6168 -0.1156  3.1711
  787MOL0     H 3848   8.952   1.339  11.437 -0.3874  0.5719 -0.5270
  787MOL0     H 3849   8.900   1.534  11.570  0.9296 -0.1455 -1.1778
  787MOL0     H 3850   8.865   1.747  11.583  1.6058 -0.6559  1.7282
  787MOL0     H 3851   8.764   1.709  11.728 -0.2402 -2.2477 -0.8195
  787MOL0     H 3852   8.770   1.945  11.738 -0.0592 -1.8602  1.0237
  787MOL0     H 3853   8.619   1.902  11.672  1.0371  3.4634  1.3990
  787MOL0     H 3854   8.700   1.932  11.441  1.7917 -1.3877 -0.4353
  787MOL0     H 3855   8.864   1.964  11.504 -0.5292 -1.5075  2.7134
  787MOL0     H 3856   8.607   2.117  11.587 -1.0959 -0.3673 -1.5934
  787MOL0     H 3857   8.780   2.168  11.612  1.9449 -0.7863 -2.0079
  787MOL0     H 3858   8.640   2.157  11.339 -2.0205  1.0077  1.2945
  787MOL0     H 3859   8.794   2.223  11.382  0.2707 -4.3383 -0.0246
  787MOL0     H 3860   8.667   2.392  11.541  0.3228  2.0768 -0.5397
  787MOL0     H 3861   8.529   2.319  11.476  0.0389 -1.4797  0.6144
  787MOL0     H 3862   8.675   2.544  11.366 -1.5924 -0.7036  2.9721
  787MOL0     H 3863   8.744   2.423  11.265  1.1519  0.7965  0.7685
  787MOL0     H 3864   8.465   2.506  11.309  0.6449  0.9850 -0.1152
  787MOL0     H 3865   8.501   2.358  11.211 -1.7052  1.5654 -5.2402
  787MOL0     H 3866   8.556   1.592  11.309  1.2414  0.3854 -1.3645
  787MOL0     H 3867   8.633   1.396  11.186 -0.9988  3.2995 -0.5487
  787MOL0     H 3868   8.593   1.003  11.068 -0.4442  1.9217 -0.4816
  787MOL0     H 3869   8.650   0.900  10.845 -0.3291  3.0262 -1.1136
  787MOL0     H 3870  10.246   1.903  11.173 -3.4634  2.4663  2.4170
  787MOL0     H 3871  10.273   2.118  11.233  2.7541  2.1549  0.3351
  787MOL0     H 3872  10.466   2.492  11.173  0.4987  1.2430 -0.2251
  787MOL0     H 3873  10.534   2.726  11.240  0.5401  1.2092 -2.1506
  787MOL0     H 3874  10.213   3.019  11.316 -0.4906 -1.6483 -0.5717
  787MOL0     H 3875  10.218   3.035  11.143  1.5982 -1.6914 -1.9774
  787MOL0     H 3876  10.354   3.202  11.128 -0.2761 -0.0736  0.3080
  787MOL0     H 3877  10.281   3.243  11.283  0.7554  2.0958 -2.4782
  787MOL0     H 3878  10.536   3.089  11.290 -0.6695  0.1504 -0.3731
  787MOL0     H 3879  10.470   3.194  11.410 -1.1142  1.9028 -0.4028
  787MOL0     H 3880  10.561   3.320  11.141  1.1485 -0.0204  0.4219
  787MOL0     H 3881  10.521   3.395  11.304 -1.7127 -1.6349  2.0326
  787MOL0     H 3882  10.907   3.233  11.344 -1.1065  0.9430  2.3877
  787MOL0     H 3883  10.128   2.842  11.219 -0.2474 -0.2996 -0.0956
  787MOL0     H 3884  10.057   2.619  11.174 -0.4111  0.6651  1.5770
  788MOL0     O 3885   2.621   8.023   7.612  0.5667 -0.4791  0.5079
  788MOL0     C 3886   2.715   8.098   7.588  0.1798  0.5154 -0.1505
  788MOL0     O 3887   2.764   8.201   7.674  0.0784 -0.0883 -0.0992
  788MOL0     C 3888   2.692   8.204   7.792 -0.1345 -1.3631 -0.5942
  788MOL0     C 3889   2.725   8.137   7.912 -0.9832  0.1114 -0.7962
  788MOL0     C 3890   2.652   8.166   8.031  0.4260  0.6326 -0.3522
  788MOL0     C 3891   2.546   8.260   8.035  0.8720  0.6159 -0.8080
  788MOL0     O 3892   2.479   8.291   8.147 -0.5184  0.0164 -0.2760
  788MOL0     C 3893   2.370   8.196   8.165 -0.3358 -0.3747  0.0196
  788MOL0     C 3894   2.317   8.188   8.308 -0.1805 -0.5196 -0.7936
  788MOL0     C 3895   2.440   8.168   8.397  0.2652  0.0901 -0.1088
  788MOL0     C 3896   2.416   8.125   8.548  0.3286 -0.1185 -0.3598
  788MOL0     C 3897   2.541   8.119   8.634 -0.1679  0.6470  0.3670
  788MOL0     C 3898   2.675   8.109   8.560 -0.6669 -0.4671 -0.6050
  788MOL0     C 3899   2.784   8.075   8.671  0.4335  0.7422  0.3097
  788MOL0     C 3900   2.917   8.133   8.619 -0.4544  0.4210 -0.0935
  788MOL0     N 3901   2.963   8.093   8.485  0.6489  0.1032 -0.3090
  788MOL0     C 3902   2.979   8.181   8.378 -0.2741  0.2869 -0.8300
  788MOL0     C 3903   3.063   8.117   8.292 -0.2359 -0.7979  0.7050
  788MOL0     C 3904   3.073   8.165   8.141 -1.1205  0.0155  0.3843
  788MOL0     C 3905   3.154   8.295   8.129 -0.0778  0.2973  0.3612
  788MOL0     C 3906   3.064   8.418   8.132  0.5568 -0.0549 -0.6332
  788MOL0     C 3907   2.984   8.442   8.002  1.0130  1.1285 -0.2001
  788MOL0     O 3908   3.067   8.494   7.904  0.5055 -0.4293 -1.0949
  788MOL0     C 3909   3.025   8.508   7.774 -0.3484 -0.1232 -0.8633
  788MOL0     C 3910   2.884   8.513   7.742  0.7643 -0.5394  0.6233
  788MOL0     C 3911   2.859   8.531   7.600 -0.9555  0.2291  0.7586
  788MOL0     C 3912   2.969   8.546   7.508 -0.2661 -0.0687 -0.0778
  788MOL0     C 3913   2.942   8.554   7.366 -0.1844 -0.1099  0.6039
  788MOL0     O 3914   2.829   8.487   7.327 -0.1421 -0.1057 -0.0630
  788MOL0     C 3915   2.782   8.508   7.201  0.6447 -0.6764 -0.4484
  788MOL0     C 3916   2.724   8.629   7.167  0.3656 -0.1831 -0.1454
  788MOL0     C 3917   2.668   8.652   7.049  0.0178 -0.1748  0.8483
  788MOL0     C 3918   2.681   8.561   6.945  0.8877  0.9828 -0.1491
  788MOL0     O 3919   2.629   8.590   6.817  0.2916  0.4671  0.8104
  788MOL0     C 3920   2.712   8.592   6.697 -0.3217 -0.3817  0.1764
  788MOL0     C 3921   2.685   8.459   6.626 -0.7642 -1.2820 -0.4793
  788MOL0     C 3922   2.673   8.471   6.480  0.0725 -0.4845 -0.2595
  788MOL0     C 3923   2.813   8.493   6.405  0.3745  0.5426  0.4847
  788MOL0     C 3924   2.913   8.380   6.392  0.1262 -0.0196 -0.0628
  788MOL0     C 3925   3.062   8.415   6.391  0.2287  0.8348  0.3621
  788MOL0     C 3926   3.132   8.281   6.389  0.2292  0.4104 -0.0289
  788MOL0     C 3927   3.277   8.312   6.403 -1.1540  0.5887  0.6916
  788MOL0    Cl 3928   3.393   8.170   6.363  0.3202 -0.5476 -0.0658
  788MOL0     C 3929   2.745   8.444   6.976 -0.4428 -1.1736  0.8609
  788MOL0     C 3930   2.806   8.413   7.095  1.0675 -0.2038  0.3741
  788MOL0     O 3931   3.021   8.607   7.292  0.1402 -0.8127 -0.4816
  788MOL0     C 3932   3.102   8.534   7.548 -0.2847  0.5195 -0.9249
  788MOL0     C 3933   3.127   8.519   7.682  0.0784  0.0277  0.7420
  788MOL0     N 3934   3.087   7.995   8.347 -0.0417  0.4993 -0.2526
  788MOL0     N 3935   3.026   7.981   8.460 -0.5795  0.4570  0.6065
  788MOL0     C 3936   2.526   8.334   7.919 -0.4763  0.0284  0.2814
  788MOL0     C 3937   2.596   8.305   7.796 -0.0856  0.0682 -0.1156
  788MOL0     C 3938   2.776   8.082   7.454 -0.2501  0.8127  0.3585
  788MOL0     C 3939   2.742   7.988   7.351  0.2951 -0.2875 -0.0471
  788MOL0     C 3940   2.819   7.983   7.235 -0.3516 -0.2315  0.1557
  788MOL0     C 3941   2.924   8.074   7.212  1.1271  0.5487 -0.0534
  788MOL0     O 3942   2.988   8.086   7.089 -0.6713 -0.3101  0.5250
  788MOL0     C 3943   3.027   7.972   7.012 -0.2244 -0.9511  0.5600
  788MOL0     C 3944   3.128   8.019   6.897 -0.5499  0.6028  0.3596
  788MOL0     C 3945   3.086   8.127   6.787  1.2781 -0.7932 -0.0262
  788MOL0     C 3946   3.005   8.255   6.824  0.0402  0.3556  0.0291
  788MOL0     C 3947   3.082   8.335   6.920  0.5699  0.2714 -0.4752
  788MOL0     C 3948   3.155   8.391   6.997  0.3274  0.2653  0.3536
  788MOL0     C 3949   2.947   8.172   7.307 -0.3687 -0.0846 -0.3029
  788MOL0     C 3950   2.876   8.175   7.421  0.2488 -0.3257 -0.5411
  788MOL0     H 3951   2.825   8.093   7.916  0.1510  2.6117  1.0187
  788MOL0     H 3952   2.670   8.118   8.127 -1.3135 -0.8223 -0.6991
  788MOL0     H 3953   2.390   8.093   8.135 -0.9904 -1.6005  3.2812
  788MOL0     H 3954   2.284   8.237   8.111 -2.2783 -3.9097  0.1275
  788MOL0     H 3955   2.247   8.106   8.326 -0.0271 -0.4136  0.3631
  788MOL0     H 3956   2.277   8.276   8.357  2.7570 -2.1006  5.3663
  788MOL0     H 3957   2.516   8.247   8.390  0.9763 -0.5816 -0.1173
  788MOL0     H 3958   2.483   8.075   8.357  1.7844  0.4872  0.5321
  788MOL0     H 3959   2.341   8.190   8.594  0.4664 -1.3921  1.7876
  788MOL0     H 3960   2.379   8.023   8.555 -0.9588  0.4454  2.6247
  788MOL0     H 3961   2.527   8.046   8.714 -1.2805  1.5674  1.0573
  788MOL0     H 3962   2.547   8.215   8.687  1.0390  0.6432  0.2750
  788MOL0     H 3963   2.706   8.200   8.508 -1.3288 -0.5512 -1.1508
  788MOL0     H 3964   2.666   8.025   8.490  0.4080 -0.4135 -0.8332
  788MOL0     H 3965   2.755   8.115   8.769 -2.1656 -2.0068  0.8220
  788MOL0     H 3966   2.783   7.965   8.668 -3.5011  0.6556 -1.0309
  788MOL0     H 3967   2.998   8.112   8.689  1.6870  1.9037 -1.9561
  788MOL0     H 3968   2.907   8.242   8.620 -1.0446  0.3870 -1.0524
  788MOL0     H 3969   2.911   8.264   8.366  1.3396  1.6896 -0.6066
  788MOL0     H 3970   2.974   8.175   8.094 -0.1475 -1.5399 -2.2066
  788MOL0     H 3971   3.125   8.083   8.091 -1.4907 -0.1943  0.3335
  788MOL0     H 3972   3.207   8.291   8.033 -1.3971 -0.8854 -0.3717
  788MOL0     H 3973   3.228   8.302   8.209  2.1269  0.1397 -1.5381
  788MOL0     H 3974   2.994   8.406   8.215 -0.7818 -0.5584 -1.8184
  788MOL0     H 3975   3.123   8.510   8.148 -4.0393  3.3699 -1.2819
  788MOL0     H 3976   2.903   8.514   8.015  1.3498  1.8017 -1.7194
  788MOL0     H 3977   2.946   8.343   7.974  1.1178  0.6256  1.3213
  788MOL0     H 3978   2.801   8.489   7.808 -1.1578 -2.7397 -2.3564
  788MOL0     H 3979   2.758   8.525   7.561 -0.8214  0.7886  0.3112
  788MOL0     H 3980   2.700   8.704   7.242 -0.3494  1.0005 -1.5078
  788MOL0     H 3981   2.592   8.728   7.038 -2.3226 -2.4714  0.2751
  788MOL0     H 3982   2.815   8.610   6.726 -1.4035  1.6701  3.2593
  788MOL0     H 3983   2.673   8.671   6.631 -3.4133 -0.0307  2.2199
  788MOL0     H 3984   2.584   8.427   6.653 -0.8571 -0.5102  0.1413
  788MOL0     H 3985   2.753   8.383   6.665 -0.6600 -0.4778  0.9841
  788MOL0     H 3986   2.613   8.560   6.458  2.3550  1.2116  0.0744
  788MOL0     H 3987   2.636   8.370   6.461  1.3679 -1.1634  0.6799
  788MOL0     H 3988   2.793   8.531   6.304  0.2198  1.2933  0.7926
  788MOL0     H 3989   2.851   8.579   6.460  0.2015  0.8921  0.0649
  788MOL0     H 3990   2.887   8.307   6.314 -1.2771 -2.2508  2.3307
  788MOL0     H 3991   2.891   8.324   6.483 -2.7697  0.7457 -0.1890
  788MOL0     H 3992   3.073   8.478   6.480  0.5959  0.2741  0.7187
  788MOL0     H 3993   3.084   8.460   6.294 -0.0663  2.4169  0.9947
  788MOL0     H 3994   3.095   8.215   6.468 -5.5655  3.6758  0.5590
  788MOL0     H 3995   3.110   8.234   6.292 -0.4742 -0.1733  0.4014
  788MOL0     H 3996   3.299   8.337   6.507 -2.0520 -0.8650  1.2543
  788MOL0     H 3997   3.305   8.398   6.341 -2.3109 -0.1854 -0.9667
  788MOL0     H 3998   2.747   8.380   6.889 -4.4403  1.7381 -1.6971
  788MOL0     H 3999   2.857   8.317   7.100  1.2428 -0.1750  6.6831
  788MOL0     H 4000   3.176   8.512   7.472 -1.0510 -0.4073 -1.4204
  788MOL0     H 4001   3.228   8.494   7.714  0.8398 -0.8174 -2.0376
  788MOL0     H 4002   2.442   8.403   7.913 -1.4846 -1.2413 -4.7364
  788MOL0     H 4003   2.576   8.347   7.699 -1.8251  1.0090  0.6010
  788MOL0     H 4004   2.670   7.908   7.364  2.9348 -2.6970  0.7708
  788MOL0     H 4005   2.802   7.909   7.157  1.2920 -1.7840  1.1659
  788MOL0     H 4006   2.945   7.919   6.963 -0.3828  1.9445 -2.6984
  788MOL0     H 4007   3.079   7.910   7.085  1.3529  0.5260  0.7686
  788MOL0     H 4008   3.219   8.044   6.953 -0.1278 -2.9283  1.4417
  788MOL0     H 4009   3.154   7.928   6.842 -1.2019 -0.5520  1.8978
  788MOL0     H 4010   3.029   8.083   6.704  3.3423 -3.2758 -0.2812
  788MOL0     H 4011   3.176   8.169   6.742  0.2307 -0.8525 -2.3388
  788MOL0     H 4012   2.982   8.303   6.729 -1.8684 -0.0270  0.2716
  788MOL0     H 4013   2.908   8.229   6.867  0.0679  3.0027  1.9401
  788MOL0     H 4014   3.227   8.454   7.046  2.0667 -0.4466 -1.1615
  788MOL0     H 4015   3.020   8.250   7.286 -0.1716 -0.9822 -3.5189
  788MOL0     H 4016   2.887   8.257   7.491 -4.0816 -0.7875  1.0182
  789MOL0     O 4017   8.435   0.030   9.232 -0.1767 -0.4375  0.4659
  789MOL0     C 4018   8.349   0.113   9.226 -0.3760 -0.2872 -0.2347
  789MOL0     O 4019   8.267   0.152   9.330 -0.5489 -0.0076  0.1193
  789MOL0     C 4020   8.246   0.057   9.418 -0.2437  1.3757  0.0165
  789MOL0     C 4021   8.275   0.080   9.554  0.0942 -0.3353  0.2676
  789MOL0     C 4022   8.243  -0.014   9.650 -0.1338 -0.2196 -0.7438
  789MOL0     C 4023   8.174  -0.132   9.614 -0.2657  0.5749 -0.0898
  789MOL0     O 4024   8.143  -0.216   9.721 -0.6920 -0.1410 -0.2998
  789MOL0     C 4025   8.095  -0.349   9.692 -0.1165  0.1052 -0.4177
  789MOL0     C 4026   8.218  -0.439   9.652 -0.2762 -0.0521 -0.3420
  789MOL0     C 4027   8.185  -0.576   9.604  0.0964  0.7060 -1.0112
  789MOL0     C 4028   8.097  -0.642   9.700 -0.3320 -0.1651  0.0769
  789MOL0     C 4029   8.035  -0.780   9.662 -0.6462 -0.9781 -0.8984
  789MOL0     C 4030   8.119  -0.869   9.576  0.0609  0.1451  0.0301
  789MOL0     C 4031   8.026  -0.983   9.525  0.4661  0.2379 -0.7479
  789MOL0     C 4032   8.109  -1.059   9.428 -0.6667  0.7742 -0.0782
  789MOL0     N 4033   8.082  -1.034   9.287 -0.6403  0.1508 -0.1280
  789MOL0     C 4034   8.002  -1.126   9.214 -0.5409  0.3634 -0.7137
  789MOL0     C 4035   7.961  -1.053   9.106 -0.8763 -0.4113 -0.4935
  789MOL0     C 4036   7.893  -1.108   8.979 -0.1731  1.1395  0.0767
  789MOL0     C 4037   7.904  -1.021   8.850  0.3900  0.1735 -0.7567
  789MOL0     C 4038   8.050  -0.992   8.797  0.0251  0.0541 -0.5546
  789MOL0     C 4039   8.143  -1.109   8.742 -0.4486  0.3325 -0.0266
  789MOL0     O 4040   8.257  -1.052   8.671  0.3788  0.5878  0.5811
  789MOL0     C 4041   8.357  -1.140   8.636  1.1339 -0.2598  1.0550
  789MOL0     C 4042   8.476  -1.088   8.587  0.1767  0.6720 -0.8970
  789MOL0     C 4043   8.572  -1.186   8.542 -0.1283  0.0147 -0.3924
  789MOL0     C 4044   8.550  -1.327   8.557 -0.1349 -1.0579  0.4460
  789MOL0     C 4045   8.652  -1.415   8.502  0.5538 -0.6760  0.6234
  789MOL0     O 4046   8.752  -1.348   8.451 -1.0966 -0.2096  0.4445
  789MOL0     C 4047   8.871  -1.402   8.397 -0.2670 -0.4651 -0.5668
  789MOL0     C 4048   8.975  -1.310   8.407  0.2049  0.6559 -0.5077
  789MOL0     C 4049   9.105  -1.346   8.360 -0.2230  0.3796 -0.3031
  789MOL0     C 4050   9.137  -1.477   8.317 -0.4697  0.7392 -1.0255
  789MOL0     O 4051   9.262  -1.508   8.287 -0.5919  0.9621 -0.0315
  789MOL0     C 4052   9.367  -1.452   8.371 -0.7931 -0.1377  0.3683
  789MOL0     C 4053   9.487  -1.549   8.346  0.7096  0.1984 -0.0505
  789MOL0     C 4054   9.443  -1.685   8.411  0.4683  0.1251 -1.0105
  789MOL0     C 4055   9.504  -1.800   8.336  0.2440 -0.0194  0.1684
  789MOL0     C 4056   9.456  -1.934   8.368  0.8520 -0.1674 -0.6259
  789MOL0     C 4057   9.506  -1.979   8.505 -0.3840  0.2476 -0.9316
  789MOL0     C 4058   9.492  -2.130   8.512 -0.4198  0.4831 -0.1340
  789MOL0     C 4059   9.389  -2.199   8.425 -0.3937  1.2423 -0.9813
  789MOL0    Cl 4060   9.383  -2.378   8.455 -0.1300  0.2602  0.7241
  789MOL0     C 4061   9.037  -1.571   8.320  0.2857 -0.3396 -0.1442
  789MOL0     C 4062   8.903  -1.533   8.358  0.3912 -0.5584  0.0448
  789MOL0     O 4063   8.644  -1.533   8.504  0.3659  0.1925  0.6574
  789MOL0     C 4064   8.427  -1.367   8.596  0.2714 -0.2371  0.4959
  789MOL0     C 4065   8.331  -1.278   8.625 -0.3289 -0.6479 -0.9298
  789MOL0     N 4066   7.994  -0.923   9.134  0.1841 -0.1412  0.6507
  789MOL0     N 4067   8.063  -0.906   9.240  0.3165  0.2708 -0.8548
  789MOL0     C 4068   8.148  -0.158   9.473  0.3641  0.0157  0.0090
  789MOL0     C 4069   8.181  -0.067   9.381  0.1633  0.1092 -0.7780
  789MOL0     C 4070   8.340   0.202   9.102  0.8988 -0.5623 -1.8360
  789MOL0     C 4071   8.442   0.193   9.000  0.2820 -0.6127 -0.8055
  789MOL0     C 4072   8.415   0.275   8.884  0.0809  0.6064 -0.3760
  789MOL0     C 4073   8.304   0.359   8.868  0.2276 -1.0228 -0.6508
  789MOL0     O 4074   8.311   0.427   8.748 -0.7007  0.6058  0.5101
  789MOL0     C 4075   8.220   0.539   8.730 -0.5197  0.0238  0.4624
  789MOL0     C 4076   8.278   0.655   8.642 -0.0195  0.6224 -0.5925
  789MOL0     C 4077   8.352   0.748   8.728 -0.5104 -0.5947 -0.2916
  789MOL0     C 4078   8.485   0.698   8.787 -0.0166  1.1297  0.6169
  789MOL0     C 4079   8.552   0.804   8.857 -0.4113  0.3387 -0.1412
  789MOL0     C 4080   8.615   0.893   8.903 -0.6885 -0.3395 -0.6216
  789MOL0     C 4081   8.198   0.351   8.965 -0.3026 -0.0090 -0.4234
  789MOL0     C 4082   8.222   0.277   9.086  0.4712  0.2703  0.0986
  789MOL0     H 4083   8.318   0.175   9.583 -0.2882  0.3461 -1.3401
  789MOL0     H 4084   8.257   0.017   9.753  0.3701 -1.8626 -0.2733
  789MOL0     H 4085   8.012  -0.361   9.623 -0.7352 -1.0443  0.4901
  789MOL0     H 4086   8.054  -0.378   9.790 -2.9403  0.4627 -1.4136
  789MOL0     H 4087   8.284  -0.447   9.739  0.0184  1.7956 -0.3325
  789MOL0     H 4088   8.287  -0.391   9.581  2.0756 -0.3726  1.5656
  789MOL0     H 4089   8.268  -0.641   9.577 -0.4121 -0.4199  0.0244
  789MOL0     H 4090   8.119  -0.565   9.517  1.7513  2.5760 -2.1151
  789MOL0     H 4091   8.151  -0.650   9.795 -2.3887 -0.2913  1.3109
  789MOL0     H 4092   8.004  -0.589   9.723 -0.5611  0.4303 -2.0730
  789MOL0     H 4093   7.935  -0.755   9.624 -1.2058 -1.0591  0.4744
  789MOL0     H 4094   8.014  -0.825   9.760 -2.8109  1.6570 -0.0210
  789MOL0     H 4095   8.194  -0.904   9.647 -2.1101 -0.6685  2.0605
  789MOL0     H 4096   8.157  -0.823   9.484  1.8356  1.0243  1.1632
  789MOL0     H 4097   7.996  -1.052   9.605 -2.5402 -0.3420 -2.2404
  789MOL0     H 4098   7.941  -0.936   9.476 -0.1305 -0.3354 -0.2884
  789MOL0     H 4099   8.094  -1.166   9.440 -1.1595  0.6475 -1.5628
  789MOL0     H 4100   8.213  -1.038   9.453 -1.0411  1.6163  0.8643
  789MOL0     H 4101   8.001  -1.232   9.236  4.0085  0.7849  3.2829
  789MOL0     H 4102   7.786  -1.128   8.991  0.0475 -0.3896 -0.2782
  789MOL0     H 4103   7.938  -1.206   8.960  2.2679  2.6160 -2.4208
  789MOL0     H 4104   7.844  -0.933   8.875 -0.6423 -1.0786  1.4688
  789MOL0     H 4105   7.856  -1.071   8.766 -0.4803 -0.6166  0.1972
  789MOL0     H 4106   8.037  -0.926   8.711  2.6115  2.2277  0.5767
  789MOL0     H 4107   8.103  -0.936   8.874 -1.7924 -0.5976  1.2542
  789MOL0     H 4108   8.081  -1.169   8.675  0.3638 -0.9028  0.2877
  789MOL0     H 4109   8.186  -1.154   8.832  1.3478  1.6551 -0.1707
  789MOL0     H 4110   8.485  -0.980   8.590  0.4442  0.6614  1.9243
  789MOL0     H 4111   8.673  -1.151   8.522 -0.6763  3.0311  1.4261
  789MOL0     H 4112   8.959  -1.206   8.432  0.0390  0.7857 -1.1257
  789MOL0     H 4113   9.189  -1.278   8.363  1.0864 -1.1581 -0.6997
  789MOL0     H 4114   9.327  -1.461   8.472 -1.4556 -2.4253 -0.0309
  789MOL0     H 4115   9.375  -1.346   8.347 -0.6632 -0.3676 -0.6491
  789MOL0     H 4116   9.579  -1.514   8.394  0.9840  0.6694 -0.9012
  789MOL0     H 4117   9.511  -1.560   8.240  0.6428 -2.8558  0.1440
  789MOL0     H 4118   9.336  -1.705   8.394  0.7465 -0.6945 -1.8952
  789MOL0     H 4119   9.442  -1.692   8.520 -0.4949 -0.0301 -1.0146
  789MOL0     H 4120   9.496  -1.796   8.227 -0.9070 -1.4374  0.1634
  789MOL0     H 4121   9.613  -1.808   8.341  0.1657 -2.1223 -0.2946
  789MOL0     H 4122   9.485  -1.993   8.281  0.2888  2.2274 -2.5718
  789MOL0     H 4123   9.349  -1.951   8.356  0.6393  0.4504  0.2255
  789MOL0     H 4124   9.450  -1.936   8.589  0.0120 -0.6931 -0.1726
  789MOL0     H 4125   9.614  -1.966   8.510 -0.2339 -1.3872  2.6118
  789MOL0     H 4126   9.593  -2.169   8.495 -0.4100  1.0114 -1.3594
  789MOL0     H 4127   9.459  -2.165   8.610  0.8516 -2.1368 -0.5423
  789MOL0     H 4128   9.409  -2.189   8.318 -2.0392 -0.6949 -1.5417
  789MOL0     H 4129   9.294  -2.151   8.449 -0.8212 -0.5773  1.3385
  789MOL0     H 4130   9.065  -1.675   8.308 -0.5019 -0.7292  1.2334
  789MOL0     H 4131   8.826  -1.610   8.357  0.1344 -0.4156 -3.2557
  789MOL0     H 4132   8.414  -1.474   8.588  0.0981 -0.1120 -1.1442
  789MOL0     H 4133   8.237  -1.325   8.652  0.4097 -1.5857  0.1543
  789MOL0     H 4134   8.095  -0.243   9.432 -2.2424  0.7341  1.6244
  789MOL0     H 4135   8.150  -0.088   9.279 -0.6338 -0.5111 -0.4160
  789MOL0     H 4136   8.533   0.135   9.009  0.6073  0.1675  3.1043
  789MOL0     H 4137   8.502   0.291   8.820  1.2502 -4.7052 -0.5975
  789MOL0     H 4138   8.187   0.572   8.829  2.5452 -0.6193  1.8133
  789MOL0     H 4139   8.136   0.496   8.675 -1.8686 -1.3521  3.3993
  789MOL0     H 4140   8.342   0.604   8.570  0.3645  1.3120 -0.7539
  789MOL0     H 4141   8.201   0.709   8.586  0.7944  1.1437 -1.2222
  789MOL0     H 4142   8.294   0.776   8.817 -1.5598 -4.0601  0.2554
  789MOL0     H 4143   8.377   0.837   8.669 -0.3084  1.3027  2.4924
  789MOL0     H 4144   8.480   0.620   8.864 -0.9412 -0.7619 -1.2316
  789MOL0     H 4145   8.544   0.649   8.710 -0.3014 -0.8545  1.5855
  789MOL0     H 4146   8.693   0.962   8.928 -2.0482  1.2704 -0.6013
  789MOL0     H 4147   8.111   0.414   8.952  2.0135  3.4953 -0.5341
  789MOL0     H 4148   8.145   0.273   9.163 -1.6017 -3.2214 -1.8719
  790MOL0     O 4149   4.727   9.401   4.522  0.1002 -0.2465  1.1574
  790MOL0     C 4150   4.607   9.384   4.524  1.0009  1.6215  0.0304
  790MOL0     O 4151   4.543   9.270   4.573  0.5497 -0.0708  0.6173
  790MOL0     C 4152   4.610   9.163   4.617  0.0848  0.7389 -0.6720
  790MOL0     C 4153   4.628   9.147   4.751  0.3082  0.6192 -0.3651
  790MOL0     C 4154   4.686   9.026   4.800 -0.2036 -0.7249 -0.6368
  790MOL0     C 4155   4.718   8.932   4.703 -0.2971  0.0971 -0.9580
  790MOL0     O 4156   4.753   8.815   4.761 -0.8595 -0.8397  0.3137
  790MOL0     C 4157   4.794   8.712   4.669 -0.5013  0.6058 -0.8886
  790MOL0     C 4158   4.855   8.603   4.753  0.1003  0.5060  0.7043
  790MOL0     C 4159   4.799   8.567   4.892  1.4853 -0.0508  1.0950
  790MOL0     C 4160   4.894   8.463   4.956  0.0025 -0.2250 -0.2063
  790MOL0     C 4161   4.874   8.476   5.097  0.5199 -0.3065  0.7703
  790MOL0     C 4162   4.921   8.341   5.163  0.1447  0.1348 -0.7194
  790MOL0     C 4163   4.851   8.322   5.305 -0.5410  0.1244  1.2874
  790MOL0     C 4164   4.960   8.267   5.396  1.0892  1.1153 -0.3207
  790MOL0     N 4165   5.046   8.362   5.464 -0.4492  0.3911 -0.0908
  790MOL0     C 4166   5.126   8.337   5.570  0.1074 -0.3341 -0.4624
  790MOL0     C 4167   5.183   8.457   5.602  1.0131 -0.7005 -0.0543
  790MOL0     C 4168   5.256   8.495   5.729 -0.5262 -0.3824  0.5916
  790MOL0     C 4169   5.367   8.589   5.687  0.0872  0.2751  0.6759
  790MOL0     C 4170   5.448   8.643   5.811  0.1837 -0.4429  0.0033
  790MOL0     C 4171   5.379   8.775   5.860 -0.3888 -0.1827 -0.3045
  790MOL0     O 4172   5.440   8.890   5.791  0.6090  0.4329  0.3528
  790MOL0     C 4173   5.394   9.012   5.823 -0.7153 -0.2931 -0.2421
  790MOL0     C 4174   5.419   9.123   5.740  0.0032  0.3475  0.6636
  790MOL0     C 4175   5.362   9.247   5.762 -0.7292  1.3198  0.2236
  790MOL0     C 4176   5.271   9.256   5.873 -0.6256 -0.3316  1.2759
  790MOL0     C 4177   5.203   9.386   5.905  0.3121 -0.0671  0.4593
  790MOL0     O 4178   5.187   9.476   5.800 -0.0132 -0.4986 -1.2078
  790MOL0     C 4179   5.144   9.607   5.826  0.1576  0.6786  0.5568
  790MOL0     C 4180   5.182   9.679   5.943  0.5239  0.3733 -0.2669
  790MOL0     C 4181   5.148   9.814   5.959 -0.9006 -0.6232  0.0494
  790MOL0     C 4182   5.064   9.879   5.861 -0.0891  1.1622 -0.7054
  790MOL0     O 4183   5.014  10.005   5.858 -0.3860 -0.1950 -0.3165
  790MOL0     C 4184   5.019  10.088   5.972 -0.3423  0.5669  0.0779
  790MOL0     C 4185   4.943  10.217   5.957 -0.4993  0.3396 -0.2236
  790MOL0     C 4186   4.968  10.298   6.083 -0.0292 -0.8942  1.2740
  790MOL0     C 4187   4.940  10.455   6.058 -0.0957  0.1623 -0.4602
  790MOL0     C 4188   4.801  10.492   5.999 -0.6114 -0.8436 -0.3914
  790MOL0     C 4189   4.775  10.638   6.023  1.2548 -0.0569 -0.2318
  790MOL0     C 4190   4.835  10.723   5.908 -0.0370 -0.6538  1.1096
  790MOL0     C 4191   4.876  10.859   5.956 -0.2002  0.4450 -1.1563
  790MOL0    Cl 4192   5.024  10.845   6.070 -0.1669 -0.3990 -0.1626
  790MOL0     C 4193   5.038   9.800   5.744 -0.7668  0.2203 -0.3926
  790MOL0     C 4194   5.068   9.669   5.731  0.4474  0.2227  0.9584
  790MOL0     O 4195   5.181   9.400   6.025 -0.1224 -0.7086  0.3339
  790MOL0     C 4196   5.253   9.155   5.968 -0.7565  0.5549  0.1377
  790MOL0     C 4197   5.310   9.032   5.938  0.2358  0.7669  0.8447
  790MOL0     N 4198   5.143   8.546   5.498 -0.1176 -0.1240 -0.5585
  790MOL0     N 4199   5.070   8.480   5.411 -0.0176 -0.1100  0.0611
  790MOL0     C 4200   4.710   8.952   4.567  0.2718  0.0477 -0.0452
  790MOL0     C 4201   4.654   9.069   4.524  0.4406 -0.3202  0.4685
  790MOL0     C 4202   4.524   9.494   4.506 -1.1089  0.3364 -0.4668
  790MOL0     C 4203   4.565   9.598   4.417 -0.5277  0.3559  0.3731
  790MOL0     C 4204   4.470   9.708   4.405 -0.2209  0.9122  0.0859
  790MOL0     C 4205   4.348   9.709   4.460 -0.5781  0.0801 -0.1080
  790MOL0     O 4206   4.266   9.809   4.412 -0.3016 -0.1725  0.1932
  790MOL0     C 4207   4.132   9.789   4.437  0.2895  0.7922 -0.7946
  790MOL0     C 4208   4.071   9.872   4.328 -0.2142 -0.9742 -0.4775
  790MOL0     C 4209   3.923   9.856   4.322  0.1084  0.0153 -0.2033
  790MOL0     C 4210   3.873   9.743   4.233 -0.1351 -0.0012  1.0367
  790MOL0     C 4211   3.868   9.785   4.092 -1.1024 -0.9377  0.2149
  790MOL0     C 4212   3.881   9.830   3.976  1.0248 -0.0852 -0.6281
  790MOL0     C 4213   4.314   9.603   4.538  0.5700 -0.2758 -0.3094
  790MOL0     C 4214   4.400   9.499   4.560 -0.0476  0.4299  0.5824
  790MOL0     H 4215   4.615   9.228   4.821  2.6036 -0.5343  1.5672
  790MOL0     H 4216   4.707   8.997   4.903 -1.6128 -1.0014 -0.4136
  790MOL0     H 4217   4.879   8.755   4.615  0.1928  1.2519  0.6406
  790MOL0     H 4218   4.709   8.677   4.610  1.0974  0.9091 -3.5025
  790MOL0     H 4219   4.960   8.628   4.768  0.8265 -2.5083  1.3767
  790MOL0     H 4220   4.848   8.510   4.695  0.6308 -0.6707  2.4388
  790MOL0     H 4221   4.691   8.546   4.885  1.5578  0.1596 -3.2382
  790MOL0     H 4222   4.809   8.661   4.946  1.1224  2.3031 -2.5743
  790MOL0     H 4223   4.874   8.361   4.922  0.7610 -0.2841 -0.5092
  790MOL0     H 4224   5.000   8.480   4.935 -0.2424  0.1404 -1.2177
  790MOL0     H 4225   4.766   8.476   5.115  0.4928 -0.1847  0.6094
  790MOL0     H 4226   4.929   8.567   5.125  2.4642 -0.6366 -1.6210
  790MOL0     H 4227   5.026   8.365   5.185 -0.1700  0.5606  0.4439
  790MOL0     H 4228   4.910   8.259   5.093 -1.2754 -0.9028  0.6677
  790MOL0     H 4229   4.809   8.416   5.340 -2.4075 -0.2310  0.1599
  790MOL0     H 4230   4.769   8.254   5.283 -0.3990  0.3532 -0.0375
  790MOL0     H 4231   5.018   8.183   5.357  0.5913 -0.3100  1.8870
  790MOL0     H 4232   4.895   8.213   5.464  0.5294  0.7437 -1.1381
  790MOL0     H 4233   5.145   8.245   5.624  2.0815 -0.2821 -1.0021
  790MOL0     H 4234   5.291   8.407   5.784 -2.5058 -0.1231  2.4089
  790MOL0     H 4235   5.193   8.547   5.802 -0.4427 -1.9203  1.8072
  790MOL0     H 4236   5.326   8.667   5.623  1.1640 -0.3033 -0.7709
  790MOL0     H 4237   5.427   8.535   5.613 -0.8322  1.1960 -0.7910
  790MOL0     H 4238   5.454   8.571   5.893  0.9192 -0.9027 -0.4418
  790MOL0     H 4239   5.552   8.670   5.792 -0.4187  1.0219 -1.4355
  790MOL0     H 4240   5.408   8.780   5.966 -0.7869  1.2929 -0.2288
  790MOL0     H 4241   5.270   8.780   5.851 -0.2988  0.9624 -1.0080
  790MOL0     H 4242   5.475   9.107   5.648  0.4150  0.2798  0.9219
  790MOL0     H 4243   5.376   9.338   5.706 -2.2137  0.8519 -0.9510
  790MOL0     H 4244   5.226   9.633   6.030  1.8175  3.1703  0.7040
  790MOL0     H 4245   5.202   9.867   6.038  0.7060 -0.6033 -1.0075
  790MOL0     H 4246   5.127  10.099   5.989  0.0976  0.4264 -2.2958
  790MOL0     H 4247   4.989  10.028   6.059  2.8566  2.8652  3.0677
  790MOL0     H 4248   4.842  10.179   5.937 -1.7290  1.2730  3.4688
  790MOL0     H 4249   4.982  10.269   5.869  0.8944  3.9762  2.2949
  790MOL0     H 4250   5.072  10.296   6.116  0.1141  2.5205  1.2982
  790MOL0     H 4251   4.906  10.247   6.157 -0.9400 -0.4517  0.8332
  790MOL0     H 4252   4.954  10.506   6.153  0.9742 -2.1528  0.7159
  790MOL0     H 4253   5.018  10.494   5.991 -0.6130 -2.3195 -2.6803
  790MOL0     H 4254   4.735  10.428   6.059 -0.9443 -0.0438  0.1100
  790MOL0     H 4255   4.796  10.471   5.892  0.6372  3.1438 -1.4047
  790MOL0     H 4256   4.813  10.664   6.123  5.6355 -0.6009 -1.5734
  790MOL0     H 4257   4.668  10.662   6.033  1.0416 -0.2272 -1.9425
  790MOL0     H 4258   4.918  10.666   5.865 -1.2113 -1.2753 -0.4388
  790MOL0     H 4259   4.759  10.738   5.831  3.3715  1.3409 -2.2589
  790MOL0     H 4260   4.795  10.892   6.022 -1.9036 -1.4876 -2.1681
  790MOL0     H 4261   4.899  10.924   5.871  2.4732 -2.0177 -2.4654
  790MOL0     H 4262   4.972   9.844   5.670  0.7534  1.1586 -1.2445
  790MOL0     H 4263   5.042   9.620   5.637 -3.0680  0.9643  1.4131
  790MOL0     H 4264   5.206   9.163   6.066  2.8006 -0.8456  2.1597
  790MOL0     H 4265   5.276   8.943   5.990 -2.1642  1.5014  0.6515
  790MOL0     H 4266   4.728   8.885   4.484 -1.6786 -0.0938 -0.4016
  790MOL0     H 4267   4.620   9.088   4.423  0.4636 -3.8103 -0.2911
  790MOL0     H 4268   4.665   9.606   4.374 -0.6772 -1.2818 -0.3613
  790MOL0     H 4269   4.502   9.792   4.344 -0.0110  0.1578 -0.8661
  790MOL0     H 4270   4.095   9.821   4.535 -0.2760 -4.3410  0.9518
  790MOL0     H 4271   4.091   9.688   4.427 -0.0917  0.9464 -0.8385
  790MOL0     H 4272   4.102   9.973   4.355 -2.6583  0.2494 -1.9565
  790MOL0     H 4273   4.107   9.842   4.229 -0.3453  0.2179 -0.9006
  790MOL0     H 4274   3.870   9.948   4.294 -0.0364 -0.3372 -1.1228
  790MOL0     H 4275   3.894   9.833   4.425 -0.1398 -0.1213 -0.3036
  790MOL0     H 4276   3.926   9.647   4.230 -1.6933 -0.9210  1.8901
  790MOL0     H 4277   3.774   9.704   4.259 -3.2067  2.5579 -4.7797
  790MOL0     H 4278   3.887   9.866   3.875  0.0992 -1.3898 -1.1845
  790MOL0     H 4279   4.224   9.597   4.597  1.3514  2.7269  1.3964
  790MOL0     H 4280   4.346   9.415   4.604 -1.6999  0.2557 -1.5964
  791MOL0     O 4281   6.000   0.001   7.382  0.0027 -0.1163 -0.2437
  791MOL0     C 4282   5.904   0.023   7.456  0.4945  0.0332  0.0557
  791MOL0     O 4283   5.776  -0.027   7.443 -0.5130 -0.3037  0.1641
  791MOL0     C 4284   5.746  -0.110   7.337 -0.7551 -0.2419 -0.0470
  791MOL0     C 4285   5.797  -0.128   7.206  0.0462  0.5089 -0.8269
  791MOL0     C 4286   5.758  -0.237   7.125  0.1432  0.0435  0.5113
  791MOL0     C 4287   5.658  -0.324   7.164 -1.2443 -0.1142 -0.3244
  791MOL0     O 4288   5.615  -0.421   7.075 -1.0924  0.9877  0.0863
  791MOL0     C 4289   5.510  -0.520   7.109 -0.2790 -0.1673 -0.7341
  791MOL0     C 4290   5.400  -0.495   7.011 -0.2721  0.7983  0.7455
  791MOL0     C 4291   5.290  -0.607   7.029  0.0659  0.1367 -0.4308
  791MOL0     C 4292   5.165  -0.594   6.942 -0.5310  0.4683  0.3015
  791MOL0     C 4293   5.060  -0.699   6.976 -0.1478  0.1615 -0.6227
  791MOL0     C 4294   4.979  -0.667   7.095  0.5475  0.2853  0.0483
  791MOL0     C 4295   4.848  -0.737   7.107  0.3654  0.6208  0.4262
  791MOL0     C 4296   4.772  -0.710   7.238  0.4102  0.2086  0.8334
  791MOL0     N 4297   4.845  -0.769   7.355  0.0044  0.9774  0.4171
  791MOL0     C 4298   4.863  -0.907   7.381 -1.0522 -0.0472 -0.5991
  791MOL0     C 4299   4.968  -0.909   7.479  0.2325  0.7502 -0.1867
  791MOL0     C 4300   5.031  -1.028   7.546 -0.6763 -0.3052 -0.4145
  791MOL0     C 4301   4.967  -1.063   7.674  0.9664  0.2233 -0.4528
  791MOL0     C 4302   4.812  -1.100   7.655 -0.2513  0.3178  0.6383
  791MOL0     C 4303   4.711  -0.984   7.670  0.0742  0.8493  1.0519
  791MOL0     O 4304   4.715  -0.931   7.804  0.1544 -0.0306 -0.5799
  791MOL0     C 4305   4.620  -0.832   7.834 -0.5775  0.3932  0.2426
  791MOL0     C 4306   4.569  -0.843   7.963  0.3723  0.2827  0.8273
  791MOL0     C 4307   4.469  -0.751   8.007  0.3403 -0.5011 -0.8974
  791MOL0     C 4308   4.419  -0.651   7.927  0.7832 -0.4487 -0.2057
  791MOL0     C 4309   4.297  -0.570   7.972 -0.5266 -0.6064  0.3899
  791MOL0     O 4310   4.257  -0.484   7.880  0.0803  0.1609  0.7056
  791MOL0     C 4311   4.158  -0.394   7.885  0.7263 -0.2534 -0.2092
  791MOL0     C 4312   4.053  -0.387   7.983  0.2110  0.3552 -0.1123
  791MOL0     C 4313   3.954  -0.296   7.976  0.4600  0.3283  0.3552
  791MOL0     C 4314   3.942  -0.203   7.873  0.5470  0.4889 -0.8002
  791MOL0     O 4315   3.826  -0.123   7.887  1.2310  0.8403 -0.6540
  791MOL0     C 4316   3.809   0.011   7.842 -0.9201  0.2351 -0.1837
  791MOL0     C 4317   3.692   0.012   7.749  0.3880 -0.4038  0.2564
  791MOL0     C 4318   3.661   0.153   7.682 -0.2328 -0.2270 -0.5677
  791MOL0     C 4319   3.751   0.179   7.565  1.7999 -0.2713  0.1408
  791MOL0     C 4320   3.752   0.318   7.499 -0.0227  1.0678 -0.4199
  791MOL0     C 4321   3.619   0.378   7.466 -0.4523 -0.3641 -0.1103
  791MOL0     C 4322   3.603   0.532   7.496 -0.5695 -0.1945 -1.1339
  791MOL0     C 4323   3.579   0.583   7.636 -0.0207 -0.0332 -1.0720
  791MOL0    Cl 4324   3.404   0.541   7.652  0.4298 -0.0142  0.0601
  791MOL0     C 4325   4.045  -0.199   7.776  0.7568  0.2132  0.4819
  791MOL0     C 4326   4.144  -0.299   7.778  0.3688  0.1657 -0.6378
  791MOL0     O 4327   4.262  -0.564   8.085  0.1280  0.7384 -0.7900
  791MOL0     C 4328   4.468  -0.645   7.792  0.4254 -0.7167  0.7453
  791MOL0     C 4329   4.575  -0.733   7.752 -0.8413  0.1327  0.3462
  791MOL0     N 4330   5.000  -0.771   7.505  0.8337 -0.0074 -0.0763
  791MOL0     N 4331   4.924  -0.691   7.439  0.0989  0.4219 -0.7380
  791MOL0     C 4332   5.600  -0.293   7.291 -0.6038 -0.7278  0.4193
  791MOL0     C 4333   5.636  -0.187   7.371  0.2378  0.2833  0.3022
  791MOL0     C 4334   5.932   0.114   7.569 -0.4338 -0.2261 -0.3903
  791MOL0     C 4335   5.858   0.232   7.570  0.5292  0.8460  0.1654
  791MOL0     C 4336   5.883   0.334   7.660 -0.1207 -0.6389  0.1996
  791MOL0     C 4337   5.972   0.332   7.766  0.1830  1.5973  0.0361
  791MOL0     O 4338   5.954   0.428   7.856  0.0640 -0.3653 -0.0607
  791MOL0     C 4339   6.064   0.456   7.946  1.2788 -0.7853  0.0677
  791MOL0     C 4340   6.149   0.582   7.902 -0.6247  0.8202 -1.1027
  791MOL0     C 4341   6.175   0.598   7.750  0.3093  0.8236 -0.0310
  791MOL0     C 4342   6.318   0.564   7.706  0.8438 -0.4193 -0.9506
  791MOL0     C 4343   6.336   0.420   7.703  0.2693  0.5898 -0.4525
  791MOL0     C 4344   6.349   0.292   7.696 -0.4381  0.4804 -0.5911
  791MOL0     C 4345   6.047   0.214   7.771  0.4981 -0.7702 -0.3558
  791MOL0     C 4346   6.028   0.116   7.676  0.4628  0.7902 -0.4000
  791MOL0     H 4347   5.881  -0.064   7.181  1.8618 -2.3903 -2.7332
  791MOL0     H 4348   5.806  -0.256   7.030  1.1586 -1.1465  1.2248
  791MOL0     H 4349   5.473  -0.513   7.212  3.3577 -0.2341  0.7325
  791MOL0     H 4350   5.551  -0.620   7.095 -0.1648  0.1019 -2.4867
  791MOL0     H 4351   5.424  -0.494   6.905 -2.2485  1.1697  0.2663
  791MOL0     H 4352   5.346  -0.402   7.034 -0.3291  1.2486 -1.1052
  791MOL0     H 4353   5.263  -0.607   7.135  2.3202  3.8699  0.3377
  791MOL0     H 4354   5.326  -0.705   6.998 -4.6800 -1.6697 -1.1115
  791MOL0     H 4355   5.118  -0.496   6.955 -2.3392 -0.0858 -1.5105
  791MOL0     H 4356   5.180  -0.610   6.834 -3.4144  0.2417 -0.1458
  791MOL0     H 4357   5.098  -0.800   6.990  0.9886  0.7183  0.4745
  791MOL0     H 4358   4.999  -0.712   6.886 -0.1481 -0.4082 -0.5438
  791MOL0     H 4359   4.959  -0.560   7.107 -2.0120 -0.1338  0.1307
  791MOL0     H 4360   5.030  -0.703   7.185 -2.0723 -2.4616  0.5917
  791MOL0     H 4361   4.772  -0.721   7.030 -0.5082 -4.4897 -0.0844
  791MOL0     H 4362   4.862  -0.844   7.093 -2.6186 -0.5339  4.5275
  791MOL0     H 4363   4.688  -0.779   7.220  0.2788  0.2764  1.1738
  791MOL0     H 4364   4.741  -0.605   7.232 -2.2532 -0.4765  1.0540
  791MOL0     H 4365   4.821  -0.988   7.323  0.0045 -2.3800  1.6980
  791MOL0     H 4366   5.136  -1.003   7.563 -0.9194  0.1613  0.5121
  791MOL0     H 4367   5.019  -1.107   7.471  0.7568  0.7770 -1.8383
  791MOL0     H 4368   4.962  -0.982   7.748 -1.2379 -0.2107 -0.0518
  791MOL0     H 4369   5.015  -1.155   7.708  0.1138 -1.4874 -3.4836
  791MOL0     H 4370   4.787  -1.135   7.555  1.1741  2.7398 -0.6884
  791MOL0     H 4371   4.788  -1.176   7.729  1.1907  1.1136  2.0094
  791MOL0     H 4372   4.609  -1.020   7.650  0.8771 -0.6045 -0.6989
  791MOL0     H 4373   4.737  -0.904   7.601 -1.2415 -0.0467 -0.5549
  791MOL0     H 4374   4.599  -0.916   8.037  1.0170  0.5119  0.7942
  791MOL0     H 4375   4.443  -0.746   8.112  1.1026  1.0938 -0.7415
  791MOL0     H 4376   4.056  -0.455   8.068  0.3589  0.6672  0.1351
  791MOL0     H 4377   3.887  -0.296   8.061 -1.4015 -0.2404 -1.0413
  791MOL0     H 4378   3.900   0.052   7.798 -0.0336 -0.7001  0.7063
  791MOL0     H 4379   3.796   0.076   7.929  0.5034  2.5092 -1.5932
  791MOL0     H 4380   3.606  -0.028   7.804  0.9655 -1.6486  0.2916
  791MOL0     H 4381   3.704  -0.057   7.666  0.6946  0.2223 -0.2315
  791MOL0     H 4382   3.673   0.231   7.757 -1.6105  0.4474 -1.0306
  791MOL0     H 4383   3.558   0.153   7.645  0.0807 -0.0482 -1.4794
  791MOL0     H 4384   3.855   0.174   7.601  1.8771  1.4233  0.2640
  791MOL0     H 4385   3.726   0.101   7.492  2.0912 -1.7463  1.5594
  791MOL0     H 4386   3.812   0.302   7.409 -3.4336 -1.5322 -2.4632
  791MOL0     H 4387   3.810   0.380   7.568  3.4309 -2.3581  0.1025
  791MOL0     H 4388   3.546   0.321   7.523 -0.9431 -3.0358 -3.0984
  791MOL0     H 4389   3.595   0.376   7.359 -2.0960  2.8879  0.0629
  791MOL0     H 4390   3.694   0.578   7.456  1.9099 -2.5436  1.3709
  791MOL0     H 4391   3.523   0.563   7.428 -3.9753 -5.0177  0.1524
  791MOL0     H 4392   3.591   0.692   7.646 -0.2525  0.0212 -1.3748
  791MOL0     H 4393   3.628   0.523   7.713 -2.2402 -0.7652 -0.1363
  791MOL0     H 4394   4.041  -0.122   7.699  1.0320 -0.3623 -0.1185
  791MOL0     H 4395   4.219  -0.312   7.701  0.3506 -4.9940 -0.0811
  791MOL0     H 4396   4.435  -0.564   7.728 -0.0768  0.0162  1.8859
  791MOL0     H 4397   4.619  -0.741   7.653  2.0264 -2.4976  1.6630
  791MOL0     H 4398   5.510  -0.340   7.330 -0.3009 -1.1293  0.6467
  791MOL0     H 4399   5.570  -0.169   7.455 -2.0777  0.1169 -1.4061
  791MOL0     H 4400   5.785   0.259   7.495  1.9622  1.6439 -0.9969
  791MOL0     H 4401   5.808   0.412   7.670  0.6504 -0.0084  1.3090
  791MOL0     H 4402   6.137   0.376   7.966  1.5151 -0.4694  0.4808
  791MOL0     H 4403   6.017   0.480   8.042  5.5048  1.0220  1.9465
  791MOL0     H 4404   6.089   0.667   7.935 -3.0719 -0.5153 -1.8676
  791MOL0     H 4405   6.241   0.565   7.960 -0.7200 -1.0289 -1.4347
  791MOL0     H 4406   6.163   0.704   7.724  0.4748  0.4090 -1.9794
  791MOL0     H 4407   6.114   0.541   7.679 -1.3758  2.8803 -0.3372
  791MOL0     H 4408   6.325   0.605   7.605 -2.8758 -1.2868 -1.6939
  791MOL0     H 4409   6.381   0.606   7.785 -2.9430  3.4651  0.3780
  791MOL0     H 4410   6.358   0.186   7.685  2.0788  0.4911  0.8368
  791MOL0     H 4411   6.114   0.189   7.852  0.2938 -1.0373 -0.2700
  791MOL0     H 4412   6.088   0.027   7.689  1.6952  1.1169 -3.0736
  792MOL0     O 4413   6.150   5.742   1.033 -0.1118 -0.7014  0.2735
  792MOL0     C 4414   6.179   5.663   1.122  1.1905 -0.4885  0.6009
  792MOL0     O 4415   6.141   5.531   1.118  0.2581  0.5943  0.3830
  792MOL0     C 4416   6.041   5.493   1.031 -0.2047  0.6523  0.4670
  792MOL0     C 4417   5.933   5.570   0.980 -0.0583 -0.6458  0.0944
  792MOL0     C 4418   5.834   5.493   0.900 -0.5280  0.1256 -0.6282
  792MOL0     C 4419   5.849   5.358   0.871  0.6222 -0.1604  0.4526
  792MOL0     O 4420   5.751   5.289   0.799 -0.0205 -0.9418 -0.0570
  792MOL0     C 4421   5.626   5.354   0.788 -0.1360 -0.3235  0.5995
  792MOL0     C 4422   5.506   5.280   0.724  0.1424  0.1757  0.3443
  792MOL0     C 4423   5.389   5.385   0.704  0.1315  0.3215  0.2286
  792MOL0     C 4424   5.260   5.309   0.682 -0.1582 -0.3218 -0.1915
  792MOL0     C 4425   5.127   5.388   0.701  0.2789  0.1682 -0.6973
  792MOL0     C 4426   5.021   5.349   0.598  0.7924  0.5776 -0.5122
  792MOL0     C 4427   4.882   5.422   0.624  0.0703 -0.3453 -0.1351
  792MOL0     C 4428   4.784   5.432   0.516 -1.1091  0.3174 -0.4373
  792MOL0     N 4429   4.666   5.502   0.567  0.0776  0.3016  0.1933
  792MOL0     C 4430   4.613   5.630   0.535 -0.4032  0.3639  0.7910
  792MOL0     C 4431   4.486   5.634   0.596  0.3790 -0.1589  0.0122
  792MOL0     C 4432   4.407   5.762   0.608 -0.0645  0.5134  0.1664
  792MOL0     C 4433   4.308   5.775   0.492  0.7559  0.3763  0.8277
  792MOL0     C 4434   4.300   5.916   0.427 -0.6941 -0.2980  0.3834
  792MOL0     C 4435   4.213   6.004   0.521 -0.6686 -0.3205 -0.2007
  792MOL0     O 4436   4.270   6.136   0.520  0.4765  0.0855  0.7109
  792MOL0     C 4437   4.189   6.235   0.569  0.5663 -1.3704  0.2869
  792MOL0     C 4438   4.232   6.322   0.676  0.7657  0.4914  0.9997
  792MOL0     C 4439   4.152   6.427   0.730 -1.0862 -0.3702  1.3337
  792MOL0     C 4440   4.024   6.438   0.677  0.0592 -0.7513 -0.3906
  792MOL0     C 4441   3.938   6.541   0.751  0.1314  0.7077  0.3521
  792MOL0     O 4442   3.824   6.590   0.690 -0.2032  0.3532 -0.0531
  792MOL0     C 4443   3.755   6.683   0.770 -0.7863 -0.3068  0.9541
  792MOL0     C 4444   3.629   6.653   0.806  0.1899  0.4174 -0.1705
  792MOL0     C 4445   3.552   6.744   0.883  0.7306 -0.2462 -0.0093
  792MOL0     C 4446   3.597   6.874   0.922 -0.5137  0.8993 -0.3055
  792MOL0     O 4447   3.531   6.941   1.010  0.1390 -0.0148  0.1714
  792MOL0     C 4448   3.596   7.056   1.065  0.5390  0.4152  0.2633
  792MOL0     C 4449   3.498   7.111   1.169  0.4489 -0.0698  0.4259
  792MOL0     C 4450   3.359   7.144   1.105  0.0259  0.0039 -0.7480
  792MOL0     C 4451   3.359   7.270   1.012  0.3035 -0.8881 -0.7322
  792MOL0     C 4452   3.371   7.410   1.096 -0.1704  0.0494  0.1153
  792MOL0     C 4453   3.235   7.442   1.162 -0.0113  0.3908  0.0461
  792MOL0     C 4454   3.248   7.519   1.294  0.5342 -0.7854 -0.8662
  792MOL0     C 4455   3.113   7.572   1.326  0.4508 -0.8713  0.5167
  792MOL0    Cl 4456   3.016   7.446   1.426  0.3832  0.3812 -0.2838
  792MOL0     C 4457   3.728   6.913   0.862 -0.2171 -0.2790  0.2340
  792MOL0     C 4458   3.810   6.817   0.795  0.1934  0.6632  0.1459
  792MOL0     O 4459   3.974   6.565   0.867 -0.9843 -0.2644  0.5573
  792MOL0     C 4460   3.976   6.357   0.583 -0.4975 -0.4925  0.8407
  792MOL0     C 4461   4.057   6.252   0.524  0.0843 -0.5006  1.2191
  792MOL0     N 4462   4.451   5.512   0.655 -0.4261 -0.8203 -0.3089
  792MOL0     N 4463   4.566   5.437   0.639  0.2169  0.1566 -0.2419
  792MOL0     C 4464   5.958   5.295   0.922 -1.2716  0.9458  0.3013
  792MOL0     C 4465   6.056   5.361   0.999 -0.2979 -0.1459  0.3384
  792MOL0     C 4466   6.279   5.706   1.220 -0.3941 -1.2793 -0.2425
  792MOL0     C 4467   6.278   5.673   1.349 -0.9507  0.3393  0.0959
  792MOL0     C 4468   6.366   5.728   1.444 -0.6400  0.0793  0.3626
  792MOL0     C 4469   6.469   5.811   1.406 -0.7754 -0.4911 -0.5443
  792MOL0     O 4470   6.565   5.863   1.491 -1.0024  0.4462 -0.1994
  792MOL0     C 4471   6.503   5.954   1.582 -0.1989 -0.5035  0.5611
  792MOL0     C 4472   6.564   6.091   1.563 -0.3030 -0.4080  0.3925
  792MOL0     C 4473   6.521   6.165   1.437 -0.7338 -0.4843 -0.5298
  792MOL0     C 4474   6.619   6.277   1.401  1.0012 -0.4311 -0.6514
  792MOL0     C 4475   6.576   6.348   1.278  0.7718 -0.1676 -0.9646
  792MOL0     C 4476   6.547   6.405   1.169  0.5685 -0.8651  0.4324
  792MOL0     C 4477   6.480   5.836   1.270 -0.1415 -0.1179 -0.2105
  792MOL0     C 4478   6.389   5.785   1.180  0.1539  0.4613 -0.3255
  792MOL0     H 4479   5.914   5.667   1.024 -1.9072 -0.7526 -0.3777
  792MOL0     H 4480   5.752   5.554   0.864 -0.0631 -0.6007 -3.1101
  792MOL0     H 4481   5.648   5.441   0.726  0.7764 -1.1409 -0.2664
  792MOL0     H 4482   5.589   5.389   0.885  0.8425 -0.2379  0.9575
  792MOL0     H 4483   5.473   5.208   0.800 -1.0437  0.0444 -0.2692
  792MOL0     H 4484   5.536   5.227   0.633  1.2116 -3.1968  2.4504
  792MOL0     H 4485   5.408   5.448   0.617 -1.2071 -0.9810 -1.0594
  792MOL0     H 4486   5.392   5.443   0.797  1.0348  0.7662 -0.0628
  792MOL0     H 4487   5.266   5.288   0.575  0.9945  1.7418 -0.5927
  792MOL0     H 4488   5.268   5.217   0.741  2.2182 -0.7811 -1.0870
  792MOL0     H 4489   5.152   5.495   0.699 -1.0319  0.4797 -1.2464
  792MOL0     H 4490   5.088   5.371   0.801  0.1016  1.5191 -0.5165
  792MOL0     H 4491   5.016   5.240   0.590  0.4812  0.2651  2.8603
  792MOL0     H 4492   5.053   5.390   0.501  0.9890  1.1435 -0.2140
  792MOL0     H 4493   4.848   5.357   0.706 -0.7392 -2.0408 -1.7348
  792MOL0     H 4494   4.905   5.520   0.666  4.2791 -1.6803  1.1843
  792MOL0     H 4495   4.762   5.333   0.475 -1.7783  0.1858  0.2257
  792MOL0     H 4496   4.839   5.484   0.437  1.6656 -1.2232  0.3479
  792MOL0     H 4497   4.662   5.709   0.481 -0.1297 -1.2213 -1.3965
  792MOL0     H 4498   4.474   5.849   0.606 -1.5345  1.7284  0.9084
  792MOL0     H 4499   4.360   5.750   0.706 -0.2665  0.6771  0.0914
  792MOL0     H 4500   4.213   5.737   0.531 -1.3292  2.0516 -2.1585
  792MOL0     H 4501   4.335   5.706   0.411 -0.4260  0.7658  0.0703
  792MOL0     H 4502   4.403   5.950   0.415 -2.0020  3.6282 -1.1795
  792MOL0     H 4503   4.255   5.906   0.328 -0.0523 -0.2842  0.0814
  792MOL0     H 4504   4.204   5.951   0.616 -0.9351 -1.6568 -0.9354
  792MOL0     H 4505   4.113   6.001   0.477  0.7204 -1.8283 -3.6439
  792MOL0     H 4506   4.331   6.306   0.716  1.0332  1.1497  0.6179
  792MOL0     H 4507   4.200   6.481   0.811 -2.0674  0.6206  1.2775
  792MOL0     H 4508   3.574   6.566   0.774 -0.4925  0.3019  1.2387
  792MOL0     H 4509   3.446   6.722   0.889  0.2094  2.0466 -0.0023
  792MOL0     H 4510   3.632   7.130   0.993  1.8680  0.1691  0.6469
  792MOL0     H 4511   3.679   7.012   1.120  0.9014 -0.4743 -0.9515
  792MOL0     H 4512   3.549   7.199   1.208 -1.7399  2.0654 -1.2153
  792MOL0     H 4513   3.469   7.043   1.250  0.1885 -0.8439 -0.3037
  792MOL0     H 4514   3.294   7.173   1.188 -2.4421  3.1678 -3.4934
  792MOL0     H 4515   3.320   7.055   1.056  2.6715 -0.8735 -1.4122
  792MOL0     H 4516   3.441   7.278   0.941  1.5977  0.1247  0.8106
  792MOL0     H 4517   3.263   7.286   0.961  0.1878 -1.8609 -0.8308
  792MOL0     H 4518   3.386   7.493   1.026 -3.7718  0.1675 -0.7069
  792MOL0     H 4519   3.458   7.397   1.161  0.2501 -3.1680 -0.9106
  792MOL0     H 4520   3.182   7.349   1.185  1.4501 -1.0023 -1.8401
  792MOL0     H 4521   3.182   7.508   1.093  0.6958 -0.0297 -0.9363
  792MOL0     H 4522   3.279   7.450   1.373  2.8464 -0.9692 -1.8476
  792MOL0     H 4523   3.327   7.594   1.295 -0.8385  0.7207  0.5460
  792MOL0     H 4524   3.048   7.607   1.246 -0.6552  2.8350  2.7671
  792MOL0     H 4525   3.129   7.663   1.385  0.6040 -1.8890  2.1259
  792MOL0     H 4526   3.788   7.004   0.861 -0.6525 -0.0006 -0.2937
  792MOL0     H 4527   3.908   6.852   0.765  1.5389 -4.1571 -2.0983
  792MOL0     H 4528   3.873   6.353   0.551 -0.7440 -1.3765  1.6924
  792MOL0     H 4529   4.006   6.192   0.449  0.0206 -1.1224  1.7548
  792MOL0     H 4530   5.968   5.188   0.909 -0.8967  1.2802 -3.0009
  792MOL0     H 4531   6.156   5.322   1.017  0.8608  0.1149 -4.1752
  792MOL0     H 4532   6.205   5.601   1.387 -1.5784  1.8105  1.8424
  792MOL0     H 4533   6.354   5.691   1.546  1.2932  0.3221  0.7141
  792MOL0     H 4534   6.520   5.927   1.687 -1.8990  1.5932  1.4375
  792MOL0     H 4535   6.394   5.962   1.581 -0.1658  2.0003  3.2864
  792MOL0     H 4536   6.544   6.156   1.648 -1.8308 -0.4614  0.1138
  792MOL0     H 4537   6.673   6.086   1.557 -0.1769  2.0340 -0.3143
  792MOL0     H 4538   6.415   6.193   1.447 -0.7728 -1.0004  0.6919
  792MOL0     H 4539   6.516   6.100   1.349  1.8917 -0.4180 -0.8003
  792MOL0     H 4540   6.619   6.353   1.480  1.5885 -0.3245 -0.7531
  792MOL0     H 4541   6.723   6.245   1.390  2.0983  1.8675  1.8730
  792MOL0     H 4542   6.521   6.451   1.076 -3.4763  0.2689  1.8965
  792MOL0     H 4543   6.560   5.903   1.243 -1.9704  2.8568  1.2398
  792MOL0     H 4544   6.396   5.805   1.073  0.0996 -0.8402 -0.5932
  793MOL0     O 4545   7.781   3.225   1.239  0.0213  0.5954 -0.7810
  793MOL0     C 4546   7.689   3.152   1.197 -1.9798 -0.8044 -0.2447
  793MOL0     O 4547   7.567   3.180   1.169 -0.0934  0.1078  0.2810
  793MOL0     C 4548   7.525   3.311   1.163  0.6797  0.9426 -0.3904
  793MOL0     C 4549   7.466   3.374   1.271  0.4072  0.1382  0.7829
  793MOL0     C 4550   7.437   3.519   1.264 -0.2446  0.6148 -0.8475
  793MOL0     C 4551   7.470   3.591   1.149  0.6096  0.3617  0.2528
  793MOL0     O 4552   7.461   3.726   1.163 -0.3160 -0.2130 -0.6811
  793MOL0     C 4553   7.437   3.811   1.039  0.9711 -0.1285 -2.0267
  793MOL0     C 4554   7.363   3.930   1.092 -0.0734 -0.7170  0.5709
  793MOL0     C 4555   7.356   4.025   0.974  0.1225  0.6523  1.1549
  793MOL0     C 4556   7.286   4.157   1.007 -0.2387 -0.3029 -0.3001
  793MOL0     C 4557   7.263   4.244   0.885  0.1843 -0.9130  0.4775
  793MOL0     C 4558   7.185   4.366   0.932 -0.3577 -0.5045 -0.5457
  793MOL0     C 4559   7.167   4.477   0.836 -0.3679  0.1853  0.2602
  793MOL0     C 4560   7.294   4.530   0.770  1.0453 -0.3012  0.4177
  793MOL0     N 4561   7.254   4.601   0.644 -0.2874 -0.2187 -0.3014
  793MOL0     C 4562   7.302   4.734   0.625  0.0854  0.2657 -0.1269
  793MOL0     C 4563   7.317   4.745   0.492 -0.2194  0.3498 -0.8599
  793MOL0     C 4564   7.366   4.870   0.427 -0.0844  1.0226  0.1560
  793MOL0     C 4565   7.300   4.988   0.485  0.4081 -0.2798  0.7227
  793MOL0     C 4566   7.377   5.118   0.465 -0.6807 -0.4678  0.2031
  793MOL0     C 4567   7.304   5.235   0.527  0.1419  0.0652  0.3740
  793MOL0     O 4568   7.160   5.222   0.503 -0.1440  0.5532 -0.1375
  793MOL0     C 4569   7.074   5.313   0.551  1.1432 -0.6875  0.3158
  793MOL0     C 4570   7.107   5.444   0.600  0.2139  0.2750 -0.1854
  793MOL0     C 4571   7.010   5.539   0.641  0.3052  0.8967 -0.6579
  793MOL0     C 4572   6.870   5.507   0.632  0.8923 -0.4976  1.1791
  793MOL0     C 4573   6.756   5.589   0.680 -0.4071 -0.0120  0.0650
  793MOL0     O 4574   6.784   5.722   0.696  0.2972 -0.2888  0.1525
  793MOL0     C 4575   6.708   5.803   0.781  0.8786  0.2630 -0.0811
  793MOL0     C 4576   6.566   5.797   0.768  0.0138 -0.5285 -0.1294
  793MOL0     C 4577   6.478   5.881   0.840  0.3418 -0.1267 -1.0506
  793MOL0     C 4578   6.540   5.995   0.907 -0.3029  0.5145  0.2444
  793MOL0     O 4579   6.474   6.102   0.958 -0.8008 -0.0532  0.3791
  793MOL0     C 4580   6.335   6.103   0.937  1.1654 -0.5349 -0.9071
  793MOL0     C 4581   6.278   6.237   0.992 -0.4991 -0.6515  0.5656
  793MOL0     C 4582   6.246   6.271   1.133  0.6820  0.1606 -0.7059
  793MOL0     C 4583   6.192   6.404   1.155  0.5926  0.3300  0.3110
  793MOL0     C 4584   6.177   6.420   1.311 -0.9165  0.3479 -0.0739
  793MOL0     C 4585   6.107   6.557   1.354 -1.3498 -0.2008  0.1949
  793MOL0     C 4586   5.953   6.574   1.333 -0.3728  0.2475  0.2240
  793MOL0     C 4587   5.877   6.447   1.377  0.7002 -0.8985  0.1644
  793MOL0    Cl 4588   5.698   6.469   1.369  0.1370  0.2828  0.1455
  793MOL0     C 4589   6.672   5.996   0.929 -0.4043  0.2288  1.0663
  793MOL0     C 4590   6.752   5.908   0.860 -0.6188  0.8756 -0.2980
  793MOL0     O 4591   6.645   5.534   0.704 -0.5249 -0.4945 -1.1505
  793MOL0     C 4592   6.843   5.383   0.570  0.1774  0.2317 -0.3376
  793MOL0     C 4593   6.938   5.286   0.531  0.0987 -0.7055 -0.4532
  793MOL0     N 4594   7.267   4.629   0.427  1.4599  0.1151 -0.2614
  793MOL0     N 4595   7.238   4.542   0.520  0.5506  0.4337 -0.8002
  793MOL0     C 4596   7.524   3.521   1.046  0.0739 -0.4607 -0.5859
  793MOL0     C 4597   7.545   3.384   1.049 -0.5477 -0.1448 -0.3507
  793MOL0     C 4598   7.736   3.010   1.192  0.3430  0.0547 -0.2209
  793MOL0     C 4599   7.823   2.951   1.289  0.1628 -0.4738 -0.2748
  793MOL0     C 4600   7.884   2.828   1.274 -0.0821  0.0553 -0.8018
  793MOL0     C 4601   7.860   2.756   1.159  0.3144 -0.3318  0.5515
  793MOL0     O 4602   7.922   2.629   1.145  1.0516  0.0961  0.8319
  793MOL0     C 4603   7.835   2.514   1.123 -0.2493 -0.0423  0.8102
  793MOL0     C 4604   7.730   2.505   1.235 -0.3707 -0.0833 -1.0460
  793MOL0     C 4605   7.789   2.445   1.362 -0.7195  0.4287 -0.2203
  793MOL0     C 4606   7.696   2.357   1.446  0.7609 -0.5109  0.5929
  793MOL0     C 4607   7.641   2.240   1.388  0.0742 -0.3309  1.2030
  793MOL0     C 4608   7.624   2.132   1.339  0.5175 -0.1229  0.1161
  793MOL0     C 4609   7.758   2.798   1.070 -0.9216  0.4921  1.1001
  793MOL0     C 4610   7.703   2.929   1.079  0.1739  0.0465  0.5255
  793MOL0     H 4611   7.449   3.321   1.365 -0.7290  2.7131  2.1260
  793MOL0     H 4612   7.409   3.572   1.354  1.2601 -0.0179  0.0236
  793MOL0     H 4613   7.375   3.759   0.966 -0.3174 -0.4365 -0.7598
  793MOL0     H 4614   7.537   3.834   1.003  1.3575  0.6597 -0.5492
  793MOL0     H 4615   7.419   3.982   1.170 -0.4054 -1.5419  1.3810
  793MOL0     H 4616   7.278   3.895   1.151  0.7850  1.8107  3.5752
  793MOL0     H 4617   7.298   3.973   0.897  1.5244 -1.2163  1.3009
  793MOL0     H 4618   7.460   4.042   0.945  0.6890 -0.5209  2.3744
  793MOL0     H 4619   7.188   4.135   1.049 -1.0770 -2.2636 -2.9724
  793MOL0     H 4620   7.343   4.211   1.083 -3.8256  0.2422  2.2328
  793MOL0     H 4621   7.212   4.197   0.800 -0.5269  1.6483 -0.6157
  793MOL0     H 4622   7.367   4.254   0.851  0.2829 -2.2227  0.3592
  793MOL0     H 4623   7.240   4.409   1.016  1.2856 -1.0942 -1.2843
  793MOL0     H 4624   7.085   4.342   0.969  0.7863 -1.1488  2.4882
  793MOL0     H 4625   7.100   4.444   0.757 -0.5250 -2.2554  1.3080
  793MOL0     H 4626   7.121   4.560   0.891 -0.5711 -1.0792  2.0789
  793MOL0     H 4627   7.357   4.447   0.737  0.6787 -1.0504  1.5510
  793MOL0     H 4628   7.346   4.593   0.841  1.2008 -0.5804  0.5512
  793MOL0     H 4629   7.347   4.808   0.691  6.6887 -1.3350 -2.0380
  793MOL0     H 4630   7.359   4.863   0.318 -0.7546 -4.6789  0.2665
  793MOL0     H 4631   7.472   4.871   0.452 -0.5133  2.7542  2.1705
  793MOL0     H 4632   7.282   4.982   0.592 -3.4687  3.3909  0.5674
  793MOL0     H 4633   7.200   4.990   0.439  1.1257  0.9129 -0.8976
  793MOL0     H 4634   7.481   5.122   0.499  0.4116  0.3098 -2.8938
  793MOL0     H 4635   7.367   5.135   0.358 -0.3561  0.5955  0.3277
  793MOL0     H 4636   7.323   5.332   0.479  3.0065 -0.4948  0.1936
  793MOL0     H 4637   7.324   5.247   0.634 -0.1972  3.9171  0.1719
  793MOL0     H 4638   7.209   5.468   0.627  0.9176 -3.1017  0.6171
  793MOL0     H 4639   7.045   5.633   0.683 -2.1123  0.2737  3.2412
  793MOL0     H 4640   6.513   5.725   0.707 -1.1516  0.4096 -0.2737
  793MOL0     H 4641   6.370   5.871   0.834  0.1932 -0.3276  1.1468
  793MOL0     H 4642   6.285   6.023   0.993  0.6295  1.6195  1.9120
  793MOL0     H 4643   6.308   6.087   0.833  3.5459  0.9357 -1.8333
  793MOL0     H 4644   6.183   6.239   0.937  1.6499 -0.1395 -3.4714
  793MOL0     H 4645   6.342   6.304   0.935 -2.1743 -3.0369 -4.8171
  793MOL0     H 4646   6.336   6.255   1.193  0.6710  0.1889 -0.6822
  793MOL0     H 4647   6.157   6.212   1.157  0.8305  0.3562  0.3930
  793MOL0     H 4648   6.262   6.473   1.107 -1.7495  1.4790 -1.6565
  793MOL0     H 4649   6.093   6.408   1.109  0.7659 -0.2540 -0.1291
  793MOL0     H 4650   6.279   6.412   1.349 -1.3628 -1.5046  0.8094
  793MOL0     H 4651   6.121   6.337   1.354  1.6699 -3.6776 -3.6379
  793MOL0     H 4652   6.154   6.637   1.296 -0.9151 -2.4792 -2.8467
  793MOL0     H 4653   6.135   6.569   1.459  0.2814 -0.2683 -0.2084
  793MOL0     H 4654   5.912   6.654   1.395  2.6748  1.6602  0.6111
  793MOL0     H 4655   5.943   6.597   1.227  0.1215  0.0335  0.1278
  793MOL0     H 4656   5.898   6.423   1.482  1.0862  0.7141  0.4926
  793MOL0     H 4657   5.902   6.361   1.316 -0.1281  1.9632 -4.7710
  793MOL0     H 4658   6.718   6.072   0.990  0.6509 -0.0163  0.6144
  793MOL0     H 4659   6.859   5.920   0.874 -0.9432  0.5963  3.1946
  793MOL0     H 4660   6.738   5.362   0.551  0.6062  1.4807 -5.2371
  793MOL0     H 4661   6.922   5.188   0.489 -0.5511 -0.4813 -0.7381
  793MOL0     H 4662   7.541   3.573   0.952 -2.7755  1.6130 -0.1231
  793MOL0     H 4663   7.579   3.330   0.961  3.8091  3.5298 -1.3105
  793MOL0     H 4664   7.847   3.015   1.373 -1.3008 -0.3598  0.0897
  793MOL0     H 4665   7.960   2.792   1.343  0.9634  2.4188 -0.6055
  793MOL0     H 4666   7.897   2.424   1.118 -0.4491 -0.2609 -5.2674
  793MOL0     H 4667   7.787   2.506   1.025 -0.3043  2.9429  0.5082
  793MOL0     H 4668   7.683   2.595   1.275  1.8410 -1.1862  5.1849
  793MOL0     H 4669   7.647   2.439   1.209 -0.7297 -3.0076  5.6043
  793MOL0     H 4670   7.821   2.526   1.428  3.2006 -1.8539  1.0164
  793MOL0     H 4671   7.878   2.383   1.349 -0.8133 -0.5887  3.1277
  793MOL0     H 4672   7.761   2.333   1.531  0.5623 -0.5359  0.7390
  793MOL0     H 4673   7.613   2.414   1.491  2.5658  0.9024  2.3192
  793MOL0     H 4674   7.612   2.037   1.291 -1.1463  2.4322 -5.4217
  793MOL0     H 4675   7.744   2.724   0.992  1.5617 -1.3878  2.2680
  793MOL0     H 4676   7.648   2.971   0.996  1.8698  1.0432 -0.1549
  794MOL0     O 4677   6.560   3.514   0.035 -0.0686 -0.4907  0.3265
  794MOL0     C 4678   6.559   3.641   0.031  0.0412 -0.4098  0.3802
  794MOL0     O 4679   6.651   3.716  -0.043 -0.7233 -0.8974 -0.0620
  794MOL0     C 4680   6.777   3.673  -0.075  0.4613  0.5309 -0.0817
  794MOL0     C 4681   6.850   3.572  -0.014  0.2870  0.7138  1.1191
  794MOL0     C 4682   6.970   3.529  -0.057 -1.3308 -0.3486  0.4431
  794MOL0     C 4683   7.021   3.589  -0.173  0.8318 -0.3558 -0.5651
  794MOL0     O 4684   7.148   3.542  -0.207  0.0668 -0.2950 -0.1400
  794MOL0     C 4685   7.191   3.549  -0.347  0.3980  0.3932  0.9163
  794MOL0     C 4686   7.206   3.401  -0.383  0.4212 -0.5504  0.6892
  794MOL0     C 4687   7.309   3.385  -0.495 -0.0452 -0.5788  0.2953
  794MOL0     C 4688   7.350   3.235  -0.518 -0.4587 -0.7974  0.7821
  794MOL0     C 4689   7.479   3.223  -0.613  1.0300 -0.5159  0.6349
  794MOL0     C 4690   7.610   3.308  -0.587  0.5989  0.6880 -0.1200
  794MOL0     C 4691   7.684   3.279  -0.456  0.2697  0.3894  0.0695
  794MOL0     C 4692   7.800   3.357  -0.404 -0.0806 -0.6385 -1.0083
  794MOL0     N 4693   7.765   3.492  -0.378 -0.1860 -0.4113  0.2729
  794MOL0     C 4694   7.825   3.611  -0.432 -0.5929 -0.4118 -0.2071
  794MOL0     C 4695   7.755   3.715  -0.400  0.7988 -0.9058  0.3986
  794MOL0     C 4696   7.797   3.857  -0.434 -0.4497  0.5736 -0.6677
  794MOL0     C 4697   7.893   3.919  -0.336  0.1677 -0.1553 -0.3904
  794MOL0     C 4698   7.870   3.883  -0.184  0.0524 -0.1383  0.4052
  794MOL0     C 4699   7.928   3.987  -0.093 -0.3133  0.7548 -0.2583
  794MOL0     O 4700   8.069   3.968  -0.098  0.2293  0.4751  0.9194
  794MOL0     C 4701   8.148   4.052  -0.032  0.5932  0.6227 -0.4006
  794MOL0     C 4702   8.218   4.005   0.081 -0.4638  0.7258 -1.1382
  794MOL0     C 4703   8.311   4.085   0.150 -0.5682 -0.2235  1.3136
  794MOL0     C 4704   8.334   4.221   0.099 -0.3823 -0.6685  0.2639
  794MOL0     C 4705   8.426   4.321   0.164 -0.0280  0.1280  0.0583
  794MOL0     O 4706   8.440   4.443   0.088 -0.3917  0.3553  0.4262
  794MOL0     C 4707   8.530   4.544   0.113 -0.0852  0.1028 -0.8058
  794MOL0     C 4708   8.608   4.588   0.007  1.0659  0.4374 -1.2283
  794MOL0     C 4709   8.721   4.666   0.016  0.5787  1.8732 -0.1634
  794MOL0     C 4710   8.752   4.704   0.145 -0.1213 -0.1370 -0.1308
  794MOL0     O 4711   8.864   4.777   0.164  0.4400  0.1280 -0.5004
  794MOL0     C 4712   8.899   4.824   0.300  0.6687  0.3179  0.4842
  794MOL0     C 4713   9.020   4.918   0.280 -0.0897  0.6297  0.6080
  794MOL0     C 4714   9.091   4.955   0.416 -0.4727  0.4344  0.0645
  794MOL0     C 4715   9.227   5.033   0.384 -0.1965  0.4617 -0.3338
  794MOL0     C 4716   9.325   5.042   0.509 -0.3471  0.5936 -0.0496
  794MOL0     C 4717   9.248   5.097   0.628 -0.3600 -0.4534 -0.8423
  794MOL0     C 4718   9.327   5.088   0.762 -0.3259  0.2562  0.5513
  794MOL0     C 4719   9.283   5.169   0.880  0.1065  0.1874 -0.1497
  794MOL0    Cl 4720   9.332   5.344   0.866  0.2999  0.0656  0.8033
  794MOL0     C 4721   8.671   4.666   0.262 -0.6683  0.3707  0.9929
  794MOL0     C 4722   8.556   4.593   0.244 -0.5479  0.4573  0.1555
  794MOL0     O 4723   8.482   4.295   0.268  0.0284  0.7971  0.3518
  794MOL0     C 4724   8.271   4.271  -0.010  0.4577 -0.0661  0.3922
  794MOL0     C 4725   8.171   4.187  -0.075  0.2708 -0.2622  0.6847
  794MOL0     N 4726   7.650   3.671  -0.323  0.1281 -0.3737 -0.8528
  794MOL0     N 4727   7.666   3.537  -0.300  0.0581 -0.5740 -0.6135
  794MOL0     C 4728   6.962   3.697  -0.236  0.7698  0.4158  0.8167
  794MOL0     C 4729   6.839   3.741  -0.184  0.5426 -0.5744  0.1846
  794MOL0     C 4730   6.448   3.737   0.069 -0.6130  0.2950  0.3412
  794MOL0     C 4731   6.354   3.694   0.162 -0.6745  0.6833 -0.1723
  794MOL0     C 4732   6.248   3.773   0.199  0.6003 -1.1614 -0.4402
  794MOL0     C 4733   6.235   3.905   0.157 -0.3234  0.2295 -0.4618
  794MOL0     O 4734   6.137   3.977   0.219  0.4955  0.1805  0.2688
  794MOL0     C 4735   6.114   4.121   0.189  0.4701  0.0318  0.8236
  794MOL0     C 4736   5.984   4.171   0.250  0.0062  0.3609 -0.4851
  794MOL0     C 4737   5.877   4.124   0.155  0.3024 -0.6840 -0.8424
  794MOL0     C 4738   5.732   4.141   0.209 -0.4568  0.0828 -0.8546
  794MOL0     C 4739   5.709   4.267   0.288 -0.8137 -0.1129 -1.1961
  794MOL0     C 4740   5.697   4.382   0.337 -0.3691  0.1769 -0.2934
  794MOL0     C 4741   6.340   3.949   0.068 -0.6611 -1.2126 -0.5498
  794MOL0     C 4742   6.438   3.864   0.020  0.4104  0.0025  0.0961
  794MOL0     H 4743   6.802   3.533   0.075  1.1280 -1.5527  0.6315
  794MOL0     H 4744   7.041   3.471   0.001  1.3087  2.3182  0.1039
  794MOL0     H 4745   7.283   3.608  -0.341 -0.1070  1.0717  3.6465
  794MOL0     H 4746   7.119   3.592  -0.417 -2.6015  0.1776  3.5862
  794MOL0     H 4747   7.117   3.350  -0.420  0.3267  0.1632 -0.1186
  794MOL0     H 4748   7.240   3.349  -0.293  0.5862  0.1081  1.0129
  794MOL0     H 4749   7.384   3.461  -0.473 -0.4145 -1.1767  4.4172
  794MOL0     H 4750   7.252   3.414  -0.584  1.3440 -1.0831 -0.7977
  794MOL0     H 4751   7.361   3.197  -0.416 -3.0709 -1.9953  0.6938
  794MOL0     H 4752   7.267   3.185  -0.570 -0.0060 -1.0965  0.3451
  794MOL0     H 4753   7.457   3.244  -0.718  0.7371 -0.1998  0.7533
  794MOL0     H 4754   7.506   3.118  -0.607  0.7047 -0.7232 -1.1322
  794MOL0     H 4755   7.592   3.416  -0.577  3.2988  1.1575  0.3357
  794MOL0     H 4756   7.681   3.292  -0.669  1.6148 -0.6493  0.9793
  794MOL0     H 4757   7.623   3.246  -0.371  1.6460 -0.8548  0.6112
  794MOL0     H 4758   7.737   3.185  -0.475 -0.5180 -0.4658  1.8114
  794MOL0     H 4759   7.877   3.358  -0.481  2.5686 -2.4700  1.4084
  794MOL0     H 4760   7.852   3.316  -0.317  0.7615  0.1185 -1.1481
  794MOL0     H 4761   7.912   3.612  -0.497 -0.3719  0.4418  0.0968
  794MOL0     H 4762   7.722   3.931  -0.461  2.1785  3.8922  0.3513
  794MOL0     H 4763   7.839   3.842  -0.534 -1.5961  0.8387 -1.1998
  794MOL0     H 4764   7.883   4.028  -0.346  2.2917  0.0613 -0.5257
  794MOL0     H 4765   7.996   3.894  -0.359  1.5262  1.9252  2.6845
  794MOL0     H 4766   7.767   3.885  -0.147 -1.1269  0.8764 -2.6939
  794MOL0     H 4767   7.924   3.792  -0.154  2.5483  1.9819  2.9329
  794MOL0     H 4768   7.890   3.959   0.005 -3.1945  0.5867 -1.3222
  794MOL0     H 4769   7.892   4.087  -0.122 -2.8445 -0.5268 -1.8963
  794MOL0     H 4770   8.206   3.901   0.109  2.4539  0.4491 -0.6344
  794MOL0     H 4771   8.369   4.041   0.231 -1.6741 -0.4338  2.0094
  794MOL0     H 4772   8.570   4.553  -0.088  1.0601 -0.1574 -1.0114
  794MOL0     H 4773   8.786   4.705  -0.062 -0.6161  2.3097 -0.9584
  794MOL0     H 4774   8.926   4.735   0.358 -0.8665 -1.9120 -2.0051
  794MOL0     H 4775   8.817   4.874   0.354  1.0077  2.3598 -0.8209
  794MOL0     H 4776   8.992   5.016   0.240  0.0965  0.4778  0.0917
  794MOL0     H 4777   9.092   4.864   0.219  0.1316  0.1819  1.2617
  794MOL0     H 4778   9.104   4.858   0.464 -1.2359 -0.5585 -1.6204
  794MOL0     H 4779   9.026   5.008   0.486 -0.7820  0.3938 -0.1893
  794MOL0     H 4780   9.281   4.989   0.299  1.0722 -0.6048  0.9589
  794MOL0     H 4781   9.207   5.135   0.350 -3.6541 -0.5701 -1.7332
  794MOL0     H 4782   9.408   5.112   0.491  0.7070 -0.4284  0.7116
  794MOL0     H 4783   9.367   4.945   0.536 -1.0274  0.0675 -0.8234
  794MOL0     H 4784   9.155   5.043   0.649 -0.6228  0.2720 -0.1003
  794MOL0     H 4785   9.222   5.203   0.616  0.1924  0.3219  3.4465
  794MOL0     H 4786   9.348   4.984   0.787  1.7196  1.0091  2.3229
  794MOL0     H 4787   9.430   5.125   0.751 -0.1432 -0.6137 -1.0141
  794MOL0     H 4788   9.324   5.126   0.972 -1.6916  1.9589  1.5827
  794MOL0     H 4789   9.175   5.161   0.895  0.1363 -1.9542 -0.7779
  794MOL0     H 4790   8.693   4.696   0.363  0.3570  2.1348  0.2881
  794MOL0     H 4791   8.501   4.561   0.332 -2.0222 -0.7023 -1.1251
  794MOL0     H 4792   8.285   4.372  -0.048  1.3375  0.7828  2.7382
  794MOL0     H 4793   8.124   4.224  -0.166 -1.5924  0.4672  1.8744
  794MOL0     H 4794   7.017   3.754  -0.310  2.1866 -1.9711 -0.0643
  794MOL0     H 4795   6.783   3.821  -0.232  0.7278 -1.6823 -2.0047
  794MOL0     H 4796   6.367   3.595   0.203  1.4766  0.3848 -1.4150
  794MOL0     H 4797   6.183   3.735   0.277  0.3764 -1.2774 -0.6829
  794MOL0     H 4798   6.123   4.136   0.081  1.9831 -0.6319  0.8317
  794MOL0     H 4799   6.196   4.176   0.236  1.2271 -1.0981  0.8469
  794MOL0     H 4800   5.960   4.137   0.351  0.2770  1.1642 -0.1398
  794MOL0     H 4801   5.977   4.280   0.259 -0.8958  0.3039 -0.4874
  794MOL0     H 4802   5.887   4.025   0.110 -3.3099 -3.4203  3.4613
  794MOL0     H 4803   5.874   4.200   0.076 -0.7742 -0.4282 -0.5738
  794MOL0     H 4804   5.652   4.137   0.134 -0.0147  1.3045 -1.4194
  794MOL0     H 4805   5.717   4.049   0.266  1.6164 -1.7152 -2.9809
  794MOL0     H 4806   5.663   4.474   0.380  0.4382  0.4746 -0.2777
  794MOL0     H 4807   6.342   4.053   0.039  3.1031 -0.7268  0.9097
  794MOL0     H 4808   6.496   3.914  -0.057 -1.5323  0.8102 -0.9236
  795MOL0     O 4809   9.276  10.250  10.797  1.0730 -0.3713 -0.2714
  795MOL0     C 4810   9.157  10.295  10.819  1.0391  0.0114  0.3462
  795MOL0     O 4811   9.047  10.254  10.739  0.3449  0.5958  0.7398
  795MOL0     C 4812   9.053  10.146  10.654 -0.6465 -0.5827 -1.0488
  795MOL0     C 4813   9.092  10.185  10.519 -0.1677 -0.5269 -0.3602
  795MOL0     C 4814   9.089  10.079  10.435 -0.3003  0.4502  0.4970
  795MOL0     C 4815   9.058   9.950  10.469 -0.3210  0.6420 -0.7377
  795MOL0     O 4816   9.035   9.854  10.368 -0.0664 -0.5265 -0.4064
  795MOL0     C 4817   9.100   9.728  10.378  0.2999 -0.2842 -0.3457
  795MOL0     C 4818   9.153   9.675  10.245  0.1498 -0.2836 -0.8017
  795MOL0     C 4819   9.278   9.766  10.213  0.3140 -0.2143 -0.1184
  795MOL0     C 4820   9.366   9.713  10.101  0.7726  0.5845 -1.1582
  795MOL0     C 4821   9.500   9.788  10.093 -1.3548  0.1168  0.3095
  795MOL0     C 4822   9.463   9.917  10.025  0.1382 -0.3371 -0.6773
  795MOL0     C 4823   9.591  10.005   9.995 -0.0082  0.1584 -1.2887
  795MOL0     C 4824   9.634  10.107  10.107 -0.6415 -0.7356 -0.6239
  795MOL0     N 4825   9.741  10.199  10.064 -0.4076  0.3940 -0.4167
  795MOL0     C 4826   9.824  10.181   9.958 -0.3986 -0.0586  0.1056
  795MOL0     C 4827   9.874  10.301   9.925  0.3435 -0.8907 -0.0138
  795MOL0     C 4828   9.969  10.333   9.805 -0.7197  0.7965  0.9293
  795MOL0     C 4829  10.109  10.266   9.807  0.3312  0.0701 -0.6587
  795MOL0     C 4830  10.212  10.343   9.720 -0.1380 -0.0129 -0.1547
  795MOL0     C 4831  10.173  10.326   9.578 -0.3005 -0.3880  0.1494
  795MOL0     O 4832  10.088  10.432   9.533  0.1625 -0.8619  0.3492
  795MOL0     C 4833  10.088  10.454   9.396  0.8125  0.5593  0.1708
  795MOL0     C 4834  10.153  10.386   9.291 -0.3337  0.2134  0.0250
  795MOL0     C 4835  10.154  10.440   9.158 -0.3754  1.0467  0.0159
  795MOL0     C 4836  10.060  10.538   9.118 -0.9930  0.1726  0.3711
  795MOL0     C 4837  10.063  10.588   8.982 -0.7845  0.4795 -0.2235
  795MOL0     O 4838  10.080  10.492   8.886  0.5484  0.0954 -0.4520
  795MOL0     C 4839  10.067  10.530   8.756 -1.1976  0.2149  0.7477
  795MOL0     C 4840   9.987  10.467   8.661  0.2909 -0.4774  0.3417
  795MOL0     C 4841   9.983  10.491   8.523 -1.7943  0.2428  0.1932
  795MOL0     C 4842  10.074  10.589   8.479 -0.8034 -0.9332  0.3574
  795MOL0     O 4843  10.094  10.593   8.334  0.7969 -0.2358 -0.3293
  795MOL0     C 4844  10.214  10.656   8.286 -0.3719  0.7440 -0.0821
  795MOL0     C 4845  10.235  10.630   8.138 -0.1598 -0.9868  0.2503
  795MOL0     C 4846  10.109  10.686   8.062 -0.5511 -0.0684 -0.1204
  795MOL0     C 4847  10.124  10.656   7.907 -1.0368  0.2494 -0.6945
  795MOL0     C 4848  10.003  10.684   7.825  0.8697  0.1840 -0.2005
  795MOL0     C 4849   9.879  10.611   7.883  0.3259 -0.7153 -0.8929
  795MOL0     C 4850   9.763  10.633   7.789  0.1181 -0.1221  0.1178
  795MOL0     C 4851   9.703  10.772   7.820  0.1857 -0.2535  0.1174
  795MOL0    Cl 4852   9.561  10.782   7.727  0.3277  0.1963 -0.1414
  795MOL0     C 4853  10.154  10.665   8.561 -0.2116 -1.3019 -0.0876
  795MOL0     C 4854  10.149  10.633   8.700 -0.4609 -1.2419  0.2439
  795MOL0     O 4855  10.039  10.701   8.961  0.1494 -0.1673 -0.8211
  795MOL0     C 4856   9.989  10.593   9.227 -0.0196  0.4414  0.1492
  795MOL0     C 4857  10.002  10.559   9.359  0.6367  0.3666  0.2520
  795MOL0     N 4858   9.820  10.389  10.011 -0.3358  0.5078 -0.2609
  795MOL0     N 4859   9.734  10.331  10.090  0.0356  0.7661  0.2656
  795MOL0     C 4860   9.040   9.921  10.607 -0.2427  0.3514 -0.0628
  795MOL0     C 4861   9.048  10.024  10.705  0.9028  0.6601 -0.5378
  795MOL0     C 4862   9.131  10.388  10.929 -0.1744 -0.0646 -0.0940
  795MOL0     C 4863   9.013  10.462  10.929  0.0839  0.4906 -0.7543
  795MOL0     C 4864   8.992  10.557  11.028 -0.2069  0.1244 -0.3298
  795MOL0     C 4865   9.081  10.570  11.136 -0.7817  1.1231  0.5670
  795MOL0     O 4866   9.062  10.642  11.253  0.4229 -0.2714  0.0150
  795MOL0     C 4867   8.937  10.705  11.287  0.1584  0.6554  0.0545
  795MOL0     C 4868   8.959  10.832  11.370 -0.5826  0.1247 -0.4028
  795MOL0     C 4869   8.980  10.955  11.271 -0.2104 -0.6773  0.0973
  795MOL0     C 4870   8.892  11.070  11.309  0.1463  0.6042 -0.0612
  795MOL0     C 4871   8.746  11.067  11.277  0.5408  1.5669 -0.5411
  795MOL0     C 4872   8.623  11.058  11.254 -0.0543 -0.1783  0.6273
  795MOL0     C 4873   9.197  10.489  11.134  0.7133  0.7947 -0.7559
  795MOL0     C 4874   9.219  10.391  11.037 -0.3738  0.0561  0.3630
  795MOL0     H 4875   9.123  10.287  10.504 -1.1706  1.3323  6.4995
  795MOL0     H 4876   9.102  10.099  10.329  2.5933 -1.4864  0.3668
  795MOL0     H 4877   9.010   9.671  10.404 -2.8723  4.2910  0.0001
  795MOL0     H 4878   9.173   9.722  10.459 -0.9836  2.8472  1.1938
  795MOL0     H 4879   9.074   9.686  10.170  0.6481 -0.3160 -1.3373
  795MOL0     H 4880   9.177   9.568  10.247  0.8080 -0.1310  0.6842
  795MOL0     H 4881   9.337   9.761  10.306  1.3468 -1.6542 -0.8178
  795MOL0     H 4882   9.251   9.869  10.187  3.4596  0.6082 -0.5866
  795MOL0     H 4883   9.393   9.609  10.122  0.9638  1.0503  1.0932
  795MOL0     H 4884   9.311   9.705  10.007 -0.4598  2.2278 -0.6302
  795MOL0     H 4885   9.568   9.737  10.025  1.7218  2.9491  1.0183
  795MOL0     H 4886   9.548   9.809  10.189  3.1641 -2.0814 -1.2203
  795MOL0     H 4887   9.406   9.984  10.089  0.1948  0.8270 -1.8214
  795MOL0     H 4888   9.413   9.909   9.928 -1.4839  6.5907 -0.8675
  795MOL0     H 4889   9.668   9.928   9.990 -0.0631 -0.2289  1.9711
  795MOL0     H 4890   9.570  10.060   9.902 -0.5619  0.7410 -0.8251
  795MOL0     H 4891   9.667  10.049  10.193  2.2328 -1.0958 -1.8342
  795MOL0     H 4892   9.548  10.167  10.138 -0.2332  0.5204 -1.7984
  795MOL0     H 4893   9.840  10.088   9.905 -0.5933 -0.7687  1.2514
  795MOL0     H 4894   9.985  10.440   9.790  0.9155  0.2405 -2.0018
  795MOL0     H 4895   9.914  10.308   9.714  0.1584 -1.1104  0.8858
  795MOL0     H 4896  10.120  10.160   9.782  1.6550  0.3172 -1.2065
  795MOL0     H 4897  10.143  10.277   9.911  1.7375  2.2395 -1.2835
  795MOL0     H 4898  10.218  10.449   9.748  2.0453  0.1039 -0.8806
  795MOL0     H 4899  10.307  10.296   9.746 -0.7967 -0.8798  0.7412
  795MOL0     H 4900  10.112  10.236   9.561 -2.3225  0.8785  0.3300
  795MOL0     H 4901  10.266  10.311   9.523 -0.9374 -6.0653 -0.0343
  795MOL0     H 4902  10.221  10.303   9.306  2.3229  1.1091 -4.9041
  795MOL0     H 4903  10.222  10.400   9.083 -3.7100 -0.2658 -2.5725
  795MOL0     H 4904   9.911  10.402   8.704  0.9776 -1.2424  0.4313
  795MOL0     H 4905   9.928  10.443   8.443  1.7020 -2.4330 -0.8416
  795MOL0     H 4906  10.303  10.620   8.339  0.4373 -0.5392 -2.1784
  795MOL0     H 4907  10.212  10.764   8.306  3.3130  1.0281 -0.4871
  795MOL0     H 4908  10.250  10.522   8.129  1.9646 -0.6156 -1.9854
  795MOL0     H 4909  10.324  10.683   8.101 -0.4246 -0.0831  0.8856
  795MOL0     H 4910  10.114  10.792   8.086 -0.4602  0.0925 -0.8302
  795MOL0     H 4911  10.024  10.637   8.110 -0.0824  0.6809  1.5494
  795MOL0     H 4912  10.202  10.722   7.867 -5.7267  6.2206 -1.3286
  795MOL0     H 4913  10.164  10.554   7.906  4.6834  2.1089  0.6015
  795MOL0     H 4914  10.036  10.652   7.725  1.8252 -2.3885  0.8641
  795MOL0     H 4915   9.976  10.790   7.823 -0.6295 -0.1559  0.7734
  795MOL0     H 4916   9.858  10.646   7.984 -1.8817  1.4103 -1.9693
  795MOL0     H 4917   9.906  10.507   7.900  2.1070  0.2653  3.7067
  795MOL0     H 4918   9.798  10.637   7.686  1.8712 -1.3395  0.6213
  795MOL0     H 4919   9.697  10.547   7.803 -0.7781  0.6039  0.4860
  795MOL0     H 4920   9.781  10.840   7.784 -0.4321  0.3407 -0.1180
  795MOL0     H 4921   9.689  10.796   7.926  0.0159  5.3042 -0.8587
  795MOL0     H 4922  10.222  10.745   8.533  0.0202 -1.4616  0.0161
  795MOL0     H 4923  10.226  10.689   8.754 -1.6853  3.2191 -2.1697
  795MOL0     H 4924   9.926  10.680   9.213 -0.7503 -0.0634  0.2304
  795MOL0     H 4925   9.942  10.618   9.428 -2.3110 -3.3859  1.2741
  795MOL0     H 4926   9.020   9.820  10.642 -3.3249  0.9901  0.2868
  795MOL0     H 4927   9.019  10.004  10.808 -3.4161 -0.4724 -1.7940
  795MOL0     H 4928   8.941  10.442  10.850 -0.2273 -3.3443  0.2772
  795MOL0     H 4929   8.899  10.611  11.014 -1.3657 -0.5572  3.5323
  795MOL0     H 4930   8.883  10.628  11.342 -0.5995 -0.0320 -1.5834
  795MOL0     H 4931   8.887  10.731  11.193  0.1388  1.9920  0.4219
  795MOL0     H 4932   8.871  10.838  11.434  0.0323 -2.0426  0.7569
  795MOL0     H 4933   9.042  10.823  11.440 -0.2208 -4.3342 -1.0864
  795MOL0     H 4934   8.967  10.914  11.171  3.8301 -3.2644  0.3939
  795MOL0     H 4935   9.081  10.996  11.269 -0.2731 -0.5347 -0.0806
  795MOL0     H 4936   8.901  11.089  11.416 -1.3643  2.3085 -0.1801
  795MOL0     H 4937   8.930  11.156  11.252 -1.3623  2.0249  1.0010
  795MOL0     H 4938   8.524  11.049  11.214  0.4130 -1.9527 -0.2626
  795MOL0     H 4939   9.252  10.494  11.228 -0.7542 -7.3345  1.2669
  795MOL0     H 4940   9.306  10.327  11.028  1.5440  2.4844  0.4151
  796MOL0     O 4941   0.131   6.209   1.591  0.3840  0.2938 -0.8363
  796MOL0     C 4942   0.199   6.248   1.496  0.6981 -0.0207  0.6243
  796MOL0     O 4943   0.237   6.180   1.388 -0.1108 -0.4799 -0.0046
  796MOL0     C 4944   0.208   6.052   1.362 -0.1626 -0.3512 -0.0020
  796MOL0     C 4945   0.312   5.963   1.359 -0.2290  0.2405 -0.6653
  796MOL0     C 4946   0.290   5.824   1.356  1.4174 -0.0362 -0.0295
  796MOL0     C 4947   0.159   5.774   1.346  0.6101 -0.7994 -0.7406
  796MOL0     O 4948   0.124   5.642   1.332 -0.3309  0.1439 -0.1448
  796MOL0     C 4949   0.220   5.536   1.345 -0.1553 -0.1315  0.5642
  796MOL0     C 4950   0.162   5.407   1.375  1.5156  0.8278 -0.4260
  796MOL0     C 4951   0.070   5.336   1.274  0.1516 -0.2570 -0.4673
  796MOL0     C 4952  -0.075   5.311   1.336  0.7086  0.4072  0.2508
  796MOL0     C 4953  -0.060   5.198   1.443  0.8699 -0.7045 -0.3914
  796MOL0     C 4954  -0.176   5.095   1.443 -0.3106 -0.2114  0.6216
  796MOL0     C 4955  -0.311   5.160   1.484 -0.3005 -0.1463 -0.4808
  796MOL0     C 4956  -0.410   5.053   1.511  0.4793 -0.1481  0.4911
  796MOL0     N 4957  -0.465   5.009   1.382 -0.7390 -0.8020  0.0576
  796MOL0     C 4958  -0.586   5.048   1.335  0.1576 -0.0561  0.2073
  796MOL0     C 4959  -0.610   4.953   1.243 -0.3375 -0.2743 -0.0902
  796MOL0     C 4960  -0.725   4.946   1.155 -0.0755 -1.8123  0.0906
  796MOL0     C 4961  -0.823   4.838   1.192 -0.6275  0.2255 -0.2333
  796MOL0     C 4962  -0.875   4.861   1.328  1.3923 -0.3667 -0.0670
  796MOL0     C 4963  -0.968   4.743   1.367  0.1012 -0.0370  1.3955
  796MOL0     O 4964  -1.100   4.743   1.316 -0.2203 -0.6693  0.1959
  796MOL0     C 4965  -1.197   4.661   1.368 -0.2857 -0.1747 -0.7635
  796MOL0     C 4966  -1.323   4.660   1.311  0.2542 -1.1145 -0.5064
  796MOL0     C 4967  -1.422   4.599   1.379  0.8944 -0.6177 -0.2910
  796MOL0     C 4968  -1.393   4.526   1.501  0.5346  0.4497  0.2493
  796MOL0     C 4969  -1.505   4.480   1.595 -0.0826 -0.0056  1.4179
  796MOL0     O 4970  -1.635   4.512   1.551 -0.6403 -0.0085 -0.3858
  796MOL0     C 4971  -1.736   4.435   1.599  0.9720 -0.5323 -0.0181
  796MOL0     C 4972  -1.720   4.295   1.608  0.7564  0.2228 -0.6012
  796MOL0     C 4973  -1.821   4.219   1.665  0.4431  0.0689 -0.4509
  796MOL0     C 4974  -1.943   4.274   1.700  0.9736  0.6236 -0.2547
  796MOL0     O 4975  -2.033   4.183   1.769  0.0250 -0.2806  0.1084
  796MOL0     C 4976  -2.152   4.229   1.844  0.1069 -0.1578  0.1296
  796MOL0     C 4977  -2.237   4.110   1.877  1.0973  0.6282 -0.9088
  796MOL0     C 4978  -2.336   4.064   1.759  1.1724 -0.3704  0.9040
  796MOL0     C 4979  -2.471   4.017   1.812  0.2264 -0.3229 -0.1934
  796MOL0     C 4980  -2.568   3.983   1.699  0.5199 -0.1568  0.4448
  796MOL0     C 4981  -2.719   3.960   1.755  0.1197 -0.5836 -0.1779
  796MOL0     C 4982  -2.722   3.870   1.883 -0.7638 -0.2632  0.6750
  796MOL0     C 4983  -2.860   3.819   1.911  0.3625 -1.0162  0.0332
  796MOL0    Cl 4984  -2.972   3.953   1.939  0.6404  0.1663  0.5187
  796MOL0     C 4985  -1.950   4.412   1.703  0.8018 -0.6404  0.1733
  796MOL0     C 4986  -1.857   4.493   1.642 -0.1980 -0.3848  0.1499
  796MOL0     O 4987  -1.478   4.416   1.688 -0.3072 -0.0622 -0.7149
  796MOL0     C 4988  -1.259   4.515   1.546 -0.2210 -0.0663  1.0650
  796MOL0     C 4989  -1.159   4.574   1.477 -0.2883  0.1795  0.7427
  796MOL0     N 4990  -0.507   4.856   1.238  0.4683 -0.3360 -0.0589
  796MOL0     N 4991  -0.418   4.897   1.319 -0.9662 -0.0202  0.3958
  796MOL0     C 4992   0.051   5.860   1.354  0.4685 -0.3826  0.5397
  796MOL0     C 4993   0.073   6.006   1.368  0.3027  0.9281  0.2550
  796MOL0     C 4994   0.264   6.381   1.499  0.2238  0.7068  0.0488
  796MOL0     C 4995   0.281   6.445   1.375  1.0231  0.3336 -1.0159
  796MOL0     C 4996   0.342   6.570   1.373 -0.1155  0.1055  0.1857
  796MOL0     C 4997   0.396   6.624   1.492  0.0702  0.4235 -0.5554
  796MOL0     O 4998   0.426   6.754   1.486  0.4344 -0.1189  0.0458
  796MOL0     C 4999   0.555   6.802   1.445 -0.2162  0.6621  0.0851
  796MOL0     C 5000   0.550   6.943   1.400  0.2732 -0.6112  0.0186
  796MOL0     C 5001   0.453   6.969   1.287 -0.5516  0.3496 -0.1575
  796MOL0     C 5002   0.411   7.119   1.267 -0.9051  0.0258  0.3076
  796MOL0     C 5003   0.537   7.187   1.229  0.3250 -0.3023 -0.3889
  796MOL0     C 5004   0.633   7.240   1.182  0.7018  1.1955  0.5968
  796MOL0     C 5005   0.391   6.554   1.610 -0.1757 -0.0393 -0.0330
  796MOL0     C 5006   0.322   6.438   1.615  0.0936  1.5197  0.6123
  796MOL0     H 5007   0.414   5.998   1.351 -0.5892  1.2937 -0.7348
  796MOL0     H 5008   0.377   5.759   1.350  0.7272 -1.3151  2.3545
  796MOL0     H 5009   0.279   5.565   1.432 -0.7574  0.8633  0.6540
  796MOL0     H 5010   0.276   5.533   1.250  1.9672 -3.8132  1.7589
  796MOL0     H 5011   0.104   5.421   1.467 -1.8788 -0.0543 -2.2684
  796MOL0     H 5012   0.244   5.338   1.395  0.0856 -1.2139 -1.3357
  796MOL0     H 5013   0.109   5.245   1.227 -2.3569  0.2406 -3.9599
  796MOL0     H 5014   0.063   5.402   1.187  1.1578 -0.9308 -1.0791
  796MOL0     H 5015  -0.126   5.398   1.379 -0.4721 -0.3368  0.4068
  796MOL0     H 5016  -0.130   5.266   1.252  1.8069  0.0519 -0.3044
  796MOL0     H 5017  -0.037   5.233   1.544 -0.1285 -1.7033  0.2068
  796MOL0     H 5018   0.026   5.134   1.418 -0.0146 -1.1337 -2.6061
  796MOL0     H 5019  -0.145   5.012   1.507  1.9020  0.4229  0.4764
  796MOL0     H 5020  -0.173   5.063   1.339  4.6407  0.2578  0.3470
  796MOL0     H 5021  -0.288   5.210   1.578  0.5262 -1.9164  0.3044
  796MOL0     H 5022  -0.336   5.238   1.411 -0.3408  0.2336 -0.0665
  796MOL0     H 5023  -0.492   5.082   1.578  1.1505  1.2299  0.7369
  796MOL0     H 5024  -0.371   4.973   1.575  1.7713  0.8238  0.9720
  796MOL0     H 5025  -0.647   5.137   1.347 -0.5513 -0.5521  0.4079
  796MOL0     H 5026  -0.683   4.916   1.059 -0.6884  0.1676 -0.8352
  796MOL0     H 5027  -0.780   5.040   1.147  0.0145 -1.5944  1.7003
  796MOL0     H 5028  -0.770   4.743   1.183  0.0846  0.7321 -1.6065
  796MOL0     H 5029  -0.906   4.844   1.121  0.3924 -5.5188 -2.4532
  796MOL0     H 5030  -0.791   4.860   1.398  1.5176  0.6714 -0.1850
  796MOL0     H 5031  -0.921   4.960   1.335  1.5538 -0.2553 -0.5396
  796MOL0     H 5032  -0.962   4.735   1.476  0.5585 -0.8818  1.3218
  796MOL0     H 5033  -0.934   4.643   1.336  0.1594  0.2335  0.5655
  796MOL0     H 5034  -1.356   4.715   1.224  0.2481 -1.0937 -0.4907
  796MOL0     H 5035  -1.522   4.601   1.336 -0.8412 -3.7741  3.0294
  796MOL0     H 5036  -1.628   4.247   1.575 -0.5379 -2.2529 -0.8306
  796MOL0     H 5037  -1.791   4.114   1.663  1.9499  0.4384  0.9879
  796MOL0     H 5038  -2.210   4.302   1.786 -0.9172 -1.7535 -0.9226
  796MOL0     H 5039  -2.116   4.286   1.930  0.0545 -0.0261  0.0655
  796MOL0     H 5040  -2.300   4.145   1.959  2.5147  0.3051  0.3643
  796MOL0     H 5041  -2.171   4.029   1.911  1.1122  1.1563  0.3889
  796MOL0     H 5042  -2.290   3.988   1.695 -0.0090  1.0346 -1.7846
  796MOL0     H 5043  -2.356   4.142   1.685  2.0881  1.5420  2.6201
  796MOL0     H 5044  -2.456   3.933   1.880  2.3078  2.1515  2.6562
  796MOL0     H 5045  -2.518   4.101   1.865  1.7930 -0.8112  2.1054
  796MOL0     H 5046  -2.539   3.890   1.650 -2.1753 -1.2466  0.7443
  796MOL0     H 5047  -2.571   4.062   1.624 -2.7628  0.5332  1.1214
  796MOL0     H 5048  -2.784   3.929   1.673 -0.4833  1.4697 -0.5106
  796MOL0     H 5049  -2.751   4.062   1.777  3.5080  0.4227  0.8172
  796MOL0     H 5050  -2.652   3.791   1.851 -1.0367  0.6587 -2.5664
  796MOL0     H 5051  -2.675   3.922   1.967 -0.1334  2.4268 -1.2071
  796MOL0     H 5052  -2.874   3.751   1.995  0.8781 -0.4641  0.5662
  796MOL0     H 5053  -2.897   3.764   1.824 -3.7669  1.7715 -0.2403
  796MOL0     H 5054  -2.036   4.460   1.751  2.1969  1.4607  0.7224
  796MOL0     H 5055  -1.857   4.601   1.644  0.8287 -0.3719  1.9434
  796MOL0     H 5056  -1.225   4.454   1.628 -1.6281  0.7806  2.3348
  796MOL0     H 5057  -1.062   4.551   1.519  0.2514  0.1540 -0.4767
  796MOL0     H 5058  -0.041   5.803   1.356 -0.4901  1.1162  2.8627
  796MOL0     H 5059  -0.011   6.074   1.379 -1.1166 -0.6721 -0.1404
  796MOL0     H 5060   0.238   6.396   1.288 -0.5520  2.3722 -1.4585
  796MOL0     H 5061   0.337   6.636   1.287 -1.5445  1.9288  1.5747
  796MOL0     H 5062   0.584   6.729   1.369  0.1710 -1.9758  2.5976
  796MOL0     H 5063   0.616   6.797   1.536 -1.1081  1.8046  0.7781
  796MOL0     H 5064   0.523   7.012   1.480 -1.2424  1.8910 -2.4540
  796MOL0     H 5065   0.645   6.980   1.361 -0.3110  1.8660  0.7722
  796MOL0     H 5066   0.371   6.898   1.305 -1.1168  0.9732 -0.2139
  796MOL0     H 5067   0.499   6.930   1.196 -2.5076 -1.0618 -0.6116
  796MOL0     H 5068   0.345   7.114   1.180 -0.7236 -0.5257  0.1926
  796MOL0     H 5069   0.363   7.159   1.357 -1.3370 -0.2366  0.1992
  796MOL0     H 5070   0.725   7.295   1.177  0.0188  2.3097 -0.3084
  796MOL0     H 5071   0.450   6.589   1.693  0.6148 -2.8377  0.6837
  796MOL0     H 5072   0.318   6.392   1.713  3.6740  0.1053  0.2422
  797MOL0     O 5073   5.973  10.331   6.903 -0.1397  0.6378 -0.0931
  797MOL0     C 5074   5.920  10.289   6.792 -0.7854  0.6043 -0.3088
  797MOL0     O 5075   5.949  10.331   6.670  0.6543 -0.5050 -0.0425
  797MOL0     C 5076   6.038  10.423   6.653 -0.0123 -1.0651 -0.5586
  797MOL0     C 5077   6.166  10.414   6.699  0.8342 -0.7747 -0.2218
  797MOL0     C 5078   6.266  10.504   6.661  0.6159  1.1690 -0.4740
  797MOL0     C 5079   6.228  10.617   6.587 -0.0806 -0.2406  0.0776
  797MOL0     O 5080   6.307  10.722   6.552  0.1662  0.2421  0.5784
  797MOL0     C 5081   6.456  10.709   6.547  0.5781 -0.3215 -0.5861
  797MOL0     C 5082   6.515  10.847   6.514 -0.0448 -0.2503  0.5402
  797MOL0     C 5083   6.669  10.850   6.497  1.0918 -0.3626  0.4677
  797MOL0     C 5084   6.722  10.989   6.468  0.2545 -0.4830  0.5997
  797MOL0     C 5085   6.706  11.087   6.582 -0.0777  0.3083 -0.6713
  797MOL0     C 5086   6.777  11.222   6.555  1.1863  0.6022  0.8811
  797MOL0     C 5087   6.733  11.318   6.665  0.6967 -1.2049  0.6821
  797MOL0     C 5088   6.804  11.455   6.663 -0.0818 -0.2272  0.8471
  797MOL0     N 5089   6.773  11.529   6.535 -0.6881  0.1342  0.6667
  797MOL0     C 5090   6.651  11.554   6.474  0.5908 -0.0374  0.0260
  797MOL0     C 5091   6.676  11.616   6.351  0.2075  0.1892  0.6493
  797MOL0     C 5092   6.564  11.661   6.257 -0.3801 -0.0791  0.6161
  797MOL0     C 5093   6.529  11.805   6.287 -0.9165 -0.7132 -0.4190
  797MOL0     C 5094   6.495  11.834   6.432 -0.2241 -0.1570 -0.9736
  797MOL0     C 5095   6.421  11.969   6.425 -0.0704 -0.2191 -0.4821
  797MOL0     O 5096   6.511  12.065   6.372  0.2244  1.5790 -0.1229
  797MOL0     C 5097   6.463  12.185   6.337  0.5602 -0.3787  0.8284
  797MOL0     C 5098   6.340  12.233   6.375  1.2959 -0.4914  0.5670
  797MOL0     C 5099   6.295  12.363   6.341 -0.8551 -0.3009 -0.5675
  797MOL0     C 5100   6.381  12.458   6.278  0.0643  0.4492  0.1442
  797MOL0     C 5101   6.330  12.590   6.267 -0.2051 -1.1372 -0.3861
  797MOL0     O 5102   6.183  12.605   6.292  0.0316 -0.1902  0.1879
  797MOL0     C 5103   6.116  12.727   6.282 -1.1625 -0.0322 -1.2240
  797MOL0     C 5104   6.170  12.854   6.317  0.0053  0.4502 -0.0107
  797MOL0     C 5105   6.085  12.964   6.282 -0.0852  0.5555  0.3321
  797MOL0     C 5106   5.952  12.958   6.243 -0.5855 -0.2610 -0.1975
  797MOL0     O 5107   5.874  13.066   6.208 -0.2423  0.2530 -0.3129
  797MOL0     C 5108   5.921  13.129   6.090  0.0310 -0.1405 -0.6113
  797MOL0     C 5109   6.000  13.255   6.137  0.6458  0.6812  0.8509
  797MOL0     C 5110   5.928  13.361   6.217 -0.7142  0.8048 -0.6098
  797MOL0     C 5111   5.792  13.403   6.176 -0.8581 -0.7128 -0.7353
  797MOL0     C 5112   5.794  13.478   6.035 -0.5352  0.7629 -0.5154
  797MOL0     C 5113   5.896  13.593   6.009 -0.8363  0.1708 -0.0255
  797MOL0     C 5114   5.863  13.662   5.882 -0.3276 -0.5820 -0.5474
  797MOL0     C 5115   5.971  13.740   5.815 -0.0228  0.5564  0.3596
  797MOL0    Cl 5116   6.018  13.874   5.921  0.9587 -0.0573  0.3046
  797MOL0     C 5117   5.898  12.832   6.224  0.0297 -1.0238  0.9564
  797MOL0     C 5118   5.988  12.721   6.242  1.2561 -0.1258  0.5729
  797MOL0     O 5119   6.408  12.680   6.251 -0.5308 -0.2755 -0.3479
  797MOL0     C 5120   6.509  12.411   6.243  0.2605  0.1671 -0.0537
  797MOL0     C 5121   6.549  12.277   6.269  0.6813 -0.1253 -0.0232
  797MOL0     N 5122   6.818  11.636   6.346  0.5042 -0.0713 -0.5123
  797MOL0     N 5123   6.868  11.584   6.454  0.2373 -0.8458 -0.1363
  797MOL0     C 5124   6.089  10.616   6.525  0.0879 -0.6048  0.1625
  797MOL0     C 5125   5.994  10.530   6.568  0.4958  0.1044 -0.1124
  797MOL0     C 5126   5.798  10.202   6.797 -0.3863 -0.2795  0.4852
  797MOL0     C 5127   5.787  10.102   6.899 -0.5699 -0.1313 -0.1040
  797MOL0     C 5128   5.666  10.034   6.934 -0.5520  0.0516 -0.1237
  797MOL0     C 5129   5.556  10.062   6.850  0.0533  0.5777  0.7511
  797MOL0     O 5130   5.432  10.025   6.884 -0.3855 -0.7144  0.3924
  797MOL0     C 5131   5.346   9.978   6.783  0.5534  0.5948  0.0554
  797MOL0     C 5132   5.354   9.820   6.772 -0.7032 -0.2581  0.6156
  797MOL0     C 5133   5.347   9.754   6.913 -0.4744 -0.1266 -0.4982
  797MOL0     C 5134   5.380   9.606   6.909 -0.2082 -0.1733 -1.0310
  797MOL0     C 5135   5.308   9.525   6.814  1.3050 -0.2666  1.1450
  797MOL0     C 5136   5.246   9.464   6.734  0.1077 -0.0577 -0.9982
  797MOL0     C 5137   5.567  10.159   6.750 -0.4276 -0.8238  0.2954
  797MOL0     C 5138   5.691  10.220   6.713 -0.5214  0.8770  0.1112
  797MOL0     H 5139   6.179  10.335   6.772 -1.9308 -0.4180  0.7762
  797MOL0     H 5140   6.365  10.489   6.703  1.5384 -0.0153 -2.8463
  797MOL0     H 5141   6.485  10.636   6.471 -0.5062 -1.7822  0.3516
  797MOL0     H 5142   6.509  10.677   6.638 -1.4093  1.0879  1.1532
  797MOL0     H 5143   6.480  10.913   6.595 -0.4383  0.4950 -0.2225
  797MOL0     H 5144   6.474  10.876   6.417  1.2125  0.8846  0.3199
  797MOL0     H 5145   6.693  10.781   6.416  1.1529 -0.7676  0.8276
  797MOL0     H 5146   6.716  10.813   6.588  1.4642  3.1137  1.8538
  797MOL0     H 5147   6.831  10.980   6.460  0.4327 -0.3137  2.3679
  797MOL0     H 5148   6.678  11.033   6.378  2.5000  0.4850 -0.1224
  797MOL0     H 5149   6.743  11.033   6.669 -3.3932  0.3182  0.9034
  797MOL0     H 5150   6.601  11.103   6.609  0.1320  1.8807 -0.6858
  797MOL0     H 5151   6.755  11.253   6.453 -1.4144 -1.2882  0.7619
  797MOL0     H 5152   6.884  11.200   6.562  1.6486  1.2390 -2.6212
  797MOL0     H 5153   6.625  11.323   6.683  0.8798 -0.0692  1.5773
  797MOL0     H 5154   6.758  11.263   6.756  2.5072 -0.9209  0.4048
  797MOL0     H 5155   6.911  11.439   6.680 -0.0644 -0.6015  0.4344
  797MOL0     H 5156   6.765  11.528   6.734  1.6214  1.2566  0.3006
  797MOL0     H 5157   6.554  11.521   6.509  1.3091 -3.9331 -1.1702
  797MOL0     H 5158   6.476  11.597   6.271 -0.4154  0.1188  1.3574
  797MOL0     H 5159   6.601  11.662   6.154  1.7061  2.3327  1.2715
  797MOL0     H 5160   6.452  11.850   6.225  0.2460  2.2681  0.1032
  797MOL0     H 5161   6.614  11.872   6.272  0.8626 -1.8857  3.2373
  797MOL0     H 5162   6.421  11.759   6.461  1.9902 -2.9983 -2.1294
  797MOL0     H 5163   6.574  11.823   6.507 -1.6688  0.6164  0.7214
  797MOL0     H 5164   6.382  11.986   6.526  2.6317 -0.3759  0.6905
  797MOL0     H 5165   6.336  11.957   6.358 -1.8072 -0.1609  1.6001
  797MOL0     H 5166   6.257  12.171   6.408  1.4290 -2.4465 -2.4067
  797MOL0     H 5167   6.192  12.392   6.362  0.1791  2.2311  1.4994
  797MOL0     H 5168   6.271  12.864   6.356  0.5106  1.4832 -1.4686
  797MOL0     H 5169   6.127  13.060   6.309  0.6112 -0.5183  3.5141
  797MOL0     H 5170   5.828  13.165   6.045 -0.4763 -0.4656  0.1638
  797MOL0     H 5171   5.983  13.064   6.026 -0.2158 -0.0706 -0.9242
  797MOL0     H 5172   6.028  13.310   6.047 -0.1661  2.6134  1.7423
  797MOL0     H 5173   6.092  13.228   6.191  1.6305  2.2130  0.0314
  797MOL0     H 5174   5.989  13.450   6.204  0.0563  0.0071 -3.2463
  797MOL0     H 5175   5.918  13.322   6.318 -2.3732 -1.5436 -1.5771
  797MOL0     H 5176   5.725  13.318   6.165 -3.5470  1.4135 -1.7456
  797MOL0     H 5177   5.753  13.478   6.245 -0.2505 -0.5239 -0.5875
  797MOL0     H 5178   5.696  13.526   6.041 -0.8982 -0.0332  0.1544
  797MOL0     H 5179   5.803  13.399   5.959  2.0238  0.1938  0.2896
  797MOL0     H 5180   5.999  13.560   5.995 -0.9255  0.7564 -2.6248
  797MOL0     H 5181   5.889  13.663   6.093  1.9750  0.6514 -0.0982
  797MOL0     H 5182   5.830  13.605   5.796  0.2540 -0.6710 -0.7188
  797MOL0     H 5183   5.781  13.732   5.897 -0.6615 -1.1382  0.3129
  797MOL0     H 5184   5.940  13.785   5.720 -2.9340 -0.9738  0.4817
  797MOL0     H 5185   6.057  13.675   5.792  3.1692  4.8422 -1.1146
  797MOL0     H 5186   5.802  12.798   6.188 -0.3864  0.3845  0.6855
  797MOL0     H 5187   5.939  12.624   6.237  1.5360 -0.2314 -0.4984
  797MOL0     H 5188   6.578  12.483   6.201 -0.3821 -0.7011 -2.7866
  797MOL0     H 5189   6.648  12.237   6.249  1.1354  1.3730 -0.8710
  797MOL0     H 5190   6.059  10.707   6.474 -0.3755  1.0093  3.0725
  797MOL0     H 5191   5.899  10.554   6.521  1.4499  3.7028 -0.4432
  797MOL0     H 5192   5.874  10.096   6.964 -1.0296 -0.7430  0.4677
  797MOL0     H 5193   5.665   9.958   7.010  2.0347  0.3246  0.2879
  797MOL0     H 5194   5.369  10.027   6.688 -0.1810  1.3920  0.2822
  797MOL0     H 5195   5.242  10.006   6.798  0.7420  1.7116 -0.6062
  797MOL0     H 5196   5.270   9.797   6.705 -0.0125 -3.4868  0.7406
  797MOL0     H 5197   5.446   9.787   6.723  0.9131  0.6672  2.8366
  797MOL0     H 5198   5.250   9.763   6.963 -0.8160 -3.7111 -0.1914
  797MOL0     H 5199   5.418   9.806   6.978 -0.6770  0.4526 -0.7340
  797MOL0     H 5200   5.485   9.578   6.898 -0.1253  0.9171 -3.7226
  797MOL0     H 5201   5.350   9.573   7.009 -1.2808 -0.2563 -1.3623
  797MOL0     H 5202   5.183   9.399   6.676  1.8614  0.1492 -3.2559
  797MOL0     H 5203   5.485  10.202   6.693  0.0080  2.1302  1.6858
  797MOL0     H 5204   5.702  10.286   6.628 -0.7766  1.6991  0.7042
  798MOL0     O 5205   3.932   6.466   9.607 -0.6609  0.0376 -0.5831
  798MOL0     C 5206   3.855   6.536   9.674 -0.5769 -0.7902 -0.2757
  798MOL0     O 5207   3.907   6.630   9.751 -0.1706 -0.3693  0.4141
  798MOL0     C 5208   3.840   6.732   9.813  0.2742  0.3205  0.9804
  798MOL0     C 5209   3.739   6.808   9.745 -0.9423 -0.5617  0.0638
  798MOL0     C 5210   3.687   6.925   9.803 -0.1562  0.1186  0.4385
  798MOL0     C 5211   3.743   6.982   9.911  1.1802  0.7173 -0.6250
  798MOL0     O 5212   3.689   7.112   9.935  0.0779 -0.0086 -0.3857
  798MOL0     C 5213   3.733   7.182  10.055 -0.2225  0.2790 -0.1850
  798MOL0     C 5214   3.689   7.335  10.053 -0.4594  0.2442 -0.5547
  798MOL0     C 5215   3.546   7.375  10.090  0.1373 -0.8272 -0.7281
  798MOL0     C 5216   3.450   7.395   9.973 -0.5767 -0.7310  0.3494
  798MOL0     C 5217   3.306   7.408  10.018  0.6417  0.6604  0.5675
  798MOL0     C 5218   3.208   7.364   9.908 -0.5389  1.2145 -0.0829
  798MOL0     C 5219   3.070   7.405   9.949  0.9921  0.1016 -0.2395
  798MOL0     C 5220   2.967   7.355   9.837 -0.3320  0.2799 -0.8685
  798MOL0     N 5221   2.833   7.350   9.897 -0.6335  0.5409  0.1025
  798MOL0     C 5222   2.761   7.242   9.937 -0.0344  0.1358  0.5092
  798MOL0     C 5223   2.645   7.285   9.977  0.2887 -0.4843  0.2294
  798MOL0     C 5224   2.538   7.200  10.029  0.1712  0.4776 -0.5448
  798MOL0     C 5225   2.411   7.237   9.954  1.1762 -0.2959 -0.2550
  798MOL0     C 5226   2.330   7.109   9.914  0.2182 -0.3889 -0.7891
  798MOL0     C 5227   2.259   7.043  10.036  0.4475  0.1067  0.6269
  798MOL0     O 5228   2.197   6.912  10.004  0.2416 -0.0753  0.1098
  798MOL0     C 5229   2.076   6.916   9.936 -0.5739 -0.7514  0.1126
  798MOL0     C 5230   2.012   7.029   9.883  0.4190 -0.0379  1.0962
  798MOL0     C 5231   1.922   7.011   9.771 -0.6503 -0.5215 -1.2064
  798MOL0     C 5232   1.878   6.889   9.730  0.2242  0.4624 -0.4477
  798MOL0     C 5233   1.772   6.865   9.622 -0.6053  0.0256  1.1237
  798MOL0     O 5234   1.718   6.732   9.631  0.0252 -0.4509  0.2074
  798MOL0     C 5235   1.635   6.694   9.533 -0.0474  0.2704  0.6672
  798MOL0     C 5236   1.520   6.620   9.563  1.3866 -0.1864 -0.3891
  798MOL0     C 5237   1.449   6.562   9.459  0.5301 -0.5826 -0.6026
  798MOL0     C 5238   1.473   6.591   9.323  1.4053 -0.4421  0.3998
  798MOL0     O 5239   1.382   6.558   9.219  0.0367 -0.1077 -0.1925
  798MOL0     C 5240   1.317   6.427   9.215  0.9242  0.9656  0.0554
  798MOL0     C 5241   1.177   6.461   9.168  0.2988  0.3667  0.1268
  798MOL0     C 5242   1.085   6.336   9.146  0.1779  0.2278  0.8558
  798MOL0     C 5243   1.068   6.267   9.277  0.3671 -0.2345  0.4957
  798MOL0     C 5244   0.950   6.176   9.281 -0.1765  1.1103  0.0066
  798MOL0     C 5245   0.928   6.096   9.413 -1.1102  0.5261  0.0376
  798MOL0     C 5246   0.845   6.183   9.517 -0.4183  0.1055  0.2129
  798MOL0     C 5247   0.703   6.191   9.494 -0.4272  0.5944  1.0046
  798MOL0    Cl 5248   0.610   6.270   9.619  0.5037  0.0006 -0.5023
  798MOL0     C 5249   1.583   6.665   9.299 -0.0839  0.6118 -0.1488
  798MOL0     C 5250   1.667   6.716   9.399  0.2543 -0.1982  0.7051
  798MOL0     O 5251   1.739   6.951   9.537 -0.6684 -1.4556  0.9885
  798MOL0     C 5252   1.925   6.779   9.810  0.9657  0.0735  0.9059
  798MOL0     C 5253   2.026   6.790   9.906 -0.2330 -0.2998 -0.1543
  798MOL0     N 5254   2.649   7.421   9.969  0.3542  0.0743  0.1853
  798MOL0     N 5255   2.759   7.464   9.922 -0.3401 -0.4343  0.2407
  798MOL0     C 5256   3.850   6.918   9.980 -0.3919  0.4937  0.5498
  798MOL0     C 5257   3.898   6.783   9.927 -0.1201 -0.6480  0.0925
  798MOL0     C 5258   3.706   6.517   9.664 -0.6714  0.3661 -0.0315
  798MOL0     C 5259   3.652   6.474   9.543 -0.2873 -0.3108  0.5772
  798MOL0     C 5260   3.509   6.460   9.526  0.1774 -0.8688 -0.0505
  798MOL0     C 5261   3.423   6.494   9.635  0.6859  0.3742  0.1075
  798MOL0     O 5262   3.281   6.503   9.625  0.1834  0.3576 -0.6809
  798MOL0     C 5263   3.211   6.453   9.512  0.9981  0.6963  0.6548
  798MOL0     C 5264   3.065   6.488   9.535  0.9437 -0.1095  0.1756
  798MOL0     C 5265   3.027   6.624   9.596  0.4252 -0.4987 -1.9969
  798MOL0     C 5266   2.883   6.628   9.654 -0.0468  0.0675 -0.3930
  798MOL0     C 5267   2.856   6.762   9.681 -0.5434 -0.8462  0.4335
  798MOL0     C 5268   2.823   6.875   9.701 -0.4628 -1.0144  0.6079
  798MOL0     C 5269   3.476   6.528   9.752  0.0324 -0.0480 -0.2282
  798MOL0     C 5270   3.614   6.535   9.768 -0.3166  0.9263 -0.1779
  798MOL0     H 5271   3.695   6.777   9.651 -0.1380 -0.0231 -0.5052
  798MOL0     H 5272   3.609   6.979   9.750  0.6725 -0.0027 -0.9670
  798MOL0     H 5273   3.841   7.172  10.058 -0.0993  1.6336  2.0791
  798MOL0     H 5274   3.707   7.132  10.149 -2.1210  1.0821 -0.2356
  798MOL0     H 5275   3.733   7.361   9.956 -2.1115  0.1965 -1.3379
  798MOL0     H 5276   3.751   7.376  10.134  0.2919  2.2586 -2.0558
  798MOL0     H 5277   3.553   7.468  10.146 -0.6929  0.4150 -2.5658
  798MOL0     H 5278   3.503   7.305  10.161  1.0279 -0.4265  0.2273
  798MOL0     H 5279   3.475   7.483   9.912 -0.6563 -2.2875 -2.0588
  798MOL0     H 5280   3.452   7.309   9.905 -1.2774 -1.2148  0.9225
  798MOL0     H 5281   3.277   7.512  10.036 -0.5141  0.8228 -1.8496
  798MOL0     H 5282   3.283   7.346  10.105  2.5739  1.1647  1.4931
  798MOL0     H 5283   3.219   7.256   9.893 -1.0355  1.4534 -2.7397
  798MOL0     H 5284   3.238   7.403   9.810 -4.5539  2.6643 -0.9732
  798MOL0     H 5285   3.037   7.346  10.034  2.0180 -0.8444 -0.4683
  798MOL0     H 5286   3.073   7.513   9.967 -1.1840  0.2877 -0.7351
  798MOL0     H 5287   2.992   7.258   9.793  0.8359 -0.1952  0.7603
  798MOL0     H 5288   2.949   7.430   9.759 -6.5762 -0.5318 -0.6984
  798MOL0     H 5289   2.786   7.137   9.938 -1.7455 -0.4126 -2.7695
  798MOL0     H 5290   2.537   7.223  10.136  1.5767 -2.4156  0.1697
  798MOL0     H 5291   2.572   7.099  10.007 -0.2953 -0.2505  1.7992
  798MOL0     H 5292   2.448   7.294   9.869 -1.2712  0.7868 -0.6898
  798MOL0     H 5293   2.347   7.310  10.005  3.6561  2.7032 -1.1324
  798MOL0     H 5294   2.255   7.142   9.842 -0.5141  3.1712  1.3344
  798MOL0     H 5295   2.396   7.034   9.870  0.8660 -1.3341  1.5982
  798MOL0     H 5296   2.184   7.115  10.071 -1.8581 -0.3387 -2.9016
  798MOL0     H 5297   2.332   7.029  10.116 -1.4133  2.5370  2.9577
  798MOL0     H 5298   2.036   7.132   9.906 -0.0858 -0.0766  1.8288
  798MOL0     H 5299   1.890   7.108   9.735 -1.1076 -0.0543  0.3946
  798MOL0     H 5300   1.486   6.611   9.666 -0.3367 -0.5799 -0.9512
  798MOL0     H 5301   1.365   6.503   9.494  1.4137  0.5309  4.1921
  798MOL0     H 5302   1.310   6.385   9.316 -1.6715 -0.5320 -0.6618
  798MOL0     H 5303   1.370   6.359   9.148 -0.6277 -1.7807  1.4921
  798MOL0     H 5304   1.191   6.507   9.070  3.1522  0.7618  0.6319
  798MOL0     H 5305   1.129   6.536   9.231 -2.8594  0.6664 -2.3899
  798MOL0     H 5306   1.118   6.263   9.071 -3.5229 -1.4536  0.5928
  798MOL0     H 5307   0.989   6.372   9.106  0.5018  1.8437  1.4881
  798MOL0     H 5308   1.160   6.213   9.301 -0.1626 -1.6059 -0.4849
  798MOL0     H 5309   1.038   6.345   9.348 -2.0323 -0.6289 -0.0004
  798MOL0     H 5310   0.979   6.102   9.206  2.3395  2.4477 -0.4771
  798MOL0     H 5311   0.855   6.221   9.250 -0.1070  2.1335  1.2077
  798MOL0     H 5312   1.014   6.051   9.464 -2.8902 -0.4893  2.3500
  798MOL0     H 5313   0.867   6.007   9.398  0.3972 -1.0281  2.4637
  798MOL0     H 5314   0.877   6.153   9.617  1.5371 -1.1407 -0.7470
  798MOL0     H 5315   0.878   6.287   9.510  2.8389 -0.8466 -0.0014
  798MOL0     H 5316   0.673   6.087   9.476 -0.1234  0.7511 -0.4892
  798MOL0     H 5317   0.702   6.262   9.411 -1.6251  1.6849  1.8981
  798MOL0     H 5318   1.604   6.689   9.196 -0.9368  3.5923  0.2945
  798MOL0     H 5319   1.751   6.777   9.367 -1.1214  1.9749  1.0407
  798MOL0     H 5320   1.898   6.678   9.782  0.7256  0.2702  0.4091
  798MOL0     H 5321   2.062   6.695   9.942 -1.8897 -0.7999  0.2569
  798MOL0     H 5322   3.897   6.967  10.064  2.0030  0.7806 -0.8800
  798MOL0     H 5323   3.984   6.728   9.963  0.7575 -1.4710 -2.9531
  798MOL0     H 5324   3.716   6.465   9.455 -1.9813  0.6515 -0.8270
  798MOL0     H 5325   3.478   6.430   9.426  1.9044 -3.2144  0.0169
  798MOL0     H 5326   3.225   6.344   9.506  3.1309  0.7799  2.5766
  798MOL0     H 5327   3.254   6.495   9.420  2.3894 -0.4219  0.7630
  798MOL0     H 5328   3.011   6.486   9.440  0.4507 -0.5816  0.4585
  798MOL0     H 5329   3.012   6.408   9.586  0.9949 -0.4031 -0.2301
  798MOL0     H 5330   3.040   6.701   9.519  1.1277 -1.0214 -2.4159
  798MOL0     H 5331   3.085   6.649   9.685 -1.0857 -1.1831 -0.7780
  798MOL0     H 5332   2.808   6.596   9.581  1.3026  0.8875 -2.2299
  798MOL0     H 5333   2.870   6.569   9.745 -3.3914  1.0602 -0.0919
  798MOL0     H 5334   2.778   6.970   9.723 -2.2668 -1.7520  0.3109
  798MOL0     H 5335   3.413   6.564   9.832 -1.7161  1.9858 -2.3586
  798MOL0     H 5336   3.651   6.575   9.862  3.2953  3.1807 -2.3260
  799MOL0     O 5337   7.019   9.235   7.200  0.1785 -0.0284 -0.5035
  799MOL0     C 5338   7.095   9.163   7.145 -0.8119 -0.2548  0.1495
  799MOL0     O 5339   7.126   9.158   7.011 -0.0155  0.3584 -0.1971
  799MOL0     C 5340   7.074   9.253   6.925  0.2072  0.4767 -0.4054
  799MOL0     C 5341   7.019   9.217   6.807 -0.2113 -0.1521 -1.2046
  799MOL0     C 5342   6.990   9.317   6.712 -0.7091 -0.2780 -0.3825
  799MOL0     C 5343   7.031   9.450   6.734 -0.1034  0.6907  0.5978
  799MOL0     O 5344   7.023   9.552   6.645  0.0423 -0.3897 -0.0934
  799MOL0     C 5345   6.967   9.520   6.509  0.7091 -0.4038  0.5654
  799MOL0     C 5346   7.072   9.441   6.417  0.2079  0.2440  0.0069
  799MOL0     C 5347   7.014   9.433   6.267 -0.6252 -0.3632 -0.1873
  799MOL0     C 5348   7.104   9.498   6.161  0.2687  0.1787 -0.6014
  799MOL0     C 5349   7.102   9.646   6.186  0.7353 -0.5394 -0.0497
  799MOL0     C 5350   7.187   9.717   6.084 -0.3239  0.7508 -0.8272
  799MOL0     C 5351   7.190   9.873   6.095  0.6967 -0.2087  0.2284
  799MOL0     C 5352   7.113   9.934   5.975  0.5032  0.1569 -0.4877
  799MOL0     N 5353   7.098  10.079   5.969  0.7651 -0.1697 -0.5529
  799MOL0     C 5354   7.175  10.170   6.049 -0.6949  0.7239  0.6687
  799MOL0     C 5355   7.152  10.286   5.983  0.6218  0.1700  0.8534
  799MOL0     C 5356   7.191  10.423   6.045 -0.1033  0.4376  1.0766
  799MOL0     C 5357   7.126  10.545   5.982 -0.9223  0.5018 -0.1488
  799MOL0     C 5358   6.976  10.537   6.027 -0.6364 -0.7813 -0.3455
  799MOL0     C 5359   6.909  10.676   6.027 -0.9148  0.2789 -0.7154
  799MOL0     O 5360   6.974  10.752   6.136  0.1449  0.1460  0.1572
  799MOL0     C 5361   6.980  10.886   6.115  0.0739  0.8692  0.3849
  799MOL0     C 5362   6.868  10.971   6.116 -0.5454  0.2921 -0.2646
  799MOL0     C 5363   6.880  11.106   6.080 -0.3777 -0.8154 -0.2472
  799MOL0     C 5364   7.012  11.168   6.080  0.3754  0.2766  0.0893
  799MOL0     C 5365   7.030  11.311   6.068 -0.2372 -1.0682  0.2496
  799MOL0     O 5366   7.152  11.360   6.105  0.1517  0.2048  0.9707
  799MOL0     C 5367   7.190  11.484   6.067  0.6399  0.3879  0.2930
  799MOL0     C 5368   7.235  11.501   5.945  0.9741 -0.0320 -0.0886
  799MOL0     C 5369   7.268  11.626   5.890  0.3149 -0.0054 -0.6991
  799MOL0     C 5370   7.241  11.744   5.976 -0.9400  0.4421  0.0644
  799MOL0     O 5371   7.259  11.873   5.942 -0.6233 -0.1045  0.5377
  799MOL0     C 5372   7.282  11.902   5.802 -0.2974 -0.0620  0.6152
  799MOL0     C 5373   7.242  12.057   5.798 -0.7879  0.1170 -0.8387
  799MOL0     C 5374   7.274  12.105   5.658  0.3077 -0.6232 -0.3854
  799MOL0     C 5375   7.426  12.114   5.628  0.8159 -0.9207 -0.3029
  799MOL0     C 5376   7.450  12.209   5.499  0.0294 -0.4505  0.3883
  799MOL0     C 5377   7.601  12.233   5.465  0.5778  0.0374  0.8044
  799MOL0     C 5378   7.620  12.277   5.318 -0.3865  0.0027 -0.5355
  799MOL0     C 5379   7.756  12.312   5.276 -0.7834  0.2586  0.5748
  799MOL0    Cl 5380   7.864  12.174   5.261 -0.4890  0.2657  0.2432
  799MOL0     C 5381   7.199  11.719   6.115 -1.1604 -0.0503 -0.2186
  799MOL0     C 5382   7.174  11.592   6.155 -1.0264  0.4662 -0.8748
  799MOL0     O 5383   6.948  11.373   6.000  0.5643 -0.0032 -0.3499
  799MOL0     C 5384   7.124  11.079   6.096 -0.3144  0.3081  0.1722
  799MOL0     C 5385   7.106  10.939   6.114 -0.7162  0.5063 -0.6853
  799MOL0     N 5386   7.069  10.271   5.876 -0.3732 -0.0767 -0.4882
  799MOL0     N 5387   7.037  10.147   5.866  0.1775 -0.1787 -0.3932
  799MOL0     C 5388   7.086   9.480   6.853  0.3359  0.1933 -0.9225
  799MOL0     C 5389   7.107   9.383   6.949  0.5023  0.2421  0.4840
  799MOL0     C 5390   7.159   9.056   7.227 -0.9415 -0.3669 -0.2488
  799MOL0     C 5391   7.134   9.047   7.368 -0.2673 -1.0399  0.7702
  799MOL0     C 5392   7.192   8.943   7.451  0.9500 -0.1393  0.3445
  799MOL0     C 5393   7.266   8.843   7.389  0.0172  0.7627 -0.2608
  799MOL0     O 5394   7.326   8.730   7.445 -0.3115  0.4144  0.5180
  799MOL0     C 5395   7.264   8.674   7.562 -0.6772 -1.1627  0.7095
  799MOL0     C 5396   7.356   8.554   7.594 -0.2159  0.2730 -0.9460
  799MOL0     C 5397   7.355   8.451   7.479  0.6805 -0.2295  0.5023
  799MOL0     C 5398   7.418   8.310   7.522  0.3104  0.3095 -0.0403
  799MOL0     C 5399   7.455   8.231   7.407 -0.2193  0.1615  0.3756
  799MOL0     C 5400   7.523   8.174   7.317 -0.0661 -0.5528 -0.4195
  799MOL0     C 5401   7.300   8.859   7.259 -0.1531 -0.9383 -1.4306
  799MOL0     C 5402   7.248   8.963   7.174 -1.1530 -0.6718  0.4147
  799MOL0     H 5403   7.001   9.114   6.776  1.7362 -0.4669 -1.4720
  799MOL0     H 5404   6.951   9.290   6.614  0.1516  0.5682 -0.9739
  799MOL0     H 5405   6.960   9.611   6.449 -1.3652 -1.4367 -0.8913
  799MOL0     H 5406   6.873   9.465   6.517  0.9035 -0.5829  1.9240
  799MOL0     H 5407   7.098   9.341   6.451 -2.6402  0.2797  2.7963
  799MOL0     H 5408   7.171   9.486   6.427  0.8009 -1.0066 -0.1621
  799MOL0     H 5409   6.917   9.482   6.258  1.5188  4.0227 -1.6703
  799MOL0     H 5410   7.002   9.328   6.236 -1.8708  0.3588 -2.3096
  799MOL0     H 5411   7.208   9.463   6.155 -0.2396 -1.1424 -2.7747
  799MOL0     H 5412   7.066   9.487   6.059  0.0731  1.1020 -0.6320
  799MOL0     H 5413   7.142   9.674   6.284 -0.2206 -2.1378  0.8372
  799MOL0     H 5414   7.002   9.690   6.176 -0.4417 -3.4013 -2.2131
  799MOL0     H 5415   7.147   9.697   5.984  0.5826  2.2393 -1.5346
  799MOL0     H 5416   7.288   9.677   6.098 -0.8051  0.2880  1.8405
  799MOL0     H 5417   7.147   9.901   6.191 -0.6604 -0.3261 -0.3225
  799MOL0     H 5418   7.296   9.897   6.101  0.7709 -0.6826  0.9776
  799MOL0     H 5419   7.015   9.886   5.977  0.6371 -0.1421 -0.9843
  799MOL0     H 5420   7.147   9.897   5.878 -1.4712 -2.1420 -0.3849
  799MOL0     H 5421   7.235  10.145   6.136 -0.5074  0.6386  0.5164
  799MOL0     H 5422   7.298  10.437   6.027 -0.6376  0.4097 -3.2747
  799MOL0     H 5423   7.174  10.444   6.151 -0.4825  2.2726  0.7007
  799MOL0     H 5424   7.148  10.545   5.874 -1.1237 -1.0196 -0.1984
  799MOL0     H 5425   7.166  10.644   6.008 -0.5968  1.2397 -3.0848
  799MOL0     H 5426   6.915  10.478   5.958 -2.0327  1.5603 -1.2146
  799MOL0     H 5427   6.972  10.491   6.126  1.3036  1.3330  0.8032
  799MOL0     H 5428   6.805  10.657   6.053 -0.8482 -0.9729 -1.2891
  799MOL0     H 5429   6.937  10.729   5.935  1.3494 -1.8005 -1.3301
  799MOL0     H 5430   6.767  10.932   6.128  0.3143 -1.4088  2.3359
  799MOL0     H 5431   6.802  11.182   6.068  2.6239  2.4724 -0.4992
  799MOL0     H 5432   7.252  11.411   5.887  1.7715 -1.4754  2.2613
  799MOL0     H 5433   7.304  11.618   5.788 -0.8308 -0.4431 -1.0894
  799MOL0     H 5434   7.209  11.854   5.736 -0.2183  0.7780 -0.0935
  799MOL0     H 5435   7.386  11.883   5.772 -0.9086 -4.0184  0.4038
  799MOL0     H 5436   7.294  12.119   5.872 -0.5645  0.0723 -0.9574
  799MOL0     H 5437   7.134  12.065   5.815 -0.3713  1.8540  1.3330
  799MOL0     H 5438   7.242  12.209   5.653  3.0764  0.2559 -3.1850
  799MOL0     H 5439   7.220  12.043   5.585 -0.7786  0.8407 -0.8595
  799MOL0     H 5440   7.481  12.152   5.714 -1.4375 -0.2822  0.9137
  799MOL0     H 5441   7.467  12.018   5.596 -0.0893 -0.8126 -1.9169
  799MOL0     H 5442   7.395  12.302   5.518  1.4824  0.3717  0.7147
  799MOL0     H 5443   7.403  12.159   5.414 -0.9663 -0.4651  0.9376
  799MOL0     H 5444   7.654  12.137   5.465  1.2468  0.1914 -3.4522
  799MOL0     H 5445   7.654  12.307   5.526 -0.9732  0.7526  1.3326
  799MOL0     H 5446   7.590  12.189   5.261  0.5094 -1.9922  1.8758
  799MOL0     H 5447   7.558  12.364   5.295  1.0879  1.3966  0.5268
  799MOL0     H 5448   7.792  12.391   5.342  1.6709  0.7374 -1.2329
  799MOL0     H 5449   7.755  12.362   5.179  1.4081  0.3087  0.5390
  799MOL0     H 5450   7.187  11.795   6.192 -0.4142  2.6962 -2.5938
  799MOL0     H 5451   7.142  11.576   6.258 -2.4786 -0.8236 -1.4836
  799MOL0     H 5452   7.226  11.118   6.100  0.6043 -1.4707 -2.9300
  799MOL0     H 5453   7.196  10.881   6.127 -0.0167  1.7108  0.0455
  799MOL0     H 5454   7.125   9.580   6.872  0.1718 -0.0768  1.0723
  799MOL0     H 5455   7.153   9.413   7.043 -0.0366 -2.1535  1.5719
  799MOL0     H 5456   7.065   9.120   7.411  1.4111  0.9903  0.1928
  799MOL0     H 5457   7.176   8.923   7.557 -1.1333 -2.3137 -0.2724
  799MOL0     H 5458   7.171   8.629   7.526  0.1145 -1.4854 -1.0343
  799MOL0     H 5459   7.265   8.744   7.646  1.0616 -2.3733  1.7417
  799MOL0     H 5460   7.458   8.592   7.609  0.8330 -1.6099 -2.7295
  799MOL0     H 5461   7.305   8.512   7.681  2.7609  0.1744  0.8967
  799MOL0     H 5462   7.425   8.487   7.404  0.8377  0.2970  0.8946
  799MOL0     H 5463   7.258   8.427   7.435  0.2095 -4.2525  3.2641
  799MOL0     H 5464   7.505   8.309   7.589 -1.9375  0.8098  3.1234
  799MOL0     H 5465   7.348   8.264   7.592 -0.1298  3.1880  1.5858
  799MOL0     H 5466   7.591   8.123   7.251 -0.2278  0.9831 -1.8370
  799MOL0     H 5467   7.362   8.778   7.222  0.2312 -0.5697 -1.6012
  799MOL0     H 5468   7.272   8.965   7.068 -4.0091 -1.6303 -0.3422
  800MOL0     O 5469   7.788   3.510   9.112 -0.0803 -0.2675 -0.0195
  800MOL0     C 5470   7.878   3.524   9.030 -0.1271 -0.5206 -0.0985
  800MOL0     O 5471   7.914   3.441   8.930 -0.3513  0.4694  1.3796
  800MOL0     C 5472   7.842   3.336   8.889  0.3551 -0.4447 -0.3176
  800MOL0     C 5473   7.887   3.289   8.768  1.0838 -0.1689  0.0605
  800MOL0     C 5474   7.825   3.181   8.713  0.8610  0.2773 -0.0767
  800MOL0     C 5475   7.708   3.119   8.770  0.0398 -0.1891  0.2857
  800MOL0     O 5476   7.637   3.012   8.707 -0.4039 -0.5173  0.9111
  800MOL0     C 5477   7.715   2.928   8.617  0.2778 -0.2452  0.1814
  800MOL0     C 5478   7.634   2.799   8.586  0.4771  0.6820  1.0067
  800MOL0     C 5479   7.639   2.700   8.703 -0.2350 -0.9565  0.4552
  800MOL0     C 5480   7.610   2.563   8.652 -0.1515  0.2514 -0.8301
  800MOL0     C 5481   7.650   2.450   8.761 -0.1723 -0.3202  0.3379
  800MOL0     C 5482   7.617   2.314   8.702 -0.2848  0.6920  0.4674
  800MOL0     C 5483   7.665   2.202   8.796 -0.2942 -0.1409 -1.0903
  800MOL0     C 5484   7.636   2.076   8.734 -0.5480  0.0475 -0.4503
  800MOL0     N 5485   7.495   2.050   8.717  0.8414 -0.7813 -0.1034
  800MOL0     C 5486   7.400   2.060   8.819 -0.4592  0.7911 -0.4854
  800MOL0     C 5487   7.274   2.070   8.770 -0.2159  0.1952  0.5415
  800MOL0     C 5488   7.142   2.102   8.834  0.2023  0.0976  0.2847
  800MOL0     C 5489   7.153   2.212   8.944  0.0574 -0.0754  0.4645
  800MOL0     C 5490   7.027   2.218   9.037  0.1428 -0.5792  1.1785
  800MOL0     C 5491   7.058   2.312   9.151  0.6949 -0.3777  0.9326
  800MOL0     O 5492   7.032   2.448   9.114 -0.4673  0.0225 -0.2253
  800MOL0     C 5493   7.094   2.542   9.200  0.9131 -0.0782  0.2049
  800MOL0     C 5494   7.060   2.677   9.181  0.5547  0.0280  1.2407
  800MOL0     C 5495   7.089   2.777   9.268 -0.1669 -0.6678  0.7520
  800MOL0     C 5496   7.165   2.746   9.386 -0.1954  0.1485 -0.5584
  800MOL0     C 5497   7.191   2.848   9.494 -0.5407 -0.5266  0.6515
  800MOL0     O 5498   7.143   2.973   9.473  0.4537  0.3826 -0.0812
  800MOL0     C 5499   7.159   3.077   9.559  1.3130  0.2101  0.1710
  800MOL0     C 5500   7.117   3.198   9.510  0.7176 -0.1098  0.0831
  800MOL0     C 5501   7.105   3.310   9.586 -0.3401  0.3852 -0.1349
  800MOL0     C 5502   7.132   3.309   9.725 -0.7621 -0.2512 -0.3381
  800MOL0     O 5503   7.109   3.433   9.788  0.0848  0.3587 -0.2768
  800MOL0     C 5504   7.163   3.455   9.919  0.1244 -0.1873 -0.3888
  800MOL0     C 5505   7.312   3.470   9.932  1.0417  0.6394 -0.5545
  800MOL0     C 5506   7.383   3.550   9.820  0.0903  0.2569 -0.0131
  800MOL0     C 5507   7.531   3.591   9.852  0.4099  0.0242 -0.7044
  800MOL0     C 5508   7.635   3.572   9.743 -0.0068  0.1774 -1.1903
  800MOL0     C 5509   7.786   3.587   9.775 -0.0546  0.6224  0.4049
  800MOL0     C 5510   7.825   3.723   9.832  0.0426 -0.2298 -0.6743
  800MOL0     C 5511   7.822   3.833   9.718  0.3444  0.1575  0.1232
  800MOL0    Cl 5512   7.889   3.980   9.774 -0.4421  0.4734 -0.5630
  800MOL0     C 5513   7.176   3.192   9.780  0.3049  0.5690 -0.3987
  800MOL0     C 5514   7.183   3.075   9.697  0.1061  1.2545 -0.5409
  800MOL0     O 5515   7.261   2.813   9.594 -0.2320 -0.2704  0.0668
  800MOL0     C 5516   7.193   2.614   9.414  0.2201  1.0664 -0.1010
  800MOL0     C 5517   7.156   2.512   9.325  0.0308  0.4284  1.3418
  800MOL0     N 5518   7.290   2.051   8.633  0.5844  0.4834 -0.1447
  800MOL0     N 5519   7.417   2.044   8.605  0.0308  0.1612 -0.5451
  800MOL0     C 5520   7.669   3.163   8.894 -0.5256  0.8655 -0.0077
  800MOL0     C 5521   7.736   3.271   8.956  0.2412 -0.2847 -0.1029
  800MOL0     C 5522   7.961   3.645   9.050 -0.0725  0.4096  0.5115
  800MOL0     C 5523   8.043   3.690   8.944 -0.6070 -1.1102 -0.3984
  800MOL0     C 5524   8.116   3.809   8.973 -0.5083 -0.0557 -0.8211
  800MOL0     C 5525   8.105   3.878   9.093 -0.2859 -0.9670  0.1256
  800MOL0     O 5526   8.168   3.996   9.125  0.4826 -0.1055 -0.0146
  800MOL0     C 5527   8.097   4.111   9.148 -0.2546  0.0327 -0.2117
  800MOL0     C 5528   8.188   4.217   9.101 -0.9972  0.8569 -0.0647
  800MOL0     C 5529   8.148   4.272   8.964  0.2239  0.3359 -0.2334
  800MOL0     C 5530   8.092   4.413   8.975 -0.6066 -0.1722  0.0892
  800MOL0     C 5531   7.969   4.429   9.052 -0.4328  0.0576  0.7942
  800MOL0     C 5532   7.863   4.424   9.101 -0.0240 -0.6055 -0.4985
  800MOL0     C 5533   8.018   3.840   9.190 -0.4838  0.8925 -0.5773
  800MOL0     C 5534   7.963   3.715   9.174 -0.1898  0.8226 -0.4973
  800MOL0     H 5535   7.973   3.333   8.720  0.1860 -0.0891 -1.5500
  800MOL0     H 5536   7.867   3.134   8.624  2.4219  2.6667 -0.7193
  800MOL0     H 5537   7.808   2.903   8.669 -0.3561  0.1045  1.5296
  800MOL0     H 5538   7.727   2.981   8.522 -0.0586  0.2155  0.3885
  800MOL0     H 5539   7.674   2.751   8.496 -2.4951  1.6133 -0.9581
  800MOL0     H 5540   7.531   2.825   8.561  1.3321 -0.2223 -5.0894
  800MOL0     H 5541   7.580   2.731   8.790  2.3636 -0.8499  2.3379
  800MOL0     H 5542   7.734   2.700   8.757 -1.1780 -2.9874  2.2706
  800MOL0     H 5543   7.505   2.540   8.630 -0.9039  0.7437  1.9348
  800MOL0     H 5544   7.660   2.541   8.557  2.9154 -2.4548  1.2071
  800MOL0     H 5545   7.591   2.461   8.853 -0.7460  0.8289 -0.1456
  800MOL0     H 5546   7.757   2.459   8.779 -0.3182  3.7670  0.0921
  800MOL0     H 5547   7.683   2.301   8.616  2.3773 -2.6929  2.7483
  800MOL0     H 5548   7.511   2.305   8.678  0.1653  1.2533 -1.9764
  800MOL0     H 5549   7.769   2.219   8.826 -1.7644  1.6187  4.2693
  800MOL0     H 5550   7.612   2.214   8.891 -0.1586  2.4121 -1.2585
  800MOL0     H 5551   7.694   2.004   8.792  0.3750  0.5774 -0.6952
  800MOL0     H 5552   7.684   2.068   8.636  2.1262  2.7279  0.4861
  800MOL0     H 5553   7.427   2.068   8.924 -1.9390 -2.7301  0.3144
  800MOL0     H 5554   7.101   2.008   8.872 -0.3075 -0.0275 -0.5423
  800MOL0     H 5555   7.068   2.133   8.760 -0.2849 -0.8741  0.3480
  800MOL0     H 5556   7.177   2.298   8.880 -0.0290 -0.8294 -0.6098
  800MOL0     H 5557   7.245   2.197   9.000  1.6709  1.2271 -1.6714
  800MOL0     H 5558   6.949   2.262   8.973  2.7501  2.1471 -0.4324
  800MOL0     H 5559   7.009   2.118   9.077  1.4948 -0.2805  2.5865
  800MOL0     H 5560   7.163   2.298   9.178  0.7757  0.8630  1.3160
  800MOL0     H 5561   6.991   2.287   9.234 -0.7168  1.8554  0.5491
  800MOL0     H 5562   6.986   2.695   9.104  3.3497  1.6034 -1.2613
  800MOL0     H 5563   7.058   2.880   9.251  0.3621 -0.3242  1.7523
  800MOL0     H 5564   7.114   3.203   9.401  6.1703 -3.5373 -0.6482
  800MOL0     H 5565   7.075   3.397   9.528 -2.2083  0.5305  0.9668
  800MOL0     H 5566   7.130   3.378   9.990 -1.7057  0.6968 -0.2318
  800MOL0     H 5567   7.132   3.554   9.955  2.6479 -0.0581  1.8088
  800MOL0     H 5568   7.354   3.369   9.928  2.3422  1.1916 -3.4152
  800MOL0     H 5569   7.340   3.505  10.031  0.3791  2.1423 -0.8583
  800MOL0     H 5570   7.326   3.641   9.799 -3.2940 -1.1769  2.1186
  800MOL0     H 5571   7.373   3.505   9.721 -1.4103  1.9895 -0.7018
  800MOL0     H 5572   7.533   3.694   9.888  3.7683 -1.1594  3.3173
  800MOL0     H 5573   7.560   3.524   9.934  1.6148  0.1462 -1.0032
  800MOL0     H 5574   7.614   3.637   9.657 -1.7792 -1.0548 -1.7418
  800MOL0     H 5575   7.629   3.469   9.708  2.6747  0.1805 -1.9377
  800MOL0     H 5576   7.849   3.565   9.688  0.1353  0.9224  0.4673
  800MOL0     H 5577   7.796   3.508   9.850 -0.4576 -0.3739 -0.5589
  800MOL0     H 5578   7.755   3.751   9.911 -2.0405 -0.7857 -2.2368
  800MOL0     H 5579   7.925   3.703   9.872 -0.9205 -1.5486  1.2560
  800MOL0     H 5580   7.719   3.862   9.696  0.2082 -0.8735 -0.7073
  800MOL0     H 5581   7.863   3.804   9.620 -2.0315 -1.0361 -0.6000
  800MOL0     H 5582   7.197   3.180   9.886  2.5485  2.4034 -0.5628
  800MOL0     H 5583   7.210   2.980   9.741  2.6059  0.8113 -2.7184
  800MOL0     H 5584   7.235   2.598   9.513  0.4442  0.8688 -0.2243
  800MOL0     H 5585   7.193   2.412   9.344  4.5612  0.8637 -3.0474
  800MOL0     H 5586   7.582   3.123   8.943 -0.1470 -0.0198 -0.0433
  800MOL0     H 5587   7.697   3.305   9.052 -2.7197  0.6402 -1.4813
  800MOL0     H 5588   8.038   3.648   8.843  0.4732  1.4135 -1.5936
  800MOL0     H 5589   8.174   3.846   8.889  0.2968 -2.4423 -1.3993
  800MOL0     H 5590   8.065   4.135   9.250 -1.5565  4.0618 -1.4006
  800MOL0     H 5591   8.009   4.116   9.083  0.0962 -1.0986 -0.8071
  800MOL0     H 5592   8.178   4.300   9.171 -2.5170  1.2254 -0.6837
  800MOL0     H 5593   8.291   4.180   9.104 -1.6381 -1.0278  3.2912
  800MOL0     H 5594   8.067   4.216   8.916 -0.0911  1.5162 -1.1373
  800MOL0     H 5595   8.233   4.265   8.895  1.7742  2.4947  1.3315
  800MOL0     H 5596   8.168   4.480   9.015 -0.9259 -0.2706  0.8820
  800MOL0     H 5597   8.067   4.448   8.874  1.5151  0.7896 -0.1487
  800MOL0     H 5598   7.770   4.420   9.155 -0.4133  2.4867 -0.8054
  800MOL0     H 5599   8.007   3.886   9.288 -0.3462  1.4742 -0.8309
  800MOL0     H 5600   7.894   3.672   9.246 -2.1324 -1.4625 -3.4774
  801MOL0     O 5601   5.707   0.424   3.462 -0.1096 -0.7491  0.3540
  801MOL0     C 5602   5.643   0.345   3.398  1.1833 -0.6661 -0.4679
  801MOL0     O 5603   5.579   0.239   3.445 -0.4746  0.4748  0.0804
  801MOL0     C 5604   5.594   0.202   3.571  0.4205 -0.3638 -1.5763
  801MOL0     C 5605   5.526   0.266   3.678  0.2807 -1.5166 -0.3670
  801MOL0     C 5606   5.547   0.231   3.812  0.1736 -0.2990 -0.1937
  801MOL0     C 5607   5.619   0.114   3.848  0.3649 -0.4344 -0.2529
  801MOL0     O 5608   5.656   0.061   3.969 -0.0298  0.4699 -0.1957
  801MOL0     C 5609   5.592   0.113   4.086 -0.3801 -0.0143  0.0854
  801MOL0     C 5610   5.597   0.025   4.205 -0.2549  0.7300  0.0901
  801MOL0     C 5611   5.556   0.094   4.339  0.6437  0.7951 -1.4104
  801MOL0     C 5612   5.673   0.183   4.399 -0.1657 -0.2712 -0.1705
  801MOL0     C 5613   5.616   0.286   4.493  0.0977 -0.0648 -0.5380
  801MOL0     C 5614   5.734   0.359   4.559  0.6071 -0.2686  0.2957
  801MOL0     C 5615   5.694   0.408   4.698 -0.2766 -0.9269 -0.0518
  801MOL0     C 5616   5.793   0.512   4.762  0.7882 -0.1144 -0.0181
  801MOL0     N 5617   5.903   0.454   4.829  0.2366 -0.0939 -0.0209
  801MOL0     C 5618   5.912   0.407   4.958  0.3113  0.4154 -0.1891
  801MOL0     C 5619   6.037   0.368   4.983  0.7414 -0.7482  0.5948
  801MOL0     C 5620   6.096   0.300   5.107  0.0307 -0.2946  0.3942
  801MOL0     C 5621   6.045   0.155   5.123  0.4332 -0.8023  0.6601
  801MOL0     C 5622   6.125   0.100   5.237  0.0147  0.0883  1.0475
  801MOL0     C 5623   6.243   0.021   5.176 -0.5389  0.0058 -0.1727
  801MOL0     O 5624   6.313  -0.050   5.285 -0.7136 -0.3174  0.1730
  801MOL0     C 5625   6.265  -0.166   5.345 -0.4310  0.7616 -0.3858
  801MOL0     C 5626   6.146  -0.233   5.318  0.2706  0.8843  0.5898
  801MOL0     C 5627   6.118  -0.350   5.398  0.0812 -0.7007  0.1785
  801MOL0     C 5628   6.209  -0.405   5.496  0.8039 -0.1911 -0.8735
  801MOL0     C 5629   6.175  -0.520   5.577 -0.3042 -0.1102  0.3879
  801MOL0     O 5630   6.083  -0.611   5.543  0.2003 -0.7133 -0.5660
  801MOL0     C 5631   6.060  -0.723   5.616 -0.8557 -0.0271 -0.6800
  801MOL0     C 5632   6.171  -0.813   5.648 -0.9642 -0.9052 -0.1627
  801MOL0     C 5633   6.144  -0.923   5.728  0.5274  0.6605 -0.0357
  801MOL0     C 5634   6.018  -0.962   5.757  0.0306  1.0245 -0.3950
  801MOL0     O 5635   6.002  -1.089   5.807 -0.1888 -0.1955 -0.0768
  801MOL0     C 5636   5.889  -1.118   5.887  0.0403 -0.6521  0.2908
  801MOL0     C 5637   5.866  -1.045   6.025  0.6011 -1.4817 -0.8392
  801MOL0     C 5638   6.001  -1.025   6.093 -1.0002 -0.2639 -0.4797
  801MOL0     C 5639   6.083  -1.154   6.131 -0.2693 -1.1610 -0.6852
  801MOL0     C 5640   6.198  -1.137   6.234 -1.2008 -0.4253  0.2066
  801MOL0     C 5641   6.320  -1.065   6.183 -0.2525  0.7254 -0.1943
  801MOL0     C 5642   6.321  -0.927   6.226 -0.4792 -0.1729 -0.5796
  801MOL0     C 5643   6.419  -0.836   6.155 -0.5055 -0.1771  0.9293
  801MOL0    Cl 5644   6.575  -0.918   6.109  0.2004 -0.2814  0.0608
  801MOL0     C 5645   5.909  -0.875   5.731 -0.3384 -0.2334 -0.1238
  801MOL0     C 5646   5.934  -0.757   5.659  1.2693  0.5042  0.5934
  801MOL0     O 5647   6.242  -0.521   5.681 -0.1500 -0.0714  1.0255
  801MOL0     C 5648   6.318  -0.318   5.531  0.0593 -0.5317 -0.2600
  801MOL0     C 5649   6.346  -0.199   5.459  0.3584  0.2564 -0.7613
  801MOL0     N 5650   6.104   0.399   4.866 -0.0831  0.7574 -0.7702
  801MOL0     N 5651   6.026   0.456   4.780  0.4543 -0.0652 -0.4668
  801MOL0     C 5652   5.667   0.032   3.739 -0.4714  0.9029 -0.5172
  801MOL0     C 5653   5.651   0.077   3.603 -0.0780  0.1110  0.6094
  801MOL0     C 5654   5.634   0.383   3.258  0.5130  0.8702 -0.2836
  801MOL0     C 5655   5.584   0.293   3.168 -0.1517  0.5479 -0.0742
  801MOL0     C 5656   5.569   0.321   3.031 -0.6611  0.3438  0.9874
  801MOL0     C 5657   5.608   0.438   2.976  0.0012  0.3177 -0.9476
  801MOL0     O 5658   5.583   0.449   2.845 -0.1837 -0.3295  1.4707
  801MOL0     C 5659   5.606   0.577   2.776  0.3233 -0.3282 -0.0855
  801MOL0     C 5660   5.488   0.669   2.803  0.1860  0.0629  0.7302
  801MOL0     C 5661   5.479   0.790   2.705  0.1584 -0.0763  0.5717
  801MOL0     C 5662   5.606   0.863   2.705 -0.6164 -0.2599 -0.5003
  801MOL0     C 5663   5.678   0.913   2.826  1.5278  0.2673  0.3201
  801MOL0     C 5664   5.739   0.954   2.925 -0.6062 -0.5452 -0.0088
  801MOL0     C 5665   5.660   0.535   3.065 -0.2945  0.1158 -0.3316
  801MOL0     C 5666   5.673   0.511   3.207  0.5818 -0.1290 -0.1888
  801MOL0     H 5667   5.479   0.363   3.663 -0.4609 -0.6581  5.4660
  801MOL0     H 5668   5.505   0.291   3.892 -2.0373  1.6759 -2.6379
  801MOL0     H 5669   5.492   0.142   4.054 -0.8153 -0.0159  1.4051
  801MOL0     H 5670   5.644   0.207   4.109 -3.2234  2.6593 -3.1888
  801MOL0     H 5671   5.699  -0.014   4.214 -0.1654 -0.2131 -3.4542
  801MOL0     H 5672   5.539  -0.066   4.185  1.2656 -1.2833  3.8910
  801MOL0     H 5673   5.531   0.011   4.406  0.7357  2.1723  0.4287
  801MOL0     H 5674   5.462   0.148   4.322 -0.3252  0.1505  1.2860
  801MOL0     H 5675   5.739   0.123   4.461 -1.9507 -0.0706  2.0829
  801MOL0     H 5676   5.720   0.248   4.325 -1.5369  2.9172  1.5157
  801MOL0     H 5677   5.556   0.231   4.566  4.9332 -2.8787  1.8345
  801MOL0     H 5678   5.550   0.350   4.434  1.2364  1.7174  0.0180
  801MOL0     H 5679   5.778   0.440   4.501  0.0511  2.8177  3.7892
  801MOL0     H 5680   5.821   0.295   4.574  1.1563 -0.0431 -1.7113
  801MOL0     H 5681   5.600   0.463   4.687  0.3232 -0.1747 -1.6795
  801MOL0     H 5682   5.682   0.328   4.773 -3.7544  0.0352  0.5940
  801MOL0     H 5683   5.735   0.566   4.837  1.1967  1.6565 -0.9249
  801MOL0     H 5684   5.823   0.596   4.699  3.5187 -0.6960  0.3716
  801MOL0     H 5685   5.829   0.393   5.027 -0.6235 -1.9882 -1.6735
  801MOL0     H 5686   6.073   0.363   5.193 -0.5339  0.1872 -0.1024
  801MOL0     H 5687   6.205   0.294   5.105  0.0628 -0.3010 -2.2542
  801MOL0     H 5688   6.062   0.110   5.025 -0.9777  0.1864 -0.0787
  801MOL0     H 5689   5.937   0.172   5.128  0.6508  0.9571  0.0896
  801MOL0     H 5690   6.158   0.179   5.305 -0.9868  0.8713  0.6470
  801MOL0     H 5691   6.062   0.034   5.299 -1.5569  1.6188  1.1435
  801MOL0     H 5692   6.320   0.085   5.131  2.5544 -2.6177  0.9320
  801MOL0     H 5693   6.207  -0.051   5.102 -1.1999 -0.1153  0.2612
  801MOL0     H 5694   6.089  -0.204   5.230  0.8959 -2.1577 -0.9705
  801MOL0     H 5695   6.028  -0.406   5.373  1.1048 -2.8416  1.0287
  801MOL0     H 5696   6.269  -0.782   5.615 -0.9874 -1.0331 -0.3568
  801MOL0     H 5697   6.218  -0.993   5.768  1.0172  0.5307 -1.1357
  801MOL0     H 5698   5.911  -1.219   5.922 -2.7898 -1.1478  0.8839
  801MOL0     H 5699   5.792  -1.129   5.836 -0.8030 -3.7399  2.3060
  801MOL0     H 5700   5.798  -1.107   6.085 -1.6777  0.1438 -1.6170
  801MOL0     H 5701   5.820  -0.947   6.011 -1.7791 -2.6893 -2.2184
  801MOL0     H 5702   5.980  -0.967   6.183 -1.9048  2.3744 -2.2580
  801MOL0     H 5703   6.068  -0.959   6.037 -0.3686 -2.1551 -2.0978
  801MOL0     H 5704   6.010  -1.220   6.179 -2.4276  3.1678  2.7423
  801MOL0     H 5705   6.137  -1.196   6.045  3.6313  2.6277 -0.4545
  801MOL0     H 5706   6.234  -1.236   6.262  1.1381  0.5293  0.8543
  801MOL0     H 5707   6.157  -1.091   6.325  0.5774  0.6168  0.5179
  801MOL0     H 5708   6.326  -1.064   6.074 -1.7048  1.0698 -0.2893
  801MOL0     H 5709   6.407  -1.125   6.212 -1.0703 -1.4009 -1.8181
  801MOL0     H 5710   6.219  -0.889   6.211 -1.2266 -1.6226  0.5032
  801MOL0     H 5711   6.344  -0.923   6.333 -0.0206 -2.8920 -0.5082
  801MOL0     H 5712   6.444  -0.739   6.199 -3.1701  0.5391  1.0184
  801MOL0     H 5713   6.378  -0.817   6.056  1.5901  5.3770  0.7808
  801MOL0     H 5714   5.815  -0.885   5.783 -0.7909 -0.0773 -0.8995
  801MOL0     H 5715   5.854  -0.687   5.640  3.2315  2.6129 -0.5087
  801MOL0     H 5716   6.385  -0.344   5.612 -1.2809 -4.3607 -0.2214
  801MOL0     H 5717   6.428  -0.131   5.476  1.0671 -0.6788 -0.3461
  801MOL0     H 5718   5.713  -0.062   3.768 -1.4537  0.6879  0.4016
  801MOL0     H 5719   5.679   0.003   3.529 -1.4137 -1.4827  1.6171
  801MOL0     H 5720   5.548   0.195   3.198 -3.9206  1.9310  0.4535
  801MOL0     H 5721   5.528   0.251   2.958 -0.9126 -2.3193  3.4952
  801MOL0     H 5722   5.627   0.555   2.671 -1.1083  0.6119 -0.5994
  801MOL0     H 5723   5.691   0.630   2.818  1.0849 -0.3890 -1.4834
  801MOL0     H 5724   5.400   0.604   2.796  0.6187 -0.4631  0.0545
  801MOL0     H 5725   5.496   0.711   2.904  0.4774 -0.2597  0.8453
  801MOL0     H 5726   5.397   0.855   2.737 -0.2942 -0.2259 -0.2477
  801MOL0     H 5727   5.457   0.757   2.603  0.4200  0.6176  0.2870
  801MOL0     H 5728   5.679   0.800   2.654 -1.4270  1.0197 -3.4342
  801MOL0     H 5729   5.598   0.945   2.633 -1.9673  0.1057  0.0321
  801MOL0     H 5730   5.789   1.000   3.007 -2.0316  1.2153 -0.0468
  801MOL0     H 5731   5.688   0.633   3.025 -1.8660 -0.1745 -2.3037
  801MOL0     H 5732   5.705   0.589   3.276 -1.9685 -1.0210  2.1600
  802MOL0     O 5733   5.253   2.899   7.803  0.3974  0.7002  1.2255
  802MOL0     C 5734   5.284   3.007   7.757 -0.1449 -0.3337  0.5087
  802MOL0     O 5735   5.356   3.106   7.823  0.3403  0.4506 -0.1294
  802MOL0     C 5736   5.403   3.086   7.952 -0.5288  0.0843  0.2359
  802MOL0     C 5737   5.513   3.154   8.006  0.0972 -0.0951 -0.5585
  802MOL0     C 5738   5.569   3.150   8.133 -0.2677 -1.1747 -0.4190
  802MOL0     C 5739   5.520   3.046   8.219  0.6587 -0.2413 -1.2512
  802MOL0     O 5740   5.565   3.021   8.344 -0.0314 -0.2359 -0.9069
  802MOL0     C 5741   5.632   3.126   8.417  0.0398  0.1042  0.3817
  802MOL0     C 5742   5.633   3.083   8.564 -0.2362 -0.0741  0.1337
  802MOL0     C 5743   5.703   2.951   8.605 -0.5090 -0.3244  0.0897
  802MOL0     C 5744   5.625   2.833   8.583 -0.4363  0.3532 -0.5366
  802MOL0     C 5745   5.490   2.817   8.664 -0.5758  0.3576  0.3885
  802MOL0     C 5746   5.500   2.844   8.821 -0.9179  0.0490  0.7013
  802MOL0     C 5747   5.608   2.755   8.897  0.1287 -0.5199 -0.2114
  802MOL0     C 5748   5.607   2.761   9.051  0.4956 -0.0080 -0.4150
  802MOL0     N 5749   5.649   2.885   9.113  0.9868  0.3867 -0.1866
  802MOL0     C 5750   5.575   2.997   9.106 -1.1726 -0.4927 -0.9268
  802MOL0     C 5751   5.642   3.085   9.180 -0.3001 -0.4835 -0.4742
  802MOL0     C 5752   5.631   3.235   9.172 -0.2421 -0.1755  0.1643
  802MOL0     C 5753   5.734   3.305   9.087  0.4676 -0.2445  0.2299
  802MOL0     C 5754   5.756   3.248   8.942 -0.1966 -0.7065  0.2957
  802MOL0     C 5755   5.862   3.324   8.858  0.6466  0.6690 -0.4977
  802MOL0     O 5756   5.981   3.306   8.935  0.6924  0.3956  0.1659
  802MOL0     C 5757   6.071   3.402   8.949 -0.0452 -0.5245  1.3207
  802MOL0     C 5758   6.198   3.367   8.994 -0.8142 -0.3247  0.8389
  802MOL0     C 5759   6.304   3.449   8.986 -0.5249 -0.7587  0.2764
  802MOL0     C 5760   6.279   3.589   8.958 -0.4288  0.8505  0.2017
  802MOL0     C 5761   6.386   3.681   8.970  0.7448  0.6654 -0.3217
  802MOL0     O 5762   6.364   3.804   8.942  0.1362  0.0927  0.2319
  802MOL0     C 5763   6.460   3.901   8.934 -0.3927  0.2522 -0.1721
  802MOL0     C 5764   6.543   3.887   8.834 -2.0497  0.3358 -0.0435
  802MOL0     C 5765   6.651   3.988   8.811 -0.0447  0.0746 -0.0082
  802MOL0     C 5766   6.654   4.100   8.898  0.5723 -0.2430  0.0859
  802MOL0     O 5767   6.761   4.189   8.877 -0.0423  0.1181 -0.1249
  802MOL0     C 5768   6.769   4.312   8.949  0.1843 -0.8385  0.2220
  802MOL0     C 5769   6.891   4.379   8.901  0.3685 -0.2445 -0.3557
  802MOL0     C 5770   6.887   4.429   8.761 -0.0517  0.1645 -0.2745
  802MOL0     C 5771   6.982   4.545   8.733 -1.3887 -0.1828  0.7126
  802MOL0     C 5772   6.925   4.678   8.775 -0.7582 -1.1701 -0.5229
  802MOL0     C 5773   7.030   4.786   8.823  0.0326 -0.1368  0.1351
  802MOL0     C 5774   7.106   4.837   8.709 -0.6558 -0.2627  0.0565
  802MOL0     C 5775   7.197   4.951   8.749  0.3209  0.5904  0.6943
  802MOL0    Cl 5776   7.312   4.919   8.881  0.1486 -0.3774 -0.3061
  802MOL0     C 5777   6.550   4.113   8.997 -0.0207  0.5717  0.1417
  802MOL0     C 5778   6.457   4.015   9.018 -0.7053  0.3518 -0.4880
  802MOL0     O 5779   6.493   3.639   9.000  0.6832 -0.1344 -0.2595
  802MOL0     C 5780   6.152   3.630   8.931 -0.5810 -0.4199  0.0685
  802MOL0     C 5781   6.053   3.535   8.907  0.7769 -0.6630  0.2053
  802MOL0     N 5782   5.757   3.026   9.227  0.3192  0.1577 -0.2244
  802MOL0     N 5783   5.763   2.910   9.182  0.4439 -0.4829 -0.1561
  802MOL0     C 5784   5.407   2.972   8.177 -0.0009 -0.4805 -0.7011
  802MOL0     C 5785   5.352   2.991   8.044 -0.2040 -0.9606  0.1832
  802MOL0     C 5786   5.247   3.017   7.620 -0.0416 -0.0195  0.5694
  802MOL0     C 5787   5.126   2.989   7.562  0.6380  0.0488  0.2256
  802MOL0     C 5788   5.108   3.001   7.419  0.0835  0.1156  0.3340
  802MOL0     C 5789   5.213   3.042   7.338 -0.5177 -0.2218 -0.4444
  802MOL0     O 5790   5.212   3.050   7.203  0.1769  0.4139 -0.4011
  802MOL0     C 5791   5.086   3.030   7.128 -0.5826 -0.0342 -0.3521
  802MOL0     C 5792   4.986   3.145   7.140 -0.1529  0.0836  0.7119
  802MOL0     C 5793   5.045   3.279   7.110 -0.6387 -0.5158  1.1336
  802MOL0     C 5794   4.963   3.382   7.188 -0.2669  1.0319  0.8494
  802MOL0     C 5795   5.002   3.508   7.131  0.0088 -0.6304 -0.2114
  802MOL0     C 5796   5.060   3.601   7.092  0.6119  0.2682 -0.6278
  802MOL0     C 5797   5.335   3.083   7.400 -0.5927  0.8731 -0.2888
  802MOL0     C 5798   5.353   3.071   7.534  0.0378  0.1365 -0.1027
  802MOL0     H 5799   5.565   3.234   7.954  2.3745 -1.7187 -0.9567
  802MOL0     H 5800   5.646   3.221   8.161 -1.4039  0.6633 -1.7307
  802MOL0     H 5801   5.578   3.220   8.403 -0.9997 -0.6336 -0.7776
  802MOL0     H 5802   5.731   3.138   8.372  1.1457 -0.7784  2.4210
  802MOL0     H 5803   5.530   3.084   8.601 -1.2924  2.2904 -2.5263
  802MOL0     H 5804   5.677   3.168   8.617  2.0003  0.4798 -2.3884
  802MOL0     H 5805   5.732   2.957   8.710  0.5625 -0.8563 -0.1715
  802MOL0     H 5806   5.791   2.941   8.541 -2.0148 -2.7924 -1.8339
  802MOL0     H 5807   5.614   2.818   8.476  1.8318  0.2604 -0.8031
  802MOL0     H 5808   5.689   2.748   8.609 -1.0697  0.3498  1.1583
  802MOL0     H 5809   5.448   2.724   8.625  2.3373 -1.9732  2.4087
  802MOL0     H 5810   5.421   2.890   8.621  1.9103  0.9383 -3.0718
  802MOL0     H 5811   5.403   2.825   8.869 -1.1340  0.6380  0.5179
  802MOL0     H 5812   5.521   2.951   8.814  1.9782 -0.4849 -0.1270
  802MOL0     H 5813   5.602   2.652   8.861 -1.2220 -0.4473 -0.2402
  802MOL0     H 5814   5.702   2.797   8.862  0.8254 -1.3306  0.6017
  802MOL0     H 5815   5.676   2.687   9.093  1.9981  1.1149 -0.7911
  802MOL0     H 5816   5.508   2.726   9.080 -0.0281  2.3958  1.0146
  802MOL0     H 5817   5.489   3.020   9.044 -0.0628  1.6154 -1.7815
  802MOL0     H 5818   5.636   3.274   9.274  1.7708  1.4505 -0.4833
  802MOL0     H 5819   5.539   3.275   9.128  0.7676  2.0603 -0.0495
  802MOL0     H 5820   5.832   3.290   9.132  1.4287 -1.2095 -2.0317
  802MOL0     H 5821   5.712   3.412   9.087  1.7238  0.0570  1.5214
  802MOL0     H 5822   5.788   3.144   8.952  0.5746 -0.3975  1.2415
  802MOL0     H 5823   5.662   3.238   8.886 -0.0404  1.4747 -0.4535
  802MOL0     H 5824   5.841   3.432   8.849 -3.1996  0.3080  1.8034
  802MOL0     H 5825   5.868   3.280   8.759 -2.0478 -3.3067  0.8528
  802MOL0     H 5826   6.210   3.265   9.029  0.9206  0.6651  3.4300
  802MOL0     H 5827   6.402   3.409   9.012 -0.4276 -0.5699  0.2033
  802MOL0     H 5828   6.530   3.797   8.775 -0.1394  1.4388 -2.3511
  802MOL0     H 5829   6.726   3.970   8.735 -0.7162  1.7267 -1.1244
  802MOL0     H 5830   6.771   4.283   9.055 -0.8768 -0.8824  0.2395
  802MOL0     H 5831   6.681   4.371   8.923  2.1144  2.1440 -0.1563
  802MOL0     H 5832   6.977   4.312   8.914  0.6083  0.1487  0.1075
  802MOL0     H 5833   6.911   4.452   8.980  1.1699 -0.4762 -0.3346
  802MOL0     H 5834   6.789   4.464   8.725 -0.2230 -0.3663 -0.3313
  802MOL0     H 5835   6.920   4.346   8.699 -0.7781  0.0500 -0.5217
  802MOL0     H 5836   7.079   4.528   8.782  0.1332  0.7607 -1.7972
  802MOL0     H 5837   6.997   4.541   8.625  5.2874 -0.4797  1.2129
  802MOL0     H 5838   6.855   4.660   8.857 -1.1327 -0.5917 -0.7106
  802MOL0     H 5839   6.871   4.722   8.691  1.0151 -0.4658 -1.3558
  802MOL0     H 5840   7.101   4.754   8.900  2.8941  2.7339 -1.1133
  802MOL0     H 5841   6.968   4.866   8.865 -1.1026 -1.4399  1.0181
  802MOL0     H 5842   7.169   4.750   8.687  0.6699 -0.1719  3.0204
  802MOL0     H 5843   7.056   4.878   8.621  0.8590  1.2942 -0.1305
  802MOL0     H 5844   7.126   5.033   8.767 -0.2000  0.4253 -0.5387
  802MOL0     H 5845   7.256   4.995   8.668  3.9732 -0.9491  2.2983
  802MOL0     H 5846   6.540   4.198   9.064 -1.3322  1.5503 -1.2428
  802MOL0     H 5847   6.386   4.017   9.100  0.1924 -1.2485  0.3771
  802MOL0     H 5848   6.127   3.732   8.901  2.4343 -0.2135 -2.2622
  802MOL0     H 5849   5.960   3.581   8.874  0.8643 -0.7034 -0.0992
  802MOL0     H 5850   5.378   2.896   8.249  1.2006 -0.7615 -0.4896
  802MOL0     H 5851   5.255   2.950   8.017 -0.2855  0.9569 -3.0245
  802MOL0     H 5852   5.043   2.964   7.627 -0.0905 -0.7006 -0.9495
  802MOL0     H 5853   5.013   2.967   7.379  0.7137 -0.5702 -0.6304
  802MOL0     H 5854   5.032   2.943   7.164 -1.1390  0.3486 -0.2506
  802MOL0     H 5855   5.118   3.016   7.025 -0.1311  3.7757 -0.8952
  802MOL0     H 5856   4.888   3.126   7.096  0.0166 -0.3765  0.5293
  802MOL0     H 5857   4.963   3.163   7.246  0.6261  2.7469  0.4806
  802MOL0     H 5858   5.046   3.296   7.002  0.7860  1.2402  1.3816
  802MOL0     H 5859   5.152   3.292   7.132 -0.4678 -0.1539  0.1228
  802MOL0     H 5860   4.859   3.355   7.167  0.0990 -0.1836  0.5723
  802MOL0     H 5861   4.982   3.372   7.295  1.1525 -0.7469  0.4808
  802MOL0     H 5862   5.110   3.688   7.057 -2.5949  1.5834 -2.3236
  802MOL0     H 5863   5.420   3.124   7.347  0.5948 -0.3356  0.6098
  802MOL0     H 5864   5.449   3.101   7.575 -0.5456 -0.0280  1.4689
  803MOL0     O 5865   1.771   4.451   3.464  0.2052 -0.4101 -0.5748
  803MOL0     C 5866   1.719   4.370   3.540 -0.4995 -0.2951 -0.0835
  803MOL0     O 5867   1.610   4.389   3.617  0.2067  0.2848  0.1022
  803MOL0     C 5868   1.519   4.477   3.574  0.4300 -0.3245 -0.0554
  803MOL0     C 5869   1.482   4.573   3.671 -0.5818 -0.1212 -0.1921
  803MOL0     C 5870   1.379   4.660   3.636  0.8410  0.1592  0.3716
  803MOL0     C 5871   1.330   4.673   3.506  0.2984  0.5384  0.8143
  803MOL0     O 5872   1.225   4.758   3.477 -0.3205 -0.0572  0.4213
  803MOL0     C 5873   1.132   4.735   3.375 -0.5324 -0.3237 -0.8772
  803MOL0     C 5874   1.029   4.849   3.369  0.7986  0.0565 -0.3931
  803MOL0     C 5875   0.925   4.827   3.259 -0.6793 -0.0122  0.1061
  803MOL0     C 5876   0.863   4.694   3.286 -0.6638  0.9881 -0.4787
  803MOL0     C 5877   0.718   4.686   3.231 -1.3820  0.7331 -0.1377
  803MOL0     C 5878   0.618   4.773   3.324  0.7804 -0.5387  0.1594
  803MOL0     C 5879   0.469   4.719   3.325 -1.2227  0.1035  0.4723
  803MOL0     C 5880   0.391   4.741   3.193  0.4560 -0.4262  0.0811
  803MOL0     N 5881   0.247   4.739   3.233 -0.2963 -0.2541  0.0512
  803MOL0     C 5882   0.188   4.840   3.300  1.0089 -0.1234  0.1758
  803MOL0     C 5883   0.058   4.805   3.289  0.4669  0.0111 -0.2668
  803MOL0     C 5884  -0.054   4.886   3.336 -0.4809 -0.0880 -0.0962
  803MOL0     C 5885  -0.068   4.894   3.487  0.1723 -0.0915 -0.5618
  803MOL0     C 5886   0.023   5.003   3.559  0.1144 -0.1626  0.0705
  803MOL0     C 5887  -0.030   5.143   3.537  0.6112 -0.6898 -0.2509
  803MOL0     O 5888   0.030   5.226   3.634 -0.7517  0.5452  0.2610
  803MOL0     C 5889  -0.035   5.253   3.755 -0.0862 -0.5148  0.4033
  803MOL0     C 5890   0.031   5.302   3.866  0.0449 -0.2433  0.0749
  803MOL0     C 5891  -0.028   5.328   3.986 -0.1456 -0.3635  0.1472
  803MOL0     C 5892  -0.171   5.311   4.011 -0.2500  0.5311  0.3860
  803MOL0     C 5893  -0.229   5.326   4.148 -0.5760 -0.4483  0.3044
  803MOL0     O 5894  -0.359   5.344   4.150 -0.0500 -0.6194 -0.0678
  803MOL0     C 5895  -0.432   5.400   4.262  0.3355  1.1624  0.1107
  803MOL0     C 5896  -0.396   5.388   4.400  0.3718 -0.3840  0.7159
  803MOL0     C 5897  -0.478   5.460   4.495 -0.2744  0.6284  0.9412
  803MOL0     C 5898  -0.595   5.534   4.453  0.7592  0.3352 -0.4157
  803MOL0     O 5899  -0.678   5.598   4.539  0.2030  0.1418  0.3618
  803MOL0     C 5900  -0.703   5.534   4.667  0.0143 -0.9446 -0.6615
  803MOL0     C 5901  -0.755   5.395   4.664  0.7298  0.8969  0.7487
  803MOL0     C 5902  -0.875   5.378   4.563 -1.3793  0.9247 -0.8757
  803MOL0     C 5903  -1.005   5.442   4.616  0.4881  0.2710  0.1957
  803MOL0     C 5904  -1.115   5.420   4.519 -0.5960  1.1064  0.0025
  803MOL0     C 5905  -1.259   5.472   4.560 -0.3003  0.3220  0.6185
  803MOL0     C 5906  -1.353   5.467   4.432 -0.0558  0.0353  0.3017
  803MOL0     C 5907  -1.320   5.573   4.323 -0.2113 -0.2585  0.1636
  803MOL0    Cl 5908  -1.382   5.745   4.372 -0.2170 -0.3536 -0.2625
  803MOL0     C 5909  -0.619   5.539   4.314 -0.6464  0.4059 -0.4094
  803MOL0     C 5910  -0.544   5.470   4.227  0.3249 -0.3382  0.8805
  803MOL0     O 5911  -0.152   5.335   4.240  0.2968 -0.6101 -0.1184
  803MOL0     C 5912  -0.240   5.278   3.893  0.9789  0.1539  0.4428
  803MOL0     C 5913  -0.175   5.261   3.770  0.0814 -0.4916 -0.8776
  803MOL0     N 5914   0.040   4.686   3.233  0.0753  0.3281 -0.6960
  803MOL0     N 5915   0.156   4.648   3.198 -0.0595 -1.0556 -1.0514
  803MOL0     C 5916   1.384   4.578   3.412 -0.4054 -0.0383  0.4606
  803MOL0     C 5917   1.479   4.487   3.443  0.0274 -0.9168  0.6054
  803MOL0     C 5918   1.789   4.237   3.555  0.4381 -0.2201 -0.2439
  803MOL0     C 5919   1.908   4.203   3.479  0.2983 -0.3546  0.6076
  803MOL0     C 5920   1.974   4.078   3.498 -0.8587 -0.7919  0.2542
  803MOL0     C 5921   1.919   3.988   3.597  0.8868  0.0737  0.7031
  803MOL0     O 5922   1.989   3.874   3.639  0.3427  0.2680  0.7509
  803MOL0     C 5923   2.080   3.815   3.539  0.4226 -0.2745 -0.8000
  803MOL0     C 5924   2.110   3.674   3.573  0.2560 -0.6231 -0.3334
  803MOL0     C 5925   2.242   3.610   3.529  0.3974 -0.3417 -0.5124
  803MOL0     C 5926   2.231   3.578   3.374  0.5711 -0.6146 -0.8386
  803MOL0     C 5927   2.357   3.531   3.309  0.9066 -1.0257  0.4130
  803MOL0     C 5928   2.462   3.483   3.260 -0.7729 -0.3413  0.1508
  803MOL0     C 5929   1.799   4.024   3.656  0.8564  0.7520  0.4311
  803MOL0     C 5930   1.728   4.135   3.630 -0.4202  1.2847  0.6200
  803MOL0     H 5931   1.517   4.586   3.773  1.7817 -1.3224 -0.7908
  803MOL0     H 5932   1.342   4.730   3.711  0.2302 -1.4802  1.6466
  803MOL0     H 5933   1.097   4.637   3.408  2.6828 -0.6805  2.0301
  803MOL0     H 5934   1.172   4.739   3.273 -2.0594  1.1798 -1.4637
  803MOL0     H 5935   1.090   4.939   3.357 -1.6583  1.9609  0.5298
  803MOL0     H 5936   0.967   4.857   3.459 -0.5604  2.5059 -1.4343
  803MOL0     H 5937   0.968   4.827   3.159  0.8007  2.7722  0.6308
  803MOL0     H 5938   0.856   4.912   3.268 -1.2140 -0.1556 -2.0776
  803MOL0     H 5939   0.923   4.611   3.248 -2.0406 -0.6424  0.7662
  803MOL0     H 5940   0.853   4.667   3.392  2.5644  0.7962 -0.1166
  803MOL0     H 5941   0.688   4.581   3.237 -1.1900  0.7279  1.3204
  803MOL0     H 5942   0.699   4.713   3.127  0.8226  1.2933 -0.4610
  803MOL0     H 5943   0.616   4.879   3.297  2.9904 -0.5067 -0.0704
  803MOL0     H 5944   0.658   4.784   3.425  0.3239  2.0211  0.1227
  803MOL0     H 5945   0.467   4.614   3.355 -1.7063  0.7158  2.8484
  803MOL0     H 5946   0.428   4.765   3.415  1.3524  1.5810  0.9982
  803MOL0     H 5947   0.404   4.659   3.123 -0.6662 -1.9491  1.5799
  803MOL0     H 5948   0.422   4.832   3.141  2.6033 -1.6349 -0.9001
  803MOL0     H 5949   0.221   4.931   3.349 -0.1495  0.5319 -0.2091
  803MOL0     H 5950  -0.141   4.833   3.296 -0.2514  1.3042 -2.6217
  803MOL0     H 5951  -0.043   4.984   3.287  4.0555 -0.4351 -0.1791
  803MOL0     H 5952  -0.049   4.790   3.515 -1.3783 -0.9039 -2.2943
  803MOL0     H 5953  -0.167   4.921   3.524 -0.0038 -2.4498  0.9004
  803MOL0     H 5954   0.001   4.982   3.664  1.5273 -1.4631  0.1371
  803MOL0     H 5955   0.130   4.995   3.536  0.3712 -1.5600  1.5934
  803MOL0     H 5956  -0.139   5.130   3.546  0.9890 -4.8628  0.4735
  803MOL0     H 5957   0.000   5.187   3.442 -0.5307  1.6176  0.3881
  803MOL0     H 5958   0.137   5.324   3.854  0.4569 -2.9967 -2.7161
  803MOL0     H 5959   0.032   5.386   4.056 -1.9650  3.3719 -1.1408
  803MOL0     H 5960  -0.319   5.320   4.435 -4.0859 -4.6698  3.5226
  803MOL0     H 5961  -0.457   5.442   4.600  1.0032  0.7732  0.7260
  803MOL0     H 5962  -0.774   5.596   4.723 -0.1118 -2.9389  1.5618
  803MOL0     H 5963  -0.609   5.519   4.722 -1.1735 -1.9339  1.2081
  803MOL0     H 5964  -0.787   5.366   4.764 -0.5376  1.6348  0.5784
  803MOL0     H 5965  -0.675   5.330   4.627 -0.9638 -1.6121  1.2505
  803MOL0     H 5966  -0.895   5.271   4.554  0.4953  0.4967 -0.4247
  803MOL0     H 5967  -0.847   5.410   4.463 -0.7050  3.8644  0.1505
  803MOL0     H 5968  -1.034   5.404   4.715  0.0573  2.6746  1.0706
  803MOL0     H 5969  -0.992   5.550   4.626  0.8721  0.4467 -1.8655
  803MOL0     H 5970  -1.125   5.312   4.500  0.7402  1.5544 -4.6149
  803MOL0     H 5971  -1.080   5.457   4.422  3.5459 -0.5943  0.6588
  803MOL0     H 5972  -1.253   5.574   4.598  1.8511  0.7665 -0.7808
  803MOL0     H 5973  -1.297   5.405   4.638 -2.6655  1.0666  0.1931
  803MOL0     H 5974  -1.326   5.371   4.387  0.5318  1.8162 -3.6096
  803MOL0     H 5975  -1.454   5.482   4.470  1.0359  3.4203  2.3450
  803MOL0     H 5976  -1.364   5.528   4.234 -2.9112 -0.7031  1.6101
  803MOL0     H 5977  -1.211   5.566   4.318  0.0728  1.1143  2.5975
  803MOL0     H 5978  -0.710   5.588   4.278 -1.0682  0.8684  1.2342
  803MOL0     H 5979  -0.576   5.458   4.124 -1.1404 -0.3123  1.3163
  803MOL0     H 5980  -0.348   5.268   3.892  1.0440 -0.9548  1.8064
  803MOL0     H 5981  -0.235   5.273   3.680 -1.0626  2.3674  0.1528
  803MOL0     H 5982   1.348   4.578   3.310 -0.2361 -3.0876  0.3102
  803MOL0     H 5983   1.522   4.443   3.354  2.6505  1.6285  0.4858
  803MOL0     H 5984   1.954   4.271   3.408  1.0744 -0.2631  1.1916
  803MOL0     H 5985   2.062   4.058   3.438 -3.6947 -2.3853 -3.8747
  803MOL0     H 5986   2.168   3.879   3.555 -0.8927  0.8223  2.8490
  803MOL0     H 5987   2.042   3.824   3.437 -3.1856 -1.8243  0.2777
  803MOL0     H 5988   2.102   3.660   3.681  1.5770  1.0870  0.0278
  803MOL0     H 5989   2.026   3.623   3.525  0.2278 -0.6810 -0.2221
  803MOL0     H 5990   2.260   3.512   3.574 -0.2030 -0.4491 -0.4908
  803MOL0     H 5991   2.334   3.663   3.551  1.9121 -3.0606  0.2422
  803MOL0     H 5992   2.158   3.499   3.353 -0.7317  0.5191 -0.7459
  803MOL0     H 5993   2.205   3.672   3.323 -2.2106 -0.5854  0.4404
  803MOL0     H 5994   2.553   3.458   3.210 -0.8590  0.2334 -0.3045
  803MOL0     H 5995   1.763   3.963   3.738 -2.5551  2.6281  0.5065
  803MOL0     H 5996   1.644   4.143   3.697 -0.8352 -3.7158  1.1008
  804MOL0     O 5997  11.147   6.585   2.895  0.6903 -0.7970 -0.5267
  804MOL0     C 5998  11.116   6.489   2.829  0.9604 -0.1632 -0.3166
  804MOL0     O 5999  11.178   6.461   2.708  0.6458  0.6007 -0.0004
  804MOL0     C 6000  11.259   6.558   2.661 -0.2273 -0.2700  0.3969
  804MOL0     C 6001  11.401   6.533   2.658 -0.0872  0.0887  0.0653
  804MOL0     C 6002  11.488   6.628   2.615  0.7191 -0.3798 -0.0791
  804MOL0     C 6003  11.438   6.756   2.563  0.5388 -0.6290 -0.0217
  804MOL0     O 6004  11.509   6.850   2.503 -0.2017 -0.1292 -0.7823
  804MOL0     C 6005  11.615   6.908   2.583  0.4657 -0.4553 -0.2898
  804MOL0     C 6006  11.745   6.924   2.506 -0.7685 -0.3623 -0.8561
  804MOL0     C 6007  11.781   6.775   2.452 -0.9306  0.0940  0.3249
  804MOL0     C 6008  11.910   6.774   2.369 -0.2022  0.1978 -0.8295
  804MOL0     C 6009  12.034   6.785   2.456  0.6524 -0.6999 -1.6107
  804MOL0     C 6010  12.150   6.778   2.362  1.1248 -0.4744 -0.4641
  804MOL0     C 6011  12.220   6.651   2.327 -0.4438  0.7221 -0.3555
  804MOL0     C 6012  12.264   6.558   2.442 -0.0102  0.7265  1.0952
  804MOL0     N 6013  12.347   6.628   2.544 -0.3263  0.8271 -0.1881
  804MOL0     C 6014  12.305   6.673   2.661  0.3002  0.2942 -0.3557
  804MOL0     C 6015  12.417   6.706   2.729 -0.8500 -0.0262  0.0143
  804MOL0     C 6016  12.420   6.777   2.864 -0.4028  0.3846  0.3390
  804MOL0     C 6017  12.483   6.921   2.828 -0.1968  0.7947 -0.5324
  804MOL0     C 6018  12.394   7.042   2.775 -0.3128  0.7322  0.4683
  804MOL0     C 6019  12.481   7.173   2.759 -0.2344 -0.1007 -0.0651
  804MOL0     O 6020  12.562   7.211   2.869  0.6788  0.5680 -0.8858
  804MOL0     C 6021  12.640   7.322   2.861 -0.1444 -0.0265 -0.2818
  804MOL0     C 6022  12.670   7.387   2.982  0.8415 -0.4032 -0.0163
  804MOL0     C 6023  12.748   7.504   2.993  0.8444  0.5160  0.3985
  804MOL0     C 6024  12.796   7.558   2.879 -0.7738  0.6211  0.8454
  804MOL0     C 6025  12.875   7.690   2.892  0.0317 -0.8237  0.0359
  804MOL0     O 6026  12.847   7.762   3.003  0.1312  1.4033  0.1262
  804MOL0     C 6027  12.897   7.889   3.023 -0.2493 -0.5215 -0.4988
  804MOL0     C 6028  13.027   7.928   3.030  0.0383  0.2259  0.1554
  804MOL0     C 6029  13.070   8.058   3.039  0.2122 -0.1564  0.2153
  804MOL0     C 6030  12.970   8.156   3.031 -0.1413  0.0932 -0.6328
  804MOL0     O 6031  12.991   8.287   3.025  0.4959 -0.6615 -0.3357
  804MOL0     C 6032  13.128   8.340   3.044  0.7689 -0.2966  0.6259
  804MOL0     C 6033  13.133   8.489   3.030 -0.9894 -0.4195  0.2003
  804MOL0     C 6034  13.094   8.538   2.890  0.6681  1.1241  0.0560
  804MOL0     C 6035  13.103   8.692   2.870  0.7150 -0.5965  0.4292
  804MOL0     C 6036  13.088   8.732   2.718 -0.0745  0.6490 -0.1593
  804MOL0     C 6037  13.055   8.872   2.698  0.1551 -0.9546 -0.0477
  804MOL0     C 6038  13.018   8.899   2.554 -0.5447 -0.6501 -0.3331
  804MOL0     C 6039  12.957   9.047   2.531  1.4587 -0.5886  0.9300
  804MOL0    Cl 6040  13.076   9.172   2.581 -0.1982  0.1033 -0.3739
  804MOL0     C 6041  12.833   8.127   3.009 -0.5215  0.2264  0.5150
  804MOL0     C 6042  12.801   7.989   3.002 -0.1605  0.2903  0.3185
  804MOL0     O 6043  12.929   7.731   2.787  0.2866 -0.2952  0.5873
  804MOL0     C 6044  12.776   7.489   2.759 -0.6393  0.1707 -0.3742
  804MOL0     C 6045  12.704   7.366   2.750 -0.3977 -0.0782  0.1159
  804MOL0     N 6046  12.522   6.674   2.650 -0.5914  0.5490 -0.6552
  804MOL0     N 6047  12.478   6.632   2.537  0.4495 -0.3685 -0.0878
  804MOL0     C 6048  11.299   6.767   2.544 -0.5604 -0.3987 -0.3530
  804MOL0     C 6049  11.212   6.667   2.589 -0.2835 -0.0297 -0.7489
  804MOL0     C 6050  11.012   6.410   2.873  0.3138 -0.7181  1.0812
  804MOL0     C 6051  10.910   6.462   2.957  0.3293  0.2561 -0.5347
  804MOL0     C 6052  10.802   6.376   2.988 -0.0743 -0.9333 -0.1682
  804MOL0     C 6053  10.789   6.245   2.961  0.8093 -0.3216  0.1205
  804MOL0     O 6054  10.670   6.173   2.978  1.2594 -0.5356 -1.2098
  804MOL0     C 6055  10.561   6.195   2.884  0.3212 -0.8978 -0.2890
  804MOL0     C 6056  10.433   6.168   2.949  0.6331 -0.8846 -0.5000
  804MOL0     C 6057  10.419   6.028   3.007 -0.2398  0.5999 -0.2773
  804MOL0     C 6058  10.270   5.974   2.998 -0.5585  0.2579 -0.2176
  804MOL0     C 6059  10.193   6.066   3.071 -0.1227  1.1869  0.4513
  804MOL0     C 6060  10.111   6.133   3.130 -0.6967 -0.5335 -0.5130
  804MOL0     C 6061  10.889   6.192   2.874  0.6194 -0.2790 -0.8634
  804MOL0     C 6062  10.993   6.277   2.827  0.1777  0.4190  0.2039
  804MOL0     H 6063  11.449   6.439   2.684  2.5685  0.9596 -1.3729
  804MOL0     H 6064  11.595   6.610   2.620  0.9540  1.2225  2.4418
  804MOL0     H 6065  11.628   6.856   2.678 -1.9924 -3.0838 -1.2468
  804MOL0     H 6066  11.590   7.007   2.622  1.2155 -0.0074 -0.9175
  804MOL0     H 6067  11.826   6.951   2.574 -0.2719 -0.1655 -1.5106
  804MOL0     H 6068  11.727   6.994   2.424  0.0041 -0.8750 -1.4801
  804MOL0     H 6069  11.697   6.732   2.396 -0.9867 -0.3392  0.7357
  804MOL0     H 6070  11.806   6.718   2.542  4.1147  4.2506  2.0694
  804MOL0     H 6071  11.918   6.674   2.324  2.8851 -0.3560  0.6530
  804MOL0     H 6072  11.905   6.845   2.286 -0.5518 -0.0427 -1.0198
  804MOL0     H 6073  12.034   6.711   2.536 -0.8961  0.7576 -0.1794
  804MOL0     H 6074  12.038   6.882   2.506  2.3591 -2.1031  1.2033
  804MOL0     H 6075  12.228   6.842   2.403  0.7122  0.7482 -1.5307
  804MOL0     H 6076  12.116   6.828   2.271 -3.7415  1.6700  2.1696
  804MOL0     H 6077  12.154   6.587   2.269  1.6720  0.1124 -2.2309
  804MOL0     H 6078  12.310   6.679   2.270 -0.5837  1.2979 -0.3072
  804MOL0     H 6079  12.326   6.476   2.405  0.5034  1.3537  0.5189
  804MOL0     H 6080  12.174   6.516   2.486 -0.0668  0.5230  0.7781
  804MOL0     H 6081  12.204   6.669   2.699  0.7305 -2.5358  0.7616
  804MOL0     H 6082  12.485   6.720   2.932 -1.3291 -1.1282  0.0235
  804MOL0     H 6083  12.321   6.784   2.910  0.6443  1.5338  2.5971
  804MOL0     H 6084  12.562   6.902   2.755 -1.0880 -3.5323 -0.6373
  804MOL0     H 6085  12.517   6.957   2.926  0.8033  1.1107 -0.9804
  804MOL0     H 6086  12.333   7.028   2.686 -0.3549 -0.9822  0.7451
  804MOL0     H 6087  12.318   7.062   2.851 -0.9312  1.7523 -0.4065
  804MOL0     H 6088  12.419   7.259   2.733  2.3569  1.9233  0.0904
  804MOL0     H 6089  12.545   7.161   2.671  0.4858  4.8363 -0.4600
  804MOL0     H 6090  12.638   7.347   3.078  1.4426 -0.9629 -0.0435
  804MOL0     H 6091  12.758   7.550   3.091 -0.3621  2.2998 -0.2669
  804MOL0     H 6092  13.109   7.856   3.025 -0.1422 -0.1406  1.7359
  804MOL0     H 6093  13.172   8.091   3.055  0.1427  0.9064 -1.2688
  804MOL0     H 6094  13.195   8.307   2.964 -1.3274  1.0533 -1.8592
  804MOL0     H 6095  13.161   8.311   3.144 -0.2570 -2.5964  0.3671
  804MOL0     H 6096  13.235   8.528   3.040 -1.0965  0.3219 -1.3521
  804MOL0     H 6097  13.068   8.540   3.101 -0.0589  2.6053 -0.9704
  804MOL0     H 6098  12.994   8.510   2.856  0.2982  3.2640 -0.7800
  804MOL0     H 6099  13.156   8.503   2.807  0.2434  1.5529 -0.4514
  804MOL0     H 6100  13.025   8.735   2.933 -0.0989  0.0264 -0.9611
  804MOL0     H 6101  13.203   8.709   2.910  1.5532 -2.3013 -0.8180
  804MOL0     H 6102  13.021   8.664   2.666  1.2471 -0.1285 -0.8810
  804MOL0     H 6103  13.187   8.706   2.680 -0.2962  2.6162 -2.2785
  804MOL0     H 6104  13.136   8.934   2.737 -1.6829  0.1512  2.2525
  804MOL0     H 6105  12.962   8.897   2.749  1.6624 -1.4173  3.1525
  804MOL0     H 6106  13.112   8.897   2.497 -0.4856 -3.3500 -0.2725
  804MOL0     H 6107  12.937   8.831   2.525  0.2596 -2.4586  1.4203
  804MOL0     H 6108  12.861   9.044   2.583  0.9603 -1.2742 -0.0073
  804MOL0     H 6109  12.939   9.061   2.424  3.4076  0.0914  0.6454
  804MOL0     H 6110  12.765   8.212   3.008  0.5145  1.1144  1.7713
  804MOL0     H 6111  12.704   7.962   2.961  0.1718  0.0267 -0.3144
  804MOL0     H 6112  12.831   7.540   2.681  1.1649  0.7669  1.2025
  804MOL0     H 6113  12.700   7.289   2.674 -2.8092  0.0277  0.0499
  804MOL0     H 6114  11.243   6.850   2.501 -5.7062 -2.3747  1.7900
  804MOL0     H 6115  11.106   6.676   2.570 -0.6787  2.6261  1.9619
  804MOL0     H 6116  10.910   6.565   2.991 -3.6600  0.7786 -1.6699
  804MOL0     H 6117  10.717   6.429   3.028  0.3691  0.2709 -0.7655
  804MOL0     H 6118  10.571   6.116   2.809  0.1511 -2.0441  0.8601
  804MOL0     H 6119  10.560   6.296   2.842  2.7677 -1.7915 -2.7916
  804MOL0     H 6120  10.417   6.236   3.033  0.0462 -3.4709  1.6471
  804MOL0     H 6121  10.349   6.191   2.883 -0.7837  0.9506  1.7889
  804MOL0     H 6122  10.456   6.017   3.110 -0.2450  2.0020 -0.1046
  804MOL0     H 6123  10.466   5.962   2.934 -5.4021 -1.4653 -2.2352
  804MOL0     H 6124  10.233   5.970   2.895 -0.5193  1.5371 -0.2921
  804MOL0     H 6125  10.276   5.877   3.049  0.7678  2.7038  4.9420
  804MOL0     H 6126  10.061   6.211   3.184 -0.0540 -1.3757  1.3976
  804MOL0     H 6127  10.889   6.087   2.849 -2.3715 -1.1521  2.0860
  804MOL0     H 6128  11.074   6.228   2.774  1.9787  2.6670  0.7096
  805MOL0     O 6129   5.933   2.903   6.123 -0.3799  0.4700 -0.7733
  805MOL0     C 6130   5.839   2.960   6.074 -0.2321  0.1371 -1.2989
  805MOL0     O 6131   5.713   2.958   6.132 -0.3248  1.0797  0.3145
  805MOL0     C 6132   5.693   2.880   6.246  0.6967 -0.0282 -0.4669
  805MOL0     C 6133   5.737   2.752   6.272  0.0133 -0.2969  0.4735
  805MOL0     C 6134   5.704   2.690   6.393  0.3932  0.4809 -0.3318
  805MOL0     C 6135   5.631   2.757   6.491 -0.1694 -0.7301  0.1528
  805MOL0     O 6136   5.594   2.705   6.616 -0.4315  0.9236 -0.1758
  805MOL0     C 6137   5.683   2.636   6.698 -0.8201  0.3678 -0.1120
  805MOL0     C 6138   5.614   2.596   6.833 -0.4671  0.1013  0.5172
  805MOL0     C 6139   5.562   2.720   6.904 -0.5221 -0.7728  0.4534
  805MOL0     C 6140   5.670   2.824   6.947 -0.1304  0.4926 -0.1541
  805MOL0     C 6141   5.619   2.943   7.032 -0.6628  0.0768 -0.8407
  805MOL0     C 6142   5.510   3.016   6.951 -0.1167 -0.1752  0.4101
  805MOL0     C 6143   5.487   3.159   7.011  0.7701  0.3820  0.5718
  805MOL0     C 6144   5.384   3.231   6.916  0.7147 -0.5420  0.1670
  805MOL0     N 6145   5.414   3.372   6.921 -0.4598 -1.4143 -0.2829
  805MOL0     C 6146   5.499   3.446   6.836 -0.4090  0.0822  0.3265
  805MOL0     C 6147   5.479   3.577   6.867 -0.6995  0.8304  0.7553
  805MOL0     C 6148   5.541   3.685   6.786  0.2578  0.1455 -0.8912
  805MOL0     C 6149   5.523   3.818   6.854 -0.7914 -0.2891 -0.5116
  805MOL0     C 6150   5.633   3.922   6.801  1.1773 -1.4692 -0.8772
  805MOL0     C 6151   5.640   4.045   6.886 -0.7400  1.3139  0.3705
  805MOL0     O 6152   5.499   4.092   6.913 -0.2306 -0.0368  0.0007
  805MOL0     C 6153   5.470   4.226   6.871  0.2014  0.6641 -0.3088
  805MOL0     C 6154   5.469   4.250   6.736  0.2761  0.1380 -0.5943
  805MOL0     C 6155   5.447   4.382   6.688  0.4116  0.2412 -0.5313
  805MOL0     C 6156   5.435   4.491   6.790  0.4680  0.6120 -0.7096
  805MOL0     C 6157   5.409   4.629   6.743  0.3026  0.6397  0.8435
  805MOL0     O 6158   5.341   4.646   6.630  0.4453  0.3754  0.1158
  805MOL0     C 6159   5.291   4.764   6.573  0.3041 -0.2307 -0.2258
  805MOL0     C 6160   5.157   4.764   6.527 -0.2425 -0.6279 -0.3042
  805MOL0     C 6161   5.102   4.874   6.473 -0.4050 -0.1139  0.7186
  805MOL0     C 6162   5.179   4.984   6.446  0.3972  0.4922  0.4397
  805MOL0     O 6163   5.103   5.090   6.403  0.1946 -0.2677  0.5287
  805MOL0     C 6164   5.095   5.193   6.501  0.0281 -0.3244  0.5012
  805MOL0     C 6165   4.972   5.271   6.467 -0.3149 -0.5087  0.2219
  805MOL0     C 6166   4.850   5.189   6.500  0.1393 -0.6794 -0.0421
  805MOL0     C 6167   4.732   5.269   6.552  0.2883  0.2679 -0.1006
  805MOL0     C 6168   4.610   5.185   6.590  0.3489  0.2108 -0.4812
  805MOL0     C 6169   4.644   5.098   6.710  0.8047 -0.7169  0.5557
  805MOL0     C 6170   4.548   4.978   6.726  0.9975  0.8054 -0.1709
  805MOL0     C 6171   4.584   4.891   6.839 -0.0303 -0.0495 -1.1211
  805MOL0    Cl 6172   4.569   4.954   7.000  0.1121 -0.0457 -0.4271
  805MOL0     C 6173   5.312   4.995   6.488  0.8452  0.5929  0.2547
  805MOL0     C 6174   5.363   4.883   6.552 -0.9642 -0.7887 -0.0582
  805MOL0     O 6175   5.458   4.718   6.816 -0.3776  0.1653 -0.2383
  805MOL0     C 6176   5.448   4.459   6.927  1.4355 -0.1079  0.0599
  805MOL0     C 6177   5.459   4.328   6.967 -0.0441  0.1726  0.0981
  805MOL0     N 6178   5.372   3.584   6.956 -0.8811 -0.3672 -0.5319
  805MOL0     N 6179   5.339   3.458   6.993 -0.3270 -0.1998  0.3218
  805MOL0     C 6180   5.594   2.890   6.471 -0.0209  0.2879  0.6132
  805MOL0     C 6181   5.627   2.948   6.346  0.1154  0.4203 -0.6256
  805MOL0     C 6182   5.864   3.039   5.959  0.2255  0.9322  0.3777
  805MOL0     C 6183   5.764   3.054   5.858 -0.1331  0.6801  0.0618
  805MOL0     C 6184   5.779   3.139   5.746  0.9179 -0.5131  0.2665
  805MOL0     C 6185   5.899   3.201   5.727 -1.0121 -0.3070 -0.5788
  805MOL0     O 6186   5.915   3.290   5.625 -0.2880 -0.3014 -0.2567
  805MOL0     C 6187   5.964   3.422   5.672 -0.3840  0.5242 -0.5294
  805MOL0     C 6188   5.865   3.503   5.759 -0.0959  1.3561  0.0375
  805MOL0     C 6189   5.728   3.514   5.672  0.3507  0.3258  0.1141
  805MOL0     C 6190   5.620   3.581   5.763  0.3669  0.0538 -0.4445
  805MOL0     C 6191   5.566   3.500   5.871 -0.2154  0.2610 -1.0309
  805MOL0     C 6192   5.554   3.433   5.978 -0.4123  0.6669  0.1343
  805MOL0     C 6193   6.001   3.183   5.829 -1.3119 -0.0165  0.6237
  805MOL0     C 6194   5.983   3.097   5.935 -0.4091  0.5400  0.4117
  805MOL0     H 6195   5.786   2.699   6.191 -0.5600  2.3840 -1.8204
  805MOL0     H 6196   5.733   2.586   6.406  3.5862  1.1606 -1.2408
  805MOL0     H 6197   5.771   2.697   6.717  0.1143 -1.4237  1.7537
  805MOL0     H 6198   5.712   2.541   6.651 -1.6055  0.7746 -1.4687
  805MOL0     H 6199   5.679   2.542   6.903  0.0985 -0.7548 -0.6171
  805MOL0     H 6200   5.531   2.530   6.804  0.7589 -0.2967 -2.5169
  805MOL0     H 6201   5.502   2.688   6.989  0.9541 -0.5269  1.6228
  805MOL0     H 6202   5.489   2.768   6.838  0.1139  0.0616  0.3386
  805MOL0     H 6203   5.742   2.765   7.004  0.6835  0.0974 -1.5275
  805MOL0     H 6204   5.705   2.858   6.849 -3.4160  0.2036 -1.5530
  805MOL0     H 6205   5.690   3.020   7.066 -3.3510  0.8262  3.9694
  805MOL0     H 6206   5.570   2.917   7.126  0.8368  0.3493  0.0606
  805MOL0     H 6207   5.421   2.954   6.942  0.3515 -0.6839 -1.2362
  805MOL0     H 6208   5.548   3.024   6.848 -1.6778 -0.1332 -0.1827
  805MOL0     H 6209   5.444   3.159   7.111 -0.8203  0.5260 -0.0852
  805MOL0     H 6210   5.584   3.209   7.016  0.3878  1.1772  0.2457
  805MOL0     H 6211   5.281   3.205   6.942 -1.4216  2.0365 -4.2780
  805MOL0     H 6212   5.398   3.200   6.812 -1.1665 -1.7089  0.2141
  805MOL0     H 6213   5.564   3.408   6.758  0.0950  3.3028 -1.0061
  805MOL0     H 6214   5.497   3.685   6.686 -0.4088  0.0721 -0.6031
  805MOL0     H 6215   5.648   3.660   6.785 -0.2555 -2.3506 -2.0202
  805MOL0     H 6216   5.535   3.808   6.963  1.9928  1.1303 -0.5955
  805MOL0     H 6217   5.425   3.866   6.846 -1.2778 -1.1465  0.2016
  805MOL0     H 6218   5.731   3.874   6.798  1.8597 -0.0766 -2.2660
  805MOL0     H 6219   5.610   3.935   6.695 -1.3053 -0.6705 -0.2917
  805MOL0     H 6220   5.691   4.129   6.839 -1.0469  0.3947 -1.6935
  805MOL0     H 6221   5.699   4.027   6.976  2.8082  1.9048 -1.6750
  805MOL0     H 6222   5.473   4.176   6.657 -1.3834 -0.7825  0.1217
  805MOL0     H 6223   5.440   4.401   6.581 -1.6660 -1.0473 -0.6938
  805MOL0     H 6224   5.099   4.677   6.555 -0.9912  0.4341  1.6556
  805MOL0     H 6225   4.994   4.877   6.460 -0.1564  0.4843 -1.5181
  805MOL0     H 6226   5.178   5.264   6.501 -0.8478  0.7513 -0.6613
  805MOL0     H 6227   5.076   5.161   6.604  1.9834 -0.9988  0.6955
  805MOL0     H 6228   4.973   5.291   6.359  1.2280 -1.2284  0.0741
  805MOL0     H 6229   4.983   5.360   6.529  1.7449 -0.4146 -0.2061
  805MOL0     H 6230   4.889   5.137   6.588 -1.2299  1.1285  1.7304
  805MOL0     H 6231   4.829   5.106   6.431 -2.0911 -0.3237  0.1388
  805MOL0     H 6232   4.764   5.343   6.626  1.4119 -0.0790 -0.2224
  805MOL0     H 6233   4.704   5.326   6.463 -3.2530 -0.1946  0.5776
  805MOL0     H 6234   4.580   5.115   6.512  0.7202 -0.7920  0.2613
  805MOL0     H 6235   4.519   5.241   6.612 -0.6897 -0.2882 -3.0891
  805MOL0     H 6236   4.638   5.165   6.797 -3.3768  1.5868 -1.2051
  805MOL0     H 6237   4.743   5.052   6.709  1.7630  1.2502  0.0438
  805MOL0     H 6238   4.442   5.004   6.731  0.8224  0.7038 -2.5115
  805MOL0     H 6239   4.567   4.918   6.637 -3.0211 -1.0517  0.0124
  805MOL0     H 6240   4.689   4.865   6.824  0.0636 -0.9987  0.9399
  805MOL0     H 6241   4.524   4.801   6.825  0.0819 -0.3714  0.2935
  805MOL0     H 6242   5.350   5.090   6.452 -1.6758  2.5353  2.3608
  805MOL0     H 6243   5.466   4.891   6.584 -0.9576  1.7187 -0.5538
  805MOL0     H 6244   5.459   4.531   7.007  0.0365  0.3326 -0.1087
  805MOL0     H 6245   5.467   4.305   7.073 -1.2200  0.3106  0.2266
  805MOL0     H 6246   5.553   2.946   6.555  0.7742  1.9709 -0.0742
  805MOL0     H 6247   5.606   3.053   6.326  0.3964  0.7906  0.9404
  805MOL0     H 6248   5.667   3.008   5.873  0.1331 -1.0585 -2.6989
  805MOL0     H 6249   5.697   3.143   5.674  0.2396 -0.5877  1.0264
  805MOL0     H 6250   5.988   3.483   5.584 -0.4094  2.8623  0.9760
  805MOL0     H 6251   6.058   3.415   5.727 -1.1570  1.1696  0.9183
  805MOL0     H 6252   5.849   3.453   5.854  2.1152 -0.3076 -0.3699
  805MOL0     H 6253   5.911   3.600   5.782 -0.8313  1.2052  2.3560
  805MOL0     H 6254   5.686   3.420   5.635 -0.7292 -0.2179  2.5424
  805MOL0     H 6255   5.755   3.584   5.593  1.1295 -0.0738  0.0181
  805MOL0     H 6256   5.666   3.668   5.810 -0.1015 -0.7932  1.6678
  805MOL0     H 6257   5.532   3.611   5.705 -2.3500  0.5386  3.5603
  805MOL0     H 6258   5.554   3.390   6.076 -1.8288  1.8721  0.6965
  805MOL0     H 6259   6.096   3.230   5.806  0.3669 -2.0907  2.8507
  805MOL0     H 6260   6.069   3.090   6.001  0.6409  3.8484 -0.4482
  806MOL0     O 6261   4.588   8.008   5.360  0.5400  0.2159  0.2795
  806MOL0     C 6262   4.660   7.905   5.372 -0.1938 -0.1562  0.0757
  806MOL0     O 6263   4.670   7.834   5.495 -0.3950 -0.9528 -0.1770
  806MOL0     C 6264   4.584   7.846   5.600 -0.2133 -1.1588  0.5339
  806MOL0     C 6265   4.471   7.770   5.609 -0.4859 -0.2172 -0.1304
  806MOL0     C 6266   4.381   7.775   5.713 -0.5854 -0.9018  0.3280
  806MOL0     C 6267   4.417   7.850   5.830  0.1177 -0.3755  0.1021
  806MOL0     O 6268   4.338   7.869   5.943  0.4263 -0.3629  0.0246
  806MOL0     C 6269   4.198   7.895   5.911  0.2994  0.2944  0.0609
  806MOL0     C 6270   4.108   7.843   6.019 -0.2569  0.2716 -0.1100
  806MOL0     C 6271   4.094   7.692   6.001  0.2024 -0.4888  0.1797
  806MOL0     C 6272   4.055   7.644   6.139  0.5454 -0.2124  0.9731
  806MOL0     C 6273   4.037   7.488   6.138 -0.4934  0.0054 -0.0482
  806MOL0     C 6274   3.950   7.430   6.024 -0.7436  0.1995 -0.8205
  806MOL0     C 6275   3.916   7.283   6.041  1.0197 -0.1978 -0.5562
  806MOL0     C 6276   4.023   7.175   6.032 -0.0077  0.4010 -0.4541
  806MOL0     N 6277   4.085   7.179   5.900  0.4665  0.3428  0.0624
  806MOL0     C 6278   4.216   7.225   5.881  0.6479  0.0903 -0.1704
  806MOL0     C 6279   4.233   7.233   5.755  0.3099  0.8742 -0.3396
  806MOL0     C 6280   4.351   7.282   5.692 -1.2097  0.5131  0.6759
  806MOL0     C 6281   4.436   7.177   5.618  0.2981  0.7965  0.2135
  806MOL0     C 6282   4.575   7.231   5.583 -0.3734  0.8407  0.6820
  806MOL0     C 6283   4.555   7.319   5.458  0.1153  0.7451 -0.1588
  806MOL0     O 6284   4.573   7.254   5.331 -0.4492  0.1001  0.1672
  806MOL0     C 6285   4.693   7.262   5.277 -0.8940  0.0777 -0.0663
  806MOL0     C 6286   4.817   7.262   5.345  0.2911 -0.1081 -0.0036
  806MOL0     C 6287   4.940   7.258   5.276  0.8861  0.4660 -0.4868
  806MOL0     C 6288   4.940   7.276   5.140 -0.7329  0.2657  0.8341
  806MOL0     C 6289   5.076   7.275   5.063 -0.3970  0.9149 -0.0376
  806MOL0     O 6290   5.192   7.257   5.134  0.0587  0.1623 -0.9022
  806MOL0     C 6291   5.316   7.235   5.076 -0.3923  0.7417  0.1439
  806MOL0     C 6292   5.338   7.150   4.965  0.8043 -0.2073  1.0578
  806MOL0     C 6293   5.471   7.142   4.919  0.3724  0.4376  0.0605
  806MOL0     C 6294   5.578   7.197   4.989 -0.3808  0.4680  0.0388
  806MOL0     O 6295   5.703   7.179   4.930  0.0916 -0.1436  0.2143
  806MOL0     C 6296   5.798   7.287   4.935 -0.1978 -0.0627  0.4039
  806MOL0     C 6297   5.917   7.270   4.835 -0.0963 -0.4156  0.2490
  806MOL0     C 6298   5.995   7.394   4.812 -1.4103 -0.5214 -1.1520
  806MOL0     C 6299   6.109   7.384   4.720 -0.8131 -0.3124 -0.2571
  806MOL0     C 6300   6.213   7.492   4.737  0.7185 -0.7576  0.1387
  806MOL0     C 6301   6.339   7.468   4.658  0.2099  0.4537  0.7043
  806MOL0     C 6302   6.462   7.542   4.689 -0.5404  0.2174  1.0113
  806MOL0     C 6303   6.480   7.671   4.620 -0.5476  0.2951  0.0996
  806MOL0    Cl 6304   6.643   7.739   4.669 -0.1276  0.0704  0.0027
  806MOL0     C 6305   5.557   7.248   5.114 -0.0750  0.2830 -0.3025
  806MOL0     C 6306   5.423   7.268   5.162  0.3684  0.7085 -0.6358
  806MOL0     O 6307   5.070   7.288   4.943  0.0850 -0.0765  1.0844
  806MOL0     C 6308   4.816   7.284   5.067 -0.9636  0.9076 -0.2010
  806MOL0     C 6309   4.696   7.279   5.137  0.1598 -1.0856  0.0880
  806MOL0     N 6310   4.111   7.211   5.700 -0.0314 -0.0448 -0.1196
  806MOL0     N 6311   4.027   7.162   5.775  0.9473 -0.1184 -0.3927
  806MOL0     C 6312   4.536   7.917   5.832 -0.0367 -0.7676 -0.0673
  806MOL0     C 6313   4.623   7.916   5.715 -0.0429 -0.0441  0.3130
  806MOL0     C 6314   4.725   7.849   5.254  0.7160  0.6231  0.4313
  806MOL0     C 6315   4.730   7.927   5.135 -0.4185  0.2070  0.0992
  806MOL0     C 6316   4.788   7.875   5.015  0.5656  0.1709 -0.4592
  806MOL0     C 6317   4.844   7.745   5.017 -0.9231  0.7094  0.9823
  806MOL0     O 6318   4.895   7.711   4.894 -0.3126  0.2600 -0.2085
  806MOL0     C 6319   4.965   7.587   4.879 -0.8246 -0.6739 -0.4225
  806MOL0     C 6320   5.053   7.580   4.762  1.2628  0.1510 -0.0113
  806MOL0     C 6321   5.153   7.698   4.752 -0.5869  1.0893  0.1959
  806MOL0     C 6322   5.268   7.697   4.849 -0.0652  0.5882 -0.2733
  806MOL0     C 6323   5.365   7.583   4.838 -0.0730  0.4271  0.5409
  806MOL0     C 6324   5.442   7.491   4.831 -0.5847 -0.1740 -0.5033
  806MOL0     C 6325   4.826   7.665   5.133 -0.3464 -0.6398 -0.4980
  806MOL0     C 6326   4.761   7.720   5.246 -0.4397  0.1429  0.6887
  806MOL0     H 6327   4.439   7.713   5.523 -0.8500  1.0680 -0.8754
  806MOL0     H 6328   4.292   7.718   5.688  1.0800 -2.4853 -2.6172
  806MOL0     H 6329   4.162   7.854   5.816 -3.0680  1.6425  0.5980
  806MOL0     H 6330   4.183   8.002   5.898 -2.0408  0.1025  0.6108
  806MOL0     H 6331   4.017   7.903   6.011  0.5019  1.1951 -3.6691
  806MOL0     H 6332   4.156   7.859   6.116  2.7553 -2.6236 -0.9408
  806MOL0     H 6333   4.188   7.645   5.971  0.6748  0.7610 -0.3766
  806MOL0     H 6334   4.021   7.681   5.921  0.7965 -1.8638 -0.1994
  806MOL0     H 6335   4.109   7.684   6.226 -3.8458  3.7089  2.3263
  806MOL0     H 6336   3.953   7.681   6.151  0.4018 -0.1528 -0.3250
  806MOL0     H 6337   4.001   7.442   6.231  0.1831 -2.2186 -0.8325
  806MOL0     H 6338   4.134   7.438   6.130 -0.6679 -0.4545  0.5863
  806MOL0     H 6339   3.999   7.452   5.928 -0.7728  1.0294 -0.6546
  806MOL0     H 6340   3.855   7.484   6.028  0.3049  2.0425  0.2651
  806MOL0     H 6341   3.867   7.279   6.138 -1.5300 -0.7474 -1.7685
  806MOL0     H 6342   3.841   7.258   5.965 -1.5332  0.4086  1.5931
  806MOL0     H 6343   3.986   7.074   6.047 -0.9074  1.1226  3.2109
  806MOL0     H 6344   4.101   7.201   6.104  1.9752  0.3235 -2.4738
  806MOL0     H 6345   4.292   7.238   5.957  0.5682 -1.9996  0.3272
  806MOL0     H 6346   4.399   7.343   5.770 -1.2272  2.1348 -0.5322
  806MOL0     H 6347   4.316   7.357   5.620 -1.7291 -0.4365 -0.0767
  806MOL0     H 6348   4.393   7.146   5.522  0.2332 -2.0715  1.0869
  806MOL0     H 6349   4.444   7.091   5.685 -0.0573 -1.5550 -2.5342
  806MOL0     H 6350   4.620   7.277   5.671 -1.4511 -0.3868  1.9262
  806MOL0     H 6351   4.634   7.147   5.547  2.8319  2.2782  2.2215
  806MOL0     H 6352   4.622   7.405   5.451 -0.1552  0.7972 -3.2099
  806MOL0     H 6353   4.454   7.363   5.465  0.8052  2.1189  3.3454
  806MOL0     H 6354   4.820   7.256   5.453  0.4042 -2.3890 -0.0764
  806MOL0     H 6355   5.039   7.253   5.322  0.5889 -5.5623  0.2349
  806MOL0     H 6356   5.246   7.113   4.921  0.1744  0.8745  1.4220
  806MOL0     H 6357   5.482   7.100   4.819  0.4090  2.0293 -0.6226
  806MOL0     H 6358   5.841   7.286   5.036 -0.5407 -0.4395  0.5491
  806MOL0     H 6359   5.734   7.375   4.926  0.7355  0.5268 -0.9178
  806MOL0     H 6360   5.878   7.232   4.740 -0.9932 -0.6868  0.7207
  806MOL0     H 6361   5.984   7.196   4.879 -1.6542 -2.5363 -0.7509
  806MOL0     H 6362   6.039   7.417   4.910  0.4041  0.1948 -2.0789
  806MOL0     H 6363   5.923   7.473   4.788 -4.3310 -1.8526  2.3445
  806MOL0     H 6364   6.141   7.282   4.741 -2.7146 -0.1735  4.5760
  806MOL0     H 6365   6.076   7.381   4.616 -0.1176 -2.1725 -0.4535
  806MOL0     H 6366   6.237   7.487   4.844 -5.0669  0.6359  1.8122
  806MOL0     H 6367   6.177   7.595   4.731 -1.5852 -1.4592  1.0579
  806MOL0     H 6368   6.324   7.465   4.550  0.9188 -3.4033  0.5509
  806MOL0     H 6369   6.362   7.365   4.687 -0.2885  0.3099  0.5885
  806MOL0     H 6370   6.478   7.541   4.797  0.5774 -0.9317  0.8495
  806MOL0     H 6371   6.541   7.483   4.644 -1.5486 -0.4267  0.0256
  806MOL0     H 6372   6.388   7.726   4.645 -2.1964 -0.7509 -3.0963
  806MOL0     H 6373   6.479   7.646   4.513  2.2600  1.5083 -0.2829
  806MOL0     H 6374   5.648   7.278   5.165  0.7182 -2.9653  0.4180
  806MOL0     H 6375   5.404   7.298   5.264  1.2081 -2.0506  0.4117
  806MOL0     H 6376   4.807   7.269   4.960 -0.5719 -1.2478  0.0228
  806MOL0     H 6377   4.604   7.272   5.080 -1.0009  0.5242  1.6640
  806MOL0     H 6378   4.580   7.971   5.915 -0.0872  0.3803 -0.7662
  806MOL0     H 6379   4.722   7.961   5.723  0.7700 -1.3958 -1.3816
  806MOL0     H 6380   4.675   8.020   5.122 -0.7797 -0.0749 -0.3875
  806MOL0     H 6381   4.809   7.934   4.927 -1.6744  1.5075 -0.1855
  806MOL0     H 6382   4.889   7.510   4.865 -0.0625 -1.4349 -0.4922
  806MOL0     H 6383   5.022   7.567   4.970 -2.0518  2.8351  1.3082
  806MOL0     H 6384   5.095   7.480   4.745 -1.1538 -0.6409 -1.8202
  806MOL0     H 6385   4.985   7.592   4.678  0.8240  0.0680  0.3298
  806MOL0     H 6386   5.098   7.791   4.766  0.9596  1.9490  0.7787
  806MOL0     H 6387   5.206   7.683   4.657 -0.0577 -1.6162  0.8390
  806MOL0     H 6388   5.321   7.792   4.841 -3.4492  2.6641  0.0989
  806MOL0     H 6389   5.225   7.704   4.950  0.3627  2.0291 -0.1815
  806MOL0     H 6390   5.507   7.406   4.838 -1.2001 -0.5889  0.4837
  806MOL0     H 6391   4.864   7.565   5.151  2.9381  0.4435 -0.6837
  806MOL0     H 6392   4.750   7.653   5.331  4.6002 -0.2243  1.4038
  807MOL0     O 6393   1.818   7.480   7.064  0.3780  0.2540  0.2277
  807MOL0     C 6394   1.870   7.523   7.169 -0.4357 -0.5869 -0.3567
  807MOL0     O 6395   1.827   7.511   7.296  0.0338 -0.7140  0.3136
  807MOL0     C 6396   1.711   7.449   7.323 -0.0437  0.2183  0.6112
  807MOL0     C 6397   1.619   7.519   7.398 -0.8821 -0.1377  1.1895
  807MOL0     C 6398   1.498   7.462   7.438  0.2495 -0.2866  0.2353
  807MOL0     C 6399   1.464   7.331   7.422 -0.3161  0.4754 -0.3068
  807MOL0     O 6400   1.336   7.284   7.455 -1.0973 -0.0349  0.5140
  807MOL0     C 6401   1.228   7.361   7.398 -0.5414 -0.0311  0.0025
  807MOL0     C 6402   1.109   7.262   7.399  0.4715 -0.4353 -0.5410
  807MOL0     C 6403   0.983   7.347   7.392  0.3068 -0.3153  0.2709
  807MOL0     C 6404   0.858   7.262   7.389  0.0302  0.3163 -0.1938
  807MOL0     C 6405   0.731   7.336   7.387  0.2909 -0.6349 -0.0079
  807MOL0     C 6406   0.692   7.388   7.528 -0.4157 -0.0060  0.0652
  807MOL0     C 6407   0.587   7.496   7.514 -0.7198 -0.4675 -0.7337
  807MOL0     C 6408   0.465   7.479   7.422  0.1964  0.2913 -0.4346
  807MOL0     N 6409   0.398   7.359   7.462  0.5895 -0.5466 -0.4241
  807MOL0     C 6410   0.330   7.339   7.586 -0.3587  0.4766 -0.4237
  807MOL0     C 6411   0.268   7.209   7.583  0.5719 -0.3313  0.3507
  807MOL0     C 6412   0.190   7.140   7.696  0.5700 -0.5318 -0.5894
  807MOL0     C 6413   0.255   7.172   7.826 -0.7190 -0.4575 -0.6754
  807MOL0     C 6414   0.185   7.285   7.902 -1.0402  0.2166 -0.1513
  807MOL0     C 6415   0.274   7.373   7.996  0.0532 -0.2662  0.5985
  807MOL0     O 6416   0.370   7.451   7.919  0.4292  0.3881  0.6769
  807MOL0     C 6417   0.446   7.522   7.993  0.3248  0.7528 -0.2817
  807MOL0     C 6418   0.465   7.524   8.134 -0.6917 -0.0016 -0.6468
  807MOL0     C 6419   0.560   7.616   8.202  0.2382  0.8164  0.3755
  807MOL0     C 6420   0.625   7.708   8.120  1.4310  0.9736 -0.9437
  807MOL0     C 6421   0.702   7.811   8.187 -0.5691 -0.7629 -0.7941
  807MOL0     O 6422   0.661   7.851   8.320 -0.2473 -0.2092 -0.1062
  807MOL0     C 6423   0.729   7.955   8.376  0.4801  0.3934  0.1634
  807MOL0     C 6424   0.794   7.948   8.499 -0.6574  0.0564  0.3705
  807MOL0     C 6425   0.862   8.055   8.550 -1.2632  0.0749  0.4302
  807MOL0     C 6426   0.853   8.182   8.487 -0.4682 -0.1835 -0.6343
  807MOL0     O 6427   0.916   8.286   8.543 -0.0480 -0.5039 -0.3806
  807MOL0     C 6428   0.829   8.359   8.640 -0.1579  0.2720  0.3651
  807MOL0     C 6429   0.899   8.486   8.667  1.8719 -0.2911  1.3139
  807MOL0     C 6430   0.920   8.506   8.819  0.0725  0.3145  0.4136
  807MOL0     C 6431   1.018   8.404   8.870  0.0196 -0.9610  0.9787
  807MOL0     C 6432   1.042   8.438   9.016  0.0957 -0.3107 -0.2300
  807MOL0     C 6433   0.924   8.381   9.104  0.1306  0.0465  0.9832
  807MOL0     C 6434   0.958   8.362   9.251 -0.7101  0.1092 -1.4741
  807MOL0     C 6435   0.957   8.218   9.299  0.4097  0.0381  0.3009
  807MOL0    Cl 6436   0.855   8.188   9.436  0.2751 -0.0088 -0.4431
  807MOL0     C 6437   0.783   8.198   8.372 -0.4608  0.3088  0.9724
  807MOL0     C 6438   0.729   8.081   8.315  0.0010 -0.8611  0.4801
  807MOL0     O 6439   0.801   7.858   8.128 -0.2486  0.4078 -0.3426
  807MOL0     C 6440   0.612   7.702   7.986  1.1178 -1.5213  0.6329
  807MOL0     C 6441   0.525   7.608   7.915 -0.1733  0.1457 -0.3320
  807MOL0     N 6442   0.318   7.160   7.457  0.6471 -1.3357  0.1201
  807MOL0     N 6443   0.372   7.247   7.389  0.3260 -0.4822 -0.4732
  807MOL0     C 6444   1.568   7.251   7.364  1.2771 -0.4188 -0.8994
  807MOL0     C 6445   1.684   7.305   7.307 -0.1663  0.4275 -0.5217
  807MOL0     C 6446   2.000   7.588   7.148 -0.4460 -0.5727 -0.2122
  807MOL0     C 6447   2.056   7.673   7.258 -0.4272  1.0772 -0.9536
  807MOL0     C 6448   2.162   7.768   7.220 -0.5666 -0.6389 -0.4404
  807MOL0     C 6449   2.224   7.760   7.093 -0.7409  0.2552  1.2682
  807MOL0     O 6450   2.335   7.840   7.074  0.6497  0.4101 -0.8886
  807MOL0     C 6451   2.396   7.850   6.944  1.0845 -0.4956 -0.4545
  807MOL0     C 6452   2.511   7.947   6.931  0.4381 -0.4775 -1.0394
  807MOL0     C 6453   2.556   7.945   6.786  0.0324 -0.3074 -0.1655
  807MOL0     C 6454   2.654   8.060   6.772 -0.0555  0.7165 -0.0734
  807MOL0     C 6455   2.748   8.043   6.663 -0.2153 -0.4796  1.0276
  807MOL0     C 6456   2.804   8.045   6.551 -0.8694  0.1806 -0.4885
  807MOL0     C 6457   2.175   7.671   6.994  0.3751  0.1585 -0.2601
  807MOL0     C 6458   2.061   7.593   7.021 -0.2524  0.6547 -0.9002
  807MOL0     H 6459   1.641   7.625   7.408 -0.1229  0.1858 -2.4571
  807MOL0     H 6460   1.428   7.538   7.470 -1.2305 -0.4250 -2.3877
  807MOL0     H 6461   1.246   7.397   7.297 -1.0793 -0.0802 -0.1150
  807MOL0     H 6462   1.229   7.454   7.456  2.5275 -0.3061  0.5609
  807MOL0     H 6463   1.102   7.207   7.493 -0.2856 -1.3166 -1.0986
  807MOL0     H 6464   1.130   7.185   7.324 -1.7782 -0.9942 -0.6592
  807MOL0     H 6465   0.979   7.415   7.306 -1.3478  1.5827  1.7610
  807MOL0     H 6466   0.974   7.405   7.484 -1.6835 -0.3366  0.1370
  807MOL0     H 6467   0.872   7.202   7.299  1.4784  2.4662 -1.4946
  807MOL0     H 6468   0.847   7.194   7.474  0.6583  1.8466  1.1564
  807MOL0     H 6469   0.649   7.277   7.346 -2.0847  1.5089  1.3300
  807MOL0     H 6470   0.746   7.430   7.333  1.0342 -0.1924  0.9392
  807MOL0     H 6471   0.789   7.420   7.567  2.0401 -1.2896 -4.3073
  807MOL0     H 6472   0.657   7.311   7.597  1.1858 -2.1673 -1.4054
  807MOL0     H 6473   0.562   7.526   7.616 -1.5315 -2.8927 -0.1579
  807MOL0     H 6474   0.638   7.583   7.470 -1.7455  0.7053  0.2942
  807MOL0     H 6475   0.487   7.454   7.318  1.6353  2.3350 -0.6779
  807MOL0     H 6476   0.397   7.564   7.419  0.3411  0.3903 -0.9725
  807MOL0     H 6477   0.330   7.405   7.673 -1.0710  0.4153 -0.3736
  807MOL0     H 6478   0.198   7.031   7.689  2.0083 -0.4511 -0.4014
  807MOL0     H 6479   0.089   7.181   7.685  0.6578  0.4800  1.7545
  807MOL0     H 6480   0.361   7.189   7.809 -1.1896  1.1906 -2.3599
  807MOL0     H 6481   0.232   7.091   7.896 -1.2927 -0.3358 -0.7203
  807MOL0     H 6482   0.129   7.349   7.833 -1.9490  0.3801  0.7121
  807MOL0     H 6483   0.106   7.245   7.966 -0.5371  1.1591  1.0931
  807MOL0     H 6484   0.334   7.307   8.058  0.8119 -1.8726 -1.7156
  807MOL0     H 6485   0.219   7.441   8.063  0.2520  1.2924 -0.7391
  807MOL0     H 6486   0.421   7.452   8.203 -0.3241  0.5910  0.2096
  807MOL0     H 6487   0.572   7.617   8.309  3.0936  1.8051  0.1383
  807MOL0     H 6488   0.809   7.851   8.546  0.8609  0.0735 -0.0245
  807MOL0     H 6489   0.924   8.043   8.638  0.7428  1.9731 -0.6259
  807MOL0     H 6490   0.791   8.304   8.727 -0.3040 -2.4049 -1.2797
  807MOL0     H 6491   0.741   8.404   8.592  0.7960  2.6722  0.7255
  807MOL0     H 6492   0.830   8.565   8.635  3.3395  1.6505  2.7515
  807MOL0     H 6493   0.993   8.498   8.612 -0.1850  0.8328 -2.3602
  807MOL0     H 6494   0.830   8.481   8.877  0.3145 -0.1264  0.6001
  807MOL0     H 6495   0.953   8.606   8.849  0.7014 -0.4787  2.5088
  807MOL0     H 6496   0.988   8.299   8.866  2.5772 -1.7847  1.5985
  807MOL0     H 6497   1.104   8.416   8.802  0.1787  1.4700  1.5037
  807MOL0     H 6498   1.034   8.545   9.034 -1.5822 -0.0881 -1.9212
  807MOL0     H 6499   1.138   8.413   9.060 -1.3265 -1.9025  2.1515
  807MOL0     H 6500   0.891   8.281   9.073  0.3843 -0.9374  3.6790
  807MOL0     H 6501   0.836   8.440   9.076 -0.1352 -0.1568  1.3827
  807MOL0     H 6502   1.057   8.402   9.276 -1.4863  2.2854 -1.6112
  807MOL0     H 6503   0.875   8.406   9.307 -2.6943 -2.0357 -2.5387
  807MOL0     H 6504   1.060   8.197   9.329  1.4654  0.8933 -2.4424
  807MOL0     H 6505   0.930   8.139   9.228 -0.4820 -0.0500  0.7219
  807MOL0     H 6506   0.761   8.295   8.330  0.4667 -0.4641 -1.4935
  807MOL0     H 6507   0.666   8.094   8.227 -4.0087 -3.6180  2.6420
  807MOL0     H 6508   0.657   7.776   7.920 -0.2518 -2.5090 -1.5286
  807MOL0     H 6509   0.506   7.612   7.809 -0.6033 -2.1778 -0.3907
  807MOL0     H 6510   1.549   7.145   7.350 -0.5398 -0.7400  2.7338
  807MOL0     H 6511   1.753   7.236   7.260  0.7448 -1.9953  3.8833
  807MOL0     H 6512   1.993   7.664   7.345 -3.5111 -3.6613 -3.2615
  807MOL0     H 6513   2.207   7.829   7.298 -1.5825 -0.2338 -0.1572
  807MOL0     H 6514   2.321   7.871   6.867  2.9836  2.0784 -1.7545
  807MOL0     H 6515   2.426   7.746   6.930 -4.4887 -2.5717  0.3035
  807MOL0     H 6516   2.476   8.044   6.966  1.5510  0.4327 -2.3512
  807MOL0     H 6517   2.591   7.919   7.000  1.7880  1.0568 -1.9027
  807MOL0     H 6518   2.468   7.963   6.724 -1.8333 -0.5803  2.2660
  807MOL0     H 6519   2.596   7.846   6.763 -1.3008 -0.6050 -1.3879
  807MOL0     H 6520   2.596   8.150   6.748  1.1972  1.5042 -0.2713
  807MOL0     H 6521   2.705   8.064   6.869 -1.4077 -1.1949  0.7845
  807MOL0     H 6522   2.825   8.051   6.446 -1.2041 -2.6702 -0.7755
  807MOL0     H 6523   2.229   7.649   6.903  1.1298 -0.2486  0.2762
  807MOL0     H 6524   2.023   7.528   6.942 -1.0945  2.6267 -2.1992
  808MOL0     O 6525   7.852   3.542   4.226 -0.7434  0.4948  0.6548
  808MOL0     C 6526   7.935   3.584   4.140  0.6018 -0.7003 -0.4866
  808MOL0     O 6527   8.025   3.690   4.161 -1.0006  0.7769 -0.1515
  808MOL0     C 6528   8.077   3.708   4.291 -0.4631  0.2354  0.1576
  808MOL0     C 6529   8.216   3.733   4.301  0.8246 -0.5373 -0.0321
  808MOL0     C 6530   8.273   3.758   4.429 -0.3554  0.0550 -0.3244
  808MOL0     C 6531   8.201   3.762   4.540 -0.3847  0.1359 -0.5490
  808MOL0     O 6532   8.272   3.793   4.652 -0.8433  0.6297  0.0960
  808MOL0     C 6533   8.210   3.763   4.784 -0.1560  0.7930 -0.1093
  808MOL0     C 6534   8.115   3.875   4.833  0.1441  0.3525  0.7367
  808MOL0     C 6535   8.054   3.830   4.956  0.2458 -0.6583  1.4235
  808MOL0     C 6536   7.964   3.935   5.019  0.2765 -0.4102  0.6065
  808MOL0     C 6537   7.880   3.870   5.129  0.5635  0.6267 -0.4603
  808MOL0     C 6538   7.773   3.980   5.188 -0.1041  0.7929  0.8813
  808MOL0     C 6539   7.658   3.926   5.279 -0.2007  0.3146  0.3321
  808MOL0     C 6540   7.630   4.027   5.399 -0.2489 -0.0670  1.0339
  808MOL0     N 6541   7.517   4.007   5.490  0.6179  0.3845 -0.2801
  808MOL0     C 6542   7.506   3.920   5.603  0.7173 -0.1680  0.5673
  808MOL0     C 6543   7.377   3.939   5.641  0.1076 -0.1967 -0.9037
  808MOL0     C 6544   7.314   3.875   5.767 -0.0200 -0.7115  0.2868
  808MOL0     C 6545   7.390   3.749   5.827 -1.0185 -0.5614  1.3276
  808MOL0     C 6546   7.332   3.703   5.960  0.9338  0.4667 -0.6071
  808MOL0     C 6547   7.192   3.634   5.960 -0.1403 -0.6627 -0.5585
  808MOL0     O 6548   7.188   3.585   6.092  0.0557 -0.0779  0.3470
  808MOL0     C 6549   7.067   3.561   6.155  0.1903  0.6739  0.2473
  808MOL0     C 6550   6.957   3.546   6.073  0.0285 -0.4225  0.1704
  808MOL0     C 6551   6.835   3.518   6.131  0.0865  0.6989 -1.1253
  808MOL0     C 6552   6.814   3.512   6.269  0.8044 -0.3119  0.9339
  808MOL0     C 6553   6.681   3.486   6.323  0.6749 -0.1471 -1.1946
  808MOL0     O 6554   6.587   3.450   6.234  0.6437 -0.2286 -0.1549
  808MOL0     C 6555   6.458   3.435   6.273  0.8744  0.1312  0.7249
  808MOL0     C 6556   6.414   3.399   6.399 -0.6558  0.2345 -0.6413
  808MOL0     C 6557   6.277   3.363   6.419 -0.0169 -0.1532 -0.0925
  808MOL0     C 6558   6.187   3.370   6.316  0.0546  0.7939  1.0266
  808MOL0     O 6559   6.060   3.309   6.315  0.4346  0.0830  0.9663
  808MOL0     C 6560   6.019   3.231   6.427  0.3685 -0.3092 -0.6084
  808MOL0     C 6561   5.874   3.201   6.422  0.3666 -0.6486  0.5131
  808MOL0     C 6562   5.775   3.317   6.374 -0.5722  0.4775  0.8278
  808MOL0     C 6563   5.669   3.348   6.473  1.0999  1.1991  0.8438
  808MOL0     C 6564   5.561   3.446   6.421 -0.1615 -0.2133  0.7175
  808MOL0     C 6565   5.620   3.587   6.381 -0.3012  0.9006 -0.3524
  808MOL0     C 6566   5.726   3.655   6.459  1.2891  1.2322  0.3387
  808MOL0     C 6567   5.715   3.800   6.441 -0.4802 -0.7375 -0.9200
  808MOL0    Cl 6568   5.857   3.875   6.512 -0.2092 -0.2821 -0.1304
  808MOL0     C 6569   6.240   3.421   6.195  0.5423 -1.1800 -0.2791
  808MOL0     C 6570   6.370   3.461   6.176 -0.1434  0.2008  0.7373
  808MOL0     O 6571   6.673   3.492   6.445 -0.6253  0.0865 -0.7148
  808MOL0     C 6572   6.922   3.519   6.346 -0.7614 -1.1731 -0.2463
  808MOL0     C 6573   7.051   3.547   6.294 -1.1026  0.0009  0.4089
  808MOL0     N 6574   7.324   4.037   5.567  0.5573  1.6500  0.3222
  808MOL0     N 6575   7.403   4.084   5.480 -0.2939  0.6812  0.5350
  808MOL0     C 6576   8.060   3.744   4.531 -0.7913 -0.2228 -0.3859
  808MOL0     C 6577   8.001   3.714   4.413  0.4120  0.1713  0.3042
  808MOL0     C 6578   7.899   3.540   3.997 -0.3851  0.7468  0.5887
  808MOL0     C 6579   7.838   3.410   3.984 -0.4705 -0.1979  0.3200
  808MOL0     C 6580   7.838   3.351   3.857  1.3189 -0.3905  0.7142
  808MOL0     C 6581   7.877   3.425   3.743  0.0901  0.5421  0.2302
  808MOL0     O 6582   7.873   3.360   3.627 -1.0918  0.4851  0.3193
  808MOL0     C 6583   7.747   3.302   3.595 -0.7719 -0.2753  0.4886
  808MOL0     C 6584   7.709   3.305   3.445  0.1048 -0.5697  0.0880
  808MOL0     C 6585   7.750   3.435   3.386  0.3977 -0.2933  0.1220
  808MOL0     C 6586   7.702   3.446   3.236  0.5757 -0.6506 -1.2537
  808MOL0     C 6587   7.696   3.328   3.152  0.1775 -0.0232 -0.4784
  808MOL0     C 6588   7.667   3.224   3.093  0.6895 -0.0372 -0.1437
  808MOL0     C 6589   7.936   3.552   3.761  0.0085  0.5568  0.5754
  808MOL0     C 6590   7.950   3.611   3.889 -0.1847  0.6470  1.1911
  808MOL0     H 6591   8.274   3.734   4.209  2.0911  1.2519  0.7316
  808MOL0     H 6592   8.380   3.773   4.442 -0.4836  0.7828 -0.0266
  808MOL0     H 6593   8.291   3.765   4.858  0.9449  1.3131 -1.2900
  808MOL0     H 6594   8.166   3.663   4.778  0.1803  0.5864  0.7962
  808MOL0     H 6595   8.028   3.893   4.769 -3.5129 -2.9233  4.1930
  808MOL0     H 6596   8.169   3.969   4.842 -0.2247  0.7519 -0.9999
  808MOL0     H 6597   8.137   3.800   5.021  4.9157  3.3753 -1.9544
  808MOL0     H 6598   7.995   3.743   4.924  1.8440 -1.0093 -0.7821
  808MOL0     H 6599   8.013   4.013   5.078 -0.0509  1.2292 -1.1828
  808MOL0     H 6600   7.887   3.966   4.948  0.7056 -0.7501 -0.0184
  808MOL0     H 6601   7.936   3.833   5.216 -1.3562  2.5270  1.7167
  808MOL0     H 6602   7.825   3.786   5.086 -0.6997  1.0021  0.3637
  808MOL0     H 6603   7.727   4.037   5.107  0.8921 -0.1784 -0.3946
  808MOL0     H 6604   7.836   4.053   5.240 -1.6766  2.5093  0.4878
  808MOL0     H 6605   7.562   3.911   5.229 -0.0833 -1.9896  0.6969
  808MOL0     H 6606   7.694   3.835   5.328  3.0454  1.1383 -0.3055
  808MOL0     H 6607   7.606   4.127   5.362 -2.6912 -0.8829  0.2567
  808MOL0     H 6608   7.719   4.038   5.463  0.6900 -0.1991 -0.2104
  808MOL0     H 6609   7.581   3.848   5.635  0.8249 -0.1699  0.3088
  808MOL0     H 6610   7.218   3.844   5.727  1.0307 -0.0226 -3.0589
  808MOL0     H 6611   7.309   3.960   5.835 -0.3258  1.1814 -1.9757
  808MOL0     H 6612   7.490   3.787   5.849 -1.6875  1.8675  0.4687
  808MOL0     H 6613   7.402   3.667   5.755  1.1657  1.9267 -1.3957
  808MOL0     H 6614   7.401   3.633   6.008  3.6893 -0.4659 -5.3246
  808MOL0     H 6615   7.328   3.799   6.012 -0.7154  1.0239 -1.6773
  808MOL0     H 6616   7.181   3.548   5.893 -1.2543 -0.9573 -0.0160
  808MOL0     H 6617   7.115   3.704   5.926  0.7020  0.9588  0.7062
  808MOL0     H 6618   6.965   3.559   5.965 -1.6485 -0.9499 -0.0519
  808MOL0     H 6619   6.745   3.510   6.072 -0.0861 -1.8782 -0.6308
  808MOL0     H 6620   6.492   3.367   6.468  0.0414  0.7428 -1.1845
  808MOL0     H 6621   6.238   3.324   6.512 -0.1587  0.7402  0.2352
  808MOL0     H 6622   6.025   3.290   6.519 -1.5612  0.6189 -1.0304
  808MOL0     H 6623   6.083   3.144   6.442  3.8632  1.8600 -1.5464
  808MOL0     H 6624   5.843   3.167   6.521  1.6461  1.3932  1.6835
  808MOL0     H 6625   5.879   3.119   6.350  1.0957  0.6675 -1.0015
  808MOL0     H 6626   5.732   3.289   6.277  2.3264  1.6709 -0.9307
  808MOL0     H 6627   5.836   3.405   6.354 -0.9186  0.7861  1.1278
  808MOL0     H 6628   5.619   3.255   6.500 -0.4314  1.9024  0.5065
  808MOL0     H 6629   5.706   3.388   6.568 -1.4220  1.0440  1.9566
  808MOL0     H 6630   5.487   3.467   6.499 -0.6188  1.4215 -0.1165
  808MOL0     H 6631   5.506   3.410   6.334 -1.5583 -1.4270  2.0474
  808MOL0     H 6632   5.534   3.652   6.366 -1.0624 -0.1987 -0.9470
  808MOL0     H 6633   5.657   3.581   6.278 -2.1760  3.3229 -1.2578
  808MOL0     H 6634   5.727   3.618   6.563  1.2311  0.9036  0.2245
  808MOL0     H 6635   5.819   3.627   6.408  1.2727  0.4549  0.7164
  808MOL0     H 6636   5.621   3.824   6.490  0.7558 -2.9135  2.9932
  808MOL0     H 6637   5.703   3.838   6.339  1.6324 -0.4714 -1.1314
  808MOL0     H 6638   6.166   3.425   6.115 -2.7618  2.0265  2.5392
  808MOL0     H 6639   6.397   3.490   6.075 -0.2075 -5.3976 -1.2172
  808MOL0     H 6640   6.910   3.520   6.454  0.0705 -2.2044 -0.1269
  808MOL0     H 6641   7.123   3.570   6.372 -0.6133  0.6765 -0.2231
  808MOL0     H 6642   7.988   3.755   4.611  0.3090 -0.9614  0.7211
  808MOL0     H 6643   7.893   3.704   4.422 -0.0351  1.9419 -2.0499
  808MOL0     H 6644   7.808   3.351   4.069  2.1114 -1.2356  0.5938
  808MOL0     H 6645   7.795   3.254   3.833  0.9022 -0.0289 -0.0384
  808MOL0     H 6646   7.668   3.364   3.639 -0.4139 -0.4830  1.4316
  808MOL0     H 6647   7.743   3.199   3.630  3.6623 -1.0963 -0.8319
  808MOL0     H 6648   7.751   3.218   3.394 -0.1089 -0.7678  0.2523
  808MOL0     H 6649   7.604   3.277   3.445  0.2419 -1.2904  2.2887
  808MOL0     H 6650   7.857   3.453   3.394  0.4960 -1.4817  1.9008
  808MOL0     H 6651   7.699   3.522   3.428 -0.4862  0.3781 -2.1823
  808MOL0     H 6652   7.596   3.475   3.235  0.7616  0.1299  0.1183
  808MOL0     H 6653   7.764   3.527   3.196  3.3831 -2.5638 -1.0600
  808MOL0     H 6654   7.638   3.138   3.037 -1.0744  0.3859  0.0751
  808MOL0     H 6655   7.977   3.602   3.674  0.6803  0.1305  0.6412
  808MOL0     H 6656   7.996   3.708   3.903  1.5535 -0.3803  3.0546
  809MOL0     O 6657  10.653   4.707   9.643 -1.0121 -0.4237 -0.3808
  809MOL0     C 6658  10.586   4.641   9.728  1.4061 -0.3154 -0.8945
  809MOL0     O 6659  10.562   4.507   9.733 -1.0442 -0.0980  0.1520
  809MOL0     C 6660  10.605   4.426   9.626  0.7579 -0.3848  0.4163
  809MOL0     C 6661  10.738   4.377   9.625 -0.3943  0.4040 -0.0221
  809MOL0     C 6662  10.787   4.323   9.506  0.6298 -0.3529 -0.6345
  809MOL0     C 6663  10.705   4.305   9.389 -0.8123 -0.4366 -0.0510
  809MOL0     O 6664  10.742   4.228   9.278 -0.2774 -0.9441  0.2630
  809MOL0     C 6665  10.865   4.156   9.267  0.4276  1.2664 -0.6526
  809MOL0     C 6666  10.890   4.033   9.359 -0.4982  0.4827 -0.2477
  809MOL0     C 6667  10.810   3.906   9.312  0.7411  0.4359 -0.4400
  809MOL0     C 6668  10.877   3.791   9.397 -0.6360 -0.6127  1.0263
  809MOL0     C 6669  10.800   3.656   9.376 -0.0852  0.3847 -0.8256
  809MOL0     C 6670  10.830   3.603   9.228 -0.9628  0.9212  0.8253
  809MOL0     C 6671  10.795   3.452   9.212 -0.1859 -0.7095  0.0804
  809MOL0     C 6672  10.643   3.428   9.227 -0.0401  0.3242  0.1735
  809MOL0     N 6673  10.613   3.289   9.221 -0.2239  0.4840  0.0612
  809MOL0     C 6674  10.550   3.224   9.114 -0.4934  0.9433 -0.3786
  809MOL0     C 6675  10.504   3.109   9.171  0.1005 -0.4609  0.4414
  809MOL0     C 6676  10.400   3.016   9.116 -0.1613  0.7708 -0.3603
  809MOL0     C 6677  10.257   3.053   9.153 -1.2799  0.2093  0.5650
  809MOL0     C 6678  10.217   3.055   9.310  0.5769  0.0369  0.4373
  809MOL0     C 6679  10.220   3.193   9.373  0.2596  0.3249  0.0919
  809MOL0     O 6680  10.116   3.274   9.315 -0.0488 -1.1438 -0.4671
  809MOL0     C 6681   9.984   3.240   9.314 -0.9456 -1.4435  0.8312
  809MOL0     C 6682   9.903   3.308   9.229 -0.6351 -0.3855 -0.2621
  809MOL0     C 6683   9.762   3.276   9.205 -0.4330 -0.9130 -0.3736
  809MOL0     C 6684   9.704   3.169   9.277 -0.4327 -0.5548  0.3018
  809MOL0     C 6685   9.565   3.129   9.266  1.0273  0.2046  0.2504
  809MOL0     O 6686   9.530   3.014   9.339 -0.0891 -0.7044 -0.5992
  809MOL0     C 6687   9.401   2.969   9.341  1.0679 -0.6068 -0.3795
  809MOL0     C 6688   9.392   2.828   9.334  0.7814 -0.9553 -0.4545
  809MOL0     C 6689   9.273   2.764   9.316 -0.7727  1.5724  0.5258
  809MOL0     C 6690   9.160   2.850   9.301  0.5310 -0.3302 -0.0366
  809MOL0     O 6691   9.031   2.809   9.280 -0.0707 -0.0402 -0.0543
  809MOL0     C 6692   8.988   2.735   9.164  0.8184  0.4732 -0.0167
  809MOL0     C 6693   9.004   2.794   9.022 -0.3879  0.3857  0.0987
  809MOL0     C 6694   8.954   2.712   8.903 -0.4947  0.0575 -0.2653
  809MOL0     C 6695   8.809   2.685   8.910  0.7333  0.3858  0.1676
  809MOL0     C 6696   8.755   2.603   8.787 -0.8987 -0.2589 -0.4911
  809MOL0     C 6697   8.789   2.456   8.789  0.0236  0.1218 -0.3443
  809MOL0     C 6698   8.728   2.383   8.904 -0.0461 -0.1417  0.1647
  809MOL0     C 6699   8.588   2.398   8.953  0.5006  1.4697  0.8372
  809MOL0    Cl 6700   8.470   2.325   8.819  0.5266  0.1180 -0.2723
  809MOL0     C 6701   9.166   2.994   9.311 -0.6203  0.5682 -0.5866
  809MOL0     C 6702   9.294   3.051   9.327  0.0539  1.3420 -0.2129
  809MOL0     O 6703   9.501   3.180   9.181  0.8069  0.2400  0.4078
  809MOL0     C 6704   9.786   3.111   9.380 -0.4473  0.0017 -0.5781
  809MOL0     C 6705   9.920   3.146   9.398  0.8867 -0.0214 -0.2814
  809MOL0     N 6706  10.544   3.100   9.303  1.1631  0.0379  0.0741
  809MOL0     N 6707  10.607   3.207   9.327  1.0727  1.1474  1.9378
  809MOL0     C 6708  10.580   4.356   9.394 -0.2087  0.2760  0.0168
  809MOL0     C 6709  10.535   4.416   9.508 -0.0899  0.4781  0.3436
  809MOL0     C 6710  10.522   4.720   9.840  0.3931  0.0839  0.1428
  809MOL0     C 6711  10.502   4.858   9.828  0.8755 -0.3551 -0.4997
  809MOL0     C 6712  10.420   4.931   9.911 -0.1460  0.2479 -0.0931
  809MOL0     C 6713  10.342   4.874  10.008  0.2437 -0.1607 -1.2610
  809MOL0     O 6714  10.237   4.947  10.058  0.0124  0.0323  0.1862
  809MOL0     C 6715  10.273   5.075  10.111 -0.3373 -0.4572 -0.2751
  809MOL0     C 6716  10.222   5.198  10.026  0.7901  0.4980  0.3532
  809MOL0     C 6717  10.233   5.328  10.108  0.4573  0.3006  0.5904
  809MOL0     C 6718  10.229   5.456  10.027 -0.5922  0.1191  0.3852
  809MOL0     C 6719  10.354   5.472   9.946 -0.7225 -0.8833 -0.1045
  809MOL0     C 6720  10.453   5.502   9.885 -0.3529  0.0381  0.3267
  809MOL0     C 6721  10.353   4.734  10.020 -0.6642 -0.0812 -0.4955
  809MOL0     C 6722  10.443   4.662   9.939 -0.8098  0.1381 -1.0419
  809MOL0     H 6723  10.799   4.379   9.715 -0.0721 -1.8289 -0.1141
  809MOL0     H 6724  10.886   4.278   9.514 -0.3499 -2.4953  0.2790
  809MOL0     H 6725  10.947   4.229   9.272 -1.1099  3.0089  1.1995
  809MOL0     H 6726  10.860   4.113   9.167  0.8491 -1.7539  0.5443
  809MOL0     H 6727  10.875   4.063   9.463  0.9320  1.2810 -0.2407
  809MOL0     H 6728  10.995   4.004   9.347 -1.2142 -2.6457  0.2757
  809MOL0     H 6729  10.816   3.889   9.204  4.2857 -0.8926 -0.1789
  809MOL0     H 6730  10.705   3.915   9.341  0.5943 -1.1752 -0.4134
  809MOL0     H 6731  10.978   3.771   9.362 -0.8053 -2.1258  1.3176
  809MOL0     H 6732  10.873   3.824   9.501  1.6214 -1.4986  1.4442
  809MOL0     H 6733  10.692   3.673   9.381 -0.1861  0.0083 -1.5404
  809MOL0     H 6734  10.825   3.587   9.457 -1.7060  0.1937 -0.4529
  809MOL0     H 6735  10.933   3.621   9.194 -0.4842 -3.0078 -0.2770
  809MOL0     H 6736  10.755   3.648   9.164 -0.1577  0.4184 -0.5026
  809MOL0     H 6737  10.833   3.424   9.113  2.1736  4.5056 -0.8199
  809MOL0     H 6738  10.852   3.387   9.279 -1.4125 -0.6018  1.2662
  809MOL0     H 6739  10.587   3.482   9.150 -0.1827 -1.1401 -0.7871
  809MOL0     H 6740  10.602   3.470   9.320 -1.0525  1.2216 -0.6562
  809MOL0     H 6741  10.538   3.273   9.018  1.9941  0.8259 -0.8087
  809MOL0     H 6742  10.418   2.916   9.158 -0.9262  0.9364  0.3916
  809MOL0     H 6743  10.420   3.004   9.009 -1.0418  0.0513 -0.4640
  809MOL0     H 6744  10.185   2.984   9.109 -1.1908  0.9682 -0.8254
  809MOL0     H 6745  10.239   3.154   9.116  1.7879  0.8063  0.3730
  809MOL0     H 6746  10.118   3.011   9.321 -0.0302  1.3285  0.2504
  809MOL0     H 6747  10.277   2.983   9.367  0.6224  0.6769  1.2137
  809MOL0     H 6748  10.320   3.226   9.343  1.1838 -1.8002  0.6938
  809MOL0     H 6749  10.203   3.189   9.481 -0.1781 -2.4314 -0.0058
  809MOL0     H 6750   9.946   3.376   9.157 -2.8989  0.2571 -1.0973
  809MOL0     H 6751   9.693   3.331   9.143  0.0688 -0.2742 -0.3686
  809MOL0     H 6752   9.491   2.787   9.350  0.8962  0.1693  2.2988
  809MOL0     H 6753   9.271   2.659   9.289  2.5504  1.8603 -1.4564
  809MOL0     H 6754   8.880   2.724   9.166  0.6954  0.9142 -2.1219
  809MOL0     H 6755   9.032   2.635   9.163  0.5824  0.3585 -1.4254
  809MOL0     H 6756   9.104   2.836   9.009 -0.6764  0.9452 -0.3909
  809MOL0     H 6757   8.933   2.877   9.024  0.9648  1.6061 -0.4861
  809MOL0     H 6758   9.017   2.622   8.900 -1.0318 -0.3746  0.8162
  809MOL0     H 6759   8.969   2.780   8.818  2.1764  0.7463  0.6594
  809MOL0     H 6760   8.780   2.625   8.997 -0.5949  0.6210 -0.0934
  809MOL0     H 6761   8.751   2.776   8.927  2.1193  0.9608  2.2347
  809MOL0     H 6762   8.795   2.638   8.691 -5.8452  2.7619 -1.8671
  809MOL0     H 6763   8.646   2.617   8.780 -0.6252  3.2300  0.2146
  809MOL0     H 6764   8.898   2.453   8.790  0.6224  6.3017  2.4419
  809MOL0     H 6765   8.744   2.413   8.699 -0.7127  2.6624 -1.2801
  809MOL0     H 6766   8.732   2.278   8.872 -1.3266 -0.0036 -0.5158
  809MOL0     H 6767   8.794   2.393   8.991  1.1059  2.8131 -0.9158
  809MOL0     H 6768   8.548   2.496   8.979 -4.7449 -0.2092  0.2980
  809MOL0     H 6769   8.570   2.328   9.035  0.8667  0.5581  0.1655
  809MOL0     H 6770   9.077   3.056   9.309 -0.3751  1.2565  3.0551
  809MOL0     H 6771   9.299   3.159   9.338 -5.1480  1.8176  0.1131
  809MOL0     H 6772   9.755   3.026   9.440  3.2336 -0.1857  1.3952
  809MOL0     H 6773   9.980   3.097   9.475 -0.3402 -2.4216 -0.7489
  809MOL0     H 6774  10.527   4.340   9.301  1.8421  1.2469 -1.4135
  809MOL0     H 6775  10.433   4.453   9.503  0.1634  1.3106  0.9729
  809MOL0     H 6776  10.567   4.911   9.759 -0.2107 -1.4151 -2.4237
  809MOL0     H 6777  10.410   5.038   9.897  0.2341  0.8018  3.1735
  809MOL0     H 6778  10.380   5.074  10.130 -0.7112 -1.3471  2.0217
  809MOL0     H 6779  10.233   5.085  10.212  1.8330 -1.1258  0.7094
  809MOL0     H 6780  10.283   5.200   9.935 -0.1050  2.0929 -0.2595
  809MOL0     H 6781  10.122   5.176   9.990  2.0835 -1.6995 -2.2405
  809MOL0     H 6782  10.329   5.331  10.160  0.5321  2.1305  0.4107
  809MOL0     H 6783  10.155   5.325  10.185 -0.1226 -2.0865  0.0100
  809MOL0     H 6784  10.144   5.458   9.957  0.6114  0.4937 -1.1121
  809MOL0     H 6785  10.228   5.543  10.093 -1.8958  0.6392 -0.2750
  809MOL0     H 6786  10.549   5.524   9.844  0.2466 -1.9762  0.5125
  809MOL0     H 6787  10.287   4.678  10.085 -2.1342 -0.7723 -2.4712
  809MOL0     H 6788  10.436   4.554   9.933 -0.2409  0.1693 -3.1997
  810MOL0     O 6789   8.326   5.925   7.510  0.3507 -0.4775 -0.1134
  810MOL0     C 6790   8.287   5.917   7.402 -0.2410  1.3040  0.6082
  810MOL0     O 6791   8.316   6.006   7.300 -0.4297  0.0875 -0.0577
  810MOL0     C 6792   8.414   6.097   7.313  0.1358  0.1363  0.2379
  810MOL0     C 6793   8.494   6.132   7.198 -0.4135  0.2114 -0.0412
  810MOL0     C 6794   8.579   6.237   7.206  0.4270  0.2147  0.3715
  810MOL0     C 6795   8.603   6.310   7.323  0.5791  0.2255  0.2363
  810MOL0     O 6796   8.691   6.412   7.336  1.0010 -0.4930  0.1596
  810MOL0     C 6797   8.822   6.369   7.374  0.3208  0.3419 -0.6925
  810MOL0     C 6798   8.878   6.488   7.448 -0.7532 -0.5514  0.2876
  810MOL0     C 6799   9.001   6.454   7.519 -0.3159 -0.1468 -0.0887
  810MOL0     C 6800   9.064   6.575   7.596 -0.1123  0.5872  0.1414
  810MOL0     C 6801   9.203   6.533   7.656 -0.1068 -0.5831  0.4449
  810MOL0     C 6802   9.277   6.651   7.719 -0.5066 -0.4134 -0.2545
  810MOL0     C 6803   9.212   6.698   7.853  1.2487  0.1406 -0.7565
  810MOL0     C 6804   9.287   6.815   7.921 -0.1145 -0.2554  0.0787
  810MOL0     N 6805   9.415   6.774   7.978  0.0956 -0.1087  0.9705
  810MOL0     C 6806   9.510   6.873   7.978  0.3694 -0.2671 -0.6748
  810MOL0     C 6807   9.606   6.815   8.062  0.0169  0.1871 -0.8651
  810MOL0     C 6808   9.732   6.895   8.101 -0.2546  0.7113 -0.5996
  810MOL0     C 6809   9.840   6.804   8.155 -0.5049  0.4331 -0.5227
  810MOL0     C 6810   9.809   6.783   8.309 -0.4047  0.8664 -0.6575
  810MOL0     C 6811   9.937   6.712   8.380  0.2353  0.1950  0.6108
  810MOL0     O 6812   9.905   6.646   8.504  0.5674  0.2023  0.3484
  810MOL0     C 6813   9.853   6.520   8.503  0.6359  0.7399  0.5254
  810MOL0     C 6814   9.936   6.420   8.453 -0.1626  1.5091 -0.3496
  810MOL0     C 6815   9.871   6.290   8.431 -0.3653  0.4158 -0.9160
  810MOL0     C 6816   9.740   6.268   8.473  0.6625 -0.7129  0.3172
  810MOL0     C 6817   9.669   6.137   8.457 -0.3248 -0.0097 -0.2380
  810MOL0     O 6818   9.753   6.043   8.431  1.0197  0.0835 -0.7032
  810MOL0     C 6819   9.701   5.938   8.378  1.0483  0.6737  0.0720
  810MOL0     C 6820   9.672   5.923   8.238 -0.2665 -0.7877 -0.1101
  810MOL0     C 6821   9.614   5.810   8.183 -0.5294  0.3623 -0.0538
  810MOL0     C 6822   9.590   5.702   8.267  0.0749 -0.1649  0.2546
  810MOL0     O 6823   9.539   5.588   8.205 -0.3635 -0.1722  0.3793
  810MOL0     C 6824   9.502   5.478   8.286  0.8844  0.6707  0.8993
  810MOL0     C 6825   9.428   5.358   8.219  0.1199  0.7431  0.5534
  810MOL0     C 6826   9.417   5.238   8.306 -0.4929 -0.3895  1.0318
  810MOL0     C 6827   9.426   5.115   8.218 -0.0850  0.0896 -0.8378
  810MOL0     C 6828   9.379   4.994   8.304 -0.2000  0.3459  0.5501
  810MOL0     C 6829   9.485   4.936   8.403  0.6868 -0.2306 -1.0221
  810MOL0     C 6830   9.431   4.860   8.529 -0.4711 -0.2638 -0.3089
  810MOL0     C 6831   9.538   4.779   8.600  0.3404 -0.8649 -0.1756
  810MOL0    Cl 6832   9.663   4.894   8.668  0.3095  0.2464 -0.4421
  810MOL0     C 6833   9.625   5.707   8.407  0.5009  0.6201 -0.0603
  810MOL0     C 6834   9.678   5.826   8.463 -0.3979 -0.6811 -0.5941
  810MOL0     O 6835   9.549   6.117   8.484 -0.6365  0.1535  0.3550
  810MOL0     C 6836   9.664   6.374   8.534 -0.1784 -0.1156 -0.6670
  810MOL0     C 6837   9.720   6.503   8.542 -0.1874  0.4684  0.4076
  810MOL0     N 6838   9.558   6.688   8.097  0.7371  0.5033  0.3786
  810MOL0     N 6839   9.440   6.668   8.057 -0.3840 -1.1652  0.2065
  810MOL0     C 6840   8.526   6.272   7.434 -0.2090 -0.1815 -0.2906
  810MOL0     C 6841   8.430   6.170   7.425 -0.1510  0.1049 -0.7975
  810MOL0     C 6842   8.174   5.818   7.366 -0.6286  0.1003  0.1242
  810MOL0     C 6843   8.107   5.742   7.474 -0.1658 -0.3908  0.6677
  810MOL0     C 6844   7.993   5.672   7.440  0.1095  0.0804 -0.5953
  810MOL0     C 6845   7.934   5.667   7.317 -0.7981  0.1164  0.4004
  810MOL0     O 6846   7.813   5.617   7.304 -0.0148 -0.3550  0.5529
  810MOL0     C 6847   7.764   5.562   7.180 -0.4941 -0.0830  0.2800
  810MOL0     C 6848   7.635   5.495   7.206 -0.4740  0.3220  0.4121
  810MOL0     C 6849   7.628   5.437   7.349  1.1152 -0.0089 -0.9326
  810MOL0     C 6850   7.497   5.362   7.368 -0.7256  0.0214  0.3216
  810MOL0     C 6851   7.382   5.442   7.368 -0.3699 -0.6335 -1.2678
  810MOL0     C 6852   7.280   5.516   7.364 -0.2774 -0.2605  0.0419
  810MOL0     C 6853   8.013   5.727   7.213  0.5401  0.6219  0.6872
  810MOL0     C 6854   8.129   5.801   7.237 -0.4028  0.2280 -0.2441
  810MOL0     H 6855   8.500   6.073   7.107  2.4410  2.3525 -1.3829
  810MOL0     H 6856   8.636   6.253   7.115 -0.0403 -1.1778 -0.1915
  810MOL0     H 6857   8.885   6.364   7.285 -1.1192  0.3431 -1.7548
  810MOL0     H 6858   8.813   6.284   7.443 -0.1869  0.2144 -0.9080
  810MOL0     H 6859   8.805   6.543   7.509 -1.3626  0.7429 -1.5398
  810MOL0     H 6860   8.892   6.560   7.367  0.7054  1.0486  1.8756
  810MOL0     H 6861   9.085   6.412   7.463  0.5906  2.8194 -1.1536
  810MOL0     H 6862   8.986   6.372   7.590  3.5939 -4.2056 -3.3463
  810MOL0     H 6863   9.087   6.650   7.520 -1.1832 -0.1168 -0.9153
  810MOL0     H 6864   8.993   6.604   7.674  0.2239 -2.5541  1.7622
  810MOL0     H 6865   9.260   6.491   7.573  3.7347  2.8970  0.9507
  810MOL0     H 6866   9.187   6.448   7.723 -0.5393 -1.8924 -1.2608
  810MOL0     H 6867   9.287   6.734   7.649  2.7735  0.1958  0.7614
  810MOL0     H 6868   9.381   6.623   7.742  0.1401  2.1889  0.3394
  810MOL0     H 6869   9.109   6.725   7.832  0.9213  0.0166  0.6288
  810MOL0     H 6870   9.193   6.617   7.924 -0.6464 -0.9660 -2.4239
  810MOL0     H 6871   9.236   6.859   8.007  2.0049 -2.4381  2.6642
  810MOL0     H 6872   9.295   6.906   7.861  0.5498  2.0219  3.3730
  810MOL0     H 6873   9.515   6.973   7.935  0.9660  0.0343  0.0783
  810MOL0     H 6874   9.711   6.975   8.173  3.2143 -0.2031  1.6312
  810MOL0     H 6875   9.757   6.949   8.009 -3.0330  1.4245 -1.0497
  810MOL0     H 6876   9.934   6.860   8.148 -1.5053  2.0954 -1.2419
  810MOL0     H 6877   9.850   6.706   8.108  1.1060 -0.6193  1.8605
  810MOL0     H 6878   9.788   6.875   8.365 -1.5929 -0.0808  0.5190
  810MOL0     H 6879   9.728   6.709   8.313  0.8419 -0.7400 -2.8547
  810MOL0     H 6880  10.019   6.781   8.402  0.2236  0.5072 -0.2944
  810MOL0     H 6881   9.978   6.632   8.318 -0.5889 -0.5123  0.9621
  810MOL0     H 6882  10.039   6.436   8.421 -0.6660  1.8690 -1.9005
  810MOL0     H 6883   9.929   6.203   8.401  1.0140  1.4387 -1.3425
  810MOL0     H 6884   9.688   6.002   8.165  0.5481 -1.5692 -0.8153
  810MOL0     H 6885   9.595   5.798   8.076  0.8536  1.2533 -0.4199
  810MOL0     H 6886   9.448   5.525   8.369  0.1789  3.6518 -1.1057
  810MOL0     H 6887   9.600   5.442   8.320  0.2720 -0.8953  1.1207
  810MOL0     H 6888   9.488   5.349   8.128 -0.2282 -1.4642  0.4867
  810MOL0     H 6889   9.324   5.381   8.193 -0.2618 -1.4753 -0.1392
  810MOL0     H 6890   9.323   5.253   8.360  1.6044  2.6101  4.2484
  810MOL0     H 6891   9.504   5.237   8.372 -1.7129 -3.4861  2.8120
  810MOL0     H 6892   9.389   5.117   8.115 -1.0788  1.5181 -0.4808
  810MOL0     H 6893   9.535   5.102   8.213  0.3516  0.8203  3.3886
  810MOL0     H 6894   9.355   4.907   8.243 -1.4035 -0.6820  2.4167
  810MOL0     H 6895   9.292   5.021   8.364  0.8483 -0.0368  2.3170
  810MOL0     H 6896   9.536   5.025   8.442  2.8896 -2.1465  0.8379
  810MOL0     H 6897   9.559   4.876   8.349 -0.4941  0.0008 -2.9902
  810MOL0     H 6898   9.395   4.932   8.603 -0.3703 -0.3146 -0.2113
  810MOL0     H 6899   9.343   4.808   8.490 -1.4976  1.7829 -0.8870
  810MOL0     H 6900   9.589   4.712   8.530  4.7455  0.8657  1.0505
  810MOL0     H 6901   9.488   4.722   8.678 -2.6074  1.7646  0.0667
  810MOL0     H 6902   9.605   5.620   8.469  1.4424  1.1364  1.0023
  810MOL0     H 6903   9.699   5.830   8.569 -4.3367  3.8938  0.3131
  810MOL0     H 6904   9.561   6.366   8.565 -0.6445 -0.1730 -2.1705
  810MOL0     H 6905   9.679   6.592   8.588 -3.0311 -0.7483  0.4253
  810MOL0     H 6906   8.532   6.328   7.527  1.8792 -3.5202  1.8080
  810MOL0     H 6907   8.360   6.157   7.506 -2.4208  3.7427 -1.9438
  810MOL0     H 6908   8.151   5.750   7.573  0.9052  1.8765  0.0646
  810MOL0     H 6909   7.949   5.618   7.523 -1.8771  1.7415 -0.4846
  810MOL0     H 6910   7.830   5.489   7.134  1.6428  3.3406 -2.6642
  810MOL0     H 6911   7.742   5.635   7.101 -0.8820 -1.0492 -0.5366
  810MOL0     H 6912   7.553   5.567   7.196  0.1617  1.0774  0.5748
  810MOL0     H 6913   7.619   5.424   7.124 -0.9870  1.8720 -0.8919
  810MOL0     H 6914   7.633   5.525   7.414  0.0714 -1.4325  1.1644
  810MOL0     H 6915   7.715   5.377   7.376 -0.3107 -2.0399 -0.6198
  810MOL0     H 6916   7.495   5.299   7.278 -1.9918  0.8182 -0.2319
  810MOL0     H 6917   7.516   5.303   7.458  4.6365  2.1262  0.9845
  810MOL0     H 6918   7.196   5.581   7.351 -1.1100 -1.3819 -0.2900
  810MOL0     H 6919   7.982   5.722   7.109 -1.2378 -1.1675  1.2503
  810MOL0     H 6920   8.176   5.843   7.149  1.7596  0.6158  1.0363
  811MOL0     O 6921   6.598  10.497   5.582 -0.5032 -0.3560 -0.0686
  811MOL0     C 6922   6.720  10.485   5.569  0.5900 -0.6499  0.1610
  811MOL0     O 6923   6.787  10.379   5.516  0.3206 -0.1380  0.9617
  811MOL0     C 6924   6.719  10.261   5.498  0.6412  0.1921  0.9341
  811MOL0     C 6925   6.623  10.241   5.401  0.5004  0.7097  1.0762
  811MOL0     C 6926   6.565  10.112   5.386  0.1986  0.0225  0.4802
  811MOL0     C 6927   6.599  10.003   5.464 -0.3500 -0.8653 -1.0360
  811MOL0     O 6928   6.538   9.880   5.458 -0.6284  0.2799 -0.0544
  811MOL0     C 6929   6.548   9.780   5.562  0.4805 -0.0806 -0.4472
  811MOL0     C 6930   6.437   9.811   5.667  0.0949  0.4781 -0.0213
  811MOL0     C 6931   6.303   9.745   5.625  0.1613 -1.2157 -0.1197
  811MOL0     C 6932   6.298   9.595   5.641 -0.5727 -0.8394  0.1871
  811MOL0     C 6933   6.204   9.522   5.542 -0.1449  0.1612  1.3436
  811MOL0     C 6934   6.062   9.558   5.560 -0.0157 -0.3416 -0.4120
  811MOL0     C 6935   5.970   9.488   5.468 -0.7799 -0.8965 -0.7242
  811MOL0     C 6936   5.820   9.496   5.513  1.1597  0.3212  0.3410
  811MOL0     N 6937   5.758   9.424   5.392 -0.2084  0.7388 -0.3527
  811MOL0     C 6938   5.752   9.478   5.272 -0.3594  0.6477  0.3136
  811MOL0     C 6939   5.689   9.389   5.188 -0.5967 -0.1983 -0.1821
  811MOL0     C 6940   5.673   9.414   5.038  0.5563  0.1751 -0.0012
  811MOL0     C 6941   5.665   9.287   4.955  0.0036  0.7940 -1.3487
  811MOL0     C 6942   5.686   9.318   4.809  0.3606  0.2066  0.7670
  811MOL0     C 6943   5.561   9.374   4.737  0.0039  0.9771  0.2307
  811MOL0     O 6944   5.543   9.515   4.759  0.5491  0.4651  0.3772
  811MOL0     C 6945   5.436   9.580   4.689 -0.2545 -0.3862 -0.6564
  811MOL0     C 6946   5.449   9.717   4.674 -0.3778 -0.1751  0.3520
  811MOL0     C 6947   5.347   9.792   4.611 -0.8853 -0.3231  0.7291
  811MOL0     C 6948   5.240   9.725   4.559 -0.6728 -1.2568  0.0406
  811MOL0     C 6949   5.139   9.810   4.498  0.0828 -0.2440  0.1498
  811MOL0     O 6950   5.143   9.950   4.507 -0.0645  0.6010 -0.5554
  811MOL0     C 6951   5.020  10.009   4.485 -0.3459 -0.0440  0.2770
  811MOL0     C 6952   4.981  10.026   4.347  0.6988 -0.7423 -0.3363
  811MOL0     C 6953   4.851  10.055   4.319  0.1985  0.2373 -0.3223
  811MOL0     C 6954   4.755  10.079   4.418  0.6546 -1.4199 -1.2816
  811MOL0     O 6955   4.623  10.113   4.397 -0.0439  0.3873  0.0578
  811MOL0     C 6956   4.570  10.103   4.260 -0.1264 -0.5803  0.7649
  811MOL0     C 6957   4.425  10.141   4.291  0.1446 -0.4540  0.4060
  811MOL0     C 6958   4.333  10.141   4.162 -0.4395 -0.1637  0.1689
  811MOL0     C 6959   4.206  10.223   4.178 -0.1934 -0.7505 -0.1805
  811MOL0     C 6960   4.121  10.249   4.046 -0.5413 -0.1691 -0.0769
  811MOL0     C 6961   4.032  10.123   3.999 -0.2157 -0.5850 -1.0899
  811MOL0     C 6962   3.914  10.179   3.908  0.4629 -0.4896  0.5151
  811MOL0     C 6963   3.803  10.237   4.004  0.3712  1.2101 -0.1704
  811MOL0    Cl 6964   3.753  10.123   4.135 -0.0401  0.7672  0.0886
  811MOL0     C 6965   4.799  10.072   4.553  0.5835 -0.5612 -0.4398
  811MOL0     C 6966   4.931  10.030   4.584  0.3170 -0.4071 -0.4247
  811MOL0     O 6967   5.048   9.743   4.444  0.8567 -0.0904  0.2893
  811MOL0     C 6968   5.222   9.589   4.577 -0.0402  0.3610  0.5236
  811MOL0     C 6969   5.319   9.512   4.644  0.4040 -0.9461 -0.5579
  811MOL0     N 6970   5.667   9.277   5.267 -0.2775 -0.7598  0.9466
  811MOL0     N 6971   5.701   9.300   5.382 -0.8712 -0.6970  0.1279
  811MOL0     C 6972   6.700  10.029   5.564 -1.0613  0.6703 -0.3215
  811MOL0     C 6973   6.755  10.158   5.576  0.3349 -0.2447  1.0638
  811MOL0     C 6974   6.801  10.613   5.597  0.1600 -0.0929 -0.9985
  811MOL0     C 6975   6.756  10.715   5.672  0.7617 -0.4653  0.4566
  811MOL0     C 6976   6.833  10.835   5.692  0.2781 -0.7300  0.6545
  811MOL0     C 6977   6.962  10.847   5.643  0.6485 -0.3951  0.2445
  811MOL0     O 6978   7.045  10.946   5.643  0.3588 -0.4598  0.8202
  811MOL0     C 6979   6.991  11.071   5.685 -0.1234  1.0461 -0.2713
  811MOL0     C 6980   7.103  11.172   5.695  0.2037  0.8212 -0.2026
  811MOL0     C 6981   7.181  11.195   5.572  0.2258  0.3677  0.8978
  811MOL0     C 6982   7.281  11.319   5.581  0.1773  0.7489  0.3066
  811MOL0     C 6983   7.219  11.445   5.535 -0.5917 -0.1364 -0.0852
  811MOL0     C 6984   7.184  11.556   5.497 -0.2684  0.0231  0.9868
  811MOL0     C 6985   7.012  10.728   5.578 -0.2976 -0.1518  0.0920
  811MOL0     C 6986   6.933  10.611   5.551 -0.7078 -0.6747 -0.3669
  811MOL0     H 6987   6.603  10.318   5.327  1.2236 -1.3105 -1.3617
  811MOL0     H 6988   6.481  10.106   5.317 -0.7903  1.6614  1.4903
  811MOL0     H 6989   6.652   9.769   5.595  0.9409 -1.2640 -2.1312
  811MOL0     H 6990   6.535   9.682   5.515  0.4374  0.6807 -2.0661
  811MOL0     H 6991   6.446   9.920   5.678  3.2945  0.2356  0.7666
  811MOL0     H 6992   6.476   9.772   5.761  3.6294 -0.5544 -1.7091
  811MOL0     H 6993   6.286   9.772   5.520 -1.0752 -1.0315  0.1118
  811MOL0     H 6994   6.222   9.798   5.676  1.9545 -0.4271  2.0340
  811MOL0     H 6995   6.393   9.543   5.642  0.7822  1.4402 -0.9632
  811MOL0     H 6996   6.265   9.581   5.744 -0.4136 -1.1067  0.2018
  811MOL0     H 6997   6.208   9.416   5.568  2.1878  0.4116  2.2499
  811MOL0     H 6998   6.248   9.536   5.443  0.3381 -3.5536  0.9053
  811MOL0     H 6999   6.037   9.664   5.547 -0.6023 -0.6615 -2.2287
  811MOL0     H 7000   6.030   9.517   5.656  0.2117 -2.1555 -1.0774
  811MOL0     H 7001   5.994   9.523   5.368  1.7389  1.6241  0.6253
  811MOL0     H 7002   5.994   9.381   5.465 -1.0737 -0.9695 -0.5351
  811MOL0     H 7003   5.785   9.599   5.512  2.7850  0.9906  2.6739
  811MOL0     H 7004   5.792   9.442   5.604  0.8390  0.5777  0.3970
  811MOL0     H 7005   5.788   9.574   5.239 -0.9443  0.1830 -1.8195
  811MOL0     H 7006   5.749   9.484   5.001 -0.2772  2.0366  1.6769
  811MOL0     H 7007   5.573   9.457   5.027 -0.5891 -0.8219  4.5186
  811MOL0     H 7008   5.566   9.243   4.966  0.0959  0.8246 -0.3113
  811MOL0     H 7009   5.742   9.225   5.002 -1.1582  1.3165  1.4325
  811MOL0     H 7010   5.772   9.384   4.796  2.8460 -3.1559 -1.7787
  811MOL0     H 7011   5.713   9.235   4.744  1.4375 -1.1917  2.8827
  811MOL0     H 7012   5.473   9.320   4.772  1.5322 -2.0712 -0.2979
  811MOL0     H 7013   5.572   9.347   4.632  1.1135 -1.0790  0.8269
  811MOL0     H 7014   5.548   9.755   4.697 -1.2567  1.1886  2.0981
  811MOL0     H 7015   5.363   9.899   4.602  0.9326 -0.5692  0.6460
  811MOL0     H 7016   5.056   9.995   4.275  0.6108 -1.5148 -0.0954
  811MOL0     H 7017   4.823  10.057   4.214 -1.0292  1.9461 -0.0189
  811MOL0     H 7018   4.566  10.004   4.214  1.2458  1.5953 -4.8546
  811MOL0     H 7019   4.626  10.171   4.196  0.8364 -2.7101 -0.7938
  811MOL0     H 7020   4.419  10.238   4.341 -4.4989 -1.9961  3.5731
  811MOL0     H 7021   4.385  10.065   4.358  2.6797 -0.7177  1.7063
  811MOL0     H 7022   4.318  10.035   4.140 -0.4148 -0.7134  2.5565
  811MOL0     H 7023   4.389  10.192   4.083  0.3332 -0.9759  0.1769
  811MOL0     H 7024   4.135  10.187   4.253 -1.3010 -2.6880 -2.0368
  811MOL0     H 7025   4.241  10.317   4.221 -2.4169  0.3620 -0.6829
  811MOL0     H 7026   4.183  10.277   3.960 -0.0773 -0.4806  0.1554
  811MOL0     H 7027   4.058  10.337   4.058 -0.0412  0.8578 -3.7701
  811MOL0     H 7028   4.015  10.060   4.086  5.5991 -2.9512 -1.2313
  811MOL0     H 7029   4.093  10.053   3.943  1.5438 -1.2430  1.4921
  811MOL0     H 7030   3.947  10.256   3.838  0.0930  0.5210  1.4308
  811MOL0     H 7031   3.880  10.095   3.847  2.9958 -2.6877  1.9132
  811MOL0     H 7032   3.712  10.274   3.955 -1.1323 -0.9151  0.8445
  811MOL0     H 7033   3.842  10.323   4.058 -0.3184  0.9153  0.8257
  811MOL0     H 7034   4.727  10.112   4.624 -0.7283  0.9393 -2.4955
  811MOL0     H 7035   4.960  10.014   4.688  0.8726  0.2571 -0.4686
  811MOL0     H 7036   5.124   9.544   4.560  0.1880 -0.1725  0.5940
  811MOL0     H 7037   5.299   9.405   4.648 -1.7558 -0.5694  3.0897
  811MOL0     H 7038   6.741   9.952   5.629  2.3822  0.7193 -2.2035
  811MOL0     H 7039   6.817  10.182   5.662 -0.5986 -0.2859  1.7718
  811MOL0     H 7040   6.650  10.718   5.696 -0.6514 -0.6048 -4.5966
  811MOL0     H 7041   6.784  10.914   5.748 -0.5625 -0.8676  0.1143
  811MOL0     H 7042   6.950  11.073   5.787 -1.0685  2.2652 -0.6420
  811MOL0     H 7043   6.919  11.097   5.607 -0.5190 -0.9770 -0.6263
  811MOL0     H 7044   7.060  11.267   5.725 -1.9179 -0.3965  0.8319
  811MOL0     H 7045   7.185  11.142   5.762  2.6441  2.1036 -2.4130
  811MOL0     H 7046   7.127  11.198   5.478 -1.8384 -1.1030  1.9704
  811MOL0     H 7047   7.248  11.110   5.559  0.4141  0.8799 -2.2557
  811MOL0     H 7048   7.318  11.338   5.683 -1.0891 -1.3535  1.2191
  811MOL0     H 7049   7.370  11.308   5.518 -0.6108 -1.4265 -0.5144
  811MOL0     H 7050   7.155  11.656   5.471 -3.0002 -0.4441  1.9689
  811MOL0     H 7051   7.112  10.728   5.536  0.8503 -0.8627  2.6516
  811MOL0     H 7052   6.969  10.526   5.494  0.2704  0.1715 -1.0577
  812MOL0     O 7053   7.055   6.564   2.160 -0.2556 -0.0183 -0.4885
  812MOL0     C 7054   7.128   6.561   2.260  0.6212  0.7989 -0.5235
  812MOL0     O 7055   7.103   6.635   2.362 -0.5830 -0.1281 -0.3540
  812MOL0     C 7056   7.009   6.735   2.351 -0.7610  0.1626  0.4718
  812MOL0     C 7057   7.047   6.860   2.305  0.4405 -0.3459 -1.1406
  812MOL0     C 7058   6.947   6.959   2.275 -0.8943 -0.0525 -0.6264
  812MOL0     C 7059   6.819   6.924   2.301  0.1200 -0.1854  0.2395
  812MOL0     O 7060   6.729   7.027   2.263  0.0753 -0.0537 -0.7699
  812MOL0     C 7061   6.594   6.993   2.250 -0.0994  0.2560 -0.2128
  812MOL0     C 7062   6.518   7.077   2.143 -0.0235  0.6219  0.2447
  812MOL0     C 7063   6.558   7.026   2.002 -1.3145 -0.7460 -0.6962
  812MOL0     C 7064   6.491   6.901   1.946  1.2637  0.3981  1.2150
  812MOL0     C 7065   6.582   6.804   1.882 -1.1869  0.8240 -0.0768
  812MOL0     C 7066   6.677   6.742   1.993 -0.1596 -0.2621 -0.7473
  812MOL0     C 7067   6.733   6.608   1.963 -1.4943  1.1218  1.1621
  812MOL0     C 7068   6.629   6.504   1.966  0.4873  1.1180  0.5579
  812MOL0     N 7069   6.677   6.363   1.940 -0.2589  0.2544 -0.0167
  812MOL0     C 7070   6.809   6.310   1.954 -0.3446 -0.9459  0.1653
  812MOL0     C 7071   6.807   6.183   1.909 -0.0648  0.4131  0.2701
  812MOL0     C 7072   6.918   6.089   1.906  0.4484  0.4152 -0.0374
  812MOL0     C 7073   6.916   6.025   1.770 -0.4561  0.4027  1.0265
  812MOL0     C 7074   6.991   5.891   1.768  0.7774 -0.4235 -0.9108
  812MOL0     C 7075   7.049   5.857   1.632 -0.0573  0.1050  0.6346
  812MOL0     O 7076   7.069   5.714   1.607 -0.4408 -0.3195 -0.2327
  812MOL0     C 7077   7.141   5.687   1.497  1.1710  0.0567  0.3347
  812MOL0     C 7078   7.139   5.550   1.474 -0.2541 -0.3760 -0.2097
  812MOL0     C 7079   7.219   5.502   1.377  0.3773  0.1577  0.3324
  812MOL0     C 7080   7.296   5.580   1.284 -0.0170 -0.0867  0.5338
  812MOL0     C 7081   7.366   5.513   1.173  0.3289 -0.5453 -0.4822
  812MOL0     O 7082   7.336   5.384   1.152  0.1644  0.6785  0.0429
  812MOL0     C 7083   7.402   5.305   1.056  0.0910  0.1256  0.0599
  812MOL0     C 7084   7.536   5.320   1.020 -0.2033 -0.2512  0.1752
  812MOL0     C 7085   7.596   5.233   0.929 -0.5050  0.2418 -1.0991
  812MOL0     C 7086   7.522   5.126   0.872 -0.8365 -0.1380 -0.5416
  812MOL0     O 7087   7.583   5.024   0.800 -0.8080 -0.1712 -0.2049
  812MOL0     C 7088   7.715   4.981   0.845  0.4268 -0.3793 -0.4170
  812MOL0     C 7089   7.776   4.862   0.759 -1.0925  1.2859 -0.3880
  812MOL0     C 7090   7.694   4.735   0.757  0.8150 -0.2023 -0.4044
  812MOL0     C 7091   7.798   4.629   0.719 -0.1269 -0.0371 -0.1389
  812MOL0     C 7092   7.742   4.499   0.676 -0.7173  0.6009 -0.0477
  812MOL0     C 7093   7.648   4.488   0.561  0.0935  0.5439 -0.0911
  812MOL0     C 7094   7.599   4.339   0.545  0.2620  0.6265  0.6935
  812MOL0     C 7095   7.504   4.326   0.415 -0.1711  0.3480  0.2756
  812MOL0    Cl 7096   7.597   4.313   0.252 -0.3985  0.2876 -0.1460
  812MOL0     C 7097   7.388   5.113   0.911  0.3672  0.0410  0.7486
  812MOL0     C 7098   7.325   5.197   1.000 -0.7499  0.3257  0.4569
  812MOL0     O 7099   7.448   5.584   1.115 -0.0616 -0.1372  0.2640
  812MOL0     C 7100   7.298   5.714   1.301 -0.4180 -0.1476 -0.2029
  812MOL0     C 7101   7.228   5.772   1.413 -0.5099 -0.5426 -0.0787
  812MOL0     N 7102   6.681   6.163   1.855  0.0644 -0.1120 -0.8038
  812MOL0     N 7103   6.605   6.267   1.869  0.2066  0.1450 -0.1072
  812MOL0     C 7104   6.782   6.800   2.357 -0.7955  0.3939 -0.5913
  812MOL0     C 7105   6.876   6.703   2.374  0.2486  0.1105 -1.0732
  812MOL0     C 7106   7.244   6.480   2.264 -0.2237  0.2995 -0.5635
  812MOL0     C 7107   7.344   6.483   2.368  0.0849 -0.0169  0.4190
  812MOL0     C 7108   7.455   6.398   2.357 -0.5062  0.8187 -0.0304
  812MOL0     C 7109   7.469   6.311   2.242  0.1754 -1.4203  0.5187
  812MOL0     O 7110   7.581   6.235   2.230  0.8035  0.2882  0.0460
  812MOL0     C 7111   7.683   6.275   2.132  0.2709 -0.3075  0.0978
  812MOL0     C 7112   7.811   6.196   2.135  0.7797 -1.1689 -0.1458
  812MOL0     C 7113   7.890   6.207   2.268  0.6870 -0.3552  0.0450
  812MOL0     C 7114   7.985   6.096   2.291 -0.8975  0.3110 -0.1967
  812MOL0     C 7115   7.925   5.970   2.329  0.2923  0.7209 -0.4295
  812MOL0     C 7116   7.879   5.860   2.353 -0.5253 -0.0098  0.6959
  812MOL0     C 7117   7.371   6.305   2.142 -0.1922  0.0727  0.4266
  812MOL0     C 7118   7.258   6.392   2.157 -0.3936  0.3590  0.4466
  812MOL0     H 7119   7.150   6.885   2.279  1.2881 -2.0632  0.3465
  812MOL0     H 7120   6.970   7.054   2.229 -2.9867  0.9663  0.2905
  812MOL0     H 7121   6.542   6.997   2.346 -1.5564 -1.4079 -0.8848
  812MOL0     H 7122   6.594   6.886   2.224  1.6394  0.5089 -1.4305
  812MOL0     H 7123   6.557   7.179   2.145 -1.6064  1.2463  0.2962
  812MOL0     H 7124   6.410   7.081   2.160 -0.1392  2.2458 -0.6362
  812MOL0     H 7125   6.667   7.018   1.989 -1.1339 -0.9298  0.7814
  812MOL0     H 7126   6.530   7.113   1.942  0.6654  2.6560  2.8369
  812MOL0     H 7127   6.430   6.843   2.015 -2.5519  0.4992 -1.7342
  812MOL0     H 7128   6.419   6.941   1.874  1.3986  1.9241  1.8905
  812MOL0     H 7129   6.637   6.868   1.812 -1.6437  0.2421 -0.9908
  812MOL0     H 7130   6.528   6.721   1.836  0.2530 -0.9913  1.3445
  812MOL0     H 7131   6.622   6.726   2.086  1.9081  0.8429  0.7312
  812MOL0     H 7132   6.762   6.805   2.019  0.9157 -1.0546 -2.1616
  812MOL0     H 7133   6.788   6.623   1.870  0.1246 -0.2450  1.8450
  812MOL0     H 7134   6.803   6.581   2.042  1.0349  1.9422 -0.6539
  812MOL0     H 7135   6.558   6.531   1.887 -1.1956  0.7237  1.8633
  812MOL0     H 7136   6.579   6.504   2.063  1.2746 -3.6049  1.2381
  812MOL0     H 7137   6.892   6.375   1.978  0.4059  0.1425 -4.3439
  812MOL0     H 7138   6.900   6.013   1.982  5.4419 -0.5636  0.5079
  812MOL0     H 7139   7.008   6.145   1.933 -0.4132  2.3339 -0.9251
  812MOL0     H 7140   6.949   6.093   1.692 -2.2974  0.5895  0.3500
  812MOL0     H 7141   6.814   6.000   1.737  1.3738 -6.1262 -1.1814
  812MOL0     H 7142   7.073   5.889   1.840 -0.6590 -0.1566  0.7942
  812MOL0     H 7143   6.924   5.813   1.806  1.8467 -1.4720 -1.0858
  812MOL0     H 7144   7.142   5.915   1.636  2.2002 -3.0739 -1.3042
  812MOL0     H 7145   6.982   5.883   1.549  1.2844  1.2756 -0.1255
  812MOL0     H 7146   7.084   5.478   1.534  0.3347 -1.9997 -1.5341
  812MOL0     H 7147   7.213   5.394   1.370 -1.0074  0.1652  1.0112
  812MOL0     H 7148   7.593   5.403   1.059  2.3067 -2.4916  1.6585
  812MOL0     H 7149   7.705   5.231   0.920 -0.3078  1.4451  0.5364
  812MOL0     H 7150   7.722   4.971   0.954 -3.4355  2.5819  0.3497
  812MOL0     H 7151   7.783   5.064   0.825 -1.0333  0.9665 -0.0265
  812MOL0     H 7152   7.870   4.837   0.809 -1.6329  2.8622  1.5931
  812MOL0     H 7153   7.803   4.887   0.657  0.6507 -0.7781 -0.4998
  812MOL0     H 7154   7.623   4.729   0.674 -2.5899 -0.6795  2.3101
  812MOL0     H 7155   7.639   4.704   0.846 -0.8886 -0.7295 -1.5834
  812MOL0     H 7156   7.855   4.668   0.635 -0.5398  2.0714  0.5024
  812MOL0     H 7157   7.865   4.601   0.801 -0.8822 -0.7552  0.2550
  812MOL0     H 7158   7.694   4.453   0.763  4.6135 -3.1955  1.4447
  812MOL0     H 7159   7.823   4.426   0.663  0.7688  2.1994 -0.1118
  812MOL0     H 7160   7.683   4.530   0.467  0.2673  2.4300  0.7687
  812MOL0     H 7161   7.555   4.541   0.583 -2.2412 -3.4436  0.6727
  812MOL0     H 7162   7.688   4.275   0.543  0.9252  1.3857  2.7498
  812MOL0     H 7163   7.543   4.308   0.633  1.1064 -4.4418 -0.2422
  812MOL0     H 7164   7.440   4.413   0.403  0.3643  0.6412 -0.5179
  812MOL0     H 7165   7.433   4.244   0.433  1.5784 -1.2579  0.2748
  812MOL0     H 7166   7.326   5.035   0.867  2.7600 -2.6716  1.8735
  812MOL0     H 7167   7.222   5.183   1.031 -1.2188  1.4509 -0.5061
  812MOL0     H 7168   7.353   5.770   1.227  2.6670 -2.7520 -0.0836
  812MOL0     H 7169   7.249   5.877   1.430  0.0687  0.0786 -3.8172
  812MOL0     H 7170   6.677   6.774   2.370 -0.7674  0.2413 -0.6729
  812MOL0     H 7171   6.844   6.605   2.406 -0.5438  1.0017  1.0575
  812MOL0     H 7172   7.326   6.558   2.444 -1.9994 -0.1126  0.0948
  812MOL0     H 7173   7.538   6.394   2.427  0.2756 -1.1477 -0.9753
  812MOL0     H 7174   7.696   6.382   2.145  1.9616  0.2154 -4.2986
  812MOL0     H 7175   7.635   6.260   2.035 -1.4929 -0.1877  0.9081
  812MOL0     H 7176   7.781   6.091   2.135 -4.2660 -0.0286  2.7873
  812MOL0     H 7177   7.869   6.226   2.047  0.5974 -1.5472 -0.3975
  812MOL0     H 7178   7.822   6.223   2.352 -0.2746  0.7433 -0.9043
  812MOL0     H 7179   7.941   6.303   2.253  0.0900 -0.2211 -1.2175
  812MOL0     H 7180   8.027   6.074   2.192  1.7928  2.2583  0.3793
  812MOL0     H 7181   8.067   6.123   2.359 -1.9205 -0.3580  1.3386
  812MOL0     H 7182   7.825   5.769   2.335  1.1763 -0.7474 -1.1024
  812MOL0     H 7183   7.363   6.229   2.066 -1.2250  0.0313  0.5524
  812MOL0     H 7184   7.175   6.373   2.089  0.0773 -0.2193  0.0193
  813MOL0     O 7185   0.218   2.003   3.175  0.7521  0.9843  0.5576
  813MOL0     C 7186   0.266   2.113   3.204 -1.0289  0.9595  0.5336
  813MOL0     O 7187   0.198   2.222   3.233  0.0270 -1.0039 -0.2037
  813MOL0     C 7188   0.074   2.230   3.168 -0.7669 -0.6501  0.7919
  813MOL0     C 7189  -0.034   2.149   3.210 -0.8594  0.0714  0.1583
  813MOL0     C 7190  -0.155   2.151   3.141  0.6577  0.0722 -0.7841
  813MOL0     C 7191  -0.174   2.230   3.025  0.0545  0.0512  0.3664
  813MOL0     O 7192  -0.284   2.214   2.958 -0.0526 -0.1465 -0.1359
  813MOL0     C 7193  -0.360   2.324   2.939 -0.2635 -0.3765  0.2826
  813MOL0     C 7194  -0.475   2.281   2.837  0.0510 -0.4314 -0.3520
  813MOL0     C 7195  -0.601   2.221   2.909  0.4554  0.0367 -0.4290
  813MOL0     C 7196  -0.705   2.158   2.811  0.1546 -0.1035  0.4055
  813MOL0     C 7197  -0.746   2.256   2.697 -0.0408  0.1689 -0.6884
  813MOL0     C 7198  -0.813   2.388   2.742  0.3102  0.6364  0.0813
  813MOL0     C 7199  -0.964   2.394   2.755 -0.2610 -0.2238 -0.5701
  813MOL0     C 7200  -0.998   2.542   2.800  0.1121 -0.1721  0.4715
  813MOL0     N 7201  -1.097   2.625   2.716 -0.1531 -0.0519  0.3063
  813MOL0     C 7202  -1.213   2.568   2.666  0.9412 -0.2998 -0.0845
  813MOL0     C 7203  -1.273   2.666   2.595  0.1852 -0.2607 -0.1046
  813MOL0     C 7204  -1.406   2.668   2.542 -0.4509  0.6570 -0.3103
  813MOL0     C 7205  -1.408   2.707   2.386  0.0898 -0.7807 -0.5766
  813MOL0     C 7206  -1.336   2.609   2.292 -0.5789  1.0835  0.5063
  813MOL0     C 7207  -1.309   2.644   2.149 -0.1110  1.0723  0.5038
  813MOL0     O 7208  -1.426   2.602   2.067 -0.1876  0.8288  0.2396
  813MOL0     C 7209  -1.405   2.597   1.932 -0.7273  1.0677 -0.3194
  813MOL0     C 7210  -1.305   2.652   1.861 -0.0626 -1.0139  0.8304
  813MOL0     C 7211  -1.302   2.628   1.719  0.4384  1.0213 -1.2571
  813MOL0     C 7212  -1.389   2.539   1.658  0.6336 -0.8578  0.4576
  813MOL0     C 7213  -1.359   2.497   1.526 -0.0920  0.0458 -0.2628
  813MOL0     O 7214  -1.479   2.463   1.464 -0.2679  0.5720  0.0709
  813MOL0     C 7215  -1.472   2.400   1.338 -0.3975  0.1441  0.3516
  813MOL0     C 7216  -1.433   2.265   1.323 -0.4234  0.6670  1.5618
  813MOL0     C 7217  -1.431   2.194   1.200  0.1844  0.8847  0.4342
  813MOL0     C 7218  -1.480   2.263   1.089 -0.1711 -0.0761 -0.0505
  813MOL0     O 7219  -1.485   2.205   0.959 -0.4671 -0.4451 -1.2615
  813MOL0     C 7220  -1.373   2.135   0.911 -0.5378 -0.6395 -0.1219
  813MOL0     C 7221  -1.371   2.158   0.764  0.6020  0.3108 -0.1813
  813MOL0     C 7222  -1.496   2.101   0.688 -0.5392  0.4798 -0.1356
  813MOL0     C 7223  -1.500   1.941   0.681  0.0545 -0.4055 -0.7918
  813MOL0     C 7224  -1.603   1.879   0.587  0.5685 -1.1124 -0.4594
  813MOL0     C 7225  -1.555   1.866   0.439 -0.1040  0.4635  0.3606
  813MOL0     C 7226  -1.666   1.787   0.364  0.5118  0.0717 -1.6714
  813MOL0     C 7227  -1.655   1.765   0.216 -0.0915  0.3291  0.2764
  813MOL0    Cl 7228  -1.505   1.659   0.185 -0.2907  0.0638 -0.5249
  813MOL0     C 7229  -1.533   2.392   1.105  0.3141 -0.9987  0.9800
  813MOL0     C 7230  -1.523   2.462   1.223 -0.0926  0.1460  0.0977
  813MOL0     O 7231  -1.242   2.488   1.480  0.0569 -0.6833 -0.1691
  813MOL0     C 7232  -1.500   2.492   1.735  0.5353 -0.6317  0.2296
  813MOL0     C 7233  -1.504   2.525   1.866 -0.3719  0.6181  0.0578
  813MOL0     N 7234  -1.200   2.781   2.608 -0.2175 -1.0191  0.1815
  813MOL0     N 7235  -1.084   2.758   2.672 -0.0906  0.2687 -0.0323
  813MOL0     C 7236  -0.065   2.310   2.981 -0.1845  0.0009  0.0812
  813MOL0     C 7237   0.056   2.305   3.050  0.4498 -0.1752 -0.0097
  813MOL0     C 7238   0.416   2.107   3.218  0.3000  0.1808 -0.5804
  813MOL0     C 7239   0.496   2.009   3.273  0.4235  0.3810  0.5213
  813MOL0     C 7240   0.636   2.010   3.283  0.3066  0.0165  0.5426
  813MOL0     C 7241   0.700   2.121   3.221 -0.3513  0.2253 -0.5876
  813MOL0     O 7242   0.834   2.132   3.250  0.3990 -0.2662  0.6994
  813MOL0     C 7243   0.905   2.242   3.196 -0.4299  0.5478  0.0620
  813MOL0     C 7244   1.054   2.235   3.233 -0.1414 -0.7700 -0.7859
  813MOL0     C 7245   1.130   2.346   3.156  0.6658 -0.4479  0.8749
  813MOL0     C 7246   1.145   2.322   3.015 -0.7956 -0.8422 -0.2124
  813MOL0     C 7247   1.210   2.195   2.985  0.1947  0.1486  0.5109
  813MOL0     C 7248   1.271   2.088   2.961  0.7596  0.2004  0.4621
  813MOL0     C 7249   0.626   2.228   3.171  0.5109  0.3750 -0.4195
  813MOL0     C 7250   0.488   2.220   3.167 -0.1170 -0.4619  0.3463
  813MOL0     H 7251  -0.017   2.081   3.293  0.4555  0.5582  0.3139
  813MOL0     H 7252  -0.238   2.090   3.175 -0.5600  2.5901  1.1195
  813MOL0     H 7253  -0.305   2.405   2.889 -0.4070  0.7549  1.8805
  813MOL0     H 7254  -0.405   2.357   3.033 -1.2683 -0.8443 -0.0247
  813MOL0     H 7255  -0.433   2.222   2.754  2.0628  0.9124 -0.3722
  813MOL0     H 7256  -0.506   2.375   2.789 -1.4508  0.1641  1.6745
  813MOL0     H 7257  -0.656   2.298   2.964 -0.5097 -1.6625  1.0957
  813MOL0     H 7258  -0.565   2.144   2.977 -0.4248  1.7798  2.1822
  813MOL0     H 7259  -0.670   2.073   2.751 -0.6599 -0.6353  0.6697
  813MOL0     H 7260  -0.781   2.107   2.870  0.9976 -0.4012  1.2504
  813MOL0     H 7261  -0.805   2.201   2.624  0.6610  0.9663 -1.8885
  813MOL0     H 7262  -0.660   2.298   2.644 -0.9403  1.9424 -0.8153
  813MOL0     H 7263  -0.778   2.466   2.674  2.1715 -0.7977 -0.6794
  813MOL0     H 7264  -0.768   2.421   2.836 -0.6880 -0.7471  1.0843
  813MOL0     H 7265  -1.016   2.377   2.661  0.7626 -1.9927 -0.8558
  813MOL0     H 7266  -1.003   2.323   2.829 -3.0726  1.9623  0.2047
  813MOL0     H 7267  -0.901   2.589   2.820  0.2404  0.0648 -0.6087
  813MOL0     H 7268  -1.044   2.526   2.898 -2.4477 -2.9432 -1.0025
  813MOL0     H 7269  -1.255   2.475   2.704 -2.6677  2.0470  2.2709
  813MOL0     H 7270  -1.461   2.740   2.603 -3.0101 -2.0137  0.7850
  813MOL0     H 7271  -1.459   2.573   2.555 -3.7956  2.0543 -2.2615
  813MOL0     H 7272  -1.358   2.803   2.372  0.3579 -1.2797 -3.5156
  813MOL0     H 7273  -1.514   2.718   2.365 -0.2863 -1.6326  0.7145
  813MOL0     H 7274  -1.251   2.556   2.336 -0.3435 -2.0321 -3.1875
  813MOL0     H 7275  -1.401   2.521   2.293  0.6412  0.1401  1.7963
  813MOL0     H 7276  -1.217   2.594   2.117 -1.7086 -0.0194 -2.8368
  813MOL0     H 7277  -1.292   2.750   2.126  1.9803  0.5609 -0.6260
  813MOL0     H 7278  -1.231   2.717   1.906  2.6326 -4.0144  1.1690
  813MOL0     H 7279  -1.220   2.675   1.666  1.8709  1.3437  1.0998
  813MOL0     H 7280  -1.396   2.220   1.414  2.7123  1.0588  0.5871
  813MOL0     H 7281  -1.390   2.094   1.203  0.8292  1.1373  0.1810
  813MOL0     H 7282  -1.373   2.026   0.920  1.7109 -0.7760 -1.1258
  813MOL0     H 7283  -1.276   2.165   0.951  0.1292 -0.9666 -1.4423
  813MOL0     H 7284  -1.288   2.108   0.713  1.8687  2.2692 -0.1055
  813MOL0     H 7285  -1.378   2.266   0.754 -2.1551  0.5036  2.2400
  813MOL0     H 7286  -1.476   2.136   0.586  4.9541 -1.1638  0.0265
  813MOL0     H 7287  -1.582   2.153   0.730 -0.4828  1.3564 -1.0600
  813MOL0     H 7288  -1.410   1.879   0.670  0.1826 -0.5468  0.7524
  813MOL0     H 7289  -1.526   1.906   0.782 -0.2170  1.7945 -0.0395
  813MOL0     H 7290  -1.696   1.938   0.588  0.5750 -0.9445  3.4056
  813MOL0     H 7291  -1.618   1.774   0.614 -0.6069 -0.6366  0.8677
  813MOL0     H 7292  -1.458   1.814   0.445  1.2693  3.0035  2.1395
  813MOL0     H 7293  -1.547   1.967   0.396 -3.0213  0.7358  0.3144
  813MOL0     H 7294  -1.671   1.684   0.399 -1.8084  0.1553 -1.5616
  813MOL0     H 7295  -1.766   1.830   0.372  1.6378  2.4984  1.0524
  813MOL0     H 7296  -1.637   1.857   0.160  1.0711  0.2679  0.5315
  813MOL0     H 7297  -1.741   1.713   0.173  0.8690  0.0758 -1.3860
  813MOL0     H 7298  -1.580   2.439   1.020  2.6937  0.5832  0.4472
  813MOL0     H 7299  -1.550   2.567   1.227  2.6532  0.8965  0.8631
  813MOL0     H 7300  -1.577   2.425   1.696  0.4686 -1.0818  1.1013
  813MOL0     H 7301  -1.587   2.480   1.919  1.6506 -2.0945  1.1434
  813MOL0     H 7302  -0.068   2.373   2.893  4.0372  1.2470  0.5892
  813MOL0     H 7303   0.134   2.375   3.021 -1.5864  2.1053 -0.3176
  813MOL0     H 7304   0.452   1.918   3.313 -0.4857  1.6740  2.5965
  813MOL0     H 7305   0.694   1.925   3.315 -0.7275 -1.3023 -0.9468
  813MOL0     H 7306   0.863   2.335   3.235  0.6145  0.4284  1.5697
  813MOL0     H 7307   0.893   2.248   3.087 -3.9449  3.0082  0.4328
  813MOL0     H 7308   1.059   2.241   3.342  0.0384 -1.9843 -0.7191
  813MOL0     H 7309   1.102   2.139   3.212  2.6720  0.6712 -1.4955
  813MOL0     H 7310   1.230   2.362   3.196  2.0701  2.0289 -3.1292
  813MOL0     H 7311   1.080   2.442   3.170 -2.7231 -1.8316 -0.6789
  813MOL0     H 7312   1.052   2.329   2.956  1.2096  2.8260 -3.4164
  813MOL0     H 7313   1.212   2.403   2.983  0.0797  0.4758  4.2496
  813MOL0     H 7314   1.329   2.003   2.931  2.6644  1.7990 -0.6858
  813MOL0     H 7315   0.653   2.322   3.124  0.3017  1.4380  1.5032
  813MOL0     H 7316   0.425   2.299   3.127  1.3284 -0.9688 -3.2190
  814MOL0     O 7317   1.561   2.129   5.139  0.0813 -0.6306 -0.1134
  814MOL0     C 7318   1.641   2.165   5.054  0.5294  0.4036 -0.2785
  814MOL0     O 7319   1.618   2.227   4.933  0.3998  0.0045  0.9722
  814MOL0     C 7320   1.497   2.266   4.892 -0.2716 -0.4103  0.0665
  814MOL0     C 7321   1.485   2.402   4.842 -0.3040 -0.2776  0.3212
  814MOL0     C 7322   1.361   2.444   4.780 -0.0449 -1.2976 -0.8105
  814MOL0     C 7323   1.255   2.355   4.768  0.4151 -0.3144  0.4967
  814MOL0     O 7324   1.140   2.391   4.715  0.0589 -0.2330 -0.2996
  814MOL0     C 7325   1.080   2.499   4.790 -0.7833  0.0986  0.3147
  814MOL0     C 7326   0.929   2.503   4.796 -0.4278  0.2969 -0.5662
  814MOL0     C 7327   0.871   2.444   4.670  0.2791  0.0338 -0.1297
  814MOL0     C 7328   0.724   2.469   4.627  0.6864 -0.2473  0.2116
  814MOL0     C 7329   0.621   2.396   4.716 -0.2838 -0.1602 -0.8717
  814MOL0     C 7330   0.477   2.382   4.655  0.4234 -0.0481 -0.0928
  814MOL0     C 7331   0.416   2.513   4.601  0.3483 -0.4716  0.6577
  814MOL0     C 7332   0.387   2.622   4.706 -1.2635 -0.2153  0.2682
  814MOL0     N 7333   0.279   2.589   4.796 -0.7793 -0.2271 -0.9535
  814MOL0     C 7334   0.148   2.619   4.777 -0.2960  0.2037  0.0231
  814MOL0     C 7335   0.081   2.555   4.881 -0.2270 -0.4913  0.5484
  814MOL0     C 7336  -0.062   2.570   4.906  1.0165  0.3405  0.2241
  814MOL0     C 7337  -0.137   2.456   4.981  0.2044 -0.0967  0.1550
  814MOL0     C 7338  -0.295   2.470   5.004  0.3101 -0.4735  0.8893
  814MOL0     C 7339  -0.342   2.599   5.066 -0.7422  0.0656 -0.6222
  814MOL0     O 7340  -0.476   2.584   5.096 -0.1001  0.1285  0.4163
  814MOL0     C 7341  -0.539   2.691   5.157  0.5668 -0.5404 -0.1044
  814MOL0     C 7342  -0.505   2.826   5.139 -0.7195  0.4752 -0.6663
  814MOL0     C 7343  -0.579   2.928   5.207 -0.4844 -0.1669  0.1113
  814MOL0     C 7344  -0.702   2.891   5.277 -0.1045  0.0959  0.0986
  814MOL0     C 7345  -0.794   2.996   5.326  0.0705  0.5282 -0.1477
  814MOL0     O 7346  -0.771   3.129   5.282  0.1384  0.5962  0.2525
  814MOL0     C 7347  -0.868   3.230   5.309 -1.0050 -0.0392  1.0589
  814MOL0     C 7348  -0.809   3.362   5.306  0.5455 -0.7486  0.3167
  814MOL0     C 7349  -0.890   3.470   5.329 -1.0810  0.1625  0.1211
  814MOL0     C 7350  -1.028   3.463   5.347  0.1927  0.2129  0.4690
  814MOL0     O 7351  -1.110   3.578   5.343 -0.1402  0.6199 -0.1560
  814MOL0     C 7352  -1.250   3.571   5.350  0.2339 -0.8515  0.1804
  814MOL0     C 7353  -1.310   3.714   5.359 -0.4728 -0.1250  0.3348
  814MOL0     C 7354  -1.462   3.696   5.389 -0.1154 -0.3605 -0.3198
  814MOL0     C 7355  -1.535   3.824   5.419  0.2441  0.9053 -0.6332
  814MOL0     C 7356  -1.680   3.801   5.487  0.0876 -0.3510 -0.3577
  814MOL0     C 7357  -1.677   3.802   5.641  1.1524  0.2094 -0.7128
  814MOL0     C 7358  -1.617   3.678   5.706  0.2287 -0.0399  0.7965
  814MOL0     C 7359  -1.696   3.548   5.677  0.1088 -0.1136 -0.0503
  814MOL0    Cl 7360  -1.654   3.444   5.819 -0.0631  0.0598  0.3602
  814MOL0     C 7361  -1.083   3.336   5.364  0.5021 -0.2265  0.8849
  814MOL0     C 7362  -1.005   3.216   5.341  0.9852  1.1315 -0.2041
  814MOL0     O 7363  -0.881   2.958   5.405 -0.2905  0.2545  0.1049
  814MOL0     C 7364  -0.737   2.754   5.286 -0.3250 -0.3238  0.0500
  814MOL0     C 7365  -0.654   2.658   5.229 -0.6774 -0.0831 -0.2687
  814MOL0     N 7366   0.171   2.496   4.964  0.7849  0.0680 -0.4945
  814MOL0     N 7367   0.292   2.516   4.913  0.3319  0.0754 -0.5786
  814MOL0     C 7368   1.259   2.231   4.818  0.8393  0.9114 -0.4361
  814MOL0     C 7369   1.381   2.183   4.879 -0.5628  0.0686 -0.7721
  814MOL0     C 7370   1.779   2.160   5.105 -0.4169  0.3547 -0.4068
  814MOL0     C 7371   1.886   2.232   5.053  0.2116  0.3636 -0.2048
  814MOL0     C 7372   2.022   2.225   5.094  0.5513 -0.4716  0.6039
  814MOL0     C 7373   2.050   2.123   5.191  0.7283  1.2592 -0.1591
  814MOL0     O 7374   2.164   2.113   5.259  0.2174 -0.3842  0.7188
  814MOL0     C 7375   2.277   2.139   5.167 -0.0608 -0.2992  1.6375
  814MOL0     C 7376   2.382   2.060   5.233 -0.1719 -0.1135  0.0837
  814MOL0     C 7377   2.513   2.090   5.157  0.0408  0.3597  0.2034
  814MOL0     C 7378   2.634   2.019   5.220  0.4453  0.0067  0.0941
  814MOL0     C 7379   2.762   2.036   5.145 -0.2895  0.4405 -1.0295
  814MOL0     C 7380   2.864   2.044   5.083  0.1041  0.0048  0.8763
  814MOL0     C 7381   1.946   2.062   5.257  0.1405  0.4861  0.3658
  814MOL0     C 7382   1.814   2.071   5.214  0.3308 -0.2215  0.3870
  814MOL0     H 7383   1.566   2.473   4.850  1.3113 -2.0435  0.3327
  814MOL0     H 7384   1.352   2.547   4.747 -3.5846 -0.9256  0.8928
  814MOL0     H 7385   1.122   2.582   4.734  2.0450 -0.8789  0.8001
  814MOL0     H 7386   1.130   2.510   4.886 -0.2863  1.6160 -0.0936
  814MOL0     H 7387   0.892   2.605   4.815 -0.9995 -0.1318  0.7677
  814MOL0     H 7388   0.905   2.440   4.883 -0.1527  0.8787 -0.0562
  814MOL0     H 7389   0.881   2.335   4.674 -3.0346 -0.5126 -2.4919
  814MOL0     H 7390   0.922   2.484   4.582 -2.6748  0.2360 -1.8832
  814MOL0     H 7391   0.724   2.578   4.619  0.2748 -0.2682 -0.1259
  814MOL0     H 7392   0.717   2.437   4.523  2.7506  1.9982 -0.7068
  814MOL0     H 7393   0.615   2.457   4.806 -1.2779  0.6246 -1.4552
  814MOL0     H 7394   0.651   2.302   4.764  2.2251  1.5252  1.1469
  814MOL0     H 7395   0.412   2.324   4.721 -0.0799  1.8772  1.2039
  814MOL0     H 7396   0.488   2.317   4.567 -2.5340 -2.1885  0.9600
  814MOL0     H 7397   0.481   2.560   4.528  0.0314  0.8370  1.1880
  814MOL0     H 7398   0.327   2.484   4.543 -0.3011  3.6475 -0.6914
  814MOL0     H 7399   0.366   2.714   4.650 -2.1050  0.1154  1.0953
  814MOL0     H 7400   0.475   2.648   4.765 -1.2925  1.1273 -0.2438
  814MOL0     H 7401   0.103   2.682   4.702 -1.9950  3.7087  3.6230
  814MOL0     H 7402  -0.113   2.585   4.811  0.3729  1.0183  0.6599
  814MOL0     H 7403  -0.077   2.661   4.966  0.3970 -0.5261  1.4300
  814MOL0     H 7404  -0.086   2.446   5.078  2.7171  0.1592 -1.0733
  814MOL0     H 7405  -0.123   2.363   4.926  1.8745 -1.5737  2.8857
  814MOL0     H 7406  -0.337   2.457   4.904  0.6019 -0.6460  0.7872
  814MOL0     H 7407  -0.320   2.385   5.068  4.1299 -2.0654  0.5697
  814MOL0     H 7408  -0.327   2.678   4.992  0.1273  2.4736  1.9638
  814MOL0     H 7409  -0.282   2.612   5.156  0.0863  1.0291 -1.2978
  814MOL0     H 7410  -0.419   2.852   5.078  0.3528  0.2623  0.6942
  814MOL0     H 7411  -0.553   3.033   5.201 -3.7396  0.6648 -1.8544
  814MOL0     H 7412  -0.701   3.369   5.300  0.9143 -1.3615  3.8834
  814MOL0     H 7413  -0.847   3.570   5.334 -0.8075  0.0024  3.0260
  814MOL0     H 7414  -1.283   3.518   5.441  0.9863  2.6749  2.7313
  814MOL0     H 7415  -1.296   3.536   5.257  3.2631 -1.3791 -1.2189
  814MOL0     H 7416  -1.289   3.771   5.269 -1.2111 -0.5903 -0.1455
  814MOL0     H 7417  -1.265   3.767   5.444 -2.5192  2.7399 -0.2106
  814MOL0     H 7418  -1.479   3.618   5.464  2.9959 -0.5719  0.3098
  814MOL0     H 7419  -1.515   3.669   5.297 -3.3751  6.5944 -1.0820
  814MOL0     H 7420  -1.478   3.884   5.491 -0.5128  0.2161  0.5777
  814MOL0     H 7421  -1.551   3.871   5.322  0.4121  1.7319 -0.2741
  814MOL0     H 7422  -1.736   3.717   5.444  1.7415 -2.8795  2.1275
  814MOL0     H 7423  -1.734   3.890   5.453 -0.1868 -0.1011  0.7159
  814MOL0     H 7424  -1.777   3.809   5.685  0.7277  1.2706 -1.7976
  814MOL0     H 7425  -1.627   3.894   5.672  4.0324 -1.2947 -0.4433
  814MOL0     H 7426  -1.513   3.680   5.672 -0.0094  3.1307 -0.0920
  814MOL0     H 7427  -1.624   3.702   5.812  0.2561 -1.0912  1.0498
  814MOL0     H 7428  -1.668   3.504   5.581 -0.9383 -1.5142  0.2470
  814MOL0     H 7429  -1.803   3.566   5.665  0.7499  2.8726 -2.6306
  814MOL0     H 7430  -1.189   3.316   5.365  0.7258 -1.8611 -1.3046
  814MOL0     H 7431  -1.046   3.116   5.354  2.3065  0.6439  0.4048
  814MOL0     H 7432  -0.825   2.717   5.337  0.6795 -1.7557  0.7933
  814MOL0     H 7433  -0.678   2.554   5.249  1.0499 -0.4424  0.1099
  814MOL0     H 7434   1.177   2.163   4.803  2.5270 -1.1991 -0.6033
  814MOL0     H 7435   1.375   2.087   4.928  1.4340  0.0917 -0.4054
  814MOL0     H 7436   1.856   2.312   4.986 -4.2709  0.6734  1.7926
  814MOL0     H 7437   2.104   2.276   5.045  1.2867 -4.1653 -2.4813
  814MOL0     H 7438   2.302   2.246   5.171 -1.4807  0.0071  3.2239
  814MOL0     H 7439   2.261   2.094   5.068  1.3702  2.3476  0.0604
  814MOL0     H 7440   2.388   2.100   5.334 -2.9461 -0.9414  0.6476
  814MOL0     H 7441   2.352   1.955   5.242  1.1652 -0.3731  2.2544
  814MOL0     H 7442   2.529   2.197   5.169  1.1252  0.3086 -0.6847
  814MOL0     H 7443   2.502   2.058   5.053  0.2436 -1.3767  0.6762
  814MOL0     H 7444   2.645   2.074   5.314  2.4331  2.6573 -1.5056
  814MOL0     H 7445   2.619   1.913   5.241  1.0923 -0.2555 -0.7009
  814MOL0     H 7446   2.965   2.047   5.047  0.8479 -1.6393  2.6689
  814MOL0     H 7447   1.975   1.990   5.334 -0.3637  3.6323  3.7803
  814MOL0     H 7448   1.744   2.016   5.276 -0.3524 -0.3705 -0.5047
  815MOL0     O 7449   5.615   6.084   9.330  0.5409 -0.3899  0.1364
  815MOL0     C 7450   5.698   5.991   9.344 -0.5039  0.1816 -0.0506
  815MOL0     O 7451   5.804   5.961   9.262 -0.5027  0.0047  0.7361
  815MOL0     C 7452   5.835   6.025   9.148 -1.1691 -0.2836  0.0437
  815MOL0     C 7453   5.965   6.047   9.105 -0.5696  0.4886 -1.2059
  815MOL0     C 7454   5.998   6.125   8.985  0.1888 -0.4544 -0.9647
  815MOL0     C 7455   5.898   6.195   8.908  0.4307 -0.9117 -0.5530
  815MOL0     O 7456   5.934   6.275   8.799  0.6969  0.4108  0.2027
  815MOL0     C 7457   6.032   6.223   8.701  1.0222 -0.9514 -0.4197
  815MOL0     C 7458   6.033   6.328   8.587  1.7588 -0.7919 -0.1283
  815MOL0     C 7459   6.142   6.307   8.493  0.0618 -0.1139  0.3184
  815MOL0     C 7460   6.152   6.392   8.359  0.2230  0.8777 -0.3710
  815MOL0     C 7461   6.287   6.389   8.298 -0.2568 -0.4453  1.7910
  815MOL0     C 7462   6.266   6.461   8.157  0.6560 -0.7272  0.9692
  815MOL0     C 7463   6.398   6.484   8.083 -0.0847  0.5140 -0.1899
  815MOL0     C 7464   6.386   6.507   7.933 -0.1156 -0.4872  0.5001
  815MOL0     N 7465   6.463   6.409   7.856  0.3155 -0.2223  0.5333
  815MOL0     C 7466   6.601   6.415   7.850  0.7686  0.2024  0.3451
  815MOL0     C 7467   6.637   6.293   7.784  0.9908 -0.6013 -0.3670
  815MOL0     C 7468   6.777   6.249   7.753 -0.2035  0.6091  0.5232
  815MOL0     C 7469   6.864   6.348   7.676 -0.2242  0.4309  0.1051
  815MOL0     C 7470   6.992   6.294   7.627  0.4651 -0.4918 -0.6388
  815MOL0     C 7471   7.039   6.384   7.511 -1.3820  1.6005 -0.0365
  815MOL0     O 7472   7.161   6.335   7.449  0.4362  1.1503 -0.2506
  815MOL0     C 7473   7.272   6.395   7.497 -0.6952 -0.1207  1.0145
  815MOL0     C 7474   7.299   6.420   7.627  0.2612  0.2264  0.1159
  815MOL0     C 7475   7.414   6.490   7.660  0.1376  0.6595  0.3139
  815MOL0     C 7476   7.499   6.551   7.568  0.0339  0.7409  0.7727
  815MOL0     C 7477   7.602   6.645   7.612  0.7969 -0.0828  0.0620
  815MOL0     O 7478   7.631   6.760   7.536  0.7509 -0.1205 -0.0842
  815MOL0     C 7479   7.748   6.819   7.544  0.7402 -0.2911 -0.6104
  815MOL0     C 7480   7.763   6.956   7.566  0.3991 -0.5332  0.1385
  815MOL0     C 7481   7.889   7.017   7.555 -0.6299 -0.2927  1.2068
  815MOL0     C 7482   8.006   6.934   7.547  0.4725 -0.4928  0.7979
  815MOL0     O 7483   8.134   6.983   7.552 -0.0769  0.1625  0.0106
  815MOL0     C 7484   8.161   7.100   7.629 -0.7725 -0.0477 -0.5894
  815MOL0     C 7485   8.304   7.166   7.584  0.2717 -0.2740 -0.5395
  815MOL0     C 7486   8.346   7.297   7.654  0.4997 -0.4473 -0.3881
  815MOL0     C 7487   8.296   7.305   7.799 -0.2446 -0.5509  0.4066
  815MOL0     C 7488   8.351   7.434   7.885  0.4010 -0.4995 -0.1651
  815MOL0     C 7489   8.474   7.423   7.970  0.0570 -0.5439  0.2311
  815MOL0     C 7490   8.495   7.549   8.065 -1.4485  0.4010  0.1308
  815MOL0     C 7491   8.546   7.675   7.983  0.2031  0.1171  0.6492
  815MOL0    Cl 7492   8.489   7.829   8.065 -0.2894 -0.2173 -1.0046
  815MOL0     C 7493   7.991   6.796   7.534 -0.7645  0.5591 -0.0246
  815MOL0     C 7494   7.859   6.738   7.535  0.1371  0.0706 -0.8146
  815MOL0     O 7495   7.645   6.624   7.721 -0.0712  0.2202 -0.1482
  815MOL0     C 7496   7.458   6.535   7.438 -0.8014 -0.4360 -0.8457
  815MOL0     C 7497   7.359   6.448   7.408 -1.1135 -0.0273  0.7668
  815MOL0     N 7498   6.522   6.226   7.758 -0.3915  0.2867  0.5688
  815MOL0     N 7499   6.423   6.288   7.809  0.4830  0.1714  0.5590
  815MOL0     C 7500   5.769   6.177   8.958 -0.2391 -0.5322  0.7582
  815MOL0     C 7501   5.736   6.087   9.064 -0.9523 -0.6906  0.1980
  815MOL0     C 7502   5.680   5.912   9.462 -0.5752  0.5093  0.4496
  815MOL0     C 7503   5.583   5.941   9.562 -0.2019 -0.6026  0.4120
  815MOL0     C 7504   5.576   5.868   9.676 -0.4572  0.8690  0.0202
  815MOL0     C 7505   5.668   5.767   9.701 -1.2632  0.6766 -0.2068
  815MOL0     O 7506   5.695   5.718   9.829  0.1141 -0.2842 -0.2627
  815MOL0     C 7507   5.606   5.765   9.937  0.0892  0.2693  0.6178
  815MOL0     C 7508   5.644   5.701  10.068  0.1569 -0.4890  0.1257
  815MOL0     C 7509   5.646   5.548  10.073  0.1033 -0.0032 -0.3576
  815MOL0     C 7510   5.504   5.500  10.109  0.2649  0.1568  0.1298
  815MOL0     C 7511   5.468   5.522  10.244  1.1249  0.4102  0.1717
  815MOL0     C 7512   5.438   5.555  10.361  0.4308  0.6452  1.5876
  815MOL0     C 7513   5.766   5.737   9.604 -0.2389 -0.5778 -0.4818
  815MOL0     C 7514   5.761   5.797   9.479 -0.3706 -0.4453 -0.0105
  815MOL0     H 7515   6.050   6.009   9.160 -0.8101  1.1101 -0.4010
  815MOL0     H 7516   6.099   6.144   8.952 -0.3880  1.9266 -1.5883
  815MOL0     H 7517   6.001   6.125   8.663  1.0172 -1.8777  1.7736
  815MOL0     H 7518   6.132   6.216   8.746  0.9915  1.8098  0.2455
  815MOL0     H 7519   6.043   6.429   8.629  1.3390 -0.8273  0.0651
  815MOL0     H 7520   5.937   6.318   8.534  1.3558 -1.4894  0.7160
  815MOL0     H 7521   6.130   6.199   8.475 -2.1299 -0.2541  2.2111
  815MOL0     H 7522   6.239   6.317   8.541  1.3778 -3.4754 -1.2888
  815MOL0     H 7523   6.084   6.358   8.280 -1.5000  2.4024  0.3845
  815MOL0     H 7524   6.130   6.496   8.385  1.8499  1.0297  0.5212
  815MOL0     H 7525   6.319   6.286   8.277 -2.3099 -0.6381 -1.0657
  815MOL0     H 7526   6.361   6.441   8.360 -1.7295  1.1464  2.2796
  815MOL0     H 7527   6.202   6.549   8.173 -1.3550 -1.7507 -0.8677
  815MOL0     H 7528   6.199   6.398   8.097 -0.0768 -1.0354  2.0672
  815MOL0     H 7529   6.437   6.578   8.126  1.1754  0.5466 -1.3465
  815MOL0     H 7530   6.460   6.398   8.107 -0.2666  0.4166 -0.0660
  815MOL0     H 7531   6.433   6.601   7.903 -1.0421  0.0988  0.8531
  815MOL0     H 7532   6.283   6.503   7.898 -0.3581  1.0640  0.9995
  815MOL0     H 7533   6.666   6.496   7.882  1.3608  0.7708 -2.1035
  815MOL0     H 7534   6.789   6.152   7.704  2.4106 -0.3548  2.8398
  815MOL0     H 7535   6.821   6.224   7.849  0.0598 -1.2487 -0.0478
  815MOL0     H 7536   6.884   6.445   7.722 -0.0177  0.4396 -0.0003
  815MOL0     H 7537   6.798   6.362   7.590  2.5957 -1.8172 -2.6798
  815MOL0     H 7538   7.061   6.294   7.712  1.2884  2.1803 -1.2221
  815MOL0     H 7539   6.975   6.191   7.593 -2.7745 -0.1379 -0.4914
  815MOL0     H 7540   7.042   6.489   7.543 -0.0148  1.4177  0.4897
  815MOL0     H 7541   6.961   6.379   7.434 -0.1010  2.7835 -1.4794
  815MOL0     H 7542   7.237   6.394   7.712  0.1533 -0.0465 -0.0403
  815MOL0     H 7543   7.448   6.501   7.762  0.0276  3.2840  0.1124
  815MOL0     H 7544   7.666   7.005   7.562 -0.5118 -2.3215 -1.0362
  815MOL0     H 7545   7.896   7.124   7.570 -1.0244  0.0577 -0.8291
  815MOL0     H 7546   8.179   7.073   7.734  2.0560 -3.0551 -1.6550
  815MOL0     H 7547   8.085   7.178   7.619 -1.7607 -0.8463  0.4196
  815MOL0     H 7548   8.307   7.183   7.476  0.8389 -2.3471 -0.8821
  815MOL0     H 7549   8.382   7.100   7.622  0.1685  0.2096  0.5418
  815MOL0     H 7550   8.319   7.388   7.600 -1.2502 -0.2164  0.7954
  815MOL0     H 7551   8.455   7.304   7.662  0.4150 -0.9672  2.0334
  815MOL0     H 7552   8.187   7.297   7.802 -0.1549 -1.5491  2.1371
  815MOL0     H 7553   8.320   7.213   7.853  0.8265 -0.4978  0.0496
  815MOL0     H 7554   8.274   7.458   7.959 -0.3512 -0.9661 -0.7693
  815MOL0     H 7555   8.351   7.518   7.814 -0.9640  0.2133  0.6284
  815MOL0     H 7556   8.564   7.419   7.908 -0.0513  3.2635 -0.4584
  815MOL0     H 7557   8.462   7.346   8.046 -0.6196  1.9983  2.8567
  815MOL0     H 7558   8.399   7.576   8.110 -1.8217 -0.1609 -0.3237
  815MOL0     H 7559   8.567   7.518   8.141 -0.4318 -1.5524 -1.5390
  815MOL0     H 7560   8.507   7.665   7.881 -0.5823 -4.9368  1.2062
  815MOL0     H 7561   8.656   7.675   7.982  0.2238 -0.8872 -0.8923
  815MOL0     H 7562   8.082   6.738   7.525 -0.1179  1.2800  1.4821
  815MOL0     H 7563   7.859   6.630   7.539  0.9693  0.0242 -1.6284
  815MOL0     H 7564   7.516   6.580   7.359 -0.4713  1.2294  0.2925
  815MOL0     H 7565   7.337   6.422   7.305 -0.0241 -1.6527  0.9072
  815MOL0     H 7566   5.687   6.208   8.895 -0.4617 -2.6538 -0.0696
  815MOL0     H 7567   5.635   6.080   9.102 -1.7379  1.5573 -1.2604
  815MOL0     H 7568   5.511   6.020   9.546 -1.0131 -1.0160  1.9383
  815MOL0     H 7569   5.486   5.895   9.731 -0.1014  3.6949 -0.6113
  815MOL0     H 7570   5.499   5.753   9.919  0.1981  0.0905  0.0983
  815MOL0     H 7571   5.635   5.870   9.951  1.3541 -0.1643  1.4562
  815MOL0     H 7572   5.743   5.741  10.093 -0.0343 -1.2777  2.4056
  815MOL0     H 7573   5.571   5.750  10.133  0.0577  0.8937 -1.0053
  815MOL0     H 7574   5.712   5.510  10.152  0.8583 -1.2119 -1.5350
  815MOL0     H 7575   5.683   5.502   9.981 -0.0674  2.1764 -1.5741
  815MOL0     H 7576   5.438   5.547  10.036  1.6970 -0.4661 -1.6508
  815MOL0     H 7577   5.495   5.392  10.097  1.4992 -0.3319  2.9313
  815MOL0     H 7578   5.420   5.578  10.464 -1.2697 -1.5309  1.8658
  815MOL0     H 7579   5.844   5.667   9.631  0.4283  1.0306  2.1354
  815MOL0     H 7580   5.832   5.756   9.407 -0.4752  2.8477 -2.1870
  816MOL0     O 7581   8.871   1.378   7.531  1.0295  0.1318  0.0463
  816MOL0     C 7582   8.893   1.258   7.549 -0.1745 -0.5106  0.3208
  816MOL0     O 7583   8.869   1.190   7.664  0.5443 -0.3216  0.1088
  816MOL0     C 7584   8.783   1.252   7.750  0.4854  0.5955 -0.9297
  816MOL0     C 7585   8.830   1.356   7.825  0.4144 -0.0523  0.1043
  816MOL0     C 7586   8.754   1.448   7.896  0.2599 -0.1801  0.5589
  816MOL0     C 7587   8.613   1.438   7.888 -0.3734  0.5021  0.6482
  816MOL0     O 7588   8.517   1.528   7.935 -0.4669 -0.2089  0.6899
  816MOL0     C 7589   8.550   1.640   8.028 -0.3783  0.1794 -0.5169
  816MOL0     C 7590   8.455   1.668   8.141  0.2292  0.4793 -0.2970
  816MOL0     C 7591   8.418   1.539   8.215  1.2712 -0.4478  0.6156
  816MOL0     C 7592   8.341   1.570   8.347  0.4634  0.7894  0.3358
  816MOL0     C 7593   8.309   1.441   8.421  0.8503  0.3129 -0.2280
  816MOL0     C 7594   8.201   1.460   8.541  0.5814 -0.1174  0.4845
  816MOL0     C 7595   8.062   1.473   8.480  0.4852 -0.8032 -0.0558
  816MOL0     C 7596   7.944   1.474   8.584  0.2216  0.5375 -0.1580
  816MOL0     N 7597   7.964   1.570   8.694  0.3320 -0.3294  0.4724
  816MOL0     C 7598   8.013   1.545   8.819 -0.7830 -0.2349 -1.1369
  816MOL0     C 7599   7.981   1.655   8.896  0.2139  0.1130 -0.8213
  816MOL0     C 7600   8.008   1.695   9.043 -0.2114 -0.6185 -0.1011
  816MOL0     C 7601   8.014   1.571   9.130 -0.1399  1.1494  0.2844
  816MOL0     C 7602   7.870   1.537   9.178  0.1292  0.0127  0.1149
  816MOL0     C 7603   7.822   1.600   9.314 -0.5541  0.1219 -0.3805
  816MOL0     O 7604   7.681   1.600   9.327  1.2978 -0.2851  0.0465
  816MOL0     C 7605   7.627   1.622   9.452  0.1785 -0.4121  0.7040
  816MOL0     C 7606   7.698   1.675   9.565 -0.0396  0.5935  0.5775
  816MOL0     C 7607   7.629   1.706   9.686 -0.3693  0.2305 -0.9152
  816MOL0     C 7608   7.494   1.661   9.695  0.1167  0.2566  0.6174
  816MOL0     C 7609   7.412   1.685   9.812  0.1491 -0.5217  0.2492
  816MOL0     O 7610   7.295   1.621   9.804 -0.6635 -0.6343 -0.2442
  816MOL0     C 7611   7.211   1.650   9.907  0.3160  0.0515 -0.4695
  816MOL0     C 7612   7.243   1.636  10.041 -0.1709  0.3587  0.2132
  816MOL0     C 7613   7.162   1.691  10.141 -0.2060 -0.1389 -0.2262
  816MOL0     C 7614   7.042   1.755  10.122  0.3820 -0.4161 -0.4856
  816MOL0     O 7615   6.973   1.806  10.226 -0.2300 -0.0916 -0.3123
  816MOL0     C 7616   6.965   1.730  10.345  0.4660 -0.5094 -1.1178
  816MOL0     C 7617   6.857   1.796  10.443 -0.3089  0.3956 -0.1386
  816MOL0     C 7618   6.830   1.695  10.565  0.2598 -0.5422 -0.0681
  816MOL0     C 7619   6.701   1.734  10.633  0.3329 -0.2444  0.4545
  816MOL0     C 7620   6.660   1.638  10.753 -0.4597 -0.4664  0.1877
  816MOL0     C 7621   6.518   1.657  10.816 -0.5114  0.7364  0.3961
  816MOL0     C 7622   6.471   1.802  10.819  0.5974  0.4090  0.2028
  816MOL0     C 7623   6.330   1.796  10.871  0.1255  0.6047  0.6005
  816MOL0    Cl 7624   6.285   1.955  10.957 -0.0240 -0.4223  0.1551
  816MOL0     C 7625   7.009   1.774   9.989  0.2773 -0.2547 -0.8345
  816MOL0     C 7626   7.090   1.718   9.883  0.0253 -0.0847 -0.0449
  816MOL0     O 7627   7.448   1.777   9.885 -1.1740 -0.2972  0.5134
  816MOL0     C 7628   7.430   1.595   9.584  0.3621  0.4805 -0.4572
  816MOL0     C 7629   7.497   1.567   9.462  0.5497 -0.3058 -0.7142
  816MOL0     N 7630   7.889   1.733   8.817  0.5513  0.6377 -0.5412
  816MOL0     N 7631   7.879   1.676   8.701 -1.0657  0.1743 -0.9784
  816MOL0     C 7632   8.560   1.316   7.830  0.1475  0.8607  0.6631
  816MOL0     C 7633   8.644   1.226   7.760  1.4443  0.3180 -0.5318
  816MOL0     C 7634   8.951   1.190   7.432  0.8775 -0.6663 -0.2581
  816MOL0     C 7635   9.021   1.256   7.329 -0.3609 -1.1200  0.2852
  816MOL0     C 7636   9.066   1.190   7.213 -1.0527  0.0732 -0.2942
  816MOL0     C 7637   9.067   1.049   7.213  0.0375 -0.2283  0.3638
  816MOL0     O 7638   9.119   0.996   7.100  0.2257  0.5153 -0.2547
  816MOL0     C 7639   9.151   0.851   7.088 -0.1231  0.7028 -1.4198
  816MOL0     C 7640   9.259   0.834   6.973 -0.9696  1.2721  0.3748
  816MOL0     C 7641   9.326   0.702   6.992  0.3812 -0.4323  0.1024
  816MOL0     C 7642   9.461   0.694   6.925  0.7538  0.7296 -0.3263
  816MOL0     C 7643   9.443   0.705   6.778  0.5577  0.3761  0.9763
  816MOL0     C 7644   9.413   0.704   6.661  0.1468 -0.6770  0.6037
  816MOL0     C 7645   8.996   0.981   7.312  0.5798 -0.5397 -0.3378
  816MOL0     C 7646   8.936   1.050   7.421  0.0733 -0.3918  0.1769
  816MOL0     H 7647   8.938   1.367   7.816  0.9146 -3.5114  0.4367
  816MOL0     H 7648   8.804   1.530   7.946 -1.3245  1.2999 -0.1672
  816MOL0     H 7649   8.572   1.733   7.975 -2.5297  1.5147  0.7676
  816MOL0     H 7650   8.637   1.616   8.090  1.1095  2.7718 -1.4549
  816MOL0     H 7651   8.369   1.708   8.085  0.0328 -0.6403 -0.8180
  816MOL0     H 7652   8.495   1.740   8.213 -1.6587 -2.1806  3.7409
  816MOL0     H 7653   8.515   1.496   8.240  1.2005 -0.3781  1.0081
  816MOL0     H 7654   8.363   1.478   8.143  0.9949  2.0729 -1.4818
  816MOL0     H 7655   8.404   1.638   8.405  0.5344  0.7857  0.2621
  816MOL0     H 7656   8.248   1.626   8.332 -0.7908 -1.0711  0.7800
  816MOL0     H 7657   8.402   1.413   8.470  0.2534 -1.0556  0.1827
  816MOL0     H 7658   8.277   1.365   8.350  1.0526 -0.5387  0.5702
  816MOL0     H 7659   8.218   1.547   8.605 -1.0503 -0.0687  0.8732
  816MOL0     H 7660   8.199   1.371   8.605 -1.4200  1.0521  2.1611
  816MOL0     H 7661   8.051   1.556   8.409  3.1790 -1.9099 -1.9089
  816MOL0     H 7662   8.055   1.387   8.413  0.2181  1.1044 -2.6418
  816MOL0     H 7663   7.945   1.374   8.628 -0.1680 -1.2600 -3.8420
  816MOL0     H 7664   7.846   1.481   8.534 -0.0456 -2.2628 -0.1532
  816MOL0     H 7665   8.077   1.462   8.844 -0.4776 -0.8408 -3.6802
  816MOL0     H 7666   7.945   1.767   9.096  0.4505  0.2099 -0.4096
  816MOL0     H 7667   8.110   1.735   9.051 -0.6584  0.2869  1.5132
  816MOL0     H 7668   8.081   1.589   9.215 -0.0415 -0.4945  0.5795
  816MOL0     H 7669   8.058   1.485   9.080  3.1602  2.0079  1.4474
  816MOL0     H 7670   7.794   1.554   9.101 -0.6631 -0.4998  0.7540
  816MOL0     H 7671   7.874   1.428   9.188 -0.7207 -0.0777 -0.3826
  816MOL0     H 7672   7.848   1.706   9.301 -0.7453  0.1292 -0.7247
  816MOL0     H 7673   7.882   1.556   9.394 -0.6331  1.7656  0.6355
  816MOL0     H 7674   7.803   1.697   9.552  0.3910 -1.4181  0.3826
  816MOL0     H 7675   7.670   1.761   9.770 -3.3489 -0.6800  1.2892
  816MOL0     H 7676   7.335   1.582  10.061  0.3307  0.4550 -1.6313
  816MOL0     H 7677   7.204   1.661  10.237  0.5735 -2.0296 -1.0932
  816MOL0     H 7678   7.053   1.719  10.409 -1.9604  0.5383  2.6778
  816MOL0     H 7679   6.938   1.627  10.320 -2.0192  0.3797 -2.3948
  816MOL0     H 7680   6.761   1.806  10.393 -0.3567  0.0008 -0.1319
  816MOL0     H 7681   6.892   1.895  10.475 -1.1775  0.2052  1.5359
  816MOL0     H 7682   6.920   1.700  10.627  1.8622  1.0069 -2.3478
  816MOL0     H 7683   6.813   1.591  10.538  1.9697 -0.3677 -2.0693
  816MOL0     H 7684   6.708   1.835  10.674  1.4127 -0.0353 -0.1911
  816MOL0     H 7685   6.627   1.736  10.552  0.8765 -1.6768 -0.1078
  816MOL0     H 7686   6.736   1.655  10.829  0.9577  1.5015 -1.5419
  816MOL0     H 7687   6.656   1.537  10.711  2.1636 -1.0525  1.1611
  816MOL0     H 7688   6.535   1.619  10.917  3.7198 -2.1953 -1.1114
  816MOL0     H 7689   6.449   1.598  10.755  1.2080  1.0383 -2.0211
  816MOL0     H 7690   6.538   1.853  10.888 -1.1435 -0.5759  2.7918
  816MOL0     H 7691   6.478   1.851  10.721 -0.5941 -3.0764 -1.8237
  816MOL0     H 7692   6.316   1.719  10.948  1.8766  1.4242  1.8061
  816MOL0     H 7693   6.252   1.779  10.797 -1.2643  3.6958  1.2085
  816MOL0     H 7694   6.916   1.828   9.970  0.1274 -0.0794  0.3212
  816MOL0     H 7695   7.054   1.742   9.784 -1.0822  1.9462  0.7803
  816MOL0     H 7696   7.331   1.552   9.591  0.9857 -0.7472  2.6787
  816MOL0     H 7697   7.447   1.516   9.381  0.4161  2.5496 -2.5548
  816MOL0     H 7698   8.451   1.308   7.830  0.0424 -0.4289 -3.9538
  816MOL0     H 7699   8.607   1.148   7.694  1.4080 -0.0201 -0.1157
  816MOL0     H 7700   9.032   1.364   7.336 -0.1260 -0.9922 -1.5226
  816MOL0     H 7701   9.113   1.240   7.129 -1.1141  1.6819  0.5932
  816MOL0     H 7702   9.061   0.797   7.056 -1.0404  1.2818  0.1010
  816MOL0     H 7703   9.169   0.805   7.185 -1.4153 -2.4728 -2.5454
  816MOL0     H 7704   9.205   0.838   6.878  0.3709 -3.7359 -0.9102
  816MOL0     H 7705   9.333   0.915   6.969 -1.0334  1.3048 -0.2807
  816MOL0     H 7706   9.263   0.628   6.941  0.7856 -0.1125 -0.8769
  816MOL0     H 7707   9.347   0.677   7.096 -0.1725  2.0148  0.8461
  816MOL0     H 7708   9.532   0.766   6.965  0.9808  0.2930  0.0678
  816MOL0     H 7709   9.511   0.598   6.943  0.2514  0.5645  0.2023
  816MOL0     H 7710   9.369   0.683   6.566  0.4239 -2.8098  0.8831
  816MOL0     H 7711   8.990   0.873   7.301 -4.6336 -0.3204 -2.2162
  816MOL0     H 7712   8.886   0.988   7.495  1.9446 -0.8490  1.1302
  817MOL0     O 7713   5.366   4.815   3.313  0.1895  0.5777  0.6100
  817MOL0     C 7714   5.463   4.775   3.243  0.2796  0.7768 -1.6836
  817MOL0     O 7715   5.571   4.698   3.293  1.3221  0.4053 -0.7303
  817MOL0     C 7716   5.597   4.673   3.427 -0.3086  0.3075  0.3345
  817MOL0     C 7717   5.512   4.696   3.536  1.2872  0.6103  0.8952
  817MOL0     C 7718   5.554   4.683   3.666 -1.4502 -0.0284 -0.2866
  817MOL0     C 7719   5.685   4.631   3.685 -0.1338 -0.5627 -0.3717
  817MOL0     O 7720   5.743   4.617   3.808  0.0595  0.2266 -0.5208
  817MOL0     C 7721   5.719   4.718   3.913 -0.3094  0.9896  0.5307
  817MOL0     C 7722   5.780   4.854   3.863  1.2661 -0.4778 -0.4000
  817MOL0     C 7723   5.802   4.953   3.986 -0.0589 -0.2872  0.3371
  817MOL0     C 7724   5.859   5.089   3.942 -0.3333  0.1388 -0.1635
  817MOL0     C 7725   5.884   5.172   4.070 -0.0650  0.4396  0.3240
  817MOL0     C 7726   6.000   5.273   4.055 -1.0721  0.0408  0.0036
  817MOL0     C 7727   6.039   5.348   4.183 -0.2290  0.2307  0.7236
  817MOL0     C 7728   5.933   5.433   4.260  0.9743 -0.1900  0.5781
  817MOL0     N 7729   5.899   5.556   4.188  1.3733  0.3834 -0.2907
  817MOL0     C 7730   5.875   5.674   4.261  0.0804 -0.0638  0.5955
  817MOL0     C 7731   5.848   5.765   4.163 -0.1249 -0.1449  0.4316
  817MOL0     C 7732   5.793   5.911   4.178 -0.5790 -0.9691  0.3014
  817MOL0     C 7733   5.900   6.021   4.152  0.4365  0.1861  0.1228
  817MOL0     C 7734   6.022   6.011   4.251 -0.7353 -0.4580 -0.1118
  817MOL0     C 7735   6.152   6.090   4.201 -0.3217 -0.5815 -0.0174
  817MOL0     O 7736   6.114   6.230   4.211  1.2117 -0.0798  0.1781
  817MOL0     C 7737   6.176   6.328   4.145  0.0657  0.1704  0.3360
  817MOL0     C 7738   6.254   6.308   4.028 -0.2776  0.6736  0.2360
  817MOL0     C 7739   6.309   6.413   3.956 -0.0274  0.0583  0.6429
  817MOL0     C 7740   6.270   6.540   3.985 -1.2040  0.0326  1.2907
  817MOL0     C 7741   6.322   6.657   3.895  0.0327  0.0196  0.6645
  817MOL0     O 7742   6.419   6.629   3.807 -0.5800  0.1491  0.2840
  817MOL0     C 7743   6.476   6.720   3.735 -0.6010 -0.4190  0.4741
  817MOL0     C 7744   6.408   6.810   3.656  0.5146  0.1668  0.5047
  817MOL0     C 7745   6.482   6.892   3.569 -0.2335 -0.0125  0.5731
  817MOL0     C 7746   6.622   6.899   3.565 -0.8241  0.7872  0.2359
  817MOL0     O 7747   6.703   6.982   3.485 -0.0934 -0.1657 -0.0834
  817MOL0     C 7748   6.666   7.117   3.506 -0.1112 -0.2392 -0.2666
  817MOL0     C 7749   6.755   7.208   3.421 -0.4947 -0.8558  0.7264
  817MOL0     C 7750   6.709   7.352   3.429 -0.4229 -0.4096  0.4307
  817MOL0     C 7751   6.804   7.439   3.339 -0.3786  0.4586  0.6597
  817MOL0     C 7752   6.771   7.585   3.353  0.5294 -0.2361  0.1521
  817MOL0     C 7753   6.860   7.680   3.265  0.8678  0.0839 -0.3922
  817MOL0     C 7754   7.012   7.687   3.308  0.7831  0.4332  0.2896
  817MOL0     C 7755   7.066   7.837   3.314 -0.1870 -0.9246 -0.2177
  817MOL0    Cl 7756   7.125   7.916   3.159 -0.2348 -0.2196 -0.1264
  817MOL0     C 7757   6.682   6.793   3.640 -0.8317 -0.1040  0.1211
  817MOL0     C 7758   6.617   6.706   3.729  0.4571  0.0913 -0.4664
  817MOL0     O 7759   6.254   6.757   3.892  1.2638  0.6280 -0.5778
  817MOL0     C 7760   6.177   6.563   4.094  0.0658 -0.2757 -0.3541
  817MOL0     C 7761   6.135   6.458   4.164  0.6980  0.4564 -0.1181
  817MOL0     N 7762   5.869   5.708   4.040 -0.8345 -0.5392  0.7962
  817MOL0     N 7763   5.903   5.588   4.054 -0.7154  0.0619  0.4652
  817MOL0     C 7764   5.774   4.595   3.576 -0.1918 -0.3211 -0.2058
  817MOL0     C 7765   5.729   4.618   3.445 -0.1173 -1.1202 -0.2864
  817MOL0     C 7766   5.478   4.831   3.106 -0.6508 -0.1502 -0.0734
  817MOL0     C 7767   5.580   4.775   3.022  0.9563 -0.2502 -0.1164
  817MOL0     C 7768   5.604   4.825   2.891  0.2947  0.8531  0.2282
  817MOL0     C 7769   5.531   4.941   2.851  0.3110  0.3807  1.0445
  817MOL0     O 7770   5.555   4.985   2.729 -0.3691 -0.1296  0.8789
  817MOL0     C 7771   5.645   5.089   2.704  0.5228 -0.5138 -1.1042
  817MOL0     C 7772   5.792   5.036   2.683 -0.2774 -0.4558 -0.5458
  817MOL0     C 7773   5.904   5.146   2.698  0.7372  0.5286  0.6654
  817MOL0     C 7774   5.879   5.259   2.601 -0.6260 -1.2277 -0.0638
  817MOL0     C 7775   5.903   5.228   2.462 -0.6864  0.4780  0.1981
  817MOL0     C 7776   5.920   5.192   2.346  0.6159 -0.2336 -0.0272
  817MOL0     C 7777   5.419   4.982   2.927  0.9638 -0.3527 -0.4306
  817MOL0     C 7778   5.390   4.931   3.056 -0.5481 -0.6570 -0.2524
  817MOL0     H 7779   5.411   4.735   3.534  1.6490  1.6296  1.9783
  817MOL0     H 7780   5.488   4.703   3.750  0.2656  4.4217  0.2475
  817MOL0     H 7781   5.778   4.665   3.989  0.7157  0.4254 -0.6096
  817MOL0     H 7782   5.615   4.718   3.944 -0.5688 -0.3747 -0.2449
  817MOL0     H 7783   5.709   4.898   3.792 -2.1019  0.7607  3.2976
  817MOL0     H 7784   5.873   4.830   3.811  1.6909 -0.0482  0.1513
  817MOL0     H 7785   5.875   4.918   4.059 -0.9323  0.2996  1.5077
  817MOL0     H 7786   5.703   4.979   4.024  0.5265  5.0955 -0.9825
  817MOL0     H 7787   5.951   5.090   3.884 -0.8202  1.1100 -0.9506
  817MOL0     H 7788   5.778   5.136   3.885 -0.1915  0.8546  0.2020
  817MOL0     H 7789   5.907   5.109   4.156 -1.4380  1.9204  1.8380
  817MOL0     H 7790   5.799   5.235   4.094 -0.4406  0.6064 -1.2917
  817MOL0     H 7791   5.978   5.345   3.976  0.4829  1.7854  1.0851
  817MOL0     H 7792   6.095   5.224   4.033 -0.5106 -0.9532  3.9503
  817MOL0     H 7793   6.069   5.272   4.255  0.7534  0.5178  0.6398
  817MOL0     H 7794   6.126   5.411   4.162 -1.4386  1.1329 -2.1873
  817MOL0     H 7795   5.980   5.474   4.350 -0.9533  0.1142  1.5061
  817MOL0     H 7796   5.846   5.375   4.294  2.5131 -3.0913 -0.0785
  817MOL0     H 7797   5.865   5.695   4.367 -0.2493 -0.4083  0.6360
  817MOL0     H 7798   5.742   5.930   4.273  1.3226 -1.2841  1.4308
  817MOL0     H 7799   5.716   5.933   4.103 -0.9935 -3.6994 -0.1992
  817MOL0     H 7800   5.847   6.116   4.163  1.5606  1.2985 -2.8965
  817MOL0     H 7801   5.924   6.012   4.046 -0.5221 -1.5102  0.0080
  817MOL0     H 7802   5.988   6.053   4.346 -0.5967  1.3212 -0.7935
  817MOL0     H 7803   6.048   5.906   4.267 -2.1657 -1.0297 -1.3697
  817MOL0     H 7804   6.181   6.065   4.099 -1.1077 -1.8766  0.0628
  817MOL0     H 7805   6.236   6.068   4.268  1.0821 -0.8536 -1.8067
  817MOL0     H 7806   6.279   6.208   3.994  2.1576  0.4853  2.2315
  817MOL0     H 7807   6.378   6.394   3.875  0.6035  2.3843  0.5600
  817MOL0     H 7808   6.301   6.824   3.660  0.2144 -1.4736 -0.8527
  817MOL0     H 7809   6.431   6.967   3.510 -0.2645 -1.8590 -1.8941
  817MOL0     H 7810   6.653   7.144   3.611  1.7594  0.6223 -0.2012
  817MOL0     H 7811   6.572   7.119   3.449 -0.1517 -1.4255 -0.2554
  817MOL0     H 7812   6.767   7.182   3.316  3.9067  1.5620  0.4118
  817MOL0     H 7813   6.854   7.197   3.465  0.4848 -2.4683 -1.6649
  817MOL0     H 7814   6.702   7.397   3.528 -1.6453 -2.1745  1.1900
  817MOL0     H 7815   6.607   7.364   3.389 -0.0964  3.5519  0.3638
  817MOL0     H 7816   6.909   7.436   3.369  0.4075 -3.1956 -1.7963
  817MOL0     H 7817   6.794   7.415   3.233  4.3486 -1.8594  0.4711
  817MOL0     H 7818   6.782   7.613   3.458 -2.6150 -1.2252  0.8476
  817MOL0     H 7819   6.666   7.595   3.323  0.1084 -0.4907  1.4922
  817MOL0     H 7820   6.824   7.783   3.267  0.1308 -0.1461 -1.3822
  817MOL0     H 7821   6.845   7.661   3.159 -0.7533  2.4241 -0.6612
  817MOL0     H 7822   7.020   7.636   3.405  1.0963 -0.5127 -0.2153
  817MOL0     H 7823   7.077   7.642   3.232 -0.9365  1.4419 -1.8850
  817MOL0     H 7824   7.151   7.834   3.382  0.0358 -1.5088 -0.5177
  817MOL0     H 7825   6.982   7.905   3.332  0.3358  0.8634 -3.6279
  817MOL0     H 7826   6.791   6.790   3.638 -0.8448 -0.5505 -0.0941
  817MOL0     H 7827   6.666   6.614   3.762  1.1890  1.0248  1.1607
  817MOL0     H 7828   6.147   6.667   4.108 -3.1654 -0.8972 -1.7947
  817MOL0     H 7829   6.064   6.463   4.245  1.1116 -2.9012  0.5753
  817MOL0     H 7830   5.873   4.551   3.586  0.7576  1.5545 -0.6885
  817MOL0     H 7831   5.786   4.612   3.354  2.6650 -0.6691  1.3300
  817MOL0     H 7832   5.623   4.679   3.049  2.1941 -0.2028 -1.7451
  817MOL0     H 7833   5.670   4.781   2.817  0.1667 -0.8022  1.0656
  817MOL0     H 7834   5.634   5.162   2.785 -0.2655  0.3137 -1.9260
  817MOL0     H 7835   5.611   5.150   2.620 -0.2110  0.4033 -0.1598
  817MOL0     H 7836   5.817   4.953   2.751 -2.5145 -0.3160  0.5443
  817MOL0     H 7837   5.808   4.992   2.584  3.9339  1.0343 -0.7140
  817MOL0     H 7838   6.005   5.107   2.683  1.3228  1.3229  2.3224
  817MOL0     H 7839   5.913   5.181   2.801 -1.6034 -2.1234  1.9114
  817MOL0     H 7840   5.785   5.315   2.609 -0.7208 -1.2585 -0.8810
  817MOL0     H 7841   5.956   5.332   2.627  1.6564 -3.6741  0.4407
  817MOL0     H 7842   5.938   5.152   2.249  0.8806  1.7787 -0.8615
  817MOL0     H 7843   5.360   5.069   2.900  1.9684  0.8697  1.0847
  817MOL0     H 7844   5.303   4.963   3.114  0.7443  0.8654  0.9202
  818MOL0     O 7845  10.157   7.223   0.627 -0.0477  0.2875 -0.7866
  818MOL0     C 7846  10.199   7.124   0.562 -0.3587 -0.3207  0.0623
  818MOL0     O 7847  10.165   6.990   0.569  0.0490  0.1229  1.0673
  818MOL0     C 7848  10.048   6.973   0.634 -0.2646  0.8251 -0.8521
  818MOL0     C 7849   9.933   6.931   0.584 -0.2750  0.3364 -0.1484
  818MOL0     C 7850   9.817   6.914   0.661 -0.0747  0.8496 -0.4235
  818MOL0     C 7851   9.821   6.925   0.800 -0.2283  0.6683 -0.7924
  818MOL0     O 7852   9.708   6.901   0.869  1.0914  0.5779  0.0733
  818MOL0     C 7853   9.714   6.911   1.014 -0.2589  0.0667 -0.1719
  818MOL0     C 7854   9.574   6.883   1.071  0.8173 -0.6019  0.1890
  818MOL0     C 7855   9.575   6.869   1.230  0.2525 -0.1568  0.7898
  818MOL0     C 7856   9.631   6.998   1.295  0.0529  0.2690  0.1856
  818MOL0     C 7857   9.587   7.012   1.445 -0.1643 -0.0193  0.4891
  818MOL0     C 7858   9.431   7.032   1.461  0.0274 -1.2817 -0.8499
  818MOL0     C 7859   9.398   7.067   1.605  0.8233 -0.5165 -0.1196
  818MOL0     C 7860   9.416   6.945   1.700  0.7319  0.8679  0.7492
  818MOL0     N 7861   9.340   6.964   1.824 -0.2562 -0.0438  0.0914
  818MOL0     C 7862   9.202   6.987   1.836  0.2936  0.2614 -0.2345
  818MOL0     C 7863   9.189   6.980   1.977  0.2269  0.1790  0.0411
  818MOL0     C 7864   9.069   6.984   2.051  0.2335  1.0712 -0.0529
  818MOL0     C 7865   8.966   7.090   1.995 -0.3614 -1.5381  0.6044
  818MOL0     C 7866   8.860   7.120   2.098  0.9783  0.8994  0.2961
  818MOL0     C 7867   8.837   7.267   2.121  0.3482  0.5607 -0.2824
  818MOL0     O 7868   8.839   7.306   2.256 -0.1528  0.2454 -0.0523
  818MOL0     C 7869   8.872   7.432   2.288 -0.0646 -0.1942 -0.2768
  818MOL0     C 7870   8.845   7.548   2.209 -1.0584 -0.2215 -0.6107
  818MOL0     C 7871   8.907   7.670   2.233  0.2422  0.3797  0.5791
  818MOL0     C 7872   8.977   7.695   2.357  0.1856  0.0055 -0.0494
  818MOL0     C 7873   8.998   7.835   2.404 -0.6574 -0.2977 -1.0446
  818MOL0     O 7874   8.979   7.942   2.315 -0.9654 -0.7590  0.5922
  818MOL0     C 7875   8.986   8.067   2.361 -0.8584  0.2903  0.3776
  818MOL0     C 7876   9.104   8.130   2.384  0.2127  0.0864 -0.4821
  818MOL0     C 7877   9.114   8.266   2.424 -0.6154  0.0219 -0.1786
  818MOL0     C 7878   9.004   8.348   2.466 -0.2458  1.0610 -0.5826
  818MOL0     O 7879   9.002   8.473   2.512 -0.1440  0.1188 -0.4623
  818MOL0     C 7880   9.121   8.562   2.502  0.0198 -0.0619  0.6365
  818MOL0     C 7881   9.096   8.710   2.478  0.3334 -0.2181  0.5881
  818MOL0     C 7882   9.055   8.742   2.340 -0.5765 -0.2099  1.2755
  818MOL0     C 7883   9.025   8.891   2.322  0.4461 -0.9328 -0.3800
  818MOL0     C 7884   8.997   8.920   2.171 -1.0918  0.4589 -0.4255
  818MOL0     C 7885   8.972   9.066   2.113 -0.3646 -0.5157  0.0042
  818MOL0     C 7886   8.909   9.063   1.972  0.1099 -0.3385 -0.7337
  818MOL0     C 7887   8.912   9.205   1.905 -0.4442 -0.4207 -0.0404
  818MOL0    Cl 7888   8.773   9.243   1.804 -0.2910  0.2092 -0.1964
  818MOL0     C 7889   8.879   8.282   2.435 -0.3860 -1.2933 -0.4848
  818MOL0     C 7890   8.874   8.155   2.388 -0.1952  0.8071  0.4314
  818MOL0     O 7891   9.030   7.849   2.523 -0.3535 -0.3514  0.2164
  818MOL0     C 7892   8.975   7.582   2.454 -0.3938 -0.5151  0.1767
  818MOL0     C 7893   8.931   7.455   2.410  0.1102  0.8783 -0.3072
  818MOL0     N 7894   9.305   6.957   2.037  0.2185 -0.3377  1.1529
  818MOL0     N 7895   9.401   6.975   1.953 -0.1120 -0.6825  0.7839
  818MOL0     C 7896   9.942   6.962   0.857 -1.5957  0.3678 -0.0082
  818MOL0     C 7897  10.053   6.991   0.775  0.1918  0.0907  0.2747
  818MOL0     C 7898  10.305   7.150   0.460  0.4078  0.0988  0.5380
  818MOL0     C 7899  10.324   7.065   0.351 -0.6990 -0.4704  0.7200
  818MOL0     C 7900  10.415   7.099   0.257  0.5610 -0.8198 -0.1773
  818MOL0     C 7901  10.498   7.211   0.269  0.0080 -0.2759  0.0984
  818MOL0     O 7902  10.590   7.244   0.168  0.1595 -0.2035 -0.0687
  818MOL0     C 7903  10.543   7.223   0.035 -0.6657 -0.3713 -0.1838
  818MOL0     C 7904  10.642   7.299  -0.059  0.5366 -0.0528 -0.1826
  818MOL0     C 7905  10.778   7.240  -0.049 -0.1323  0.4520  0.4207
  818MOL0     C 7906  10.880   7.301  -0.141 -0.4997  1.0604  0.1649
  818MOL0     C 7907  11.025   7.280  -0.108 -0.6679 -0.4858  0.4215
  818MOL0     C 7908  11.139   7.261  -0.083 -1.0729 -0.1862  0.7499
  818MOL0     C 7909  10.474   7.303   0.374  0.3516 -0.3192  0.5662
  818MOL0     C 7910  10.387   7.272   0.475  0.7501  0.8866 -0.0231
  818MOL0     H 7911   9.922   6.913   0.477  0.2087  1.1238 -0.3340
  818MOL0     H 7912   9.718   6.889   0.625 -0.3866  2.7065 -1.0028
  818MOL0     H 7913   9.755   7.009   1.040  0.3717 -0.6302  1.6453
  818MOL0     H 7914   9.781   6.830   1.048 -0.8508 -0.0952  0.6516
  818MOL0     H 7915   9.514   6.800   1.034  0.1404 -1.2700  2.5864
  818MOL0     H 7916   9.520   6.975   1.048 -1.4103 -1.3461  2.0223
  818MOL0     H 7917   9.648   6.792   1.256 -1.3655 -1.5859  1.3226
  818MOL0     H 7918   9.477   6.844   1.270  2.4252 -4.1787  4.3473
  818MOL0     H 7919   9.740   6.988   1.282 -0.1766 -1.3099 -0.7322
  818MOL0     H 7920   9.591   7.085   1.242  3.1264  1.8445  0.1757
  818MOL0     H 7921   9.645   7.097   1.482  4.0652 -1.7909 -1.4749
  818MOL0     H 7922   9.633   6.922   1.487  2.2098  1.4128  1.2025
  818MOL0     H 7923   9.370   6.953   1.417  2.1450 -3.7388  0.4034
  818MOL0     H 7924   9.404   7.127   1.413  0.0395 -0.1102  1.3132
  818MOL0     H 7925   9.465   7.146   1.638 -0.2187  0.2076  0.3119
  818MOL0     H 7926   9.294   7.099   1.617  1.4390  0.9593  1.6998
  818MOL0     H 7927   9.517   6.917   1.730  1.4084  1.0359 -1.2162
  818MOL0     H 7928   9.367   6.857   1.657  0.1969  1.3858  0.2712
  818MOL0     H 7929   9.124   7.001   1.762  0.7462  0.9254 -0.5951
  818MOL0     H 7930   9.094   7.001   2.156 -0.8781  2.3526  0.0407
  818MOL0     H 7931   9.011   6.892   2.042  0.1408  1.0993  0.2475
  818MOL0     H 7932   8.925   7.054   1.900  0.7183  0.2118 -0.6070
  818MOL0     H 7933   9.038   7.171   1.976  1.3656 -3.5566 -2.4803
  818MOL0     H 7934   8.765   7.081   2.061 -0.2594  0.9030  3.1892
  818MOL0     H 7935   8.884   7.071   2.194 -2.5343 -4.2581 -1.0372
  818MOL0     H 7936   8.739   7.297   2.082 -0.5989 -1.1702  0.6621
  818MOL0     H 7937   8.915   7.321   2.066  3.4015 -3.6708 -0.6303
  818MOL0     H 7938   8.806   7.552   2.108  1.5828  0.2406 -1.6925
  818MOL0     H 7939   8.882   7.753   2.167 -0.3958 -1.1386 -1.1591
  818MOL0     H 7940   9.194   8.095   2.336  1.8758  0.7940  1.8937
  818MOL0     H 7941   9.209   8.317   2.434  0.1665 -1.2326 -0.9325
  818MOL0     H 7942   9.183   8.527   2.419  0.0128 -1.7793  1.3139
  818MOL0     H 7943   9.170   8.547   2.598 -4.4144  3.0490  3.8290
  818MOL0     H 7944   9.186   8.768   2.499 -0.8565  2.0815 -0.2925
  818MOL0     H 7945   9.020   8.748   2.547  0.3045 -0.4150  0.6623
  818MOL0     H 7946   8.964   8.685   2.318 -1.1672  0.4699  1.8937
  818MOL0     H 7947   9.122   8.712   2.259  1.8352  2.2735  2.1873
  818MOL0     H 7948   8.947   8.932   2.387  1.2897  0.9496 -0.5128
  818MOL0     H 7949   9.108   8.955   2.351  0.3511 -1.0628  0.1992
  818MOL0     H 7950   8.903   8.869   2.146 -2.2537  2.2501  0.0335
  818MOL0     H 7951   9.087   8.891   2.117  1.3406  1.7429  2.5874
  818MOL0     H 7952   9.064   9.126   2.111  0.6962 -2.0641 -1.7539
  818MOL0     H 7953   8.896   9.107   2.180 -0.2966 -3.7548  2.3134
  818MOL0     H 7954   8.957   8.986   1.910  1.6096  0.8276 -1.0625
  818MOL0     H 7955   8.805   9.030   1.974 -0.3621  1.1208 -0.0575
  818MOL0     H 7956   9.007   9.224   1.854  0.1323 -0.8924  0.8512
  818MOL0     H 7957   8.917   9.273   1.990  1.6045  0.6861 -0.9565
  818MOL0     H 7958   8.790   8.344   2.437  0.5913  0.3440 -3.2475
  818MOL0     H 7959   8.773   8.123   2.363 -0.1834 -0.2527  1.6148
  818MOL0     H 7960   9.010   7.591   2.557 -1.8056  2.0970  0.5114
  818MOL0     H 7961   8.939   7.365   2.470 -0.4728  0.7582 -0.4057
  818MOL0     H 7962   9.964   6.964   0.963  0.2735  2.4429 -0.3830
  818MOL0     H 7963  10.145   7.035   0.814 -0.5419  1.8125  0.1429
  818MOL0     H 7964  10.275   6.967   0.348  0.2386 -1.0055  2.0135
  818MOL0     H 7965  10.414   7.032   0.172 -1.7154 -1.6113  0.4062
  818MOL0     H 7966  10.445   7.270   0.025 -0.5175  0.2512  1.0069
  818MOL0     H 7967  10.550   7.117   0.009  0.8399 -0.5594  0.8738
  818MOL0     H 7968  10.604   7.302  -0.162 -0.2094  1.5947  0.1021
  818MOL0     H 7969  10.647   7.402  -0.022  2.2145  0.1217 -0.8225
  818MOL0     H 7970  10.779   7.131  -0.061  1.8815  0.5011 -0.2435
  818MOL0     H 7971  10.806   7.259   0.055 -2.0676  1.8806  0.7263
  818MOL0     H 7972  10.852   7.252  -0.235 -2.1147  0.3574  0.9748
  818MOL0     H 7973  10.867   7.410  -0.148  2.9434  1.5032 -1.1895
  818MOL0     H 7974  11.240   7.238  -0.054 -1.8982 -2.0776  2.3423
  818MOL0     H 7975  10.536   7.392   0.381 -1.2813  0.7337  2.7141
  818MOL0     H 7976  10.377   7.340   0.560  3.4376 -0.8143  1.8108
  819MOL0     O 7977  10.574   9.879   9.040  0.8270 -0.2323 -0.2616
  819MOL0     C 7978  10.623   9.905   8.927 -0.3405  0.5056 -0.6686
  819MOL0     O 7979  10.720   9.999   8.898  0.2643  0.2587 -0.0081
  819MOL0     C 7980  10.782  10.056   9.007 -0.2065  0.8271 -0.9459
  819MOL0     C 7981  10.831   9.985   9.115  0.1688  0.1710 -1.0565
  819MOL0     C 7982  10.888  10.036   9.228  0.3799 -1.1274 -1.1351
  819MOL0     C 7983  10.912  10.174   9.242 -0.6642 -0.8219 -0.0314
  819MOL0     O 7984  10.959  10.238   9.352 -0.0502  1.0943  0.6946
  819MOL0     C 7985  11.075  10.181   9.407 -0.6397  0.6101 -0.6373
  819MOL0     C 7986  11.110  10.285   9.517 -0.6501 -0.5795  0.3852
  819MOL0     C 7987  11.253  10.284   9.551  0.1964  0.4660  0.1070
  819MOL0     C 7988  11.305  10.156   9.626  0.0614 -0.2298 -0.7857
  819MOL0     C 7989  11.455  10.172   9.644  0.2257 -1.0424  0.5981
  819MOL0     C 7990  11.513  10.063   9.727 -0.0852 -0.0148  0.1029
  819MOL0     C 7991  11.667  10.082   9.759  0.2816  1.3630  0.9288
  819MOL0     C 7992  11.722   9.980   9.861 -0.2892  0.0251 -0.0440
  819MOL0     N 7993  11.863   9.998   9.873  0.1463  1.2543 -0.2076
  819MOL0     C 7994  11.959   9.907   9.821  0.1905  0.2484 -0.5856
  819MOL0     C 7995  12.073   9.971   9.849 -0.4003 -0.4045  0.1099
  819MOL0     C 7996  12.205   9.929   9.798 -0.5710  0.2349 -0.0509
  819MOL0     C 7997  12.246   9.800   9.881  0.0318 -0.1525  1.5329
  819MOL0     C 7998  12.372   9.746   9.818 -0.4198 -0.2395  0.5973
  819MOL0     C 7999  12.386   9.595   9.836 -0.0194  0.3944  0.1285
  819MOL0     O 8000  12.521   9.540   9.809 -0.1150 -0.4607  0.0723
  819MOL0     C 8001  12.613   9.566   9.905 -0.4606 -0.1195  0.5600
  819MOL0     C 8002  12.597   9.585  10.045 -0.1295  0.2483  0.0279
  819MOL0     C 8003  12.702   9.600  10.137 -0.5809 -0.2282 -0.6319
  819MOL0     C 8004  12.832   9.629  10.081 -0.3544  0.8669  0.3313
  819MOL0     C 8005  12.947   9.659  10.162 -0.4623  1.0608  0.1496
  819MOL0     O 8006  13.060   9.691  10.095  0.0957  0.0260  1.2976
  819MOL0     C 8007  13.169   9.731  10.167  0.1245 -0.0245  0.0495
  819MOL0     C 8008  13.241   9.836  10.114  0.5983 -0.2962  0.8507
  819MOL0     C 8009  13.354   9.889  10.177 -0.5386 -0.5891 -0.2507
  819MOL0     C 8010  13.396   9.839  10.298 -0.0741  0.0177 -0.5023
  819MOL0     O 8011  13.509   9.881  10.376  0.9257 -0.2812  0.5905
  819MOL0     C 8012  13.623   9.935  10.309  0.0873 -0.1688  0.2529
  819MOL0     C 8013  13.718   9.829  10.258 -0.6096  0.5680 -0.8745
  819MOL0     C 8014  13.681   9.758  10.126  0.4571 -0.3978  0.6196
  819MOL0     C 8015  13.696   9.854  10.006  0.0292 -0.9599  0.5924
  819MOL0     C 8016  13.657   9.807   9.864  0.6751  0.3578 -0.7492
  819MOL0     C 8017  13.505   9.770   9.842 -1.3191  0.8220 -0.0288
  819MOL0     C 8018  13.479   9.678   9.715  0.0547  0.1382 -0.5999
  819MOL0     C 8019  13.339   9.634   9.706 -0.9278 -1.0418 -0.7083
  819MOL0    Cl 8020  13.327   9.533   9.557  0.4766 -0.2239  0.4154
  819MOL0     C 8021  13.327   9.735  10.354  0.3386 -0.1531 -0.8354
  819MOL0     C 8022  13.221   9.669  10.285  0.1952  0.8437  0.2888
  819MOL0     O 8023  12.925   9.664  10.284 -0.0458  0.4282  0.0227
  819MOL0     C 8024  12.852   9.595   9.945  0.7083  0.3118 -0.3339
  819MOL0     C 8025  12.742   9.554   9.868  0.4781  0.9600  0.2800
  819MOL0     N 8026  12.054  10.074   9.933 -0.3222  0.5619  0.0907
  819MOL0     N 8027  11.927  10.087   9.949  0.6910  0.9617  0.1624
  819MOL0     C 8028  10.864  10.251   9.124  0.1249 -0.3125  0.5072
  819MOL0     C 8029  10.796  10.194   9.019  0.4013 -0.4960 -0.6644
  819MOL0     C 8030  10.554   9.841   8.809 -0.2862  0.2425 -0.7749
  819MOL0     C 8031  10.424   9.794   8.818  0.3531 -0.2095 -0.5926
  819MOL0     C 8032  10.357   9.725   8.713 -1.5434 -0.4733 -0.2385
  819MOL0     C 8033  10.420   9.715   8.588 -2.0215 -0.4338  0.1816
  819MOL0     O 8034  10.365   9.626   8.501 -0.1400 -0.1128  0.4955
  819MOL0     C 8035  10.436   9.575   8.383  0.0977 -0.9388  0.3724
  819MOL0     C 8036  10.354   9.466   8.319 -0.1459  0.5007  0.2152
  819MOL0     C 8037  10.256   9.520   8.212 -0.3015  0.1593 -0.2859
  819MOL0     C 8038  10.142   9.419   8.197 -0.6699  0.3615 -1.1421
  819MOL0     C 8039  10.052   9.450   8.313 -0.5113  0.7501  0.8940
  819MOL0     C 8040   9.975   9.481   8.394 -0.5043 -0.7782 -1.3056
  819MOL0     C 8041  10.555   9.758   8.575  0.5622  0.2760  0.1903
  819MOL0     C 8042  10.609   9.831   8.686 -1.5536  0.2478 -0.2344
  819MOL0     H 8043  10.833   9.878   9.131  0.6804  0.5885  2.4131
  819MOL0     H 8044  10.913   9.960   9.302  0.9716  0.4856  0.4098
  819MOL0     H 8045  11.140  10.170   9.320  1.1767  3.3083  0.2615
  819MOL0     H 8046  11.053  10.086   9.457 -2.9120  2.1609  1.5512
  819MOL0     H 8047  11.066  10.265   9.615 -1.6943 -1.8195 -0.3026
  819MOL0     H 8048  11.073  10.380   9.477  0.0603 -0.0721  0.9119
  819MOL0     H 8049  11.268  10.374   9.613  1.1566 -0.3674  1.1352
  819MOL0     H 8050  11.310  10.310   9.461 -0.1258  0.8177 -0.0017
  819MOL0     H 8051  11.254  10.149   9.722 -0.2371 -3.5435 -1.0825
  819MOL0     H 8052  11.285  10.062   9.574 -0.1688 -2.4437  2.9705
  819MOL0     H 8053  11.489  10.262   9.696  0.4807 -0.0370 -1.1875
  819MOL0     H 8054  11.499  10.184   9.544 -2.4310 -0.5649 -0.6078
  819MOL0     H 8055  11.504   9.967   9.675  5.3071  1.1765 -3.9723
  819MOL0     H 8056  11.458  10.060   9.822  0.5292 -3.7182  0.4968
  819MOL0     H 8057  11.725  10.060   9.669 -1.2260 -1.4965  0.5568
  819MOL0     H 8058  11.691  10.182   9.797 -2.0150  2.9253 -1.3283
  819MOL0     H 8059  11.709   9.884   9.810 -0.5428  0.5734 -1.0420
  819MOL0     H 8060  11.663   9.987   9.954 -0.4453  1.7817 -0.2487
  819MOL0     H 8061  11.944   9.827   9.749  3.3471 -0.4231 -0.6300
  819MOL0     H 8062  12.277  10.011   9.804 -1.4394  0.8915  2.3585
  819MOL0     H 8063  12.181   9.889   9.699 -1.8698  0.3949  0.1773
  819MOL0     H 8064  12.159   9.735   9.873 -1.5778  1.7719  2.5954
  819MOL0     H 8065  12.265   9.828   9.985  0.8613 -2.8379  2.1903
  819MOL0     H 8066  12.373   9.769   9.711 -1.5564  2.3525  1.0619
  819MOL0     H 8067  12.464   9.792   9.854  2.4942 -3.6234 -1.7830
  819MOL0     H 8068  12.306   9.543   9.783 -0.2438  0.5865  0.2741
  819MOL0     H 8069  12.362   9.578   9.942  0.3952 -0.9555  0.0262
  819MOL0     H 8070  12.504   9.590  10.100 -0.8317  0.1481 -1.1234
  819MOL0     H 8071  12.682   9.622  10.241 -2.2374 -2.3637 -0.4306
  819MOL0     H 8072  13.209   9.868  10.015 -0.0259 -2.1731  0.3968
  819MOL0     H 8073  13.403   9.978  10.138  1.8034 -0.7135  2.1390
  819MOL0     H 8074  13.693   9.994  10.370  2.2558  1.9615 -3.8645
  819MOL0     H 8075  13.595   9.998  10.224 -2.4318 -3.8472 -1.8839
  819MOL0     H 8076  13.721   9.741  10.323  2.1527  1.4555  0.3711
  819MOL0     H 8077  13.820   9.866  10.251  1.2200 -3.3088  1.6700
  819MOL0     H 8078  13.574   9.733  10.125 -0.6051  3.4917  0.8927
  819MOL0     H 8079  13.742   9.667  10.113  1.5454  0.5358 -1.2798
  819MOL0     H 8080  13.619   9.930  10.021 -0.7452 -0.6389 -3.7922
  819MOL0     H 8081  13.790   9.909   9.995  0.1816 -1.7160 -3.6008
  819MOL0     H 8082  13.716   9.723   9.828  0.6894  0.3556 -0.7217
  819MOL0     H 8083  13.675   9.891   9.796  1.0122 -1.8120 -3.5347
  819MOL0     H 8084  13.461   9.868   9.821 -0.6902  1.6232  2.1148
  819MOL0     H 8085  13.453   9.739   9.933 -1.1925  0.7411  0.0171
  819MOL0     H 8086  13.509   9.743   9.632  1.9597 -0.0587 -0.1248
  819MOL0     H 8087  13.549   9.593   9.712  0.1472  0.1743  0.3043
  819MOL0     H 8088  13.282   9.728   9.701 -0.1021 -0.4509  0.4999
  819MOL0     H 8089  13.313   9.579   9.796  2.0565  0.3673  1.1797
  819MOL0     H 8090  13.340   9.682  10.449 -1.9678  1.5314  0.5240
  819MOL0     H 8091  13.171   9.583  10.328  0.3053 -1.7651 -4.2560
  819MOL0     H 8092  12.950   9.597   9.900 -0.4156  0.2502 -2.9872
  819MOL0     H 8093  12.760   9.514   9.769 -3.4797 -0.2827 -0.1367
  819MOL0     H 8094  10.887  10.357   9.123 -1.9274  0.1866  0.8831
  819MOL0     H 8095  10.741  10.252   8.946 -0.7734  2.5959  2.3656
  819MOL0     H 8096  10.367   9.801   8.910  0.2591 -2.9023 -0.3781
  819MOL0     H 8097  10.261   9.673   8.717 -0.5427 -2.3976 -0.0106
  819MOL0     H 8098  10.524   9.538   8.435 -0.4470 -2.1720  0.4502
  819MOL0     H 8099  10.463   9.654   8.312  0.3200 -3.9270 -3.1828
  819MOL0     H 8100  10.433   9.414   8.263  0.8842 -1.5984  3.3451
  819MOL0     H 8101  10.310   9.390   8.384 -1.1318  1.3710  0.5885
  819MOL0     H 8102  10.305   9.532   8.115  0.6044 -0.8209  0.0265
  819MOL0     H 8103  10.214   9.619   8.231  0.1271  0.1689  0.6784
  819MOL0     H 8104  10.083   9.426   8.105 -0.8960 -0.3661 -1.0623
  819MOL0     H 8105  10.181   9.318   8.213  0.5700  1.1909  1.7660
  819MOL0     H 8106   9.918   9.525   8.473  0.0678 -0.4523 -1.0747
  819MOL0     H 8107  10.628   9.750   8.495  0.6485  2.8989 -0.0560
  819MOL0     H 8108  10.705   9.878   8.667 -3.0413  3.5598 -0.2728
  820MOL0     O 8109   4.495   7.610   7.497 -0.0131  0.0514  0.1752
  820MOL0     C 8110   4.391   7.603   7.435  0.9899 -0.0647 -0.3736
  820MOL0     O 8111   4.264   7.635   7.474  0.1578 -0.3223 -0.0098
  820MOL0     C 8112   4.245   7.684   7.603 -0.6360  1.4355  0.8408
  820MOL0     C 8113   4.265   7.812   7.644 -0.3186 -0.1846  0.3532
  820MOL0     C 8114   4.257   7.849   7.788  0.6669 -0.8070  0.5616
  820MOL0     C 8115   4.237   7.745   7.877  0.4361 -0.2623  0.6164
  820MOL0     O 8116   4.238   7.756   8.018  0.0746  0.3033 -0.0714
  820MOL0     C 8117   4.195   7.879   8.077 -0.3126  0.0766 -0.2706
  820MOL0     C 8118   4.185   7.865   8.239 -0.5466  0.0203  0.5402
  820MOL0     C 8119   4.314   7.875   8.310 -0.6806 -0.1423  0.3091
  820MOL0     C 8120   4.289   7.906   8.457  0.4793  0.5391  0.1866
  820MOL0     C 8121   4.416   7.877   8.542  0.1718 -0.7106 -0.0558
  820MOL0     C 8122   4.549   7.936   8.492  0.8592 -0.3134 -0.2409
  820MOL0     C 8123   4.663   7.867   8.552 -0.8481 -1.1147  0.6634
  820MOL0     C 8124   4.708   7.736   8.492  0.9737 -1.1671 -0.1740
  820MOL0     N 8125   4.835   7.704   8.545 -0.0973  0.2272 -0.1238
  820MOL0     C 8126   4.952   7.763   8.499  1.0468 -0.1335  0.3258
  820MOL0     C 8127   5.049   7.699   8.567  0.7028  0.2078 -0.0384
  820MOL0     C 8128   5.198   7.729   8.535  0.8185  0.1453 -0.5509
  820MOL0     C 8129   5.291   7.607   8.582  0.6143  0.6357 -0.1499
  820MOL0     C 8130   5.426   7.652   8.632  0.1742 -0.1900 -0.8212
  820MOL0     C 8131   5.506   7.700   8.517 -0.3583  0.6168  0.6362
  820MOL0     O 8132   5.653   7.729   8.542  0.2845 -0.8337 -0.3484
  820MOL0     C 8133   5.662   7.794   8.662  0.2650 -0.0448  0.7099
  820MOL0     C 8134   5.745   7.750   8.767  0.4873 -0.2466  1.0208
  820MOL0     C 8135   5.762   7.825   8.885  0.2053  0.4281 -0.5585
  820MOL0     C 8136   5.688   7.942   8.905 -0.7619 -0.3323  0.6126
  820MOL0     C 8137   5.709   8.020   9.031 -0.0359 -0.0537 -0.9514
  820MOL0     O 8138   5.737   7.945   9.145 -0.2012  0.6939 -0.0461
  820MOL0     C 8139   5.757   8.013   9.263  0.3860  1.5414 -0.1797
  820MOL0     C 8140   5.653   8.031   9.353 -1.0891  0.1616 -0.3111
  820MOL0     C 8141   5.672   8.096   9.474  0.4619 -0.0758 -0.5734
  820MOL0     C 8142   5.797   8.143   9.495 -0.1091 -1.1051 -0.4618
  820MOL0     O 8143   5.818   8.199   9.620 -0.8789 -0.3130  0.4618
  820MOL0     C 8144   5.885   8.106   9.718 -0.3770 -0.3082 -0.3586
  820MOL0     C 8145   6.007   8.181   9.784  0.5190 -0.1366 -0.1987
  820MOL0     C 8146   6.081   8.087   9.869  0.7855  1.0965 -0.8419
  820MOL0     C 8147   6.194   8.140   9.948  0.4424  0.9459 -0.9225
  820MOL0     C 8148   6.275   8.034  10.014  0.1613 -0.1541 -0.1580
  820MOL0     C 8149   6.401   8.086  10.068 -0.0272 -0.2196 -1.0489
  820MOL0     C 8150   6.503   7.977  10.087  0.2603  0.3586 -0.3436
  820MOL0     C 8151   6.471   7.875  10.186  1.1698  0.6500 -0.5922
  820MOL0    Cl 8152   6.427   7.958  10.344 -0.1696 -0.0795 -0.1107
  820MOL0     C 8153   5.908   8.127   9.410 -0.6222 -0.2404  0.3071
  820MOL0     C 8154   5.890   8.066   9.294  1.2436  1.1030 -0.0792
  820MOL0     O 8155   5.682   8.143   9.021  0.0985 -0.5489 -0.8435
  820MOL0     C 8156   5.604   7.991   8.804 -0.5875 -0.0750 -0.0457
  820MOL0     C 8157   5.593   7.921   8.685 -1.2861  0.7218  0.2869
  820MOL0     N 8158   4.983   7.616   8.658 -0.3249  0.1317 -0.5542
  820MOL0     N 8159   4.859   7.620   8.640  0.1447  0.0352  0.0154
  820MOL0     C 8160   4.217   7.617   7.829 -0.5546  0.2685  0.0376
  820MOL0     C 8161   4.213   7.586   7.694  0.0312  0.2569  0.4433
  820MOL0     C 8162   4.411   7.544   7.291 -0.8882  0.5298  0.0332
  820MOL0     C 8163   4.517   7.456   7.263  0.0530 -0.0181 -0.4444
  820MOL0     C 8164   4.519   7.378   7.147  0.2870  0.2622  0.4957
  820MOL0     C 8165   4.416   7.400   7.052  0.9004  0.7084 -0.1144
  820MOL0     O 8166   4.418   7.334   6.925 -0.0049 -0.6967  0.0097
  820MOL0     C 8167   4.437   7.191   6.936 -0.5128 -0.2502 -0.5790
  820MOL0     C 8168   4.352   7.107   6.852  0.8894  1.4854  0.3728
  820MOL0     C 8169   4.198   7.145   6.892  0.0729 -0.5251  0.7454
  820MOL0     C 8170   4.098   7.045   6.840 -0.0205  0.2066  0.4803
  820MOL0     C 8171   3.964   7.101   6.835 -0.3654  0.2030 -0.7265
  820MOL0     C 8172   3.855   7.156   6.862 -0.2270  0.2399 -0.2228
  820MOL0     C 8173   4.314   7.495   7.081 -0.3002 -0.8632  0.2788
  820MOL0     C 8174   4.306   7.560   7.198 -0.7772 -0.0199 -0.5200
  820MOL0     H 8175   4.298   7.893   7.580  2.0803  3.7258  5.7308
  820MOL0     H 8176   4.284   7.952   7.808  2.5040 -1.5219  2.1715
  820MOL0     H 8177   4.100   7.913   8.035 -2.3096  0.7674  4.2284
  820MOL0     H 8178   4.264   7.963   8.061 -0.8861  0.8702  1.2041
  820MOL0     H 8179   4.127   7.773   8.253  0.6167 -0.8859 -0.4737
  820MOL0     H 8180   4.114   7.940   8.276  0.4340  0.6122  1.2699
  820MOL0     H 8181   4.380   7.952   8.268  0.6119 -1.9351 -1.1076
  820MOL0     H 8182   4.374   7.785   8.299  0.4633  0.7655 -1.2472
  820MOL0     H 8183   4.269   8.012   8.472  1.2347  0.8565 -0.9338
  820MOL0     H 8184   4.206   7.841   8.485 -1.0219  2.2442 -0.1189
  820MOL0     H 8185   4.426   7.768   8.540 -0.6382 -0.7832 -1.2217
  820MOL0     H 8186   4.390   7.909   8.643 -1.4191 -0.7415 -0.4236
  820MOL0     H 8187   4.555   8.044   8.508 -1.0163  0.0350 -1.5130
  820MOL0     H 8188   4.561   7.913   8.385  2.7018 -3.0525  0.4545
  820MOL0     H 8189   4.748   7.934   8.534 -1.0778 -0.3732  2.1579
  820MOL0     H 8190   4.657   7.859   8.661  1.8265  1.1711  1.0965
  820MOL0     H 8191   4.710   7.747   8.384 -2.0161 -0.8790 -0.3002
  820MOL0     H 8192   4.632   7.658   8.506  1.0226 -1.0902  0.6097
  820MOL0     H 8193   4.972   7.829   8.415 -0.8091  1.7941  1.2821
  820MOL0     H 8194   5.223   7.820   8.590 -4.9575  0.7747  1.7556
  820MOL0     H 8195   5.212   7.755   8.429  0.9455  0.9155 -0.3489
  820MOL0     H 8196   5.306   7.533   8.503 -2.1566  0.0544 -0.2432
  820MOL0     H 8197   5.255   7.557   8.673  0.9997  2.8483  1.3098
  820MOL0     H 8198   5.403   7.735   8.699 -2.7036 -0.4955 -1.3202
  820MOL0     H 8199   5.482   7.575   8.687 -0.3956 -0.3817 -0.5024
  820MOL0     H 8200   5.455   7.786   8.472 -1.8175 -0.2488  0.6033
  820MOL0     H 8201   5.501   7.618   8.445  4.2299  0.6148  0.0099
  820MOL0     H 8202   5.786   7.651   8.755  3.5332  1.0570 -0.4549
  820MOL0     H 8203   5.827   7.782   8.960  0.2956  1.4259 -0.0382
  820MOL0     H 8204   5.555   8.002   9.319 -1.3061 -0.4824  0.8152
  820MOL0     H 8205   5.605   8.104   9.559 -0.2311  4.8407 -1.2454
  820MOL0     H 8206   5.919   8.008   9.683  0.9745 -0.2832  0.7947
  820MOL0     H 8207   5.808   8.090   9.795 -0.2928 -0.4645 -0.3074
  820MOL0     H 8208   5.973   8.278   9.821  0.0636 -1.2363  2.4886
  820MOL0     H 8209   6.069   8.209   9.698 -1.9644  2.2308 -1.3803
  820MOL0     H 8210   6.111   8.000   9.810 -2.6700 -2.4367  1.9849
  820MOL0     H 8211   6.011   8.034   9.934  0.3201  2.8361  0.1208
  820MOL0     H 8212   6.263   8.196   9.884  2.4039  0.3021  0.5322
  820MOL0     H 8213   6.155   8.204  10.028  0.0794  1.7367 -1.7194
  820MOL0     H 8214   6.307   7.952   9.949  1.1579  0.1475 -0.0692
  820MOL0     H 8215   6.229   7.979  10.096  0.8284 -1.6302 -0.7507
  820MOL0     H 8216   6.378   8.143  10.158 -0.3700  0.0011 -1.2709
  820MOL0     H 8217   6.446   8.160  10.001 -1.5840  3.2083  1.4010
  820MOL0     H 8218   6.512   7.924   9.992 -2.6447 -2.7022  0.9027
  820MOL0     H 8219   6.595   8.031  10.112 -0.1538  0.8690  0.1036
  820MOL0     H 8220   6.554   7.805  10.192 -1.5144 -2.9170 -1.5689
  820MOL0     H 8221   6.384   7.819  10.148  0.5968 -0.7062  2.4484
  820MOL0     H 8222   6.006   8.171   9.422  0.2112 -1.2454 -2.1695
  820MOL0     H 8223   5.976   8.065   9.228  0.2092 -0.0911 -1.4905
  820MOL0     H 8224   5.550   8.085   8.809 -0.0617  0.2961 -1.0552
  820MOL0     H 8225   5.523   7.956   8.609 -1.2113 -1.3997 -0.8190
  820MOL0     H 8226   4.200   7.541   7.905 -0.0772  1.6819  1.6317
  820MOL0     H 8227   4.184   7.485   7.666  1.7262 -0.4369  1.0309
  820MOL0     H 8228   4.583   7.424   7.343  1.1492  2.0719 -0.4531
  820MOL0     H 8229   4.605   7.315   7.128  0.8114  0.7510  1.1938
  820MOL0     H 8230   4.429   7.159   7.040 -0.2715  1.8659  0.1464
  820MOL0     H 8231   4.540   7.172   6.905 -0.5317  2.5645 -2.8183
  820MOL0     H 8232   4.386   7.132   6.751  0.1602  1.7521  0.1845
  820MOL0     H 8233   4.359   7.000   6.873  0.6498  1.0465 -1.5760
  820MOL0     H 8234   4.179   7.244   6.849 -3.0681 -1.2096  0.3050
  820MOL0     H 8235   4.188   7.153   7.001  0.6595 -1.0406  0.8441
  820MOL0     H 8236   4.124   7.004   6.742 -0.4884 -1.4144  0.9929
  820MOL0     H 8237   4.104   6.957   6.905  1.1431 -0.5893 -0.6723
  820MOL0     H 8238   3.763   7.194   6.902  1.7719  1.7215  3.4768
  820MOL0     H 8239   4.238   7.516   7.006  1.1972 -2.6242 -1.8637
  820MOL0     H 8240   4.216   7.620   7.211  0.1428  1.4186 -0.6314
  821MOL0     O 8241   0.881   1.546   2.448  0.3271  0.1230  1.3993
  821MOL0     C 8242   0.994   1.585   2.436 -0.4700  0.2212 -0.2164
  821MOL0     O 8243   1.078   1.566   2.328 -0.1471 -0.2773  1.0639
  821MOL0     C 8244   1.032   1.545   2.196 -1.2176  0.1572 -0.1375
  821MOL0     C 8245   1.129   1.565   2.097 -0.0760 -0.0495  0.6637
  821MOL0     C 8246   1.097   1.562   1.959  0.2816 -0.8926 -0.2422
  821MOL0     C 8247   0.972   1.512   1.920  0.1517  0.2802 -0.1119
  821MOL0     O 8248   0.938   1.496   1.782 -0.6275  0.0088  0.0672
  821MOL0     C 8249   1.034   1.417   1.711 -0.1811  0.4138  0.1566
  821MOL0     C 8250   1.035   1.278   1.771  0.5103  0.2533  0.4953
  821MOL0     C 8251   1.089   1.169   1.663 -1.0126  0.4743  0.1678
  821MOL0     C 8252   1.110   1.038   1.730  0.2972  0.6166  0.4826
  821MOL0     C 8253   0.984   0.950   1.744 -0.1188 -0.5108 -1.4183
  821MOL0     C 8254   1.033   0.829   1.814  0.2972  0.0710  0.6495
  821MOL0     C 8255   0.939   0.766   1.903  0.8431 -0.3361  0.1800
  821MOL0     C 8256   0.897   0.845   2.039  1.0370  0.9155 -0.2448
  821MOL0     N 8257   0.802   0.756   2.117 -0.8651  0.4297 -0.1469
  821MOL0     C 8258   0.716   0.659   2.072  0.1731 -1.2872  0.1221
  821MOL0     C 8259   0.650   0.606   2.178  0.1205 -0.8212  1.0229
  821MOL0     C 8260   0.551   0.502   2.185  0.2471  0.5080 -0.9609
  821MOL0     C 8261   0.610   0.359   2.161 -0.4987  0.4402 -0.2935
  821MOL0     C 8262   0.708   0.314   2.269  0.6830 -0.1582 -0.6042
  821MOL0     C 8263   0.742   0.160   2.253  0.5996 -0.6475  0.2194
  821MOL0     O 8264   0.620   0.077   2.263 -0.6122 -0.2937  0.5820
  821MOL0     C 8265   0.646  -0.054   2.301 -0.7072 -1.9596 -0.1594
  821MOL0     C 8266   0.536  -0.146   2.288 -0.1036 -0.1134 -0.4575
  821MOL0     C 8267   0.535  -0.283   2.337  0.7605 -0.1882  0.6551
  821MOL0     C 8268   0.652  -0.325   2.406  0.1056  0.9065  0.7546
  821MOL0     C 8269   0.661  -0.457   2.465  0.1309  0.0004 -0.6880
  821MOL0     O 8270   0.782  -0.505   2.509  0.1971  0.4394  0.2048
  821MOL0     C 8271   0.791  -0.609   2.595 -0.2597 -1.0783  0.6651
  821MOL0     C 8272   0.716  -0.727   2.581 -0.1777  0.2109 -0.5757
  821MOL0     C 8273   0.734  -0.833   2.672  0.7649  0.0949 -0.8479
  821MOL0     C 8274   0.828  -0.817   2.773 -0.0363 -0.5547 -0.9907
  821MOL0     O 8275   0.852  -0.905   2.875 -0.6844  0.5595 -0.5763
  821MOL0     C 8276   0.776  -1.028   2.879 -0.2329 -0.4235 -0.0098
  821MOL0     C 8277   0.792  -1.089   3.019 -0.0681 -0.0483  0.5904
  821MOL0     C 8278   0.731  -1.218   3.025  0.6100 -0.2899  0.0503
  821MOL0     C 8279   0.784  -1.328   2.921  0.3066 -0.3564 -1.1663
  821MOL0     C 8280   0.683  -1.453   2.935 -0.4840  1.0035  1.7332
  821MOL0     C 8281   0.689  -1.542   2.813  0.3046 -0.1748  0.1327
  821MOL0     C 8282   0.835  -1.573   2.755  0.7301  0.8725 -1.1504
  821MOL0     C 8283   0.836  -1.701   2.669 -0.4880  1.2801 -1.1176
  821MOL0    Cl 8284   0.768  -1.835   2.765 -0.2263 -0.2275 -0.2594
  821MOL0     C 8285   0.912  -0.704   2.771 -0.0666  0.1286  0.3346
  821MOL0     C 8286   0.887  -0.604   2.686  0.0478  0.5031 -1.4264
  821MOL0     O 8287   0.552  -0.498   2.497  0.2281  0.4577 -0.1401
  821MOL0     C 8288   0.760  -0.236   2.418 -0.6659  0.5094  0.3555
  821MOL0     C 8289   0.761  -0.107   2.364 -0.1641  0.2881 -0.0791
  821MOL0     N 8290   0.697   0.673   2.296  0.2504 -0.4455 -0.8014
  821MOL0     N 8291   0.785   0.762   2.252  0.5979  0.8489  0.3640
  821MOL0     C 8292   0.876   1.483   2.020 -0.2158 -0.8916 -0.2603
  821MOL0     C 8293   0.905   1.505   2.158  0.7134 -0.6223 -0.4215
  821MOL0     C 8294   1.061   1.637   2.560 -0.1823 -0.4432  0.0015
  821MOL0     C 8295   0.990   1.666   2.681  0.7942 -0.2623  1.0897
  821MOL0     C 8296   1.045   1.707   2.798 -0.5782  0.4510 -0.3191
  821MOL0     C 8297   1.188   1.714   2.802 -0.5549 -0.1616 -0.2118
  821MOL0     O 8298   1.265   1.736   2.917  0.5333 -0.5304  0.0975
  821MOL0     C 8299   1.195   1.738   3.051  0.6319  0.4050 -0.3001
  821MOL0     C 8300   1.309   1.770   3.144 -0.3339  0.6456  0.4011
  821MOL0     C 8301   1.277   1.771   3.295  0.6769 -0.1892  0.5464
  821MOL0     C 8302   1.393   1.822   3.389 -1.3933 -0.3020  0.5205
  821MOL0     C 8303   1.396   1.756   3.515  0.1422  0.5331 -0.7031
  821MOL0     C 8304   1.409   1.698   3.621  0.1069  0.8936  0.2971
  821MOL0     C 8305   1.263   1.694   2.683 -0.3948  0.8809  1.1469
  821MOL0     C 8306   1.203   1.652   2.567 -1.0282  0.7782 -0.5229
  821MOL0     H 8307   1.226   1.601   2.129 -0.7333  2.7318 -0.1760
  821MOL0     H 8308   1.175   1.592   1.890 -0.4833 -2.7082 -2.0081
  821MOL0     H 8309   1.132   1.464   1.703 -0.5085  0.8622 -1.8017
  821MOL0     H 8310   0.999   1.409   1.608  2.4924  0.1208 -0.7808
  821MOL0     H 8311   0.937   1.245   1.805  1.1204 -1.6210  0.5553
  821MOL0     H 8312   1.109   1.273   1.851  0.0959 -0.7192  0.8307
  821MOL0     H 8313   1.181   1.203   1.614 -1.6471  1.2416 -0.5035
  821MOL0     H 8314   1.025   1.156   1.576 -1.2405  0.3539  0.3539
  821MOL0     H 8315   1.159   0.973   1.658 -2.6199 -0.4287 -0.7098
  821MOL0     H 8316   1.170   1.048   1.821  0.6725  2.2143  0.1059
  821MOL0     H 8317   0.942   0.923   1.647  2.1914 -0.2019 -2.5832
  821MOL0     H 8318   0.912   1.006   1.803  0.8479 -0.0302 -0.6532
  821MOL0     H 8319   1.116   0.835   1.886  1.3189 -3.0866 -0.1112
  821MOL0     H 8320   1.072   0.763   1.737 -0.5940  1.4489 -1.0532
  821MOL0     H 8321   0.855   0.732   1.841 -1.2554  2.2399  1.3978
  821MOL0     H 8322   0.978   0.673   1.943  1.8096  1.3217  3.4610
  821MOL0     H 8323   0.838   0.935   2.022 -1.7480 -0.5262  1.0407
  821MOL0     H 8324   0.978   0.890   2.097 -0.5603  0.8296  2.1765
  821MOL0     H 8325   0.711   0.631   1.968 -0.5909 -1.5522  0.2267
  821MOL0     H 8326   0.475   0.524   2.110 -2.4490  0.0706  1.4938
  821MOL0     H 8327   0.491   0.498   2.276  1.2273  1.2116 -0.2615
  821MOL0     H 8328   0.660   0.360   2.063 -1.2194 -1.3319 -0.7091
  821MOL0     H 8329   0.531   0.284   2.164  0.5695 -0.6981  2.7371
  821MOL0     H 8330   0.797   0.378   2.266  0.7109 -0.0470  1.3901
  821MOL0     H 8331   0.664   0.331   2.368 -1.9013  0.3198 -1.7508
  821MOL0     H 8332   0.805   0.149   2.341  0.9703  1.5033  0.2649
  821MOL0     H 8333   0.793   0.143   2.158  2.4918 -1.7552  1.3751
  821MOL0     H 8334   0.443  -0.106   2.249 -1.1043 -0.8458  1.0848
  821MOL0     H 8335   0.443  -0.335   2.315 -0.0738  1.8592 -1.1007
  821MOL0     H 8336   0.653  -0.752   2.496  0.4712  0.4164 -1.1305
  821MOL0     H 8337   0.668  -0.917   2.650  1.5955 -0.7014 -0.3594
  821MOL0     H 8338   0.810  -1.087   2.794 -2.4702 -1.7156 -0.0814
  821MOL0     H 8339   0.669  -1.021   2.859 -0.8880 -0.6389  2.9270
  821MOL0     H 8340   0.735  -1.034   3.094  0.3763 -0.4134  1.2055
  821MOL0     H 8341   0.896  -1.093   3.051 -1.0332 -1.8805  3.9433
  821MOL0     H 8342   0.625  -1.198   3.008 -0.5463 -4.1158  1.6447
  821MOL0     H 8343   0.756  -1.249   3.127  3.5156  2.1834  0.2367
  821MOL0     H 8344   0.780  -1.288   2.820  2.0413 -1.8824 -1.9095
  821MOL0     H 8345   0.890  -1.347   2.941  1.1293  3.3134 -1.3806
  821MOL0     H 8346   0.579  -1.420   2.946 -0.2905  1.2876  2.9659
  821MOL0     H 8347   0.703  -1.505   3.029  0.6343  4.0539  3.3226
  821MOL0     H 8348   0.626  -1.490   2.740 -0.8133  0.6543  1.6490
  821MOL0     H 8349   0.630  -1.634   2.826  0.9202 -1.4775 -4.3211
  821MOL0     H 8350   0.879  -1.485   2.707  0.7709  1.3422 -0.2636
  821MOL0     H 8351   0.912  -1.601   2.828  0.4278  1.3913 -0.6231
  821MOL0     H 8352   0.937  -1.728   2.636 -1.2188 -1.6753 -1.2673
  821MOL0     H 8353   0.771  -1.679   2.585  1.0951 -0.3678 -2.8662
  821MOL0     H 8354   0.990  -0.690   2.846  1.0641  1.0825 -0.9744
  821MOL0     H 8355   0.927  -0.504   2.702 -0.6793  0.7631 -1.1936
  821MOL0     H 8356   0.852  -0.256   2.473  0.3003  2.5766 -0.4163
  821MOL0     H 8357   0.847  -0.045   2.386  1.3589 -1.8548  0.2754
  821MOL0     H 8358   0.777   1.456   1.985 -0.3546  1.0686 -1.5634
  821MOL0     H 8359   0.819   1.507   2.223  0.2628  1.4041 -0.9920
  821MOL0     H 8360   0.883   1.656   2.667  0.5858  3.0386 -0.6156
  821MOL0     H 8361   0.990   1.733   2.888  0.4723  2.3386 -0.1720
  821MOL0     H 8362   1.150   1.642   3.077  0.3521  0.4902 -0.4648
  821MOL0     H 8363   1.118   1.816   3.058  1.7716  1.4515  1.2026
  821MOL0     H 8364   1.399   1.711   3.129 -1.4263 -0.8065 -0.7566
  821MOL0     H 8365   1.334   1.876   3.131 -0.5541  0.5051 -1.5135
  821MOL0     H 8366   1.262   1.669   3.331  0.1879  0.6611  2.9792
  821MOL0     H 8367   1.196   1.844   3.303  0.7153 -0.0052 -0.5734
  821MOL0     H 8368   1.491   1.823   3.341 -0.5526  2.8384  2.0122
  821MOL0     H 8369   1.381   1.930   3.403 -0.1106 -0.2971  1.8780
  821MOL0     H 8370   1.412   1.629   3.703  0.9510 -1.7458 -1.7715
  821MOL0     H 8371   1.371   1.683   2.689 -0.4691  0.6118  5.1551
  821MOL0     H 8372   1.261   1.621   2.481  0.1299  0.6539  0.2819
  822MOL0     O 8373   2.689   1.250   2.546  0.1907  0.0823  0.3172
  822MOL0     C 8374   2.623   1.180   2.474  0.3810  0.6292 -0.1594
  822MOL0     O 8375   2.570   1.219   2.354  0.7216  0.0203 -0.1543
  822MOL0     C 8376   2.569   1.345   2.322 -0.9085 -0.2017  1.2189
  822MOL0     C 8377   2.451   1.413   2.306  0.0310 -0.5022 -1.1669
  822MOL0     C 8378   2.451   1.549   2.258 -0.3428  0.0829 -0.8612
  822MOL0     C 8379   2.578   1.618   2.247  0.3486 -0.6685 -0.6370
  822MOL0     O 8380   2.556   1.749   2.222  0.0544  0.2696  0.5563
  822MOL0     C 8381   2.666   1.829   2.244 -0.2733 -0.9443 -0.4727
  822MOL0     C 8382   2.622   1.976   2.225  0.2745  0.5369 -0.1856
  822MOL0     C 8383   2.744   2.062   2.232  0.3554 -0.0732 -0.7073
  822MOL0     C 8384   2.706   2.208   2.231 -0.6092  0.2459 -0.2582
  822MOL0     C 8385   2.823   2.307   2.236  0.6085 -0.2918  0.5886
  822MOL0     C 8386   2.912   2.325   2.108  1.1332  0.2429 -0.2889
  822MOL0     C 8387   3.008   2.451   2.118  0.1189 -0.3566  0.5828
  822MOL0     C 8388   3.011   2.541   2.001  0.2534 -0.1308  0.6869
  822MOL0     N 8389   3.083   2.474   1.885  0.5832 -0.1838 -0.6627
  822MOL0     C 8390   3.028   2.444   1.760 -0.9185 -0.0190  0.5463
  822MOL0     C 8391   3.104   2.347   1.719 -0.3189  0.7329  0.9270
  822MOL0     C 8392   3.076   2.274   1.592 -0.1352 -0.1465  0.4756
  822MOL0     C 8393   2.939   2.202   1.586 -0.2352  0.9239  0.3445
  822MOL0     C 8394   2.921   2.101   1.698 -0.0826 -0.5572 -0.0408
  822MOL0     C 8395   2.819   2.151   1.809  0.4864  0.3607  0.1706
  822MOL0     O 8396   2.688   2.147   1.756  0.3450  0.6926 -0.2155
  822MOL0     C 8397   2.614   2.032   1.786 -0.7723 -1.4525  0.3375
  822MOL0     C 8398   2.663   1.902   1.795  0.5667  0.0353 -0.8724
  822MOL0     C 8399   2.584   1.796   1.832 -0.0385  0.0766  1.2877
  822MOL0     C 8400   2.446   1.825   1.872 -0.9948 -0.4976 -0.4835
  822MOL0     C 8401   2.358   1.713   1.911  0.8363 -0.0256  0.0132
  822MOL0     O 8402   2.414   1.588   1.899 -0.2646  0.6408  1.0039
  822MOL0     C 8403   2.357   1.471   1.932  0.4753 -0.9359 -0.9640
  822MOL0     C 8404   2.443   1.366   1.956 -1.1414  0.7868  0.0681
  822MOL0     C 8405   2.391   1.250   2.000  0.2791  0.7352  0.2907
  822MOL0     C 8406   2.245   1.223   2.006 -0.5061 -0.4007 -0.0735
  822MOL0     O 8407   2.178   1.107   2.029  0.2949  0.1469 -0.0031
  822MOL0     C 8408   2.253   0.982   2.053  1.5585 -0.1329 -1.4987
  822MOL0     C 8409   2.166   0.874   2.124 -0.8075 -0.4982 -0.1765
  822MOL0     C 8410   2.139   0.928   2.266 -0.2945 -0.1185  0.3518
  822MOL0     C 8411   2.033   0.858   2.352 -0.2068  0.1068  1.4002
  822MOL0     C 8412   2.021   0.708   2.342  0.7967  0.6519 -0.2608
  822MOL0     C 8413   2.142   0.636   2.400 -0.2667  0.9561 -0.2893
  822MOL0     C 8414   2.139   0.490   2.395  0.2826  0.1369  0.6035
  822MOL0     C 8415   2.097   0.437   2.257 -0.5688 -0.1364 -0.7983
  822MOL0    Cl 8416   2.100   0.252   2.261 -0.0780  0.1855 -0.1707
  822MOL0     C 8417   2.162   1.327   1.967 -0.3656 -0.2163  0.6026
  822MOL0     C 8418   2.214   1.457   1.937  0.0546  0.1535 -0.2403
  822MOL0     O 8419   2.257   1.746   1.962 -0.1954 -0.2606 -0.0543
  822MOL0     C 8420   2.413   1.962   1.888 -0.3290  1.0391 -0.3334
  822MOL0     C 8421   2.480   2.064   1.830 -0.4896  0.0674  0.2626
  822MOL0     N 8422   3.199   2.311   1.816  0.7603 -0.4634 -0.5163
  822MOL0     N 8423   3.191   2.395   1.910  0.5323  0.3388 -1.0377
  822MOL0     C 8424   2.691   1.542   2.270  0.4816 -0.7588  1.0079
  822MOL0     C 8425   2.694   1.411   2.298  0.4028  0.9913  0.6453
  822MOL0     C 8426   2.581   1.051   2.519 -0.5762 -0.0480  0.8195
  822MOL0     C 8427   2.507   0.959   2.441 -0.0335 -0.0210 -0.8095
  822MOL0     C 8428   2.457   0.840   2.499 -0.4050  0.0215  1.3087
  822MOL0     C 8429   2.476   0.791   2.624  0.1104  1.2617 -1.1124
  822MOL0     O 8430   2.431   0.662   2.656  0.2888  0.1120 -0.3194
  822MOL0     C 8431   2.433   0.614   2.797  0.2860  0.5504  0.7036
  822MOL0     C 8432   2.374   0.481   2.810 -0.4798  1.4122  0.7777
  822MOL0     C 8433   2.222   0.484   2.782 -0.3156  0.1563 -0.1654
  822MOL0     C 8434   2.156   0.356   2.834  0.0994  0.0503 -0.2811
  822MOL0     C 8435   2.036   0.305   2.760  0.6147 -0.0431  1.3134
  822MOL0     C 8436   1.939   0.274   2.690 -0.1619  1.0744  0.8905
  822MOL0     C 8437   2.559   0.879   2.705 -0.1563 -0.3269 -0.0464
  822MOL0     C 8438   2.593   1.012   2.654 -0.3776  0.8450 -0.4241
  822MOL0     H 8439   2.360   1.355   2.324 -0.3694 -0.5163 -3.0269
  822MOL0     H 8440   2.367   1.612   2.231 -0.2502  0.8769  0.5952
  822MOL0     H 8441   2.741   1.803   2.169 -1.3479 -2.9498 -0.9367
  822MOL0     H 8442   2.714   1.824   2.341 -0.7801 -2.2758 -0.2699
  822MOL0     H 8443   2.550   2.001   2.303  1.0162  1.8219  0.1069
  822MOL0     H 8444   2.573   1.987   2.128 -1.6758 -3.0868  0.2000
  822MOL0     H 8445   2.819   2.048   2.154 -2.8389 -0.7979 -3.9342
  822MOL0     H 8446   2.796   2.046   2.327 -0.2049 -0.6959 -0.4909
  822MOL0     H 8447   2.640   2.235   2.149  2.5602  1.9311 -2.4650
  822MOL0     H 8448   2.648   2.222   2.323  0.0129  1.6331 -0.0559
  822MOL0     H 8449   2.883   2.288   2.326  0.6881 -1.4346  0.3162
  822MOL0     H 8450   2.777   2.405   2.245 -0.8508 -0.8936 -0.1018
  822MOL0     H 8451   2.834   2.333   2.032 -1.6321  0.8183  2.4342
  822MOL0     H 8452   2.968   2.234   2.083  0.1714 -1.5616  3.4393
  822MOL0     H 8453   2.969   2.503   2.206  1.9691 -1.5635  2.2064
  822MOL0     H 8454   3.110   2.417   2.137  0.1142 -0.6406  0.1161
  822MOL0     H 8455   3.071   2.631   2.017 -1.7887  1.6172 -0.8650
  822MOL0     H 8456   2.915   2.569   1.958  0.5192  0.8656  0.7075
  822MOL0     H 8457   2.940   2.475   1.704 -0.0513  1.4637 -0.0738
  822MOL0     H 8458   3.150   2.198   1.565  0.4384  0.9224 -1.1091
  822MOL0     H 8459   3.074   2.351   1.515 -1.5069  1.2603  1.8473
  822MOL0     H 8460   2.946   2.137   1.498 -1.2984 -0.3793  1.1762
  822MOL0     H 8461   2.856   2.272   1.579 -1.1226  0.0343  1.6255
  822MOL0     H 8462   2.907   1.999   1.662  2.5049 -1.1290  0.3451
  822MOL0     H 8463   3.016   2.090   1.752  2.7037  0.0736 -4.3582
  822MOL0     H 8464   2.843   2.256   1.825 -2.9220  1.3768 -0.5476
  822MOL0     H 8465   2.821   2.106   1.908  0.8562  1.7113  0.7919
  822MOL0     H 8466   2.768   1.894   1.771  0.6564 -1.5477 -0.0226
  822MOL0     H 8467   2.624   1.695   1.828  0.4315  0.2975 -0.6955
  822MOL0     H 8468   2.548   1.394   1.947 -0.1866 -2.0571  1.1066
  822MOL0     H 8469   2.463   1.175   2.033  0.4284 -0.8746 -3.2153
  822MOL0     H 8470   2.325   1.014   2.129 -2.2882  1.4547  1.8175
  822MOL0     H 8471   2.277   0.943   1.954 -3.7396 -4.2122 -1.5969
  822MOL0     H 8472   2.204   0.772   2.110  0.1524 -0.1283 -0.3554
  822MOL0     H 8473   2.072   0.886   2.070  0.4303  4.5917 -1.7437
  822MOL0     H 8474   2.115   1.034   2.262 -1.6350 -0.3763  0.8689
  822MOL0     H 8475   2.235   0.912   2.315 -0.4919 -1.7266  0.2878
  822MOL0     H 8476   2.033   0.906   2.450 -0.0859  2.5844  0.2592
  822MOL0     H 8477   1.940   0.895   2.307 -1.2602 -1.5368  2.1090
  822MOL0     H 8478   2.000   0.679   2.238  0.6458  2.0205 -0.6312
  822MOL0     H 8479   1.935   0.675   2.401  2.8857 -1.3479  1.9128
  822MOL0     H 8480   2.167   0.655   2.505  1.7940  0.7267 -0.6785
  822MOL0     H 8481   2.228   0.667   2.340 -0.0662  0.8169 -0.0768
  822MOL0     H 8482   2.234   0.447   2.427  0.4561  2.0933  3.0415
  822MOL0     H 8483   2.067   0.459   2.472 -1.5472 -2.9747 -2.1184
  822MOL0     H 8484   2.175   0.466   2.187  2.8036 -0.6996  2.4071
  822MOL0     H 8485   1.996   0.469   2.228 -2.1627 -0.2881  3.8311
  822MOL0     H 8486   2.055   1.309   1.959 -0.2766 -0.2988 -0.7075
  822MOL0     H 8487   2.151   1.537   1.899 -1.7609 -1.7856 -1.5155
  822MOL0     H 8488   2.313   1.987   1.922 -1.0349 -1.3075 -0.5267
  822MOL0     H 8489   2.442   2.166   1.840 -0.9433 -0.3046  3.2371
  822MOL0     H 8490   2.779   1.603   2.253  0.4045 -0.8044  0.4019
  822MOL0     H 8491   2.791   1.363   2.294 -1.9551 -4.9078  2.6789
  822MOL0     H 8492   2.484   0.987   2.338 -2.5668 -0.1432 -0.3339
  822MOL0     H 8493   2.402   0.772   2.435  0.6776  1.9723 -1.9441
  822MOL0     H 8494   2.375   0.676   2.865 -0.1902 -2.1468  2.9387
  822MOL0     H 8495   2.535   0.592   2.830  0.1130 -1.4746  0.0351
  822MOL0     H 8496   2.410   0.410   2.735 -0.0261  0.5348  1.8131
  822MOL0     H 8497   2.395   0.448   2.912  0.3554  2.1709  0.8704
  822MOL0     H 8498   2.204   0.491   2.675 -0.5684  0.0203 -0.1323
  822MOL0     H 8499   2.186   0.574   2.833  1.8242  0.6751  0.5166
  822MOL0     H 8500   2.229   0.274   2.829  1.3981  0.7490  3.6626
  822MOL0     H 8501   2.122   0.366   2.937 -2.8237  0.8096 -1.2412
  822MOL0     H 8502   1.851   0.254   2.632  0.2731  0.4742  0.4311
  822MOL0     H 8503   2.594   0.838   2.799 -1.9493  2.4894  2.0030
  822MOL0     H 8504   2.651   1.071   2.724  1.1616 -1.8349  0.7009
  823MOL0     O 8505   1.581   1.928   7.511  0.0194 -0.0982 -0.1623
  823MOL0     C 8506   1.672   2.009   7.492  0.6183  0.3688  0.5244
  823MOL0     O 8507   1.766   2.048   7.581 -0.5135 -0.4473  0.0505
  823MOL0     C 8508   1.736   2.034   7.712 -0.2107  0.8042  0.0287
  823MOL0     C 8509   1.669   2.134   7.785  0.5200 -0.3364 -0.3544
  823MOL0     C 8510   1.632   2.106   7.918 -0.0198 -1.1043  0.4826
  823MOL0     C 8511   1.681   1.998   7.985  0.2839 -0.0585 -0.2789
  823MOL0     O 8512   1.647   1.966   8.122  0.0979  0.0169  0.7131
  823MOL0     C 8513   1.548   1.869   8.117 -0.2038 -0.2206  0.7046
  823MOL0     C 8514   1.560   1.782   8.234  0.9498  0.1439 -0.6156
  823MOL0     C 8515   1.522   1.836   8.374  0.6654 -0.1213  0.3124
  823MOL0     C 8516   1.543   1.734   8.481 -0.7201 -0.3942  0.1055
  823MOL0     C 8517   1.546   1.806   8.620  0.7499  0.6447  0.0023
  823MOL0     C 8518   1.558   1.710   8.734  0.7745  0.1055  0.2319
  823MOL0     C 8519   1.542   1.782   8.863 -0.3523  0.3814  0.2247
  823MOL0     C 8520   1.536   1.688   8.993 -0.8248 -0.8152  0.1041
  823MOL0     N 8521   1.441   1.577   8.991 -1.2183  0.1340  0.6443
  823MOL0     C 8522   1.306   1.585   8.999  1.0119  0.0793 -0.1662
  823MOL0     C 8523   1.268   1.458   9.012  0.1614  0.2132 -0.2011
  823MOL0     C 8524   1.128   1.402   9.038  0.4266  0.2702 -0.0052
  823MOL0     C 8525   1.086   1.418   9.185 -0.3624  0.4508 -0.1873
  823MOL0     C 8526   0.983   1.531   9.202  0.0489 -0.2187  0.2993
  823MOL0     C 8527   1.018   1.622   9.329 -0.7452 -0.5924 -0.0595
  823MOL0     O 8528   0.931   1.744   9.314  0.3580  0.0674  0.1015
  823MOL0     C 8529   0.960   1.857   9.387 -0.4156 -0.8256 -0.7648
  823MOL0     C 8530   1.036   1.863   9.502  0.0683  1.0592 -0.4314
  823MOL0     C 8531   1.066   1.978   9.571 -0.3872  0.7260  0.6308
  823MOL0     C 8532   1.006   2.100   9.528 -0.3312 -0.2119  0.4291
  823MOL0     C 8533   1.030   2.226   9.611  0.3785  0.6282 -0.1387
  823MOL0     O 8534   1.067   2.200   9.741  0.5272 -0.0401  1.1316
  823MOL0     C 8535   1.017   2.267   9.852 -0.0531  0.7428 -0.0753
  823MOL0     C 8536   0.902   2.210   9.922 -1.0030 -0.7108  0.9917
  823MOL0     C 8537   0.845   2.275  10.038  0.9584  0.2362  0.5287
  823MOL0     C 8538   0.908   2.398  10.073 -1.1048 -0.4817  0.5723
  823MOL0     O 8539   0.857   2.474  10.178 -0.8052  0.3604  0.5938
  823MOL0     C 8540   0.717   2.452  10.219  0.0836  0.4490  0.2751
  823MOL0     C 8541   0.673   2.542  10.329  0.0587 -0.0316  0.9300
  823MOL0     C 8542   0.559   2.634  10.277 -0.0399 -0.4133  0.1821
  823MOL0     C 8543   0.426   2.563  10.296  1.1177 -0.1651 -0.4479
  823MOL0     C 8544   0.319   2.672  10.303 -0.0386  0.0874 -0.4233
  823MOL0     C 8545   0.287   2.745  10.173  0.2439 -0.2395  0.1029
  823MOL0     C 8546   0.203   2.867  10.190  0.3511  0.3457  0.3996
  823MOL0     C 8547   0.181   2.936  10.057 -0.7651  0.0399 -1.1532
  823MOL0    Cl 8548   0.083   2.836   9.935 -0.2165 -0.0389  0.2307
  823MOL0     C 8549   1.024   2.446  10.006 -0.5819  1.1106 -0.1886
  823MOL0     C 8550   1.066   2.383   9.895  0.1327  0.5135  0.6253
  823MOL0     O 8551   0.995   2.326   9.560  0.4927 -0.4173 -0.3366
  823MOL0     C 8552   0.926   2.099   9.418 -0.4204 -0.6186  0.7893
  823MOL0     C 8553   0.905   1.983   9.346  0.5536 -0.2895 -0.5066
  823MOL0     N 8554   1.374   1.371   8.994  0.9724 -0.5762  0.6622
  823MOL0     N 8555   1.485   1.446   8.979 -0.5519 -0.2117  0.1529
  823MOL0     C 8556   1.770   1.914   7.913 -0.2746  0.0229 -0.4942
  823MOL0     C 8557   1.796   1.929   7.780  0.0878  0.1279  0.0340
  823MOL0     C 8558   1.701   2.042   7.350  0.1893 -0.8641 -0.1261
  823MOL0     C 8559   1.816   2.121   7.315 -0.6828 -0.8071 -0.1159
  823MOL0     C 8560   1.851   2.127   7.176  0.0607 -1.6125 -0.4741
  823MOL0     C 8561   1.766   2.074   7.074  1.6456  0.8730 -0.1750
  823MOL0     O 8562   1.785   2.100   6.944  0.5609  0.4703  0.6170
  823MOL0     C 8563   1.905   2.149   6.897 -0.1499  1.4805  0.6454
  823MOL0     C 8564   2.011   2.039   6.917  0.8820  1.0470  0.8553
  823MOL0     C 8565   2.143   2.087   6.862  0.4280  0.6923  0.6751
  823MOL0     C 8566   2.269   2.004   6.894 -0.7274 -0.0100  0.4480
  823MOL0     C 8567   2.291   1.997   7.038 -0.6625  0.6370  0.2585
  823MOL0     C 8568   2.321   1.954   7.150 -0.9874 -0.3836 -0.0747
  823MOL0     C 8569   1.644   2.007   7.114 -0.3415 -0.0235  0.3090
  823MOL0     C 8570   1.615   1.985   7.252  0.1454  0.2598 -1.1282
  823MOL0     H 8571   1.630   2.224   7.740  2.5979  1.2618  0.8337
  823MOL0     H 8572   1.579   2.183   7.975 -0.3087 -0.4730 -0.6037
  823MOL0     H 8573   1.575   1.803   8.034  5.1316 -1.9637  3.3018
  823MOL0     H 8574   1.444   1.899   8.108 -0.6849 -1.4893  1.7032
  823MOL0     H 8575   1.665   1.752   8.238  0.8110 -0.2867  0.0270
  823MOL0     H 8576   1.495   1.696   8.214  2.4993 -1.0470 -0.6565
  823MOL0     H 8577   1.416   1.862   8.369  0.3618 -1.5537 -1.6543
  823MOL0     H 8578   1.591   1.919   8.390  1.8814 -1.4647  2.4783
  823MOL0     H 8579   1.469   1.654   8.469 -0.4845 -0.6836  0.5629
  823MOL0     H 8580   1.643   1.690   8.477 -0.1177  0.8121  1.0355
  823MOL0     H 8581   1.456   1.867   8.626  0.6671  1.5605 -5.3848
  823MOL0     H 8582   1.634   1.871   8.628  1.9285 -0.7584 -1.0752
  823MOL0     H 8583   1.652   1.655   8.736  0.7316 -0.0614 -1.2814
  823MOL0     H 8584   1.471   1.643   8.733  1.5279 -0.9400  1.7277
  823MOL0     H 8585   1.633   1.842   8.868  0.0449  0.5421 -4.4208
  823MOL0     H 8586   1.456   1.850   8.869  0.3898  1.6157 -2.0450
  823MOL0     H 8587   1.517   1.741   9.087 -0.6888  1.0610 -0.8786
  823MOL0     H 8588   1.636   1.644   8.999  0.7411  0.9406 -5.9874
  823MOL0     H 8589   1.247   1.676   9.002  3.6323  1.8476  0.7540
  823MOL0     H 8590   1.121   1.299   9.004 -2.8045  0.8277 -1.3522
  823MOL0     H 8591   1.051   1.442   8.972 -1.2099  2.1910  2.8038
  823MOL0     H 8592   1.175   1.452   9.239 -0.0204  3.1659 -2.2085
  823MOL0     H 8593   1.046   1.324   9.223 -2.3243  1.7730  1.2353
  823MOL0     H 8594   0.988   1.604   9.121  1.7329 -0.9671 -0.3018
  823MOL0     H 8595   0.881   1.492   9.205 -0.2339  0.1022 -2.5415
  823MOL0     H 8596   1.120   1.659   9.328 -0.9441 -0.0402 -0.5463
  823MOL0     H 8597   1.000   1.573   9.425 -2.7607  0.3179  0.0961
  823MOL0     H 8598   1.062   1.767   9.545 -0.3501  0.8642 -0.6103
  823MOL0     H 8599   1.126   1.971   9.661 -2.4881  2.0826  2.2497
  823MOL0     H 8600   0.865   2.113   9.888  3.3078 -1.6847 -1.6683
  823MOL0     H 8601   0.767   2.221  10.091  0.5005  0.9738  0.6258
  823MOL0     H 8602   0.715   2.351  10.261  0.7256  0.6264  0.7401
  823MOL0     H 8603   0.650   2.456  10.132  2.1940 -0.6297 -1.5070
  823MOL0     H 8604   0.744   2.617  10.364  3.3561 -0.5649 -3.7117
  823MOL0     H 8605   0.637   2.482  10.414 -1.5225 -2.8187 -1.5275
  823MOL0     H 8606   0.574   2.647  10.169  1.8535 -1.3114  0.2876
  823MOL0     H 8607   0.556   2.732  10.324  1.7405  0.3937 -1.2758
  823MOL0     H 8608   0.394   2.502  10.211 -3.6409  1.2765 -0.0250
  823MOL0     H 8609   0.433   2.502  10.386 -1.1961 -1.1290 -0.8451
  823MOL0     H 8610   0.363   2.742  10.376  0.9029  0.7116 -1.5514
  823MOL0     H 8611   0.230   2.621  10.341  0.1786 -0.5384 -0.7373
  823MOL0     H 8612   0.226   2.672  10.119  0.4741 -0.5393  0.2426
  823MOL0     H 8613   0.379   2.767  10.118  0.7528 -0.4865  0.8382
  823MOL0     H 8614   0.109   2.839  10.239  2.1615 -2.2909  2.7240
  823MOL0     H 8615   0.266   2.940  10.243 -1.3554  1.4910  0.9296
  823MOL0     H 8616   0.275   2.977  10.021  0.8990 -1.3162  1.3101
  823MOL0     H 8617   0.125   3.025  10.087  3.0278  2.5956 -1.0395
  823MOL0     H 8618   1.088   2.527  10.040  0.3809 -0.8085  2.9268
  823MOL0     H 8619   1.148   2.424   9.836 -1.1918  1.6072 -0.5513
  823MOL0     H 8620   0.878   2.191   9.384 -1.2728 -1.4089 -0.2136
  823MOL0     H 8621   0.844   1.973   9.257 -1.4502  4.7003 -0.0177
  823MOL0     H 8622   1.818   1.836   7.972  1.4133  1.0291 -0.4925
  823MOL0     H 8623   1.867   1.867   7.727 -0.5271  0.4762 -1.2404
  823MOL0     H 8624   1.887   2.163   7.385 -1.9392  1.0833  0.1219
  823MOL0     H 8625   1.932   2.195   7.153 -1.9914  1.5623  0.9555
  823MOL0     H 8626   1.927   2.247   6.942 -1.6576  1.1556  2.1858
  823MOL0     H 8627   1.887   2.171   6.792  2.9590 -1.3363 -0.6531
  823MOL0     H 8628   2.031   2.006   7.019  4.8694 -1.2485 -0.4579
  823MOL0     H 8629   1.972   1.955   6.859  1.5281  0.0709  1.8049
  823MOL0     H 8630   2.156   2.189   6.899  2.2615 -0.6246  4.0438
  823MOL0     H 8631   2.126   2.096   6.754 -1.1204  0.7615  0.8954
  823MOL0     H 8632   2.262   1.917   6.827 -1.4181  1.9082 -2.1524
  823MOL0     H 8633   2.362   2.055   6.864 -0.9003  1.2777  1.9911
  823MOL0     H 8634   2.350   1.930   7.250 -1.7847 -2.6406 -0.3142
  823MOL0     H 8635   1.584   1.969   7.033 -0.0895 -1.3586  0.7217
  823MOL0     H 8636   1.537   1.912   7.274 -0.8314  1.9449  1.5155
  824MOL0     O 8637   5.788   2.560   5.643  0.0385 -0.1807 -0.4779
  824MOL0     C 8638   5.812   2.677   5.638  0.3652 -0.1779  0.2470
  824MOL0     O 8639   5.773   2.767   5.733  0.2844  0.3139 -0.1056
  824MOL0     C 8640   5.665   2.736   5.812  0.7668 -0.9210  0.2013
  824MOL0     C 8641   5.535   2.781   5.785  0.4575  0.0378  0.3814
  824MOL0     C 8642   5.423   2.742   5.854  0.4693 -0.3911 -0.6382
  824MOL0     C 8643   5.444   2.647   5.954  0.8159  0.6642  0.6835
  824MOL0     O 8644   5.330   2.604   6.022 -0.7474 -0.0625 -0.0876
  824MOL0     C 8645   5.330   2.632   6.163  0.3985 -0.8393 -0.1617
  824MOL0     C 8646   5.228   2.552   6.237  0.4112  0.7481 -0.4135
  824MOL0     C 8647   5.262   2.516   6.383  0.1263 -0.2930 -0.4643
  824MOL0     C 8648   5.212   2.621   6.484 -0.0120  0.3167  0.5696
  824MOL0     C 8649   5.239   2.587   6.636 -0.0794  0.0293 -0.1022
  824MOL0     C 8650   5.176   2.694   6.720 -0.2142 -0.0926  0.6731
  824MOL0     C 8651   5.131   2.637   6.864 -0.1153  0.9259  0.8858
  824MOL0     C 8652   4.999   2.561   6.848 -0.2373 -0.4744  0.1548
  824MOL0     N 8653   4.886   2.649   6.804  0.4684 -1.0239 -0.2269
  824MOL0     C 8654   4.827   2.763   6.856 -1.9923  0.4670  0.0832
  824MOL0     C 8655   4.714   2.782   6.785 -0.0534  0.5597 -0.6258
  824MOL0     C 8656   4.615   2.892   6.818  0.2023  0.4824  0.2338
  824MOL0     C 8657   4.549   2.901   6.961  0.3982 -0.5375 -0.1341
  824MOL0     C 8658   4.409   2.857   6.969 -0.0865 -0.4616 -1.1544
  824MOL0     C 8659   4.326   2.917   7.076 -0.2132  0.5291 -0.0038
  824MOL0     O 8660   4.189   2.875   7.057 -0.1998 -0.4331  0.1145
  824MOL0     C 8661   4.135   2.785   7.155 -1.1931  0.1151 -0.3187
  824MOL0     C 8662   4.188   2.658   7.175  0.0830 -0.2873 -0.1414
  824MOL0     C 8663   4.125   2.567   7.250 -1.0171  1.3103 -0.2793
  824MOL0     C 8664   4.007   2.593   7.318  0.3514 -1.0786 -1.1293
  824MOL0     C 8665   3.949   2.486   7.395  0.8985  0.6314  1.3396
  824MOL0     O 8666   4.032   2.386   7.425 -0.7704  0.0202 -0.4254
  824MOL0     C 8667   3.968   2.264   7.455  0.8076 -1.0895 -0.5284
  824MOL0     C 8668   3.920   2.241   7.590 -1.4144 -0.5811 -0.7029
  824MOL0     C 8669   3.838   2.127   7.611 -0.1409  0.6499 -0.5495
  824MOL0     C 8670   3.827   2.026   7.514  0.1523  0.1964  0.0241
  824MOL0     O 8671   3.781   1.902   7.535  0.9655 -0.7179  0.4090
  824MOL0     C 8672   3.728   1.858   7.655 -0.3672  0.2452  0.2837
  824MOL0     C 8673   3.651   1.741   7.635  0.6471  0.3770 -0.4875
  824MOL0     C 8674   3.737   1.621   7.623  0.1091  0.2233  0.3846
  824MOL0     C 8675   3.669   1.491   7.612 -0.4868 -0.3089 -0.1616
  824MOL0     C 8676   3.770   1.379   7.662  0.0556  0.4701 -0.4668
  824MOL0     C 8677   3.688   1.242   7.646 -0.9269 -0.3557  0.1173
  824MOL0     C 8678   3.659   1.194   7.501 -0.2983  0.6958  0.2466
  824MOL0     C 8679   3.589   1.054   7.506  0.9631 -0.7700 -0.0008
  824MOL0    Cl 8680   3.714   0.928   7.543  0.3046  0.6171 -0.1187
  824MOL0     C 8681   3.886   2.051   7.386 -0.0710 -0.0434 -0.4210
  824MOL0     C 8682   3.953   2.165   7.361  0.3009 -0.0554  0.4495
  824MOL0     O 8683   3.825   2.486   7.401 -0.0195  0.3224 -0.4595
  824MOL0     C 8684   3.945   2.718   7.299  0.4725 -0.3417  0.0866
  824MOL0     C 8685   4.009   2.817   7.216  0.9249 -0.6497  0.0716
  824MOL0     N 8686   4.716   2.696   6.676 -0.6899  0.6108  0.3542
  824MOL0     N 8687   4.822   2.614   6.693  0.0093 -0.4433  0.4129
  824MOL0     C 8688   5.571   2.601   5.984  0.7704 -0.7935 -0.5559
  824MOL0     C 8689   5.678   2.644   5.919  0.3375  0.4145  0.2092
  824MOL0     C 8690   5.909   2.728   5.532 -0.0655  0.0393 -0.1749
  824MOL0     C 8691   5.930   2.873   5.534  0.0672 -0.4672 -0.3571
  824MOL0     C 8692   6.008   2.931   5.437 -0.7105 -0.3278  0.0849
  824MOL0     C 8693   6.057   2.841   5.331  0.6328  0.0505 -0.6145
  824MOL0     O 8694   6.141   2.872   5.230 -0.4949  0.2934  0.1212
  824MOL0     C 8695   6.174   3.007   5.198 -0.1904  1.2461 -0.4231
  824MOL0     C 8696   6.268   2.998   5.081  0.5307 -0.5967 -0.3874
  824MOL0     C 8697   6.394   2.918   5.106 -0.8885 -0.6036 -0.3913
  824MOL0     C 8698   6.500   2.931   5.000 -0.1921  0.3288  0.1918
  824MOL0     C 8699   6.440   2.904   4.873  0.0262 -0.2046 -0.4142
  824MOL0     C 8700   6.389   2.865   4.766  0.5022  0.4933  0.2705
  824MOL0     C 8701   6.025   2.704   5.321 -0.4602 -0.6900  0.1451
  824MOL0     C 8702   5.955   2.648   5.423 -0.0191  0.4153 -0.7279
  824MOL0     H 8703   5.530   2.849   5.700  1.8633 -0.0967  0.1689
  824MOL0     H 8704   5.330   2.796   5.836  0.6282 -0.2133 -0.9328
  824MOL0     H 8705   5.314   2.740   6.172  1.4929 -0.7138  0.3523
  824MOL0     H 8706   5.428   2.604   6.203 -0.3099 -0.0934  2.2263
  824MOL0     H 8707   5.210   2.461   6.178  1.5745  0.2990 -0.0931
  824MOL0     H 8708   5.136   2.610   6.229  0.3599  0.5441 -1.5031
  824MOL0     H 8709   5.370   2.502   6.389  0.1622 -0.4176 -1.2326
  824MOL0     H 8710   5.205   2.427   6.412 -0.7847  0.3073 -0.3520
  824MOL0     H 8711   5.258   2.718   6.462  1.2163 -0.5539 -0.8585
  824MOL0     H 8712   5.104   2.640   6.484 -0.6659 -2.7542 -1.4515
  824MOL0     H 8713   5.345   2.576   6.662  0.1038  1.9564  0.1253
  824MOL0     H 8714   5.195   2.487   6.647  1.1090 -0.7268 -1.8054
  824MOL0     H 8715   5.090   2.733   6.665  0.1874 -3.6610 -3.0076
  824MOL0     H 8716   5.248   2.775   6.734 -0.2254  0.4332 -1.7990
  824MOL0     H 8717   5.210   2.569   6.898  1.2285 -0.0602 -3.5344
  824MOL0     H 8718   5.109   2.714   6.938 -1.6606  0.2281  1.1893
  824MOL0     H 8719   4.973   2.516   6.944 -2.0102  1.7217  0.7923
  824MOL0     H 8720   5.002   2.482   6.772  0.1824 -1.7980  1.4987
  824MOL0     H 8721   4.867   2.825   6.936 -0.1661 -0.0685 -0.3664
  824MOL0     H 8722   4.537   2.889   6.741 -0.2863  0.0200  0.7394
  824MOL0     H 8723   4.678   2.980   6.807  1.6422 -0.3621  1.3078
  824MOL0     H 8724   4.557   3.004   6.997  0.4244 -0.5301 -0.1612
  824MOL0     H 8725   4.603   2.835   7.029  0.2432 -2.1638 -1.5232
  824MOL0     H 8726   4.355   2.880   6.876 -2.3937 -2.2392 -0.3287
  824MOL0     H 8727   4.407   2.748   6.977  0.9223 -0.3981  0.2964
  824MOL0     H 8728   4.335   3.026   7.079  2.4608  0.3605  2.2494
  824MOL0     H 8729   4.375   2.871   7.163  3.8637 -3.6620 -3.9553
  824MOL0     H 8730   4.276   2.620   7.123 -0.4910 -0.9677 -0.6216
  824MOL0     H 8731   4.173   2.469   7.250 -0.1226  1.7313 -1.4185
  824MOL0     H 8732   3.936   2.318   7.665  0.0033  0.4760 -2.0089
  824MOL0     H 8733   3.803   2.103   7.711  3.5391 -1.9079  0.3877
  824MOL0     H 8734   3.661   1.933   7.699 -2.2100  2.0242 -4.9012
  824MOL0     H 8735   3.804   1.838   7.731 -0.6797  1.5320  0.9575
  824MOL0     H 8736   3.598   1.755   7.541  2.8900 -0.5716 -1.9763
  824MOL0     H 8737   3.583   1.736   7.721 -0.7907 -1.0086 -1.6532
  824MOL0     H 8738   3.790   1.606   7.718  2.1474  0.3387 -0.6945
  824MOL0     H 8739   3.807   1.641   7.542  0.8574  2.8468  1.5879
  824MOL0     H 8740   3.582   1.489   7.680  0.5433  0.0827  1.2151
  824MOL0     H 8741   3.641   1.478   7.507  2.9132 -1.8861 -1.0166
  824MOL0     H 8742   3.791   1.393   7.768 -1.9714 -0.8416  0.1649
  824MOL0     H 8743   3.857   1.383   7.595 -0.1596 -1.4773 -0.9253
  824MOL0     H 8744   3.593   1.250   7.700 -1.9466  1.2787 -1.7944
  824MOL0     H 8745   3.750   1.176   7.707 -0.2465 -1.2842 -1.5394
  824MOL0     H 8746   3.590   1.268   7.460  0.7506  2.7597  2.0715
  824MOL0     H 8747   3.753   1.195   7.445 -0.6691  1.6379 -0.3757
  824MOL0     H 8748   3.541   1.039   7.409 -3.1809  0.0608  1.7217
  824MOL0     H 8749   3.519   1.058   7.590 -0.6378  0.5951 -1.3446
  824MOL0     H 8750   3.883   1.968   7.316  1.4167 -1.2143  0.8310
  824MOL0     H 8751   3.998   2.168   7.263  0.1673  0.2735  0.3957
  824MOL0     H 8752   3.850   2.750   7.342 -0.2563 -2.6529  0.3074
  824MOL0     H 8753   3.947   2.903   7.196 -2.8640 -3.1657 -0.0838
  824MOL0     H 8754   5.587   2.532   6.066 -2.0547 -0.6914  0.1795
  824MOL0     H 8755   5.774   2.604   5.948  0.2013 -3.0912 -3.3207
  824MOL0     H 8756   5.887   2.939   5.608 -2.3123 -2.6874  0.3967
  824MOL0     H 8757   6.019   3.038   5.449  3.3059 -0.7707  2.3734
  824MOL0     H 8758   6.229   3.066   5.273  3.4722 -0.6618 -1.3270
  824MOL0     H 8759   6.088   3.065   5.165 -1.4516  1.1065  2.3343
  824MOL0     H 8760   6.204   2.959   5.002  3.5552  1.1256 -3.9859
  824MOL0     H 8761   6.299   3.097   5.046  0.7842 -0.3332  0.5401
  824MOL0     H 8762   6.368   2.813   5.125  1.2587 -0.7108  2.4511
  824MOL0     H 8763   6.427   2.957   5.202  0.6640 -0.3254 -1.0163
  824MOL0     H 8764   6.546   3.030   5.005 -0.2391  0.2950  2.1779
  824MOL0     H 8765   6.581   2.857   5.010 -0.6399  0.0522  2.5010
  824MOL0     H 8766   6.341   2.820   4.681 -0.6920 -1.2935  1.8287
  824MOL0     H 8767   6.052   2.646   5.233  0.8990 -1.9865  1.3751
  824MOL0     H 8768   5.927   2.543   5.417 -0.4197  0.6091 -3.2463
  825MOL0     O 8769   2.820   7.861  10.734  0.2746 -0.7506 -0.5217
  825MOL0     C 8770   2.809   7.746  10.692  0.9554 -1.0189 -0.3500
  825MOL0     O 8771   2.713   7.658  10.738  0.0186  0.4528  0.4500
  825MOL0     C 8772   2.610   7.703  10.824  0.1134 -0.2565  0.1655
  825MOL0     C 8773   2.486   7.682  10.770 -0.2577 -0.3089  0.4827
  825MOL0     C 8774   2.370   7.708  10.844 -0.4754  0.4009  0.4051
  825MOL0     C 8775   2.377   7.775  10.968 -0.5976  0.8884 -0.0046
  825MOL0     O 8776   2.262   7.815  11.028  0.4001 -0.3333 -0.1893
  825MOL0     C 8777   2.271   7.942  11.101 -0.3978  0.0200  0.6854
  825MOL0     C 8778   2.134   7.989  11.118  1.8320 -0.7649  0.1700
  825MOL0     C 8779   2.125   8.139  11.118 -0.5480  0.3463  0.3115
  825MOL0     C 8780   1.971   8.180  11.110 -0.1016  0.0452 -0.4469
  825MOL0     C 8781   1.934   8.316  11.042 -0.3901 -0.5322  0.1118
  825MOL0     C 8782   2.000   8.326  10.899  1.2811 -0.8505 -0.5794
  825MOL0     C 8783   2.024   8.474  10.869 -0.6177 -0.6776 -1.1364
  825MOL0     C 8784   2.106   8.480  10.734  1.0317 -0.3892  0.2594
  825MOL0     N 8785   2.181   8.605  10.726  0.7798  0.1006 -0.7772
  825MOL0     C 8786   2.136   8.734  10.746 -0.0487  0.7124  0.6177
  825MOL0     C 8787   2.247   8.805  10.727 -0.8898 -0.1187 -0.4791
  825MOL0     C 8788   2.255   8.953  10.767 -0.4328  0.5332  0.2023
  825MOL0     C 8789   2.340   9.031  10.670  0.9398  0.7033 -0.0974
  825MOL0     C 8790   2.354   9.175  10.716 -0.9409 -0.0995  0.0891
  825MOL0     C 8791   2.460   9.256  10.630 -0.0198  0.6518  0.2900
  825MOL0     O 8792   2.489   9.384  10.699  0.4167  0.0349 -0.1695
  825MOL0     C 8793   2.593   9.453  10.654 -0.9603 -0.1661  1.5220
  825MOL0     C 8794   2.617   9.475  10.514 -0.0587 -0.1215 -0.2408
  825MOL0     C 8795   2.730   9.553  10.476  0.6015 -0.2787 -0.2046
  825MOL0     C 8796   2.827   9.589  10.570  0.3025  0.1557  0.0561
  825MOL0     C 8797   2.953   9.664  10.530  0.6506 -0.9030  0.4059
  825MOL0     O 8798   2.948   9.709  10.395 -0.2521  0.2613 -0.2791
  825MOL0     C 8799   3.039   9.787  10.335 -0.3748 -0.1771  0.2129
  825MOL0     C 8800   3.038   9.787  10.202  0.6620  0.2262  0.1293
  825MOL0     C 8801   3.138   9.863  10.122 -0.3569  0.5627 -0.8260
  825MOL0     C 8802   3.236   9.940  10.179 -0.4603  0.3394  0.5601
  825MOL0     O 8803   3.330  10.002  10.106 -0.8094 -0.2549  0.3964
  825MOL0     C 8804   3.452  10.031  10.170  0.6913  0.0211 -0.7252
  825MOL0     C 8805   3.538   9.911  10.194  0.1338  0.4276 -0.1937
  825MOL0     C 8806   3.654   9.915  10.106 -0.0883 -0.3434 -0.2157
  825MOL0     C 8807   3.620   9.912   9.963  1.4068 -0.2668  0.1747
  825MOL0     C 8808   3.594   9.768   9.920  1.0510  0.0342  1.0310
  825MOL0     C 8809   3.555   9.757   9.775 -0.0829  0.0179 -0.4013
  825MOL0     C 8810   3.411   9.799   9.733 -0.4252 -0.5664 -0.2865
  825MOL0     C 8811   3.407   9.824   9.581 -0.3508 -0.0376 -0.6034
  825MOL0    Cl 8812   3.454   9.669   9.491  0.1522 -0.6339 -0.1727
  825MOL0     C 8813   3.227   9.944  10.318 -0.1515 -0.5884 -0.3077
  825MOL0     C 8814   3.128   9.875  10.396 -0.0483 -0.7718  0.1069
  825MOL0     O 8815   3.035   9.693  10.614  0.4631 -0.0105  0.1369
  825MOL0     C 8816   2.815   9.563  10.703  0.8390  0.2650 -0.0902
  825MOL0     C 8817   2.692   9.502  10.734 -0.1282  0.1341 -0.3201
  825MOL0     N 8818   2.355   8.720  10.685  0.3002  0.5358 -0.0482
  825MOL0     N 8819   2.318   8.600  10.699  0.7521 -0.4537 -0.0453
  825MOL0     C 8820   2.504   7.790  11.018  0.4626  0.2213  0.2131
  825MOL0     C 8821   2.623   7.751  10.957  0.3342 -0.2429 -0.3737
  825MOL0     C 8822   2.911   7.694  10.605 -0.6287  0.1188 -0.8114
  825MOL0     C 8823   2.907   7.567  10.559 -0.1113 -0.5502  0.2439
  825MOL0     C 8824   2.999   7.515  10.478 -0.2739  0.6652  0.8963
  825MOL0     C 8825   3.124   7.586  10.465  0.6514  0.3485  0.0393
  825MOL0     O 8826   3.221   7.532  10.390 -0.1892 -0.1640 -0.4748
  825MOL0     C 8827   3.353   7.567  10.437  0.1445  0.6629 -0.3135
  825MOL0     C 8828   3.434   7.443  10.463 -0.3499 -0.3005  0.0703
  825MOL0     C 8829   3.385   7.342  10.569  0.4463  0.1263  0.6732
  825MOL0     C 8830   3.322   7.223  10.503  0.2309  0.0328  0.9643
  825MOL0     C 8831   3.414   7.136  10.439 -0.0216 -0.2594 -0.8230
  825MOL0     C 8832   3.496   7.087  10.363  0.0431 -0.5952  0.5166
  825MOL0     C 8833   3.118   7.711  10.512 -0.2849 -0.2982 -0.1490
  825MOL0     C 8834   3.018   7.769  10.583  0.3236  0.4139  0.2635
  825MOL0     H 8835   2.461   7.646  10.671 -4.0109  0.8398  0.8355
  825MOL0     H 8836   2.283   7.700  10.780  0.5089  1.4529 -1.1329
  825MOL0     H 8837   2.316   8.009  11.026 -1.6257  2.4334  1.9678
  825MOL0     H 8838   2.329   7.946  11.193 -1.6975  0.9875  1.5059
  825MOL0     H 8839   2.080   7.945  11.202  0.1584  1.2141  0.1896
  825MOL0     H 8840   2.075   7.972  11.028 -1.0453 -0.5759  1.9018
  825MOL0     H 8841   2.188   8.173  11.035  0.3349 -2.0705 -0.0842
  825MOL0     H 8842   2.169   8.180  11.210 -2.8728 -0.5817  1.9115
  825MOL0     H 8843   1.926   8.102  11.048 -0.2927  0.5294 -0.9166
  825MOL0     H 8844   1.934   8.171  11.213 -1.0405 -0.2655 -0.7988
  825MOL0     H 8845   1.977   8.391  11.109 -2.4566 -0.2318  1.1891
  825MOL0     H 8846   1.826   8.333  11.029  0.4843  3.8631 -4.6083
  825MOL0     H 8847   1.930   8.289  10.824 -0.6913 -2.1651  1.7616
  825MOL0     H 8848   2.085   8.258  10.891  0.4274 -1.9144 -0.9558
  825MOL0     H 8849   1.924   8.515  10.852  0.1362  2.2297  0.7070
  825MOL0     H 8850   2.081   8.524  10.948  0.0877 -1.8310 -0.8942
  825MOL0     H 8851   2.037   8.480  10.649  2.8773 -1.1833 -1.2952
  825MOL0     H 8852   2.174   8.395  10.726  0.6978 -0.4479 -3.3638
  825MOL0     H 8853   2.042   8.765  10.789  0.5107  0.5037  2.0474
  825MOL0     H 8854   2.301   8.961  10.866 -1.9809 -0.0398  1.0184
  825MOL0     H 8855   2.155   8.992  10.788 -0.5568  1.1887 -1.4416
  825MOL0     H 8856   2.299   9.026  10.569  1.4517  0.6928 -0.3025
  825MOL0     H 8857   2.436   8.979  10.659  1.1052  0.3371  2.4302
  825MOL0     H 8858   2.265   9.237  10.703  1.8589  4.1376 -0.8553
  825MOL0     H 8859   2.392   9.193  10.817 -2.0656  0.8291  0.3787
  825MOL0     H 8860   2.428   9.269  10.527  0.0861  2.5730  0.4726
  825MOL0     H 8861   2.548   9.192  10.631  0.2143  0.9586 -0.5717
  825MOL0     H 8862   2.541   9.469  10.437  0.4727  1.8290 -0.9951
  825MOL0     H 8863   2.738   9.579  10.371 -3.2087  0.3484 -0.4964
  825MOL0     H 8864   2.954   9.731  10.162 -0.7877  2.3615 -0.0424
  825MOL0     H 8865   3.132   9.860  10.014  0.5493  2.0634 -0.9302
  825MOL0     H 8866   3.441  10.083  10.266  0.9086 -5.0578  2.4465
  825MOL0     H 8867   3.499  10.105  10.105  3.0112 -2.1930 -1.7290
  825MOL0     H 8868   3.492   9.814  10.171  0.2462  0.4597 -0.5424
  825MOL0     H 8869   3.572   9.902  10.298 -0.7073  0.2844  0.0760
  825MOL0     H 8870   3.727   9.839  10.133 -0.0590  0.0641  0.9343
  825MOL0     H 8871   3.700  10.012  10.129 -0.8261 -0.1090  0.3218
  825MOL0     H 8872   3.531   9.966   9.931  0.5581  0.0822  2.9038
  825MOL0     H 8873   3.711   9.943   9.910 -0.1521  3.6017 -0.6102
  825MOL0     H 8874   3.516   9.725   9.984  2.7150 -1.8659  1.8743
  825MOL0     H 8875   3.679   9.702   9.934  1.5358  0.3735 -0.2096
  825MOL0     H 8876   3.565   9.652   9.744  2.9645  0.0515  0.1212
  825MOL0     H 8877   3.635   9.809   9.722  0.3040  0.7941  0.9150
  825MOL0     H 8878   3.343   9.716   9.757  0.8248 -1.3153  0.8073
  825MOL0     H 8879   3.369   9.890   9.777 -2.8340 -0.5707 -2.3383
  825MOL0     H 8880   3.475   9.904   9.553  0.8510 -1.1874 -1.0444
  825MOL0     H 8881   3.311   9.849   9.535  0.1514 -1.4373 -2.5122
  825MOL0     H 8882   3.296  10.005  10.376  1.9170 -1.8422 -1.3317
  825MOL0     H 8883   3.121   9.887  10.503 -2.7693  0.3284 -0.1083
  825MOL0     H 8884   2.895   9.583  10.773 -0.1588  1.7767  0.6741
  825MOL0     H 8885   2.676   9.494  10.841  1.5106  1.6046  0.0948
  825MOL0     H 8886   2.516   7.822  11.121 -1.0764  1.4691  0.0372
  825MOL0     H 8887   2.710   7.759  11.022 -1.1220 -2.4778  2.0621
  825MOL0     H 8888   2.821   7.502  10.569 -1.0137 -0.0328 -3.1661
  825MOL0     H 8889   2.990   7.415  10.436  4.2325  0.4441 -0.0951
  825MOL0     H 8890   3.348   7.643  10.516  0.8444 -1.1038  1.5365
  825MOL0     H 8891   3.391   7.619  10.349  0.9380  1.3809  0.4407
  825MOL0     H 8892   3.444   7.390  10.368  2.6473  1.6673 -0.8381
  825MOL0     H 8893   3.535   7.470  10.494 -0.1959 -2.3407  1.5941
  825MOL0     H 8894   3.305   7.375  10.635  0.6363 -2.2117  2.2118
  825MOL0     H 8895   3.466   7.318  10.639  0.7071 -2.0371 -0.2908
  825MOL0     H 8896   3.250   7.170  10.566 -1.1203 -0.3373 -0.8196
  825MOL0     H 8897   3.266   7.272  10.423  3.9175  1.9820 -0.6546
  825MOL0     H 8898   3.580   7.049  10.308  0.3232 -3.5374  2.7739
  825MOL0     H 8899   3.196   7.783  10.489 -0.0692 -0.6205 -0.4334
  825MOL0     H 8900   3.011   7.875  10.607 -1.5017  0.1388  1.1127
  826MOL0     O 8901   7.332   7.430   8.238  0.1620 -1.2898 -1.1633
  826MOL0     C 8902   7.432   7.424   8.308 -0.7586  0.1264 -1.2294
  826MOL0     O 8903   7.557   7.460   8.264  0.9147 -0.1433 -0.1980
  826MOL0     C 8904   7.563   7.511   8.140 -0.1490 -0.2657 -0.1028
  826MOL0     C 8905   7.556   7.652   8.119 -0.6193  0.1002 -0.1240
  826MOL0     C 8906   7.570   7.701   7.988 -0.6195  0.6598  0.1417
  826MOL0     C 8907   7.596   7.611   7.889 -0.2174  0.7223 -0.2654
  826MOL0     O 8908   7.625   7.659   7.764  0.1241  0.3939  0.4410
  826MOL0     C 8909   7.705   7.777   7.754 -0.3603  0.6838 -0.1367
  826MOL0     C 8910   7.782   7.763   7.622 -0.2368 -0.2969  0.3100
  826MOL0     C 8911   7.688   7.762   7.495 -0.1580 -0.3036  0.0422
  826MOL0     C 8912   7.770   7.764   7.364  0.1857 -1.0941  0.7205
  826MOL0     C 8913   7.714   7.674   7.254 -0.0170 -0.3782  0.6735
  826MOL0     C 8914   7.753   7.723   7.112 -0.4941  0.6077 -0.8901
  826MOL0     C 8915   7.901   7.693   7.094  0.8939  0.2997 -0.1446
  826MOL0     C 8916   7.933   7.716   6.948  0.4538  0.0644 -0.3011
  826MOL0     N 8917   8.070   7.664   6.945  0.8463 -0.1650  0.1199
  826MOL0     C 8918   8.179   7.729   6.991  0.1431  0.1617 -0.0618
  826MOL0     C 8919   8.282   7.644   6.953  0.1019 -0.7121 -0.1608
  826MOL0     C 8920   8.422   7.687   6.964  0.1849 -0.5694  0.3121
  826MOL0     C 8921   8.488   7.745   6.834  0.1271  0.0360  0.8268
  826MOL0     C 8922   8.392   7.832   6.743 -0.2927 -0.2761 -0.7496
  826MOL0     C 8923   8.470   7.944   6.667 -0.1368  0.1293  0.0362
  826MOL0     O 8924   8.394   8.031   6.571  0.5368  0.3971 -0.3490
  826MOL0     C 8925   8.336   8.153   6.609 -0.5138 -0.1914  0.3960
  826MOL0     C 8926   8.333   8.211   6.739 -0.4044  0.9942  0.2424
  826MOL0     C 8927   8.271   8.327   6.769  0.6665 -0.4551  0.2960
  826MOL0     C 8928   8.203   8.401   6.673  0.4970 -0.6417  0.3146
  826MOL0     C 8929   8.149   8.533   6.710 -0.9557  0.8888 -0.3407
  826MOL0     O 8930   8.175   8.575   6.839 -0.2122  0.3172  0.2610
  826MOL0     C 8931   8.073   8.627   6.907 -0.7899  0.6194 -0.7677
  826MOL0     C 8932   8.086   8.760   6.936  0.0453 -0.5163  0.7629
  826MOL0     C 8933   7.986   8.824   7.014 -0.9505  0.0995  0.4174
  826MOL0     C 8934   7.884   8.751   7.074  0.1144 -0.8240 -0.1982
  826MOL0     O 8935   7.816   8.810   7.175 -0.0266  0.2046  0.2672
  826MOL0     C 8936   7.721   8.724   7.251  0.6205 -0.1807  0.3112
  826MOL0     C 8937   7.686   8.807   7.371  0.5501  0.1682  0.3851
  826MOL0     C 8938   7.763   8.759   7.493 -0.5645  0.3419  0.0816
  826MOL0     C 8939   7.911   8.774   7.485  0.2067 -0.6111 -0.1653
  826MOL0     C 8940   7.982   8.757   7.622  0.0553 -0.8541 -0.5848
  826MOL0     C 8941   8.125   8.795   7.628 -0.9264  0.1760 -1.0518
  826MOL0     C 8942   8.203   8.715   7.526  0.3450  0.1683 -0.8587
  826MOL0     C 8943   8.357   8.703   7.562  1.5881  0.3673  0.4423
  826MOL0    Cl 8944   8.451   8.855   7.540 -0.4603  0.1605  0.0153
  826MOL0     C 8945   7.890   8.613   7.047  0.0185  0.1064  1.2333
  826MOL0     C 8946   7.980   8.547   6.963  0.0276  0.3118 -0.7281
  826MOL0     O 8947   8.085   8.593   6.624  0.3285 -0.1739  0.4997
  826MOL0     C 8948   8.198   8.343   6.546 -0.5864  0.3967  0.3789
  826MOL0     C 8949   8.264   8.226   6.516  0.2010 -0.5831  0.2675
  826MOL0     N 8950   8.232   7.539   6.883 -0.0185  0.5342  0.2569
  826MOL0     N 8951   8.103   7.555   6.879 -0.8436  0.2812  0.3400
  826MOL0     C 8952   7.613   7.475   7.910  0.3710 -0.6866 -0.1144
  826MOL0     C 8953   7.580   7.423   8.037 -0.5620 -1.2984 -0.3203
  826MOL0     C 8954   7.439   7.347   8.428  0.2159 -0.3913  0.2084
  826MOL0     C 8955   7.344   7.239   8.455 -0.2396  0.3757  0.7575
  826MOL0     C 8956   7.359   7.157   8.570  0.3147  0.4990  0.6202
  826MOL0     C 8957   7.452   7.183   8.671  0.1728 -0.6537  0.8764
  826MOL0     O 8958   7.476   7.112   8.786 -0.6201 -0.1706 -0.3027
  826MOL0     C 8959   7.413   6.980   8.803  1.1882  0.3354  0.8175
  826MOL0     C 8960   7.472   6.916   8.935 -1.0885 -0.8570  0.3117
  826MOL0     C 8961   7.421   6.784   8.975  0.4002  0.4106 -0.0925
  826MOL0     C 8962   7.426   6.676   8.857  0.9594 -0.9949  0.2438
  826MOL0     C 8963   7.408   6.543   8.889 -0.3544 -0.0481 -0.8304
  826MOL0     C 8964   7.391   6.427   8.885  0.2768  0.0648 -0.0879
  826MOL0     C 8965   7.531   7.298   8.653 -0.8871  0.1576 -0.6880
  826MOL0     C 8966   7.533   7.369   8.527  0.2043  0.7812  0.4476
  826MOL0     H 8967   7.524   7.718   8.199  1.2469  2.0554 -0.8906
  826MOL0     H 8968   7.564   7.808   7.975  1.1961  0.6959 -0.6502
  826MOL0     H 8969   7.769   7.788   7.842 -1.8969 -1.2496  1.3203
  826MOL0     H 8970   7.642   7.865   7.739  1.7762  2.0919 -1.3600
  826MOL0     H 8971   7.841   7.672   7.630 -0.2647 -0.1312  3.2190
  826MOL0     H 8972   7.860   7.839   7.610  0.2296 -0.7158  0.6647
  826MOL0     H 8973   7.621   7.848   7.497  0.3692  0.1330 -0.6164
  826MOL0     H 8974   7.624   7.674   7.505 -0.8096 -0.0029 -1.2103
  826MOL0     H 8975   7.784   7.869   7.337 -0.5105 -0.6461  2.0101
  826MOL0     H 8976   7.874   7.733   7.380  1.0359  1.2612  0.2165
  826MOL0     H 8977   7.605   7.685   7.255 -0.0374 -0.0511 -1.2227
  826MOL0     H 8978   7.741   7.569   7.264  1.4567  0.1506  2.7674
  826MOL0     H 8979   7.722   7.826   7.096 -2.2801  0.0558 -1.2558
  826MOL0     H 8980   7.699   7.663   7.039  2.0786  1.4008 -3.6318
  826MOL0     H 8981   7.961   7.752   7.164  0.3307 -0.6764  1.1928
  826MOL0     H 8982   7.920   7.589   7.120  0.9918  0.7362  1.6536
  826MOL0     H 8983   7.937   7.821   6.920  0.5184 -0.0080 -0.5681
  826MOL0     H 8984   7.867   7.655   6.886  2.0983  1.2989 -3.5203
  826MOL0     H 8985   8.184   7.820   7.049 -2.9899  1.6248 -1.8394
  826MOL0     H 8986   8.488   7.603   6.985  2.5073  0.3796 -2.5494
  826MOL0     H 8987   8.434   7.751   7.052 -0.4109 -2.3970  1.7883
  826MOL0     H 8988   8.518   7.661   6.771 -0.0605 -1.6307  2.8559
  826MOL0     H 8989   8.576   7.807   6.856 -0.3150  0.6889  0.7994
  826MOL0     H 8990   8.330   7.765   6.681 -1.6855 -1.3853  1.7118
  826MOL0     H 8991   8.316   7.881   6.804 -0.2081 -1.5451  0.4191
  826MOL0     H 8992   8.547   7.890   6.611 -1.7377 -0.3088 -1.8399
  826MOL0     H 8993   8.524   8.008   6.738 -0.9020  1.8837 -0.8840
  826MOL0     H 8994   8.389   8.150   6.809 -4.4599 -1.5838  1.6241
  826MOL0     H 8995   8.281   8.360   6.872 -0.7957 -1.2206  0.7193
  826MOL0     H 8996   8.160   8.813   6.876 -0.7164 -0.7545 -0.4134
  826MOL0     H 8997   7.997   8.930   7.036  3.0635 -0.4850  2.0393
  826MOL0     H 8998   7.763   8.631   7.290 -0.7197 -0.1139  2.0024
  826MOL0     H 8999   7.633   8.690   7.196 -0.3186 -1.4940  2.5144
  826MOL0     H 9000   7.583   8.800   7.408 -0.4126  1.0368 -1.9133
  826MOL0     H 9001   7.706   8.912   7.348 -2.9721  1.0588  0.8413
  826MOL0     H 9002   7.735   8.654   7.510  4.2196 -1.0235  0.9445
  826MOL0     H 9003   7.749   8.819   7.583 -0.7032  1.3044 -0.5702
  826MOL0     H 9004   7.951   8.698   7.418  0.3839 -0.3103 -0.4055
  826MOL0     H 9005   7.933   8.879   7.461  0.4124 -0.5888  0.1112
  826MOL0     H 9006   7.974   8.651   7.645  2.3399 -1.8319 -3.7039
  826MOL0     H 9007   7.928   8.823   7.691 -1.5227 -1.3575 -1.3032
  826MOL0     H 9008   8.167   8.770   7.726  0.4215 -0.2262 -1.7036
  826MOL0     H 9009   8.144   8.901   7.608 -2.9682  1.3476  2.3762
  826MOL0     H 9010   8.165   8.614   7.510  0.6342 -0.1459  0.3326
  826MOL0     H 9011   8.195   8.764   7.428  1.3154  1.1362 -0.4837
  826MOL0     H 9012   8.391   8.615   7.506 -1.1619 -2.1248  2.3537
  826MOL0     H 9013   8.362   8.669   7.666 -1.5454 -0.0648  0.5453
  826MOL0     H 9014   7.820   8.551   7.101 -0.2273 -0.1790  0.6083
  826MOL0     H 9015   7.986   8.439   6.953 -2.7449  0.1941 -2.0702
  826MOL0     H 9016   8.134   8.392   6.472 -4.0680 -1.0223  2.2335
  826MOL0     H 9017   8.271   8.195   6.412 -0.7978 -0.0819  0.0339
  826MOL0     H 9018   7.644   7.410   7.829 -1.4481  1.2731 -2.5149
  826MOL0     H 9019   7.587   7.316   8.052  2.3979 -1.1897 -0.3106
  826MOL0     H 9020   7.261   7.214   8.389 -0.2143  2.3405 -0.0701
  826MOL0     H 9021   7.286   7.077   8.578  0.4750  0.1296 -1.1269
  826MOL0     H 9022   7.443   6.915   8.721 -2.6486  1.1055 -1.4425
  826MOL0     H 9023   7.306   6.997   8.820  1.2185  0.1592  1.1904
  826MOL0     H 9024   7.581   6.918   8.929 -0.9766  0.7153  2.0900
  826MOL0     H 9025   7.427   6.986   9.006 -2.6949  0.5458 -1.9455
  826MOL0     H 9026   7.315   6.791   9.004  1.2129  1.2364  3.1350
  826MOL0     H 9027   7.482   6.742   9.055  1.7730 -3.2182 -2.7797
  826MOL0     H 9028   7.338   6.697   8.795 -0.2185 -0.4081  2.0161
  826MOL0     H 9029   7.519   6.693   8.802  2.3995  0.8286  3.0360
  826MOL0     H 9030   7.387   6.320   8.894 -0.4692  0.2265  2.3276
  826MOL0     H 9031   7.601   7.343   8.723 -0.7345  0.1781 -0.8522
  826MOL0     H 9032   7.608   7.445   8.508  2.7661 -0.8957  2.9394
  827MOL0     O 9033   7.028   6.940   8.509 -0.4435  0.3053 -0.9902
  827MOL0     C 9034   6.920   6.888   8.532 -0.5051 -0.3578  0.6980
  827MOL0     O 9035   6.796   6.942   8.491  0.2477  0.1639 -0.4895
  827MOL0     C 9036   6.804   7.060   8.418  0.0522  0.5013  0.0392
  827MOL0     C 9037   6.847   7.065   8.289 -0.1450 -0.6087 -0.4967
  827MOL0     C 9038   6.865   7.189   8.227  0.3165  0.8227  0.2193
  827MOL0     C 9039   6.821   7.306   8.285 -0.3129 -0.6713 -0.6928
  827MOL0     O 9040   6.811   7.424   8.212 -0.0771  0.1792  0.1596
  827MOL0     C 9041   6.931   7.474   8.154  0.5169 -0.7336  0.2022
  827MOL0     C 9042   6.939   7.631   8.156  0.0453 -0.1600  0.4497
  827MOL0     C 9043   6.974   7.671   8.298 -0.4242  0.2615 -0.0198
  827MOL0     C 9044   7.004   7.817   8.304 -0.3757 -0.2852  0.3995
  827MOL0     C 9045   6.897   7.922   8.333 -0.1929 -0.6921 -0.3634
  827MOL0     C 9046   6.860   7.943   8.483 -1.2890  0.7494  0.7741
  827MOL0     C 9047   6.737   8.031   8.501 -0.1156  0.3247  0.4228
  827MOL0     C 9048   6.766   8.152   8.576  0.2321 -0.0106  0.5658
  827MOL0     N 9049   6.644   8.237   8.593  0.0963  1.2784 -0.4979
  827MOL0     C 9050   6.580   8.322   8.503  0.8609  0.5026 -0.6487
  827MOL0     C 9051   6.490   8.397   8.579  0.0600 -0.3182 -0.2046
  827MOL0     C 9052   6.415   8.516   8.527  1.1239  0.0023  0.7387
  827MOL0     C 9053   6.262   8.503   8.501 -0.3157 -0.3108 -0.9000
  827MOL0     C 9054   6.196   8.509   8.638  0.1410  1.0897 -0.7556
  827MOL0     C 9055   6.063   8.427   8.642 -0.5155  0.0225 -0.1356
  827MOL0     O 9056   5.966   8.492   8.559  0.3196  0.6667  0.5133
  827MOL0     C 9057   5.841   8.439   8.555  0.1364 -0.0753 -0.0728
  827MOL0     C 9058   5.742   8.519   8.500  0.3569 -0.3751  0.0379
  827MOL0     C 9059   5.604   8.489   8.519  0.0891  0.7438  0.7264
  827MOL0     C 9060   5.563   8.367   8.575  0.3529 -0.2722  0.4222
  827MOL0     C 9061   5.428   8.321   8.584 -0.2601 -0.0864  0.0575
  827MOL0     O 9062   5.390   8.267   8.704  0.5571  0.3438  0.2472
  827MOL0     C 9063   5.269   8.233   8.733 -1.0387 -0.1130 -0.4359
  827MOL0     C 9064   5.212   8.292   8.842 -0.2346 -0.8617  0.6012
  827MOL0     C 9065   5.089   8.249   8.899 -0.7504 -0.1952  0.2555
  827MOL0     C 9066   5.008   8.165   8.829 -0.2330 -0.4741 -0.9409
  827MOL0     O 9067   4.882   8.149   8.886  0.2204  0.4141 -0.6425
  827MOL0     C 9068   4.778   8.077   8.812 -0.3022 -1.0457 -0.1898
  827MOL0     C 9069   4.650   8.116   8.895  0.8560 -0.2350 -0.2046
  827MOL0     C 9070   4.534   8.031   8.859 -0.9804  0.2850  0.0578
  827MOL0     C 9071   4.431   8.060   8.967  0.3430 -0.8347  0.3646
  827MOL0     C 9072   4.297   7.999   8.947  0.0450 -0.2273 -0.2478
  827MOL0     C 9073   4.205   8.094   8.856 -1.5589  1.4253 -0.2605
  827MOL0     C 9074   4.084   8.024   8.809  0.1517 -0.5779 -0.3009
  827MOL0     C 9075   4.010   8.109   8.700  0.0141 -0.7187 -0.1284
  827MOL0    Cl 9076   3.993   8.294   8.737 -0.0928 -0.1298  0.0931
  827MOL0     C 9077   5.059   8.101   8.715 -0.2862 -0.6587 -0.7593
  827MOL0     C 9078   5.193   8.133   8.677 -0.2767  1.0959  0.1132
  827MOL0     O 9079   5.356   8.343   8.484  0.7216  0.1157  0.8847
  827MOL0     C 9080   5.664   8.274   8.612 -0.3378  0.5526  0.5779
  827MOL0     C 9081   5.802   8.315   8.602  0.2376  0.7728 -0.0852
  827MOL0     N 9082   6.522   8.381   8.712 -0.3908 -0.5637  0.0184
  827MOL0     N 9083   6.614   8.288   8.718  0.8108 -0.8300 -0.6256
  827MOL0     C 9084   6.768   7.302   8.418 -0.9548  0.1746  0.4576
  827MOL0     C 9085   6.772   7.181   8.485  0.5227 -0.1631  0.2536
  827MOL0     C 9086   6.928   6.778   8.637  0.0687 -1.0725  0.2304
  827MOL0     C 9087   7.048   6.697   8.645  0.3111  0.0654  0.0872
  827MOL0     C 9088   7.052   6.596   8.739 -0.1812 -0.2541 -0.0250
  827MOL0     C 9089   6.940   6.567   8.820 -0.2234  0.1503  0.6103
  827MOL0     O 9090   6.945   6.449   8.893 -0.0014  0.4006  0.1291
  827MOL0     C 9091   6.831   6.373   8.930 -0.5534 -0.4081  0.4287
  827MOL0     C 9092   6.768   6.295   8.817 -0.6226  0.4042  0.3244
  827MOL0     C 9093   6.851   6.217   8.707 -0.5251  0.1858 -0.5234
  827MOL0     C 9094   6.939   6.107   8.772  0.4073  1.2506  0.2973
  827MOL0     C 9095   6.861   5.996   8.817 -0.6520  0.5352  0.1657
  827MOL0     C 9096   6.794   5.911   8.867 -0.2478 -0.6805 -0.4725
  827MOL0     C 9097   6.828   6.653   8.829  0.2506  0.1896 -0.4191
  827MOL0     C 9098   6.822   6.756   8.728  0.6659  0.2118  0.2172
  827MOL0     H 9099   6.876   6.969   8.246 -1.8963 -1.8365  0.8959
  827MOL0     H 9100   6.918   7.188   8.132  2.4859  1.4507  1.3528
  827MOL0     H 9101   6.925   7.442   8.049 -2.6761 -1.3804  0.4967
  827MOL0     H 9102   7.020   7.420   8.187  0.6379 -1.4830 -1.2360
  827MOL0     H 9103   6.853   7.689   8.121 -0.1469 -1.0800 -0.6622
  827MOL0     H 9104   7.022   7.658   8.090  1.3453 -4.3698  0.0682
  827MOL0     H 9105   7.064   7.613   8.319 -0.8177 -0.1610  0.5569
  827MOL0     H 9106   6.892   7.641   8.364 -0.1128  1.3727  0.8944
  827MOL0     H 9107   7.090   7.818   8.371 -0.8372 -1.8385  1.0560
  827MOL0     H 9108   7.031   7.841   8.201  1.1507 -2.7141  0.1813
  827MOL0     H 9109   6.805   7.877   8.294  0.8279 -2.4434 -0.8356
  827MOL0     H 9110   6.912   8.015   8.278 -1.9005 -0.7315 -0.9619
  827MOL0     H 9111   6.952   7.973   8.535  0.8263 -0.4872 -2.0118
  827MOL0     H 9112   6.829   7.847   8.524 -0.3932 -0.1286 -0.5378
  827MOL0     H 9113   6.704   8.061   8.401 -1.7194 -0.4559  0.6870
  827MOL0     H 9114   6.651   7.982   8.546 -2.5029  1.3966 -2.6089
  827MOL0     H 9115   6.834   8.210   8.513 -0.0798 -0.5504 -0.2729
  827MOL0     H 9116   6.804   8.131   8.676 -1.2752 -1.6484  0.8466
  827MOL0     H 9117   6.586   8.332   8.395 -1.5748 -0.3315 -0.9233
  827MOL0     H 9118   6.452   8.554   8.431  1.7254  2.9773  2.0287
  827MOL0     H 9119   6.427   8.595   8.601 -1.0425 -0.5088  1.7227
  827MOL0     H 9120   6.254   8.404   8.453 -2.9510  1.0160 -3.5243
  827MOL0     H 9121   6.234   8.583   8.433  1.8747  1.4386  0.1291
  827MOL0     H 9122   6.262   8.469   8.716  1.4217  3.6174 -0.4277
  827MOL0     H 9123   6.178   8.609   8.677 -1.7498  0.3794  0.3220
  827MOL0     H 9124   6.038   8.423   8.748  2.4136  0.1631  0.6256
  827MOL0     H 9125   6.088   8.323   8.617  0.6545 -0.2391  1.9023
  827MOL0     H 9126   5.774   8.619   8.471 -2.9704  0.7539 -0.1369
  827MOL0     H 9127   5.536   8.570   8.495 -0.7968 -0.6329 -1.9352
  827MOL0     H 9128   5.260   8.376   8.892  0.8440 -1.4694  0.6172
  827MOL0     H 9129   5.050   8.300   8.986 -0.1551 -3.6346  2.7560
  827MOL0     H 9130   4.805   7.971   8.812  0.4474 -1.0176 -4.0219
  827MOL0     H 9131   4.766   8.114   8.710 -1.2307 -0.4670  0.1216
  827MOL0     H 9132   4.627   8.220   8.871  1.9624 -0.0485 -0.5280
  827MOL0     H 9133   4.675   8.094   8.999  2.3828  0.5207 -0.3743
  827MOL0     H 9134   4.560   7.924   8.854  0.8880  0.7339 -3.0267
  827MOL0     H 9135   4.500   8.067   8.761 -3.8805 -0.5407  0.6581
  827MOL0     H 9136   4.464   8.008   9.058 -2.1959  1.0035  2.4900
  827MOL0     H 9137   4.430   8.166   8.992 -1.5959 -1.0804  1.5278
  827MOL0     H 9138   4.257   7.966   9.043 -0.9062 -0.7361 -0.7991
  827MOL0     H 9139   4.305   7.907   8.888 -3.0017  1.0767 -2.9836
  827MOL0     H 9140   4.271   8.144   8.784 -0.9176  5.7303  2.9185
  827MOL0     H 9141   4.178   8.181   8.916  0.4281  0.3582  2.3577
  827MOL0     H 9142   4.102   7.921   8.775  1.8278 -0.3843 -0.1135
  827MOL0     H 9143   4.007   8.025   8.885 -2.2084  0.8432 -2.5470
  827MOL0     H 9144   3.908   8.070   8.689  0.8647 -3.0318 -0.3674
  827MOL0     H 9145   4.057   8.095   8.602  0.3958  0.1074 -0.0742
  827MOL0     H 9146   5.002   8.024   8.664 -0.8586 -0.8509  0.1488
  827MOL0     H 9147   5.216   8.087   8.582  1.5857 -0.6641  1.3414
  827MOL0     H 9148   5.642   8.173   8.644  0.4559  0.5057  1.0094
  827MOL0     H 9149   5.881   8.248   8.634  1.0552 -0.6000 -4.4281
  827MOL0     H 9150   6.745   7.395   8.469  2.0259 -0.0242  2.4060
  827MOL0     H 9151   6.747   7.181   8.591  0.4806 -0.8585  0.2532
  827MOL0     H 9152   7.126   6.720   8.572 -0.6249  0.7930 -0.7090
  827MOL0     H 9153   7.137   6.529   8.752  0.3450  0.5262  0.6756
  827MOL0     H 9154   6.756   6.432   8.984  0.3999  1.7777 -0.5191
  827MOL0     H 9155   6.876   6.302   9.000  0.2934  0.7719  1.1155
  827MOL0     H 9156   6.692   6.230   8.862 -1.3620  0.2972 -0.9993
  827MOL0     H 9157   6.728   6.382   8.763  1.7167  1.0735 -0.4722
  827MOL0     H 9158   6.904   6.296   8.655 -0.4129  0.9918  0.7803
  827MOL0     H 9159   6.790   6.173   8.627  1.2120 -0.8845 -1.3315
  827MOL0     H 9160   7.003   6.081   8.688  1.4999  2.4096  0.7430
  827MOL0     H 9161   6.997   6.140   8.858  0.4567 -1.2171  1.2984
  827MOL0     H 9162   6.747   5.824   8.908  1.2190 -0.8701  0.9481
  827MOL0     H 9163   6.739   6.636   8.889 -1.5804  0.2072 -2.9320
  827MOL0     H 9164   6.729   6.811   8.735  1.4538  2.6228 -4.5104
  828MOL0     O 9165   5.863   7.471   3.939 -0.6352  0.6805  0.3899
  828MOL0     C 9166   5.935   7.445   3.837 -0.4957  0.0734 -0.8805
  828MOL0     O 9167   6.015   7.340   3.822  0.5629  0.5736 -0.0966
  828MOL0     C 9168   6.041   7.254   3.921  0.2343  0.1072  0.2632
  828MOL0     C 9169   6.019   7.119   3.895 -0.2360  0.4788 -0.2076
  828MOL0     C 9170   6.045   7.005   3.987  0.2045 -1.4657  0.8061
  828MOL0     C 9171   6.066   7.051   4.114  0.2656  0.3351 -0.2516
  828MOL0     O 9172   6.044   6.968   4.215 -0.6640  0.5547 -0.2196
  828MOL0     C 9173   5.907   6.923   4.230 -0.4359  0.5545  0.2190
  828MOL0     C 9174   5.891   6.794   4.305 -0.5064  0.4622 -0.4439
  828MOL0     C 9175   5.977   6.803   4.430  0.4071  0.1018 -0.0765
  828MOL0     C 9176   5.970   6.673   4.502  0.1609  0.6908 -0.3039
  828MOL0     C 9177   6.110   6.642   4.566  0.1083 -0.6488  0.1284
  828MOL0     C 9178   6.138   6.715   4.701 -0.5239 -0.0124 -0.7989
  828MOL0     C 9179   6.271   6.795   4.699  0.3548  0.7120  0.6480
  828MOL0     C 9180   6.401   6.711   4.662  0.8077  0.7914 -1.1066
  828MOL0     N 9181   6.436   6.627   4.779 -0.0075  0.0566  0.6942
  828MOL0     C 9182   6.396   6.507   4.793 -0.5190  0.3859  0.8611
  828MOL0     C 9183   6.476   6.439   4.873 -0.3774  0.3073 -0.5716
  828MOL0     C 9184   6.452   6.307   4.930  0.2111  0.2686  1.0974
  828MOL0     C 9185   6.433   6.295   5.082 -0.2338  0.0943 -0.0113
  828MOL0     C 9186   6.397   6.155   5.127  0.8239 -0.2596 -0.8499
  828MOL0     C 9187   6.451   6.121   5.271  0.1401 -0.8986 -0.6748
  828MOL0     O 9188   6.399   6.209   5.377 -0.2924  0.4225  0.0055
  828MOL0     C 9189   6.278   6.210   5.429  0.2684 -0.7914  0.1450
  828MOL0     C 9190   6.185   6.109   5.420  0.1345  0.2727  0.1294
  828MOL0     C 9191   6.052   6.134   5.451 -0.9706  0.0565 -0.6180
  828MOL0     C 9192   6.017   6.266   5.503 -0.0919 -0.4363 -0.0588
  828MOL0     C 9193   5.879   6.296   5.537  0.4866  0.0225 -1.3957
  828MOL0     O 9194   5.821   6.409   5.502  1.1217  0.1559 -0.0459
  828MOL0     C 9195   5.695   6.437   5.556  0.0232 -0.2268 -0.8868
  828MOL0     C 9196   5.668   6.454   5.692 -0.5910  0.6741  0.2729
  828MOL0     C 9197   5.543   6.475   5.743  0.8131  0.4908  0.5878
  828MOL0     C 9198   5.439   6.495   5.659 -0.3530 -0.2136 -1.1736
  828MOL0     O 9199   5.322   6.526   5.712 -0.1448  0.0555  0.2948
  828MOL0     C 9200   5.208   6.562   5.623  0.6660  0.5273  0.3411
  828MOL0     C 9201   5.222   6.713   5.584 -0.2095 -0.3593 -0.0492
  828MOL0     C 9202   5.250   6.804   5.705 -0.1101 -1.0553  0.0648
  828MOL0     C 9203   5.209   6.948   5.679 -0.1279  0.2215  1.3062
  828MOL0     C 9204   5.264   7.062   5.768  0.2065  0.5565 -0.8402
  828MOL0     C 9205   5.202   7.196   5.756  0.7940 -0.0840 -0.3970
  828MOL0     C 9206   5.057   7.201   5.802  0.2428  0.4406 -0.1002
  828MOL0     C 9207   4.995   7.341   5.799  0.2985  1.2462  0.6200
  828MOL0    Cl 9208   4.971   7.409   5.627  0.1540  0.2165  0.1361
  828MOL0     C 9209   5.468   6.490   5.520  1.0138 -0.5298 -0.3647
  828MOL0     C 9210   5.594   6.458   5.473  0.2792 -0.8276 -0.0003
  828MOL0     O 9211   5.831   6.209   5.612 -0.3845  0.2573 -0.1886
  828MOL0     C 9212   6.113   6.355   5.521  0.4420 -0.6052 -0.2482
  828MOL0     C 9213   6.245   6.329   5.485  1.3652  0.4142  0.2559
  828MOL0     N 9214   6.583   6.526   4.898  0.1086  1.7000 -0.3463
  828MOL0     N 9215   6.548   6.642   4.845 -0.5894  0.0583  0.0482
  828MOL0     C 9216   6.085   7.184   4.151 -0.6598  0.7026  0.2779
  828MOL0     C 9217   6.072   7.284   4.053  0.7795 -0.6839 -0.1601
  828MOL0     C 9218   5.927   7.534   3.721 -0.1598  0.5494  0.6194
  828MOL0     C 9219   5.964   7.501   3.587 -0.9350  0.4661  1.0587
  828MOL0     C 9220   5.951   7.591   3.480 -0.2528 -0.5656 -0.6618
  828MOL0     C 9221   5.893   7.716   3.501 -0.4259 -0.0808 -0.3374
  828MOL0     O 9222   5.879   7.801   3.388 -0.5083  0.6835 -0.1079
  828MOL0     C 9223   5.834   7.940   3.412 -0.5795  0.9971 -0.1825
  828MOL0     C 9224   5.814   8.013   3.280 -0.0406 -0.3011  0.6085
  828MOL0     C 9225   5.701   7.946   3.201  0.0261  0.4388  0.2881
  828MOL0     C 9226   5.678   7.998   3.052  0.7099 -0.0214  0.0142
  828MOL0     C 9227   5.651   8.139   3.056 -0.4932  0.7167 -0.0271
  828MOL0     C 9228   5.638   8.257   3.051 -0.6122 -0.6481  0.0788
  828MOL0     C 9229   5.855   7.746   3.633 -0.4964  0.6365 -0.1157
  828MOL0     C 9230   5.868   7.658   3.741  0.5324 -0.4898  0.0965
  828MOL0     H 9231   5.995   7.101   3.790 -0.8994  0.8875 -0.1317
  828MOL0     H 9232   6.036   6.902   3.956  0.1715 -0.8735 -1.3092
  828MOL0     H 9233   5.856   6.918   4.133 -2.9600 -0.2261  1.4887
  828MOL0     H 9234   5.844   7.006   4.265  1.0780  2.9849 -2.4254
  828MOL0     H 9235   5.925   6.719   4.233 -1.5224 -1.4392  0.9788
  828MOL0     H 9236   5.787   6.774   4.332  0.6894 -0.4243  4.4647
  828MOL0     H 9237   5.943   6.884   4.495 -1.3370  0.7252 -1.7164
  828MOL0     H 9238   6.078   6.838   4.406  0.4209  0.7818  0.9116
  828MOL0     H 9239   5.888   6.676   4.575 -0.2950 -0.2541 -0.7532
  828MOL0     H 9240   5.948   6.599   4.425  0.5175  1.8671 -1.5801
  828MOL0     H 9241   6.184   6.655   4.486 -0.4601  0.4296 -0.2433
  828MOL0     H 9242   6.122   6.537   4.593 -1.8247 -0.3367  2.5939
  828MOL0     H 9243   6.143   6.633   4.773  1.9435 -0.0747 -0.9697
  828MOL0     H 9244   6.052   6.775   4.731 -0.1095 -1.0250  2.8755
  828MOL0     H 9245   6.267   6.888   4.641  2.7134  1.0220  0.9157
  828MOL0     H 9246   6.278   6.831   4.802  0.2265 -1.0536  1.3059
  828MOL0     H 9247   6.485   6.781   4.660  0.3303  1.3818 -0.9632
  828MOL0     H 9248   6.397   6.655   4.568 -2.1391  0.5402 -0.9138
  828MOL0     H 9249   6.308   6.476   4.737 -2.2164  5.3185  0.3033
  828MOL0     H 9250   6.514   6.235   4.876 -2.0029 -0.8196 -0.1727
  828MOL0     H 9251   6.358   6.272   4.885  1.3437  0.9441 -2.0221
  828MOL0     H 9252   6.355   6.368   5.105 -0.5763 -0.5184  0.8040
  828MOL0     H 9253   6.533   6.319   5.120  1.2654 -1.6011 -2.5765
  828MOL0     H 9254   6.288   6.148   5.122  0.5215  2.0970  0.6958
  828MOL0     H 9255   6.446   6.082   5.062 -1.2016  0.5474 -3.4710
  828MOL0     H 9256   6.559   6.139   5.271  0.6331 -2.8967  2.9219
  828MOL0     H 9257   6.424   6.020   5.303  1.0422 -0.5128  1.4773
  828MOL0     H 9258   6.215   6.007   5.400 -1.0839  0.3255 -2.4156
  828MOL0     H 9259   5.980   6.053   5.447 -1.5672  0.5867 -0.8697
  828MOL0     H 9260   5.743   6.457   5.770  0.8644 -0.5628 -0.9943
  828MOL0     H 9261   5.528   6.490   5.850  0.1943 -0.1062  0.5963
  828MOL0     H 9262   5.120   6.556   5.687 -0.3353  1.0834 -0.9378
  828MOL0     H 9263   5.199   6.492   5.539 -1.2789  0.3226  0.6870
  828MOL0     H 9264   5.135   6.744   5.527  0.6516 -1.4300 -2.0372
  828MOL0     H 9265   5.307   6.728   5.517 -0.4688 -0.7023 -0.4589
  828MOL0     H 9266   5.355   6.794   5.736 -0.7274  0.1426  2.8817
  828MOL0     H 9267   5.192   6.775   5.794 -1.5847  0.9324 -0.1860
  828MOL0     H 9268   5.227   6.969   5.573 -0.8787 -0.0964  1.1068
  828MOL0     H 9269   5.100   6.947   5.689 -0.3110  0.3841 -0.3278
  828MOL0     H 9270   5.371   7.073   5.747  1.0577 -0.4389  2.3493
  828MOL0     H 9271   5.250   7.026   5.871 -0.3270  4.2356  0.5465
  828MOL0     H 9272   5.219   7.238   5.656 -0.1266  1.7044  0.1481
  828MOL0     H 9273   5.252   7.261   5.828  0.7021 -1.7421  1.2384
  828MOL0     H 9274   4.994   7.145   5.733  0.4745 -0.2572  0.2497
  828MOL0     H 9275   5.046   7.152   5.899  3.8216 -0.1086  0.1783
  828MOL0     H 9276   5.063   7.403   5.859  0.5446 -0.9991  2.8785
  828MOL0     H 9277   4.899   7.338   5.852  1.3194  1.1508  2.5913
  828MOL0     H 9278   5.396   6.519   5.443  0.1693  5.3435  2.1278
  828MOL0     H 9279   5.618   6.454   5.367 -0.3367  2.4328 -0.3606
  828MOL0     H 9280   6.093   6.451   5.567  0.1625 -0.5776 -0.4255
  828MOL0     H 9281   6.314   6.410   5.506 -0.5031  1.8127  1.3892
  828MOL0     H 9282   6.112   7.204   4.254  0.4529  1.1837 -0.0893
  828MOL0     H 9283   6.067   7.389   4.078  0.4946 -1.1165  1.7576
  828MOL0     H 9284   6.012   7.407   3.561  1.9235  2.3707 -1.0246
  828MOL0     H 9285   5.974   7.548   3.383 -0.7874 -1.3600 -0.4537
  828MOL0     H 9286   5.907   7.983   3.482  0.0003 -2.1016  1.3057
  828MOL0     H 9287   5.738   7.919   3.461 -0.1575 -1.6501 -0.3536
  828MOL0     H 9288   5.767   8.108   3.305 -0.1081  0.4384 -2.1082
  828MOL0     H 9289   5.902   8.024   3.216 -1.1898 -2.7610 -1.5891
  828MOL0     H 9290   5.609   7.964   3.258  1.2308  1.5203  2.0418
  828MOL0     H 9291   5.728   7.840   3.195  0.3395  0.6227 -4.0467
  828MOL0     H 9292   5.766   7.990   2.988  2.6953  1.9645  2.2745
  828MOL0     H 9293   5.594   7.942   3.009 -0.2000  1.4088 -0.1196
  828MOL0     H 9294   5.616   8.361   3.056  0.6520 -0.0100 -4.0823
  828MOL0     H 9295   5.813   7.835   3.678 -0.6211 -0.7312  2.6848
  828MOL0     H 9296   5.828   7.679   3.840  2.0917 -1.7884  1.0547
  829MOL0     O 9297   3.452   4.515   9.243  0.1072 -0.1185  0.3525
  829MOL0     C 9298   3.411   4.511   9.357  0.2261  0.6208  0.2558
  829MOL0     O 9299   3.324   4.593   9.413  0.3034 -0.0326 -0.7574
  829MOL0     C 9300   3.272   4.708   9.358  0.7436 -0.4576 -0.0565
  829MOL0     C 9301   3.181   4.777   9.441  0.4691  0.6152 -0.2444
  829MOL0     C 9302   3.109   4.893   9.394  0.2384  0.7064 -0.1167
  829MOL0     C 9303   3.142   4.947   9.265 -0.5328  0.2143  0.4254
  829MOL0     O 9304   3.058   5.051   9.212  0.0908 -0.2225 -0.2345
  829MOL0     C 9305   3.105   5.179   9.228 -0.6858  0.1551 -0.8351
  829MOL0     C 9306   3.114   5.229   9.369  0.2974 -0.7083 -0.4119
  829MOL0     C 9307   3.141   5.379   9.376 -0.0268 -0.1226  0.7534
  829MOL0     C 9308   3.050   5.433   9.488 -0.2958 -0.4065  0.0889
  829MOL0     C 9309   3.063   5.588   9.498  0.4719  0.2076 -0.2740
  829MOL0     C 9310   2.999   5.646   9.624 -0.9176 -0.2810  0.4549
  829MOL0     C 9311   3.007   5.804   9.622 -0.5380  0.3980 -1.3683
  829MOL0     C 9312   2.907   5.851   9.735 -0.0465 -0.2726  0.1286
  829MOL0     N 9313   2.762   5.817   9.719 -0.7238 -0.9159  0.0078
  829MOL0     C 9314   2.681   5.853   9.610 -0.9303 -0.2596 -0.1024
  829MOL0     C 9315   2.563   5.803   9.639 -0.0346  1.1536 -0.1403
  829MOL0     C 9316   2.450   5.799   9.546  0.5029  0.5718  0.3543
  829MOL0     C 9317   2.382   5.934   9.520  0.4239  0.4655  0.4486
  829MOL0     C 9318   2.294   5.984   9.634 -0.5597 -0.0153  0.5944
  829MOL0     C 9319   2.224   6.118   9.609  0.4066  0.9952 -0.1212
  829MOL0     O 9320   2.183   6.132   9.478  0.4691  0.3895  0.2976
  829MOL0     C 9321   2.086   6.056   9.424 -0.0358 -0.2389 -0.0531
  829MOL0     C 9322   2.111   6.036   9.288  1.3326 -0.4259 -0.3887
  829MOL0     C 9323   2.012   5.977   9.212  0.1984  0.7893 -0.0813
  829MOL0     C 9324   1.894   5.922   9.267  0.2800 -0.7393  1.0077
  829MOL0     C 9325   1.789   5.863   9.185 -0.8128 -0.2554  0.3366
  829MOL0     O 9326   1.811   5.865   9.052 -1.3342 -0.4030 -0.5451
  829MOL0     C 9327   1.738   5.795   8.964 -0.1439 -0.5774  0.0994
  829MOL0     C 9328   1.700   5.656   8.969  0.3149 -0.0643  0.2036
  829MOL0     C 9329   1.640   5.589   8.869  0.2632  0.4599 -0.1473
  829MOL0     C 9330   1.592   5.658   8.762  0.0955  0.1840 -0.2776
  829MOL0     O 9331   1.548   5.598   8.649 -0.7707 -0.1270 -0.1700
  829MOL0     C 9332   1.623   5.490   8.589 -0.9515 -0.5928 -0.3625
  829MOL0     C 9333   1.533   5.417   8.492 -0.2232  0.1442  0.0830
  829MOL0     C 9334   1.434   5.329   8.569  0.6426 -0.6218  0.1458
  829MOL0     C 9335   1.348   5.257   8.464 -0.1134  0.1769  0.0305
  829MOL0     C 9336   1.236   5.161   8.525 -0.3825  0.3895  0.8414
  829MOL0     C 9337   1.118   5.227   8.593 -0.2897 -0.2479 -0.3150
  829MOL0     C 9338   1.005   5.112   8.624  0.3947 -0.1882 -0.0651
  829MOL0     C 9339   0.870   5.165   8.674  0.1205  0.3316  0.8583
  829MOL0    Cl 9340   0.790   5.236   8.526  0.2096 -0.0819  0.0049
  829MOL0     C 9341   1.616   5.789   8.757 -0.1894  0.6211  0.0517
  829MOL0     C 9342   1.693   5.859   8.853 -0.1499  0.0572 -0.0665
  829MOL0     O 9343   1.691   5.823   9.241  0.1301 -0.0213 -0.1242
  829MOL0     C 9344   1.870   5.939   9.408 -0.0024  0.6107  0.7583
  829MOL0     C 9345   1.969   6.003   9.482 -0.2792 -0.2387 -0.2190
  829MOL0     N 9346   2.569   5.726   9.757 -0.4415 -0.7068  0.4508
  829MOL0     N 9347   2.686   5.745   9.806  0.3815 -0.5896  0.0085
  829MOL0     C 9348   3.243   4.883   9.186 -0.7488 -0.1003  0.8544
  829MOL0     C 9349   3.308   4.769   9.237 -0.2367 -0.3862 -0.5465
  829MOL0     C 9350   3.459   4.391   9.439  0.7779  0.5126  0.3692
  829MOL0     C 9351   3.547   4.283   9.398  0.7794 -0.5667  0.0243
  829MOL0     C 9352   3.570   4.168   9.463 -0.2829  0.9256 -0.3912
  829MOL0     C 9353   3.504   4.150   9.588 -0.1899 -0.5522 -0.2320
  829MOL0     O 9354   3.502   4.028   9.647 -0.3274 -1.2271  0.2564
  829MOL0     C 9355   3.586   4.019   9.767  0.9218 -0.4375  0.2401
  829MOL0     C 9356   3.533   3.892   9.832 -0.7433 -0.8331  0.2996
  829MOL0     C 9357   3.403   3.911   9.916  0.6336 -0.0556 -0.0658
  829MOL0     C 9358   3.271   3.910   9.846  0.3499  0.2298 -0.1910
  829MOL0     C 9359   3.256   3.768   9.810 -0.1437  0.4397  0.7787
  829MOL0     C 9360   3.250   3.646   9.787 -0.8722  0.2286  0.9300
  829MOL0     C 9361   3.427   4.254   9.640  0.6753 -0.2070  0.2817
  829MOL0     C 9362   3.408   4.375   9.571  1.2479 -0.4393  0.5237
  829MOL0     H 9363   3.149   4.730   9.534  3.1954  0.0941  0.5217
  829MOL0     H 9364   3.042   4.938   9.467 -0.6525 -0.3094 -0.2815
  829MOL0     H 9365   3.030   5.239   9.174  0.3101  2.4139  0.1791
  829MOL0     H 9366   3.196   5.190   9.170  0.7881 -0.4775  1.2491
  829MOL0     H 9367   3.194   5.178   9.424  0.7423  1.1069  0.7223
  829MOL0     H 9368   3.018   5.193   9.409 -0.0340 -0.2302 -0.7734
  829MOL0     H 9369   3.097   5.421   9.285 -2.2155  1.0035  2.2530
  829MOL0     H 9370   3.248   5.403   9.380  0.1812 -0.8797  0.0253
  829MOL0     H 9371   2.944   5.418   9.468 -0.3741  1.4855 -1.1384
  829MOL0     H 9372   3.099   5.384   9.573  4.0606  0.0936 -1.8315
  829MOL0     H 9373   3.006   5.630   9.415 -0.5869 -0.5138  0.0766
  829MOL0     H 9374   3.168   5.619   9.487  1.5122 -3.1092 -0.9367
  829MOL0     H 9375   3.049   5.595   9.707 -1.1641  0.2538  0.9374
  829MOL0     H 9376   2.897   5.606   9.617 -1.9621  2.1282  0.6682
  829MOL0     H 9377   3.108   5.837   9.648 -0.2520 -2.8142  2.6981
  829MOL0     H 9378   2.986   5.839   9.521  1.1593  1.1899 -1.4816
  829MOL0     H 9379   2.920   5.959   9.750  3.4683 -0.2216 -2.2449
  829MOL0     H 9380   2.947   5.809   9.828  1.9841  2.4715  0.6014
  829MOL0     H 9381   2.717   5.906   9.523 -0.1221  2.0238  1.5302
  829MOL0     H 9382   2.383   5.718   9.576  1.3247 -0.2409  0.0226
  829MOL0     H 9383   2.501   5.775   9.452 -0.1383 -0.5614  0.2779
  829MOL0     H 9384   2.319   5.917   9.432  0.8616  0.8685  0.0542
  829MOL0     H 9385   2.462   6.005   9.501 -0.1561  1.4669  1.6435
  829MOL0     H 9386   2.208   5.916   9.640 -0.5513 -0.1333 -0.4724
  829MOL0     H 9387   2.348   5.976   9.729 -0.0669  3.0283  0.6740
  829MOL0     H 9388   2.301   6.190   9.637  1.7666  0.5464 -2.4379
  829MOL0     H 9389   2.131   6.119   9.667 -1.7138 -0.9092 -3.1836
  829MOL0     H 9390   2.203   6.062   9.237  0.5645 -0.4935 -1.8462
  829MOL0     H 9391   2.015   5.973   9.103 -1.7325  1.6718 -0.2076
  829MOL0     H 9392   1.720   5.592   9.054 -0.5474  3.1430  3.0339
  829MOL0     H 9393   1.629   5.482   8.877  2.5490  0.1898 -0.1395
  829MOL0     H 9394   1.665   5.418   8.659 -0.3528 -0.1254 -0.2312
  829MOL0     H 9395   1.716   5.526   8.544  1.4387 -1.5467  3.3193
  829MOL0     H 9396   1.589   5.355   8.421 -3.0455 -1.8470 -0.5650
  829MOL0     H 9397   1.482   5.482   8.421  0.9841  0.6413 -0.3555
  829MOL0     H 9398   1.371   5.382   8.641 -0.0447 -2.3303  0.8366
  829MOL0     H 9399   1.484   5.252   8.628  0.2301 -1.7053 -0.8957
  829MOL0     H 9400   1.313   5.324   8.384  2.7094  0.9529 -0.6473
  829MOL0     H 9401   1.424   5.195   8.415  0.8565  1.4706 -0.1417
  829MOL0     H 9402   1.277   5.096   8.602 -0.0820 -1.0726 -0.4972
  829MOL0     H 9403   1.201   5.086   8.454 -0.4544  0.3332  0.9377
  829MOL0     H 9404   1.079   5.307   8.529 -0.9818 -0.6153 -0.3593
  829MOL0     H 9405   1.149   5.262   8.692 -0.1466  0.1481 -0.5004
  829MOL0     H 9406   0.992   5.056   8.531  2.0846 -1.5088  0.4200
  829MOL0     H 9407   1.046   5.031   8.687  1.7103  0.5995  0.1410
  829MOL0     H 9408   0.877   5.235   8.758 -1.1814  1.1586  0.3193
  829MOL0     H 9409   0.809   5.081   8.708  0.4463 -0.7631 -1.1092
  829MOL0     H 9410   1.593   5.844   8.666  0.8777  1.2494  0.1484
  829MOL0     H 9411   1.735   5.955   8.827 -1.8627  0.3551 -1.9582
  829MOL0     H 9412   1.780   5.906   9.458 -0.6926  1.1454 -0.1107
  829MOL0     H 9413   1.957   6.026   9.588  1.5028 -4.3197  1.0627
  829MOL0     H 9414   3.265   4.908   9.083  2.1937 -1.5381  1.0529
  829MOL0     H 9415   3.390   4.742   9.171 -0.2783  1.1603 -1.2565
  829MOL0     H 9416   3.577   4.289   9.293 -0.1651  0.0069 -0.2302
  829MOL0     H 9417   3.634   4.088   9.428  0.7813  0.3805  2.4778
  829MOL0     H 9418   3.592   4.107   9.831 -1.4854 -0.3970  0.5044
  829MOL0     H 9419   3.690   4.009   9.736  1.4519 -1.6252  2.2037
  829MOL0     H 9420   3.535   3.816   9.754 -1.1959  1.5822 -2.2331
  829MOL0     H 9421   3.615   3.860   9.897  0.2778 -1.5517 -1.2781
  829MOL0     H 9422   3.398   4.000   9.980 -0.0737 -0.6374  0.7096
  829MOL0     H 9423   3.408   3.826   9.984  1.2517 -0.5156 -0.6706
  829MOL0     H 9424   3.191   3.956   9.904  3.2856  0.1300  4.4411
  829MOL0     H 9425   3.285   3.966   9.753  1.1150  0.5194  0.0826
  829MOL0     H 9426   3.260   3.539   9.781  1.2404  0.4640 -1.2235
  829MOL0     H 9427   3.373   4.247   9.734  3.4217  1.3569  2.1236
  829MOL0     H 9428   3.352   4.459   9.611  1.7035  0.7515 -1.2174
  830MOL0     O 9429   7.249   7.130   1.711 -0.6797 -0.4817 -0.1398
  830MOL0     C 9430   7.137   7.112   1.686  0.5478 -0.4085 -0.2149
  830MOL0     O 9431   7.025   7.172   1.748 -0.2522  0.4325  0.8578
  830MOL0     C 9432   7.015   7.235   1.866 -0.0183  0.3957 -0.3994
  830MOL0     C 9433   6.898   7.218   1.938 -0.0223 -0.7970  0.7587
  830MOL0     C 9434   6.899   7.236   2.077  0.3674  0.5130 -0.2419
  830MOL0     C 9435   7.006   7.294   2.142  0.6440 -1.5088  0.9504
  830MOL0     O 9436   7.011   7.327   2.268  0.0372  0.3832 -0.0871
  830MOL0     C 9437   6.894   7.319   2.348  1.1225 -0.2944 -0.5868
  830MOL0     C 9438   6.926   7.397   2.479  0.2075  0.0537 -0.5677
  830MOL0     C 9439   6.837   7.348   2.596  0.4430  0.7446 -0.1986
  830MOL0     C 9440   6.877   7.423   2.737  0.3954  0.1181  0.9186
  830MOL0     C 9441   6.787   7.374   2.858  0.1191  0.1102  0.5524
  830MOL0     C 9442   6.770   7.221   2.864  0.1567 -0.5225 -0.6522
  830MOL0     C 9443   6.723   7.168   2.999 -0.7367 -0.4816 -0.4183
  830MOL0     C 9444   6.575   7.167   2.999 -0.0547 -0.2349 -0.4788
  830MOL0     N 9445   6.517   7.105   3.122  0.2280  0.5932  0.5017
  830MOL0     C 9446   6.458   6.985   3.115  1.4151 -0.0213  0.2345
  830MOL0     C 9447   6.364   6.968   3.215 -0.6845  0.2516 -0.4021
  830MOL0     C 9448   6.282   6.845   3.262 -0.6050  0.5596  0.2298
  830MOL0     C 9449   6.369   6.721   3.298 -0.0789  0.8953  0.2695
  830MOL0     C 9450   6.277   6.630   3.377 -0.8366  0.5822 -0.2050
  830MOL0     C 9451   6.345   6.506   3.439  0.0330 -0.3744  0.5716
  830MOL0     O 9452   6.339   6.391   3.344  0.0638  0.8735  0.3422
  830MOL0     C 9453   6.424   6.371   3.238 -0.3806 -0.0037  0.5159
  830MOL0     C 9454   6.543   6.434   3.222 -0.7637 -0.4397  0.2738
  830MOL0     C 9455   6.631   6.401   3.119 -0.4992  1.1689  0.0625
  830MOL0     C 9456   6.587   6.304   3.023  0.8004  0.1486 -0.7607
  830MOL0     C 9457   6.680   6.270   2.915  0.1182 -0.6423 -0.1752
  830MOL0     O 9458   6.805   6.333   2.925 -0.9945 -0.7430 -0.1550
  830MOL0     C 9459   6.914   6.279   2.857  0.5892  1.0748  0.3607
  830MOL0     C 9460   6.953   6.147   2.879  0.3136  0.3225  1.0080
  830MOL0     C 9461   7.068   6.099   2.816 -0.4531 -1.2347 -0.1575
  830MOL0     C 9462   7.150   6.176   2.739  0.1227  0.3709 -0.1369
  830MOL0     O 9463   7.265   6.141   2.671 -0.8015 -0.4662  0.8139
  830MOL0     C 9464   7.329   6.015   2.695 -0.1252  0.1509  1.0703
  830MOL0     C 9465   7.458   6.014   2.624  0.0504  0.5189  0.0199
  830MOL0     C 9466   7.570   6.063   2.727 -0.1202 -0.8656 -0.2962
  830MOL0     C 9467   7.703   6.013   2.677 -1.2038  0.0145 -0.2651
  830MOL0     C 9468   7.814   6.047   2.777  0.1971  0.9701  0.2269
  830MOL0     C 9469   7.868   6.194   2.777 -0.0980  0.2175  0.9491
  830MOL0     C 9470   7.895   6.255   2.636 -0.1081 -0.0050  0.6672
  830MOL0     C 9471   8.011   6.345   2.636  0.3032 -0.0625 -0.1101
  830MOL0    Cl 9472   8.013   6.469   2.771  0.2854 -0.2589  0.3044
  830MOL0     C 9473   7.107   6.299   2.707 -0.1335  1.3559  0.1431
  830MOL0     C 9474   6.992   6.349   2.765  0.6638 -1.0245 -0.8352
  830MOL0     O 9475   6.651   6.185   2.832  0.1851  0.6062 -0.3895
  830MOL0     C 9476   6.470   6.230   3.042  1.0931 -1.2831  0.7722
  830MOL0     C 9477   6.391   6.268   3.150 -0.2359 -0.1518  0.6541
  830MOL0     N 9478   6.373   7.089   3.280  0.6261  0.1161  0.6957
  830MOL0     N 9479   6.463   7.165   3.228  1.2623 -0.3471  0.3313
  830MOL0     C 9480   7.121   7.322   2.065 -0.1931  0.2405  0.0443
  830MOL0     C 9481   7.127   7.286   1.927  0.8786 -1.3031  0.0245
  830MOL0     C 9482   7.098   7.010   1.576  0.5157 -0.6847  0.5023
  830MOL0     C 9483   7.188   6.968   1.470 -0.2237 -0.6497  0.3453
  830MOL0     C 9484   7.135   6.891   1.370 -0.3299  1.3779  0.3646
  830MOL0     C 9485   6.999   6.843   1.365  0.1474  0.3978  0.4035
  830MOL0     O 9486   6.954   6.757   1.267  0.2897 -1.4715  0.3117
  830MOL0     C 9487   6.828   6.695   1.273 -0.1502 -0.6267 -0.2962
  830MOL0     C 9488   6.720   6.793   1.237  0.1596  0.7455 -0.4784
  830MOL0     C 9489   6.574   6.775   1.290 -0.1035 -0.6774  0.6080
  830MOL0     C 9490   6.556   6.792   1.436 -0.6074 -1.4068  0.5734
  830MOL0     C 9491   6.421   6.833   1.478  0.0430  0.4001  0.2491
  830MOL0     C 9492   6.303   6.836   1.515 -0.0005 -0.0403  0.0247
  830MOL0     C 9493   6.917   6.870   1.480 -0.1517 -0.1541  0.3867
  830MOL0     C 9494   6.965   6.946   1.586 -0.6933 -1.1304  1.1248
  830MOL0     H 9495   6.806   7.180   1.896  0.1785 -0.6850  0.2020
  830MOL0     H 9496   6.813   7.216   2.140  2.5124  0.3605  2.8256
  830MOL0     H 9497   6.876   7.216   2.379  0.6134  1.0075  4.2667
  830MOL0     H 9498   6.807   7.375   2.314  0.1111 -0.0301  2.1824
  830MOL0     H 9499   6.913   7.504   2.462 -1.5965 -0.1011 -0.3299
  830MOL0     H 9500   7.032   7.371   2.487 -0.3983 -2.8168 -0.7001
  830MOL0     H 9501   6.845   7.241   2.616 -3.9936  0.6333  2.1710
  830MOL0     H 9502   6.733   7.364   2.566  0.7621  0.1299 -1.7018
  830MOL0     H 9503   6.983   7.410   2.760  1.3864  3.8124 -0.6863
  830MOL0     H 9504   6.866   7.531   2.719 -1.2404 -0.3282 -1.1561
  830MOL0     H 9505   6.687   7.418   2.855 -1.0433 -2.3718 -0.0068
  830MOL0     H 9506   6.838   7.404   2.950 -1.7083  1.0563  1.3027
  830MOL0     H 9507   6.872   7.186   2.845  0.0154 -0.7760 -0.9390
  830MOL0     H 9508   6.708   7.192   2.779 -0.4335 -0.2453 -0.3249
  830MOL0     H 9509   6.761   7.067   2.985 -2.2580 -0.8500 -2.3698
  830MOL0     H 9510   6.777   7.206   3.086  0.5817 -0.3604 -1.2466
  830MOL0     H 9511   6.546   7.109   2.911 -0.9134  2.0763 -1.8043
  830MOL0     H 9512   6.548   7.271   2.977  4.2512  0.9567 -1.2560
  830MOL0     H 9513   6.477   6.907   3.042 -3.6933  0.7451 -2.3168
  830MOL0     H 9514   6.214   6.797   3.191 -1.1560 -1.0360  1.7774
  830MOL0     H 9515   6.225   6.883   3.347  1.2711  0.1587  1.7089
  830MOL0     H 9516   6.455   6.748   3.360  1.3201 -1.5082 -0.5074
  830MOL0     H 9517   6.402   6.677   3.203 -1.3705 -2.4890  1.2022
  830MOL0     H 9518   6.235   6.685   3.461  0.1231 -1.2486  1.5439
  830MOL0     H 9519   6.193   6.603   3.311 -2.6737  0.7261  1.9486
  830MOL0     H 9520   6.296   6.490   3.536  2.3857 -2.4417  1.5213
  830MOL0     H 9521   6.448   6.520   3.474  0.5181 -1.1540 -0.4930
  830MOL0     H 9522   6.573   6.520   3.280  0.0554 -1.2380  1.0740
  830MOL0     H 9523   6.729   6.446   3.112  1.3139 -1.9018  2.7927
  830MOL0     H 9524   6.894   6.084   2.945  1.0401 -0.2508  1.1274
  830MOL0     H 9525   7.091   5.997   2.844 -2.3753 -1.0138  2.5555
  830MOL0     H 9526   7.267   5.938   2.646 -0.0816 -1.3035  3.1693
  830MOL0     H 9527   7.333   5.992   2.802 -3.1659  1.0683  1.4769
  830MOL0     H 9528   7.454   6.090   2.546  3.0026 -0.5447 -1.2924
  830MOL0     H 9529   7.481   5.917   2.579  0.0091  0.9683 -0.9980
  830MOL0     H 9530   7.540   6.028   2.826 -0.0911 -0.0989 -0.0106
  830MOL0     H 9531   7.577   6.172   2.733  1.7748 -1.0117  1.3841
  830MOL0     H 9532   7.693   5.904   2.668 -3.7493  0.2465 -1.2018
  830MOL0     H 9533   7.719   6.061   2.580 -1.4960 -0.7637 -0.7009
  830MOL0     H 9534   7.906   5.992   2.753  0.4164  1.7521 -0.7802
  830MOL0     H 9535   7.791   6.023   2.882  2.3592  2.2624  1.0760
  830MOL0     H 9536   7.959   6.192   2.837  0.2488 -0.1188  0.4187
  830MOL0     H 9537   7.790   6.261   2.815 -1.9865 -1.1513 -0.2935
  830MOL0     H 9538   7.918   6.180   2.560 -1.0510  1.1209 -0.7806
  830MOL0     H 9539   7.815   6.310   2.586  0.7380  0.2865 -0.4186
  830MOL0     H 9540   8.019   6.385   2.535 -0.1872 -1.4423 -0.7088
  830MOL0     H 9541   8.101   6.285   2.653  0.3097 -0.1193 -0.3447
  830MOL0     H 9542   7.174   6.353   2.641  0.0464 -1.4352 -2.1772
  830MOL0     H 9543   6.976   6.455   2.748 -0.2488 -1.1077 -0.5956
  830MOL0     H 9544   6.445   6.146   2.978  0.2388 -2.1102  2.1367
  830MOL0     H 9545   6.304   6.210   3.178 -0.0846 -0.8006 -0.1771
  830MOL0     H 9546   7.215   7.356   2.110 -0.3796 -0.9485  1.3831
  830MOL0     H 9547   7.223   7.300   1.878  0.5594 -1.7371 -0.7354
  830MOL0     H 9548   7.287   7.011   1.470 -0.4757 -0.0510  1.3103
  830MOL0     H 9549   7.203   6.865   1.290 -0.4876 -0.6505  0.8380
  830MOL0     H 9550   6.827   6.659   1.377 -0.0050 -0.3159 -0.1874
  830MOL0     H 9551   6.826   6.615   1.198  0.1814 -0.6343 -0.2982
  830MOL0     H 9552   6.754   6.894   1.264 -1.8250  0.5933  3.3909
  830MOL0     H 9553   6.705   6.774   1.131 -2.2414  1.2825 -0.3066
  830MOL0     H 9554   6.555   6.677   1.244 -1.2850 -0.3653  0.3991
  830MOL0     H 9555   6.511   6.843   1.232  2.2944  0.8735 -0.3399
  830MOL0     H 9556   6.600   6.706   1.488  4.0393  0.1265 -0.2779
  830MOL0     H 9557   6.614   6.878   1.471  1.3128 -1.1680 -2.7092
  830MOL0     H 9558   6.204   6.846   1.555  0.5687 -1.0535  1.8140
  830MOL0     H 9559   6.812   6.842   1.484  0.9402 -5.0111  0.6640
  830MOL0     H 9560   6.919   6.956   1.684 -0.8796 -1.4544  1.0733
  831MOL0     O 9561   6.167   9.772   0.817  0.2242 -0.0993 -1.1764
  831MOL0     C 9562   6.243   9.764   0.920  0.4367 -0.4081  0.3608
  831MOL0     O 9563   6.291   9.866   0.995 -0.3193 -0.0784  1.2671
  831MOL0     C 9564   6.268   9.996   0.961 -0.8509  0.1157 -0.0955
  831MOL0     C 9565   6.135  10.029   0.966 -0.3379 -0.1183 -0.0902
  831MOL0     C 9566   6.109  10.164   0.961  0.3294 -0.3648 -0.3516
  831MOL0     C 9567   6.213  10.269   0.945 -0.0951 -0.6345 -0.0141
  831MOL0     O 9568   6.193  10.397   0.924  0.3223  0.0120 -0.3370
  831MOL0     C 9569   6.093  10.418   0.824  0.4273 -0.5878 -0.2302
  831MOL0     C 9570   6.120  10.555   0.759 -0.9817  1.1510  0.1554
  831MOL0     C 9571   5.991  10.639   0.755 -0.3773  0.0750 -0.0127
  831MOL0     C 9572   6.015  10.757   0.669  0.2662 -0.1875 -1.1031
  831MOL0     C 9573   6.085  10.878   0.737 -0.9379 -0.0749 -0.7462
  831MOL0     C 9574   6.103  11.003   0.654  0.5277 -0.5398  0.0035
  831MOL0     C 9575   5.966  11.073   0.630  0.5767  0.9143  0.2193
  831MOL0     C 9576   5.986  11.224   0.621  0.1760  0.4624  0.7266
  831MOL0     N 9577   5.886  11.312   0.562  0.3545  0.4901 -0.0115
  831MOL0     C 9578   5.769  11.359   0.630  0.0200  0.9040  0.2244
  831MOL0     C 9579   5.734  11.477   0.565  0.4491  0.9440  0.3362
  831MOL0     C 9580   5.614  11.564   0.596 -0.3047 -0.2803 -0.6259
  831MOL0     C 9581   5.663  11.709   0.641  0.1435 -0.1462 -0.0321
  831MOL0     C 9582   5.537  11.804   0.640 -0.6192 -1.0293  0.5965
  831MOL0     C 9583   5.581  11.952   0.645  0.4503  0.8201  0.5382
  831MOL0     O 9584   5.592  11.999   0.785  0.1429 -0.0970 -0.1771
  831MOL0     C 9585   5.704  12.085   0.787  0.4152 -0.0750  0.3705
  831MOL0     C 9586   5.808  12.058   0.877  0.1989 -0.6477  0.3733
  831MOL0     C 9587   5.920  12.137   0.889  0.0901 -0.1941 -0.4052
  831MOL0     C 9588   5.936  12.254   0.817  1.4177  0.1102  0.0550
  831MOL0     C 9589   6.060  12.325   0.833  0.7229 -0.4983  0.7116
  831MOL0     O 9590   6.139  12.279   0.937 -0.0199  0.0042  0.2041
  831MOL0     C 9591   6.250  12.354   0.957  0.4517  0.5704  0.7981
  831MOL0     C 9592   6.361  12.354   0.864  0.4120 -0.3529 -1.0857
  831MOL0     C 9593   6.485  12.402   0.908 -0.4632 -0.4179 -0.2794
  831MOL0     C 9594   6.499  12.473   1.026  0.0789  0.4561 -0.2629
  831MOL0     O 9595   6.616  12.523   1.050 -0.6525  0.2635 -0.0544
  831MOL0     C 9596   6.637  12.609   1.160  0.2992  0.7355 -0.4517
  831MOL0     C 9597   6.779  12.667   1.134 -1.2020 -0.6045 -1.0965
  831MOL0     C 9598   6.886  12.600   1.220 -0.1192  0.9809  0.0611
  831MOL0     C 9599   7.034  12.582   1.172 -0.2017  0.0726  0.9104
  831MOL0     C 9600   7.046  12.452   1.084 -0.7763  0.1564 -0.5089
  831MOL0     C 9601   6.972  12.433   0.952  0.4287  0.4784 -0.0278
  831MOL0     C 9602   7.027  12.313   0.882  0.0900  0.5086  0.2246
  831MOL0     C 9603   6.949  12.299   0.750  1.1916  0.1373  0.7884
  831MOL0    Cl 9604   7.010  12.153   0.663 -0.0127 -0.0389  0.0756
  831MOL0     C 9605   6.381  12.480   1.114  0.3517 -0.2195 -0.1169
  831MOL0     C 9606   6.257  12.416   1.079 -0.3687  0.0221 -0.5732
  831MOL0     O 9607   6.083  12.415   0.752 -0.3441  0.2652 -0.9378
  831MOL0     C 9608   5.836  12.277   0.719  0.2296 -0.6000 -0.1765
  831MOL0     C 9609   5.724  12.197   0.704 -0.7493 -0.5244 -0.1199
  831MOL0     N 9610   5.814  11.493   0.456 -0.3537  0.1210 -0.8707
  831MOL0     N 9611   5.904  11.397   0.464  0.2514  0.2794 -0.4689
  831MOL0     C 9612   6.346  10.228   0.933 -0.5990 -0.7314 -1.4644
  831MOL0     C 9613   6.376  10.092   0.954  0.0046 -0.4006 -0.2717
  831MOL0     C 9614   6.267   9.632   0.974 -0.4089  0.3119  0.7779
  831MOL0     C 9615   6.379   9.614   1.071  1.2739 -0.3915  0.3782
  831MOL0     C 9616   6.421   9.496   1.117 -0.1014  0.3484 -0.3183
  831MOL0     C 9617   6.350   9.382   1.072 -0.2769  0.3325  0.2592
  831MOL0     O 9618   6.398   9.252   1.120  0.6725 -0.4603  0.1112
  831MOL0     C 9619   6.324   9.135   1.090  0.0636  0.3443 -0.6825
  831MOL0     C 9620   6.388   9.002   1.149 -0.1647  0.1078  0.1828
  831MOL0     C 9621   6.333   8.886   1.075 -0.2389 -0.8481 -0.1469
  831MOL0     C 9622   6.409   8.756   1.094  0.4561 -0.3836  0.5394
  831MOL0     C 9623   6.424   8.724   1.233 -0.7210 -0.0091  0.1786
  831MOL0     C 9624   6.436   8.704   1.353 -0.3327  0.8016  0.1246
  831MOL0     C 9625   6.244   9.388   0.981 -0.0818  0.5835 -0.4703
  831MOL0     C 9626   6.195   9.512   0.936 -0.2269  0.6391 -0.3362
  831MOL0     H 9627   6.060   9.953   0.984 -2.6409  0.4299 -5.5937
  831MOL0     H 9628   6.004  10.192   0.972 -0.0676 -1.6748 -0.7214
  831MOL0     H 9629   6.001  10.428   0.882  0.8116  3.7074 -0.0738
  831MOL0     H 9630   6.074  10.343   0.746 -0.4828  0.7584 -1.3401
  831MOL0     H 9631   6.161  10.534   0.659  0.2815 -2.7239  1.2838
  831MOL0     H 9632   6.196  10.610   0.814 -1.2789  2.6022 -0.8269
  831MOL0     H 9633   5.954  10.660   0.855 -0.7905 -3.5560  0.7481
  831MOL0     H 9634   5.922  10.574   0.700  0.4856  0.8529 -2.1231
  831MOL0     H 9635   6.072  10.730   0.579 -1.5519 -4.1393 -1.3019
  831MOL0     H 9636   5.921  10.789   0.624 -0.7267 -0.1392  0.8941
  831MOL0     H 9637   6.182  10.829   0.749  0.0964  0.9426 -4.0735
  831MOL0     H 9638   6.046  10.899   0.837 -1.7243  2.1825 -1.4681
  831MOL0     H 9639   6.153  10.963   0.566  0.0336  0.6271 -0.8338
  831MOL0     H 9640   6.169  11.076   0.702 -0.3973  0.6865 -0.5477
  831MOL0     H 9641   5.907  11.036   0.546 -2.0822 -2.1272  3.1205
  831MOL0     H 9642   5.897  11.061   0.715 -0.5253 -0.1935 -0.7931
  831MOL0     H 9643   6.082  11.226   0.568 -0.3657 -0.7527 -0.3431
  831MOL0     H 9644   5.995  11.255   0.725 -0.5921  0.4487  0.8025
  831MOL0     H 9645   5.726  11.317   0.720 -0.2965  1.1159  0.1721
  831MOL0     H 9646   5.554  11.519   0.676  0.7514 -0.2822  0.1833
  831MOL0     H 9647   5.543  11.569   0.513 -3.0126 -0.8252  1.5083
  831MOL0     H 9648   5.738  11.743   0.569  2.8254 -1.3711  2.0522
  831MOL0     H 9649   5.705  11.695   0.741  0.9792  1.8449 -0.0541
  831MOL0     H 9650   5.478  11.796   0.549 -1.7256  1.0253  1.0732
  831MOL0     H 9651   5.477  11.787   0.730 -0.5898  0.8863  1.0232
  831MOL0     H 9652   5.497  12.004   0.598 -0.9379 -1.9987 -0.3036
  831MOL0     H 9653   5.670  11.972   0.585  1.0229  1.5261  1.5848
  831MOL0     H 9654   5.808  11.974   0.945  1.4261  0.1225  1.3684
  831MOL0     H 9655   6.001  12.100   0.950  1.0939 -1.2516 -2.2787
  831MOL0     H 9656   6.347  12.305   0.769  0.2554  0.9806 -1.7698
  831MOL0     H 9657   6.562  12.415   0.832 -0.3405  3.6679  0.3213
  831MOL0     H 9658   6.628  12.551   1.253  2.3860 -2.3792 -2.0176
  831MOL0     H 9659   6.559  12.685   1.159  0.1415  0.5831 -0.0621
  831MOL0     H 9660   6.777  12.769   1.174  3.2921 -1.3696  1.7629
  831MOL0     H 9661   6.802  12.674   1.027 -1.4636  1.4712 -1.0646
  831MOL0     H 9662   6.845  12.503   1.251  2.7103  0.0033  0.9879
  831MOL0     H 9663   6.890  12.652   1.316 -2.0522 -0.3542  0.9425
  831MOL0     H 9664   7.059  12.672   1.115  0.8313 -1.5744 -1.4342
  831MOL0     H 9665   7.105  12.569   1.255  3.5148  0.5984 -1.9063
  831MOL0     H 9666   7.034  12.368   1.153 -1.9600 -0.3064 -1.2678
  831MOL0     H 9667   7.149  12.464   1.049 -0.5494 -1.5130 -0.4887
  831MOL0     H 9668   6.988  12.521   0.890 -0.0791  0.3867 -0.2929
  831MOL0     H 9669   6.868  12.421   0.986  0.6682  0.8268  0.8636
  831MOL0     H 9670   7.133  12.320   0.854 -0.4920  0.4229 -2.3034
  831MOL0     H 9671   7.006  12.224   0.941 -2.5362  0.3069 -0.8708
  831MOL0     H 9672   6.966  12.391   0.692 -0.0286 -0.0385  0.1129
  831MOL0     H 9673   6.840  12.299   0.760  1.1548 -1.4514  0.6430
  831MOL0     H 9674   6.377  12.542   1.203 -0.9694 -1.5449  0.8030
  831MOL0     H 9675   6.175  12.407   1.150  1.3893 -1.0720  1.4166
  831MOL0     H 9676   5.864  12.355   0.648 -2.5588  2.2694  1.5969
  831MOL0     H 9677   5.652  12.216   0.625  0.9605 -0.2909 -1.6699
  831MOL0     H 9678   6.418  10.308   0.922 -0.0648 -0.4507  2.6103
  831MOL0     H 9679   6.478  10.060   0.973 -0.1370  0.7670  2.9874
  831MOL0     H 9680   6.422   9.703   1.113  0.4334 -0.8276  2.2574
  831MOL0     H 9681   6.501   9.484   1.189  0.1233 -0.4361 -0.6916
  831MOL0     H 9682   6.313   9.131   0.981  0.5653 -1.6645 -0.6971
  831MOL0     H 9683   6.223   9.139   1.131  0.3328 -1.6792  0.3129
  831MOL0     H 9684   6.495   8.993   1.129  0.3549 -0.1318  2.7807
  831MOL0     H 9685   6.354   8.991   1.252  1.4176 -0.1511  0.7079
  831MOL0     H 9686   6.315   8.919   0.972 -3.2034  1.3869  0.9196
  831MOL0     H 9687   6.236   8.876   1.125 -0.6825  1.8230 -0.3048
  831MOL0     H 9688   6.358   8.680   1.034  1.2391  1.0255 -2.0642
  831MOL0     H 9689   6.510   8.771   1.055  1.2435 -2.5485  1.6115
  831MOL0     H 9690   6.451   8.683   1.457 -0.1980 -3.9112 -0.6042
  831MOL0     H 9691   6.199   9.295   0.948 -0.3695  0.6634 -0.3145
  831MOL0     H 9692   6.108   9.501   0.871 -1.3576  0.9170  1.0858
  832MOL0     O 9693   4.781   3.335   1.806 -1.1234 -0.0821 -0.4071
  832MOL0     C 9694   4.884   3.374   1.861 -0.6856 -0.4545 -0.7344
  832MOL0     O 9695   5.011   3.335   1.824 -0.1823 -0.8325  0.9647
  832MOL0     C 9696   5.037   3.227   1.744  0.7298  0.1634 -0.2188
  832MOL0     C 9697   5.138   3.253   1.656  0.2752  0.0366 -0.0527
  832MOL0     C 9698   5.178   3.156   1.570 -0.6713  0.2503 -0.3264
  832MOL0     C 9699   5.120   3.027   1.574 -0.2793  1.1136 -0.0824
  832MOL0     O 9700   5.165   2.922   1.491 -0.1353  0.0185  0.0033
  832MOL0     C 9701   5.178   2.798   1.555 -0.6358  0.5029 -1.1046
  832MOL0     C 9702   5.278   2.707   1.486 -0.4383  0.0417 -0.1202
  832MOL0     C 9703   5.207   2.612   1.396 -0.7461  0.2960  0.3328
  832MOL0     C 9704   5.286   2.520   1.313  0.2366  0.2782  0.3463
  832MOL0     C 9705   5.200   2.398   1.278 -0.5149 -0.2070  0.0875
  832MOL0     C 9706   5.260   2.317   1.163 -0.1273  0.2733  0.2717
  832MOL0     C 9707   5.192   2.170   1.152 -0.0928 -0.3236 -0.2104
  832MOL0     C 9708   5.245   2.087   1.048 -0.4604  0.4944  0.6014
  832MOL0     N 9709   5.207   1.952   1.081  0.4389  0.9552  0.1360
  832MOL0     C 9710   5.259   1.860   1.172 -0.1270  0.2327  0.0861
  832MOL0     C 9711   5.170   1.764   1.192 -0.9893  0.0122 -0.1088
  832MOL0     C 9712   5.163   1.652   1.293 -0.1032  0.5256  0.6836
  832MOL0     C 9713   5.298   1.583   1.329 -0.7083  0.6702 -0.1374
  832MOL0     C 9714   5.357   1.487   1.219  0.4280  0.3182 -0.0696
  832MOL0     C 9715   5.513   1.481   1.214  0.1712  0.0730  0.3778
  832MOL0     O 9716   5.563   1.618   1.196 -0.2008  0.3461 -0.4190
  832MOL0     C 9717   5.692   1.645   1.227 -1.0595 -0.3723  0.0328
  832MOL0     C 9718   5.731   1.761   1.295  0.7863  0.0808 -1.1344
  832MOL0     C 9719   5.865   1.795   1.311 -0.7018  0.5370  0.7585
  832MOL0     C 9720   5.964   1.711   1.254  0.0856 -0.7925 -0.3445
  832MOL0     C 9721   6.112   1.747   1.247  0.0312 -0.6456  0.4514
  832MOL0     O 9722   6.143   1.865   1.303 -0.1992  0.9147 -0.1598
  832MOL0     C 9723   6.275   1.891   1.323 -1.1129  1.2565  0.7433
  832MOL0     C 9724   6.320   2.022   1.314 -0.4835 -0.6327 -0.2580
  832MOL0     C 9725   6.444   2.070   1.346  0.6859 -0.5026  0.2669
  832MOL0     C 9726   6.535   1.974   1.384  0.0180  0.1092  0.3129
  832MOL0     O 9727   6.662   2.012   1.415  0.4526  0.0088  0.5932
  832MOL0     C 9728   6.689   1.999   1.550 -0.0100  0.3211 -0.5416
  832MOL0     C 9729   6.841   2.017   1.582  0.2812  1.7084 -0.5200
  832MOL0     C 9730   6.916   1.884   1.542  0.0872  0.2287  0.2601
  832MOL0     C 9731   7.066   1.896   1.564 -0.0231 -1.2246 -0.1092
  832MOL0     C 9732   7.135   1.774   1.530 -0.4450 -0.1747 -0.8194
  832MOL0     C 9733   7.286   1.809   1.559 -0.0883  0.0500 -0.0264
  832MOL0     C 9734   7.367   1.683   1.541  0.0683 -0.5901 -0.5901
  832MOL0     C 9735   7.517   1.704   1.575 -0.4814 -0.6926 -0.5438
  832MOL0    Cl 9736   7.571   1.865   1.507  0.0526 -0.0768 -0.4067
  832MOL0     C 9737   6.497   1.835   1.409 -0.6186 -0.2124  1.4115
  832MOL0     C 9738   6.362   1.800   1.392  0.8104 -0.3823  0.9276
  832MOL0     O 9739   6.188   1.687   1.180 -0.2849  0.1212  0.4239
  832MOL0     C 9740   5.925   1.591   1.190  0.1643  0.9277 -0.0769
  832MOL0     C 9741   5.790   1.557   1.181  0.9902  0.4020 -0.1573
  832MOL0     N 9742   5.062   1.788   1.115 -1.2810 -0.0512 -0.0959
  832MOL0     N 9743   5.079   1.903   1.057  0.0371 -0.1342 -1.2548
  832MOL0     C 9744   5.022   3.006   1.674 -0.1951 -0.4847  0.7411
  832MOL0     C 9745   4.979   3.106   1.761  0.2217  0.2162 -0.2053
  832MOL0     C 9746   4.889   3.492   1.958  0.0715 -0.6785  0.5781
  832MOL0     C 9747   4.770   3.558   2.002  0.3048  0.3695  0.5093
  832MOL0     C 9748   4.787   3.663   2.095  0.2002 -0.0316  0.7157
  832MOL0     C 9749   4.910   3.729   2.132 -0.4156  0.7480 -0.1622
  832MOL0     O 9750   4.918   3.822   2.231 -0.0331  0.0865  0.2186
  832MOL0     C 9751   5.018   3.922   2.196  0.4485 -0.3461  0.3065
  832MOL0     C 9752   4.977   4.051   2.268 -0.4791 -0.6622 -0.0704
  832MOL0     C 9753   5.066   4.174   2.246  0.0340 -0.1547  0.4402
  832MOL0     C 9754   5.201   4.185   2.323 -0.2958 -1.4948  0.1768
  832MOL0     C 9755   5.283   4.301   2.290 -0.7102  0.4789  0.2136
  832MOL0     C 9756   5.348   4.401   2.273 -0.8946  0.3454  0.1081
  832MOL0     C 9757   5.021   3.658   2.090 -0.4293  0.3029  0.9811
  832MOL0     C 9758   5.014   3.543   2.001 -0.3641 -0.0535 -0.2363
  832MOL0     H 9759   5.190   3.347   1.642 -0.6073  0.5834  0.2447
  832MOL0     H 9760   5.270   3.176   1.516 -0.3006  1.7120  0.7712
  832MOL0     H 9761   5.082   2.749   1.573  1.6825 -3.2907  2.9201
  832MOL0     H 9762   5.210   2.816   1.658  1.2252 -0.8914 -1.3969
  832MOL0     H 9763   5.337   2.644   1.553  0.5475  0.9051 -0.1363
  832MOL0     H 9764   5.351   2.769   1.432  1.4137 -1.6336  0.3592
  832MOL0     H 9765   5.134   2.664   1.332 -0.4435 -0.1507 -0.3943
  832MOL0     H 9766   5.141   2.556   1.464  0.7493 -2.2528 -0.1773
  832MOL0     H 9767   5.319   2.573   1.223 -0.9259  0.4225 -0.0218
  832MOL0     H 9768   5.381   2.478   1.346  0.0544 -0.3653  0.0751
  832MOL0     H 9769   5.104   2.437   1.241 -0.7151 -0.1111  0.7111
  832MOL0     H 9770   5.197   2.338   1.369  4.0451 -1.1023 -0.0946
  832MOL0     H 9771   5.367   2.294   1.171 -0.1067  0.0823 -0.4578
  832MOL0     H 9772   5.260   2.377   1.071 -2.7280  2.7900  1.7734
  832MOL0     H 9773   5.221   2.116   1.242  2.8553 -1.0629 -1.4523
  832MOL0     H 9774   5.084   2.183   1.141  0.1496  1.4354 -0.7863
  832MOL0     H 9775   5.353   2.096   1.063 -0.3340 -1.8970  1.4610
  832MOL0     H 9776   5.215   2.111   0.946  0.1335 -3.8560 -0.7924
  832MOL0     H 9777   5.353   1.853   1.226  1.2193  2.7187 -1.7477
  832MOL0     H 9778   5.091   1.575   1.261 -1.6701  2.9415 -2.1777
  832MOL0     H 9779   5.129   1.707   1.381  0.8790  2.2116  0.0444
  832MOL0     H 9780   5.275   1.525   1.419 -0.3804  1.6645  0.6088
  832MOL0     H 9781   5.377   1.648   1.368  1.9778 -1.9955 -0.7427
  832MOL0     H 9782   5.318   1.384   1.221 -2.2224  1.2051 -1.2700
  832MOL0     H 9783   5.328   1.527   1.121 -2.7484  2.5176  1.5941
  832MOL0     H 9784   5.535   1.410   1.134 -1.4578 -1.7474  1.4395
  832MOL0     H 9785   5.541   1.417   1.298  0.9309 -0.0225  0.0578
  832MOL0     H 9786   5.652   1.832   1.314 -2.1981 -2.8142 -1.8447
  832MOL0     H 9787   5.896   1.893   1.345 -0.2729  0.5750  0.2710
  832MOL0     H 9788   6.246   2.096   1.285 -1.0286 -0.9924  0.2121
  832MOL0     H 9789   6.476   2.173   1.336  0.7234 -0.6863 -1.9826
  832MOL0     H 9790   6.658   1.899   1.580 -1.8578  1.3592  1.3011
  832MOL0     H 9791   6.636   2.081   1.601  1.8367  0.9531  0.4481
  832MOL0     H 9792   6.857   2.026   1.689 -1.1704  0.0025 -0.1142
  832MOL0     H 9793   6.880   2.104   1.529  0.8265  0.0514 -3.0052
  832MOL0     H 9794   6.898   1.864   1.436  0.2233  2.8480 -0.3386
  832MOL0     H 9795   6.885   1.805   1.611 -0.1278  0.2409  0.1756
  832MOL0     H 9796   7.096   1.985   1.508 -3.8143  0.6774  0.4984
  832MOL0     H 9797   7.080   1.916   1.671  0.9580  1.1762 -0.6132
  832MOL0     H 9798   7.124   1.744   1.425 -3.7615  2.2370 -1.3142
  832MOL0     H 9799   7.114   1.691   1.598  1.6387 -0.7800 -0.8232
  832MOL0     H 9800   7.301   1.846   1.661 -2.7943  1.5559 -0.0540
  832MOL0     H 9801   7.323   1.891   1.496 -1.7183  1.3451  0.6053
  832MOL0     H 9802   7.331   1.604   1.607  0.2918  0.6209  1.0285
  832MOL0     H 9803   7.346   1.654   1.437 -1.7728  1.3596 -0.8438
  832MOL0     H 9804   7.580   1.632   1.523 -0.0321  0.8810 -2.2988
  832MOL0     H 9805   7.530   1.686   1.682 -0.6101  0.1736 -0.3737
  832MOL0     H 9806   6.562   1.753   1.436  0.2501  0.3386  1.0444
  832MOL0     H 9807   6.329   1.697   1.403 -0.3109 -0.1338  0.1433
  832MOL0     H 9808   5.990   1.521   1.140 -0.6866  0.6385 -0.8058
  832MOL0     H 9809   5.743   1.477   1.125 -2.5629  2.8554 -0.9929
  832MOL0     H 9810   4.975   2.909   1.688  0.4834 -0.8750  0.3873
  832MOL0     H 9811   4.893   3.092   1.826  0.8273  1.0287  0.8020
  832MOL0     H 9812   4.673   3.515   1.977  0.6127 -0.7924  1.1953
  832MOL0     H 9813   4.696   3.701   2.141 -0.3328 -3.8765  3.3237
  832MOL0     H 9814   5.037   3.943   2.090 -0.8255 -1.4544 -0.1696
  832MOL0     H 9815   5.115   3.883   2.226  0.4099  0.3387  1.3771
  832MOL0     H 9816   4.878   4.084   2.236  0.0747  0.7597 -0.4013
  832MOL0     H 9817   4.979   4.031   2.376 -1.2976 -1.3652 -0.1736
  832MOL0     H 9818   5.004   4.261   2.270 -0.6658 -0.5929  0.2631
  832MOL0     H 9819   5.089   4.172   2.139  0.4684 -1.7731  0.5443
  832MOL0     H 9820   5.176   4.202   2.428  0.5107 -0.2661  0.1830
  832MOL0     H 9821   5.275   4.104   2.322  0.3429 -0.9181  0.1413
  832MOL0     H 9822   5.417   4.480   2.249  2.3686 -2.3796 -0.1583
  832MOL0     H 9823   5.118   3.693   2.124  0.9224 -2.8378  0.7636
  832MOL0     H 9824   5.105   3.503   1.959 -0.8344  1.5591 -2.9915
  833MOL0     O 9825   5.425  10.727  10.469  0.3837 -0.6841 -0.1720
  833MOL0     C 9826   5.310  10.758  10.450  0.0674  0.0456 -0.2360
  833MOL0     O 9827   5.205  10.760  10.547 -0.1314  0.5000 -1.1105
  833MOL0     C 9828   5.255  10.713  10.670  0.5338  0.2026 -0.1823
  833MOL0     C 9829   5.260  10.566  10.690 -1.2243 -1.2361 -0.8378
  833MOL0     C 9830   5.278  10.520  10.821 -0.3410  0.1762 -0.4920
  833MOL0     C 9831   5.305  10.615  10.923  0.6947  0.0983  0.4221
  833MOL0     O 9832   5.322  10.568  11.052  1.0624  0.4061  0.1635
  833MOL0     C 9833   5.223  10.615  11.148 -0.8500 -0.7880 -0.2084
  833MOL0     C 9834   5.284  10.727  11.239  0.2406  0.2170  0.4058
  833MOL0     C 9835   5.191  10.802  11.337 -0.5663  0.2234 -0.8112
  833MOL0     C 9836   5.083  10.876  11.264 -0.0429  0.5199 -0.4984
  833MOL0     C 9837   5.011  10.975  11.363 -0.7921  0.3136  0.8147
  833MOL0     C 9838   4.876  11.016  11.304  0.6516  1.7355 -0.4917
  833MOL0     C 9839   4.899  11.103  11.182 -0.0180  0.4122  0.2702
  833MOL0     C 9840   4.761  11.124  11.115  1.5070 -0.3549  0.6474
  833MOL0     N 9841   4.702  11.005  11.046  0.7222  0.2511  0.1621
  833MOL0     C 9842   4.566  11.008  11.006  1.1255 -0.8334  0.7056
  833MOL0     C 9843   4.544  10.894  10.930 -0.6117  0.5187  0.1093
  833MOL0     C 9844   4.412  10.868  10.858 -0.0699  0.8062  0.7936
  833MOL0     C 9845   4.362  10.984  10.777  0.3775 -0.0806 -0.2079
  833MOL0     C 9846   4.230  10.949  10.708  0.0993  0.4794 -0.4908
  833MOL0     C 9847   4.146  11.069  10.653  0.5913 -1.1066 -0.4642
  833MOL0     O 9848   4.203  11.120  10.528  0.4265  0.0837 -0.0395
  833MOL0     C 9849   4.169  11.054  10.412 -0.8333  0.0924 -0.5731
  833MOL0     C 9850   4.058  11.087  10.340  1.2628  0.2255  0.1957
  833MOL0     C 9851   4.032  11.036  10.217  1.0731 -0.0864  0.2931
  833MOL0     C 9852   4.119  10.943  10.155  0.3715 -0.0429  0.9526
  833MOL0     C 9853   4.100  10.903  10.014  0.2215  0.4289 -0.7616
  833MOL0     O 9854   4.001  10.977   9.956 -0.4228  0.5971 -0.3568
  833MOL0     C 9855   3.986  10.986   9.821  1.6027  0.2049 -0.8838
  833MOL0     C 9856   3.858  11.021   9.777  0.8234 -0.5777 -0.2176
  833MOL0     C 9857   3.827  11.042   9.641 -0.0762 -1.3591 -0.3955
  833MOL0     C 9858   3.934  11.033   9.533  1.0646 -0.2156 -0.2831
  833MOL0     O 9859   3.897  11.048   9.404 -0.1346  0.8886  0.0771
  833MOL0     C 9860   3.998  11.122   9.324 -0.2381  0.7975 -0.3574
  833MOL0     C 9861   4.090  11.032   9.244 -0.1610  0.5474 -0.6643
  833MOL0     C 9862   4.196  11.121   9.190  1.0218 -0.0561  1.3105
  833MOL0     C 9863   4.330  11.053   9.169 -0.0464  0.0955  0.9502
  833MOL0     C 9864   4.404  11.037   9.295 -1.1908  0.3744  0.9296
  833MOL0     C 9865   4.556  11.013   9.280 -1.0420  1.0444  0.2094
  833MOL0     C 9866   4.638  11.138   9.269 -0.7445  0.2462 -0.3713
  833MOL0     C 9867   4.668  11.216   9.391 -0.0439 -1.3790 -0.7711
  833MOL0    Cl 9868   4.813  11.318   9.373  0.2853 -0.0064 -0.0960
  833MOL0     C 9869   4.061  11.003   9.585  0.3945  0.1173 -0.5318
  833MOL0     C 9870   4.078  10.983   9.726 -0.5962  0.2805  1.0939
  833MOL0     O 9871   4.183  10.823   9.966 -0.5914 -0.6943  0.5224
  833MOL0     C 9872   4.231  10.908  10.227 -0.9260 -0.0212 -0.3229
  833MOL0     C 9873   4.253  10.958  10.358 -0.1425 -0.7306 -0.1180
  833MOL0     N 9874   4.661  10.820  10.929  0.3148 -0.2370 -0.0895
  833MOL0     N 9875   4.744  10.879  11.011  0.3453 -0.2384  0.0409
  833MOL0     C 9876   5.296  10.754  10.906 -0.0125 -0.5182 -0.0199
  833MOL0     C 9877   5.270  10.805  10.780  0.1301  0.2092 -0.3306
  833MOL0     C 9878   5.254  10.788  10.317 -1.3711  0.2044  0.0669
  833MOL0     C 9879   5.320  10.728  10.203  0.9127 -0.9047 -1.0275
  833MOL0     C 9880   5.271  10.735  10.077 -0.2325 -0.3426 -0.1592
  833MOL0     C 9881   5.150  10.802  10.053  0.7337  0.5040 -0.0370
  833MOL0     O 9882   5.095  10.819   9.931  0.1438  0.1180  0.0697
  833MOL0     C 9883   5.180  10.823   9.821  0.1471 -0.0203  0.5851
  833MOL0     C 9884   5.131  10.950   9.732 -0.2880  0.4550  0.3688
  833MOL0     C 9885   4.979  10.956   9.721  0.4443  1.3269  1.2240
  833MOL0     C 9886   4.923  11.054   9.617 -0.8282  0.2359  0.5822
  833MOL0     C 9887   4.929  11.191   9.668 -0.8560 -0.7374  0.0586
  833MOL0     C 9888   4.911  11.303   9.719 -0.6154 -0.4281 -0.7596
  833MOL0     C 9889   5.079  10.858  10.161  0.2193  0.2276  0.1292
  833MOL0     C 9890   5.128  10.851  10.291 -0.9716  0.1210  0.3567
  833MOL0     H 9891   5.238  10.504  10.604 -0.9404 -0.1274 -1.7315
  833MOL0     H 9892   5.285  10.412  10.829 -1.1041  0.2218  1.8597
  833MOL0     H 9893   5.184  10.534  11.211  1.8270 -2.2702 -0.3223
  833MOL0     H 9894   5.133  10.657  11.103 -0.6680 -0.2560 -0.0869
  833MOL0     H 9895   5.345  10.792  11.176  1.7475 -2.4323 -1.0470
  833MOL0     H 9896   5.365  10.680  11.295  3.2506  3.4536 -0.9345
  833MOL0     H 9897   5.257  10.867  11.396  1.6397 -2.0723 -0.5860
  833MOL0     H 9898   5.145  10.721  11.393 -2.0875 -0.1775 -2.5668
  833MOL0     H 9899   5.142  10.922  11.184  1.5299 -2.2959 -1.0812
  833MOL0     H 9900   5.012  10.806  11.220  1.2941 -1.1514 -0.1055
  833MOL0     H 9901   5.081  11.059  11.374  0.0310 -0.6776  4.2029
  833MOL0     H 9902   4.994  10.925  11.459  1.3020 -0.9146  0.5820
  833MOL0     H 9903   4.802  11.060  11.371 -1.8001 -4.3804  1.5264
  833MOL0     H 9904   4.828  10.922  11.275  2.3029  1.3522 -2.1767
  833MOL0     H 9905   4.941  11.193  11.227  1.5942 -1.2098  2.2291
  833MOL0     H 9906   4.966  11.056  11.108  2.9167  1.7977  1.8663
  833MOL0     H 9907   4.766  11.210  11.047 -0.4529 -1.1522 -0.6000
  833MOL0     H 9908   4.695  11.151  11.198  3.5265 -0.5851  2.4040
  833MOL0     H 9909   4.489  11.084  11.007  2.8102  0.9692 -0.0503
  833MOL0     H 9910   4.334  10.854  10.934  1.4862 -0.3175  2.2597
  833MOL0     H 9911   4.415  10.773  10.805 -3.9565  1.3961 -0.8476
  833MOL0     H 9912   4.440  11.007  10.704 -1.2782 -1.6729 -2.6206
  833MOL0     H 9913   4.353  11.068  10.847 -0.6226  0.1074 -0.5395
  833MOL0     H 9914   4.248  10.872  10.633  2.6027  0.3827  0.1153
  833MOL0     H 9915   4.176  10.891  10.783 -0.2139  1.8903  0.4285
  833MOL0     H 9916   4.140  11.152  10.724  0.8028 -0.7063 -0.9093
  833MOL0     H 9917   4.044  11.033  10.638  1.1492 -1.7110 -3.4461
  833MOL0     H 9918   3.984  11.159  10.373  0.5164  0.7058 -2.3068
  833MOL0     H 9919   3.934  11.056  10.174  2.6080  3.7116 -1.8943
  833MOL0     H 9920   3.782  11.038   9.853  1.6952  0.6956  0.3994
  833MOL0     H 9921   3.724  11.061   9.612 -0.6000  0.0700  2.1359
  833MOL0     H 9922   4.058  11.180   9.394 -0.3840 -0.3380  0.7616
  833MOL0     H 9923   3.945  11.192   9.259  0.1670  3.5069  2.0265
  833MOL0     H 9924   4.033  10.990   9.161  1.8646 -2.9410 -0.4789
  833MOL0     H 9925   4.125  10.940   9.293 -0.2206  0.7886 -0.1627
  833MOL0     H 9926   4.206  11.214   9.247  1.7805 -1.0856  2.9302
  833MOL0     H 9927   4.156  11.154   9.094 -1.5881 -1.9910  1.6159
  833MOL0     H 9928   4.315  10.960   9.114  0.0272  1.7422 -2.1272
  833MOL0     H 9929   4.390  11.111   9.098 -2.1701 -0.3772 -1.3707
  833MOL0     H 9930   4.366  10.947   9.343  1.1524  0.4249  3.0917
  833MOL0     H 9931   4.388  11.125   9.358 -2.9040  0.5686  0.2940
  833MOL0     H 9932   4.574  10.947   9.194  3.7240  3.4561 -0.9377
  833MOL0     H 9933   4.574  10.954   9.370 -1.7446 -3.4625 -2.2599
  833MOL0     H 9934   4.737  11.106   9.234 -0.9797 -1.9879  0.8061
  833MOL0     H 9935   4.586  11.197   9.193 -0.8630 -0.1056 -0.5690
  833MOL0     H 9936   4.677  11.144   9.474 -0.2854 -1.1375 -0.5340
  833MOL0     H 9937   4.582  11.278   9.418  1.0433  1.3696 -3.1390
  833MOL0     H 9938   4.145  10.987   9.517 -0.7108  0.6581 -2.0892
  833MOL0     H 9939   4.176  10.952   9.762 -1.7755 -1.1324  3.2686
  833MOL0     H 9940   4.311  10.838  10.204 -0.3034 -0.1037  1.8171
  833MOL0     H 9941   4.342  10.915  10.404  1.0503 -0.5804 -2.1738
  833MOL0     H 9942   5.303  10.829  10.984  0.5628 -0.6304  0.0405
  833MOL0     H 9943   5.233  10.905  10.763 -2.5588 -0.7527 -0.5794
  833MOL0     H 9944   5.412  10.672  10.218  1.8669  1.2875  2.5661
  833MOL0     H 9945   5.322  10.696   9.990  0.4053  1.4014 -0.5966
  833MOL0     H 9946   5.166  10.729   9.765 -1.3820  1.7096 -2.1844
  833MOL0     H 9947   5.285  10.837   9.846  0.1618 -1.5561  1.5286
  833MOL0     H 9948   5.181  11.030   9.789  1.6479 -1.5753  1.7231
  833MOL0     H 9949   5.186  10.937   9.638 -0.7948 -1.3485  0.2874
  833MOL0     H 9950   4.918  10.951   9.812 -2.7597 -2.9313 -0.7987
  833MOL0     H 9951   4.952  10.860   9.677  2.2426  1.6180 -0.6384
  833MOL0     H 9952   4.969  11.049   9.518  0.3090  0.9198  1.0532
  833MOL0     H 9953   4.817  11.032   9.604  0.0325 -2.4821 -4.2860
  833MOL0     H 9954   4.884  11.389   9.777  1.4092 -0.3583  0.1762
  833MOL0     H 9955   4.991  10.915  10.135  0.2497 -0.0986 -0.7109
  833MOL0     H 9956   5.080  10.907  10.371 -0.2911  2.7444 -0.9875
  834MOL0     O 9957   0.870   1.231  10.760  0.5305  0.3434 -0.5667
  834MOL0     C 9958   0.768   1.282  10.720  0.6359 -0.2906  0.2617
  834MOL0     O 9959   0.680   1.339  10.797  0.6406  0.0446  0.4957
  834MOL0     C 9960   0.681   1.330  10.931  0.3853  0.0879  0.7853
  834MOL0     C 9961   0.695   1.451  11.008 -0.1174 -0.3439  0.2238
  834MOL0     C 9962   0.685   1.438  11.145  0.8399 -0.2133  0.7340
  834MOL0     C 9963   0.657   1.314  11.203 -0.7996  0.1463  0.1452
  834MOL0     O 9964   0.655   1.308  11.337  1.0622  0.5428  1.0484
  834MOL0     C 9965   0.758   1.347  11.428  0.4796  0.7716  0.2710
  834MOL0     C 9966   0.728   1.275  11.570  0.7620 -0.2452  0.0417
  834MOL0     C 9967   0.602   1.342  11.634  0.3539  0.8073 -0.2779
  834MOL0     C 9968   0.536   1.251  11.741  0.1168 -0.0455 -0.3031
  834MOL0     C 9969   0.425   1.334  11.816  0.4495  0.0127  0.2003
  834MOL0     C 9970   0.310   1.359  11.730 -0.5849  1.2336  0.6092
  834MOL0     C 9971   0.223   1.236  11.699  0.3498  0.3492  0.0798
  834MOL0     C 9972   0.120   1.294  11.608  0.3868 -0.0928  0.3825
  834MOL0     N 9973   0.006   1.200  11.577 -0.0026 -0.5537  0.4301
  834MOL0     C 9974  -0.005   1.068  11.620  0.8156  0.6812  0.8002
  834MOL0     C 9975  -0.132   1.026  11.573  1.1706  0.8447 -0.0932
  834MOL0     C 9976  -0.203   0.898  11.591  0.2701  0.4783  0.2281
  834MOL0     C 9977  -0.131   0.805  11.693  0.3342  0.2242 -1.5965
  834MOL0     C 9978  -0.245   0.733  11.777  0.1335  0.5624  0.8470
  834MOL0     C 9979  -0.191   0.634  11.882 -0.1200 -0.0749 -0.7228
  834MOL0     O 9980  -0.295   0.558  11.962  0.7596 -0.5413 -0.1740
  834MOL0     C 9981  -0.428   0.542  11.903  0.0038 -0.1095  0.1261
  834MOL0     C 9982  -0.547   0.595  11.947 -0.2703 -0.7264 -0.5687
  834MOL0     C 9983  -0.664   0.555  11.881 -0.4168 -1.1504  0.6502
  834MOL0     C 9984  -0.673   0.460  11.776 -0.2457 -0.4845 -1.9280
  834MOL0     C 9985  -0.806   0.418  11.716 -0.7653 -0.7692 -0.5912
  834MOL0     O 9986  -0.914   0.496  11.737 -0.9278  0.2785 -0.5854
  834MOL0     C 9987  -1.022   0.471  11.656 -0.6175  0.7131  0.1922
  834MOL0     C 9988  -1.068   0.572  11.572  0.7447 -0.4110  0.9071
  834MOL0     C 9989  -1.173   0.550  11.479 -0.0153 -0.2994  0.1867
  834MOL0     C 9990  -1.234   0.430  11.470 -0.0107  0.1997 -0.5362
  834MOL0     O 9991  -1.339   0.399  11.386 -0.3449 -0.6893 -0.0150
  834MOL0     C 9992  -1.367   0.498  11.283  0.0799 -0.5556  0.3221
  834MOL0     C 9993  -1.496   0.467  11.208  0.1047 -0.9457  0.4117
  834MOL0     C 9994  -1.519   0.573  11.094 -0.6226  0.1282 -0.6100
  834MOL0     C 9995  -1.554   0.710  11.155  0.5400 -0.1871 -0.0310
  834MOL0     C 9996  -1.673   0.717  11.258  0.2771 -0.3214  0.1754
  834MOL0     C 9997  -1.729   0.858  11.299 -1.2608 -0.0857 -0.4490
  834MOL0     C 9998  -1.800   0.848  11.438 -0.0822 -0.4456 -0.5809
  834MOL0     C 9999  -1.924   0.950  11.447 -0.0408  0.3815 -0.1223
  834MOL0    Cl10000  -1.855   1.119  11.472 -0.2811 -0.4210  1.0104
  834MOL0     C10001  -1.182   0.320  11.552 -0.0388 -0.0838  0.6132
  834MOL0     C10002  -1.086   0.343  11.656 -0.3645  0.5840  0.3370
  834MOL0     O10003  -0.786   0.335  11.625  0.0380 -0.7647  0.9679
  834MOL0     C10004  -0.554   0.404  11.736 -0.8911 -0.7778  0.4401
  834MOL0     C10005  -0.432   0.441  11.803 -0.5656  0.3563  0.1481
  834MOL0     N10006  -0.185   1.138  11.509  0.6397 -0.3808 -0.2146
  834MOL0     N10007  -0.099   1.230  11.505  1.1756 -0.7551  1.1508
  834MOL0     C10008   0.649   1.200  11.125  0.7025  0.7985  0.8952
  834MOL0     C10009   0.662   1.209  10.985  0.6334 -0.2237  0.1448
  834MOL0     C10010   0.732   1.266  10.577  0.6458 -0.7219  0.3896
  834MOL0     C10011   0.604   1.312  10.537  0.3339 -0.3653 -0.1011
  834MOL0     C10012   0.553   1.294  10.409  0.3358  0.3493  0.3299
  834MOL0     C10013   0.637   1.234  10.306  1.1040 -0.3835 -0.8416
  834MOL0     O10014   0.575   1.231  10.186 -0.5690 -0.1334  0.2760
  834MOL0     C10015   0.564   1.096  10.137  0.0137  0.0903  0.2744
  834MOL0     C10016   0.482   1.110  10.002 -0.0620  0.0472 -0.0183
  834MOL0     C10017   0.506   1.002   9.902  0.2077 -0.3834 -0.0581
  834MOL0     C10018   0.480   0.857   9.956  0.0485 -0.6692  0.1942
  834MOL0     C10019   0.547   0.772   9.864 -1.2785  0.0494  0.2352
  834MOL0     C10020   0.594   0.694   9.780 -0.6116  0.7893 -0.7588
  834MOL0     C10021   0.767   1.199  10.351  0.2486 -0.6717 -0.1223
  834MOL0     C10022   0.814   1.207  10.483 -0.0353 -0.1067 -0.2262
  834MOL0     H10023   0.711   1.540  10.949 -0.4503 -1.2246 -1.2486
  834MOL0     H10024   0.675   1.531  11.200  0.4756  0.7546 -0.9039
  834MOL0     H10025   0.746   1.454  11.443 -0.9143  0.4393  1.8324
  834MOL0     H10026   0.859   1.325  11.394 -0.6243 -0.2815 -2.6059
  834MOL0     H10027   0.804   1.298  11.645  2.4579  3.6683 -2.5417
  834MOL0     H10028   0.719   1.166  11.565  2.0169 -0.3132 -1.3176
  834MOL0     H10029   0.524   1.342  11.558  1.6017  0.9182 -1.5812
  834MOL0     H10030   0.614   1.447  11.662 -2.2198  1.6557 -1.9681
  834MOL0     H10031   0.497   1.160  11.693  1.2544 -0.3200 -0.7350
  834MOL0     H10032   0.620   1.229  11.807 -0.8270 -0.4891  0.7874
  834MOL0     H10033   0.451   1.438  11.838 -6.3343  2.4148 -0.6461
  834MOL0     H10034   0.390   1.278  11.904 -3.3378  2.3438  0.4197
  834MOL0     H10035   0.340   1.408  11.637  0.2145 -1.8402 -0.9054
  834MOL0     H10036   0.238   1.421  11.785 -3.6888 -0.9167 -0.6794
  834MOL0     H10037   0.272   1.161  11.635 -1.7861 -1.4781  0.4625
  834MOL0     H10038   0.188   1.186  11.790  0.1149  0.8393  0.2611
  834MOL0     H10039   0.164   1.325  11.512 -2.3942  1.9853 -0.3583
  834MOL0     H10040   0.079   1.380  11.663  0.8354  2.7888 -3.3440
  834MOL0     H10041   0.065   1.008  11.677  1.0608  0.2932  0.1020
  834MOL0     H10042  -0.214   0.850  11.493 -2.1804 -0.6089  0.9476
  834MOL0     H10043  -0.303   0.923  11.628 -1.0631 -2.7752 -0.7639
  834MOL0     H10044  -0.068   0.859  11.764 -2.0639  0.9800  0.1191
  834MOL0     H10045  -0.080   0.723  11.642  0.9385  1.2158 -2.6365
  834MOL0     H10046  -0.295   0.818  11.826  1.4735  1.8212  0.1249
  834MOL0     H10047  -0.313   0.673  11.716  2.2888  0.1672 -1.3174
  834MOL0     H10048  -0.126   0.688  11.951  0.1047 -0.7053 -0.4386
  834MOL0     H10049  -0.134   0.555  11.833  4.4506  0.9515  2.3121
  834MOL0     H10050  -0.543   0.662  12.032 -1.2220  1.2361 -1.9963
  834MOL0     H10051  -0.750   0.615  11.908  1.0214  0.4524  1.9306
  834MOL0     H10052  -1.023   0.670  11.562 -1.0790  0.4374  0.5074
  834MOL0     H10053  -1.206   0.630  11.412  4.7193  0.2784 -1.8815
  834MOL0     H10054  -1.286   0.508  11.210  0.7334  0.8350  1.2058
  834MOL0     H10055  -1.387   0.587  11.343  1.1277 -1.6505  2.4490
  834MOL0     H10056  -1.581   0.471  11.277  0.8603  1.0665  1.3249
  834MOL0     H10057  -1.490   0.368  11.163  0.0145  0.3146 -2.6182
  834MOL0     H10058  -1.607   0.537  11.039 -1.4723  3.2384 -1.5321
  834MOL0     H10059  -1.437   0.579  11.021 -0.1650  3.4155 -0.0110
  834MOL0     H10060  -1.471   0.770  11.194  1.3064 -1.7801  0.9049
  834MOL0     H10061  -1.593   0.768  11.071  0.0065 -0.3607  0.0913
  834MOL0     H10062  -1.613   0.668  11.336  3.3072  2.3790 -0.2473
  834MOL0     H10063  -1.754   0.652  11.226 -1.6096  1.2007  1.5612
  834MOL0     H10064  -1.800   0.890  11.222 -3.5214 -1.9486  0.7140
  834MOL0     H10065  -1.640   0.920  11.304 -0.0293 -1.4778 -3.0395
  834MOL0     H10066  -1.827   0.745  11.465  0.6301 -0.4857  0.0251
  834MOL0     H10067  -1.722   0.882  11.506 -0.0450  1.5748 -1.5754
  834MOL0     H10068  -1.980   0.925  11.537 -1.2004 -3.7768 -1.7412
  834MOL0     H10069  -2.003   0.948  11.371 -3.9204 -6.7683  3.0875
  834MOL0     H10070  -1.228   0.222  11.561 -0.3195  0.1704  2.1625
  834MOL0     H10071  -1.044   0.257  11.708  3.5891  1.0481 -1.7215
  834MOL0     H10072  -0.555   0.327  11.660  0.9050 -2.3621  1.9205
  834MOL0     H10073  -0.334   0.402  11.776  0.4909 -0.5064  4.4202
  834MOL0     H10074   0.620   1.111  11.179 -2.3121  1.3693  0.4262
  834MOL0     H10075   0.656   1.121  10.921  0.5548 -0.2599  0.2015
  834MOL0     H10076   0.529   1.341  10.610 -0.4102 -3.7826  0.7086
  834MOL0     H10077   0.450   1.328  10.402 -0.1767 -1.2303 -0.2338
  834MOL0     H10078   0.512   1.023  10.199  1.5156  1.2476  3.0494
  834MOL0     H10079   0.666   1.063  10.116  0.0597  0.2016  0.3233
  834MOL0     H10080   0.375   1.112  10.024 -0.6698 -0.9484 -2.5627
  834MOL0     H10081   0.507   1.207   9.958 -2.1862  1.0476  0.8640
  834MOL0     H10082   0.605   1.008   9.856  1.7642 -0.9044  2.9639
  834MOL0     H10083   0.430   1.010   9.823  1.3836  0.8218 -1.1009
  834MOL0     H10084   0.511   0.843  10.061  2.1654 -1.5483 -0.4918
  834MOL0     H10085   0.376   0.823   9.954  0.9544 -3.7244 -0.3247
  834MOL0     H10086   0.628   0.639   9.695  0.6072  1.0513 -0.4539
  834MOL0     H10087   0.844   1.159  10.286  2.3131  1.6864  0.7040
  834MOL0     H10088   0.911   1.176  10.520  0.3185 -2.0970 -2.5572
  835MOL0     O10089   5.295   1.654   7.191  0.8835 -0.4097 -0.2210
  835MOL0     C10090   5.350   1.556   7.241 -1.2964 -1.2466 -1.0890
  835MOL0     O10091   5.446   1.565   7.340  0.2074  0.2433  0.2326
  835MOL0     C10092   5.489   1.683   7.374 -0.5682  0.5631 -0.0724
  835MOL0     C10093   5.571   1.757   7.283 -0.5450  0.8530  0.4407
  835MOL0     C10094   5.616   1.891   7.312  0.9228  0.2799 -0.3856
  835MOL0     C10095   5.567   1.951   7.435  0.5190  0.0386  0.6510
  835MOL0     O10096   5.616   2.069   7.481 -0.0302 -0.5347 -0.3347
  835MOL0     C10097   5.645   2.177   7.384 -0.1345  1.0351 -0.4467
  835MOL0     C10098   5.589   2.315   7.432 -0.0032 -0.1606 -0.7278
  835MOL0     C10099   5.584   2.411   7.312 -0.6276  0.3825  0.6048
  835MOL0     C10100   5.551   2.555   7.353  0.6567  0.3289  0.8997
  835MOL0     C10101   5.405   2.572   7.415  0.2664 -0.7076 -0.1105
  835MOL0     C10102   5.293   2.549   7.310  1.3257 -0.0956  0.3420
  835MOL0     C10103   5.163   2.625   7.338  0.5362 -0.9550 -0.1180
  835MOL0     C10104   5.062   2.579   7.239 -0.6148  0.4044 -0.1799
  835MOL0     N10105   4.939   2.654   7.260  0.2807  0.2151  0.4533
  835MOL0     C10106   4.831   2.620   7.332  0.4326  0.1409  0.2925
  835MOL0     C10107   4.729   2.694   7.287 -1.0422 -0.0459  0.1263
  835MOL0     C10108   4.587   2.690   7.339  0.5518 -0.2573  0.1005
  835MOL0     C10109   4.576   2.770   7.470  0.4612  0.3724 -0.2124
  835MOL0     C10110   4.432   2.830   7.490 -0.8422  0.2498 -0.3778
  835MOL0     C10111   4.325   2.735   7.517  0.6777 -0.3767 -0.0809
  835MOL0     O10112   4.379   2.652   7.614  0.9643 -0.3520 -0.3830
  835MOL0     C10113   4.288   2.571   7.678  0.3569  0.6138  1.1143
  835MOL0     C10114   4.208   2.620   7.783 -1.0823 -0.0994 -0.0335
  835MOL0     C10115   4.144   2.535   7.867 -0.0155  0.5994 -0.7453
  835MOL0     C10116   4.145   2.396   7.838 -0.0415  0.6168  0.6201
  835MOL0     C10117   4.080   2.300   7.929 -0.6055  1.0235 -0.1584
  835MOL0     O10118   4.087   2.160   7.899 -0.4012  0.0920 -0.8420
  835MOL0     C10119   4.030   2.063   7.976 -1.3411  0.4724 -0.4219
  835MOL0     C10120   4.004   2.068   8.117  0.7563  0.3239 -0.4470
  835MOL0     C10121   3.957   1.957   8.185  0.2167  0.0429  0.2934
  835MOL0     C10122   3.926   1.837   8.121 -0.9853 -0.2815  0.2374
  835MOL0     O10123   3.887   1.722   8.183  0.4199  0.0900 -1.0756
  835MOL0     C10124   3.917   1.698   8.322  0.4769  0.6304 -0.0427
  835MOL0     C10125   4.051   1.633   8.355 -0.0161  0.0223 -0.0069
  835MOL0     C10126   4.150   1.728   8.424  1.3909  0.1077  1.0210
  835MOL0     C10127   4.095   1.783   8.563 -0.1966 -0.1834  0.4012
  835MOL0     C10128   4.155   1.713   8.684 -0.2829 -0.3324 -0.2004
  835MOL0     C10129   4.129   1.771   8.820 -0.2136  0.3552 -0.2422
  835MOL0     C10130   4.171   1.673   8.937  0.3458  0.2106  1.0314
  835MOL0     C10131   4.137   1.720   9.079 -0.3965 -0.7633  0.0095
  835MOL0    Cl10132   4.241   1.861   9.124 -0.0292  0.0412  0.2282
  835MOL0     C10133   3.958   1.836   7.983 -0.0325  0.0346  0.2042
  835MOL0     C10134   3.999   1.941   7.914 -0.4710 -1.0336 -0.0073
  835MOL0     O10135   4.033   2.346   8.033  0.3658  0.1556 -0.2899
  835MOL0     C10136   4.225   2.339   7.735 -0.1606 -0.4923 -0.2830
  835MOL0     C10137   4.299   2.425   7.660  0.8233 -0.2499 -0.0519
  835MOL0     N10138   4.780   2.783   7.206  0.0738  0.1349 -0.0845
  835MOL0     N10139   4.897   2.751   7.173 -0.8504  0.0863  0.8990
  835MOL0     C10140   5.498   1.870   7.525 -0.0757 -0.6374  0.5463
  835MOL0     C10141   5.447   1.746   7.494 -0.3784  0.5692 -0.6986
  835MOL0     C10142   5.300   1.418   7.203  0.8452 -0.9328  0.2194
  835MOL0     C10143   5.259   1.403   7.066  0.0785 -0.4937  0.4102
  835MOL0     C10144   5.227   1.273   7.018  0.7171 -0.0578 -0.9234
  835MOL0     C10145   5.230   1.167   7.108  0.2134  1.2200 -0.3734
  835MOL0     O10146   5.210   1.036   7.065  0.7796 -0.0760 -0.1977
  835MOL0     C10147   5.161   1.012   6.930  0.8098  0.2768 -0.1218
  835MOL0     C10148   5.089   0.881   6.933 -0.2366  0.5621 -0.9828
  835MOL0     C10149   5.017   0.857   6.796  0.3739  0.0591 -0.3064
  835MOL0     C10150   5.113   0.840   6.672  0.3643  1.3462  1.2568
  835MOL0     C10151   5.175   0.712   6.661 -0.1336  0.1420  0.7792
  835MOL0     C10152   5.237   0.608   6.661  0.3791 -1.3575 -0.6089
  835MOL0     C10153   5.259   1.183   7.242 -0.1989  0.0331 -0.8858
  835MOL0     C10154   5.305   1.306   7.295  0.3160 -0.7766  0.8898
  835MOL0     H10155   5.604   1.714   7.189  1.7441 -0.4117  1.7440
  835MOL0     H10156   5.684   1.933   7.239  2.7433 -3.5046 -1.0958
  835MOL0     H10157   5.598   2.141   7.292  3.6919 -0.4271 -2.0061
  835MOL0     H10158   5.753   2.182   7.373 -0.0150  3.5373  1.1069
  835MOL0     H10159   5.643   2.359   7.517  0.7675 -1.6693 -0.3961
  835MOL0     H10160   5.488   2.297   7.470  0.4193 -1.6999 -0.2459
  835MOL0     H10161   5.513   2.379   7.235 -0.9899  1.4518  0.4776
  835MOL0     H10162   5.686   2.409   7.274 -0.7717  0.7278  0.1980
  835MOL0     H10163   5.612   2.595   7.434 -0.4941  0.1407  1.8683
  835MOL0     H10164   5.589   2.617   7.271  1.3787 -3.3382 -1.8307
  835MOL0     H10165   5.401   2.676   7.448  2.1476 -1.0173  1.2482
  835MOL0     H10166   5.380   2.520   7.508  0.9124 -1.4297 -0.3275
  835MOL0     H10167   5.276   2.443   7.288  1.2620 -0.0946  0.3888
  835MOL0     H10168   5.329   2.588   7.213 -0.2124  2.4197  0.6911
  835MOL0     H10169   5.122   2.605   7.437 -1.0811 -2.4613 -1.0471
  835MOL0     H10170   5.187   2.731   7.328 -2.6248  0.0856  2.0457
  835MOL0     H10171   5.028   2.476   7.252  1.6018 -0.1715  1.6669
  835MOL0     H10172   5.102   2.575   7.138  1.9856 -1.0058  0.8317
  835MOL0     H10173   4.820   2.548   7.412 -3.7437  0.1814 -0.0221
  835MOL0     H10174   4.543   2.590   7.346 -1.2337  0.3397 -1.5030
  835MOL0     H10175   4.519   2.745   7.273  1.4406  0.6830 -0.0614
  835MOL0     H10176   4.629   2.865   7.468  2.6250 -0.7335  1.0982
  835MOL0     H10177   4.609   2.711   7.556 -1.6545 -2.2099 -1.0386
  835MOL0     H10178   4.429   2.893   7.580  1.2579 -1.3140  0.8642
  835MOL0     H10179   4.403   2.900   7.410 -0.7599  2.2264  1.2431
  835MOL0     H10180   4.300   2.680   7.427  0.8394  0.3752 -0.5996
  835MOL0     H10181   4.240   2.791   7.557  0.1795 -1.3475  0.2358
  835MOL0     H10182   4.211   2.727   7.799 -5.5244 -0.0383  1.9107
  835MOL0     H10183   4.084   2.586   7.942  0.1420 -1.9830  1.2807
  835MOL0     H10184   4.031   2.158   8.171 -3.3012  0.5194  1.5816
  835MOL0     H10185   3.927   1.968   8.289  1.0271  1.2276  0.4267
  835MOL0     H10186   3.840   1.624   8.347  0.4989 -0.1443 -2.1214
  835MOL0     H10187   3.883   1.782   8.385  0.3696  0.6509 -0.1264
  835MOL0     H10188   4.094   1.608   8.257 -0.0071  2.8908 -0.8285
  835MOL0     H10189   4.045   1.545   8.420  0.2420  0.0014 -0.0090
  835MOL0     H10190   4.151   1.815   8.358 -0.1416 -1.9723 -1.9633
  835MOL0     H10191   4.249   1.682   8.424  1.7070  0.7512 -0.3839
  835MOL0     H10192   4.122   1.888   8.578  1.5399 -0.2179 -1.8337
  835MOL0     H10193   3.987   1.769   8.570 -0.0773 -3.2646 -1.6910
  835MOL0     H10194   4.261   1.722   8.658  0.0749  1.4192  1.6062
  835MOL0     H10195   4.127   1.607   8.688  2.6980 -1.1670  1.5387
  835MOL0     H10196   4.021   1.791   8.814 -0.3231 -0.3788 -0.9091
  835MOL0     H10197   4.199   1.854   8.828  0.7829 -0.4005 -0.9051
  835MOL0     H10198   4.125   1.578   8.907 -0.1468  1.0866 -1.1461
  835MOL0     H10199   4.280   1.660   8.930  0.1567 -0.3568 -2.6404
  835MOL0     H10200   4.172   1.647   9.152  0.1141  0.8144  1.3974
  835MOL0     H10201   4.032   1.750   9.079 -0.0235  0.9949 -2.9280
  835MOL0     H10202   3.944   1.744   7.927  1.4859 -0.9091  1.3017
  835MOL0     H10203   4.018   1.937   7.808 -1.0963  0.5305 -0.1943
  835MOL0     H10204   4.240   2.232   7.724  2.0475 -0.6948  3.2329
  835MOL0     H10205   4.365   2.379   7.587 -0.2494  1.6969 -2.3757
  835MOL0     H10206   5.461   1.922   7.613 -1.0568 -1.6807  0.7817
  835MOL0     H10207   5.379   1.699   7.564  3.3164 -2.3098  1.3271
  835MOL0     H10208   5.253   1.493   7.006 -2.9957 -2.7870 -3.1201
  835MOL0     H10209   5.199   1.276   6.913 -0.5199 -1.2933 -0.6614
  835MOL0     H10210   5.251   1.008   6.867  1.4365  1.2274  0.6786
  835MOL0     H10211   5.098   1.092   6.892 -0.0461 -1.8800 -3.7172
  835MOL0     H10212   5.140   0.789   6.964 -3.4106 -1.0835 -0.2193
  835MOL0     H10213   5.009   0.889   7.007  1.8284  1.8081  1.2721
  835MOL0     H10214   4.944   0.937   6.786 -0.6649 -0.8486 -0.1965
  835MOL0     H10215   4.970   0.760   6.815  0.8277 -0.0403  0.3342
  835MOL0     H10216   5.072   0.847   6.571  4.0504 -2.7793 -0.8636
  835MOL0     H10217   5.187   0.920   6.670 -0.7223  2.3753  0.1067
  835MOL0     H10218   5.300   0.522   6.654 -0.1594 -1.9348  1.2270
  835MOL0     H10219   5.247   1.091   7.300  0.0438 -0.5561 -1.7471
  835MOL0     H10220   5.338   1.312   7.399 -1.6439 -3.2741  1.7517
  836MOL0     O10221   0.658   1.128   8.065 -0.5552  0.9048 -1.3445
  836MOL0     C10222   0.674   1.013   8.104 -0.4684 -0.3516 -0.0315
  836MOL0     O10223   0.702   0.983   8.232  0.5301  0.2282 -0.5900
  836MOL0     C10224   0.699   1.075   8.333 -0.0211  0.0957 -0.0275
  836MOL0     C10225   0.826   1.086   8.402  0.1423 -0.4653 -0.7482
  836MOL0     C10226   0.832   1.174   8.509 -0.1922  0.6635  0.6637
  836MOL0     C10227   0.724   1.244   8.545 -0.2901 -0.8703 -0.1679
  836MOL0     O10228   0.725   1.325   8.662 -0.0877 -0.0133  0.1971
  836MOL0     C10229   0.763   1.264   8.785  0.3429 -0.6329 -0.1340
  836MOL0     C10230   0.746   1.379   8.884 -1.0560  0.0852 -0.0554
  836MOL0     C10231   0.620   1.477   8.861 -0.1634  0.6762  0.3042
  836MOL0     C10232   0.607   1.564   8.975 -0.2530 -0.3812 -0.4513
  836MOL0     C10233   0.485   1.668   8.965 -0.2292  0.1848 -0.1589
  836MOL0     C10234   0.529   1.796   8.884  0.5770  1.0584 -0.1894
  836MOL0     C10235   0.417   1.840   8.780 -0.5751 -0.0938  0.9691
  836MOL0     C10236   0.451   1.970   8.714  0.5365 -0.2741  0.2895
  836MOL0     N10237   0.389   1.988   8.591 -0.1728  0.4392 -0.2515
  836MOL0     C10238   0.269   1.933   8.551  0.2538 -0.4442 -0.5835
  836MOL0     C10239   0.232   1.991   8.433 -0.0685  0.5255  0.8542
  836MOL0     C10240   0.106   1.942   8.365  0.7444 -0.6291 -0.5865
  836MOL0     C10241  -0.017   1.932   8.447 -1.1720 -1.0426 -0.2987
  836MOL0     C10242  -0.072   2.078   8.481 -0.1377  0.3128  0.2165
  836MOL0     C10243   0.012   2.158   8.581 -0.4885 -0.2813 -0.4206
  836MOL0     O10244   0.021   2.068   8.692  0.2959 -0.6014  0.1893
  836MOL0     C10245   0.088   2.103   8.811  0.4633  0.2181 -0.1212
  836MOL0     C10246   0.082   2.014   8.913 -1.3083 -0.3097  0.7672
  836MOL0     C10247   0.163   2.033   9.030  0.4191  0.8829  0.4383
  836MOL0     C10248   0.225   2.159   9.051  0.3283 -1.0148  0.2207
  836MOL0     C10249   0.290   2.167   9.178 -0.2132 -0.2151 -0.4463
  836MOL0     O10250   0.300   2.291   9.230 -0.4971 -0.3607 -0.7885
  836MOL0     C10251   0.370   2.309   9.345  0.0322  0.0656 -0.7356
  836MOL0     C10252   0.514   2.313   9.363 -0.7652 -0.5612  0.3741
  836MOL0     C10253   0.580   2.330   9.485  0.3292  0.1572  0.0537
  836MOL0     C10254   0.500   2.342   9.599 -0.1132  0.6192 -0.1847
  836MOL0     O10255   0.547   2.350   9.727 -0.5510  0.2478  0.2685
  836MOL0     C10256   0.648   2.434   9.769 -0.5158 -0.4049 -0.4316
  836MOL0     C10257   0.602   2.582   9.739 -0.2930 -0.1707 -0.0809
  836MOL0     C10258   0.700   2.691   9.791 -0.7653  0.4023  0.2434
  836MOL0     C10259   0.669   2.835   9.737 -0.0267  1.3405 -0.9719
  836MOL0     C10260   0.768   2.940   9.781 -0.5327 -1.1183 -1.5490
  836MOL0     C10261   0.756   2.968   9.940 -0.3160  0.2726  0.5014
  836MOL0     C10262   0.854   3.075   9.984  1.1634 -0.2742  0.0370
  836MOL0     C10263   0.838   3.084  10.134  0.5941  0.4441 -1.1387
  836MOL0    Cl10264   0.880   3.237  10.191  0.2947  0.6475 -0.2039
  836MOL0     C10265   0.356   2.332   9.588 -0.9026 -0.5186  0.9479
  836MOL0     C10266   0.302   2.321   9.462 -0.3256 -0.5207  0.2396
  836MOL0     O10267   0.335   2.062   9.221 -0.5723  0.3269  0.1177
  836MOL0     C10268   0.210   2.265   8.957  0.2015 -0.4657  0.2012
  836MOL0     C10269   0.139   2.230   8.842 -0.0210  0.8174 -0.3079
  836MOL0     N10270   0.325   2.081   8.399 -0.1841  0.3097 -0.1325
  836MOL0     N10271   0.422   2.076   8.490  0.5772 -0.6600  0.2338
  836MOL0     C10272   0.612   1.237   8.466  0.6877 -0.1317 -0.3736
  836MOL0     C10273   0.590   1.145   8.373  0.2303 -0.2239 -0.1999
  836MOL0     C10274   0.684   0.919   8.001 -0.0044  0.1199  0.5522
  836MOL0     C10275   0.674   0.951   7.863 -0.1751 -0.6515  0.5826
  836MOL0     C10276   0.674   0.852   7.758 -0.6224  0.1873 -0.3799
  836MOL0     C10277   0.715   0.719   7.782  0.7989  0.1565  0.2863
  836MOL0     O10278   0.729   0.610   7.707  1.3688  0.3392  0.9658
  836MOL0     C10279   0.715   0.641   7.567 -0.2978 -0.7819 -0.3452
  836MOL0     C10280   0.750   0.503   7.501  0.5307  1.2424  0.3963
  836MOL0     C10281   0.672   0.374   7.560 -1.2317  0.1320 -0.0989
  836MOL0     C10282   0.669   0.256   7.467 -0.6658  0.3811  0.8816
  836MOL0     C10283   0.681   0.125   7.525 -0.5454  0.3469 -1.2059
  836MOL0     C10284   0.703   0.014   7.565 -0.1666  0.3091 -0.2078
  836MOL0     C10285   0.741   0.696   7.920  1.5153 -0.0618 -0.6774
  836MOL0     C10286   0.718   0.782   8.024 -0.6830 -0.5888 -0.6073
  836MOL0     H10287   0.898   1.009   8.377  0.1168  0.0769 -2.6963
  836MOL0     H10288   0.924   1.170   8.567 -1.0531  0.4585  2.0797
  836MOL0     H10289   0.865   1.223   8.785  0.1665 -1.1035  1.1070
  836MOL0     H10290   0.695   1.182   8.810 -2.1149  1.2373 -0.3394
  836MOL0     H10291   0.832   1.446   8.878 -0.8391 -0.1568  0.2920
  836MOL0     H10292   0.744   1.336   8.985 -2.0075 -1.5662 -0.7245
  836MOL0     H10293   0.527   1.419   8.854  1.5245 -2.0731 -2.5747
  836MOL0     H10294   0.633   1.542   8.774  0.0154  1.3748  0.8450
  836MOL0     H10295   0.596   1.500   9.063 -0.4826 -1.4129 -1.2130
  836MOL0     H10296   0.695   1.626   8.997 -0.2645 -0.7457  0.6931
  836MOL0     H10297   0.468   1.706   9.066  3.2796 -0.3755  0.7875
  836MOL0     H10298   0.397   1.624   8.917  1.7170 -2.9950 -1.1787
  836MOL0     H10299   0.619   1.768   8.829  1.8601  1.4405  1.6560
  836MOL0     H10300   0.554   1.877   8.952  1.3275  0.9340 -0.3117
  836MOL0     H10301   0.412   1.763   8.703 -1.5709  0.5131  0.3891
  836MOL0     H10302   0.321   1.848   8.832  0.3617 -2.1816  3.1892
  836MOL0     H10303   0.557   1.986   8.696  0.8252  1.3036  2.8897
  836MOL0     H10304   0.407   2.046   8.780  0.8675  0.7634 -0.6582
  836MOL0     H10305   0.201   1.875   8.613 -0.6268  0.9942 -0.1537
  836MOL0     H10306   0.136   1.845   8.324  0.3751 -1.5292  1.1904
  836MOL0     H10307   0.091   2.015   8.285  2.6630  1.2391  0.6475
  836MOL0     H10308   0.007   1.886   8.543 -0.5064  0.4159  0.2629
  836MOL0     H10309  -0.104   1.884   8.402 -1.4438  1.7710 -3.0880
  836MOL0     H10310  -0.077   2.124   8.382 -1.5315  1.6558  0.8749
  836MOL0     H10311  -0.178   2.066   8.506 -0.0893  1.3632  0.9329
  836MOL0     H10312  -0.047   2.242   8.617 -0.2526 -1.5651  3.3572
  836MOL0     H10313   0.107   2.196   8.542 -0.2367  3.4955  3.1590
  836MOL0     H10314   0.035   1.918   8.894  5.5302 -4.3816  1.0352
  836MOL0     H10315   0.167   1.946   9.095 -0.5406 -1.5813 -2.5541
  836MOL0     H10316   0.576   2.316   9.275  2.7330  2.9672  2.6381
  836MOL0     H10317   0.688   2.326   9.491  0.2966 -1.7485 -0.0729
  836MOL0     H10318   0.741   2.421   9.713 -0.8976  2.8062 -2.0849
  836MOL0     H10319   0.668   2.425   9.876 -1.1052  3.4316  0.1506
  836MOL0     H10320   0.506   2.601   9.787  0.2641  2.4725  0.1171
  836MOL0     H10321   0.588   2.588   9.630 -1.5526  1.3272  0.1400
  836MOL0     H10322   0.800   2.657   9.761 -1.5009 -0.9830 -0.7164
  836MOL0     H10323   0.691   2.694   9.900 -1.7555 -1.9651  0.2711
  836MOL0     H10324   0.667   2.829   9.628  0.6880  2.1459 -1.0324
  836MOL0     H10325   0.573   2.870   9.777  2.0435  3.1323  2.9330
  836MOL0     H10326   0.733   3.030   9.728 -2.6585 -0.1075  1.3121
  836MOL0     H10327   0.867   2.918   9.742 -0.7185 -2.1662 -1.4585
  836MOL0     H10328   0.779   2.871   9.986 -2.8199  0.2153  1.7992
  836MOL0     H10329   0.654   2.987   9.973 -0.5886 -2.1280  1.2599
  836MOL0     H10330   0.958   3.065   9.953 -0.1737 -0.9636 -5.2038
  836MOL0     H10331   0.810   3.171   9.957 -2.1084 -0.7024  3.1067
  836MOL0     H10332   0.901   3.013  10.188 -1.8339  0.6515  2.2247
  836MOL0     H10333   0.737   3.056  10.164  1.3851 -3.5238 -1.5878
  836MOL0     H10334   0.292   2.323   9.676 -1.2807  0.9656  0.8502
  836MOL0     H10335   0.196   2.301   9.449  0.0953 -1.3159 -2.7801
  836MOL0     H10336   0.262   2.359   8.972  1.3762 -1.4884  3.1440
  836MOL0     H10337   0.112   2.308   8.771 -0.1794 -1.3896 -2.8230
  836MOL0     H10338   0.541   1.312   8.501  1.8698  0.8240  0.0337
  836MOL0     H10339   0.489   1.121   8.341 -1.4318  0.9099  3.5821
  836MOL0     H10340   0.652   1.052   7.830  0.1774 -0.7103  0.1663
  836MOL0     H10341   0.642   0.883   7.659  0.4813 -0.8222 -1.0819
  836MOL0     H10342   0.794   0.710   7.536  0.8641 -2.0990 -0.4050
  836MOL0     H10343   0.617   0.680   7.540 -0.1841 -1.7010 -2.2515
  836MOL0     H10344   0.717   0.517   7.398 -0.6057  3.4209  0.9873
  836MOL0     H10345   0.858   0.487   7.509  0.9226  4.3259  3.8767
  836MOL0     H10346   0.567   0.405   7.566 -0.8799  1.7541 -1.6366
  836MOL0     H10347   0.708   0.350   7.661 -1.4906  2.5069  0.6216
  836MOL0     H10348   0.575   0.250   7.411 -1.7337 -1.0744  2.7085
  836MOL0     H10349   0.753   0.262   7.397 -1.4293 -1.6622 -0.3250
  836MOL0     H10350   0.733  -0.085   7.592 -1.9260 -0.1729  0.0860
  836MOL0     H10351   0.760   0.593   7.950 -2.1520 -0.3475  1.2986
  836MOL0     H10352   0.723   0.754   8.129 -0.4046  2.1868  0.1981
  837MOL0     O10353   3.547   5.581   5.010 -0.1740  0.9398  0.1078
  837MOL0     C10354   3.525   5.599   5.124 -0.6839 -0.5839 -0.4162
  837MOL0     O10355   3.552   5.713   5.196  0.2333 -0.4452 -0.0869
  837MOL0     C10356   3.593   5.829   5.145  0.1661 -0.6018  1.2679
  837MOL0     C10357   3.668   5.855   5.030 -0.1428 -0.3608  0.4672
  837MOL0     C10358   3.707   5.981   4.984  0.1689 -1.3137 -0.2564
  837MOL0     C10359   3.670   6.094   5.057 -0.0188 -0.3072 -0.7511
  837MOL0     O10360   3.713   6.210   5.002 -0.4928  0.2440  0.1321
  837MOL0     C10361   3.606   6.284   4.940 -0.4732  0.6031 -0.5357
  837MOL0     C10362   3.668   6.397   4.866  0.5769 -0.9643 -0.3712
  837MOL0     C10363   3.576   6.443   4.748 -0.2129  0.1374  0.3363
  837MOL0     C10364   3.444   6.510   4.789 -0.3094  0.3652  0.6492
  837MOL0     C10365   3.369   6.553   4.670 -0.2456  0.6060 -0.9802
  837MOL0     C10366   3.232   6.616   4.717 -0.0797 -0.3785 -0.5234
  837MOL0     C10367   3.162   6.696   4.608 -0.1962  0.1194 -0.9814
  837MOL0     C10368   3.019   6.746   4.632 -0.2427 -0.7630 -1.3681
  837MOL0     N10369   3.025   6.864   4.723 -0.4889  0.0687 -0.4808
  837MOL0     C10370   3.077   6.983   4.678 -0.2140  0.1683  0.4121
  837MOL0     C10371   3.076   7.056   4.790  0.6898  0.2539 -0.2733
  837MOL0     C10372   3.114   7.196   4.790  0.3105  0.0313 -0.0276
  837MOL0     C10373   3.008   7.298   4.822 -0.0888 -0.0276  0.5017
  837MOL0     C10374   3.059   7.436   4.772  0.2348  0.2411  0.0138
  837MOL0     C10375   2.953   7.544   4.816  0.5112 -0.2676 -0.2556
  837MOL0     O10376   2.842   7.532   4.718 -0.5029  0.5174 -0.4621
  837MOL0     C10377   2.744   7.624   4.738 -0.9307  0.6229  0.5362
  837MOL0     C10378   2.728   7.707   4.849  0.3879  0.5249 -0.0724
  837MOL0     C10379   2.631   7.800   4.857  0.4889 -0.4810  0.2246
  837MOL0     C10380   2.536   7.820   4.749 -0.2086  1.4301 -0.5112
  837MOL0     C10381   2.445   7.940   4.755  0.3719  0.3449  0.2451
  837MOL0     O10382   2.454   8.014   4.870  0.4312  0.0105 -1.5064
  837MOL0     C10383   2.362   8.113   4.876  0.8328 -0.6363 -0.0382
  837MOL0     C10384   2.239   8.083   4.939  0.0709 -0.5177 -1.0673
  837MOL0     C10385   2.139   8.183   4.948  0.5798 -1.0731 -0.3788
  837MOL0     C10386   2.167   8.310   4.890 -0.3540 -0.2316 -0.6301
  837MOL0     O10387   2.080   8.415   4.903 -0.0401  0.5716 -0.1549
  837MOL0     C10388   1.969   8.415   4.993 -0.1008  0.5791 -0.8634
  837MOL0     C10389   1.919   8.568   5.013 -0.1203  0.4677 -0.3293
  837MOL0     C10390   1.786   8.591   4.948 -0.0939  0.4290 -0.5299
  837MOL0     C10391   1.674   8.521   5.028  0.3283  0.2461 -0.3698
  837MOL0     C10392   1.561   8.463   4.936  1.2544  0.1750  0.2581
  837MOL0     C10393   1.507   8.582   4.847 -0.1165 -0.3185 -0.4512
  837MOL0     C10394   1.377   8.546   4.775  0.5437  0.4215  0.3928
  837MOL0     C10395   1.312   8.661   4.706  0.2221 -0.2559  0.0649
  837MOL0    Cl10396   1.143   8.623   4.668 -0.4821  0.5522  0.1921
  837MOL0     C10397   2.289   8.329   4.829  0.4606 -0.7558 -0.6741
  837MOL0     C10398   2.391   8.232   4.818 -0.9703 -0.2481 -0.1417
  837MOL0     O10399   2.363   7.957   4.664  0.2041 -0.4026  0.5540
  837MOL0     C10400   2.546   7.728   4.641  0.6728  0.3189  0.0837
  837MOL0     C10401   2.647   7.634   4.641  1.0325 -0.3710 -0.0332
  837MOL0     N10402   3.018   6.989   4.894 -0.8463  0.8368  0.1268
  837MOL0     N10403   2.989   6.872   4.847  0.3199 -0.6000  0.4553
  837MOL0     C10404   3.601   6.074   5.176 -0.2474 -0.4834  0.2259
  837MOL0     C10405   3.571   5.943   5.226  0.3883 -0.1004 -0.1995
  837MOL0     C10406   3.489   5.489   5.217  0.1597 -0.3314 -0.8056
  837MOL0     C10407   3.427   5.516   5.337 -0.3626  0.1584  0.0308
  837MOL0     C10408   3.398   5.413   5.421 -0.4874  0.1652  0.4489
  837MOL0     C10409   3.415   5.278   5.382  0.2105 -0.5812  0.1131
  837MOL0     O10410   3.386   5.193   5.483 -0.3395 -0.1729  0.3964
  837MOL0     C10411   3.430   5.052   5.486 -1.0214 -0.3760  0.5108
  837MOL0     C10412   3.327   4.960   5.423  0.0551 -0.3357 -0.3820
  837MOL0     C10413   3.391   4.840   5.360 -0.1865  0.7402  0.2079
  837MOL0     C10414   3.488   4.768   5.453  0.2197 -1.0260 -0.3953
  837MOL0     C10415   3.403   4.713   5.558  0.3914  0.2830  0.4261
  837MOL0     C10416   3.309   4.685   5.629  0.9409  0.5383 -0.0531
  837MOL0     C10417   3.469   5.250   5.253  0.2341 -0.0648 -0.6748
  837MOL0     C10418   3.506   5.358   5.173  0.2469  0.5279 -0.4487
  837MOL0     H10419   3.705   5.773   4.968 -1.6081  2.1377 -4.1679
  837MOL0     H10420   3.778   6.002   4.904 -1.2729  0.0024 -1.2391
  837MOL0     H10421   3.532   6.315   5.015 -2.0515 -4.0228  0.1268
  837MOL0     H10422   3.543   6.225   4.874 -2.8439  1.3171  0.9743
  837MOL0     H10423   3.768   6.375   4.828  2.4448  1.8754  2.3186
  837MOL0     H10424   3.677   6.484   4.932 -3.2198  0.1139 -1.0513
  837MOL0     H10425   3.556   6.366   4.673 -0.1897  1.3814 -0.9803
  837MOL0     H10426   3.636   6.523   4.703 -0.9784  1.2963  1.3236
  837MOL0     H10427   3.381   6.453   4.857 -3.7435  3.3174  0.2288
  837MOL0     H10428   3.469   6.601   4.844 -0.2302 -0.4266  1.9582
  837MOL0     H10429   3.345   6.470   4.603 -2.2916  0.4690 -0.1762
  837MOL0     H10430   3.432   6.627   4.619 -2.8065  1.3807 -3.2854
  837MOL0     H10431   3.238   6.683   4.803 -2.8144  2.7719 -2.5237
  837MOL0     H10432   3.175   6.528   4.748  1.7938  0.3750  6.8188
  837MOL0     H10433   3.225   6.781   4.580  3.3857 -2.7861 -2.5224
  837MOL0     H10434   3.161   6.640   4.514 -1.4205  0.8231 -1.4162
  837MOL0     H10435   2.954   6.666   4.668  0.5874 -1.1552 -0.7024
  837MOL0     H10436   2.983   6.776   4.533  0.3675 -3.5440 -2.5454
  837MOL0     H10437   3.111   7.008   4.578 -2.5581 -3.5554 -1.5853
  837MOL0     H10438   3.153   7.209   4.688 -1.5792  1.2085 -0.6409
  837MOL0     H10439   3.202   7.206   4.855 -0.6093 -2.1250  1.7022
  837MOL0     H10440   2.994   7.305   4.930  1.5219  1.1442  0.6817
  837MOL0     H10441   2.910   7.266   4.786 -0.6642 -0.1369  2.0923
  837MOL0     H10442   3.154   7.447   4.826  2.3603 -2.0946 -2.8937
  837MOL0     H10443   3.083   7.438   4.666  0.7439  1.2394  0.1375
  837MOL0     H10444   2.996   7.644   4.808  0.2244 -0.1937 -1.0101
  837MOL0     H10445   2.914   7.520   4.915 -0.9844 -1.6107 -1.1206
  837MOL0     H10446   2.801   7.694   4.928 -2.4880 -4.6735  2.2226
  837MOL0     H10447   2.640   7.878   4.932 -3.3533  2.7234 -2.2649
  837MOL0     H10448   2.221   7.989   4.991 -2.6401  1.8316  2.6609
  837MOL0     H10449   2.043   8.173   4.996 -0.7027  0.1713 -2.5406
  837MOL0     H10450   2.008   8.386   5.091  1.1827  3.4314 -0.4403
  837MOL0     H10451   1.893   8.340   4.969  2.0903 -1.5115 -1.6635
  837MOL0     H10452   1.981   8.639   4.957 -2.2117  1.2112 -1.8576
  837MOL0     H10453   1.922   8.591   5.120  3.3166  1.2923 -0.4630
  837MOL0     H10454   1.780   8.556   4.845  0.4068 -1.3059 -0.0060
  837MOL0     H10455   1.768   8.699   4.951  0.2097  0.4837  1.9937
  837MOL0     H10456   1.723   8.442   5.084  1.6715  1.4250  0.1811
  837MOL0     H10457   1.636   8.587   5.107  0.7223 -2.4742  2.2540
  837MOL0     H10458   1.483   8.417   4.998 -1.1922  1.7489 -1.4473
  837MOL0     H10459   1.597   8.381   4.873  0.7058  0.9634 -1.1342
  837MOL0     H10460   1.581   8.610   4.771  1.6393  0.1070  1.3373
  837MOL0     H10461   1.493   8.675   4.901  0.1606  0.0991 -1.0793
  837MOL0     H10462   1.407   8.464   4.708 -1.9397  0.9782 -1.5211
  837MOL0     H10463   1.301   8.510   4.844 -2.3177  1.4081 -2.0329
  837MOL0     H10464   1.360   8.676   4.609 -3.7278  3.5147 -1.6622
  837MOL0     H10465   1.325   8.751   4.766 -0.6996  0.6947 -1.1133
  837MOL0     H10466   2.294   8.434   4.801 -2.2724 -0.6946 -1.1602
  837MOL0     H10467   2.490   8.260   4.783 -0.0661  3.2805  4.2183
  837MOL0     H10468   2.469   7.725   4.564 -0.0336  0.3215  0.7816
  837MOL0     H10469   2.633   7.548   4.576  2.3783 -0.0790 -0.7551
  837MOL0     H10470   3.583   6.159   5.241  1.6662  1.9531 -2.1867
  837MOL0     H10471   3.545   5.927   5.330 -1.0383  1.0909 -0.3525
  837MOL0     H10472   3.414   5.615   5.379 -2.0465 -0.8410  2.0427
  837MOL0     H10473   3.360   5.427   5.522  1.3818 -1.6773  1.4983
  837MOL0     H10474   3.446   5.010   5.586  0.7378  0.9973  0.8447
  837MOL0     H10475   3.520   5.047   5.425 -1.7643 -2.2073 -0.5198
  837MOL0     H10476   3.245   4.942   5.493 -0.5973 -0.8097 -1.2471
  837MOL0     H10477   3.295   5.020   5.338 -1.1427 -1.8344 -1.0240
  837MOL0     H10478   3.432   4.880   5.267 -1.2918  3.7603  0.8914
  837MOL0     H10479   3.313   4.767   5.335 -0.6229  1.3701 -0.2921
  837MOL0     H10480   3.533   4.687   5.394 -0.9407 -3.9675  2.4698
  837MOL0     H10481   3.561   4.836   5.496 -0.0957 -0.5980 -0.5325
  837MOL0     H10482   3.213   4.675   5.673  0.2482  0.0081 -1.5978
  837MOL0     H10483   3.488   5.150   5.216 -1.6571 -1.2562  1.3957
  837MOL0     H10484   3.537   5.339   5.070  0.3794 -0.6329 -0.2074
  838MOL0     O10485  11.390   3.302   9.195  0.1176  0.3134  0.2781
  838MOL0     C10486  11.281   3.347   9.158 -0.0376 -0.2554  0.6552
  838MOL0     O10487  11.186   3.410   9.233 -0.5904  0.1668 -0.6534
  838MOL0     C10488  11.218   3.460   9.362 -0.1082 -0.3444 -0.2072
  838MOL0     C10489  11.346   3.484   9.420  0.0505 -0.4881  0.9800
  838MOL0     C10490  11.366   3.542   9.544 -0.6559  0.4864  0.2495
  838MOL0     C10491  11.260   3.576   9.625  0.1271 -0.4037  0.5095
  838MOL0     O10492  11.277   3.642   9.738  0.3364 -1.0052  0.6948
  838MOL0     C10493  11.220   3.570   9.854  0.2211  0.7448 -0.0375
  838MOL0     C10494  11.306   3.574   9.976 -1.1969 -0.1626 -0.6710
  838MOL0     C10495  11.260   3.491  10.087 -0.1586 -0.7688 -0.1538
  838MOL0     C10496  11.355   3.460  10.210 -0.6841  0.3445  0.9033
  838MOL0     C10497  11.281   3.403  10.338 -0.3081  0.3384 -0.6015
  838MOL0     C10498  11.175   3.299  10.296 -0.0129 -0.0860 -0.6639
  838MOL0     C10499  11.128   3.208  10.405  0.8032 -0.3805 -0.9768
  838MOL0     C10500  11.058   3.276  10.527 -0.3232  0.0105  0.3537
  838MOL0     N10501  10.961   3.380  10.492  0.4566 -0.5165 -0.0962
  838MOL0     C10502  10.833   3.346  10.474 -0.9943 -0.7143  1.0807
  838MOL0     C10503  10.787   3.468  10.418  0.6487  0.4517  0.0674
  838MOL0     C10504  10.638   3.491  10.381  0.9554  0.2001 -0.9269
  838MOL0     C10505  10.588   3.376  10.290  0.9222 -0.5869 -0.4205
  838MOL0     C10506  10.441   3.411  10.243 -1.4045 -0.3577  0.4372
  838MOL0     C10507  10.388   3.283  10.170  0.8115 -0.3040  0.3548
  838MOL0     O10508  10.399   3.280  10.026 -0.2408  0.3738  0.3880
  838MOL0     C10509  10.354   3.172   9.963 -0.1197 -0.5138  0.3983
  838MOL0     C10510  10.415   3.055   9.948  0.5393 -0.0069  0.7673
  838MOL0     C10511  10.362   2.946   9.872 -0.7036 -0.7689  0.2290
  838MOL0     C10512  10.239   2.963   9.796 -0.7942  0.2380  0.1767
  838MOL0     C10513  10.209   2.866   9.695 -0.8520 -0.1447  0.2404
  838MOL0     O10514  10.290   2.762   9.683 -0.4562  0.6477  0.3356
  838MOL0     C10515  10.301   2.720   9.555  0.6439  0.4088 -0.3176
  838MOL0     C10516  10.217   2.642   9.484  0.5857  0.2842 -1.1256
  838MOL0     C10517  10.235   2.608   9.347  1.4648  0.0407 -0.2346
  838MOL0     C10518  10.345   2.653   9.281 -0.0824  0.2345  0.4090
  838MOL0     O10519  10.359   2.596   9.155  0.6234  0.4558 -0.6507
  838MOL0     C10520  10.472   2.631   9.067  0.6144  0.0844 -0.0812
  838MOL0     C10521  10.535   2.505   8.992  0.6456 -0.0056 -0.7549
  838MOL0     C10522  10.423   2.431   8.920  0.1509 -0.3924  0.0704
  838MOL0     C10523  10.480   2.327   8.825 -0.7228 -0.2935  0.3507
  838MOL0     C10524  10.379   2.251   8.741 -0.0700  1.0922 -0.1402
  838MOL0     C10525  10.274   2.180   8.833  0.0939  1.7041 -0.3505
  838MOL0     C10526  10.178   2.118   8.739 -0.2959 -1.2229 -0.4734
  838MOL0     C10527  10.065   2.052   8.810 -0.2473  0.0293 -0.7242
  838MOL0    Cl10528  10.144   1.891   8.851  0.2251  0.3168 -0.2261
  838MOL0     C10529  10.439   2.737   9.350 -0.4482 -0.0429 -1.1024
  838MOL0     C10530  10.416   2.766   9.481  0.6134 -0.2375 -1.0300
  838MOL0     O10531  10.119   2.896   9.613  0.7693  0.3848 -0.3820
  838MOL0     C10532  10.175   3.090   9.812  0.2894  0.2796 -0.3478
  838MOL0     C10533  10.234   3.186   9.895  0.1614 -0.2797  0.2745
  838MOL0     N10534  10.883   3.565  10.422 -0.4999 -0.3878 -0.4369
  838MOL0     N10535  10.990   3.506  10.473  0.2533 -1.1356  0.0696
  838MOL0     C10536  11.126   3.554   9.571  0.4099 -0.3551 -0.1541
  838MOL0     C10537  11.108   3.494   9.449  0.1271  0.7956  0.2342
  838MOL0     C10538  11.235   3.299   9.027 -0.2032  0.7793  0.3119
  838MOL0     C10539  11.332   3.254   8.930 -0.5438  0.9611  0.8810
  838MOL0     C10540  11.294   3.221   8.802 -0.8116  1.0959  0.6903
  838MOL0     C10541  11.157   3.206   8.770  0.0200  0.5022 -0.5232
  838MOL0     O10542  11.114   3.157   8.655  0.1865  0.5837 -0.1198
  838MOL0     C10543  11.130   3.018   8.632 -0.5884  0.0325  0.3301
  838MOL0     C10544  11.070   2.995   8.491 -0.3364  0.8481 -0.1239
  838MOL0     C10545  11.148   2.870   8.451 -0.2447  0.6140  0.0154
  838MOL0     C10546  11.068   2.761   8.386 -0.3394  0.9830 -0.1759
  838MOL0     C10547  11.144   2.636   8.387 -0.4747  0.1608  0.2210
  838MOL0     C10548  11.222   2.541   8.399 -0.3589  0.1056 -0.2272
  838MOL0     C10549  11.064   3.241   8.870 -0.2382 -0.0633  0.9816
  838MOL0     C10550  11.099   3.293   8.997 -0.5744  0.2548 -0.2353
  838MOL0     H10551  11.432   3.452   9.362 -2.0932 -3.0795 -1.0302
  838MOL0     H10552  11.466   3.562   9.581  0.3779 -3.7744  0.2877
  838MOL0     H10553  11.199   3.467   9.823  0.3079  0.5129  0.6507
  838MOL0     H10554  11.123   3.615   9.879  0.0677  0.7879 -0.6830
  838MOL0     H10555  11.297   3.674  10.019 -2.0979 -0.8249  0.7357
  838MOL0     H10556  11.412   3.564   9.951 -1.2963  0.4791 -1.3949
  838MOL0     H10557  11.229   3.395  10.045  1.0590 -0.5834 -1.5647
  838MOL0     H10558  11.166   3.538  10.117 -1.1978 -2.5186 -0.5488
  838MOL0     H10559  11.440   3.401  10.173 -0.9222 -0.5848  1.7933
  838MOL0     H10560  11.399   3.557  10.232  1.3864 -0.5963  1.1337
  838MOL0     H10561  11.238   3.487  10.395  3.0218  0.5731  1.8640
  838MOL0     H10562  11.351   3.361  10.410  0.0675  1.2269 -0.4310
  838MOL0     H10563  11.215   3.236  10.216  1.4628 -1.4284  1.0524
  838MOL0     H10564  11.083   3.348  10.262 -2.3652 -1.9769  2.3943
  838MOL0     H10565  11.048   3.139  10.375 -1.1549  0.7427  1.3089
  838MOL0     H10566  11.217   3.152  10.437  0.5138 -0.4678 -0.3048
  838MOL0     H10567  11.134   3.324  10.589  0.9806  1.3506 -2.1363
  838MOL0     H10568  11.010   3.198  10.588 -4.0670 -0.0082 -2.2873
  838MOL0     H10569  10.770   3.261  10.497 -0.6550 -0.4771  3.0056
  838MOL0     H10570  10.621   3.592  10.340  0.5307  0.8015  0.6538
  838MOL0     H10571  10.587   3.496  10.478 -1.5425 -1.8743 -2.0200
  838MOL0     H10572  10.590   3.281  10.344  1.9060 -1.0195 -1.1805
  838MOL0     H10573  10.647   3.382  10.198  1.3212 -1.5152 -0.2367
  838MOL0     H10574  10.385   3.439  10.333 -0.4466  2.5955  0.1987
  838MOL0     H10575  10.448   3.503  10.185  3.3868 -0.2490  0.8266
  838MOL0     H10576  10.285   3.265  10.202  0.3792  1.5100  0.0704
  838MOL0     H10577  10.439   3.191  10.201  0.1775 -1.0793 -0.7898
  838MOL0     H10578  10.517   3.048   9.986  0.9572 -2.0858 -0.5799
  838MOL0     H10579  10.422   2.856   9.865 -2.8493 -2.3353  0.8396
  838MOL0     H10580  10.125   2.603   9.526 -0.1595  0.6879 -2.3335
  838MOL0     H10581  10.155   2.557   9.295  0.8181  0.6647  0.1252
  838MOL0     H10582  10.559   2.679   9.112  2.1318  0.1497 -2.8372
  838MOL0     H10583  10.424   2.691   8.990  1.7855  0.2537 -0.7020
  838MOL0     H10584  10.592   2.437   9.056  0.6177 -0.5845 -1.3339
  838MOL0     H10585  10.608   2.535   8.916  1.9508 -0.8250  0.1181
  838MOL0     H10586  10.369   2.498   8.852  2.3593  0.9470 -0.4756
  838MOL0     H10587  10.358   2.385   8.995  0.8825  0.6887  1.3962
  838MOL0     H10588  10.536   2.378   8.747 -3.6026  3.4841  0.4459
  838MOL0     H10589  10.546   2.262   8.884 -1.4009 -0.7358  0.6435
  838MOL0     H10590  10.435   2.181   8.680 -1.0839 -0.3584  0.5227
  838MOL0     H10591  10.325   2.326   8.682  0.5176  2.9832  1.6033
  838MOL0     H10592  10.228   2.247   8.906  1.4062  0.6972  1.4748
  838MOL0     H10593  10.316   2.098   8.893 -3.6967 -2.6891 -2.9650
  838MOL0     H10594  10.139   2.190   8.667  0.0410 -1.6794 -1.1202
  838MOL0     H10595  10.237   2.044   8.686 -0.3535 -1.6493  0.0423
  838MOL0     H10596   9.973   2.033   8.753 -1.8778  1.4070  1.3196
  838MOL0     H10597  10.037   2.104   8.902 -0.2043 -0.8321 -0.2099
  838MOL0     H10598  10.533   2.771   9.308  0.0309  1.9046  1.2530
  838MOL0     H10599  10.485   2.837   9.527  0.4070 -2.4068  3.0739
  838MOL0     H10600  10.094   3.105   9.742  0.4327  0.4791 -0.4708
  838MOL0     H10601  10.189   3.284   9.894  0.7413 -0.0054 -0.9224
  838MOL0     H10602  11.029   3.574   9.616 -2.0809 -1.5139 -4.4190
  838MOL0     H10603  11.002   3.489   9.428 -0.3559  0.6726  2.4916
  838MOL0     H10604  11.437   3.258   8.955 -0.4061 -0.0925  0.5137
  838MOL0     H10605  11.368   3.175   8.738 -1.9687 -0.3156  0.3303
  838MOL0     H10606  11.068   2.952   8.693 -3.2272  0.4802 -1.6482
  838MOL0     H10607  11.234   2.986   8.632  0.4149  2.7986 -1.7395
  838MOL0     H10608  10.965   2.968   8.492  0.6161 -3.8547  2.7895
  838MOL0     H10609  11.089   3.083   8.429  1.2335 -1.1422 -2.7146
  838MOL0     H10610  11.195   2.821   8.537  3.2943 -0.4532 -2.2876
  838MOL0     H10611  11.217   2.905   8.374 -1.3525 -0.3974 -1.4886
  838MOL0     H10612  10.977   2.741   8.443 -1.7443  1.9221 -1.9690
  838MOL0     H10613  11.029   2.766   8.283 -3.7598 -1.6252  0.7960
  838MOL0     H10614  11.298   2.465   8.402  0.8728  1.3361  1.6505
  838MOL0     H10615  10.961   3.219   8.844 -0.2743  1.2300 -0.0542
  838MOL0     H10616  11.014   3.314   9.062 -0.6039 -1.2807  0.2669
  839MOL0     O10617   1.157  10.372   9.111 -0.2383 -0.2810  0.2832
  839MOL0     C10618   1.229  10.285   9.162  1.0592  0.0849 -0.3590
  839MOL0     O10619   1.190  10.196   9.254  0.5150  0.4817 -0.0065
  839MOL0     C10620   1.063  10.190   9.309 -0.0290  0.8477  0.4941
  839MOL0     C10621   1.056  10.083   9.401  0.5366  0.6875 -1.1774
  839MOL0     C10622   0.944  10.062   9.485  0.3792 -0.4459  0.4840
  839MOL0     C10623   0.843  10.160   9.494  0.3934 -0.5608  0.8471
  839MOL0     O10624   0.741  10.154   9.586  0.2070 -0.0365 -0.0135
  839MOL0     C10625   0.609  10.191   9.539 -0.1073 -0.2675 -0.0625
  839MOL0     C10626   0.576  10.328   9.591  0.1142  0.0798 -1.1296
  839MOL0     C10627   0.431  10.373   9.563  0.1136  0.2703  0.5569
  839MOL0     C10628   0.377  10.499   9.647  0.0757 -0.1805 -0.5873
  839MOL0     C10629   0.226  10.533   9.611 -0.6340  0.4276 -0.3918
  839MOL0     C10630   0.169  10.635   9.704  0.5420 -0.2382  0.1214
  839MOL0     C10631   0.233  10.771   9.694  0.2111 -0.5395 -0.3637
  839MOL0     C10632   0.274  10.824   9.562  0.4475 -1.1052  0.2258
  839MOL0     N10633   0.290  10.977   9.573  0.1807  0.8684 -0.4329
  839MOL0     C10634   0.409  11.054   9.585 -0.5432 -0.4089 -0.9553
  839MOL0     C10635   0.356  11.179   9.605  0.2073 -0.8214 -0.2555
  839MOL0     C10636   0.446  11.288   9.631  0.2863 -0.2575  0.7791
  839MOL0     C10637   0.396  11.411   9.553  0.1527 -0.0421 -0.7726
  839MOL0     C10638   0.437  11.420   9.412  0.2693 -0.8242  1.0045
  839MOL0     C10639   0.343  11.508   9.329 -1.4012  0.6885 -0.5739
  839MOL0     O10640   0.392  11.497   9.194 -0.1575  1.3954 -0.5781
  839MOL0     C10641   0.495  11.586   9.169 -0.3642  0.5086 -0.1448
  839MOL0     C10642   0.632  11.558   9.209 -1.2015  0.6586 -1.0309
  839MOL0     C10643   0.743  11.643   9.189  0.0240 -0.3000 -0.6365
  839MOL0     C10644   0.713  11.770   9.133 -0.8751 -0.9415 -0.0204
  839MOL0     C10645   0.831  11.858   9.113  0.5364 -0.0742 -0.2260
  839MOL0     O10646   0.933  11.823   9.194 -0.5977  0.3742  0.8326
  839MOL0     C10647   1.050  11.895   9.222 -0.2202  1.0909 -0.0033
  839MOL0     C10648   1.087  11.999   9.135  0.5051  0.6871 -0.4260
  839MOL0     C10649   1.200  12.070   9.160 -1.1167 -0.3736 -0.5386
  839MOL0     C10650   1.285  12.040   9.274  0.2401 -0.0133  0.2077
  839MOL0     O10651   1.390  12.118   9.304  0.1428 -0.8773 -0.3533
  839MOL0     C10652   1.407  12.154   9.442 -0.0242 -0.0302 -0.1512
  839MOL0     C10653   1.521  12.261   9.451 -0.7392  0.0137  0.2677
  839MOL0     C10654   1.508  12.356   9.569 -0.0129  0.5499  0.8955
  839MOL0     C10655   1.470  12.276   9.698  0.4894 -0.1407  0.1633
  839MOL0     C10656   1.472  12.376   9.813 -0.2870  1.0720 -0.1308
  839MOL0     C10657   1.394  12.334   9.940 -0.4534 -0.5168 -0.7564
  839MOL0     C10658   1.414  12.190   9.989  0.2306 -0.2508  0.0257
  839MOL0     C10659   1.279  12.117   9.969 -0.2589 -0.5663  0.4012
  839MOL0    Cl10660   1.276  11.946  10.022 -0.2634 -0.1388 -0.3996
  839MOL0     C10661   1.251  11.929   9.354 -0.0734  0.5237  0.1748
  839MOL0     C10662   1.134  11.851   9.326  0.0273 -0.7228  0.4776
  839MOL0     O10663   0.817  11.964   9.048  0.0167 -0.3901  0.5271
  839MOL0     C10664   0.582  11.806   9.090  0.0574  0.0773  0.1953
  839MOL0     C10665   0.480  11.715   9.114  0.0270  0.1857 -0.6918
  839MOL0     N10666   0.219  11.180   9.596  1.2923 -0.0645  0.0932
  839MOL0     N10667   0.177  11.061   9.574 -0.5161  0.3880  0.3757
  839MOL0     C10668   0.848  10.269   9.399 -1.2965 -0.1558 -0.0742
  839MOL0     C10669   0.952  10.283   9.303 -0.4798 -0.4690 -0.0891
  839MOL0     C10670   1.372  10.296   9.128 -0.2590 -0.5866 -0.7657
  839MOL0     C10671   1.428  10.389   9.041 -0.4522  0.1513 -0.3190
  839MOL0     C10672   1.567  10.388   9.019 -0.6117 -0.5346  0.3443
  839MOL0     C10673   1.659  10.308   9.093  0.1917 -0.4949  0.9971
  839MOL0     O10674   1.794  10.309   9.066 -0.1185  0.8358 -0.1490
  839MOL0     C10675   1.846  10.299   8.930 -0.0282 -0.2825 -0.6816
  839MOL0     C10676   1.962  10.192   8.929  0.4367 -0.0911  0.0358
  839MOL0     C10677   1.915  10.052   8.966  0.1911 -0.5426 -0.3140
  839MOL0     C10678   2.037   9.957   8.934 -0.0801 -0.3707 -0.2304
  839MOL0     C10679   2.144   9.952   9.036  0.9111 -1.0517  1.1183
  839MOL0     C10680   2.236   9.943   9.114 -0.1462  0.0224  0.8813
  839MOL0     C10681   1.601  10.220   9.186 -0.6618  0.7696 -0.3402
  839MOL0     C10682   1.470  10.216   9.204 -0.4237  0.5384 -0.2010
  839MOL0     H10683   1.132  10.006   9.390  3.5106  3.5945 -2.5789
  839MOL0     H10684   0.956   9.977   9.552 -0.3609  1.6752  3.5059
  839MOL0     H10685   0.533  10.119   9.570 -1.7086  0.3509 -2.2458
  839MOL0     H10686   0.606  10.187   9.429 -0.7696  1.1946 -0.1115
  839MOL0     H10687   0.649  10.406   9.566  1.4730 -0.9229 -0.4532
  839MOL0     H10688   0.587  10.301   9.697  2.5107 -3.3523 -2.0858
  839MOL0     H10689   0.376  10.279   9.566  1.2960 -0.4464  0.3276
  839MOL0     H10690   0.421  10.415   9.463 -1.1721  1.6186  1.2102
  839MOL0     H10691   0.376  10.481   9.755  2.4282 -0.6902 -0.5855
  839MOL0     H10692   0.450  10.581   9.644  1.5577 -1.4674 -2.6706
  839MOL0     H10693   0.174  10.437   9.615  2.7108 -1.5823 -0.7889
  839MOL0     H10694   0.218  10.562   9.506 -0.6010 -2.3268 -1.2280
  839MOL0     H10695   0.182  10.606   9.809  1.1482 -0.3124  0.0303
  839MOL0     H10696   0.060  10.630   9.697  0.4549 -1.3596  1.8987
  839MOL0     H10697   0.151  10.830   9.737 -0.0156 -0.9351 -0.2537
  839MOL0     H10698   0.322  10.771   9.757 -0.4820 -0.7854  0.6319
  839MOL0     H10699   0.200  10.793   9.487  3.2957 -0.9005 -2.9078
  839MOL0     H10700   0.366  10.774   9.531  0.1143  0.6573 -4.4217
  839MOL0     H10701   0.510  11.014   9.583 -0.6046 -0.6240  0.0432
  839MOL0     H10702   0.552  11.275   9.608  0.6695  1.6141  1.2607
  839MOL0     H10703   0.441  11.318   9.736 -3.4987  0.9768  0.3861
  839MOL0     H10704   0.440  11.498   9.603  1.9298  0.0775 -2.4173
  839MOL0     H10705   0.287  11.410   9.553  0.1404  0.8645 -0.6778
  839MOL0     H10706   0.542  11.453   9.409  0.3211 -1.0387  0.2850
  839MOL0     H10707   0.427  11.324   9.362  0.9010 -0.5993  0.4232
  839MOL0     H10708   0.350  11.611   9.366  2.8526  0.8228 -1.2154
  839MOL0     H10709   0.242  11.469   9.339 -1.3026  0.1965 -1.4805
  839MOL0     H10710   0.670  11.471   9.262  0.4545  2.2804  0.6084
  839MOL0     H10711   0.838  11.605   9.225 -1.7590 -2.3902  2.3367
  839MOL0     H10712   1.023  12.030   9.053 -0.3521 -1.0875 -0.4901
  839MOL0     H10713   1.221  12.161   9.103 -1.1340  1.7561  2.6041
  839MOL0     H10714   1.430  12.072   9.510 -0.1855 -0.7488 -0.9583
  839MOL0     H10715   1.310  12.202   9.457 -0.0878  0.7164 -2.5661
  839MOL0     H10716   1.528  12.331   9.367 -3.3449  0.6196  0.4510
  839MOL0     H10717   1.613  12.202   9.454  0.9597  2.4211 -0.9831
  839MOL0     H10718   1.429  12.423   9.535  1.2578  2.6910  1.9408
  839MOL0     H10719   1.599  12.417   9.570  1.6114 -1.7417  0.2983
  839MOL0     H10720   1.368  12.239   9.683  1.4151 -2.3367 -1.0839
  839MOL0     H10721   1.550  12.204   9.715  0.9099  0.8796  2.9774
  839MOL0     H10722   1.430  12.473   9.786  1.1844  1.8930  0.4070
  839MOL0     H10723   1.573  12.394   9.851 -0.7466  1.0587  1.1443
  839MOL0     H10724   1.289  12.361   9.929 -0.3520  0.5804  0.6637
  839MOL0     H10725   1.426  12.400  10.021  0.3414 -1.9294  0.1178
  839MOL0     H10726   1.501  12.147   9.939  0.8432 -2.7086  2.9332
  839MOL0     H10727   1.442  12.185  10.094  2.3898 -1.9862 -0.5511
  839MOL0     H10728   1.262  12.118   9.861 -0.7524  0.7244  0.4744
  839MOL0     H10729   1.196  12.165  10.021 -0.7960 -2.6832  1.6094
  839MOL0     H10730   1.327  11.881   9.415  0.4116  2.8015  1.4766
  839MOL0     H10731   1.104  11.762   9.381 -0.3120 -1.4506 -0.8286
  839MOL0     H10732   0.559  11.900   9.041 -2.5036 -0.1556  0.8161
  839MOL0     H10733   0.377  11.738   9.089 -0.5643 -3.6397 -2.4407
  839MOL0     H10734   0.777  10.347   9.374 -1.2961 -0.9583 -3.0250
  839MOL0     H10735   0.954  10.364   9.230  0.9152  0.2092  0.6645
  839MOL0     H10736   1.360  10.449   8.983 -0.4223  1.9654  1.4110
  839MOL0     H10737   1.601  10.451   8.938 -1.7496 -0.3646 -0.0202
  839MOL0     H10738   1.891  10.397   8.915  0.5373 -0.6824 -1.7049
  839MOL0     H10739   1.760  10.281   8.865 -2.1628  0.1210  1.8628
  839MOL0     H10740   1.994  10.192   8.825  0.0338 -2.9965 -0.1713
  839MOL0     H10741   2.051  10.211   8.990  0.4642 -0.8168  0.2303
  839MOL0     H10742   1.820  10.023   8.923 -0.7507 -0.1726  1.4189
  839MOL0     H10743   1.906  10.057   9.075  1.8208  1.1278 -0.2000
  839MOL0     H10744   1.995   9.856   8.925  1.4924 -1.4798  3.1526
  839MOL0     H10745   2.075   9.989   8.837  0.4520 -0.5684 -0.0969
  839MOL0     H10746   2.326   9.907   9.158  2.7044  2.3399 -2.5447
  839MOL0     H10747   1.676  10.163   9.240  0.2342  0.8601 -1.4380
  839MOL0     H10748   1.428  10.161   9.288 -1.0695  2.8725  1.1176
  840MOL0     O10749   7.284   7.131   5.516  0.7873 -0.1357 -0.1030
  840MOL0     C10750   7.178   7.196   5.505 -0.6550 -0.0796 -0.0740
  840MOL0     O10751   7.047   7.148   5.521 -0.5512 -0.0892 -0.2717
  840MOL0     C10752   7.040   7.030   5.585  0.1530  0.0142  0.2360
  840MOL0     C10753   7.075   7.008   5.718 -0.2944  0.3034 -0.1237
  840MOL0     C10754   7.091   6.875   5.769  0.3048 -0.4451  0.6698
  840MOL0     C10755   7.047   6.770   5.688 -0.3756  0.1077  0.8350
  840MOL0     O10756   7.046   6.642   5.736  0.1664  0.9153  0.9396
  840MOL0     C10757   7.120   6.601   5.842  0.2641  0.4176  0.1845
  840MOL0     C10758   7.028   6.565   5.961 -0.6160 -0.1505  0.7305
  840MOL0     C10759   7.107   6.502   6.075 -0.3570  0.4142  0.0119
  840MOL0     C10760   7.217   6.592   6.141  1.1155 -0.3546 -0.0500
  840MOL0     C10761   7.262   6.574   6.289  0.6906  0.2427  0.0885
  840MOL0     C10762   7.141   6.597   6.396  0.1486 -0.2772  0.5770
  840MOL0     C10763   7.204   6.591   6.535 -0.8456  0.5527 -0.7431
  840MOL0     C10764   7.110   6.643   6.639  0.2736  0.3121  0.2583
  840MOL0     N10765   7.150   6.617   6.782  0.0184  0.8326 -1.4044
  840MOL0     C10766   7.241   6.691   6.838  0.4609  0.3107 -0.8798
  840MOL0     C10767   7.235   6.653   6.965  0.4045 -0.1485 -1.3512
  840MOL0     C10768   7.322   6.713   7.071  0.0083 -0.3638 -0.0502
  840MOL0     C10769   7.455   6.631   7.103  0.2370 -0.0207  0.4814
  840MOL0     C10770   7.551   6.624   6.979  0.0577 -1.2456 -1.1586
  840MOL0     C10771   7.666   6.531   7.030 -0.2366  0.0257 -0.5398
  840MOL0     O10772   7.784   6.559   6.960  0.0028  0.4517  0.2409
  840MOL0     C10773   7.852   6.669   6.998 -0.4442  0.6601  0.2397
  840MOL0     C10774   7.833   6.739   7.116 -0.1758  0.3660  0.0139
  840MOL0     C10775   7.923   6.840   7.149 -0.5505 -0.3190  1.5156
  840MOL0     C10776   8.017   6.886   7.054 -0.4574 -1.0127 -0.0953
  840MOL0     C10777   8.107   6.991   7.085 -0.4351  0.3567  0.2368
  840MOL0     O10778   8.169   7.055   6.982  0.4507  0.5436  0.1589
  840MOL0     C10779   8.294   7.116   7.011  0.2113 -0.8143 -0.0799
  840MOL0     C10780   8.322   7.227   6.939 -0.7060 -0.4078  0.1243
  840MOL0     C10781   8.452   7.290   6.938 -0.6663 -0.5657  0.0785
  840MOL0     C10782   8.546   7.245   7.031 -0.2549  0.4440  0.2473
  840MOL0     O10783   8.673   7.295   7.023 -0.5009 -0.3259 -0.3129
  840MOL0     C10784   8.759   7.222   6.930 -0.5957  0.2823  1.3260
  840MOL0     C10785   8.906   7.244   6.961 -0.3025 -0.2855 -0.3130
  840MOL0     C10786   8.997   7.181   6.851 -0.4484  0.1372  0.7638
  840MOL0     C10787   9.131   7.253   6.839  0.5302 -0.0319 -0.4176
  840MOL0     C10788   9.210   7.232   6.972  0.7997  0.6520  0.3768
  840MOL0     C10789   9.356   7.258   6.942  0.4321  0.0756  0.0713
  840MOL0     C10790   9.451   7.213   7.051  0.1613  0.1722 -0.5195
  840MOL0     C10791   9.594   7.258   7.041 -0.0213  0.5995 -0.5212
  840MOL0    Cl10792   9.682   7.208   7.189  0.2346  0.1528 -0.0253
  840MOL0     C10793   8.516   7.137   7.124  0.8790  0.9461  0.4467
  840MOL0     C10794   8.391   7.078   7.103  0.0037 -0.0575 -1.6514
  840MOL0     O10795   8.109   7.030   7.199 -0.7392  1.2572 -1.2360
  840MOL0     C10796   8.034   6.814   6.938 -0.5085  0.4837 -0.1266
  840MOL0     C10797   7.952   6.705   6.908  0.3836 -0.0732 -0.8052
  840MOL0     N10798   7.149   6.552   6.991 -0.1602 -0.0686  0.1178
  840MOL0     N10799   7.091   6.529   6.879 -0.0338  0.4722 -0.4584
  840MOL0     C10800   7.009   6.792   5.549 -0.3937 -0.6600 -0.0635
  840MOL0     C10801   7.010   6.919   5.499  0.5654  0.5445  0.4399
  840MOL0     C10802   7.190   7.346   5.486  0.0919  0.9476 -1.0054
  840MOL0     C10803   7.319   7.409   5.490 -0.2076 -0.0900  0.2037
  840MOL0     C10804   7.329   7.548   5.466  0.0346 -0.3188  0.0108
  840MOL0     C10805   7.216   7.629   5.443  0.7650  0.1079  0.3666
  840MOL0     O10806   7.213   7.768   5.443 -0.3988 -0.8347 -0.4347
  840MOL0     C10807   7.335   7.832   5.466  0.6436 -0.0177 -0.6256
  840MOL0     C10808   7.301   7.979   5.478  0.1744  0.0362  0.8609
  840MOL0     C10809   7.409   8.085   5.482 -0.3085 -0.9453  0.1641
  840MOL0     C10810   7.519   8.058   5.587 -0.9139 -0.7284 -0.4498
  840MOL0     C10811   7.609   7.946   5.572 -1.1937  0.4725 -0.2825
  840MOL0     C10812   7.653   7.835   5.552  0.7486 -0.1127 -0.3322
  840MOL0     C10813   7.091   7.558   5.437 -0.5155 -0.0599  0.6053
  840MOL0     C10814   7.079   7.418   5.459 -0.2502 -0.1843  0.5382
  840MOL0     H10815   7.097   7.093   5.781 -1.4989  1.0457 -0.6680
  840MOL0     H10816   7.124   6.855   5.870  0.6534  0.7625  0.8049
  840MOL0     H10817   7.195   6.663   5.891  0.6603  0.0898 -0.0068
  840MOL0     H10818   7.179   6.519   5.802  1.0818  0.4256  1.3372
  840MOL0     H10819   6.953   6.494   5.924 -2.4878  1.1914  1.7890
  840MOL0     H10820   6.972   6.647   6.006  1.6750  1.1197  1.4006
  840MOL0     H10821   7.152   6.413   6.029 -2.5374  1.1533 -4.0062
  840MOL0     H10822   7.036   6.477   6.154 -1.9755  0.9210 -1.2185
  840MOL0     H10823   7.308   6.592   6.080  0.4936  1.9568 -1.0713
  840MOL0     H10824   7.173   6.690   6.123 -0.4689 -1.2236 -1.2939
  840MOL0     H10825   7.328   6.659   6.307  1.1580  0.0339 -0.6109
  840MOL0     H10826   7.320   6.482   6.304 -2.0245 -1.7011 -0.4944
  840MOL0     H10827   7.055   6.530   6.401 -1.2421  1.5090  4.1298
  840MOL0     H10828   7.095   6.692   6.370 -0.5382 -0.9276 -0.6976
  840MOL0     H10829   7.241   6.490   6.553 -0.4485  0.4807 -1.8687
  840MOL0     H10830   7.285   6.663   6.545  0.2281 -0.6649 -0.4604
  840MOL0     H10831   7.014   6.592   6.627 -1.1433  2.3389  2.2314
  840MOL0     H10832   7.101   6.751   6.624  0.3194  0.0550 -1.9775
  840MOL0     H10833   7.294   6.774   6.791 -0.8359  1.4780 -0.3469
  840MOL0     H10834   7.261   6.721   7.162 -3.3008  3.6536 -2.3317
  840MOL0     H10835   7.342   6.817   7.045 -0.8202  0.2745  1.6994
  840MOL0     H10836   7.434   6.531   7.141  3.6301 -0.4361  1.5733
  840MOL0     H10837   7.506   6.691   7.179  1.2303  1.3757 -1.2048
  840MOL0     H10838   7.503   6.576   6.893  0.7752 -2.9280 -0.6469
  840MOL0     H10839   7.589   6.723   6.952  0.6977 -0.9619  0.6606
  840MOL0     H10840   7.638   6.427   7.010  2.4941 -1.0438  0.6591
  840MOL0     H10841   7.683   6.544   7.137  2.5561  2.7927 -1.1497
  840MOL0     H10842   7.767   6.707   7.195 -0.5312  0.0609 -0.3998
  840MOL0     H10843   7.928   6.893   7.244  1.1317  1.6406  0.4278
  840MOL0     H10844   8.247   7.265   6.871 -1.1004 -3.2080 -1.1146
  840MOL0     H10845   8.484   7.359   6.860  2.8337 -0.8793  1.0333
  840MOL0     H10846   8.747   7.266   6.830  2.1887  1.2228  1.3294
  840MOL0     H10847   8.743   7.113   6.931 -0.5322  0.2629  0.6393
  840MOL0     H10848   8.940   7.202   7.056  1.4382  3.1358  0.7509
  840MOL0     H10849   8.925   7.352   6.966 -4.0879  0.4701  0.8159
  840MOL0     H10850   8.957   7.182   6.749  0.6391  0.3045  0.3235
  840MOL0     H10851   9.016   7.074   6.864  1.8834  0.4984  0.7514
  840MOL0     H10852   9.181   7.211   6.751  1.4896 -0.3928  0.2767
  840MOL0     H10853   9.121   7.360   6.818 -0.3239 -0.1833 -0.8026
  840MOL0     H10854   9.191   7.130   7.008  1.5410  0.9518  1.6768
  840MOL0     H10855   9.172   7.298   7.050 -2.1543  1.7657 -1.7945
  840MOL0     H10856   9.362   7.366   6.923  1.0273  0.2181  1.0403
  840MOL0     H10857   9.379   7.211   6.845 -3.7607  0.3314 -1.2810
  840MOL0     H10858   9.417   7.256   7.145  2.4023 -1.2753  1.0483
  840MOL0     H10859   9.437   7.106   7.069 -0.9915  0.1725 -1.3296
  840MOL0     H10860   9.600   7.367   7.047  1.8047  0.4878  0.5955
  840MOL0     H10861   9.648   7.231   6.950  3.5029  1.0744  1.2573
  840MOL0     H10862   8.577   7.076   7.190 -0.3298 -0.6733  0.1436
  840MOL0     H10863   8.372   6.992   7.167 -1.5617  2.0945  0.9897
  840MOL0     H10864   8.106   6.830   6.858  0.0935 -2.8010 -0.3444
  840MOL0     H10865   7.949   6.653   6.813  0.7608  1.4924 -1.7036
  840MOL0     H10866   6.987   6.702   5.492  0.0650 -0.5957 -0.3513
  840MOL0     H10867   6.978   6.917   5.396 -1.5690  3.6694  0.9075
  840MOL0     H10868   7.408   7.349   5.504 -0.7522 -0.8060  0.7606
  840MOL0     H10869   7.425   7.598   5.456 -1.1146  1.8753 -0.6296
  840MOL0     H10870   7.408   7.810   5.388 -0.7684 -1.0044 -1.7191
  840MOL0     H10871   7.370   7.807   5.566  2.1852  1.1090 -0.8515
  840MOL0     H10872   7.227   8.008   5.403 -0.5261 -1.7704  0.8051
  840MOL0     H10873   7.261   7.993   5.579  1.1227  0.4257  1.1927
  840MOL0     H10874   7.366   8.185   5.480  1.1766 -0.2881 -1.9567
  840MOL0     H10875   7.448   8.069   5.381 -1.0640 -0.2377 -0.2534
  840MOL0     H10876   7.583   8.147   5.584 -1.2056 -0.4961  0.0818
  840MOL0     H10877   7.475   8.062   5.687  0.8080  0.4380  0.3073
  840MOL0     H10878   7.682   7.733   5.535  1.3395  0.2004 -1.2734
  840MOL0     H10879   6.998   7.608   5.412  0.5395  1.8832  0.3661
  840MOL0     H10880   6.978   7.378   5.452 -0.3563  0.2841 -0.8349
  841MOL0     O10881   7.110   2.957  10.081 -0.0122 -0.6674 -0.1554
  841MOL0     C10882   7.049   2.857  10.121  0.4018 -0.1541 -0.2994
  841MOL0     O10883   7.093   2.722  10.111 -0.0105  0.2969  0.3772
  841MOL0     C10884   7.216   2.696  10.059 -0.2814 -0.2007  0.5289
  841MOL0     C10885   7.301   2.624  10.143 -0.4178  0.3572  0.0676
  841MOL0     C10886   7.432   2.587  10.098  0.3165  0.2819 -0.0129
  841MOL0     C10887   7.477   2.607   9.961  0.5159 -0.3508 -0.9597
  841MOL0     O10888   7.602   2.574   9.927 -0.3423  0.3804 -0.1050
  841MOL0     C10889   7.698   2.685   9.921  0.1831  0.7306  0.2359
  841MOL0     C10890   7.766   2.672   9.790 -0.4450 -0.4291  0.2169
  841MOL0     C10891   7.673   2.715   9.671 -0.2289  0.9153 -1.3851
  841MOL0     C10892   7.764   2.708   9.548  0.5410 -0.5962 -0.0208
  841MOL0     C10893   7.672   2.744   9.427  0.6023 -0.0683 -1.0721
  841MOL0     C10894   7.747   2.716   9.295  0.6088 -0.6078 -0.3392
  841MOL0     C10895   7.656   2.703   9.169  0.1838 -0.4535 -0.2868
  841MOL0     C10896   7.523   2.635   9.171  0.6188 -1.1796  0.3456
  841MOL0     N10897   7.550   2.495   9.211 -0.4583 -0.7931  0.4012
  841MOL0     C10898   7.545   2.441   9.338 -0.1661  0.5411  0.6788
  841MOL0     C10899   7.537   2.310   9.317 -0.5939 -0.1110 -0.2829
  841MOL0     C10900   7.519   2.207   9.414 -0.8476 -0.7907  0.5050
  841MOL0     C10901   7.608   2.087   9.393 -0.4822  0.6613  0.5701
  841MOL0     C10902   7.760   2.132   9.376  0.6421 -0.4916  0.6128
  841MOL0     C10903   7.849   2.009   9.369 -0.0748  0.2199 -0.5548
  841MOL0     O10904   7.978   2.038   9.337  0.4805 -0.7128 -0.7258
  841MOL0     C10905   8.078   2.040   9.434 -0.5646  0.5471  0.1691
  841MOL0     C10906   8.150   2.154   9.448 -0.4110  0.2593 -0.1882
  841MOL0     C10907   8.246   2.166   9.554  0.2834 -0.1748 -0.3365
  841MOL0     C10908   8.276   2.059   9.648 -0.8440  0.1987 -0.8329
  841MOL0     C10909   8.368   2.081   9.769  0.3897  1.0887  0.0677
  841MOL0     O10910   8.332   2.011   9.883  0.3063  0.1342  0.4112
  841MOL0     C10911   8.397   2.044  10.001  0.4973  0.2011  0.5026
  841MOL0     C10912   8.318   2.036  10.124  0.0216 -0.0782  1.5393
  841MOL0     C10913   8.375   2.064  10.252 -0.5867 -0.4359 -0.7255
  841MOL0     C10914   8.515   2.112  10.268  0.5692  0.1312  0.5568
  841MOL0     O10915   8.552   2.130  10.396 -0.3724  0.0710 -0.4545
  841MOL0     C10916   8.673   2.192  10.429 -0.2145  0.1725 -0.2675
  841MOL0     C10917   8.649   2.248  10.574  0.3787  0.2004 -0.6179
  841MOL0     C10918   8.778   2.332  10.618 -0.5687  1.2420 -0.1609
  841MOL0     C10919   8.904   2.234  10.652 -0.0740  0.2351 -0.0235
  841MOL0     C10920   8.876   2.175  10.792  0.0901 -0.3079  0.9966
  841MOL0     C10921   8.931   2.250  10.910 -0.0587 -0.6690  0.5826
  841MOL0     C10922   8.899   2.191  11.040  0.5722  0.0090 -0.3914
  841MOL0     C10923   8.970   2.050  11.059 -0.3254 -0.5510 -0.0680
  841MOL0    Cl10924   8.949   1.998  11.221 -0.0835 -0.2363  0.2897
  841MOL0     C10925   8.588   2.124  10.148  0.7917  0.2923 -0.2714
  841MOL0     C10926   8.531   2.094  10.022  0.0555 -0.2941  0.8053
  841MOL0     O10927   8.469   2.154   9.758 -0.2042 -0.4630 -0.6247
  841MOL0     C10928   8.204   1.934   9.623 -0.4842  0.5069 -0.8075
  841MOL0     C10929   8.101   1.933   9.524 -0.2448 -1.1579  0.4692
  841MOL0     N10930   7.537   2.276   9.184  0.4240 -0.2339  1.0771
  841MOL0     N10931   7.545   2.394   9.114  0.5035 -0.1838 -0.6171
  841MOL0     C10932   7.392   2.681   9.879  0.5408  0.2127 -0.5442
  841MOL0     C10933   7.268   2.736   9.927  0.3478  0.2880 -0.6605
  841MOL0     C10934   6.924   2.874  10.202 -0.1810  0.5017 -0.1055
  841MOL0     C10935   6.841   2.984  10.197 -0.2734 -0.2045  0.1929
  841MOL0     C10936   6.736   2.993  10.294  0.5499  0.0698  0.3166
  841MOL0     C10937   6.700   2.892  10.382 -0.7798  1.0980  0.9585
  841MOL0     O10938   6.589   2.906  10.456 -0.2237  0.3931 -0.2574
  841MOL0     C10939   6.483   2.839  10.387  0.9423 -0.3563 -0.9712
  841MOL0     C10940   6.407   2.737  10.482 -0.1161 -0.4125  0.5729
  841MOL0     C10941   6.318   2.795  10.589  0.6026  0.1788  0.6502
  841MOL0     C10942   6.369   2.900  10.690  0.3118  0.2610 -0.3077
  841MOL0     C10943   6.276   2.966  10.784  0.2179 -0.8709 -0.7585
  841MOL0     C10944   6.198   3.020  10.859  0.4629 -0.6914 -0.5921
  841MOL0     C10945   6.779   2.770  10.386  0.4017 -0.5004  0.0702
  841MOL0     C10946   6.889   2.774  10.302 -0.0828  0.0436 -0.1487
  841MOL0     H10947   7.268   2.612  10.246  1.0296  0.9884  0.6347
  841MOL0     H10948   7.484   2.525  10.170  1.0590  1.7389  0.7700
  841MOL0     H10949   7.769   2.680  10.004 -0.1972  2.0948  0.6638
  841MOL0     H10950   7.641   2.779   9.922 -4.6703 -1.8394 -1.5610
  841MOL0     H10951   7.810   2.575   9.767  3.7883 -0.2370  5.5812
  841MOL0     H10952   7.850   2.742   9.791  0.0011 -0.5916  5.5408
  841MOL0     H10953   7.639   2.817   9.693  0.7332  1.7454 -3.4877
  841MOL0     H10954   7.592   2.641   9.674 -0.0707  0.7237  1.3693
  841MOL0     H10955   7.861   2.758   9.558  0.0126  0.1582  1.6998
  841MOL0     H10956   7.792   2.602   9.542 -2.2242 -1.5753  2.2065
  841MOL0     H10957   7.647   2.850   9.436 -2.5047 -0.7773 -0.0144
  841MOL0     H10958   7.576   2.693   9.440  0.2027  0.6347 -1.2195
  841MOL0     H10959   7.787   2.615   9.306 -1.4032 -1.2056  3.6844
  841MOL0     H10960   7.814   2.801   9.282 -1.1430  1.0108  0.6995
  841MOL0     H10961   7.638   2.808   9.147  2.1265  0.1724  0.8400
  841MOL0     H10962   7.712   2.655   9.088 -1.9739  1.0220 -2.8134
  841MOL0     H10963   7.467   2.630   9.077 -0.8079 -3.9350  1.2188
  841MOL0     H10964   7.470   2.695   9.245 -0.8832 -0.5790 -1.1558
  841MOL0     H10965   7.525   2.487   9.434 -1.6657 -0.3377  0.8241
  841MOL0     H10966   7.413   2.184   9.423 -0.4398 -2.3641  1.8344
  841MOL0     H10967   7.542   2.252   9.511 -3.2943  0.1298  0.7204
  841MOL0     H10968   7.581   2.025   9.307  0.3634 -0.1504  0.8708
  841MOL0     H10969   7.609   2.021   9.480  1.2629 -1.8681 -1.2165
  841MOL0     H10970   7.778   2.184   9.281 -2.1901 -0.7626 -0.1655
  841MOL0     H10971   7.808   2.194   9.452  1.1650  4.0085 -2.9641
  841MOL0     H10972   7.812   1.963   9.277 -0.2447 -1.8197  0.4638
  841MOL0     H10973   7.853   1.938   9.452  3.0479  1.7233  0.7485
  841MOL0     H10974   8.145   2.235   9.376  1.3401  0.1044 -0.5374
  841MOL0     H10975   8.309   2.254   9.563 -0.1057  0.0125  0.6838
  841MOL0     H10976   8.213   2.009  10.113  0.3632 -0.8904  0.0588
  841MOL0     H10977   8.315   2.045  10.340 -1.0200  0.5213 -0.8053
  841MOL0     H10978   8.699   2.271  10.357 -3.8193 -1.0659 -3.2427
  841MOL0     H10979   8.746   2.110  10.427 -3.8050 -3.4859  2.1395
  841MOL0     H10980   8.616   2.182  10.654 -1.5214  0.9991 -0.6625
  841MOL0     H10981   8.561   2.313  10.566  1.4325  1.5139 -2.3293
  841MOL0     H10982   8.764   2.405  10.698 -1.0440 -0.7731  1.6789
  841MOL0     H10983   8.801   2.386  10.525 -1.1994 -1.0528 -1.7455
  841MOL0     H10984   8.913   2.162  10.570  4.1544  0.6153 -0.1102
  841MOL0     H10985   8.987   2.304  10.641  0.9560 -0.9767 -0.1603
  841MOL0     H10986   8.915   2.073  10.793 -3.4364 -1.7952 -0.3897
  841MOL0     H10987   8.768   2.161  10.805  0.4448 -3.7183  1.2667
  841MOL0     H10988   8.893   2.353  10.911  3.3227  0.7519 -1.0479
  841MOL0     H10989   9.040   2.250  10.906 -0.0545  0.4006  0.5584
  841MOL0     H10990   8.936   2.256  11.119 -0.9301 -0.3582  0.6721
  841MOL0     H10991   8.792   2.180  11.060  0.7117  2.0295  1.7500
  841MOL0     H10992   9.075   2.076  11.041 -0.4931  1.7261  1.7456
  841MOL0     H10993   8.926   1.973  10.996  0.7313 -0.3949 -1.0350
  841MOL0     H10994   8.694   2.147  10.151  1.0759  0.1280 -3.9693
  841MOL0     H10995   8.606   2.102   9.945  1.1764 -1.5735  1.7263
  841MOL0     H10996   8.216   1.852   9.694  1.0580 -0.8028 -2.4797
  841MOL0     H10997   8.050   1.846   9.485 -3.8459  2.0268 -2.8616
  841MOL0     H10998   7.419   2.702   9.776 -0.2807  2.1171 -0.4094
  841MOL0     H10999   7.200   2.785   9.858  0.8243  2.6590  0.4314
  841MOL0     H11000   6.864   3.074  10.141 -0.3054 -1.3307 -1.6956
  841MOL0     H11001   6.675   3.083  10.288 -1.6572 -1.2503 -7.1659
  841MOL0     H11002   6.522   2.781  10.303  2.5921  1.4671 -1.5358
  841MOL0     H11003   6.406   2.909  10.354 -0.7296 -1.2270  0.8636
  841MOL0     H11004   6.339   2.688  10.412  1.4438 -0.3225 -1.0551
  841MOL0     H11005   6.483   2.666  10.514  2.8897  2.0813 -0.5938
  841MOL0     H11006   6.301   2.704  10.648 -1.7671 -0.6113 -1.0883
  841MOL0     H11007   6.229   2.829  10.535  1.1217  1.1228  0.3732
  841MOL0     H11008   6.441   2.857  10.761  0.9530  1.2044 -0.3691
  841MOL0     H11009   6.428   2.970  10.630  0.6713  0.5374  0.3548
  841MOL0     H11010   6.132   3.062  10.932  0.8976 -0.6295 -0.2318
  841MOL0     H11011   6.764   2.703  10.470 -0.1326  0.1581  0.5105
  841MOL0     H11012   6.955   2.689  10.315 -1.6381 -0.7216  4.6073
  842MOL0     O11013   1.105   2.670   7.820  1.0376 -0.3073 -0.0108
  842MOL0     C11014   1.093   2.562   7.870 -0.7175 -0.6936  0.1877
  842MOL0     O11015   1.051   2.441   7.805  0.5184  0.0981 -0.8828
  842MOL0     C11016   0.985   2.442   7.683 -1.0258  0.4112 -0.3062
  842MOL0     C11017   0.968   2.553   7.600 -1.0349  0.1666 -0.8455
  842MOL0     C11018   0.903   2.545   7.482 -0.1179  0.3935  0.3282
  842MOL0     C11019   0.853   2.422   7.434 -0.2209  0.4093 -0.4210
  842MOL0     O11020   0.789   2.413   7.313 -0.8056 -0.8132  0.2434
  842MOL0     C11021   0.844   2.321   7.217 -0.8891 -0.1410  0.6437
  842MOL0     C11022   0.781   2.340   7.075  0.5818 -0.3902  0.5153
  842MOL0     C11023   0.842   2.445   6.989  0.3879  0.0778  0.0672
  842MOL0     C11024   0.782   2.422   6.851 -0.3698  0.2411  0.4505
  842MOL0     C11025   0.843   2.528   6.757  0.1013 -0.5112  0.1683
  842MOL0     C11026   0.827   2.496   6.606 -0.2427 -0.2268  0.8269
  842MOL0     C11027   0.891   2.593   6.501 -0.1677  0.2943 -0.2267
  842MOL0     C11028   1.039   2.635   6.536  0.4649 -0.0912 -0.2883
  842MOL0     N11029   1.091   2.724   6.438 -0.1105  0.6553 -0.2616
  842MOL0     C11030   1.024   2.813   6.350  0.4015  0.9443  0.0985
  842MOL0     C11031   1.122   2.862   6.265  0.7460 -0.2242 -0.6002
  842MOL0     C11032   1.106   2.969   6.158 -0.2010 -0.0056  0.0088
  842MOL0     C11033   1.007   2.914   6.060 -0.6756  1.2983  0.4819
  842MOL0     C11034   1.040   2.782   6.002 -0.0500 -0.5375 -0.1968
  842MOL0     C11035   0.909   2.709   5.957 -0.4979 -0.2244  0.8791
  842MOL0     O11036   0.831   2.788   5.875  0.1260 -1.0536 -0.3796
  842MOL0     C11037   0.870   2.838   5.754 -0.5514  0.1107 -0.1232
  842MOL0     C11038   0.974   2.774   5.678 -0.2929 -0.0693  0.0971
  842MOL0     C11039   1.025   2.837   5.565  0.8106 -0.0876  0.3618
  842MOL0     C11040   0.973   2.965   5.524  0.9879 -0.4527 -0.0182
  842MOL0     C11041   1.035   3.044   5.412 -0.0299 -0.1534 -0.6291
  842MOL0     O11042   1.157   2.997   5.369 -0.1319 -0.2465 -0.3127
  842MOL0     C11043   1.236   3.064   5.281  0.3786 -1.0270  0.7009
  842MOL0     C11044   1.370   3.053   5.289 -1.9702 -0.1485  0.1541
  842MOL0     C11045   1.462   3.129   5.205  0.6838 -0.4663  0.0591
  842MOL0     C11046   1.408   3.211   5.099 -0.3625 -0.1778  0.1812
  842MOL0     O11047   1.483   3.298   5.021  1.0375  0.1999 -0.5088
  842MOL0     C11048   1.573   3.396   5.082 -0.9869 -0.0856 -0.2000
  842MOL0     C11049   1.636   3.493   4.978 -0.1848 -0.0678 -0.0771
  842MOL0     C11050   1.695   3.416   4.859  0.1743 -0.1618  1.2978
  842MOL0     C11051   1.787   3.502   4.765 -0.3805  0.3549 -0.0838
  842MOL0     C11052   1.808   3.446   4.617  0.2465  0.0688 -0.2258
  842MOL0     C11053   1.902   3.536   4.528 -0.1669 -0.7002  1.2986
  842MOL0     C11054   1.824   3.662   4.493  0.2893 -0.0104 -0.0631
  842MOL0     C11055   1.916   3.750   4.404  0.6182  0.3832 -0.4977
  842MOL0    Cl11056   1.844   3.916   4.374 -0.0952  0.5117 -0.1882
  842MOL0     C11057   1.272   3.231   5.089  0.2668 -0.5936  0.1060
  842MOL0     C11058   1.187   3.146   5.172 -0.1721 -0.3546 -0.2897
  842MOL0     O11059   0.993   3.162   5.396 -0.5704 -0.2845 -0.4841
  842MOL0     C11060   0.867   3.018   5.598  0.8099 -0.8034  0.2244
  842MOL0     C11061   0.824   2.961   5.716  0.0064  0.0790 -0.7832
  842MOL0     N11062   1.244   2.814   6.308  0.1771  0.4687  0.5312
  842MOL0     N11063   1.223   2.724   6.404  0.9093 -0.0847 -0.7326
  842MOL0     C11064   0.876   2.307   7.508 -0.1534  0.1071  0.5002
  842MOL0     C11065   0.955   2.310   7.629 -0.6735 -0.0717  0.5733
  842MOL0     C11066   1.111   2.555   8.017  0.6479 -0.2450 -1.0087
  842MOL0     C11067   1.172   2.656   8.084 -0.7081  0.5675 -0.3046
  842MOL0     C11068   1.205   2.651   8.221  0.2597  0.5981 -0.3084
  842MOL0     C11069   1.177   2.534   8.290 -0.0837  0.3657 -0.2498
  842MOL0     O11070   1.209   2.516   8.419  0.4344 -0.1664 -0.7922
  842MOL0     C11071   1.226   2.624   8.515  0.4493 -0.1245 -0.7518
  842MOL0     C11072   1.092   2.687   8.540  0.4131  0.8768 -0.5857
  842MOL0     C11073   1.012   2.603   8.636  0.7126  0.0074 -0.1610
  842MOL0     C11074   0.892   2.678   8.690  0.4967 -0.0434 -0.5208
  842MOL0     C11075   0.819   2.769   8.599 -0.0331 -0.2041  0.3900
  842MOL0     C11076   0.773   2.860   8.531 -0.2076 -0.4785 -0.3698
  842MOL0     C11077   1.104   2.428   8.229 -0.3259 -0.3005 -0.2281
  842MOL0     C11078   1.067   2.445   8.086 -0.6770  0.1549 -0.1085
  842MOL0     H11079   1.011   2.651   7.621 -1.4816 -0.1216  1.7291
  842MOL0     H11080   0.884   2.630   7.417 -2.2514 -0.7810 -0.6835
  842MOL0     H11081   0.817   2.216   7.233 -1.9240 -0.2964 -1.7401
  842MOL0     H11082   0.953   2.332   7.213 -0.6765 -1.0653  2.3770
  842MOL0     H11083   0.675   2.363   7.088  0.2844 -1.3113 -0.1734
  842MOL0     H11084   0.808   2.246   7.026 -2.9638 -0.3144 -1.9959
  842MOL0     H11085   0.951   2.444   6.998  0.2740  1.8758  6.0234
  842MOL0     H11086   0.819   2.543   7.033 -2.2832 -1.1658  1.6896
  842MOL0     H11087   0.810   2.322   6.816 -2.3082  0.6402 -2.7032
  842MOL0     H11088   0.673   2.430   6.856 -0.4147  4.7844 -1.9529
  842MOL0     H11089   0.952   2.529   6.764  0.3102 -2.3931 -1.6769
  842MOL0     H11090   0.809   2.627   6.789 -0.5884 -0.3770 -0.9275
  842MOL0     H11091   0.720   2.490   6.586 -0.3133  0.1010  1.0931
  842MOL0     H11092   0.858   2.402   6.559 -1.5569  1.5676 -4.2424
  842MOL0     H11093   0.876   2.547   6.403 -2.1080  1.3307 -0.4585
  842MOL0     H11094   0.846   2.690   6.481  0.5683  0.1605 -2.8470
  842MOL0     H11095   1.107   2.550   6.550  5.6466  3.3328 -2.0391
  842MOL0     H11096   1.042   2.684   6.634  0.0288 -0.3094 -0.1622
  842MOL0     H11097   0.924   2.854   6.356 -0.1042  0.0030 -1.2624
  842MOL0     H11098   1.200   2.996   6.108  1.5611 -1.2442  2.4426
  842MOL0     H11099   1.065   3.056   6.209 -2.8607 -1.2631  0.1705
  842MOL0     H11100   0.991   2.981   5.975  0.4940  0.8565 -0.1065
  842MOL0     H11101   0.913   2.905   6.116 -0.8029 -2.9085 -0.0541
  842MOL0     H11102   1.109   2.796   5.919  0.0348 -1.4935 -0.3077
  842MOL0     H11103   1.093   2.720   6.075 -1.3904 -0.7536  0.6275
  842MOL0     H11104   0.856   2.678   6.048  2.0978  0.9530  2.9349
  842MOL0     H11105   0.939   2.620   5.901 -2.9517  1.3432 -3.4148
  842MOL0     H11106   1.010   2.674   5.700  1.5465  0.3630 -0.7430
  842MOL0     H11107   1.111   2.798   5.512  1.7080 -1.2393  2.5085
  842MOL0     H11108   1.398   2.979   5.363  1.0190 -0.2838 -0.9831
  842MOL0     H11109   1.568   3.138   5.225  0.8584 -0.6607 -0.7391
  842MOL0     H11110   1.648   3.338   5.135 -1.3887  0.2311  0.7415
  842MOL0     H11111   1.524   3.466   5.151 -0.7168  1.0118 -1.0842
  842MOL0     H11112   1.714   3.547   5.032  1.8367 -2.4364 -0.4541
  842MOL0     H11113   1.568   3.570   4.940  0.1762  1.6266  2.4270
  842MOL0     H11114   1.614   3.380   4.794  1.6597 -0.6810 -0.3327
  842MOL0     H11115   1.759   3.335   4.895  1.8224  1.4164  2.0769
  842MOL0     H11116   1.744   3.602   4.774  1.0914  1.0467 -0.3995
  842MOL0     H11117   1.888   3.504   4.808 -2.2126  0.2907  4.9054
  842MOL0     H11118   1.706   3.438   4.578  0.1550  1.8575 -0.4268
  842MOL0     H11119   1.864   3.352   4.623 -0.8098 -0.5034  1.1240
  842MOL0     H11120   1.932   3.498   4.429  0.9321  0.2433  1.2517
  842MOL0     H11121   1.988   3.573   4.585 -0.6791  2.9371 -0.0177
  842MOL0     H11122   1.730   3.646   4.441 -1.5306 -3.2515  3.6695
  842MOL0     H11123   1.786   3.709   4.584 -3.6700  0.7049 -1.9015
  842MOL0     H11124   1.956   3.696   4.317  2.7112  2.0105 -0.6093
  842MOL0     H11125   2.001   3.768   4.469 -0.3083 -4.1440  2.4283
  842MOL0     H11126   1.217   3.285   5.013 -1.0928 -1.9988  0.0226
  842MOL0     H11127   1.083   3.157   5.146  0.4722  1.1337 -2.5689
  842MOL0     H11128   0.818   3.108   5.563 -2.2528 -1.9577  1.2363
  842MOL0     H11129   0.758   3.021   5.778  1.2822  0.8190 -0.0900
  842MOL0     H11130   0.851   2.213   7.458  0.7927  1.5103 -2.8910
  842MOL0     H11131   0.982   2.218   7.680 -0.8265 -0.3118  0.2312
  842MOL0     H11132   1.213   2.745   8.037 -0.1060  0.9860  0.9679
  842MOL0     H11133   1.264   2.732   8.261  0.3880  0.5591 -0.4200
  842MOL0     H11134   1.291   2.699   8.469 -3.7907  2.4903 -2.9991
  842MOL0     H11135   1.271   2.579   8.605 -0.1962 -1.0122 -0.8633
  842MOL0     H11136   1.102   2.785   8.587 -1.0765  1.8974 -2.2719
  842MOL0     H11137   1.043   2.707   8.444 -3.5488  3.0518  1.6509
  842MOL0     H11138   1.078   2.578   8.720  1.1311 -0.2168 -0.5474
  842MOL0     H11139   0.973   2.503   8.612 -0.0498 -0.5743  3.1089
  842MOL0     H11140   0.821   2.601   8.721 -0.8404  1.4147  0.2481
  842MOL0     H11141   0.916   2.726   8.785 -1.2422 -0.6387  0.2673
  842MOL0     H11142   0.734   2.924   8.454 -2.5752 -1.3598  0.0139
  842MOL0     H11143   1.070   2.343   8.287 -1.2996 -0.3146 -0.7976
  842MOL0     H11144   1.014   2.366   8.033 -1.1000  0.8235 -0.6952
  843MOL0     O11145  10.606   9.403  10.605 -0.1748  0.0013 -0.8274
  843MOL0     C11146  10.667   9.473  10.689  0.7286  0.1146  0.4852
  843MOL0     O11147  10.658   9.461  10.827 -1.3693  0.5323  0.3752
  843MOL0     C11148  10.604   9.352  10.880  0.3843  0.4033 -0.5117
  843MOL0     C11149  10.697   9.254  10.925  0.2745 -1.2734  0.4476
  843MOL0     C11150  10.661   9.132  10.986  0.4764  0.5095  0.0298
  843MOL0     C11151  10.523   9.097  10.997 -0.2180  0.1297  0.3809
  843MOL0     O11152  10.486   8.983  11.065  0.0879 -0.2351 -0.2903
  843MOL0     C11153  10.551   8.857  11.012  0.0741 -0.4304 -0.5365
  843MOL0     C11154  10.500   8.731  11.076  0.0538 -0.6865 -0.9752
  843MOL0     C11155  10.568   8.705  11.203  0.1688 -0.0863 -0.0188
  843MOL0     C11156  10.535   8.564  11.272  1.1383 -0.0892  2.2128
  843MOL0     C11157  10.618   8.537  11.397 -0.2363  0.4861  0.2028
  843MOL0     C11158  10.564   8.438  11.499  0.2480  0.4261 -1.1413
  843MOL0     C11159  10.408   8.457  11.521 -0.3314  0.3548  0.3386
  843MOL0     C11160  10.375   8.405  11.663 -0.1573  0.8995  0.0392
  843MOL0     N11161  10.390   8.263  11.688 -0.0887 -0.4658 -0.2970
  843MOL0     C11162  10.333   8.167  11.613 -0.1973 -0.6852 -0.1893
  843MOL0     C11163  10.362   8.050  11.689  0.4595 -0.0950  0.1892
  843MOL0     C11164  10.321   7.911  11.662  0.9218  0.9458  0.1768
  843MOL0     C11165  10.426   7.839  11.593 -0.3838 -0.5963  1.1622
  843MOL0     C11166  10.381   7.711  11.530 -0.0190  0.2433 -0.1662
  843MOL0     C11167  10.311   7.620  11.637  0.2388  0.4367  0.2348
  843MOL0     O11168  10.273   7.492  11.591 -0.1052  0.2575 -0.9489
  843MOL0     C11169  10.164   7.430  11.652  0.4577  0.1757 -0.6409
  843MOL0     C11170  10.100   7.477  11.773  0.7958  0.4015 -0.5524
  843MOL0     C11171   9.984   7.407  11.821 -0.3366 -0.2382 -0.4949
  843MOL0     C11172   9.940   7.289  11.762 -0.3666 -0.0501 -0.9822
  843MOL0     C11173   9.814   7.218  11.817 -0.0664 -0.8034 -0.0823
  843MOL0     O11174   9.727   7.295  11.902  0.0050  0.0240  0.3048
  843MOL0     C11175   9.628   7.225  11.967  0.5998 -0.3566  1.0760
  843MOL0     C11176   9.521   7.179  11.894 -0.2908  0.5351  0.5167
  843MOL0     C11177   9.409   7.119  11.957  0.4194  0.6012 -0.3794
  843MOL0     C11178   9.408   7.095  12.092  0.4731 -0.7454 -0.1351
  843MOL0     O11179   9.293   7.041  12.147 -0.7029  0.2695 -0.6582
  843MOL0     C11180   9.314   6.942  12.245 -0.5107 -0.0378  0.2258
  843MOL0     C11181   9.185   6.885  12.294 -0.0605  0.1993  0.1773
  843MOL0     C11182   9.116   6.806  12.186 -0.0480  0.1257 -0.9540
  843MOL0     C11183   8.981   6.757  12.245 -0.0651 -0.4680  0.1446
  843MOL0     C11184   8.998   6.630  12.333  0.1472  0.3127  0.3190
  843MOL0     C11185   8.877   6.605  12.423 -0.4394 -0.2589  0.4966
  843MOL0     C11186   8.897   6.463  12.482  0.1571 -1.0762 -0.7186
  843MOL0     C11187   8.770   6.432  12.571 -1.1755 -0.6553 -0.6230
  843MOL0    Cl11188   8.759   6.264  12.634  0.0136  0.3220  0.0244
  843MOL0     C11189   9.527   7.131  12.158  0.0302  1.0423 -1.1923
  843MOL0     C11190   9.635   7.204  12.102 -0.4062 -0.3203 -0.2744
  843MOL0     O11191   9.787   7.103  11.778  0.4401  0.0603  0.1495
  843MOL0     C11192  10.003   7.237  11.651 -0.7613  0.2522 -0.3878
  843MOL0     C11193  10.104   7.321  11.599 -0.1593 -0.2543 -0.6796
  843MOL0     N11194  10.459   8.082  11.778 -0.3054  1.1486 -0.2245
  843MOL0     N11195  10.458   8.205  11.794  0.4663  0.1006  0.8396
  843MOL0     C11196  10.428   9.195  10.960 -0.0176 -0.0895 -0.5619
  843MOL0     C11197  10.468   9.318  10.890  0.4694 -0.4478 -1.4104
  843MOL0     C11198  10.748   9.583  10.627 -0.5476  0.4985  0.0241
  843MOL0     C11199  10.810   9.677  10.707 -0.0391  0.4090  0.1858
  843MOL0     C11200  10.896   9.764  10.649  0.1474 -0.6911  0.4853
  843MOL0     C11201  10.912   9.777  10.509  0.2669  0.0238  0.2526
  843MOL0     O11202  11.001   9.877  10.456  0.3551 -0.7596  0.5212
  843MOL0     C11203  10.999   9.901  10.311 -0.6143 -0.8435 -0.1406
  843MOL0     C11204  11.089  10.019  10.294  0.0323  0.1024  0.0178
  843MOL0     C11205  11.241   9.985  10.349  0.5157 -0.6406 -0.9726
  843MOL0     C11206  11.298   9.848  10.316 -0.8699  0.0931  1.1931
  843MOL0     C11207  11.319   9.832  10.169 -0.2856  0.0780 -0.3090
  843MOL0     C11208  11.330   9.828  10.052 -0.3359 -0.0943  1.2733
  843MOL0     C11209  10.840   9.694  10.431  0.5090  0.4255  0.9971
  843MOL0     C11210  10.762   9.597  10.485 -0.1718 -0.4386  0.0115
  843MOL0     H11211  10.803   9.276  10.916  0.0761  0.3147  1.5946
  843MOL0     H11212  10.740   9.070  11.028  1.4542 -0.1874 -2.6345
  843MOL0     H11213  10.660   8.857  11.023 -0.0914 -0.2649  1.4834
  843MOL0     H11214  10.535   8.845  10.904  1.5336 -2.0422 -0.6113
  843MOL0     H11215  10.527   8.648  11.009  0.4392 -1.0561 -0.3770
  843MOL0     H11216  10.391   8.735  11.079  0.0299 -1.1488 -1.0579
  843MOL0     H11217  10.537   8.783  11.272  2.6206  1.8912 -0.9944
  843MOL0     H11218  10.677   8.714  11.195  0.0762 -0.6318 -2.9382
  843MOL0     H11219  10.426   8.564  11.281  0.8988  0.8862 -0.0522
  843MOL0     H11220  10.563   8.485  11.203 -0.8493  0.9997  0.0092
  843MOL0     H11221  10.623   8.637  11.442 -3.4256  2.4604 -3.2233
  843MOL0     H11222  10.718   8.509  11.364 -0.7062 -0.2474 -0.6266
  843MOL0     H11223  10.632   8.455  11.583 -0.2152  1.9328 -1.0417
  843MOL0     H11224  10.578   8.335  11.464 -1.5409 -0.6353  0.9717
  843MOL0     H11225  10.381   8.562  11.530 -1.1410  0.1033  1.0501
  843MOL0     H11226  10.354   8.414  11.436  3.1443  0.6778 -2.2333
  843MOL0     H11227  10.273   8.436  11.689 -0.8250 -0.0347 -1.4033
  843MOL0     H11228  10.444   8.455  11.732 -0.3913 -0.0447  0.9835
  843MOL0     H11229  10.275   8.185  11.523  0.8820 -1.2064 -1.0078
  843MOL0     H11230  10.220   7.910  11.620 -0.7842  0.2386  3.9197
  843MOL0     H11231  10.304   7.868  11.761  0.7833 -3.2058 -1.4421
  843MOL0     H11232  10.503   7.826  11.670  0.7259 -1.8964 -0.1113
  843MOL0     H11233  10.477   7.900  11.518 -1.3582  0.9498  1.7044
  843MOL0     H11234  10.312   7.725  11.446 -0.9935 -0.3388  0.5153
  843MOL0     H11235  10.458   7.648  11.485 -0.6391 -1.8702  1.5362
  843MOL0     H11236  10.219   7.665  11.675  2.3975  3.7634  1.9146
  843MOL0     H11237  10.388   7.610  11.714  3.7943 -1.5041 -3.2009
  843MOL0     H11238  10.120   7.571  11.824  1.1216  0.0031  0.0702
  843MOL0     H11239   9.917   7.460  11.888  0.3910  1.2493 -0.9034
  843MOL0     H11240   9.524   7.204  11.789 -1.8940 -1.4959 -0.0839
  843MOL0     H11241   9.325   7.099  11.890  1.6609 -1.1650 -1.5119
  843MOL0     H11242   9.359   6.987  12.334 -1.8343 -0.2861  1.0462
  843MOL0     H11243   9.377   6.861  12.208  2.4124  2.0679  0.1881
  843MOL0     H11244   9.120   6.970  12.318  0.6906  0.6056  0.8050
  843MOL0     H11245   9.205   6.833  12.388 -1.2243  2.1259  1.5737
  843MOL0     H11246   9.181   6.728  12.146 -0.9782 -0.4143 -1.4523
  843MOL0     H11247   9.095   6.871  12.100  1.1438 -0.4057 -1.6700
  843MOL0     H11248   8.941   6.838  12.308  0.8247  1.1122 -1.2334
  843MOL0     H11249   8.899   6.749  12.174 -1.3958  0.0585  1.5575
  843MOL0     H11250   9.094   6.643  12.383  1.7918  1.0981 -2.7987
  843MOL0     H11251   8.999   6.546  12.263 -1.3617  0.5036  0.0375
  843MOL0     H11252   8.779   6.613  12.376  0.0703 -0.7097 -0.6751
  843MOL0     H11253   8.896   6.679  12.501  2.7333 -2.2937  1.8709
  843MOL0     H11254   8.901   6.390  12.401 -1.6520 -0.5242 -1.3495
  843MOL0     H11255   8.985   6.447  12.545  0.6854  1.4578 -0.6899
  843MOL0     H11256   8.682   6.450  12.508  0.2340 -0.0200 -2.5188
  843MOL0     H11257   8.771   6.497  12.659  3.2431 -0.2706 -0.7504
  843MOL0     H11258   9.516   7.105  12.263  0.7925 -1.5652 -1.6948
  843MOL0     H11259   9.721   7.224  12.165 -1.1295  1.7477  0.1515
  843MOL0     H11260   9.987   7.147  11.592  2.1124 -0.7058  0.1362
  843MOL0     H11261  10.135   7.286  11.501 -1.2474  1.1601 -1.5738
  843MOL0     H11262  10.321   9.177  10.967  0.2010 -0.9783  1.2407
  843MOL0     H11263  10.393   9.394  10.874  1.9695  1.4516 -0.0078
  843MOL0     H11264  10.814   9.675  10.815 -2.8310  1.2130  0.3675
  843MOL0     H11265  10.951   9.833  10.712  0.4339  0.4014 -0.9089
  843MOL0     H11266  10.896   9.924  10.280 -0.9094 -1.5594  0.2911
  843MOL0     H11267  11.022   9.815  10.247 -0.1608  0.0676 -1.2445
  843MOL0     H11268  11.095  10.044  10.188 -0.2820 -0.8532 -0.2287
  843MOL0     H11269  11.036  10.087  10.362 -1.7375 -2.2598  1.1408
  843MOL0     H11270  11.234   9.983  10.458 -0.8236 -1.9460 -1.0523
  843MOL0     H11271  11.323  10.056  10.333 -0.7117  2.9563  5.5274
  843MOL0     H11272  11.395   9.828  10.362  0.3741  1.2505 -0.7908
  843MOL0     H11273  11.230   9.769  10.350 -2.4629  0.3788 -1.1147
  843MOL0     H11274  11.354   9.826   9.948  2.5699 -1.4681  1.8698
  843MOL0     H11275  10.827   9.717  10.326 -0.6176  1.9296  1.4372
  843MOL0     H11276  10.700   9.531  10.425  1.0048 -2.7487  1.2142
  844MOL0     O11277   3.332   2.002   9.895  0.0645 -0.0366 -0.4068
  844MOL0     C11278   3.259   2.091   9.930 -0.6008 -0.4371  0.0032
  844MOL0     O11279   3.228   2.114  10.056 -0.1027 -0.3649 -0.4148
  844MOL0     C11280   3.305   2.053  10.153 -0.0710 -0.0312  0.2735
  844MOL0     C11281   3.237   1.952  10.223  0.1090  0.2233  0.3050
  844MOL0     C11282   3.302   1.881  10.319 -0.3012 -0.3877  0.3770
  844MOL0     C11283   3.432   1.913  10.351 -0.4342  1.2203  0.0005
  844MOL0     O11284   3.499   1.829  10.433  0.3409 -0.1246  0.7241
  844MOL0     C11285   3.528   1.888  10.563 -0.2844 -0.6379  0.1769
  844MOL0     C11286   3.587   1.769  10.641  0.2495 -0.4496 -0.6148
  844MOL0     C11287   3.733   1.720  10.594 -0.2166  0.1381  0.1925
  844MOL0     C11288   3.762   1.581  10.633  0.1119  0.5702  0.3541
  844MOL0     C11289   3.702   1.492  10.522  0.4463 -0.8292 -0.3429
  844MOL0     C11290   3.718   1.337  10.554  0.1668 -1.2909  0.2842
  844MOL0     C11291   3.855   1.293  10.612 -0.1680  0.2817  0.7075
  844MOL0     C11292   3.860   1.135  10.592 -0.1046 -0.4333 -0.7911
  844MOL0     N11293   3.964   1.070  10.668  0.0173  0.4129 -0.6863
  844MOL0     C11294   4.102   1.075  10.642 -0.5948 -1.1931 -0.1061
  844MOL0     C11295   4.158   1.012  10.748 -0.4107 -0.7669  0.0037
  844MOL0     C11296   4.307   1.005  10.774 -0.6396  0.2562 -0.3637
  844MOL0     C11297   4.376   0.898  10.682 -0.1468 -0.6738  0.4623
  844MOL0     C11298   4.530   0.913  10.657  0.1631  0.2027  0.4700
  844MOL0     C11299   4.616   0.923  10.792 -0.3266 -0.0102 -0.6344
  844MOL0     O11300   4.757   0.945  10.774 -0.2700 -0.1391 -0.4042
  844MOL0     C11301   4.804   1.065  10.740  0.7812 -0.2250  0.1322
  844MOL0     C11302   4.719   1.178  10.715 -0.0859 -0.6478 -0.6974
  844MOL0     C11303   4.768   1.304  10.679 -0.3355 -0.9066  0.2310
  844MOL0     C11304   4.907   1.309  10.641 -0.3837  0.3110  0.1298
  844MOL0     C11305   4.967   1.433  10.585  0.1266 -0.0055 -0.7315
  844MOL0     O11306   5.097   1.452  10.597 -1.1987  0.1836 -0.2687
  844MOL0     C11307   5.152   1.574  10.559  0.1296  0.3676  0.4422
  844MOL0     C11308   5.128   1.635  10.438 -0.8574 -0.3993 -0.6234
  844MOL0     C11309   5.191   1.766  10.411  0.1396  0.2603  0.0992
  844MOL0     C11310   5.266   1.834  10.503 -0.5388 -0.2569 -0.3552
  844MOL0     O11311   5.331   1.946  10.454  1.2679 -0.5264 -0.6883
  844MOL0     C11312   5.434   2.014  10.529 -0.7228 -0.6313  0.0026
  844MOL0     C11313   5.450   2.156  10.478 -0.6276 -0.2471 -0.0488
  844MOL0     C11314   5.333   2.261  10.513 -0.6882  0.8874  0.7608
  844MOL0     C11315   5.365   2.405  10.470 -0.0809  0.1022 -0.5070
  844MOL0     C11316   5.250   2.505  10.458 -0.3758 -0.2058  0.1383
  844MOL0     C11317   5.288   2.652  10.422  0.2167 -0.4293 -0.7847
  844MOL0     C11318   5.377   2.655  10.302  1.7359 -0.1254  0.4728
  844MOL0     C11319   5.282   2.649  10.172 -0.5157  0.0237 -0.6319
  844MOL0    Cl11320   5.370   2.657  10.026  0.2872 -0.2906  0.5240
  844MOL0     C11321   5.271   1.779  10.637  0.1546 -1.0196  0.9836
  844MOL0     C11322   5.222   1.646  10.656  0.2715 -0.0201  0.3936
  844MOL0     O11323   4.892   1.519  10.537 -0.5380  0.8588 -0.3230
  844MOL0     C11324   4.991   1.198  10.667  0.3898  0.2534  0.2295
  844MOL0     C11325   4.938   1.078  10.718  0.4718 -0.3489 -0.7413
  844MOL0     N11326   4.053   0.957  10.824 -0.3896 -0.0139  0.8174
  844MOL0     N11327   3.940   0.983  10.766  0.1305  0.3549 -0.3378
  844MOL0     C11328   3.500   2.011  10.285  1.1770  0.2524 -0.0088
  844MOL0     C11329   3.434   2.086  10.185  0.1135  0.4788  0.3456
  844MOL0     C11330   3.189   2.170   9.835 -0.1537  0.4024  0.6883
  844MOL0     C11331   3.193   2.128   9.693 -0.4203 -0.3906 -0.7587
  844MOL0     C11332   3.136   2.216   9.598 -0.3309  0.6308 -0.3295
  844MOL0     C11333   3.095   2.346   9.626 -0.4122 -0.9929  0.1860
  844MOL0     O11334   3.052   2.421   9.523 -0.3686  0.0229 -0.1857
  844MOL0     C11335   3.051   2.560   9.532  0.5999 -0.6968 -0.0187
  844MOL0     C11336   3.193   2.619   9.531 -0.7175 -0.3857 -0.3511
  844MOL0     C11337   3.271   2.568   9.407 -1.0638 -0.8515  0.4307
  844MOL0     C11338   3.421   2.611   9.420 -0.1141 -0.8073 -0.0260
  844MOL0     C11339   3.522   2.503   9.457  0.0360 -0.1723  1.1812
  844MOL0     C11340   3.599   2.415   9.478 -0.1582  0.4519 -0.2514
  844MOL0     C11341   3.088   2.381   9.764  0.4806 -0.2923 -1.6685
  844MOL0     C11342   3.137   2.298   9.866  0.0374  0.8635 -0.0055
  844MOL0     H11343   3.134   1.929  10.201  0.5403 -0.3549 -1.2244
  844MOL0     H11344   3.251   1.795  10.360 -1.4944  0.4801  0.7838
  844MOL0     H11345   3.445   1.935  10.617 -1.4274 -2.1828 -0.1900
  844MOL0     H11346   3.610   1.960  10.577  1.1294 -1.7235 -1.8507
  844MOL0     H11347   3.509   1.694  10.629 -0.5127  0.0609  0.9329
  844MOL0     H11348   3.580   1.793  10.747 -0.6020  0.3254 -0.8436
  844MOL0     H11349   3.811   1.784  10.638 -0.0595  0.6306 -0.7761
  844MOL0     H11350   3.752   1.735  10.487 -0.2325  0.7578  0.2676
  844MOL0     H11351   3.869   1.562  10.636  0.3463  1.8413  0.8189
  844MOL0     H11352   3.719   1.562  10.732 -1.1096 -3.6045 -0.7803
  844MOL0     H11353   3.769   1.510  10.438  1.1921  0.3720  0.4712
  844MOL0     H11354   3.597   1.507  10.493  0.3100 -2.0724 -0.5303
  844MOL0     H11355   3.708   1.286  10.458 -2.1686  0.2498 -0.3878
  844MOL0     H11356   3.632   1.312  10.617 -2.7887 -0.3343 -2.9942
  844MOL0     H11357   3.933   1.331  10.546 -1.0816 -2.3609 -2.1500
  844MOL0     H11358   3.873   1.326  10.714  0.9244  0.2234  0.5388
  844MOL0     H11359   3.881   1.112  10.487 -0.0672  0.0102 -0.8819
  844MOL0     H11360   3.760   1.102  10.623  0.6237 -1.5982  0.4189
  844MOL0     H11361   4.166   1.127  10.572 -0.0710  1.7382  2.3258
  844MOL0     H11362   4.325   0.972  10.876  0.1387 -0.0610 -0.5959
  844MOL0     H11363   4.349   1.104  10.753  0.3456 -0.5543 -2.5423
  844MOL0     H11364   4.321   0.904  10.588 -0.4106  0.3344  0.6707
  844MOL0     H11365   4.343   0.798  10.713 -0.8086  0.2599  3.0711
  844MOL0     H11366   4.574   0.839  10.589  1.0975  0.1800  1.0787
  844MOL0     H11367   4.535   1.004  10.597 -0.1060 -0.2828 -0.3035
  844MOL0     H11368   4.614   0.837  10.859 -1.1297  1.2915  1.0779
  844MOL0     H11369   4.575   1.005  10.852  0.4798  0.8344 -1.2058
  844MOL0     H11370   4.612   1.182  10.728  0.1275 -0.7791  1.4473
  844MOL0     H11371   4.705   1.391  10.662  0.5227  0.1041  1.9207
  844MOL0     H11372   5.091   1.578  10.353 -2.0822  1.5037 -1.4177
  844MOL0     H11373   5.193   1.799  10.308 -1.2745 -2.0413 -0.7311
  844MOL0     H11374   5.529   1.966  10.505  2.0569  3.8303  0.7960
  844MOL0     H11375   5.413   2.014  10.637 -3.2716  1.6335 -0.3986
  844MOL0     H11376   5.474   2.148  10.371  0.0458 -0.6105  0.1245
  844MOL0     H11377   5.539   2.203  10.522 -0.2883  0.0260 -0.9898
  844MOL0     H11378   5.324   2.259  10.622  0.1856 -0.4952  0.8471
  844MOL0     H11379   5.241   2.228  10.465  0.4081 -1.5919  0.1612
  844MOL0     H11380   5.441   2.453  10.532 -1.2181  3.1696 -1.3468
  844MOL0     H11381   5.405   2.390  10.369 -2.0389 -1.8194 -1.0889
  844MOL0     H11382   5.210   2.511  10.559  1.6346 -1.2161  1.0480
  844MOL0     H11383   5.165   2.469  10.400 -0.7371  0.4356  0.2601
  844MOL0     H11384   5.347   2.695  10.503  0.9370  0.3413 -1.7121
  844MOL0     H11385   5.196   2.711  10.415 -2.3140 -3.4076  3.0638
  844MOL0     H11386   5.420   2.755  10.297  2.4423 -0.4721 -3.4260
  844MOL0     H11387   5.463   2.587  10.302  0.4703 -2.0978 -4.1771
  844MOL0     H11388   5.214   2.733  10.165 -2.9117 -1.8415 -1.0494
  844MOL0     H11389   5.220   2.559  10.175 -1.8820  0.8806 -2.0677
  844MOL0     H11390   5.317   1.845  10.710  2.3794  2.0062 -2.7904
  844MOL0     H11391   5.218   1.596  10.753 -2.7750 -0.7947 -0.0264
  844MOL0     H11392   5.097   1.196  10.646  0.4625 -1.3010  0.6342
  844MOL0     H11393   5.006   0.995  10.732  1.0265  0.2634  0.4161
  844MOL0     H11394   3.602   2.031  10.316  1.3768 -0.2960 -0.3050
  844MOL0     H11395   3.488   2.157  10.124 -0.6148 -0.4945 -1.5221
  844MOL0     H11396   3.233   2.031   9.666  1.2679  0.2081 -0.5190
  844MOL0     H11397   3.127   2.178   9.497 -4.6785  2.9379 -1.0556
  844MOL0     H11398   2.997   2.587   9.624 -0.3299 -3.0506  0.1973
  844MOL0     H11399   2.993   2.593   9.446 -1.2771 -1.4405  0.9233
  844MOL0     H11400   3.196   2.727   9.547  1.6294 -0.5941  1.0351
  844MOL0     H11401   3.249   2.592   9.621  2.0754  3.2364 -0.7384
  844MOL0     H11402   3.229   2.605   9.313  3.6682  4.8054 -0.0330
  844MOL0     H11403   3.270   2.459   9.394 -5.7689 -1.0447  0.6203
  844MOL0     H11404   3.441   2.651   9.320  0.6590 -0.7818  0.1341
  844MOL0     H11405   3.442   2.700   9.480  0.1635 -0.2025 -0.9889
  844MOL0     H11406   3.668   2.342   9.515 -0.7060  0.2848  0.4712
  844MOL0     H11407   3.052   2.468   9.817 -2.3390 -2.2550 -0.0714
  844MOL0     H11408   3.146   2.336   9.967 -0.0897 -0.7796  0.6551
  845MOL0     O11409   1.722  10.162   7.402 -0.3198 -0.3019 -0.1062
  845MOL0     C11410   1.781  10.232   7.485 -0.6725 -0.0077 -0.8800
  845MOL0     O11411   1.765  10.365   7.504  0.2568  0.1845 -0.0934
  845MOL0     C11412   1.671  10.424   7.425  0.0956  1.3159  0.0809
  845MOL0     C11413   1.691  10.439   7.284  0.8747 -0.9845 -0.2133
  845MOL0     C11414   1.588  10.516   7.221 -0.4823 -0.1785  0.2572
  845MOL0     C11415   1.462  10.549   7.277 -0.1419 -1.2525  0.2309
  845MOL0     O11416   1.343  10.587   7.212  0.4166  0.0719 -0.0340
  845MOL0     C11417   1.359  10.620   7.068  0.2891 -0.4634  0.3619
  845MOL0     C11418   1.405  10.766   7.043 -0.2344  0.0914  0.9209
  845MOL0     C11419   1.387  10.830   6.906 -0.3442  0.0434  0.8450
  845MOL0     C11420   1.439  10.972   6.910  0.1347  0.3891 -0.5504
  845MOL0     C11421   1.432  11.034   6.766  1.3741  0.0640 -0.4155
  845MOL0     C11422   1.523  11.157   6.753 -0.1607 -0.1444  0.6361
  845MOL0     C11423   1.479  11.243   6.624 -0.1084 -0.5286 -0.3174
  845MOL0     C11424   1.536  11.382   6.613  0.1648  0.2647 -0.3404
  845MOL0     N11425   1.683  11.371   6.591  0.0874 -0.3679 -0.5657
  845MOL0     C11426   1.784  11.357   6.690  0.3660 -0.3094  0.4416
  845MOL0     C11427   1.896  11.325   6.618 -0.4300 -0.5255  0.6485
  845MOL0     C11428   2.030  11.310   6.698 -0.0195 -0.8337 -0.6760
  845MOL0     C11429   2.037  11.171   6.759 -0.1678 -0.8126 -1.0214
  845MOL0     C11430   2.080  11.052   6.677  0.7523 -1.1431 -0.0464
  845MOL0     C11431   2.079  10.919   6.751 -0.1516 -0.9542  0.4986
  845MOL0     O11432   1.950  10.891   6.792  0.5390 -0.0374 -0.2762
  845MOL0     C11433   1.901  10.763   6.794 -0.7082 -0.5779 -0.5092
  845MOL0     C11434   1.766  10.737   6.775  1.0087 -0.2422  1.0123
  845MOL0     C11435   1.717  10.610   6.781 -0.7729  0.0564  0.0968
  845MOL0     C11436   1.795  10.506   6.823  0.3335  1.2954  0.6137
  845MOL0     C11437   1.747  10.371   6.841 -0.1802 -0.2950 -0.4800
  845MOL0     O11438   1.809  10.291   6.928 -0.6202 -0.0143 -0.5624
  845MOL0     C11439   1.774  10.163   6.942 -0.8905 -0.1745 -0.3291
  845MOL0     C11440   1.714  10.125   7.068  0.9810 -0.3883  0.4386
  845MOL0     C11441   1.671   9.994   7.082  0.1599  0.0062  0.3666
  845MOL0     C11442   1.670   9.903   6.975 -0.3430  0.8067  1.1336
  845MOL0     O11443   1.606   9.783   6.986 -0.3764  0.3097  0.6216
  845MOL0     C11444   1.505   9.762   6.886 -0.0184  0.3353  0.0503
  845MOL0     C11445   1.460   9.613   6.896  0.3360 -0.2025 -0.4363
  845MOL0     C11446   1.383   9.568   6.768  0.2662  0.7751  0.4835
  845MOL0     C11447   1.331   9.421   6.782  0.1356 -1.2127  0.1980
  845MOL0     C11448   1.211   9.412   6.696  0.5071  0.1009 -0.0876
  845MOL0     C11449   1.114   9.280   6.711  0.7848  0.1651  0.7005
  845MOL0     C11450   1.192   9.160   6.657  0.3484  0.2439  0.8025
  845MOL0     C11451   1.106   9.028   6.664  0.1680 -0.2369 -0.2651
  845MOL0    Cl11452   1.194   8.886   6.609 -0.3256 -0.3885 -0.2717
  845MOL0     C11453   1.735   9.935   6.852 -0.0831 -0.0651 -0.0738
  845MOL0     C11454   1.791  10.064   6.842 -0.5247  0.9380  0.0870
  845MOL0     O11455   1.629  10.352   6.813 -0.2109  1.0042 -0.2858
  845MOL0     C11456   1.925  10.535   6.853 -0.3428  0.3096  0.6304
  845MOL0     C11457   1.981  10.661   6.849 -0.3309 -0.8232 -0.1114
  845MOL0     N11458   1.870  11.328   6.477  0.1133 -0.2562 -0.1642
  845MOL0     N11459   1.733  11.362   6.464 -0.7820  0.2129  0.2154
  845MOL0     C11460   1.457  10.545   7.416  0.3580  0.5775 -1.0052
  845MOL0     C11461   1.568  10.481   7.489  1.9009 -0.6255  0.1375
  845MOL0     C11462   1.900  10.174   7.549  0.6974  0.6725  0.2939
  845MOL0     C11463   1.992  10.257   7.622  0.3178  0.6255 -0.6712
  845MOL0     C11464   2.121  10.201   7.663 -0.5089 -0.7820 -0.2014
  845MOL0     C11465   2.147  10.062   7.649 -0.9640 -1.0955 -1.0946
  845MOL0     O11466   2.257   9.999   7.705  0.8460  0.4695  0.0967
  845MOL0     C11467   2.352  10.069   7.782  0.1614 -0.1513 -0.5359
  845MOL0     C11468   2.447  10.155   7.689  0.1270  0.3990 -1.1305
  845MOL0     C11469   2.581  10.192   7.766  0.0911  0.9071  0.7074
  845MOL0     C11470   2.569  10.320   7.851 -0.8895 -0.5608 -0.0906
  845MOL0     C11471   2.470  10.313   7.958  0.5162  0.1274 -0.0879
  845MOL0     C11472   2.382  10.311   8.044 -0.2650  0.1382  0.7356
  845MOL0     C11473   2.052   9.981   7.590  0.1080  0.9560  0.9450
  845MOL0     C11474   1.942  10.037   7.534 -0.0269 -0.2187  1.0466
  845MOL0     H11475   1.772  10.394   7.228  0.6597 -2.7866  0.8661
  845MOL0     H11476   1.607  10.533   7.115 -2.7129 -1.4362 -0.3890
  845MOL0     H11477   1.266  10.599   7.014 -0.3579 -1.8877  1.9461
  845MOL0     H11478   1.420  10.550   7.011 -2.4343 -0.6013 -2.7289
  845MOL0     H11479   1.509  10.763   7.074 -0.0674  0.3895  0.4068
  845MOL0     H11480   1.346  10.826   7.113 -2.2501  0.5997 -1.0536
  845MOL0     H11481   1.287  10.830   6.862  0.2529  0.9657 -0.5845
  845MOL0     H11482   1.447  10.781   6.829 -0.3377 -3.8046  3.0318
  845MOL0     H11483   1.375  11.031   6.977 -0.9073 -0.6000 -0.6389
  845MOL0     H11484   1.539  10.965   6.953 -0.5602 -1.2842  0.8818
  845MOL0     H11485   1.330  11.065   6.741 -0.0565 -3.7332 -0.0883
  845MOL0     H11486   1.468  10.963   6.691 -1.4858  1.0087 -2.8531
  845MOL0     H11487   1.629  11.132   6.745  0.4535  2.2952  0.2590
  845MOL0     H11488   1.511  11.217   6.843 -1.6689  0.0368  0.3468
  845MOL0     H11489   1.512  11.198   6.530 -2.9529  1.8939 -2.6754
  845MOL0     H11490   1.373  11.266   6.613  0.1309  0.0833 -1.6197
  845MOL0     H11491   1.513  11.430   6.709  1.1918 -2.1358  1.2264
  845MOL0     H11492   1.496  11.434   6.527  0.8648 -2.4995 -2.4951
  845MOL0     H11493   1.760  11.370   6.795  0.1784  1.4003  0.2202
  845MOL0     H11494   2.036  11.391   6.772  0.2462 -1.4625  0.0090
  845MOL0     H11495   2.118  11.329   6.636  0.2390 -1.0654 -0.3855
  845MOL0     H11496   1.939  11.143   6.801  0.9078 -1.7439  1.0082
  845MOL0     H11497   2.111  11.178   6.838 -0.1791 -1.1316 -0.9808
  845MOL0     H11498   2.008  11.046   6.594 -1.8562  1.5145  1.8123
  845MOL0     H11499   2.174  11.073   6.624  0.2704  3.4792  0.4949
  845MOL0     H11500   2.152  10.933   6.831 -0.2120 -0.4786  0.4735
  845MOL0     H11501   2.114  10.840   6.684  1.5435  1.6134 -1.8586
  845MOL0     H11502   1.711  10.828   6.753  1.2334  0.2471  2.3795
  845MOL0     H11503   1.611  10.587   6.767 -1.2243  2.5891 -1.3567
  845MOL0     H11504   1.696  10.194   7.150 -3.4760 -0.8941  0.0857
  845MOL0     H11505   1.614   9.980   7.174  0.2704  3.5302  1.1184
  845MOL0     H11506   1.551   9.776   6.788  0.8329 -1.4101  0.1738
  845MOL0     H11507   1.428   9.839   6.896 -1.0758 -0.2545 -2.7109
  845MOL0     H11508   1.388   9.600   6.977  2.4547 -0.4919  1.4863
  845MOL0     H11509   1.545   9.545   6.904  1.8512  1.8671  2.9488
  845MOL0     H11510   1.448   9.567   6.679  0.3873 -2.1481  0.4848
  845MOL0     H11511   1.298   9.632   6.740 -0.2764 -0.8879 -2.1155
  845MOL0     H11512   1.409   9.351   6.750  1.7185 -0.8323  2.9557
  845MOL0     H11513   1.310   9.410   6.889  0.7403  2.7257  0.8693
  845MOL0     H11514   1.228   9.437   6.591 -0.5202 -0.1822 -0.3334
  845MOL0     H11515   1.145   9.489   6.736  0.5957  0.2779 -0.2855
  845MOL0     H11516   1.020   9.287   6.655 -0.4886 -0.9656  2.5955
  845MOL0     H11517   1.089   9.263   6.816  0.6953  1.6115  0.9301
  845MOL0     H11518   1.214   9.189   6.554  1.1105  2.3940  1.5201
  845MOL0     H11519   1.282   9.150   6.718  0.5640  0.5480  0.5430
  845MOL0     H11520   1.028   9.030   6.587  0.0115 -0.4816 -0.1134
  845MOL0     H11521   1.072   9.013   6.767  1.8544  0.9574  0.4980
  845MOL0     H11522   1.743   9.871   6.765 -1.3762  0.5483 -0.6642
  845MOL0     H11523   1.825  10.105   6.747  0.9144  1.1794  0.6853
  845MOL0     H11524   1.990  10.458   6.892 -0.2716 -2.2146 -3.7285
  845MOL0     H11525   2.083  10.674   6.885 -1.0787 -0.1959  1.9527
  845MOL0     H11526   1.369  10.583   7.467  0.5884 -1.2791  0.8779
  845MOL0     H11527   1.560  10.482   7.597  0.4976 -0.3329  0.0511
  845MOL0     H11528   1.973  10.364   7.624 -2.2236  0.2200 -0.7687
  845MOL0     H11529   2.192  10.276   7.697  0.2383 -1.2472 -0.6769
  845MOL0     H11530   2.412   9.999   7.841  1.9090  0.8391 -1.0730
  845MOL0     H11531   2.307  10.134   7.859  1.8827  0.7217 -0.2122
  845MOL0     H11532   2.477  10.092   7.604 -1.0471 -1.5620 -0.1455
  845MOL0     H11533   2.403  10.246   7.647 -0.8112  0.3482 -0.2936
  845MOL0     H11534   2.655  10.203   7.686 -0.9014  0.0389 -0.3654
  845MOL0     H11535   2.620  10.103   7.816  1.4841  1.0770 -0.0185
  845MOL0     H11536   2.661  10.341   7.906 -0.7936 -1.1092 -0.0394
  845MOL0     H11537   2.551  10.403   7.781  2.4575  0.5330  0.1326
  845MOL0     H11538   2.297  10.301   8.108 -0.7432  1.0721  0.2629
  845MOL0     H11539   2.070   9.874   7.588 -1.2672  0.6551 -2.1501
  845MOL0     H11540   1.880   9.967   7.478  0.2788 -1.3841  2.1207
  846MOL0     O11541   9.130   6.199   7.671  0.1518  0.5963  0.0994
  846MOL0     C11542   9.115   6.107   7.754  0.2694 -1.9293  0.3745
  846MOL0     O11543   9.053   5.984   7.734  0.6799 -0.5083  0.0131
  846MOL0     C11544   8.996   5.946   7.620  0.3837  0.3926  0.6720
  846MOL0     C11545   8.939   6.024   7.516 -0.7217 -0.4354 -0.2052
  846MOL0     C11546   8.864   5.955   7.417 -0.1490 -0.6685  0.9328
  846MOL0     C11547   8.841   5.819   7.405  0.7655  0.6775  0.2319
  846MOL0     O11548   8.791   5.745   7.307  0.2082  0.1808 -0.1212
  846MOL0     C11549   8.736   5.818   7.196  1.1323  0.7492  0.6938
  846MOL0     C11550   8.690   5.717   7.098  1.2034  0.3590  0.1816
  846MOL0     C11551   8.544   5.658   7.091  0.9079 -0.0658  0.0450
  846MOL0     C11552   8.499   5.586   7.218  0.7626 -0.2591  0.6527
  846MOL0     C11553   8.422   5.455   7.196  0.6569  1.0920 -0.8391
  846MOL0     C11554   8.280   5.481   7.122 -0.4530 -0.5469 -0.2060
  846MOL0     C11555   8.209   5.349   7.107 -0.3171  0.1529  0.0251
  846MOL0     C11556   8.156   5.297   7.244 -1.0203 -1.1911  1.0200
  846MOL0     N11557   8.056   5.197   7.231 -0.4846 -0.2327  0.0153
  846MOL0     C11558   8.038   5.080   7.159 -0.3582  0.2898  1.0552
  846MOL0     C11559   7.908   5.051   7.167 -0.1893  0.1501  0.9953
  846MOL0     C11560   7.838   4.944   7.101  0.1851 -0.9266 -0.0278
  846MOL0     C11561   7.763   4.986   6.980  1.1868 -0.6642  0.0400
  846MOL0     C11562   7.644   5.084   7.002  0.5474 -1.2201  0.4952
  846MOL0     C11563   7.511   5.020   7.047  0.1899  0.9798 -0.3387
  846MOL0     O11564   7.420   5.127   7.077  0.3514  0.3685 -0.0072
  846MOL0     C11565   7.298   5.076   7.118 -0.3679  0.2399 -1.2562
  846MOL0     C11566   7.209   5.189   7.153  1.2297  0.2587  0.1296
  846MOL0     C11567   7.080   5.159   7.208  0.3404 -0.1259  0.4836
  846MOL0     C11568   7.038   5.026   7.217  0.5175  1.3719 -0.6119
  846MOL0     C11569   6.904   4.988   7.265  0.5594  0.4088  0.5214
  846MOL0     O11570   6.876   4.855   7.302  0.5344  0.5092 -0.6977
  846MOL0     C11571   6.757   4.820   7.350  0.1405 -0.2663  0.5948
  846MOL0     C11572   6.759   4.742   7.464 -0.5807  0.0087 -0.7801
  846MOL0     C11573   6.644   4.678   7.509 -0.2270 -0.9786 -0.0022
  846MOL0     C11574   6.517   4.709   7.445 -0.5797 -0.3477  0.5149
  846MOL0     O11575   6.403   4.650   7.480  0.1531  0.3790 -1.0376
  846MOL0     C11576   6.370   4.618   7.620 -0.7733 -0.4613 -0.0620
  846MOL0     C11577   6.268   4.504   7.626 -0.2066  0.4752  1.4537
  846MOL0     C11578   6.226   4.484   7.768 -0.0126 -0.5258  0.7398
  846MOL0     C11579   6.187   4.338   7.786 -0.2722 -1.6762 -0.1967
  846MOL0     C11580   6.135   4.315   7.933 -0.0630 -0.3197 -0.7104
  846MOL0     C11581   6.104   4.167   7.939  0.5713  0.3561  0.1784
  846MOL0     C11582   6.056   4.120   8.076 -0.0687 -0.1744  0.7803
  846MOL0     C11583   6.019   3.970   8.066  0.8325 -0.7241  0.4005
  846MOL0    Cl11584   5.949   3.931   8.232 -0.3336  0.1730 -0.1011
  846MOL0     C11585   6.518   4.787   7.336 -0.0169 -0.4570 -0.2599
  846MOL0     C11586   6.631   4.838   7.283 -0.9481 -0.2380  0.2611
  846MOL0     O11587   6.824   5.077   7.268  0.1162 -0.0909 -0.2876
  846MOL0     C11588   7.134   4.921   7.194  0.1295 -0.3348 -0.0414
  846MOL0     C11589   7.259   4.941   7.144  0.2256  0.3696  0.4669
  846MOL0     N11590   7.846   5.125   7.260  0.3992 -0.5044  0.8690
  846MOL0     N11591   7.936   5.217   7.297 -0.5231  0.2135 -0.8410
  846MOL0     C11592   8.889   5.751   7.517 -0.2644 -0.2173  1.1613
  846MOL0     C11593   8.963   5.813   7.622 -0.3652 -0.5166 -0.5474
  846MOL0     C11594   9.155   6.134   7.886  0.6659 -0.8359 -0.7535
  846MOL0     C11595   9.100   6.051   7.988 -0.3235 -1.0236  0.3613
  846MOL0     C11596   9.119   6.097   8.125  0.7052 -0.1840  0.5278
  846MOL0     C11597   9.178   6.218   8.157 -0.0490 -0.2372 -0.8826
  846MOL0     O11598   9.182   6.261   8.285  1.1082 -0.7297  0.0221
  846MOL0     C11599   9.111   6.388   8.291 -0.2604  0.0416  0.2372
  846MOL0     C11600   9.080   6.440   8.420 -0.5874  0.2771 -0.9061
  846MOL0     C11601   9.012   6.334   8.504 -0.1106 -0.6673  0.1475
  846MOL0     C11602   8.868   6.307   8.462  1.0136  0.5220 -0.1689
  846MOL0     C11603   8.823   6.192   8.549  0.2515 -0.5774  0.3492
  846MOL0     C11604   8.800   6.089   8.595  0.4078 -0.2304  0.3850
  846MOL0     C11605   9.232   6.288   8.054  0.0224 -0.5006  0.2664
  846MOL0     C11606   9.230   6.247   7.920  0.4982 -0.4461 -0.3704
  846MOL0     H11607   8.962   6.128   7.495 -0.8631 -0.3607  0.0098
  846MOL0     H11608   8.829   6.011   7.331  1.8939 -2.5372 -1.3075
  846MOL0     H11609   8.802   5.889   7.145 -0.1603  0.5570 -1.3795
  846MOL0     H11610   8.646   5.875   7.220 -2.4182 -3.2879 -1.6245
  846MOL0     H11611   8.759   5.633   7.109  1.7812  0.9661  1.4259
  846MOL0     H11612   8.721   5.760   7.002  1.2368  3.1341  1.3334
  846MOL0     H11613   8.545   5.585   7.009 -0.6431 -0.2534  0.1700
  846MOL0     H11614   8.471   5.735   7.066  2.5414  2.1383  1.7409
  846MOL0     H11615   8.586   5.551   7.273  0.1007 -3.4686 -0.1365
  846MOL0     H11616   8.438   5.648   7.285 -0.4089  0.5854 -1.1377
  846MOL0     H11617   8.401   5.420   7.298  5.8244 -0.2667  0.0551
  846MOL0     H11618   8.484   5.386   7.139  1.5773  3.6154 -3.0581
  846MOL0     H11619   8.295   5.536   7.028 -0.2478  1.3071  0.8495
  846MOL0     H11620   8.215   5.545   7.183  0.8692  2.4109 -1.6840
  846MOL0     H11621   8.137   5.377   7.030 -1.1769  3.4691  1.8542
  846MOL0     H11622   8.288   5.286   7.063  0.0171  1.5047 -1.4027
  846MOL0     H11623   8.115   5.384   7.295 -1.2778 -0.6221 -0.1276
  846MOL0     H11624   8.234   5.255   7.309 -0.8026 -4.7741 -1.2476
  846MOL0     H11625   8.110   5.025   7.100  0.4733  1.0357  1.3554
  846MOL0     H11626   7.763   4.908   7.171  2.3054 -2.3863  1.6223
  846MOL0     H11627   7.910   4.868   7.069  1.8346  0.5252  0.0677
  846MOL0     H11628   7.725   4.893   6.936 -0.3472 -1.6382  3.1180
  846MOL0     H11629   7.834   5.037   6.915  1.0882  1.0703  1.2390
  846MOL0     H11630   7.669   5.161   7.076 -3.2837  1.9326 -1.0957
  846MOL0     H11631   7.605   5.129   6.910 -2.4868  0.7707  2.5335
  846MOL0     H11632   7.525   4.961   7.138 -1.4852 -0.7602 -1.1389
  846MOL0     H11633   7.487   4.966   6.956  1.4012 -1.4185  0.6803
  846MOL0     H11634   7.236   5.294   7.156 -0.3937  0.6799  1.6707
  846MOL0     H11635   7.018   5.248   7.216  1.2946  0.7511 -1.1632
  846MOL0     H11636   6.858   4.751   7.507 -0.8236 -0.6847 -0.0463
  846MOL0     H11637   6.647   4.615   7.597  2.0910 -1.1545 -0.1360
  846MOL0     H11638   6.317   4.702   7.666  0.4525 -0.8314  2.1273
  846MOL0     H11639   6.462   4.601   7.676  0.4368  4.8507  0.1119
  846MOL0     H11640   6.320   4.413   7.593 -2.4343 -0.9627  1.6677
  846MOL0     H11641   6.176   4.505   7.567 -0.5493  0.3130  1.9766
  846MOL0     H11642   6.156   4.565   7.793  1.0493  0.6698 -0.0416
  846MOL0     H11643   6.312   4.505   7.831  1.5219  1.3882 -1.8053
  846MOL0     H11644   6.106   4.313   7.717  0.4767 -3.4224 -0.5114
  846MOL0     H11645   6.270   4.270   7.768 -0.2062 -2.0169  1.2376
  846MOL0     H11646   6.040   4.366   7.951 -0.5438 -1.3305 -0.3219
  846MOL0     H11647   6.213   4.336   8.007 -1.7941 -0.0467  1.1081
  846MOL0     H11648   6.185   4.110   7.894  0.7076 -1.1245  2.1593
  846MOL0     H11649   6.016   4.150   7.875  1.7764  2.1520 -2.1183
  846MOL0     H11650   6.135   4.112   8.151 -2.6644 -1.2836  3.6082
  846MOL0     H11651   5.967   4.176   8.105  0.7219 -0.0119  3.0722
  846MOL0     H11652   6.109   3.911   8.046  1.0955  0.4977 -2.4511
  846MOL0     H11653   5.939   3.954   7.994 -1.8152  0.8350  2.7859
  846MOL0     H11654   6.430   4.825   7.287  0.9612 -1.8052 -3.2877
  846MOL0     H11655   6.614   4.906   7.200  1.1635  1.4862  1.1376
  846MOL0     H11656   7.108   4.817   7.213  0.3938 -0.6273 -1.1884
  846MOL0     H11657   7.322   4.858   7.113  0.3467  0.3199  0.8354
  846MOL0     H11658   8.878   5.643   7.511 -4.4856  0.0149  1.3502
  846MOL0     H11659   8.988   5.760   7.714  1.1373  1.6058  0.3353
  846MOL0     H11660   9.037   5.963   7.974 -1.3177 -1.4208  5.3527
  846MOL0     H11661   9.074   6.048   8.211  1.2382  1.2929  1.7064
  846MOL0     H11662   9.017   6.377   8.235 -1.7028 -2.9122  2.8905
  846MOL0     H11663   9.173   6.470   8.254 -2.0820  2.7060  2.6438
  846MOL0     H11664   9.173   6.464   8.472 -0.8219 -1.4985  0.4314
  846MOL0     H11665   9.006   6.520   8.418  0.5474  1.5880  2.4108
  846MOL0     H11666   9.009   6.352   8.612 -0.7196 -2.1259  0.4076
  846MOL0     H11667   9.065   6.238   8.496  1.3387 -0.1558  2.4616
  846MOL0     H11668   8.810   6.396   8.488  0.6192  0.2367 -0.0630
  846MOL0     H11669   8.857   6.280   8.357  4.2615 -2.8591  0.1607
  846MOL0     H11670   8.776   5.996   8.642 -0.0529 -1.7306 -2.5732
  846MOL0     H11671   9.287   6.377   8.082  1.7794 -1.0539 -1.2412
  846MOL0     H11672   9.270   6.296   7.832 -1.8213 -1.0858 -1.8601
  847MOL0     O11673   0.191   2.396  10.589 -0.4474  0.1066 -0.5300
  847MOL0     C11674   0.301   2.347  10.586 -0.9643  0.6044  0.6291
  847MOL0     O11675   0.399   2.366  10.684 -0.4615  0.2935  0.7375
  847MOL0     C11676   0.369   2.361  10.815 -0.2207 -0.5970 -0.4513
  847MOL0     C11677   0.464   2.419  10.903 -0.0486 -0.1997  0.0213
  847MOL0     C11678   0.444   2.429  11.043 -0.0658  0.1277 -0.5597
  847MOL0     C11679   0.338   2.368  11.101  0.6838 -0.1661  0.0355
  847MOL0     O11680   0.325   2.356  11.240 -0.2758 -0.2584  0.3536
  847MOL0     C11681   0.316   2.464  11.328  0.8358  0.0670  0.3604
  847MOL0     C11682   0.379   2.433  11.464  0.0242  0.4036 -0.0605
  847MOL0     C11683   0.367   2.556  11.552 -0.0744  0.0674 -0.9441
  847MOL0     C11684   0.291   2.543  11.681 -0.1018 -0.1570  0.4751
  847MOL0     C11685   0.293   2.678  11.761 -0.4613  0.7505  0.6013
  847MOL0     C11686   0.198   2.681  11.878 -1.7140  0.2284  0.0396
  847MOL0     C11687   0.208   2.824  11.946  0.2009  0.4446  0.6768
  847MOL0     C11688   0.348   2.886  11.977  0.4154  0.3806  0.4353
  847MOL0     N11689   0.351   3.000  12.074 -0.4525 -0.2511 -0.0037
  847MOL0     C11690   0.270   3.114  12.062  0.0468  0.1745 -0.4189
  847MOL0     C11691   0.250   3.167  12.180 -0.2980 -0.0218 -0.3529
  847MOL0     C11692   0.158   3.291  12.181 -0.1564  0.1975 -0.0840
  847MOL0     C11693   0.018   3.266  12.230 -0.6876 -0.7300 -0.8766
  847MOL0     C11694  -0.060   3.185  12.127  0.0973 -0.5368  0.1287
  847MOL0     C11695  -0.198   3.162  12.181  0.4234  0.3369 -0.5205
  847MOL0     O11696  -0.286   3.065  12.122  0.0557 -0.3215  0.6027
  847MOL0     C11697  -0.237   2.946  12.099 -0.1602 -0.6453  0.9811
  847MOL0     C11698  -0.134   2.872  12.160 -0.0422  0.2023 -1.1952
  847MOL0     C11699  -0.097   2.750  12.117  0.2038 -0.2277  0.4936
  847MOL0     C11700  -0.169   2.692  12.009 -0.2904 -0.6567  0.5547
  847MOL0     C11701  -0.132   2.561  11.971  0.4650  0.3737 -0.1863
  847MOL0     O11702  -0.068   2.475  12.053  0.3383  0.3667 -0.4531
  847MOL0     C11703  -0.072   2.336  12.043 -1.3202  0.2665  0.4169
  847MOL0     C11704   0.014   2.264  12.132  0.0386 -0.4052  0.2803
  847MOL0     C11705   0.039   2.133  12.119 -0.0563 -0.8021  0.3594
  847MOL0     C11706  -0.018   2.060  12.017 -0.1386  0.2435  0.4692
  847MOL0     O11707   0.023   1.934  11.985 -0.8516  0.0048 -0.4508
  847MOL0     C11708   0.033   1.835  12.089 -0.4750 -0.7105  0.1030
  847MOL0     C11709   0.177   1.763  12.090 -0.0560  0.7871 -0.3413
  847MOL0     C11710   0.163   1.634  12.175  0.6956  0.2983 -1.2158
  847MOL0     C11711   0.295   1.569  12.209 -0.2756  1.0120 -1.2605
  847MOL0     C11712   0.284   1.428  12.267 -0.3380 -0.6870 -0.9001
  847MOL0     C11713   0.199   1.430  12.394  0.1843 -1.0140  0.1201
  847MOL0     C11714   0.080   1.345  12.398  0.1441 -0.0850  1.4910
  847MOL0     C11715   0.096   1.207  12.439 -0.4187 -0.0771  0.4073
  847MOL0    Cl11716   0.142   1.124  12.293  0.0705  0.3426  0.3357
  847MOL0     C11717  -0.114   2.118  11.931 -0.8634  0.1786 -0.6808
  847MOL0     C11718  -0.145   2.259  11.949  0.2493  0.2313  0.5499
  847MOL0     O11719  -0.178   2.532  11.861 -0.1372 -0.1000 -0.8416
  847MOL0     C11720  -0.279   2.753  11.950  1.3252 -1.5958 -0.7373
  847MOL0     C11721  -0.307   2.886  11.994 -0.0730  0.5991  0.2666
  847MOL0     N11722   0.315   3.093  12.273 -0.1779  0.3568  0.0225
  847MOL0     N11723   0.370   2.992  12.205 -0.1882 -0.0397 -0.4916
  847MOL0     C11724   0.237   2.308  11.019  0.2294  0.4352 -0.1032
  847MOL0     C11725   0.256   2.305  10.875  0.7886 -0.5157 -0.0609
  847MOL0     C11726   0.332   2.266  10.462  0.2920 -0.3143  0.3096
  847MOL0     C11727   0.459   2.213  10.453  0.8345  0.6470  0.8935
  847MOL0     C11728   0.488   2.158  10.323 -0.4157 -0.1500 -0.7743
  847MOL0     C11729   0.399   2.156  10.215 -0.3500 -0.9962 -0.2408
  847MOL0     O11730   0.444   2.112  10.097  0.1539 -0.1052 -0.4188
  847MOL0     C11731   0.396   2.168   9.972 -0.5036 -1.1807 -0.7116
  847MOL0     C11732   0.276   2.093   9.919  0.2310 -0.6772  0.7901
  847MOL0     C11733   0.311   1.953   9.860 -0.7489  0.6045 -0.1841
  847MOL0     C11734   0.175   1.874   9.820 -0.1479  0.1907 -1.0083
  847MOL0     C11735   0.057   1.887   9.906 -0.7809 -0.3564  0.5415
  847MOL0     C11736  -0.040   1.895   9.975  0.1089 -0.0657 -0.2231
  847MOL0     C11737   0.268   2.209  10.237 -0.3500  0.3851 -0.7231
  847MOL0     C11738   0.240   2.257  10.357 -0.8634 -0.8779 -0.5825
  847MOL0     H11739   0.552   2.464  10.859 -1.4452  0.0175 -2.7447
  847MOL0     H11740   0.519   2.485  11.098 -1.5920  4.0206 -2.1371
  847MOL0     H11741   0.212   2.497  11.335  0.5080 -0.5778 -1.0984
  847MOL0     H11742   0.363   2.548  11.276 -3.6351  2.6874  0.0435
  847MOL0     H11743   0.480   2.392  11.448 -0.5817 -0.6500 -1.5071
  847MOL0     H11744   0.330   2.341  11.498  1.5908 -0.1527  0.8241
  847MOL0     H11745   0.324   2.631  11.485  0.2428 -0.2942 -1.5606
  847MOL0     H11746   0.469   2.594  11.566  0.4062 -1.0158 -1.3958
  847MOL0     H11747   0.186   2.519  11.659 -0.2699  1.4641 -0.6552
  847MOL0     H11748   0.333   2.460  11.739 -1.5277 -2.9857 -2.2344
  847MOL0     H11749   0.268   2.758  11.691 -1.0023 -1.0186 -1.3368
  847MOL0     H11750   0.397   2.690  11.792 -0.2572  0.1214  0.1770
  847MOL0     H11751   0.227   2.602  11.948 -0.1068 -0.4769 -1.3377
  847MOL0     H11752   0.099   2.657  11.839 -2.1098  1.4432  0.2750
  847MOL0     H11753   0.162   2.902  11.885  1.7145  1.3566  0.6509
  847MOL0     H11754   0.150   2.819  12.039 -0.8916 -1.6226 -0.0462
  847MOL0     H11755   0.388   2.935  11.888  0.2577  0.0289  0.1718
  847MOL0     H11756   0.420   2.812  12.012 -0.9727 -1.7151 -0.9399
  847MOL0     H11757   0.243   3.148  11.962  0.9790 -1.3885 -1.2407
  847MOL0     H11758   0.160   3.323  12.077 -2.9176  3.9185  0.8096
  847MOL0     H11759   0.215   3.361  12.243 -0.1553  1.1995 -1.1857
  847MOL0     H11760  -0.039   3.358  12.247  0.4940 -0.3633  1.6440
  847MOL0     H11761   0.040   3.221  12.327 -1.4687 -3.4399 -1.8716
  847MOL0     H11762  -0.067   3.237  12.031 -0.8838 -2.6776 -1.0243
  847MOL0     H11763  -0.005   3.092  12.111 -0.0508 -0.4217 -1.2171
  847MOL0     H11764  -0.246   3.260  12.189 -1.7977 -0.5140 -2.3060
  847MOL0     H11765  -0.168   3.116  12.276 -1.3114 -1.3121 -0.6975
  847MOL0     H11766  -0.096   2.916  12.252 -0.1540 -1.7468 -0.1766
  847MOL0     H11767  -0.016   2.695  12.163  0.3923 -0.8150 -0.5105
  847MOL0     H11768   0.060   2.331  12.204 -2.1590  2.4065 -0.7138
  847MOL0     H11769   0.104   2.086  12.192 -0.9641 -1.6276  0.6636
  847MOL0     H11770  -0.041   1.761  12.058  0.8114 -1.8030 -0.4903
  847MOL0     H11771   0.010   1.880  12.185  1.8161  1.5791 -0.3085
  847MOL0     H11772   0.268   1.818  12.118 -1.3410  2.5672  0.5503
  847MOL0     H11773   0.194   1.728  11.988 -1.1097  0.0580 -0.2825
  847MOL0     H11774   0.091   1.568  12.125 -1.4206 -0.4185  2.4052
  847MOL0     H11775   0.110   1.659  12.268  0.4446 -0.6206 -1.0976
  847MOL0     H11776   0.350   1.550  12.116  1.0130  0.8150 -0.4829
  847MOL0     H11777   0.356   1.636  12.270  1.7549  1.7129 -3.8587
  847MOL0     H11778   0.382   1.384  12.289  0.8202  2.6835  1.6581
  847MOL0     H11779   0.233   1.359  12.200 -1.7931  1.6803 -2.3368
  847MOL0     H11780   0.167   1.528  12.430 -1.3976 -0.4270 -2.6452
  847MOL0     H11781   0.263   1.394  12.476 -0.5337 -0.8563  0.7611
  847MOL0     H11782   0.012   1.390  12.471 -2.6359 -1.1883 -0.2622
  847MOL0     H11783   0.025   1.354  12.304  1.7322 -2.6996  0.2092
  847MOL0     H11784  -0.003   1.172  12.472 -0.1036 -1.7890 -0.3688
  847MOL0     H11785   0.161   1.204  12.527  1.2999  1.0305 -0.7858
  847MOL0     H11786  -0.167   2.056  11.859 -0.1872 -0.7211 -0.4143
  847MOL0     H11787  -0.214   2.304  11.878  0.2969 -0.0410  0.3298
  847MOL0     H11788  -0.338   2.706  11.872  1.2251 -0.3447 -1.4526
  847MOL0     H11789  -0.396   2.933  11.955 -1.1724 -0.8460  0.9423
  847MOL0     H11790   0.149   2.270  11.069  0.7143  1.0408  1.2548
  847MOL0     H11791   0.188   2.271  10.798  1.9137  1.0430 -1.8371
  847MOL0     H11792   0.534   2.220  10.531  1.2000  0.1017  0.6013
  847MOL0     H11793   0.591   2.123  10.315 -0.9999 -2.2406  0.3000
  847MOL0     H11794   0.472   2.169   9.893 -2.6588  3.2188 -3.1449
  847MOL0     H11795   0.370   2.273   9.988 -4.0787 -1.7841 -1.7468
  847MOL0     H11796   0.196   2.084   9.993 -0.5391  1.5047  0.2921
  847MOL0     H11797   0.235   2.140   9.829  1.8271 -0.3746  0.1799
  847MOL0     H11798   0.361   1.883   9.928  1.1919  1.9016 -0.1951
  847MOL0     H11799   0.373   1.961   9.770  0.8686  0.0429  0.8343
  847MOL0     H11800   0.163   1.905   9.715 -1.0259 -2.3703 -1.7282
  847MOL0     H11801   0.185   1.765   9.815 -2.1849 -0.0977  0.1576
  847MOL0     H11802  -0.122   1.910  10.042 -0.1403 -0.1729 -0.5069
  847MOL0     H11803   0.193   2.225  10.161 -1.1214  2.2292  0.3551
  847MOL0     H11804   0.148   2.314  10.363  0.9965  2.1792  2.7619
  848MOL0     O11805   8.084   0.672   4.325  0.8157  0.7166 -0.6760
  848MOL0     C11806   8.056   0.625   4.432 -0.1706  0.1693  0.5082
  848MOL0     O11807   8.055   0.691   4.553  0.4677 -0.4508 -0.1310
  848MOL0     C11808   8.066   0.827   4.582 -0.0328 -0.0950 -0.4630
  848MOL0     C11809   8.125   0.917   4.491  0.2212 -0.9084  0.9123
  848MOL0     C11810   8.121   1.057   4.518 -0.2554 -0.8542 -1.0962
  848MOL0     C11811   8.086   1.102   4.650  0.6707 -0.6273 -0.4780
  848MOL0     O11812   8.078   1.240   4.684 -0.0214 -0.5029 -0.2786
  848MOL0     C11813   8.169   1.318   4.617  0.2302  0.5888 -0.2209
  848MOL0     C11814   8.215   1.425   4.723  0.1834  0.4968  0.0194
  848MOL0     C11815   8.105   1.514   4.787 -0.4468 -0.4666  0.8893
  848MOL0     C11816   8.163   1.612   4.901  0.6093 -0.3297 -0.1791
  848MOL0     C11817   8.121   1.758   4.884 -0.3110  0.6700  0.5298
  848MOL0     C11818   8.187   1.836   4.768 -0.5665  0.9014 -0.2408
  848MOL0     C11819   8.338   1.831   4.777 -1.0414 -0.2442  0.3406
  848MOL0     C11820   8.407   1.941   4.692  0.4849 -0.0680  0.5466
  848MOL0     N11821   8.418   2.068   4.758 -0.3734 -0.6797  0.7875
  848MOL0     C11822   8.536   2.125   4.796  0.4507 -0.6859 -0.3206
  848MOL0     C11823   8.506   2.243   4.859  0.3463 -0.1354 -0.5262
  848MOL0     C11824   8.603   2.349   4.903 -0.7284 -0.5031 -0.1456
  848MOL0     C11825   8.641   2.417   4.768  0.4927 -0.5225  1.1314
  848MOL0     C11826   8.778   2.373   4.712 -0.0264  0.0720  0.8694
  848MOL0     C11827   8.797   2.418   4.562 -0.0324 -0.0439 -0.2801
  848MOL0     O11828   8.852   2.553   4.553 -0.0580 -0.5492  0.0273
  848MOL0     C11829   8.974   2.548   4.515  0.2804 -0.5616  0.6270
  848MOL0     C11830   8.998   2.517   4.379 -0.2516  0.6934  0.1883
  848MOL0     C11831   9.133   2.524   4.331  0.2855 -0.1980  1.1800
  848MOL0     C11832   9.234   2.567   4.415 -0.4485 -1.1890 -0.0619
  848MOL0     C11833   9.373   2.583   4.371 -0.8740  1.6563  0.6265
  848MOL0     O11834   9.449   2.668   4.435 -0.5271 -0.4245  0.1453
  848MOL0     C11835   9.585   2.673   4.384 -0.5290 -1.4298 -0.4042
  848MOL0     C11836   9.672   2.567   4.403  0.0087  0.1996 -0.2916
  848MOL0     C11837   9.809   2.573   4.365 -0.6175 -0.2608  0.5070
  848MOL0     C11838   9.852   2.685   4.296  1.0701  0.6231  0.6258
  848MOL0     O11839   9.977   2.703   4.264  0.5737 -0.3169  0.3606
  848MOL0     C11840  10.085   2.697   4.358 -0.5220  0.1584 -0.9265
  848MOL0     C11841  10.073   2.829   4.443 -0.5813  0.7102 -0.0018
  848MOL0     C11842  10.105   2.965   4.393 -0.5844 -0.6716 -0.3732
  848MOL0     C11843  10.094   3.071   4.506 -0.5043  0.6066 -0.2152
  848MOL0     C11844  10.128   3.206   4.445  0.4386 -0.4933  0.1154
  848MOL0     C11845  10.123   3.314   4.553  0.0307 -0.3422 -0.1050
  848MOL0     C11846  10.157   3.463   4.529  0.3353 -0.3300 -0.4040
  848MOL0     C11847  10.277   3.475   4.439 -0.8321 -0.1034  0.0762
  848MOL0    Cl11848  10.438   3.402   4.508 -0.2043 -0.3594 -0.0276
  848MOL0     C11849   9.765   2.789   4.260 -0.7932 -1.5129 -0.1796
  848MOL0     C11850   9.628   2.784   4.303 -0.1021  0.2798 -0.7939
  848MOL0     O11851   9.403   2.508   4.278 -0.4614 -0.1048  0.4374
  848MOL0     C11852   9.202   2.601   4.549 -0.3759  0.8159 -0.0388
  848MOL0     C11853   9.076   2.596   4.595 -0.1391  0.3179  0.2602
  848MOL0     N11854   8.372   2.265   4.842  0.1460  0.2764 -0.0600
  848MOL0     N11855   8.321   2.162   4.776 -0.3071 -0.1311 -0.5712
  848MOL0     C11856   8.033   1.009   4.736  0.6056 -0.5292 -0.2411
  848MOL0     C11857   8.010   0.877   4.700 -0.1484  0.5762  0.3716
  848MOL0     C11858   8.039   0.472   4.429  0.0020 -0.2798 -0.0691
  848MOL0     C11859   8.082   0.394   4.326  0.9993 -0.7985  0.3217
  848MOL0     C11860   8.048   0.257   4.319 -0.6291  0.2203  0.1437
  848MOL0     C11861   7.991   0.184   4.426 -0.1064  0.4567 -0.0290
  848MOL0     O11862   7.981   0.050   4.403  0.6391  0.1339  0.0385
  848MOL0     C11863   7.953  -0.037   4.510 -0.6271 -1.0129  0.4961
  848MOL0     C11864   7.804  -0.040   4.538 -0.0473  0.0491  0.3462
  848MOL0     C11865   7.760  -0.100   4.679 -0.7343 -0.2836  0.8429
  848MOL0     C11866   7.617  -0.164   4.665 -1.4203 -0.2193 -1.2278
  848MOL0     C11867   7.518  -0.067   4.620  0.5484 -0.0514  0.1484
  848MOL0     C11868   7.413  -0.002   4.610 -0.2373  0.6908  0.8536
  848MOL0     C11869   7.960   0.262   4.537  0.3971 -0.5322 -1.0480
  848MOL0     C11870   7.980   0.404   4.539  0.0207 -0.3968 -0.4675
  848MOL0     H11871   8.142   0.882   4.390 -0.8145 -1.0481  0.7817
  848MOL0     H11872   8.148   1.123   4.436  1.0011 -1.0157 -0.8330
  848MOL0     H11873   8.120   1.371   4.535  0.1156  1.8229  0.6296
  848MOL0     H11874   8.251   1.258   4.577  0.3247 -1.7679  3.0764
  848MOL0     H11875   8.286   1.496   4.681 -0.6462  0.7552 -0.9617
  848MOL0     H11876   8.276   1.382   4.803  1.1678  1.4636 -0.1889
  848MOL0     H11877   8.029   1.449   4.832 -0.0429 -0.9460  0.8784
  848MOL0     H11878   8.056   1.562   4.701 -1.9022  1.5052  2.6993
  848MOL0     H11879   8.128   1.583   5.001 -0.2007  3.3630  0.7566
  848MOL0     H11880   8.272   1.603   4.901  0.6517  0.1421  0.0398
  848MOL0     H11881   8.147   1.795   4.984 -1.3447  0.7398  0.7852
  848MOL0     H11882   8.013   1.771   4.873 -0.2752 -0.4420 -1.7999
  848MOL0     H11883   8.169   1.943   4.770 -1.9395  0.6777  0.5525
  848MOL0     H11884   8.142   1.796   4.676 -0.6214 -0.3502  0.3058
  848MOL0     H11885   8.371   1.823   4.881  1.0662 -2.6622 -0.3981
  848MOL0     H11886   8.375   1.738   4.733  0.3119 -0.8980  2.6990
  848MOL0     H11887   8.339   1.950   4.608 -0.0350 -0.7009  0.8887
  848MOL0     H11888   8.502   1.896   4.662 -0.2222  0.2085 -2.4140
  848MOL0     H11889   8.636   2.088   4.775  1.5525  0.7386  2.0264
  848MOL0     H11890   8.693   2.323   4.958 -0.3057 -0.1422 -0.6534
  848MOL0     H11891   8.539   2.417   4.960 -3.4997 -1.4252 -1.9471
  848MOL0     H11892   8.643   2.526   4.774 -2.1941 -0.1526 -1.9953
  848MOL0     H11893   8.571   2.396   4.687  3.6314 -1.6089 -1.5247
  848MOL0     H11894   8.867   2.411   4.765 -1.3927  2.6947  1.4563
  848MOL0     H11895   8.782   2.264   4.702  2.5855  0.2370 -0.6767
  848MOL0     H11896   8.697   2.428   4.518  0.4837  2.6419 -1.0112
  848MOL0     H11897   8.858   2.346   4.508  5.6501 -0.2864  5.2863
  848MOL0     H11898   8.917   2.477   4.319 -0.9889 -2.6605  3.0844
  848MOL0     H11899   9.153   2.505   4.226 -3.1181  1.0225  0.1693
  848MOL0     H11900   9.646   2.482   4.465 -0.3590 -0.3635 -1.1989
  848MOL0     H11901   9.883   2.494   4.363  1.8610  1.9230 -0.5353
  848MOL0     H11902  10.184   2.706   4.312 -1.2954  0.5567 -2.5592
  848MOL0     H11903  10.082   2.605   4.418 -0.4457  0.6459 -0.1663
  848MOL0     H11904  10.144   2.834   4.526 -4.5619  1.6504  3.7479
  848MOL0     H11905   9.974   2.837   4.489 -0.5699  1.4372 -0.0885
  848MOL0     H11906  10.044   2.990   4.305  1.7967  2.5750 -1.2883
  848MOL0     H11907  10.211   2.968   4.365  0.2765  0.3760  2.5686
  848MOL0     H11908   9.994   3.058   4.549 -0.3525  1.8498  0.5861
  848MOL0     H11909  10.169   3.051   4.583 -1.8934 -1.5621  0.6845
  848MOL0     H11910  10.068   3.227   4.356  2.9896 -0.4384 -1.7082
  848MOL0     H11911  10.229   3.198   4.405  0.7375 -0.8702  0.9303
  848MOL0     H11912  10.205   3.285   4.620 -0.2681 -3.8083 -1.0600
  848MOL0     H11913  10.030   3.306   4.611  1.0292  0.1473  1.6440
  848MOL0     H11914  10.070   3.501   4.475  1.3106  1.3481 -0.8498
  848MOL0     H11915  10.158   3.514   4.626 -0.5352  0.3361 -0.7332
  848MOL0     H11916  10.287   3.582   4.423  1.4792  0.1723  2.5481
  848MOL0     H11917  10.249   3.433   4.342  0.1601 -1.6221  0.4004
  848MOL0     H11918   9.804   2.876   4.208  1.4866 -2.3285  0.0589
  848MOL0     H11919   9.574   2.875   4.279  3.4133  2.4889 -1.0122
  848MOL0     H11920   9.289   2.622   4.610 -0.1246  1.6704 -0.6692
  848MOL0     H11921   9.049   2.627   4.695  0.3660 -0.0957  0.5297
  848MOL0     H11922   8.006   1.049   4.834  4.6439  1.4429  0.3048
  848MOL0     H11923   7.949   0.811   4.761 -0.1696  2.3992  2.4679
  848MOL0     H11924   8.119   0.444   4.236 -1.1684 -1.3491 -0.9564
  848MOL0     H11925   8.084   0.191   4.240 -2.0323  0.1662 -0.4764
  848MOL0     H11926   8.013  -0.005   4.595  0.6412 -2.8044  0.3287
  848MOL0     H11927   7.983  -0.135   4.472 -0.1178  0.2591 -2.7281
  848MOL0     H11928   7.768   0.063   4.549 -0.0754  0.1130 -0.3254
  848MOL0     H11929   7.751  -0.084   4.454 -0.4780 -0.7050  0.9952
  848MOL0     H11930   7.759  -0.028   4.762  1.9357  1.1936 -0.3159
  848MOL0     H11931   7.828  -0.174   4.721  2.5258  2.2713  0.4377
  848MOL0     H11932   7.619  -0.243   4.590 -3.7578  0.2099 -1.8231
  848MOL0     H11933   7.596  -0.215   4.759  2.6703  0.6475  0.3843
  848MOL0     H11934   7.320   0.051   4.607  1.3657  3.7149 -0.2919
  848MOL0     H11935   7.922   0.213   4.626  0.3548  0.4161 -0.5351
  848MOL0     H11936   7.950   0.455   4.630  1.5373  0.4801 -0.4379
  849MOL0     O11937   8.215   7.035   9.951 -1.0334 -0.2567  0.0399
  849MOL0     C11938   8.121   7.114   9.933  0.1820 -0.1322  0.9514
  849MOL0     O11939   8.005   7.110  10.017 -0.2254  0.7833  0.1916
  849MOL0     C11940   7.994   7.013  10.108 -0.9149  1.8348 -0.6594
  849MOL0     C11941   7.998   6.880  10.078 -0.1869  0.7556 -0.3630
  849MOL0     C11942   7.996   6.780  10.178  0.3416 -0.2427  0.3944
  849MOL0     C11943   7.994   6.813  10.315 -0.1900 -0.3248 -0.5750
  849MOL0     O11944   7.998   6.720  10.417 -0.1941  0.4790  0.0013
  849MOL0     C11945   8.085   6.610  10.398 -0.3604  0.3174  0.9974
  849MOL0     C11946   8.151   6.575  10.527 -0.7626  0.1422  0.0322
  849MOL0     C11947   8.275   6.483  10.528  0.4302  0.7506 -0.8949
  849MOL0     C11948   8.250   6.357  10.441 -0.0686  0.2368 -0.3282
  849MOL0     C11949   8.386   6.293  10.402 -1.1927 -0.6824 -1.0262
  849MOL0     C11950   8.480   6.380  10.319 -0.0805  1.6317  0.2194
  849MOL0     C11951   8.596   6.289  10.271  0.6145 -0.3083  0.0354
  849MOL0     C11952   8.693   6.362  10.180 -0.5546  0.1111 -0.7845
  849MOL0     N11953   8.796   6.266  10.142  0.2115 -0.1664  0.9391
  849MOL0     C11954   8.927   6.263  10.194  0.4717  0.1802  1.2862
  849MOL0     C11955   8.978   6.148  10.139 -1.0166 -0.0225 -0.2135
  849MOL0     C11956   9.111   6.106  10.174  0.0294 -0.4490  0.2937
  849MOL0     C11957   9.143   5.971  10.100 -0.1698  0.7903  0.3909
  849MOL0     C11958   9.091   5.855  10.188 -0.5433 -0.2181  0.7190
  849MOL0     C11959   8.945   5.834  10.242 -0.2067 -0.2858 -1.0999
  849MOL0     O11960   8.921   5.917  10.362 -0.8289  0.1005 -0.3551
  849MOL0     C11961   8.814   5.900  10.443 -0.1979  0.3426 -0.7855
  849MOL0     C11962   8.694   5.835  10.401  0.3244 -0.7430 -0.3538
  849MOL0     C11963   8.590   5.811  10.484  0.2074  0.1135  0.2890
  849MOL0     C11964   8.585   5.875  10.609 -0.9085 -0.1514  0.3633
  849MOL0     C11965   8.453   5.885  10.673  0.5245 -0.2116  0.0023
  849MOL0     O11966   8.432   5.979  10.761  0.3377 -0.3605  0.0166
  849MOL0     C11967   8.309   5.998  10.817 -0.0776  0.3798 -0.4004
  849MOL0     C11968   8.246   5.909  10.905 -0.8535 -0.9922  0.4790
  849MOL0     C11969   8.126   5.943  10.965 -0.8903 -0.0784  0.5081
  849MOL0     C11970   8.057   6.060  10.933 -0.0009 -1.3335  0.3932
  849MOL0     O11971   7.935   6.082  10.999 -0.2806  0.6191  0.1157
  849MOL0     C11972   7.864   6.202  10.980 -0.1328 -1.0644 -0.3305
  849MOL0     C11973   7.754   6.215  11.086 -0.7820  1.3268 -1.0743
  849MOL0     C11974   7.699   6.358  11.097 -0.6054  0.7683  0.6107
  849MOL0     C11975   7.575   6.371  11.184  0.5277  0.3362  0.2552
  849MOL0     C11976   7.509   6.505  11.174  0.4753 -0.5790  0.8165
  849MOL0     C11977   7.400   6.528  11.277 -0.7488 -0.5612  0.3194
  849MOL0     C11978   7.266   6.469  11.238 -0.2615  0.3651  0.1984
  849MOL0     C11979   7.153   6.468  11.341 -0.2011 -0.1943 -0.5784
  849MOL0    Cl11980   7.099   6.637  11.393  0.3098  0.1574  0.2498
  849MOL0     C11981   8.118   6.140  10.831  0.1681 -0.3263 -0.3041
  849MOL0     C11982   8.243   6.114  10.779  0.3114 -0.1814 -0.2514
  849MOL0     O11983   8.379   5.794  10.642  0.0410  1.3977  0.7747
  849MOL0     C11984   8.701   5.948  10.653 -0.4009  0.0851  0.4430
  849MOL0     C11985   8.800   5.968  10.561 -1.8703 -0.0404  0.0026
  849MOL0     N11986   8.891   6.092  10.051  0.8375  0.6108  0.5637
  849MOL0     N11987   8.790   6.174  10.041  0.3199  0.8163 -0.3953
  849MOL0     C11988   7.982   6.946  10.349  0.4817 -0.6442  0.0847
  849MOL0     C11989   7.984   7.040  10.247 -0.4640 -0.6282  0.4273
  849MOL0     C11990   8.135   7.206   9.815 -0.4709  0.5648 -1.4634
  849MOL0     C11991   8.246   7.197   9.736 -0.1598  0.4996  0.3213
  849MOL0     C11992   8.251   7.284   9.623 -0.3068  0.6443  0.6487
  849MOL0     C11993   8.146   7.357   9.582  0.4261 -0.6698  1.3718
  849MOL0     O11994   8.157   7.435   9.480 -0.4492  0.1361 -0.9146
  849MOL0     C11995   8.249   7.426   9.368  0.3326 -0.6336 -0.2730
  849MOL0     C11996   8.343   7.546   9.385  0.4922 -0.5793 -0.9836
  849MOL0     C11997   8.444   7.586   9.280 -0.8499 -0.3078 -0.5563
  849MOL0     C11998   8.378   7.616   9.143 -0.8400  0.2687  0.1377
  849MOL0     C11999   8.459   7.698   9.058  0.0461  1.0737  0.1694
  849MOL0     C12000   8.503   7.764   8.965  0.1533 -0.2696 -0.5291
  849MOL0     C12001   8.028   7.359   9.658 -0.1202  0.7199 -0.7353
  849MOL0     C12002   8.030   7.283   9.781  0.3015  0.0314 -0.5108
  849MOL0     H12003   8.011   6.841   9.977 -0.9965 -1.9595  0.5061
  849MOL0     H12004   7.999   6.675  10.152 -0.6876 -0.1855  0.0202
  849MOL0     H12005   8.164   6.624  10.323 -0.3391 -1.1721  0.7179
  849MOL0     H12006   8.022   6.527  10.365 -2.8713  1.7213  1.9821
  849MOL0     H12007   8.077   6.545  10.601  1.4976 -4.5825  0.7258
  849MOL0     H12008   8.189   6.672  10.560  0.4047 -0.7053  1.2598
  849MOL0     H12009   8.295   6.463  10.634 -2.2542 -1.4057 -0.6904
  849MOL0     H12010   8.364   6.540  10.500 -0.8383  0.8730 -5.3510
  849MOL0     H12011   8.193   6.280  10.494 -1.7296  0.5616 -1.5302
  849MOL0     H12012   8.193   6.377  10.350 -0.7064  0.2996  0.0746
  849MOL0     H12013   8.356   6.203  10.349  1.3113 -2.3228  0.1658
  849MOL0     H12014   8.438   6.264  10.494 -1.2429 -0.5180 -0.9446
  849MOL0     H12015   8.525   6.452  10.389  1.2243 -0.6083  1.7975
  849MOL0     H12016   8.426   6.412  10.229 -2.8827 -4.0873 -0.5270
  849MOL0     H12017   8.651   6.248  10.356 -0.0354  0.9561  1.1205
  849MOL0     H12018   8.544   6.204  10.226 -3.6254 -1.4887  5.9369
  849MOL0     H12019   8.738   6.448  10.229 -0.4470 -0.6903  0.5634
  849MOL0     H12020   8.641   6.391  10.088  2.0057  1.8592 -1.7862
  849MOL0     H12021   8.985   6.334  10.252  0.9563  0.5414  0.3787
  849MOL0     H12022   9.125   6.115  10.282 -1.2974  1.3155  0.3590
  849MOL0     H12023   9.184   6.180  10.138 -1.8035  1.4850  0.3708
  849MOL0     H12024   9.251   5.952  10.095 -0.0694  0.2840  3.1839
  849MOL0     H12025   9.100   5.952  10.001  2.0595 -1.3943 -0.2535
  849MOL0     H12026   9.117   5.764  10.133 -0.8290  0.4729 -0.6079
  849MOL0     H12027   9.159   5.859  10.274 -0.6468 -1.4148  0.8719
  849MOL0     H12028   8.939   5.728  10.271  0.0362  0.2380  1.0517
  849MOL0     H12029   8.876   5.860  10.161  0.4501 -1.3664 -2.0469
  849MOL0     H12030   8.690   5.792  10.302  3.7832 -3.5556  0.4915
  849MOL0     H12031   8.509   5.748  10.451  0.3492  0.1000 -0.0401
  849MOL0     H12032   8.302   5.820  10.931 -0.0988 -1.2238 -1.7418
  849MOL0     H12033   8.079   5.873  11.033 -1.2264 -0.6964 -0.3360
  849MOL0     H12034   7.818   6.209  10.881  1.5069 -0.7653 -1.1104
  849MOL0     H12035   7.934   6.284  10.999 -1.2420  0.4186 -2.2010
  849MOL0     H12036   7.788   6.195  11.188 -2.3118 -0.6618 -0.8792
  849MOL0     H12037   7.681   6.138  11.059 -0.0659 -1.4348  3.6539
  849MOL0     H12038   7.667   6.388  10.997  0.7535 -1.0300 -0.4183
  849MOL0     H12039   7.777   6.424  11.136  1.0546 -1.3182  1.0602
  849MOL0     H12040   7.503   6.294  11.153  1.5033 -0.5317  0.0651
  849MOL0     H12041   7.603   6.347  11.287  0.0278 -0.1930  0.2756
  849MOL0     H12042   7.463   6.523  11.076  3.3945 -0.7023 -0.6923
  849MOL0     H12043   7.584   6.578  11.207  1.0290 -2.2778  3.6152
  849MOL0     H12044   7.385   6.636  11.287  0.5053 -0.4248  1.0527
  849MOL0     H12045   7.433   6.500  11.378 -1.8927  0.1136  0.8997
  849MOL0     H12046   7.227   6.528  11.154 -1.1558  2.0652  1.7376
  849MOL0     H12047   7.283   6.363  11.215  1.9133 -0.0035  3.0633
  849MOL0     H12048   7.185   6.409  11.428 -2.2782  2.4486  2.2003
  849MOL0     H12049   7.064   6.417  11.303  0.7310  0.0804 -3.3978
  849MOL0     H12050   8.055   6.219  10.791 -0.2351 -0.8201 -0.6583
  849MOL0     H12051   8.295   6.186  10.716 -0.3461  0.9295  0.4407
  849MOL0     H12052   8.704   6.008  10.743  1.1576  1.5298 -0.4981
  849MOL0     H12053   8.880   6.036  10.589  1.1879 -2.3639 -2.4491
  849MOL0     H12054   7.980   6.975  10.453 -1.1722  1.1445 -0.3893
  849MOL0     H12055   7.983   7.144  10.279 -0.1352 -0.5477  0.1833
  849MOL0     H12056   8.324   7.121   9.742 -3.5242 -3.3616  0.0198
  849MOL0     H12057   8.342   7.295   9.565 -1.5019  1.6449 -1.1090
  849MOL0     H12058   8.198   7.438   9.272 -2.5906  0.0484  1.2589
  849MOL0     H12059   8.307   7.333   9.362 -0.1251 -0.9433  0.0845
  849MOL0     H12060   8.282   7.634   9.404 -0.6125 -1.2846 -1.1351
  849MOL0     H12061   8.396   7.520   9.477  1.3900  0.8056 -1.0923
  849MOL0     H12062   8.526   7.514   9.279  1.9769  2.6412  1.1467
  849MOL0     H12063   8.484   7.681   9.315 -3.2407  0.3949  0.4733
  849MOL0     H12064   8.366   7.516   9.099  2.3616  0.7450 -2.1927
  849MOL0     H12065   8.277   7.657   9.150 -2.7567 -3.6151 -1.8104
  849MOL0     H12066   8.544   7.812   8.879  0.1322  2.7079  0.9962
  849MOL0     H12067   7.947   7.421   9.622 -2.5218 -1.8047 -0.0154
  849MOL0     H12068   7.945   7.273   9.848  1.0180 -4.3788  0.0541
  850MOL0     O12069   1.419   1.237   7.682 -0.1602 -0.9218 -0.7239
  850MOL0     C12070   1.415   1.170   7.580 -1.1817 -0.1184  0.6917
  850MOL0     O12071   1.468   1.046   7.567 -0.2219 -1.0973 -0.8718
  850MOL0     C12072   1.509   0.984   7.679  0.1768 -0.1629 -0.4100
  850MOL0     C12073   1.413   0.960   7.784  0.1893 -0.2371  0.3857
  850MOL0     C12074   1.461   0.904   7.907  0.7714 -0.9585  0.3373
  850MOL0     C12075   1.595   0.863   7.924  0.3170  0.2727 -0.3995
  850MOL0     O12076   1.645   0.792   8.036  0.3595  0.3430  0.6829
  850MOL0     C12077   1.591   0.828   8.159  1.3042  0.0007  0.1740
  850MOL0     C12078   1.693   0.820   8.258 -0.9069  1.7329 -0.9647
  850MOL0     C12079   1.638   0.851   8.403 -0.8155 -0.2085  0.1192
  850MOL0     C12080   1.760   0.858   8.503  0.5034  0.2413  0.0837
  850MOL0     C12081   1.715   0.868   8.648  0.4234 -0.3481 -0.4211
  850MOL0     C12082   1.640   1.006   8.673  0.3019  0.8433 -0.3343
  850MOL0     C12083   1.731   1.131   8.650  0.3067 -0.4205  0.0405
  850MOL0     C12084   1.672   1.271   8.673  0.4943 -0.0239 -0.8369
  850MOL0     N12085   1.554   1.290   8.576 -0.2136 -0.6886 -0.4791
  850MOL0     C12086   1.424   1.292   8.612  0.1464  0.2658 -0.5167
  850MOL0     C12087   1.353   1.285   8.491  0.4841  0.4715  0.7476
  850MOL0     C12088   1.203   1.293   8.475 -0.5569  0.2216  0.6315
  850MOL0     C12089   1.170   1.444   8.460  0.1398  0.3526  0.4394
  850MOL0     C12090   1.023   1.479   8.455 -1.4345 -0.0370 -0.3798
  850MOL0     C12091   0.940   1.458   8.333 -0.1715 -0.6281 -0.1117
  850MOL0     O12092   0.947   1.563   8.241 -0.7182  0.5879 -0.2944
  850MOL0     C12093   0.889   1.562   8.113  0.3931 -0.6329  0.0792
  850MOL0     C12094   0.791   1.467   8.079 -0.7236  0.6167 -0.2530
  850MOL0     C12095   0.735   1.477   7.959  0.5156 -0.1936 -0.8912
  850MOL0     C12096   0.747   1.594   7.881  0.6291 -0.1495  0.6002
  850MOL0     C12097   0.668   1.617   7.765  1.1703  0.6474  0.1128
  850MOL0     O12098   0.679   1.736   7.697 -0.4124  0.4409 -0.2639
  850MOL0     C12099   0.612   1.751   7.579  0.0340 -0.5409 -1.0188
  850MOL0     C12100   0.667   1.729   7.454  0.2565  0.0434  0.6272
  850MOL0     C12101   0.587   1.756   7.337 -0.1251 -0.3271  0.1304
  850MOL0     C12102   0.458   1.807   7.343  0.1643 -0.7839  0.0142
  850MOL0     O12103   0.385   1.821   7.231  0.2449  0.6579  0.3052
  850MOL0     C12104   0.284   1.721   7.211 -0.0971 -0.1240 -1.2741
  850MOL0     C12105   0.188   1.739   7.087  0.0590  0.7007  0.3110
  850MOL0     C12106   0.078   1.839   7.116  0.2440 -0.1476  1.8851
  850MOL0     C12107  -0.026   1.843   6.990 -0.7791 -1.2464  0.1454
  850MOL0     C12108  -0.050   1.980   6.934 -1.4065 -0.0026  0.5285
  850MOL0     C12109  -0.100   2.071   7.046  0.3559 -0.3610 -0.2977
  850MOL0     C12110  -0.133   2.212   6.988  0.2438  0.0820  0.1140
  850MOL0     C12111  -0.155   2.301   7.108 -0.3638  0.0278  0.1443
  850MOL0    Cl12112  -0.003   2.361   7.162 -0.1168 -0.3098 -0.0780
  850MOL0     C12113   0.405   1.840   7.471  0.2910 -0.6604  0.1888
  850MOL0     C12114   0.475   1.799   7.593 -0.3193 -0.4599  0.1932
  850MOL0     O12115   0.583   1.527   7.735  0.4956  0.2840 -0.2960
  850MOL0     C12116   0.828   1.694   7.928 -1.1288 -0.1480 -0.4322
  850MOL0     C12117   0.900   1.682   8.039 -0.5595 -0.6257  0.6562
  850MOL0     N12118   1.449   1.285   8.387 -0.2454 -0.4086 -0.0066
  850MOL0     N12119   1.565   1.283   8.442 -0.0411 -0.1216  0.1008
  850MOL0     C12120   1.678   0.887   7.816 -0.2237  0.4010 -0.5566
  850MOL0     C12121   1.641   0.943   7.696  0.9269 -0.9465  0.4429
  850MOL0     C12122   1.359   1.242   7.467 -0.7923  0.4615  0.5743
  850MOL0     C12123   1.325   1.382   7.472  0.6630  0.5790 -0.1580
  850MOL0     C12124   1.260   1.440   7.363 -1.1456 -0.0298 -1.2476
  850MOL0     C12125   1.242   1.360   7.244  0.0136 -1.1247 -0.3702
  850MOL0     O12126   1.168   1.411   7.142 -0.3982 -0.7363  0.1568
  850MOL0     C12127   1.038   1.473   7.179 -0.2137 -0.9906 -0.2668
  850MOL0     C12128   0.939   1.442   7.066 -0.2543 -1.1506 -0.1963
  850MOL0     C12129   0.787   1.461   7.101  0.1507 -0.0822  0.6570
  850MOL0     C12130   0.699   1.434   6.981 -0.1960 -0.0098 -0.5915
  850MOL0     C12131   0.663   1.551   6.901 -0.0484 -0.2879  1.0735
  850MOL0     C12132   0.627   1.652   6.843  0.3528  0.0948  0.1249
  850MOL0     C12133   1.283   1.231   7.241  0.6608 -0.4424  0.1048
  850MOL0     C12134   1.340   1.175   7.348  0.8441  0.4988  0.0788
  850MOL0     H12135   1.307   0.980   7.776 -0.0757 -1.7806 -0.4898
  850MOL0     H12136   1.396   0.896   7.994 -0.9673  0.7427 -0.7297
  850MOL0     H12137   1.506   0.768   8.193 -0.7779  2.4122 -0.4714
  850MOL0     H12138   1.563   0.934   8.164  1.7728  0.0528  2.6884
  850MOL0     H12139   1.778   0.886   8.241  0.3400  1.2850  2.5686
  850MOL0     H12140   1.733   0.718   8.255  2.0416  2.5682  2.5993
  850MOL0     H12141   1.552   0.789   8.431 -1.8921  0.3824 -1.7544
  850MOL0     H12142   1.604   0.954   8.389  0.9031  0.0781 -2.7152
  850MOL0     H12143   1.815   0.765   8.487  2.3052  1.1930  0.4849
  850MOL0     H12144   1.832   0.937   8.481  1.1021 -0.9177 -2.6590
  850MOL0     H12145   1.807   0.873   8.707  0.6680  1.9055 -0.9066
  850MOL0     H12146   1.662   0.780   8.685 -0.1190 -0.5878 -1.7235
  850MOL0     H12147   1.616   1.010   8.779 -1.2955  0.9778 -0.6819
  850MOL0     H12148   1.544   1.028   8.625  0.2733  1.9884  0.2251
  850MOL0     H12149   1.813   1.125   8.722 -0.6650  1.5464  1.4185
  850MOL0     H12150   1.768   1.127   8.547 -1.1109 -0.9884 -0.4758
  850MOL0     H12151   1.751   1.346   8.657 -1.5773  2.2978 -0.8007
  850MOL0     H12152   1.649   1.273   8.780  2.9109 -2.3078 -0.1634
  850MOL0     H12153   1.388   1.298   8.714  1.4739 -0.1430 -0.0123
  850MOL0     H12154   1.154   1.244   8.560 -1.9875 -0.6042 -0.6111
  850MOL0     H12155   1.180   1.245   8.379 -1.7984 -0.9093  1.4565
  850MOL0     H12156   1.228   1.492   8.381  2.0977  0.6013  1.9532
  850MOL0     H12157   1.209   1.508   8.540 -0.9415  2.3916 -0.5972
  850MOL0     H12158   0.991   1.411   8.535  0.9067 -2.4832 -1.4018
  850MOL0     H12159   1.013   1.582   8.491 -0.5515  1.0227 -2.9635
  850MOL0     H12160   0.834   1.445   8.357 -0.2902  0.3411 -0.0619
  850MOL0     H12161   0.962   1.365   8.280 -5.6291 -2.3788  0.1422
  850MOL0     H12162   0.767   1.392   8.154 -2.7115  2.9145  1.5618
  850MOL0     H12163   0.677   1.395   7.919 -0.5249 -0.4711  1.0954
  850MOL0     H12164   0.768   1.691   7.445  0.7309  1.2143  0.8792
  850MOL0     H12165   0.618   1.735   7.235  2.3041 -1.0108  0.9470
  850MOL0     H12166   0.214   1.707   7.295  0.2216  2.3906 -0.4931
  850MOL0     H12167   0.331   1.624   7.193 -1.9923 -1.7898  1.8468
  850MOL0     H12168   0.136   1.644   7.070 -2.1895  1.4187  2.6069
  850MOL0     H12169   0.238   1.765   6.994 -1.7245 -2.0189 -1.5480
  850MOL0     H12170   0.118   1.939   7.135  0.2234  0.6232 -1.4531
  850MOL0     H12171   0.027   1.811   7.208 -0.7771 -1.0088  1.0866
  850MOL0     H12172  -0.007   1.774   6.908 -1.8804 -2.9540  1.2546
  850MOL0     H12173  -0.125   1.813   7.025 -1.9413  0.7246 -1.2582
  850MOL0     H12174  -0.118   1.978   6.847 -1.6036  0.8726  0.6583
  850MOL0     H12175   0.046   2.017   6.899 -1.1932 -0.7699  0.2661
  850MOL0     H12176  -0.023   2.095   7.121 -0.8773  3.7554 -0.1251
  850MOL0     H12177  -0.188   2.027   7.094 -0.9862  2.3038 -0.1736
  850MOL0     H12178  -0.062   2.259   6.920 -0.0718 -1.8503 -1.6172
  850MOL0     H12179  -0.223   2.199   6.928 -0.4280  1.2994  0.8277
  850MOL0     H12180  -0.193   2.239   7.190 -0.9346  0.2166  0.0284
  850MOL0     H12181  -0.227   2.381   7.091  1.7719  2.6124  2.4180
  850MOL0     H12182   0.316   1.902   7.471 -0.8821 -2.2801 -0.4943
  850MOL0     H12183   0.446   1.829   7.693  0.7146  0.8416  0.1298
  850MOL0     H12184   0.849   1.787   7.876  2.0080 -1.0570 -0.9859
  850MOL0     H12185   0.967   1.756   8.079 -1.5081  0.3838  0.4245
  850MOL0     H12186   1.780   0.850   7.829 -0.2728  0.2109 -0.7044
  850MOL0     H12187   1.713   0.966   7.618 -0.1940 -0.5884 -0.5049
  850MOL0     H12188   1.352   1.446   7.556  2.6761  1.1120 -1.1325
  850MOL0     H12189   1.235   1.545   7.354  0.8678  0.3623 -3.3444
  850MOL0     H12190   1.057   1.579   7.194  1.1698 -1.3551  0.6936
  850MOL0     H12191   0.987   1.434   7.267 -4.3615  0.5810 -1.7190
  850MOL0     H12192   0.953   1.523   6.994 -1.9952 -1.7079 -1.2010
  850MOL0     H12193   0.971   1.348   7.019  0.5514  0.1904 -2.5213
  850MOL0     H12194   0.757   1.561   7.133 -0.8785  0.7614 -2.5990
  850MOL0     H12195   0.760   1.386   7.176 -1.1207  2.4207  2.9002
  850MOL0     H12196   0.726   1.346   6.922 -1.4961 -1.2791  0.5998
  850MOL0     H12197   0.598   1.421   7.021  0.7712  2.1545  3.0146
  850MOL0     H12198   0.613   1.746   6.792  3.2282 -1.9913 -5.3545
  850MOL0     H12199   1.263   1.179   7.147  4.5858 -0.3057 -0.9722
  850MOL0     H12200   1.367   1.070   7.349  0.6407  0.4246  1.8654
  851MOL0     O12201  11.055   2.475  10.237  0.2210 -0.1029 -0.2017
  851MOL0     C12202  11.156   2.534  10.195  0.2355  0.1947  0.2999
  851MOL0     O12203  11.228   2.630  10.271 -0.4389  0.5250  0.0364
  851MOL0     C12204  11.208   2.613  10.406 -0.5310  0.5025  0.9128
  851MOL0     C12205  11.124   2.690  10.480  0.4074  0.0174 -0.2198
  851MOL0     C12206  11.108   2.662  10.617 -0.4589 -0.7709 -0.0668
  851MOL0     C12207  11.188   2.571  10.683  1.1568 -0.1848 -2.0817
  851MOL0     O12208  11.182   2.568  10.826 -0.1210  0.4448 -0.3615
  851MOL0     C12209  11.218   2.441  10.890  1.0852  0.9353 -0.0678
  851MOL0     C12210  11.361   2.452  10.943  0.5706 -0.4395  0.2102
  851MOL0     C12211  11.363   2.555  11.063  0.2009  0.6298 -0.4083
  851MOL0     C12212  11.495   2.562  11.142  0.0945  0.8086  0.5404
  851MOL0     C12213  11.489   2.681  11.242  0.3646 -0.3777 -0.1179
  851MOL0     C12214  11.408   2.653  11.367  0.5459  0.1841 -0.2322
  851MOL0     C12215  11.460   2.733  11.493 -0.1738 -0.3790 -0.6995
  851MOL0     C12216  11.407   2.878  11.496 -0.2069  0.0794  0.4615
  851MOL0     N12217  11.486   2.969  11.582  0.1066 -0.9951 -0.7463
  851MOL0     C12218  11.568   3.059  11.530 -0.6123 -0.1184 -1.1320
  851MOL0     C12219  11.600   3.140  11.627 -0.2935  0.1210 -0.5394
  851MOL0     C12220  11.685   3.264  11.609  0.2488 -0.1335  0.3953
  851MOL0     C12221  11.619   3.387  11.660 -0.3189 -0.3319 -0.5522
  851MOL0     C12222  11.697   3.521  11.665 -0.1262 -1.2583 -0.2903
  851MOL0     C12223  11.718   3.587  11.529  0.6281  0.9669 -1.3110
  851MOL0     O12224  11.846   3.660  11.522  0.2149  0.2167  0.7762
  851MOL0     C12225  11.883   3.728  11.409  1.0890 -0.5313 -0.2670
  851MOL0     C12226  12.006   3.792  11.423  0.3826  1.1095  0.5535
  851MOL0     C12227  12.045   3.898  11.334  0.1714  0.9452  1.0249
  851MOL0     C12228  11.966   3.926  11.216  0.9080  0.1701  0.1656
  851MOL0     C12229  12.011   4.014  11.114  0.3976  0.0952 -0.2062
  851MOL0     O12230  12.139   4.065  11.121  0.2781 -0.0830  0.0168
  851MOL0     C12231  12.180   4.150  11.019 -0.2926 -0.0647 -1.1471
  851MOL0     C12232  12.173   4.125  10.884  0.0889  1.3273 -0.1387
  851MOL0     C12233  12.247   4.189  10.792 -0.0228 -0.5869  1.0482
  851MOL0     C12234  12.336   4.299  10.826 -0.4224  0.6708  0.3120
  851MOL0     O12235  12.424   4.362  10.744  0.2334 -0.1424 -0.4456
  851MOL0     C12236  12.381   4.354  10.611 -0.6383 -0.0674  0.1979
  851MOL0     C12237  12.253   4.432  10.575 -1.1802 -0.2538 -0.1204
  851MOL0     C12238  12.235   4.561  10.654  0.2323  0.5660 -0.3582
  851MOL0     C12239  12.104   4.630  10.626  0.1014  1.1671  0.1339
  851MOL0     C12240  12.081   4.745  10.721  0.5020  0.6174  0.6427
  851MOL0     C12241  12.001   4.845  10.648  0.4932 -0.4585  0.2779
  851MOL0     C12242  12.080   4.963  10.595 -0.0784 -0.0531 -0.2290
  851MOL0     C12243  12.006   5.018  10.475  0.0492 -0.2372  0.2362
  851MOL0    Cl12244  11.858   5.116  10.518  0.1051 -0.1775  0.0492
  851MOL0     C12245  12.342   4.318  10.958  0.6676  1.2249 -0.6000
  851MOL0     C12246  12.267   4.249  11.061  0.3035 -0.2951  0.2595
  851MOL0     O12247  11.934   4.043  11.026 -0.1419 -0.0642  0.2649
  851MOL0     C12248  11.846   3.850  11.205  0.0608 -0.1751  0.1052
  851MOL0     C12249  11.804   3.758  11.301  0.2623 -0.6904  0.0189
  851MOL0     N12250  11.529   3.110  11.737  0.6516 -0.1857  0.3129
  851MOL0     N12251  11.456   3.007  11.713  1.0226  0.2431  0.8147
  851MOL0     C12252  11.285   2.509  10.609  0.8965 -0.3154  0.9854
  851MOL0     C12253  11.291   2.521  10.467 -0.7037  0.3783 -0.8674
  851MOL0     C12254  11.172   2.541  10.047 -0.2717  0.9117 -0.4190
  851MOL0     C12255  11.083   2.476   9.952  0.7409  0.0280 -0.6622
  851MOL0     C12256  11.099   2.473   9.817  0.1973 -0.0557  0.7051
  851MOL0     C12257  11.213   2.525   9.762 -0.0219 -0.1649  1.7978
  851MOL0     O12258  11.246   2.513   9.630  0.4104  0.3526 -0.1210
  851MOL0     C12259  11.210   2.393   9.562  1.1370 -0.2741 -0.1220
  851MOL0     C12260  11.317   2.333   9.473 -0.9995 -0.8435 -0.4213
  851MOL0     C12261  11.267   2.205   9.408 -0.0034  0.3972 -0.0418
  851MOL0     C12262  11.352   2.108   9.322 -0.8947  1.0654 -0.0487
  851MOL0     C12263  11.475   2.067   9.396  0.0590  0.6663  0.0330
  851MOL0     C12264  11.578   2.034   9.452 -0.6247  0.9915 -0.0033
  851MOL0     C12265  11.301   2.575   9.853 -0.2945 -1.2193 -0.0170
  851MOL0     C12266  11.291   2.585   9.994  0.5553  1.0235 -0.4534
  851MOL0     H12267  11.060   2.767  10.438  0.8332  1.9057  2.3151
  851MOL0     H12268  11.033   2.710  10.679 -0.2241 -2.4103  1.5728
  851MOL0     H12269  11.217   2.352  10.826  0.6896  1.6683 -1.1063
  851MOL0     H12270  11.142   2.428  10.968 -0.8129 -2.8647 -2.2878
  851MOL0     H12271  11.427   2.486  10.862 -0.8320  0.4256 -0.6238
  851MOL0     H12272  11.394   2.353  10.974 -0.3379 -0.5328  0.9370
  851MOL0     H12273  11.285   2.512  11.126  1.6625  0.6609  1.5147
  851MOL0     H12274  11.339   2.657  11.030  2.5393  1.6098  0.6805
  851MOL0     H12275  11.519   2.463  11.181  1.2855 -0.0703 -2.1691
  851MOL0     H12276  11.567   2.586  11.064 -0.5113 -0.7329 -0.5353
  851MOL0     H12277  11.464   2.778  11.197 -0.2928  1.5997  3.9657
  851MOL0     H12278  11.590   2.690  11.283 -0.7354 -1.7306  3.2800
  851MOL0     H12279  11.413   2.546  11.386  1.2762  0.5056  1.6564
  851MOL0     H12280  11.310   2.698  11.350  1.1112  1.6765  0.2736
  851MOL0     H12281  11.427   2.689  11.587 -0.2466  1.0031 -0.0531
  851MOL0     H12282  11.569   2.737  11.496 -0.1404  4.6743  1.5616
  851MOL0     H12283  11.302   2.888  11.526  0.4474  2.9520  2.1795
  851MOL0     H12284  11.414   2.915  11.393  2.1018 -1.4309  0.0074
  851MOL0     H12285  11.612   3.061  11.431  3.6832  2.1035  0.5768
  851MOL0     H12286  11.722   3.271  11.507 -0.4211 -4.2764 -0.2944
  851MOL0     H12287  11.769   3.250  11.677 -0.2097 -2.1045  0.6033
  851MOL0     H12288  11.578   3.378  11.760  0.3192  1.3270 -0.0939
  851MOL0     H12289  11.540   3.409  11.588 -0.1906  1.8483 -0.1204
  851MOL0     H12290  11.636   3.586  11.728 -0.1601 -0.8848 -0.7079
  851MOL0     H12291  11.799   3.499  11.697  0.8077  1.0437 -1.4600
  851MOL0     H12292  11.630   3.648  11.508 -2.4849 -2.4569  0.4777
  851MOL0     H12293  11.716   3.508  11.453  1.4238  2.9131 -3.4381
  851MOL0     H12294  12.076   3.768  11.503  1.1548 -0.8089 -0.6209
  851MOL0     H12295  12.135   3.955  11.354  1.0075 -0.3971  1.2044
  851MOL0     H12296  12.121   4.038  10.845  2.0071  0.2979 -0.5267
  851MOL0     H12297  12.235   4.146  10.693 -1.6166 -1.0597  1.4197
  851MOL0     H12298  12.364   4.251  10.579  0.7682 -1.2316  2.9167
  851MOL0     H12299  12.459   4.397  10.546 -1.3802 -0.4980 -1.0108
  851MOL0     H12300  12.174   4.358  10.594  0.4939 -0.9993  6.0961
  851MOL0     H12301  12.240   4.455  10.469 -3.3647  0.4918  0.2618
  851MOL0     H12302  12.325   4.617  10.626  1.5458 -2.0050 -1.5884
  851MOL0     H12303  12.241   4.547  10.762  2.1540  1.2881 -0.3281
  851MOL0     H12304  12.099   4.658  10.520  1.9194 -1.6270 -0.8192
  851MOL0     H12305  12.021   4.561  10.641  1.5173 -0.1658  2.5690
  851MOL0     H12306  12.177   4.793  10.742 -0.6515  3.4107 -0.0574
  851MOL0     H12307  12.034   4.715  10.816  1.9784  1.7595  1.7753
  851MOL0     H12308  11.934   4.883  10.725  0.3390 -0.3111  0.0730
  851MOL0     H12309  11.943   4.800  10.566 -1.2310  1.2438  0.5024
  851MOL0     H12310  12.108   5.039  10.669  1.4189 -0.6764 -0.1262
  851MOL0     H12311  12.175   4.922  10.561  0.1926  0.0797  0.3534
  851MOL0     H12312  11.969   4.937  10.411  1.1936 -0.4216 -0.2122
  851MOL0     H12313  12.072   5.081  10.414 -0.8946 -0.0452 -0.6334
  851MOL0     H12314  12.414   4.388  11.000  0.7204 -0.2843  2.0899
  851MOL0     H12315  12.273   4.285  11.163 -1.5072  1.7129 -0.2698
  851MOL0     H12316  11.780   3.859  11.119  0.6209  1.3952 -0.1883
  851MOL0     H12317  11.712   3.706  11.276 -1.1019 -0.0174  3.1390
  851MOL0     H12318  11.368   2.453  10.652  1.2587  0.0462  0.7595
  851MOL0     H12319  11.359   2.463  10.405  0.0166  2.0344 -1.7193
  851MOL0     H12320  11.004   2.409   9.984  1.8120 -1.6368 -1.3893
  851MOL0     H12321  11.030   2.414   9.757  0.5608  3.0497 -3.1610
  851MOL0     H12322  11.118   2.400   9.503 -1.2887  0.7393  3.4359
  851MOL0     H12323  11.196   2.313   9.635  1.8036 -1.6031 -1.4063
  851MOL0     H12324  11.359   2.416   9.416  0.9272 -0.9630  0.7581
  851MOL0     H12325  11.397   2.292   9.535 -0.8395 -3.3532 -2.1145
  851MOL0     H12326  11.180   2.229   9.347  1.7381 -0.0440 -2.8982
  851MOL0     H12327  11.227   2.146   9.491 -0.3930 -1.9862 -1.8150
  851MOL0     H12328  11.291   2.025   9.288  1.9118 -0.8177 -0.7929
  851MOL0     H12329  11.379   2.166   9.234 -0.7224 -1.0201 -1.4282
  851MOL0     H12330  11.661   1.992   9.504 -2.1520 -2.0312  0.1547
  851MOL0     H12331  11.384   2.625   9.805 -1.3076 -0.2044 -0.7609
  851MOL0     H12332  11.355   2.646  10.057  0.2611  1.8502 -0.9329
  852MOL0     O12333   5.579   4.186   9.247 -0.5794  0.2336  0.3128
  852MOL0     C12334   5.496   4.212   9.332  0.1708  0.3145  0.6616
  852MOL0     O12335   5.518   4.224   9.463 -0.2560  0.1240 -0.3225
  852MOL0     C12336   5.639   4.188   9.529  0.9369  0.0071  0.1611
  852MOL0     C12337   5.768   4.167   9.474  0.1532  0.1771 -0.1735
  852MOL0     C12338   5.877   4.135   9.555 -0.0074  0.7860  0.1417
  852MOL0     C12339   5.869   4.143   9.694 -0.4952  1.4231 -0.7637
  852MOL0     O12340   5.986   4.118   9.770  0.4367 -0.0104 -0.6599
  852MOL0     C12341   6.022   4.234   9.848  0.6789  0.0396 -0.0516
  852MOL0     C12342   6.167   4.266   9.806 -0.9383  0.8949  0.5949
  852MOL0     C12343   6.275   4.168   9.852 -0.0447  0.4502 -0.0012
  852MOL0     C12344   6.321   4.191  10.000  0.2045  0.9605  0.0912
  852MOL0     C12345   6.461   4.121  10.000 -0.3670 -1.1547 -1.3012
  852MOL0     C12346   6.522   4.135  10.134  0.3716 -0.7551 -0.3058
  852MOL0     C12347   6.644   4.045  10.140  0.0132 -0.1127 -0.1011
  852MOL0     C12348   6.623   3.948  10.258  0.2710 -0.5959  0.0347
  852MOL0     N12349   6.727   3.842  10.265  0.8973 -0.2425 -0.5935
  852MOL0     C12350   6.734   3.737  10.179 -0.8152 -0.3456  0.1677
  852MOL0     C12351   6.840   3.675  10.223 -0.9061  1.6609 -0.2055
  852MOL0     C12352   6.911   3.543  10.188  0.3770 -0.0186  0.4505
  852MOL0     C12353   6.821   3.416  10.197 -0.0888  0.4390 -0.2913
  852MOL0     C12354   6.802   3.381  10.346 -1.0046 -0.2131  0.2223
  852MOL0     C12355   6.677   3.440  10.400  0.2099  0.0699 -0.0099
  852MOL0     O12356   6.664   3.388  10.533 -0.0790  0.0014 -0.7887
  852MOL0     C12357   6.541   3.412  10.596 -0.4093  0.2389  0.4345
  852MOL0     C12358   6.481   3.539  10.589  0.1100 -0.5165 -0.6627
  852MOL0     C12359   6.352   3.552  10.639 -0.6026 -0.2209 -0.4374
  852MOL0     C12360   6.282   3.443  10.692 -0.4110 -0.7986  0.3398
  852MOL0     C12361   6.138   3.466  10.713  0.0023 -0.5935 -0.4805
  852MOL0     O12362   6.061   3.356  10.726  0.4445 -0.0670 -0.2149
  852MOL0     C12363   5.929   3.381  10.743  0.8099  0.6068 -0.2159
  852MOL0     C12364   5.836   3.361  10.631  0.3862 -0.1351 -0.4747
  852MOL0     C12365   5.696   3.370  10.658 -0.6265 -0.4183 -0.0792
  852MOL0     C12366   5.651   3.398  10.794 -0.3441 -0.8006 -0.2114
  852MOL0     O12367   5.520   3.403  10.832 -0.1912 -0.2286 -1.0019
  852MOL0     C12368   5.419   3.429  10.740  0.2784  0.3819 -0.2318
  852MOL0     C12369   5.355   3.290  10.692 -0.3813  0.0929  0.5274
  852MOL0     C12370   5.296   3.222  10.810 -0.4195  0.0768 -0.4968
  852MOL0     C12371   5.243   3.092  10.771 -0.6725  0.4228 -0.5236
  852MOL0     C12372   5.100   3.083  10.713  0.1130  0.2396 -0.0096
  852MOL0     C12373   5.092   2.968  10.608 -0.8100  0.9362 -1.0663
  852MOL0     C12374   4.987   2.996  10.506  0.5746  0.7426  0.6726
  852MOL0     C12375   4.845   2.960  10.546  0.0818  0.3847 -0.0531
  852MOL0    Cl12376   4.808   2.779  10.538  0.7292 -0.0970  0.3719
  852MOL0     C12377   5.742   3.405  10.903  0.2771 -0.1805 -0.0384
  852MOL0     C12378   5.876   3.390  10.877  0.5710  0.2883 -0.7862
  852MOL0     O12379   6.090   3.579  10.722 -0.8556 -0.1375  0.1557
  852MOL0     C12380   6.342   3.315  10.685 -0.4651 -0.3130 -0.1636
  852MOL0     C12381   6.472   3.300  10.635  0.2961 -0.7238  0.2266
  852MOL0     N12382   6.895   3.735  10.340  0.7434  0.0515  0.0876
  852MOL0     N12383   6.821   3.835  10.365  0.6046  1.5140 -0.8466
  852MOL0     C12384   5.742   4.167   9.751 -0.1018  1.2394 -0.1884
  852MOL0     C12385   5.631   4.188   9.671  1.2665 -0.8842  0.0011
  852MOL0     C12386   5.363   4.231   9.284  0.9239 -0.5876 -0.0405
  852MOL0     C12387   5.264   4.288   9.375 -0.4619  1.4919  0.9753
  852MOL0     C12388   5.137   4.320   9.326 -0.2778  0.2976 -0.1266
  852MOL0     C12389   5.100   4.301   9.199  0.4699 -0.9775 -0.2128
  852MOL0     O12390   4.968   4.316   9.154  0.0587 -0.1456  0.8716
  852MOL0     C12391   4.941   4.409   9.050 -0.2278  0.4150  0.1814
  852MOL0     C12392   4.796   4.434   9.056 -0.5690 -0.3282 -0.8648
  852MOL0     C12393   4.750   4.508   9.185  0.0734 -0.0074  0.6418
  852MOL0     C12394   4.770   4.662   9.175 -0.0679 -0.6740 -0.2900
  852MOL0     C12395   4.731   4.717   9.302  0.3116 -0.5954  0.8057
  852MOL0     C12396   4.684   4.782   9.400 -0.4766  0.0812 -0.7824
  852MOL0     C12397   5.192   4.245   9.108  0.2261  0.0285 -0.0519
  852MOL0     C12398   5.318   4.203   9.155 -0.0121 -0.0026 -0.2529
  852MOL0     H12399   5.799   4.170   9.370  1.1312 -0.8144  0.0703
  852MOL0     H12400   5.976   4.107   9.522  0.8299  2.8433  0.7727
  852MOL0     H12401   6.014   4.206   9.953  2.1767 -0.9421 -0.1649
  852MOL0     H12402   5.970   4.326   9.820  0.8335  0.0471 -0.3278
  852MOL0     H12403   6.189   4.368   9.839  1.2988  0.6327  0.0811
  852MOL0     H12404   6.172   4.265   9.696  2.7763  0.4300  0.6212
  852MOL0     H12405   6.355   4.149   9.780  1.0957 -0.3364  1.4049
  852MOL0     H12406   6.229   4.069   9.841 -1.3155  1.0425 -0.1678
  852MOL0     H12407   6.329   4.295  10.030  1.5113  1.2456 -1.1170
  852MOL0     H12408   6.255   4.128  10.060  0.3455  0.3067 -0.4207
  852MOL0     H12409   6.517   4.151   9.911 -2.0338  0.7782 -1.7720
  852MOL0     H12410   6.439   4.016   9.977 -2.0869 -0.9437 -0.8106
  852MOL0     H12411   6.457   4.119  10.221  1.1299 -1.7843  0.0914
  852MOL0     H12412   6.560   4.237  10.142 -1.1486 -0.0945 -1.0655
  852MOL0     H12413   6.658   3.976  10.056  1.2336 -1.9891  1.5400
  852MOL0     H12414   6.735   4.104  10.156  0.3882  0.1277 -2.7112
  852MOL0     H12415   6.526   3.899  10.250  0.4583 -0.9593 -0.0143
  852MOL0     H12416   6.607   4.006  10.349 -4.7151 -0.2784 -0.7918
  852MOL0     H12417   6.679   3.726  10.086  0.1960 -0.3797 -0.4501
  852MOL0     H12418   6.992   3.530  10.259 -1.1751 -1.9694  1.9722
  852MOL0     H12419   6.953   3.548  10.087 -0.9932 -1.0451 -0.2175
  852MOL0     H12420   6.882   3.337  10.151 -3.0823 -2.6449  0.6125
  852MOL0     H12421   6.733   3.434  10.134 -0.1571  1.1431 -0.0010
  852MOL0     H12422   6.795   3.272  10.353  0.3432 -0.4374 -1.1894
  852MOL0     H12423   6.887   3.413  10.407 -0.6525 -0.0745 -0.3301
  852MOL0     H12424   6.600   3.400  10.334 -0.1800  1.1851 -0.2601
  852MOL0     H12425   6.672   3.549  10.408  0.4865  0.1417 -0.6977
  852MOL0     H12426   6.537   3.621  10.547  1.9025 -3.5942 -4.9149
  852MOL0     H12427   6.312   3.652  10.622  1.7085  1.1508  1.5072
  852MOL0     H12428   5.882   3.341  10.535  3.1093  1.4094  0.3961
  852MOL0     H12429   5.635   3.365  10.568  0.7492 -1.3598 -1.0094
  852MOL0     H12430   5.448   3.487  10.652 -0.5964  0.2818 -0.5973
  852MOL0     H12431   5.343   3.494  10.783 -1.1250 -1.4331  0.1375
  852MOL0     H12432   5.425   3.227  10.635  1.2057 -0.3217  2.7833
  852MOL0     H12433   5.278   3.316  10.620 -1.8940 -2.5221  1.0796
  852MOL0     H12434   5.210   3.273  10.854 -1.8690 -1.9870 -0.8252
  852MOL0     H12435   5.372   3.203  10.887 -3.2914 -1.4165  2.1568
  852MOL0     H12436   5.319   3.043  10.709  0.3908 -2.6443  2.8678
  852MOL0     H12437   5.241   3.027  10.859  0.8580  0.5831 -0.3479
  852MOL0     H12438   5.069   3.174  10.659  1.2585 -2.0859 -5.2416
  852MOL0     H12439   5.027   3.075  10.794 -0.6821  0.0145 -0.7310
  852MOL0     H12440   5.090   2.868  10.654  1.7429  1.4743  0.3994
  852MOL0     H12441   5.190   2.970  10.560 -0.7900  0.8641 -1.0291
  852MOL0     H12442   4.988   3.096  10.462 -0.6531 -0.4372 -2.3708
  852MOL0     H12443   5.011   2.932  10.420  0.8894  0.0167  1.2863
  852MOL0     H12444   4.782   3.010  10.472  2.2472  2.8385 -0.3916
  852MOL0     H12445   4.818   3.002  10.643  3.2978 -0.7950  1.5082
  852MOL0     H12446   5.707   3.429  11.003 -0.2621 -0.2170 -0.2138
  852MOL0     H12447   5.959   3.391  10.948 -2.4328 -0.1511  3.0517
  852MOL0     H12448   6.286   3.226  10.711 -0.9654 -0.1115 -0.5217
  852MOL0     H12449   6.511   3.201  10.615 -1.6358 -1.1406 -1.7765
  852MOL0     H12450   5.732   4.157   9.859 -3.2591 -1.1110 -0.5313
  852MOL0     H12451   5.533   4.203   9.716 -2.1554 -3.6537 -5.4393
  852MOL0     H12452   5.283   4.297   9.482 -1.1374 -1.0666  1.3856
  852MOL0     H12453   5.072   4.367   9.399 -0.7584 -2.6918  1.5308
  852MOL0     H12454   4.975   4.361   8.958 -2.1290 -0.1474 -0.2798
  852MOL0     H12455   4.987   4.508   9.054  0.3105  0.1719  0.0947
  852MOL0     H12456   4.766   4.495   8.970  0.3709  2.0118  0.3595
  852MOL0     H12457   4.751   4.335   9.069 -1.1685 -0.1364 -1.4438
  852MOL0     H12458   4.801   4.471   9.275 -1.6760 -4.0261  0.1835
  852MOL0     H12459   4.647   4.479   9.203 -0.6243  3.3559  3.1739
  852MOL0     H12460   4.870   4.689   9.141  0.4104 -2.2741 -0.2237
  852MOL0     H12461   4.701   4.698   9.098  0.0097 -2.8419 -1.4381
  852MOL0     H12462   4.634   4.835   9.478 -0.2998  1.3980 -1.5352
  852MOL0     H12463   5.166   4.211   9.008 -0.7421 -1.2029  0.5872
  852MOL0     H12464   5.387   4.161   9.082 -1.1625  1.2514 -2.1842
  853MOL0     O12465  10.443   1.927   4.837  0.4777 -0.4629  0.8059
  853MOL0     C12466  10.555   1.872   4.837  0.3819  0.3390  0.1675
  853MOL0     O12467  10.580   1.742   4.865  0.3422  0.4733 -0.4636
  853MOL0     C12468  10.487   1.648   4.890  0.3290  0.6702 -0.4630
  853MOL0     C12469  10.509   1.525   4.829  0.6932 -0.5171 -0.5344
  853MOL0     C12470  10.418   1.413   4.839  0.2118  0.8266 -0.1112
  853MOL0     C12471  10.294   1.433   4.917  0.5683 -0.8605  0.4473
  853MOL0     O12472  10.196   1.337   4.934 -0.1197 -0.2833 -1.1685
  853MOL0     C12473  10.200   1.218   4.853  0.1371 -0.6378 -0.6100
  853MOL0     C12474  10.165   1.253   4.707  0.1940 -0.8032  0.0273
  853MOL0     C12475  10.020   1.304   4.677  0.6937 -0.8423 -0.3433
  853MOL0     C12476   9.997   1.445   4.729 -0.1102  1.0026 -0.1554
  853MOL0     C12477   9.859   1.494   4.676 -0.3622 -1.0389  0.4400
  853MOL0     C12478   9.820   1.629   4.740  0.1814  0.5144  0.4420
  853MOL0     C12479   9.686   1.678   4.667 -0.9620 -0.0932  0.1407
  853MOL0     C12480   9.659   1.823   4.726  0.2493 -0.1727 -0.5979
  853MOL0     N12481   9.608   1.819   4.868 -0.6704  1.0709 -1.0060
  853MOL0     C12482   9.482   1.825   4.907 -0.4927 -0.7467  1.2044
  853MOL0     C12483   9.492   1.805   5.044  0.7169  0.1630  1.9430
  853MOL0     C12484   9.358   1.800   5.123 -0.4761 -0.9712  0.1573
  853MOL0     C12485   9.391   1.826   5.275 -0.1643  1.2554  0.0150
  853MOL0     C12486   9.269   1.831   5.376  0.0251  0.8866 -1.5406
  853MOL0     C12487   9.193   1.692   5.375 -0.0682 -0.0693  0.1270
  853MOL0     O12488   9.277   1.583   5.426  0.3971  0.6266  0.2725
  853MOL0     C12489   9.232   1.501   5.529 -0.3623 -0.5516  0.3780
  853MOL0     C12490   9.161   1.543   5.641  0.1259  0.0344  0.6333
  853MOL0     C12491   9.127   1.451   5.736 -0.6341  0.6411 -0.4853
  853MOL0     C12492   9.158   1.323   5.732  0.7776  0.3739 -0.7863
  853MOL0     C12493   9.128   1.233   5.845  0.3439  0.2887 -0.2249
  853MOL0     O12494   9.120   1.289   5.975  0.4064  1.0193  0.6508
  853MOL0     C12495   9.086   1.199   6.076 -0.4169  0.5984 -0.8534
  853MOL0     C12496   9.166   1.213   6.192  0.4928 -0.1768 -0.0461
  853MOL0     C12497   9.136   1.116   6.298  0.2975 -0.3030  0.2009
  853MOL0     C12498   9.030   1.027   6.298 -0.1675  1.2608  0.4207
  853MOL0     O12499   9.012   0.958   6.418 -0.0094 -0.9771 -0.0129
  853MOL0     C12500   9.120   0.894   6.486 -0.4922 -0.9067 -0.4755
  853MOL0     C12501   9.077   0.750   6.536 -0.3780  0.2910  1.1549
  853MOL0     C12502   8.939   0.746   6.614  0.0385  0.6478 -0.0767
  853MOL0     C12503   8.906   0.600   6.657  0.5154 -0.6191  0.5263
  853MOL0     C12504   8.965   0.569   6.792  0.1647 -0.0170  0.8657
  853MOL0     C12505   8.913   0.437   6.846  0.7027  0.6572 -0.0175
  853MOL0     C12506   8.960   0.400   6.981  0.2505  0.6211 -0.0181
  853MOL0     C12507   9.074   0.301   6.985  0.1109 -0.7926  0.1461
  853MOL0    Cl12508   9.220   0.377   6.934 -0.5954  0.5313  0.7092
  853MOL0     C12509   8.947   1.027   6.182  0.2043 -0.6104 -0.3097
  853MOL0     C12510   8.977   1.106   6.075 -0.2404 -0.7154 -0.1828
  853MOL0     O12511   9.141   1.115   5.825 -0.5367  0.3566  0.4091
  853MOL0     C12512   9.219   1.266   5.617 -0.5331  0.1098  1.0559
  853MOL0     C12513   9.254   1.358   5.515  1.6664  0.4041 -0.2114
  853MOL0     N12514   9.623   1.788   5.082 -0.0905  0.9233 -0.0031
  853MOL0     N12515   9.689   1.797   4.977 -0.1820 -0.3449 -0.1821
  853MOL0     C12516  10.269   1.561   4.965 -0.6173  0.0616  0.7550
  853MOL0     C12517  10.371   1.660   4.955  0.0951  0.9791  0.2523
  853MOL0     C12518  10.671   1.957   4.813 -0.4734 -0.0046  0.5608
  853MOL0     C12519  10.808   1.912   4.814  1.4515 -0.5434  0.5235
  853MOL0     C12520  10.908   1.991   4.769  0.7274 -0.4937 -0.4593
  853MOL0     C12521  10.891   2.124   4.749  0.5818 -0.5011 -0.4126
  853MOL0     O12522  11.003   2.190   4.694 -0.0211  0.0322  0.1622
  853MOL0     C12523  11.003   2.324   4.639  0.7459 -0.3575 -0.8076
  853MOL0     C12524  11.143   2.373   4.602 -0.5838  0.1463  0.5654
  853MOL0     C12525  11.214   2.281   4.504  0.4727 -0.4949  0.5238
  853MOL0     C12526  11.348   2.340   4.437 -0.4795  0.0344 -0.7707
  853MOL0     C12527  11.455   2.348   4.533 -0.3566  0.2829  1.1281
  853MOL0     C12528  11.538   2.361   4.626  1.0740  0.0664  0.5572
  853MOL0     C12529  10.763   2.179   4.765  0.1183 -0.3637 -0.0985
  853MOL0     C12530  10.652   2.102   4.800 -0.2402 -0.7678  0.0626
  853MOL0     H12531  10.609   1.508   4.790  0.8698 -1.8624  0.4469
  853MOL0     H12532  10.441   1.314   4.802  0.1785  1.2849 -1.4075
  853MOL0     H12533  10.110   1.163   4.881 -0.2091 -0.5921 -1.6069
  853MOL0     H12534  10.291   1.159   4.866 -0.3606 -1.4065 -0.5942
  853MOL0     H12535  10.174   1.161   4.648  1.4448  0.4591 -1.8652
  853MOL0     H12536  10.232   1.331   4.670 -2.5703  2.3141  1.1072
  853MOL0     H12537   9.952   1.241   4.736  2.6626 -1.2499  1.6405
  853MOL0     H12538  10.015   1.296   4.568  1.1827  1.5309 -0.5845
  853MOL0     H12539  10.008   1.449   4.838  2.5242 -1.5847 -0.2138
  853MOL0     H12540  10.075   1.507   4.686 -1.0223  1.4678 -1.1917
  853MOL0     H12541   9.782   1.421   4.701 -0.8794 -0.9782 -0.8733
  853MOL0     H12542   9.859   1.514   4.568  1.0864  4.4552  1.1416
  853MOL0     H12543   9.905   1.697   4.734  0.7164 -0.0219  1.7053
  853MOL0     H12544   9.796   1.606   4.844 -2.1548  2.0549  0.3364
  853MOL0     H12545   9.709   1.682   4.560  0.9376  0.2476  0.5440
  853MOL0     H12546   9.592   1.625   4.689 -1.0759  0.7543  1.8311
  853MOL0     H12547   9.588   1.871   4.658 -1.9178 -1.4958  0.5744
  853MOL0     H12548   9.751   1.881   4.723  1.0474 -1.1725  1.6882
  853MOL0     H12549   9.397   1.840   4.841 -0.9462  0.5208  2.0459
  853MOL0     H12550   9.322   1.697   5.119  0.7917 -1.4997  1.3166
  853MOL0     H12551   9.283   1.872   5.089  3.1128  4.0080  1.5926
  853MOL0     H12552   9.453   1.914   5.294  0.4945  0.9551 -0.6980
  853MOL0     H12553   9.439   1.732   5.304  0.1991  0.8437 -1.7886
  853MOL0     H12554   9.300   1.838   5.481 -2.4814 -1.2151 -0.5673
  853MOL0     H12555   9.206   1.919   5.363  1.4612  1.7951 -2.7355
  853MOL0     H12556   9.139   1.666   5.284 -0.8808 -3.2486  1.3932
  853MOL0     H12557   9.107   1.715   5.440  0.6163 -1.4364  1.5860
  853MOL0     H12558   9.127   1.646   5.652 -3.6993 -1.2545  2.7833
  853MOL0     H12559   9.078   1.486   5.826 -1.8252 -0.2342 -0.7623
  853MOL0     H12560   9.251   1.280   6.203  2.6557 -2.7822 -0.0400
  853MOL0     H12561   9.208   1.102   6.378 -3.1719 -2.3478  3.3366
  853MOL0     H12562   9.165   0.967   6.554 -0.1655 -0.3695 -1.2456
  853MOL0     H12563   9.200   0.876   6.414  3.2757 -1.6107  3.5158
  853MOL0     H12564   9.151   0.703   6.600  0.9568  1.6156  0.6502
  853MOL0     H12565   9.058   0.691   6.446  0.1939 -0.1764  1.3364
  853MOL0     H12566   8.854   0.786   6.558 -0.9894 -1.9628 -0.5338
  853MOL0     H12567   8.956   0.813   6.698  1.7177  1.6043 -1.1246
  853MOL0     H12568   8.797   0.597   6.650  0.4798  0.3608  0.5577
  853MOL0     H12569   8.953   0.520   6.599  2.0094 -0.7781  1.9038
  853MOL0     H12570   8.944   0.649   6.863 -1.2826 -0.2875  0.7640
  853MOL0     H12571   9.074   0.557   6.783  0.1309 -1.2853  1.7285
  853MOL0     H12572   8.952   0.363   6.775  1.0007 -0.1737  0.9879
  853MOL0     H12573   8.804   0.436   6.843  0.7065  0.5359 -0.0910
  853MOL0     H12574   8.993   0.484   7.042 -2.3124  1.2682  0.5875
  853MOL0     H12575   8.873   0.352   7.028  0.0051  0.9928 -0.0854
  853MOL0     H12576   9.041   0.211   6.933 -3.2692  0.0181  0.6447
  853MOL0     H12577   9.087   0.263   7.087 -0.2762 -1.2367  0.0342
  853MOL0     H12578   8.852   0.974   6.175 -0.4698  0.7850 -4.3005
  853MOL0     H12579   8.919   1.093   5.984  0.2390  0.3174 -0.6545
  853MOL0     H12580   9.246   1.162   5.603  1.5226  0.7129  0.1971
  853MOL0     H12581   9.314   1.320   5.433  0.8278 -0.0078 -0.6548
  853MOL0     H12582  10.174   1.572   5.017 -0.9252 -0.6959  0.3618
  853MOL0     H12583  10.335   1.750   5.005 -1.1647  0.9033 -0.4946
  853MOL0     H12584  10.830   1.806   4.824  0.8562 -0.5782  1.7129
  853MOL0     H12585  11.012   1.963   4.755 -0.0182 -3.8520 -0.0707
  853MOL0     H12586  10.970   2.396   4.714  0.8625 -1.1995  0.0744
  853MOL0     H12587  10.931   2.331   4.556  2.7334 -2.4672 -2.8707
  853MOL0     H12588  11.136   2.471   4.553 -1.6591 -0.1553  0.0590
  853MOL0     H12589  11.202   2.379   4.693 -1.7945  0.4082  1.3531
  853MOL0     H12590  11.148   2.240   4.427  1.7307 -0.4873 -0.6015
  853MOL0     H12591  11.237   2.185   4.552  2.7148 -1.7144 -2.6127
  853MOL0     H12592  11.387   2.285   4.351 -0.1678 -0.1842 -0.4912
  853MOL0     H12593  11.333   2.441   4.395 -2.1534  1.3600  2.5974
  853MOL0     H12594  11.612   2.361   4.703  1.8789 -2.1534 -0.1359
  853MOL0     H12595  10.748   2.285   4.747  0.7631 -0.1662  0.4903
  853MOL0     H12596  10.562   2.161   4.805  0.3825  0.1966  0.1870
  854MOL0     O12597   9.508   0.988   6.055  0.0116 -0.3782  0.0003
  854MOL0     C12598   9.445   0.942   6.151 -0.2463 -0.3095  0.2291
  854MOL0     O12599   9.460   0.976   6.285 -0.4306 -0.3043  0.7363
  854MOL0     C12600   9.529   1.085   6.326  0.3879  0.4531  0.2777
  854MOL0     C12601   9.548   1.209   6.265 -0.4229 -0.5290 -0.4218
  854MOL0     C12602   9.611   1.309   6.332  0.1025  0.3096 -0.1602
  854MOL0     C12603   9.664   1.295   6.457 -0.4557  0.0437 -0.2391
  854MOL0     O12604   9.723   1.399   6.524  0.0024 -0.0496  0.7915
  854MOL0     C12605   9.777   1.391   6.653  0.4789 -0.6162 -1.0022
  854MOL0     C12606   9.852   1.522   6.706 -0.0164 -0.8986 -0.7315
  854MOL0     C12607   9.841   1.547   6.858  1.0504 -0.1423 -0.0071
  854MOL0     C12608   9.901   1.432   6.935  0.0238  1.0946 -0.6055
  854MOL0     C12609   9.887   1.461   7.086 -0.4480  0.5267 -0.0346
  854MOL0     C12610   9.960   1.350   7.169  0.3133 -0.1103  0.0222
  854MOL0     C12611   9.977   1.368   7.324 -0.4148  0.1916  1.4856
  854MOL0     C12612   9.839   1.418   7.378 -0.0839  0.2119 -0.0222
  854MOL0     N12613   9.835   1.427   7.526  0.0452  0.3186  0.8785
  854MOL0     C12614   9.741   1.361   7.608  0.4875  0.2895  0.8559
  854MOL0     C12615   9.782   1.372   7.729 -0.6572  1.1031  0.3812
  854MOL0     C12616   9.723   1.301   7.852 -0.0680 -0.0402 -0.5676
  854MOL0     C12617   9.813   1.187   7.899  0.2771 -0.1926  0.6524
  854MOL0     C12618   9.769   1.118   8.028  0.6099  0.5361  0.4021
  854MOL0     C12619   9.617   1.086   8.033  0.7441  0.6641  0.1446
  854MOL0     O12620   9.588   1.019   8.153 -0.4662 -0.1957  0.2508
  854MOL0     C12621   9.464   0.962   8.172  0.3356  0.2384  0.8053
  854MOL0     C12622   9.451   0.891   8.291 -0.3454 -0.3298  0.1643
  854MOL0     C12623   9.327   0.836   8.330 -0.4013 -0.3308  0.0643
  854MOL0     C12624   9.220   0.832   8.230 -0.4116 -1.6521 -0.5502
  854MOL0     C12625   9.092   0.763   8.252  0.2434  0.2862 -0.6698
  854MOL0     O12626   8.993   0.784   8.169  0.5282 -0.1283  1.1404
  854MOL0     C12627   8.895   0.687   8.167 -0.6286  0.4775  0.5450
  854MOL0     C12628   8.769   0.735   8.222 -0.6881  0.0500  0.6726
  854MOL0     C12629   8.668   0.639   8.197  0.2601 -0.9218 -0.6463
  854MOL0     C12630   8.674   0.523   8.139  0.8053  0.1499  0.2457
  854MOL0     O12631   8.573   0.449   8.106  0.6169 -0.4314 -0.4161
  854MOL0     C12632   8.446   0.474   8.162  0.0192 -1.0002  0.2361
  854MOL0     C12633   8.339   0.382   8.103  0.2373  0.7314 -0.6619
  854MOL0     C12634   8.264   0.431   7.985 -0.6792 -0.5344  0.6777
  854MOL0     C12635   8.176   0.315   7.937 -0.1136  1.1077 -0.0884
  854MOL0     C12636   8.063   0.367   7.843  0.3377  0.1335  1.1449
  854MOL0     C12637   7.973   0.482   7.904  0.1595  0.0025  1.0135
  854MOL0     C12638   7.925   0.467   8.047 -0.6494  0.1783  0.2537
  854MOL0     C12639   7.872   0.602   8.112 -0.3949  0.1594  0.3876
  854MOL0    Cl12640   7.697   0.587   8.154 -0.1311  0.1645  0.0587
  854MOL0     C12641   8.794   0.483   8.087  0.9060  0.7347  0.1282
  854MOL0     C12642   8.907   0.560   8.106 -0.2226 -0.2400 -0.5139
  854MOL0     O12643   9.085   0.685   8.347 -0.4807 -1.2387  0.6162
  854MOL0     C12644   9.231   0.908   8.105  0.6336  0.0911 -0.5954
  854MOL0     C12645   9.355   0.969   8.083  0.6195 -0.5795 -0.0838
  854MOL0     N12646   9.899   1.450   7.730  1.3670  0.0552 -0.2809
  854MOL0     N12647   9.929   1.482   7.609  0.0093 -0.6674  0.6711
  854MOL0     C12648   9.650   1.177   6.515 -0.3448  0.1824 -0.8482
  854MOL0     C12649   9.575   1.072   6.460 -0.0974  0.4550 -0.0540
  854MOL0     C12650   9.342   0.841   6.132 -0.5898  0.3091 -0.0858
  854MOL0     C12651   9.334   0.726   6.209 -0.1653 -0.2370 -0.3969
  854MOL0     C12652   9.223   0.647   6.202  0.2456  0.5095  0.5077
  854MOL0     C12653   9.121   0.677   6.107 -0.8035 -0.0978 -0.3188
  854MOL0     O12654   9.009   0.599   6.076  0.3221 -0.3489  0.7070
  854MOL0     C12655   8.927   0.544   6.183 -0.2502  0.8374  0.2754
  854MOL0     C12656   8.807   0.631   6.224 -0.5259 -0.6091 -0.4577
  854MOL0     C12657   8.680   0.635   6.130 -1.2258 -0.5326 -0.3206
  854MOL0     C12658   8.617   0.501   6.109  0.0804  0.0581 -0.0363
  854MOL0     C12659   8.584   0.452   6.248  1.1779  0.2062  1.3508
  854MOL0     C12660   8.564   0.411   6.361  0.0100  0.5892 -0.7107
  854MOL0     C12661   9.140   0.783   6.015  0.0633 -0.9115 -0.8741
  854MOL0     C12662   9.242   0.871   6.030 -0.3481 -0.3929 -0.4889
  854MOL0     H12663   9.495   1.247   6.178 -1.5237  1.5741  1.0553
  854MOL0     H12664   9.605   1.414   6.305 -3.2801  0.3042  0.1664
  854MOL0     H12665   9.853   1.311   6.660  0.0796 -0.8552  1.1936
  854MOL0     H12666   9.695   1.380   6.724  2.0381 -0.6343  0.8603
  854MOL0     H12667   9.811   1.610   6.655  1.5805  1.5236  1.9069
  854MOL0     H12668   9.957   1.520   6.676 -0.4450 -2.7544 -2.3999
  854MOL0     H12669   9.733   1.554   6.872  0.9303 -0.6998 -0.5935
  854MOL0     H12670   9.895   1.639   6.883  1.4077  0.2763 -2.0715
  854MOL0     H12671   9.849   1.339   6.910 -0.5370  1.1186  0.3932
  854MOL0     H12672  10.006   1.412   6.913 -0.6368 -0.9469 -2.1829
  854MOL0     H12673   9.782   1.460   7.117 -1.1888  1.5497 -2.2923
  854MOL0     H12674   9.922   1.564   7.100 -0.4818  0.4095  0.9625
  854MOL0     H12675  10.060   1.342   7.125 -0.1128 -0.5925 -0.8903
  854MOL0     H12676   9.920   1.249   7.157  4.3380 -2.0424  1.0009
  854MOL0     H12677  10.002   1.272   7.370 -2.2578 -1.0748  0.0215
  854MOL0     H12678  10.059   1.440   7.323 -0.2304  0.0298 -0.4395
  854MOL0     H12679   9.763   1.357   7.328 -1.3749  2.0867 -0.4650
  854MOL0     H12680   9.822   1.515   7.331 -0.0807  0.2151 -0.0171
  854MOL0     H12681   9.651   1.309   7.577  1.6896 -0.6780 -1.2422
  854MOL0     H12682   9.617   1.277   7.837 -0.1119  1.5801 -3.8584
  854MOL0     H12683   9.707   1.384   7.922 -0.5499 -0.7340  0.1670
  854MOL0     H12684   9.919   1.214   7.905  0.7888 -2.1340  1.1322
  854MOL0     H12685   9.808   1.112   7.819 -1.9366  2.4778 -1.9308
  854MOL0     H12686   9.840   1.035   8.029  2.5770  2.1196 -0.6907
  854MOL0     H12687   9.789   1.167   8.124  3.6291 -0.8354  0.5915
  854MOL0     H12688   9.581   1.023   7.951  0.5935  2.3974 -1.1728
  854MOL0     H12689   9.565   1.182   8.029  2.2502  1.5333  0.4785
  854MOL0     H12690   9.532   0.888   8.363 -0.8112 -0.6579  0.6828
  854MOL0     H12691   9.304   0.797   8.429  0.3719  1.6512  1.0702
  854MOL0     H12692   8.760   0.838   8.254  2.8236  0.1932  1.6493
  854MOL0     H12693   8.573   0.685   8.221  1.2274 -0.0384  1.7668
  854MOL0     H12694   8.420   0.579   8.150  1.0150 -0.9683 -2.0125
  854MOL0     H12695   8.457   0.455   8.270 -0.2104  0.7701  0.6029
  854MOL0     H12696   8.262   0.367   8.179  1.3711  0.7090  0.5055
  854MOL0     H12697   8.379   0.283   8.077 -3.3347 -0.7693 -1.0976
  854MOL0     H12698   8.346   0.446   7.914 -1.3084  3.6940  0.5996
  854MOL0     H12699   8.199   0.518   7.999 -2.4928 -1.4792 -1.3641
  854MOL0     H12700   8.231   0.238   7.883 -0.4887  2.1074 -1.9991
  854MOL0     H12701   8.133   0.261   8.022 -0.4992 -1.2814 -1.7006
  854MOL0     H12702   8.008   0.275   7.820  2.0388 -0.2401 -1.8276
  854MOL0     H12703   8.114   0.408   7.756  1.4885 -0.7073  1.4077
  854MOL0     H12704   7.885   0.470   7.840 -1.1340 -0.5116  2.7934
  854MOL0     H12705   8.021   0.580   7.898  3.1347 -1.4383 -0.9553
  854MOL0     H12706   7.836   0.404   8.051 -1.8000  1.7819  1.2521
  854MOL0     H12707   8.006   0.416   8.099 -1.6302 -1.4692  0.2336
  854MOL0     H12708   7.890   0.683   8.041  1.0915 -0.0351  0.5157
  854MOL0     H12709   7.923   0.621   8.207 -1.1284  0.7997  0.6665
  854MOL0     H12710   8.790   0.383   8.046  2.9693  0.8420 -0.4561
  854MOL0     H12711   9.006   0.535   8.069  0.3333  3.9536 -2.5017
  854MOL0     H12712   9.137   0.912   8.050 -2.1571 -2.0693  3.4597
  854MOL0     H12713   9.366   1.030   7.994 -2.5312 -0.9271 -0.8138
  854MOL0     H12714   9.686   1.154   6.615  1.8474  0.5600 -1.5121
  854MOL0     H12715   9.559   0.974   6.503  0.5907 -0.2915 -1.4358
  854MOL0     H12716   9.411   0.706   6.284  0.2679  1.1103 -0.4607
  854MOL0     H12717   9.216   0.562   6.269 -1.8180 -0.3114 -0.6246
  854MOL0     H12718   8.987   0.517   6.270  2.0161  3.0078 -0.4868
  854MOL0     H12719   8.892   0.450   6.139  1.9557 -0.1646  0.5514
  854MOL0     H12720   8.783   0.632   6.331 -1.6676  1.4857 -0.6734
  854MOL0     H12721   8.849   0.732   6.219 -1.2587 -0.1830  1.0751
  854MOL0     H12722   8.714   0.656   6.028 -1.7482 -0.1489 -0.4222
  854MOL0     H12723   8.615   0.719   6.155  0.6540  1.2824 -1.2694
  854MOL0     H12724   8.530   0.513   6.045 -0.6722 -5.5908 -0.5688
  854MOL0     H12725   8.685   0.436   6.054  0.2259  1.0754 -1.0971
  854MOL0     H12726   8.542   0.383   6.462 -1.4070  2.3548 -0.4949
  854MOL0     H12727   9.060   0.811   5.948 -2.7238 -2.7680  1.4592
  854MOL0     H12728   9.235   0.971   5.986 -0.6890  0.6490  1.7797
  855MOL0     O12729   3.892   0.734   6.682 -0.5015  0.0789  0.0628
  855MOL0     C12730   3.965   0.832   6.696  0.0661  0.0520 -0.4450
  855MOL0     O12731   4.090   0.855   6.638  0.1296 -0.5262  0.1692
  855MOL0     C12732   4.114   0.754   6.547  1.2361  0.0104 -0.0473
  855MOL0     C12733   4.047   0.731   6.424 -1.0964  0.3307  0.3357
  855MOL0     C12734   4.094   0.623   6.344 -0.5336  0.4474 -0.2336
  855MOL0     C12735   4.211   0.542   6.369  0.1866 -0.4407  0.6377
  855MOL0     O12736   4.255   0.436   6.291  0.5621  0.1072  0.1732
  855MOL0     C12737   4.296   0.478   6.164  0.0410  0.8506  0.4055
  855MOL0     C12738   4.380   0.356   6.108 -0.3270  0.6523 -0.3292
  855MOL0     C12739   4.390   0.363   5.957 -0.1569 -0.4438  0.0552
  855MOL0     C12740   4.516   0.304   5.881 -0.0963 -0.0251  0.4643
  855MOL0     C12741   4.535   0.160   5.917  0.1739 -0.4184 -0.9798
  855MOL0     C12742   4.627   0.085   5.819 -0.3888  0.4066 -0.0413
  855MOL0     C12743   4.656  -0.052   5.866 -1.1796 -0.5743 -0.0731
  855MOL0     C12744   4.775  -0.122   5.777 -0.2792  0.1063 -0.1691
  855MOL0     N12745   4.729  -0.223   5.686  1.4410 -0.7577  0.3915
  855MOL0     C12746   4.799  -0.320   5.615 -0.6483 -0.7711  0.2432
  855MOL0     C12747   4.708  -0.372   5.522  0.0781 -0.5859 -0.6191
  855MOL0     C12748   4.742  -0.469   5.418  0.5400  0.2164 -0.4805
  855MOL0     C12749   4.841  -0.425   5.318  0.5342  1.5184 -0.5320
  855MOL0     C12750   4.928  -0.536   5.246 -0.2578  1.1215 -0.0440
  855MOL0     C12751   5.048  -0.578   5.336  0.1880 -0.3364  0.2321
  855MOL0     O12752   5.065  -0.721   5.341 -0.0811  0.4776  0.0121
  855MOL0     C12753   5.147  -0.767   5.444  0.1840  0.2662  0.4735
  855MOL0     C12754   5.267  -0.708   5.479  1.0723 -1.3685 -0.2198
  855MOL0     C12755   5.347  -0.772   5.571  0.1066  0.0167  0.1738
  855MOL0     C12756   5.313  -0.901   5.619 -0.2361  0.1868  0.0081
  855MOL0     C12757   5.396  -0.982   5.714 -0.0400 -0.3419  0.8105
  855MOL0     O12758   5.350  -1.101   5.765  0.4079 -0.1873 -0.7115
  855MOL0     C12759   5.406  -1.143   5.883 -0.7650  0.2969  0.1288
  855MOL0     C12760   5.456  -1.269   5.891 -0.0388  1.2773 -0.9723
  855MOL0     C12761   5.516  -1.323   6.008 -0.3344 -0.0620 -0.2411
  855MOL0     C12762   5.538  -1.237   6.126 -0.6483  0.1323  0.3590
  855MOL0     O12763   5.612  -1.278   6.235 -0.6210 -0.4209 -0.5276
  855MOL0     C12764   5.649  -1.424   6.253  0.3616 -0.4392  0.4162
  855MOL0     C12765   5.749  -1.451   6.362  0.0893 -0.7109  1.0237
  855MOL0     C12766   5.733  -1.591   6.418 -0.8258  0.0489  0.6096
  855MOL0     C12767   5.846  -1.616   6.514 -0.3017 -0.4104 -0.8537
  855MOL0     C12768   5.833  -1.742   6.598 -0.4132  0.6532 -0.5184
  855MOL0     C12769   5.826  -1.864   6.512 -0.2661 -0.5771 -0.9333
  855MOL0     C12770   5.948  -1.927   6.436 -1.2018 -0.0196 -0.7707
  855MOL0     C12771   5.897  -2.041   6.346  0.0337  0.2753 -0.0565
  855MOL0    Cl12772   5.788  -2.166   6.414 -0.7027 -0.5846  0.6117
  855MOL0     C12773   5.480  -1.103   6.112 -0.6671  0.6771 -0.9785
  855MOL0     C12774   5.415  -1.070   5.995  0.4843 -0.1869  0.5202
  855MOL0     O12775   5.503  -0.925   5.745  0.0637 -1.0880  0.7696
  855MOL0     C12776   5.193  -0.956   5.578 -0.4546 -0.4596  0.6042
  855MOL0     C12777   5.103  -0.883   5.497  0.0673  0.1181 -0.4627
  855MOL0     N12778   4.586  -0.318   5.536  0.0633 -0.2539 -0.1782
  855MOL0     N12779   4.595  -0.232   5.630 -0.5918  0.4073  0.8980
  855MOL0     C12780   4.276   0.572   6.497 -0.1042  0.6462  0.5272
  855MOL0     C12781   4.232   0.678   6.583 -0.1325 -0.1468 -0.6592
  855MOL0     C12782   3.939   0.918   6.820 -0.6690  0.1145  0.0085
  855MOL0     C12783   4.020   1.033   6.851 -1.2248  0.1273  0.1077
  855MOL0     C12784   3.987   1.120   6.952  0.6958 -0.3336  0.0187
  855MOL0     C12785   3.862   1.103   7.012 -0.1642 -0.1346 -0.1095
  855MOL0     O12786   3.806   1.196   7.095  0.1843 -0.4879  0.2709
  855MOL0     C12787   3.822   1.348   7.077  1.2351 -0.5177  0.4652
  855MOL0     C12788   3.781   1.424   7.212  0.2993 -1.0156  0.1737
  855MOL0     C12789   3.782   1.574   7.182  0.0302  0.6471 -0.4449
  855MOL0     C12790   3.908   1.636   7.147  0.6127  0.3238 -0.5122
  855MOL0     C12791   3.984   1.636   7.276 -0.4830  0.1314  0.0515
  855MOL0     C12792   4.043   1.616   7.378 -0.9045 -0.3144 -0.0909
  855MOL0     C12793   3.789   0.988   6.996  0.4022 -0.4128  0.0830
  855MOL0     C12794   3.823   0.893   6.897  0.9120  0.6737 -0.6021
  855MOL0     H12795   3.962   0.790   6.394  0.2769  1.5904 -1.2426
  855MOL0     H12796   4.021   0.598   6.268 -0.6506  1.0632 -0.3293
  855MOL0     H12797   4.355   0.570   6.166  0.6254  0.4710  2.0231
  855MOL0     H12798   4.215   0.503   6.094 -0.4589  3.2374  1.7359
  855MOL0     H12799   4.365   0.259   6.157  0.8086  0.1169 -0.9991
  855MOL0     H12800   4.484   0.379   6.132  0.0136 -1.6192  0.6644
  855MOL0     H12801   4.394   0.470   5.932  0.6299 -0.7322 -1.1713
  855MOL0     H12802   4.301   0.326   5.905  0.9783  0.2586 -2.5685
  855MOL0     H12803   4.508   0.322   5.774 -1.2010 -0.2576  0.5036
  855MOL0     H12804   4.607   0.354   5.916  0.5556 -2.3605  2.3503
  855MOL0     H12805   4.443   0.101   5.919  1.2311 -2.2439  2.6980
  855MOL0     H12806   4.581   0.160   6.017  1.4993 -0.6655 -1.5670
  855MOL0     H12807   4.720   0.142   5.821  0.2856 -0.5709  3.7791
  855MOL0     H12808   4.599   0.085   5.713  1.8963  2.6852 -0.7248
  855MOL0     H12809   4.692  -0.030   5.967  0.3320 -2.1965 -0.2001
  855MOL0     H12810   4.577  -0.126   5.878  1.0810 -3.5198 -1.7247
  855MOL0     H12811   4.862  -0.161   5.831  0.6104  0.2086 -1.4707
  855MOL0     H12812   4.834  -0.050   5.719  2.0502 -0.1053  1.7988
  855MOL0     H12813   4.907  -0.335   5.611 -0.7104 -2.6649  3.0268
  855MOL0     H12814   4.648  -0.484   5.364  1.0757 -1.6401 -0.9831
  855MOL0     H12815   4.758  -0.565   5.468 -0.8593  0.9259  1.4441
  855MOL0     H12816   4.915  -0.364   5.372  3.6308 -3.1105  1.1073
  855MOL0     H12817   4.792  -0.368   5.239  0.5961 -0.7468 -2.3013
  855MOL0     H12818   4.866  -0.625   5.236  1.5486  0.0751 -4.0193
  855MOL0     H12819   4.964  -0.507   5.147 -1.8512 -1.1252 -1.3666
  855MOL0     H12820   5.035  -0.540   5.438 -0.0690  0.6090 -0.1357
  855MOL0     H12821   5.139  -0.530   5.297 -2.0862  2.3531 -2.2312
  855MOL0     H12822   5.297  -0.613   5.436  0.5146 -0.6544  0.9059
  855MOL0     H12823   5.438  -0.717   5.594  0.1800  0.3485 -0.8470
  855MOL0     H12824   5.437  -1.337   5.809  0.3570  0.7789 -0.6621
  855MOL0     H12825   5.541  -1.428   6.012  1.5422  0.3951  0.7431
  855MOL0     H12826   5.684  -1.461   6.156  1.3228  2.1231 -0.2722
  855MOL0     H12827   5.557  -1.479   6.276  2.1707 -4.1800 -0.4599
  855MOL0     H12828   5.725  -1.382   6.443 -2.1801 -2.0707  1.5781
  855MOL0     H12829   5.847  -1.437   6.314 -1.0414 -0.5935 -1.4245
  855MOL0     H12830   5.739  -1.669   6.341  0.5557 -0.6193  1.3582
  855MOL0     H12831   5.639  -1.594   6.474  0.4691  3.7617  3.3880
  855MOL0     H12832   5.937  -1.621   6.454 -0.7705 -0.0119 -1.6044
  855MOL0     H12833   5.869  -1.535   6.584  2.3061 -1.7092 -0.0554
  855MOL0     H12834   5.743  -1.746   6.660  0.8553 -0.7432  1.3458
  855MOL0     H12835   5.918  -1.750   6.666  0.0323 -1.5407 -1.2622
  855MOL0     H12836   5.742  -1.871   6.443 -0.8637 -3.0808 -0.0544
  855MOL0     H12837   5.814  -1.946   6.584 -1.1207  1.2681  1.1485
  855MOL0     H12838   6.006  -1.861   6.371  1.9022 -2.3821 -0.5888
  855MOL0     H12839   6.004  -1.978   6.514  0.4428  3.9568  0.9217
  855MOL0     H12840   5.981  -2.089   6.295 -0.9933  0.2429 -1.7784
  855MOL0     H12841   5.853  -1.995   6.257  2.5126  0.9068 -1.0458
  855MOL0     H12842   5.486  -1.029   6.192 -0.3517 -1.4278  1.0328
  855MOL0     H12843   5.354  -0.981   5.985 -0.6765 -1.2051 -3.1221
  855MOL0     H12844   5.165  -1.056   5.609  0.2615 -1.3283 -1.3984
  855MOL0     H12845   5.015  -0.934   5.458 -1.7367  2.5165  0.2029
  855MOL0     H12846   4.371   0.522   6.508  1.1350  2.7297  0.0101
  855MOL0     H12847   4.294   0.706   6.668 -0.5719 -0.5871 -0.1851
  855MOL0     H12848   4.115   1.049   6.801 -2.5150 -1.4458 -3.1487
  855MOL0     H12849   4.041   1.209   6.982  2.1314 -1.1196 -0.1523
  855MOL0     H12850   3.760   1.381   6.993  1.4292 -2.8834 -0.6628
  855MOL0     H12851   3.923   1.375   7.047  1.5884 -0.4148  1.6859
  855MOL0     H12852   3.678   1.398   7.239 -0.0469  0.5796  0.4462
  855MOL0     H12853   3.840   1.396   7.300 -0.6366 -0.6071  0.9450
  855MOL0     H12854   3.732   1.629   7.262  0.5972  3.5859 -1.9353
  855MOL0     H12855   3.714   1.584   7.096 -0.8849  0.6882  0.2675
  855MOL0     H12856   3.957   1.588   7.061 -2.7520  0.4040 -2.6597
  855MOL0     H12857   3.881   1.739   7.124 -1.6821  0.5608  2.6780
  855MOL0     H12858   4.077   1.594   7.477 -3.5395  0.2654  1.0166
  855MOL0     H12859   3.695   0.983   7.050 -1.8781  2.8334 -3.1010
  855MOL0     H12860   3.753   0.811   6.888 -0.7363  2.0445 -0.7715
  856MOL0     O12861   9.080   6.553   5.019 -0.0950  0.5486 -0.4713
  856MOL0     C12862   9.118   6.460   4.944  0.0423 -0.6387 -0.1825
  856MOL0     O12863   9.023   6.372   4.885  0.3915 -0.9763  0.1817
  856MOL0     C12864   8.888   6.379   4.908  0.9221 -0.8355  0.8539
  856MOL0     C12865   8.807   6.476   4.847  0.1589 -0.1644 -0.2344
  856MOL0     C12866   8.669   6.484   4.873 -1.1763  0.4415 -0.5265
  856MOL0     C12867   8.615   6.403   4.980  0.9157  0.0262 -0.3098
  856MOL0     O12868   8.493   6.418   5.030  0.5070 -0.0922  0.0447
  856MOL0     C12869   8.419   6.539   5.002  0.1726  0.9859 -0.6790
  856MOL0     C12870   8.300   6.547   5.100  0.1715 -0.1254  1.6286
  856MOL0     C12871   8.195   6.433   5.071 -0.7730 -0.1476 -0.0354
  856MOL0     C12872   8.071   6.442   5.165  0.3797 -0.4703 -0.2466
  856MOL0     C12873   7.966   6.347   5.120  0.0812 -0.1955 -0.5064
  856MOL0     C12874   7.853   6.364   5.219  0.8353  0.0507  0.6393
  856MOL0     C12875   7.730   6.283   5.185 -0.8981 -0.9033  0.7991
  856MOL0     C12876   7.690   6.287   5.039 -0.0612  1.0473 -0.4396
  856MOL0     N12877   7.560   6.219   5.027 -0.3676  0.4107  1.5788
  856MOL0     C12878   7.442   6.277   5.055  1.1484  1.2724  0.2787
  856MOL0     C12879   7.341   6.174   5.049 -0.8910  0.0558  0.4169
  856MOL0     C12880   7.196   6.184   5.066 -0.5757 -0.5758 -1.0142
  856MOL0     C12881   7.105   6.133   4.954 -0.1010  0.1651  0.0201
  856MOL0     C12882   7.045   6.225   4.839  0.3609 -1.1284 -1.7717
  856MOL0     C12883   7.039   6.159   4.706 -0.1187  0.3845 -0.1681
  856MOL0     O12884   6.929   6.076   4.729  0.9496 -0.4015 -0.3290
  856MOL0     C12885   6.868   6.033   4.614  0.2453  0.0982 -0.0998
  856MOL0     C12886   6.729   6.007   4.616 -0.3210  0.1301 -0.6109
  856MOL0     C12887   6.673   5.940   4.509 -0.5932 -0.6608 -0.4323
  856MOL0     C12888   6.739   5.911   4.388  0.0501 -0.8878 -0.3792
  856MOL0     C12889   6.665   5.851   4.283 -0.1644 -0.2401  0.3702
  856MOL0     O12890   6.529   5.840   4.298 -0.0776 -0.7527  0.9403
  856MOL0     C12891   6.466   5.791   4.188  0.1371 -0.6710  0.2875
  856MOL0     C12892   6.455   5.866   4.070  0.4250 -0.1781 -0.0933
  856MOL0     C12893   6.388   5.807   3.964  1.4638  0.2980 -0.3948
  856MOL0     C12894   6.339   5.668   3.964  0.4275  0.2765  0.1021
  856MOL0     O12895   6.293   5.617   3.851  0.1529 -0.3267  0.5627
  856MOL0     C12896   6.237   5.486   3.849  1.0238  0.6353 -0.5197
  856MOL0     C12897   6.206   5.448   3.696 -0.3309 -1.0974  0.4042
  856MOL0     C12898   6.167   5.302   3.677  1.0050  0.8937 -0.1392
  856MOL0     C12899   6.069   5.289   3.551 -0.1506  0.1152  0.6396
  856MOL0     C12900   6.159   5.258   3.429  0.2107  0.0431 -0.0436
  856MOL0     C12901   6.073   5.292   3.313  0.1762  1.7614  0.5730
  856MOL0     C12902   5.954   5.194   3.307 -0.1956  0.1397 -0.2727
  856MOL0     C12903   5.868   5.211   3.193 -0.2065  0.0033 -0.2544
  856MOL0    Cl12904   5.964   5.192   3.052 -0.2481 -0.5051 -0.0196
  856MOL0     C12905   6.346   5.600   4.090 -0.3883 -0.0077 -0.5206
  856MOL0     C12906   6.410   5.667   4.199  0.5365  0.1168 -0.1575
  856MOL0     O12907   6.732   5.827   4.181  0.2439 -0.0260  0.7037
  856MOL0     C12908   6.868   5.950   4.371 -0.8406  0.1252  0.0971
  856MOL0     C12909   6.931   6.001   4.493 -0.4779 -0.6061 -0.3777
  856MOL0     N12910   7.416   6.056   5.030 -0.0299 -0.2691  0.0699
  856MOL0     N12911   7.544   6.084   5.009  0.3566  0.1664 -0.3084
  856MOL0     C12912   8.695   6.309   5.046  1.1459 -1.7611 -0.1743
  856MOL0     C12913   8.831   6.299   5.009 -0.2762  0.7840  0.9028
  856MOL0     C12914   9.259   6.423   4.932 -0.7373  0.4888 -0.2372
  856MOL0     C12915   9.364   6.466   5.024  1.1874  0.4805  0.5516
  856MOL0     C12916   9.496   6.428   5.004 -0.5298  0.6107 -0.2903
  856MOL0     C12917   9.532   6.353   4.894  0.7402 -1.1565 -0.5392
  856MOL0     O12918   9.656   6.302   4.861 -0.4790 -0.2909 -0.4657
  856MOL0     C12919   9.696   6.329   4.726 -0.3037  0.1790 -0.4348
  856MOL0     C12920   9.807   6.236   4.680  0.0042  0.0903 -0.6192
  856MOL0     C12921   9.759   6.091   4.637 -0.2052 -0.3028 -0.5563
  856MOL0     C12922   9.674   6.081   4.507  0.8406  1.0540 -0.9003
  856MOL0     C12923   9.757   6.095   4.387  0.5891  0.9705 -0.0532
  856MOL0     C12924   9.824   6.114   4.292  0.1616  0.0633  0.3878
  856MOL0     C12925   9.423   6.302   4.813 -0.7065 -0.0892 -0.0636
  856MOL0     C12926   9.294   6.333   4.828 -0.6252 -0.3140 -0.3885
  856MOL0     H12927   8.848   6.548   4.777  0.3441 -0.6965 -0.6842
  856MOL0     H12928   8.615   6.558   4.815  1.1282  3.6526  1.1380
  856MOL0     H12929   8.391   6.532   4.896  0.3760 -6.2092 -0.7394
  856MOL0     H12930   8.495   6.617   5.014  0.5440  0.9098 -2.2402
  856MOL0     H12931   8.251   6.643   5.081  3.0314  1.0673 -0.3448
  856MOL0     H12932   8.324   6.548   5.206  0.9395  0.5448  1.4558
  856MOL0     H12933   8.240   6.334   5.078 -0.3065 -0.3947 -4.1061
  856MOL0     H12934   8.169   6.445   4.965  0.2770  1.4418 -0.1586
  856MOL0     H12935   8.112   6.432   5.266 -0.3725  0.8004  0.2125
  856MOL0     H12936   8.031   6.544   5.158  1.4408 -0.1200 -1.7213
  856MOL0     H12937   8.007   6.245   5.121 -1.2462 -0.7786 -1.5984
  856MOL0     H12938   7.946   6.366   5.015  0.4863 -1.0327 -0.7439
  856MOL0     H12939   7.819   6.468   5.216  1.5149  0.5048  4.1773
  856MOL0     H12940   7.884   6.335   5.320  1.0509 -1.3309  0.1864
  856MOL0     H12941   7.751   6.180   5.216  1.6925 -0.0713  2.1334
  856MOL0     H12942   7.648   6.323   5.246 -0.6343 -0.7586  1.0679
  856MOL0     H12943   7.750   6.221   4.977 -2.7804 -0.8762 -1.1883
  856MOL0     H12944   7.681   6.390   5.003 -3.0969 -0.0215 -3.1860
  856MOL0     H12945   7.429   6.381   5.082  1.5307  0.7849  2.5880
  856MOL0     H12946   7.172   6.290   5.081 -1.5407 -0.8125 -0.8102
  856MOL0     H12947   7.178   6.143   5.166  3.2077  0.6920  0.3393
  856MOL0     H12948   7.013   6.091   4.997 -0.4957 -0.6946 -1.5830
  856MOL0     H12949   7.139   6.035   4.920  1.2596 -1.5951  5.3749
  856MOL0     H12950   6.946   6.268   4.856  0.2515 -2.1247  0.5191
  856MOL0     H12951   7.114   6.310   4.829 -0.0519 -0.4062  0.8378
  856MOL0     H12952   7.130   6.105   4.682  0.9301 -0.1646  4.1016
  856MOL0     H12953   7.011   6.245   4.644  0.4303  0.3540 -0.4622
  856MOL0     H12954   6.670   6.027   4.705 -1.8272  0.1997 -1.5750
  856MOL0     H12955   6.571   5.908   4.529 -2.5924  2.0980 -4.6593
  856MOL0     H12956   6.501   5.964   4.078 -0.8000  0.3849  0.3729
  856MOL0     H12957   6.352   5.860   3.877  0.6575 -0.4005 -0.5032
  856MOL0     H12958   6.135   5.501   3.884  0.9098  1.6097 -1.2251
  856MOL0     H12959   6.310   5.422   3.901  0.7520 -0.7502 -1.7818
  856MOL0     H12960   6.298   5.445   3.637  0.8189  2.4927  1.7459
  856MOL0     H12961   6.141   5.518   3.643 -1.6644 -1.6981  1.1888
  856MOL0     H12962   6.102   5.279   3.762  1.9423 -2.3937 -0.1784
  856MOL0     H12963   6.251   5.233   3.690  0.7755  1.1149  3.3986
  856MOL0     H12964   6.009   5.199   3.566 -1.5828  0.9648  0.1670
  856MOL0     H12965   6.006   5.378   3.544 -2.3101 -1.4328 -0.6200
  856MOL0     H12966   6.194   5.157   3.452  1.7989  0.7195  0.6437
  856MOL0     H12967   6.253   5.314   3.425  1.4892 -1.6771  3.0841
  856MOL0     H12968   6.142   5.271   3.230  0.9849  0.5416  1.5192
  856MOL0     H12969   6.049   5.398   3.310  0.6261  1.8596  0.4792
  856MOL0     H12970   5.990   5.094   3.282 -2.1402 -0.3644 -1.2348
  856MOL0     H12971   5.890   5.197   3.395  0.1880 -1.8090  0.1139
  856MOL0     H12972   5.832   5.313   3.179  1.1537  0.5194 -0.1509
  856MOL0     H12973   5.787   5.140   3.211 -0.4367  0.3460  0.0737
  856MOL0     H12974   6.316   5.497   4.106 -1.9025 -0.1327 -3.4375
  856MOL0     H12975   6.409   5.614   4.294 -0.5405 -1.0899 -0.8251
  856MOL0     H12976   6.920   5.940   4.276 -0.7647 -1.5234  0.2745
  856MOL0     H12977   7.038   6.019   4.490 -0.4747  0.7455  3.2788
  856MOL0     H12978   8.645   6.245   5.118 -2.2313 -2.3449 -2.7874
  856MOL0     H12979   8.882   6.210   5.044  0.0638  1.5430  2.4446
  856MOL0     H12980   9.335   6.522   5.112 -0.2551  0.1283  0.3200
  856MOL0     H12981   9.578   6.437   5.075 -1.0933  0.1995  0.4209
  856MOL0     H12982   9.725   6.435   4.723 -0.8004  0.4509  1.9563
  856MOL0     H12983   9.615   6.320   4.653 -1.3501 -0.7039  0.7803
  856MOL0     H12984   9.854   6.280   4.592 -0.0656 -0.9751 -1.2062
  856MOL0     H12985   9.884   6.229   4.758 -0.9827  1.9404  0.5888
  856MOL0     H12986   9.709   6.058   4.729 -1.5302  2.4026 -0.2073
  856MOL0     H12987   9.853   6.037   4.621  1.0178  1.1224  1.4398
  856MOL0     H12988   9.644   5.976   4.497  2.6740  0.5489 -1.5037
  856MOL0     H12989   9.586   6.145   4.513 -1.5735 -2.1733  2.6374
  856MOL0     H12990   9.888   6.118   4.206 -2.5636  0.8532 -1.7362
  856MOL0     H12991   9.442   6.235   4.730 -1.6458  0.8304 -1.0549
  856MOL0     H12992   9.222   6.281   4.765  1.2086  0.5552 -3.4190
  857MOL0     O12993   4.016   5.945  10.891 -0.5372  0.4537 -0.4735
  857MOL0     C12994   4.104   5.967  10.806  0.5374 -0.1011 -0.4706
  857MOL0     O12995   4.201   6.069  10.805 -0.2588  0.0946  0.4367
  857MOL0     C12996   4.212   6.178  10.886 -0.6533 -0.9110 -0.1603
  857MOL0     C12997   4.108   6.245  10.951 -0.2979 -0.3786 -0.3427
  857MOL0     C12998   4.116   6.358  11.029 -0.2568  1.0966 -0.8395
  857MOL0     C12999   4.243   6.422  11.049  0.8240  2.2109  0.0432
  857MOL0     O13000   4.250   6.531  11.131 -0.2662 -0.2615  0.8674
  857MOL0     C13001   4.371   6.612  11.118  0.2516  0.3348 -1.2880
  857MOL0     C13002   4.335   6.748  11.190  0.4211  0.8007  0.9815
  857MOL0     C13003   4.336   6.742  11.343 -0.1165 -0.6276  0.1195
  857MOL0     C13004   4.270   6.873  11.409  0.3194  0.0784  0.3784
  857MOL0     C13005   4.252   6.855  11.559  0.1241  0.8903 -0.0141
  857MOL0     C13006   4.377   6.838  11.643  0.2052  0.3898 -0.9048
  857MOL0     C13007   4.459   6.967  11.650  0.5380 -0.1260 -0.6108
  857MOL0     C13008   4.588   6.940  11.731 -0.4787 -0.5451  0.3965
  857MOL0     N13009   4.634   7.062  11.800  0.4784  0.6916  0.7649
  857MOL0     C13010   4.653   7.187  11.748  0.1194  0.6006  0.1351
  857MOL0     C13011   4.695   7.255  11.851 -0.1538  0.3999  0.5420
  857MOL0     C13012   4.721   7.395  11.832 -1.1997  0.5835  0.1144
  857MOL0     C13013   4.843   7.417  11.747 -0.0331  0.6656 -0.8374
  857MOL0     C13014   4.857   7.567  11.729 -0.0522  1.2174 -0.0604
  857MOL0     C13015   4.948   7.610  11.616 -0.4391  0.0592  0.0258
  857MOL0     O13016   5.082   7.558  11.617 -0.4120  0.5363  0.1756
  857MOL0     C13017   5.171   7.604  11.703 -1.3171 -0.1309 -0.2589
  857MOL0     C13018   5.161   7.703  11.806 -0.4403  1.0735 -0.9986
  857MOL0     C13019   5.274   7.724  11.887  0.1991 -0.2340  0.1803
  857MOL0     C13020   5.387   7.652  11.869 -0.3152  0.7606  0.7979
  857MOL0     C13021   5.495   7.639  11.979  0.5247 -1.3018 -0.4347
  857MOL0     O13022   5.626   7.641  11.931 -0.4525  0.4215 -1.2066
  857MOL0     C13023   5.731   7.622  12.026  0.3230  0.3361 -0.4658
  857MOL0     C13024   5.727   7.582  12.159 -0.5441 -0.8684  0.2735
  857MOL0     C13025   5.850   7.572  12.235  0.2667 -0.3709  0.5457
  857MOL0     C13026   5.966   7.606  12.171  0.4834  0.2984  0.9523
  857MOL0     O13027   6.083   7.613  12.249  0.0458  0.6749  0.8964
  857MOL0     C13028   6.188   7.698  12.195  0.4076 -0.4319 -0.8741
  857MOL0     C13029   6.299   7.708  12.299 -0.0906  0.5276 -0.0726
  857MOL0     C13030   6.415   7.802  12.254  1.0249 -0.7185  0.2856
  857MOL0     C13031   6.557   7.791  12.321  0.4077  0.4506  1.0204
  857MOL0     C13032   6.552   7.789  12.479  0.1637  0.0033 -0.2748
  857MOL0     C13033   6.694   7.823  12.539  0.3102 -0.3386  0.4485
  857MOL0     C13034   6.796   7.711  12.526 -0.6807  0.4894  0.3884
  857MOL0     C13035   6.938   7.746  12.554  0.0535  0.3789  0.2901
  857MOL0    Cl13036   6.961   7.845  12.694  0.1748 -0.0434  0.1064
  857MOL0     C13037   5.966   7.646  12.038  0.0073 -0.1817  0.2712
  857MOL0     C13038   5.852   7.655  11.964  0.2975 -0.1676  0.8864
  857MOL0     O13039   5.457   7.656  12.097  0.8271  0.1400 -0.5445
  857MOL0     C13040   5.405   7.569  11.758 -0.5555  0.3070 -1.0690
  857MOL0     C13041   5.295   7.546  11.679  0.8255  0.7809  0.0137
  857MOL0     N13042   4.708   7.168  11.962 -0.6601 -0.4874  0.5931
  857MOL0     N13043   4.657   7.056  11.931 -0.1652  0.1025  0.5390
  857MOL0     C13044   4.355   6.353  10.989  0.1304 -0.3288 -1.2130
  857MOL0     C13045   4.336   6.238  10.901 -0.9084 -0.2113 -0.4323
  857MOL0     C13046   4.121   5.872  10.699  0.4488  0.0267  0.1993
  857MOL0     C13047   4.014   5.787  10.660 -0.4147  0.7079  1.0889
  857MOL0     C13048   4.041   5.687  10.559  0.8476 -0.1621 -0.3336
  857MOL0     C13049   4.171   5.671  10.508  1.2238 -0.0694  0.2589
  857MOL0     O13050   4.217   5.561  10.435 -0.2877 -0.2111 -0.3079
  857MOL0     C13051   4.167   5.428  10.448  0.3976 -0.7273 -0.3736
  857MOL0     C13052   4.164   5.366  10.587 -0.3221 -0.3983 -0.1627
  857MOL0     C13053   4.293   5.306  10.623 -0.7659 -0.0259 -0.2666
  857MOL0     C13054   4.312   5.294  10.781  0.1465  0.5248  0.6263
  857MOL0     C13055   4.208   5.220  10.851 -0.8190  0.5458 -0.1626
  857MOL0     C13056   4.121   5.163  10.916 -0.4023  0.2313 -0.4419
  857MOL0     C13057   4.267   5.768  10.538  0.8837  0.3989  0.2773
  857MOL0     C13058   4.244   5.872  10.628  0.0423  0.2371 -0.0688
  857MOL0     H13059   4.007   6.206  10.958  0.1622 -1.3229  2.3039
  857MOL0     H13060   4.026   6.413  11.052 -1.1084  0.1854 -1.8776
  857MOL0     H13061   4.399   6.630  11.014  2.2339  1.2170 -0.6509
  857MOL0     H13062   4.460   6.565  11.160  0.7251  2.6586  0.5410
  857MOL0     H13063   4.235   6.775  11.155 -0.2064  1.0343  2.8618
  857MOL0     H13064   4.401   6.824  11.148 -0.9632  1.6966  0.3771
  857MOL0     H13065   4.444   6.743  11.360  0.1436  0.7701 -1.3333
  857MOL0     H13066   4.294   6.647  11.376  1.2714 -0.9288  1.1057
  857MOL0     H13067   4.326   6.963  11.384 -0.0644 -0.1330 -1.4119
  857MOL0     H13068   4.166   6.878  11.376 -0.5810 -2.4012  2.4637
  857MOL0     H13069   4.197   6.761  11.564  2.4200 -0.4961  0.8653
  857MOL0     H13070   4.192   6.940  11.592 -0.2081  0.8708 -0.5637
  857MOL0     H13071   4.445   6.756  11.619 -1.7640 -1.9739  0.9768
  857MOL0     H13072   4.344   6.814  11.744  2.4436 -1.2462 -0.4662
  857MOL0     H13073   4.476   7.000  11.547 -1.2461 -1.8542 -1.5209
  857MOL0     H13074   4.393   7.040  11.699 -0.6475 -0.3215 -1.8476
  857MOL0     H13075   4.661   6.895  11.663 -1.3578  0.4460 -1.2614
  857MOL0     H13076   4.574   6.861  11.805 -0.1992  1.7141  3.0510
  857MOL0     H13077   4.636   7.230  11.649  0.6541  1.0249  0.2208
  857MOL0     H13078   4.753   7.443  11.925  1.5783 -2.0697  0.6725
  857MOL0     H13079   4.626   7.437  11.798 -1.9269 -1.1295 -0.0824
  857MOL0     H13080   4.825   7.372  11.649 -2.8428 -0.0146 -0.1291
  857MOL0     H13081   4.930   7.374  11.797 -1.5501  0.2849  1.6824
  857MOL0     H13082   4.761   7.617  11.716 -0.0412  1.7715  1.6629
  857MOL0     H13083   4.892   7.595  11.829  2.3758 -0.9018 -0.2152
  857MOL0     H13084   4.955   7.720  11.613 -4.8980  0.5173 -2.2988
  857MOL0     H13085   4.900   7.586  11.521  3.7393 -1.1791 -2.0020
  857MOL0     H13086   5.064   7.746  11.829 -0.7744 -1.7400  4.4311
  857MOL0     H13087   5.263   7.793  11.970  1.9678  2.2134 -1.4831
  857MOL0     H13088   5.633   7.558  12.207 -0.1153 -1.9297  0.6163
  857MOL0     H13089   5.844   7.540  12.339 -1.3245  2.2787  1.3725
  857MOL0     H13090   6.140   7.796  12.188  3.2793  1.1908  0.3631
  857MOL0     H13091   6.227   7.663  12.100 -2.3629  0.4166 -2.4321
  857MOL0     H13092   6.337   7.606  12.303  1.1929  0.9170 -1.3117
  857MOL0     H13093   6.252   7.740  12.393 -3.5533 -3.4617 -0.1539
  857MOL0     H13094   6.385   7.902  12.287  4.0372  0.0184  1.0916
  857MOL0     H13095   6.431   7.798  12.146 -0.1345  2.0298 -0.0752
  857MOL0     H13096   6.609   7.705  12.280  0.2579  0.4646  0.7996
  857MOL0     H13097   6.622   7.871  12.285  0.4640  0.8976  2.0534
  857MOL0     H13098   6.516   7.694  12.519 -0.3762 -1.5742 -4.1161
  857MOL0     H13099   6.484   7.865  12.519  0.1580 -0.3623  0.4185
  857MOL0     H13100   6.691   7.863  12.641 -1.5845 -0.7681  0.6019
  857MOL0     H13101   6.732   7.912  12.489  0.3784  0.2896  1.5974
  857MOL0     H13102   6.762   7.632  12.594  0.3774 -3.0488 -2.8338
  857MOL0     H13103   6.791   7.663  12.428 -1.3990 -2.5403  1.7933
  857MOL0     H13104   6.969   7.807  12.469 -1.3037  3.0813  1.6089
  857MOL0     H13105   7.008   7.662  12.556  4.2933  3.5241 -1.3203
  857MOL0     H13106   6.056   7.669  11.982  0.2936 -2.9178 -0.5468
  857MOL0     H13107   5.847   7.692  11.862 -2.8163 -0.5162  0.8227
  857MOL0     H13108   5.499   7.515  11.752  0.5063  1.7028  1.2695
  857MOL0     H13109   5.310   7.479  11.594 -1.3859  0.4680 -0.1844
  857MOL0     H13110   4.454   6.388  11.015 -0.5334 -1.7120  4.5238
  857MOL0     H13111   4.419   6.195  10.846 -1.9711 -3.1503  0.0604
  857MOL0     H13112   3.913   5.802  10.698 -0.3321 -0.0590  1.6341
  857MOL0     H13113   3.967   5.611  10.537 -0.5529  1.9189 -3.5073
  857MOL0     H13114   4.234   5.359  10.395 -1.4281 -4.1156  1.4121
  857MOL0     H13115   4.071   5.436  10.395 -0.0132  5.5880  0.5178
  857MOL0     H13116   4.136   5.439  10.663  0.7387 -0.2659  0.1225
  857MOL0     H13117   4.090   5.286  10.589 -0.5690 -0.1648  0.0420
  857MOL0     H13118   4.370   5.368  10.576 -2.3137  0.6219 -2.1072
  857MOL0     H13119   4.301   5.203  10.585 -1.5941 -0.0949 -0.2664
  857MOL0     H13120   4.400   5.230  10.792 -3.1308 -4.8152 -0.4590
  857MOL0     H13121   4.337   5.391  10.826 -0.3211  1.4265 -0.9634
  857MOL0     H13122   4.038   5.121  10.969  1.3500 -3.6585 -0.4342
  857MOL0     H13123   4.356   5.768  10.475  2.1369 -1.3619  1.9173
  857MOL0     H13124   4.302   5.960  10.653 -0.5304  0.3427  0.9463
  858MOL0     O13125  10.551   3.360   6.588  0.4011 -0.6327 -0.6898
  858MOL0     C13126  10.618   3.285   6.517  0.6191  0.5412  0.6162
  858MOL0     O13127  10.564   3.173   6.458 -0.4620 -0.3892 -0.1567
  858MOL0     C13128  10.427   3.148   6.472 -0.4494 -0.0127  0.2808
  858MOL0     C13129  10.345   3.210   6.374 -0.1270 -0.3624  0.0486
  858MOL0     C13130  10.206   3.197   6.382  0.4023 -0.5111  0.7755
  858MOL0     C13131  10.144   3.106   6.473  0.3548  0.1639  0.2108
  858MOL0     O13132  10.011   3.096   6.469  0.5351  0.8546  0.0189
  858MOL0     C13133   9.945   3.127   6.595 -0.3170  0.5017 -0.8233
  858MOL0     C13134   9.791   3.172   6.581  0.3455  0.4585 -0.1106
  858MOL0     C13135   9.778   3.317   6.552 -0.4344 -0.6032  0.6147
  858MOL0     C13136   9.680   3.354   6.446  0.1694 -0.8263 -0.2468
  858MOL0     C13137   9.708   3.496   6.382  0.2240 -0.1536  1.0103
  858MOL0     C13138   9.617   3.516   6.263 -0.3092  0.7732 -0.7691
  858MOL0     C13139   9.638   3.659   6.207 -0.3975  0.7576  0.3774
  858MOL0     C13140   9.526   3.703   6.123  0.1023 -0.6575 -0.5408
  858MOL0     N13141   9.396   3.721   6.194 -0.0237 -0.6031 -0.2630
  858MOL0     C13142   9.354   3.846   6.248  1.1344  0.4221 -0.5953
  858MOL0     C13143   9.221   3.832   6.286  0.1214  0.2386 -0.1802
  858MOL0     C13144   9.120   3.942   6.317 -0.4224  0.6931 -0.2441
  858MOL0     C13145   9.130   3.982   6.462 -1.2720 -0.0222 -0.9501
  858MOL0     C13146   9.109   3.856   6.546  0.3805 -0.3737  0.1690
  858MOL0     C13147   9.059   3.895   6.683 -0.7792  0.8346 -0.3234
  858MOL0     O13148   9.116   4.019   6.724  0.1823 -0.4916  0.3461
  858MOL0     C13149   9.224   4.008   6.812  0.3545  0.3889 -0.5401
  858MOL0     C13150   9.283   3.892   6.860 -0.7453  0.3185  0.2022
  858MOL0     C13151   9.361   3.887   6.971  0.2017 -0.1267  0.6015
  858MOL0     C13152   9.406   4.006   7.035  0.7226  0.5475  0.5309
  858MOL0     C13153   9.507   4.004   7.142  0.2523 -0.4344 -0.2098
  858MOL0     O13154   9.535   4.130   7.209 -0.9927  0.0376 -0.5305
  858MOL0     C13155   9.619   4.122   7.324 -0.6433  0.1311 -0.1101
  858MOL0     C13156   9.756   4.097   7.315 -0.1924 -0.0890  0.0595
  858MOL0     C13157   9.837   4.094   7.426  0.8903  1.1248  0.9164
  858MOL0     C13158   9.785   4.086   7.551 -0.2754  0.1465  0.0088
  858MOL0     O13159   9.864   4.070   7.658  0.8041  0.2482 -0.0699
  858MOL0     C13160   9.968   4.165   7.686  0.3611  0.2849 -0.8211
  858MOL0     C13161  10.104   4.124   7.625 -1.1986 -0.3519  0.3301
  858MOL0     C13162  10.209   4.103   7.735  0.3197  0.3862  0.5429
  858MOL0     C13163  10.189   3.966   7.808  0.4971 -1.1400  0.5551
  858MOL0     C13164  10.118   3.978   7.945  0.1855  0.8252  0.1053
  858MOL0     C13165  10.194   3.924   8.062  1.1332 -0.0933 -0.3344
  858MOL0     C13166  10.124   3.943   8.201  0.1304  0.7328  0.6280
  858MOL0     C13167  10.138   4.077   8.244  0.8467 -0.6986 -0.1202
  858MOL0    Cl13168  10.310   4.131   8.239 -0.1242 -0.1877 -0.0242
  858MOL0     C13169   9.649   4.114   7.562 -0.0286  0.5820  0.4664
  858MOL0     C13170   9.568   4.127   7.452  0.7227 -0.3850  0.5041
  858MOL0     O13171   9.552   3.892   7.172 -0.4766  0.3346  0.4147
  858MOL0     C13172   9.348   4.129   6.987 -0.4980 -0.2851  0.3319
  858MOL0     C13173   9.251   4.124   6.887 -1.2681 -0.1076  0.3710
  858MOL0     N13174   9.192   3.703   6.278  0.3792  0.5592  0.6436
  858MOL0     N13175   9.292   3.641   6.226 -0.0244 -0.1832 -0.1358
  858MOL0     C13176  10.227   3.036   6.559  0.1033  0.3638  1.1320
  858MOL0     C13177  10.363   3.066   6.567  0.4447 -0.4771  0.2881
  858MOL0     C13178  10.756   3.307   6.471 -0.1880  0.6243  0.3967
  858MOL0     C13179  10.851   3.200   6.472 -0.8739 -0.8547  0.5350
  858MOL0     C13180  10.981   3.219   6.418  0.0780  0.2198  0.5589
  858MOL0     C13181  11.030   3.342   6.379  0.3222 -0.4171 -0.1321
  858MOL0     O13182  11.162   3.334   6.337  0.6097 -0.7246 -0.4843
  858MOL0     C13183  11.223   3.445   6.285 -0.7910 -0.6936 -0.0166
  858MOL0     C13184  11.308   3.403   6.176 -0.0612  0.3901 -0.6362
  858MOL0     C13185  11.432   3.334   6.243  0.4205  0.2979  0.1686
  858MOL0     C13186  11.544   3.308   6.142 -0.3062 -0.4280 -0.0443
  858MOL0     C13187  11.578   3.433   6.066 -1.4834  0.5026 -0.1685
  858MOL0     C13188  11.637   3.524   6.011 -0.3995 -0.3895 -0.5212
  858MOL0     C13189  10.939   3.450   6.384 -1.0984  0.5832  0.5013
  858MOL0     C13190  10.803   3.434   6.437 -0.3985  1.3536 -0.0099
  858MOL0     H13191  10.387   3.290   6.313  0.4755  0.0847  1.0205
  858MOL0     H13192  10.149   3.250   6.307  3.3065  3.8514  1.3345
  858MOL0     H13193  10.002   3.206   6.644  2.0079 -1.3282 -0.4161
  858MOL0     H13194   9.956   3.034   6.651  2.2303  0.7829 -0.7193
  858MOL0     H13195   9.747   3.153   6.680  0.0580  0.5773 -0.2161
  858MOL0     H13196   9.734   3.117   6.506  0.4721  0.2177 -0.0324
  858MOL0     H13197   9.877   3.350   6.518  0.3334 -1.2886  2.0728
  858MOL0     H13198   9.780   3.382   6.639  1.3775  0.9621 -0.5022
  858MOL0     H13199   9.666   3.266   6.382  2.1387 -4.0220  3.3412
  858MOL0     H13200   9.577   3.344   6.482 -0.2400 -2.4017 -1.6793
  858MOL0     H13201   9.807   3.487   6.337 -0.9798 -3.1607 -1.4449
  858MOL0     H13202   9.688   3.578   6.451  0.4609  0.4848  0.3395
  858MOL0     H13203   9.513   3.487   6.281 -0.0010  0.2719  0.3221
  858MOL0     H13204   9.644   3.444   6.186  1.4820  0.6320 -0.0745
  858MOL0     H13205   9.631   3.721   6.298 -3.7672  0.3242  0.5306
  858MOL0     H13206   9.730   3.664   6.147 -1.5475 -0.3434 -1.5563
  858MOL0     H13207   9.517   3.618   6.055  0.5328 -2.6618  1.7686
  858MOL0     H13208   9.562   3.795   6.075  1.4851  2.3243  5.1859
  858MOL0     H13209   9.406   3.940   6.238  1.0616  0.4590 -0.6252
  858MOL0     H13210   9.023   3.899   6.293  0.1803 -2.4312  2.2300
  858MOL0     H13211   9.136   4.025   6.248 -1.0646 -0.1860 -1.4825
  858MOL0     H13212   9.046   4.049   6.482 -0.7236 -0.4835  4.4668
  858MOL0     H13213   9.232   4.016   6.483 -0.8530 -1.2875 -0.8045
  858MOL0     H13214   9.039   3.784   6.502 -1.2355  0.0493  1.9008
  858MOL0     H13215   9.203   3.801   6.554  0.5221 -0.3535 -1.1123
  858MOL0     H13216   9.064   3.819   6.762 -3.9185  1.4718  0.6670
  858MOL0     H13217   8.953   3.917   6.669 -0.5436  0.6841 -2.6517
  858MOL0     H13218   9.265   3.791   6.822  0.7915  0.8609 -2.1961
  858MOL0     H13219   9.411   3.798   7.007  4.4757  2.0606  0.8053
  858MOL0     H13220   9.800   4.106   7.216  2.4383  0.1188  1.1619
  858MOL0     H13221   9.941   4.063   7.415  1.3315  2.0960  2.1897
  858MOL0     H13222   9.979   4.166   7.795  0.0159 -4.3359 -0.5464
  858MOL0     H13223   9.939   4.269   7.666 -1.9579  0.0675  0.9368
  858MOL0     H13224  10.138   4.215   7.575  0.8509  0.4343  2.9314
  858MOL0     H13225  10.097   4.037   7.558 -0.7059  1.9353 -2.9680
  858MOL0     H13226  10.216   4.188   7.803  2.7093 -2.0420  3.7014
  858MOL0     H13227  10.302   4.100   7.678 -0.2806  1.8007 -0.5509
  858MOL0     H13228  10.138   3.898   7.739 -1.2616 -1.1627  1.7887
  858MOL0     H13229  10.289   3.926   7.823  1.4181 -0.6334 -3.2990
  858MOL0     H13230  10.016   3.937   7.948  1.1782 -1.8223  0.1660
  858MOL0     H13231  10.115   4.084   7.971  1.0150  0.7411  0.5523
  858MOL0     H13232  10.302   3.941   8.064  1.3151 -1.1617 -0.4137
  858MOL0     H13233  10.192   3.815   8.051 -2.1952  0.0453 -2.5648
  858MOL0     H13234  10.021   3.907   8.201  0.2278  0.4021 -0.9010
  858MOL0     H13235  10.172   3.877   8.274 -0.2965 -1.4299 -0.9703
  858MOL0     H13236  10.105   4.072   8.348 -0.0543  2.2761 -0.1765
  858MOL0     H13237  10.079   4.143   8.180 -1.0087 -2.8488 -0.7724
  858MOL0     H13238   9.614   4.108   7.664  1.2005 -1.2049  0.8180
  858MOL0     H13239   9.459   4.133   7.457  0.5312 -3.3758  1.9185
  858MOL0     H13240   9.363   4.226   7.034 -1.5792  0.2215 -0.3156
  858MOL0     H13241   9.188   4.209   6.863 -1.0020  0.4171  1.4637
  858MOL0     H13242  10.197   2.961   6.631 -3.3745 -0.3007 -0.7652
  858MOL0     H13243  10.429   3.010   6.631 -2.5491 -3.4954  1.0008
  858MOL0     H13244  10.841   3.094   6.497  0.0962 -1.8630 -2.8153
  858MOL0     H13245  11.053   3.138   6.421 -0.4429 -0.2132  2.4945
  858MOL0     H13246  11.273   3.495   6.367 -2.6097 -0.0385  0.7503
  858MOL0     H13247  11.163   3.523   6.237  0.4869  0.0969 -0.3745
  858MOL0     H13248  11.255   3.333   6.110  1.6038 -0.7211 -0.8495
  858MOL0     H13249  11.340   3.494   6.124  2.2128 -1.3935 -2.5783
  858MOL0     H13250  11.393   3.241   6.285  3.4222 -1.1522 -0.0078
  858MOL0     H13251  11.487   3.388   6.321 -0.9186 -1.5916  2.5666
  858MOL0     H13252  11.632   3.265   6.190 -0.3333 -0.7283 -0.2582
  858MOL0     H13253  11.495   3.245   6.067 -5.0598  0.6088  1.8310
  858MOL0     H13254  11.685   3.606   5.962 -1.5860  0.8047  0.2483
  858MOL0     H13255  10.967   3.547   6.347 -2.0853  0.8525  0.4254
  858MOL0     H13256  10.741   3.523   6.437  1.8791  3.2744 -4.3333
  859MOL0     O13257   3.514   1.164   1.743  0.6287 -0.3001  0.0837
  859MOL0     C13258   3.620   1.126   1.794  0.6844  0.7881 -0.2007
  859MOL0     O13259   3.739   1.116   1.722  0.2061  0.4415 -0.1132
  859MOL0     C13260   3.733   1.122   1.587  0.0035 -0.3464  0.4327
  859MOL0     C13261   3.708   1.245   1.515  0.4177 -1.1025 -0.3237
  859MOL0     C13262   3.732   1.240   1.375  0.5244 -0.1876  1.2553
  859MOL0     C13263   3.758   1.130   1.296  0.9332  0.3755 -0.2132
  859MOL0     O13264   3.775   1.153   1.163  0.0276  0.4351  0.8548
  859MOL0     C13265   3.893   1.107   1.107  0.4614  0.3933  0.1486
  859MOL0     C13266   3.916   1.181   0.990 -0.7581  0.0362  0.5927
  859MOL0     C13267   3.937   1.328   1.027  0.5366  0.0774  0.0811
  859MOL0     C13268   3.967   1.409   0.904 -0.7711  0.4810  0.2414
  859MOL0     C13269   3.989   1.551   0.936  0.0133 -0.3512 -0.6067
  859MOL0     C13270   4.123   1.592   1.005 -0.1789 -0.2915 -0.4956
  859MOL0     C13271   4.253   1.538   0.946 -0.1285  0.2341 -0.7439
  859MOL0     C13272   4.367   1.618   0.996  0.3330  0.0891 -0.1509
  859MOL0     N13273   4.489   1.591   0.914  0.2272  0.4143  0.5492
  859MOL0     C13274   4.616   1.584   0.963  0.3258 -0.2084  0.0776
  859MOL0     C13275   4.693   1.552   0.854 -0.9682  0.1607  0.1799
  859MOL0     C13276   4.843   1.503   0.863 -0.1564 -1.0425  0.5672
  859MOL0     C13277   4.855   1.354   0.890 -1.0902  1.0397 -0.5763
  859MOL0     C13278   5.007   1.294   0.899 -0.5564 -0.1021 -0.6016
  859MOL0     C13279   5.071   1.289   1.039 -0.1015 -0.4217  0.3833
  859MOL0     O13280   4.988   1.241   1.139  0.5372 -0.0308  0.1783
  859MOL0     C13281   4.966   1.106   1.165 -0.3026 -0.5196  0.2293
  859MOL0     C13282   5.013   1.004   1.079  0.2471  0.6756 -0.1454
  859MOL0     C13283   5.019   0.875   1.128  0.0947 -0.1696 -0.1356
  859MOL0     C13284   4.968   0.835   1.248 -0.7671 -0.5735 -0.3596
  859MOL0     C13285   4.973   0.692   1.286 -0.3450 -0.2924  0.2858
  859MOL0     O13286   4.873   0.633   1.351  0.9723 -0.6524  0.3114
  859MOL0     C13287   4.874   0.500   1.393 -0.3631  0.9889 -0.2504
  859MOL0     C13288   4.841   0.471   1.524  0.2966  0.0563 -0.2276
  859MOL0     C13289   4.861   0.349   1.585 -1.6538  0.7148  0.1203
  859MOL0     C13290   4.905   0.239   1.511 -0.2651 -0.3260 -0.4123
  859MOL0     O13291   4.921   0.106   1.551 -0.5405 -0.0952 -0.2832
  859MOL0     C13292   4.985   0.067   1.671 -1.0108 -0.6453 -0.3006
  859MOL0     C13293   4.893   0.051   1.796 -0.0405 -0.8089  0.6702
  859MOL0     C13294   4.921  -0.043   1.911 -0.4966  0.4059  0.5235
  859MOL0     C13295   5.055  -0.015   1.975  0.7797  0.1600 -0.1342
  859MOL0     C13296   5.090  -0.135   2.061 -0.0388 -0.3476 -0.4729
  859MOL0     C13297   5.169  -0.255   1.987 -0.0842  0.5699 -0.0899
  859MOL0     C13298   5.222  -0.350   2.098  1.2212 -0.0739  0.4480
  859MOL0     C13299   5.116  -0.446   2.152  0.8618  0.1436  0.3385
  859MOL0    Cl13300   5.177  -0.544   2.289 -0.1890 -0.0698 -1.0588
  859MOL0     C13301   4.930   0.265   1.372 -0.1695 -0.8384  0.1149
  859MOL0     C13302   4.928   0.396   1.313  0.4450  0.5791  0.0213
  859MOL0     O13303   5.078   0.640   1.259  0.1278  0.3194  0.2955
  859MOL0     C13304   4.908   0.933   1.330  0.0951  0.5210  0.6461
  859MOL0     C13305   4.918   1.070   1.287  0.3096 -0.2092 -1.3588
  859MOL0     N13306   4.610   1.552   0.740 -0.4255  0.6500  0.0622
  859MOL0     N13307   4.486   1.579   0.777 -0.3749  0.1215  0.4070
  859MOL0     C13308   3.774   1.012   1.363 -0.1378 -0.1076 -0.7873
  859MOL0     C13309   3.758   1.011   1.506 -0.2242  0.4859 -0.7711
  859MOL0     C13310   3.609   1.094   1.941  0.0660  0.0468  0.1784
  859MOL0     C13311   3.486   1.037   1.996  0.3877 -0.0181  0.3368
  859MOL0     C13312   3.471   1.022   2.140  0.4202 -0.5486  0.4075
  859MOL0     C13313   3.570   1.062   2.225 -0.3738 -0.7045 -0.3102
  859MOL0     O13314   3.563   1.077   2.357  0.7477 -0.1623  0.1809
  859MOL0     C13315   3.476   0.983   2.426  0.3560  0.4634  0.0596
  859MOL0     C13316   3.486   1.042   2.566  0.8210  0.7335  0.4084
  859MOL0     C13317   3.403   0.972   2.668 -0.2461  0.2859 -0.4824
  859MOL0     C13318   3.455   1.020   2.801  0.4956 -0.0028  0.5579
  859MOL0     C13319   3.525   0.915   2.883 -0.5280  0.3206  0.5958
  859MOL0     C13320   3.574   0.833   2.961  0.6134  1.0049 -1.3121
  859MOL0     C13321   3.690   1.115   2.177  0.2542 -0.0863  0.5824
  859MOL0     C13322   3.707   1.142   2.039 -0.6413 -0.5232  0.5397
  859MOL0     H13323   3.687   1.336   1.570  1.0288 -2.4516  2.3105
  859MOL0     H13324   3.723   1.332   1.318 -0.0020 -0.2729  1.1979
  859MOL0     H13325   3.887   0.998   1.096 -0.0083  0.5560 -1.5221
  859MOL0     H13326   3.965   1.150   1.176 -1.3546  1.0922  1.7074
  859MOL0     H13327   3.827   1.184   0.927 -0.4552 -0.4704  0.1358
  859MOL0     H13328   3.993   1.141   0.924 -2.3978  1.3013 -2.2543
  859MOL0     H13329   4.024   1.342   1.092  1.2108  1.3264 -1.0305
  859MOL0     H13330   3.841   1.366   1.063  2.7472  3.4526  3.1376
  859MOL0     H13331   4.051   1.370   0.847 -0.1532  1.6731  0.2991
  859MOL0     H13332   3.882   1.411   0.834 -2.1109 -0.8680  1.7427
  859MOL0     H13333   3.908   1.598   0.992 -0.1826  1.5226 -2.3753
  859MOL0     H13334   3.986   1.607   0.843  1.2887 -2.1795 -1.8155
  859MOL0     H13335   4.125   1.593   1.114 -1.8285  4.2627 -0.2981
  859MOL0     H13336   4.129   1.699   0.986 -0.2542 -0.6730 -3.0494
  859MOL0     H13337   4.269   1.434   0.977  0.0467  1.3463  3.5055
  859MOL0     H13338   4.246   1.552   0.837 -0.3901  0.4644 -0.6982
  859MOL0     H13339   4.385   1.600   1.102  0.3664 -1.4825 -0.4007
  859MOL0     H13340   4.341   1.724   1.008 -4.4862 -1.0197  1.4517
  859MOL0     H13341   4.645   1.598   1.067  0.4097  1.3868 -0.1406
  859MOL0     H13342   4.900   1.559   0.938  1.1530  1.4570 -2.1023
  859MOL0     H13343   4.893   1.538   0.772 -0.3003 -1.7196  0.2285
  859MOL0     H13344   4.808   1.298   0.808 -0.4379  1.4607 -1.2412
  859MOL0     H13345   4.825   1.332   0.993  4.6127 -2.2989  0.8143
  859MOL0     H13346   4.996   1.195   0.852 -0.6636  0.9366 -2.9082
  859MOL0     H13347   5.075   1.352   0.837  0.7379 -1.8240 -0.8711
  859MOL0     H13348   5.105   1.391   1.059  1.5645 -0.8205 -0.2579
  859MOL0     H13349   5.159   1.224   1.029 -0.5105 -1.1480  1.2953
  859MOL0     H13350   5.035   1.030   0.976 -1.8393 -0.0665 -0.8179
  859MOL0     H13351   5.048   0.795   1.060  2.3590 -2.7541  3.5262
  859MOL0     H13352   4.780   0.544   1.576  0.2443  1.3076 -1.9750
  859MOL0     H13353   4.828   0.328   1.687  0.1048  0.4674  0.6745
  859MOL0     H13354   5.065   0.137   1.700  1.2161 -3.0028 -0.3665
  859MOL0     H13355   5.031  -0.022   1.626  3.7286  2.2665 -2.0503
  859MOL0     H13356   4.792   0.022   1.765 -0.5404  0.5441  0.9444
  859MOL0     H13357   4.880   0.152   1.838 -1.0514 -0.9512  0.7208
  859MOL0     H13358   4.917  -0.143   1.867  4.6330 -0.7979  2.1720
  859MOL0     H13359   4.845  -0.038   1.990  0.8327 -0.3166  1.8913
  859MOL0     H13360   5.132   0.000   1.898  0.5134  1.7747 -0.1073
  859MOL0     H13361   5.054   0.070   2.044  0.1867 -3.1553  4.4323
  859MOL0     H13362   4.997  -0.177   2.099  1.3730 -2.8535  0.4934
  859MOL0     H13363   5.157  -0.090   2.136 -0.7540 -1.0780  0.6413
  859MOL0     H13364   5.247  -0.210   1.925  1.0942  0.8587  1.5604
  859MOL0     H13365   5.100  -0.309   1.920  1.8938 -0.9002 -1.0464
  859MOL0     H13366   5.305  -0.405   2.053 -0.0469 -1.2893 -0.5209
  859MOL0     H13367   5.264  -0.283   2.173  1.1676 -1.0827  1.4103
  859MOL0     H13368   5.088  -0.511   2.068 -1.0656  1.0017  0.2869
  859MOL0     H13369   5.030  -0.391   2.189 -1.0876 -1.4629 -1.5454
  859MOL0     H13370   4.970   0.188   1.307 -0.0004  0.2779 -1.1456
  859MOL0     H13371   4.941   0.405   1.206 -4.7345  0.9047 -0.8322
  859MOL0     H13372   4.848   0.904   1.416 -0.5362  1.3952  0.5180
  859MOL0     H13373   4.871   1.147   1.346  3.1644  0.4395  0.2725
  859MOL0     H13374   3.805   0.929   1.300  0.9097  2.6387 -4.2022
  859MOL0     H13375   3.774   0.924   1.568  1.5350  1.1819 -0.1742
  859MOL0     H13376   3.401   1.011   1.934  0.1093  0.6349  0.4298
  859MOL0     H13377   3.373   1.004   2.183  0.2147 -2.2195 -0.6804
  859MOL0     H13378   3.527   0.886   2.433  2.0764  1.4578  2.9978
  859MOL0     H13379   3.377   0.968   2.381 -0.5155  2.9720  0.9659
  859MOL0     H13380   3.593   1.030   2.584  1.9612 -1.5073 -5.4952
  859MOL0     H13381   3.467   1.150   2.562  1.0929  0.9114  2.7461
  859MOL0     H13382   3.400   0.863   2.654 -0.8250  0.1641  0.4592
  859MOL0     H13383   3.305   1.016   2.647  0.9302  3.2114 -0.2854
  859MOL0     H13384   3.520   1.108   2.797  0.3690  0.0804  0.3158
  859MOL0     H13385   3.367   1.053   2.858  0.3931  2.9344 -1.0743
  859MOL0     H13386   3.611   0.769   3.038 -1.5321 -0.0140 -1.0720
  859MOL0     H13387   3.763   1.148   2.250  1.3360 -2.4487  0.6645
  859MOL0     H13388   3.788   1.210   2.011  0.3630 -2.0834 -0.5091
  860MOL0     O13389   4.566   1.497   7.808  0.0679 -0.7197 -0.3275
  860MOL0     C13390   4.655   1.420   7.836 -1.2643 -0.5010  0.5078
  860MOL0     O13391   4.775   1.444   7.883 -1.1345  0.5954  0.3211
  860MOL0     C13392   4.801   1.568   7.936 -0.2997  0.0608  0.5918
  860MOL0     C13393   4.882   1.569   8.049 -0.1147 -0.3089 -0.4598
  860MOL0     C13394   4.923   1.692   8.110  0.9230 -0.3131  0.6246
  860MOL0     C13395   4.873   1.807   8.058  0.1432 -0.2134  0.5434
  860MOL0     O13396   4.902   1.927   8.115 -0.0171  0.4138  0.0270
  860MOL0     C13397   4.836   2.051   8.081  0.1720  0.3643  0.1222
  860MOL0     C13398   4.884   2.158   8.174 -0.0165  0.9874  0.1510
  860MOL0     C13399   5.013   2.221   8.130 -0.1662 -0.1789  0.3164
  860MOL0     C13400   5.094   2.280   8.246  0.2697 -1.0257  0.2575
  860MOL0     C13401   5.226   2.341   8.194  0.4133  1.0146 -0.7106
  860MOL0     C13402   5.271   2.432   8.308  0.1300 -1.0933 -0.0764
  860MOL0     C13403   5.388   2.519   8.276  0.4124  0.7120  0.3518
  860MOL0     C13404   5.522   2.453   8.220 -1.1383 -0.1790 -0.0542
  860MOL0     N13405   5.644   2.538   8.222  0.1986  1.0992 -0.6552
  860MOL0     C13406   5.644   2.667   8.207 -0.4392  1.0732 -0.6332
  860MOL0     C13407   5.780   2.705   8.208 -0.1916  0.2707 -0.3461
  860MOL0     C13408   5.830   2.839   8.226  0.0690  0.3133 -0.4134
  860MOL0     C13409   5.963   2.851   8.143  0.5178 -0.1231  0.4482
  860MOL0     C13410   5.929   2.839   7.993  1.6531 -0.8812 -0.1599
  860MOL0     C13411   6.049   2.870   7.907 -0.5484  1.0266  0.4897
  860MOL0     O13412   6.141   2.752   7.933  0.0401  0.4026  1.2821
  860MOL0     C13413   6.125   2.638   7.857 -0.0353  0.1835  0.4613
  860MOL0     C13414   6.130   2.511   7.921 -0.2332 -0.1705 -0.2472
  860MOL0     C13415   6.112   2.396   7.857  0.7307  1.0903  0.4845
  860MOL0     C13416   6.105   2.398   7.715  0.1457  0.2727  0.3045
  860MOL0     C13417   6.092   2.269   7.635 -0.0511 -0.0138  0.3598
  860MOL0     O13418   6.111   2.263   7.498  0.4354  0.0200 -0.0632
  860MOL0     C13419   6.101   2.147   7.427  1.1438  1.1944 -0.2596
  860MOL0     C13420   5.997   2.056   7.448 -0.2580  0.2183 -1.0000
  860MOL0     C13421   5.987   1.935   7.376 -0.7230 -0.6700 -0.1889
  860MOL0     C13422   6.079   1.902   7.278 -0.7821  0.0765 -0.0569
  860MOL0     O13423   6.060   1.771   7.227 -0.4734  0.3745 -0.7147
  860MOL0     C13424   6.170   1.719   7.151 -0.6891  0.2035  0.6922
  860MOL0     C13425   6.144   1.570   7.140 -0.9115 -0.0709  0.7873
  860MOL0     C13426   6.236   1.469   7.228  0.4979 -0.7218  0.9980
  860MOL0     C13427   6.208   1.328   7.185 -0.0564 -0.4753  0.5689
  860MOL0     C13428   6.267   1.239   7.290  0.1938 -0.4221 -0.3082
  860MOL0     C13429   6.406   1.202   7.253 -0.2507  0.9688  0.4215
  860MOL0     C13430   6.458   1.078   7.327 -1.7436 -0.5375 -0.6125
  860MOL0     C13431   6.601   1.052   7.305 -0.3749 -0.2092  1.0580
  860MOL0    Cl13432   6.619   0.873   7.268 -0.4092  0.0076  0.1140
  860MOL0     C13433   6.172   2.000   7.245 -0.4065 -0.1200  0.1062
  860MOL0     C13434   6.181   2.121   7.317  0.3767  0.6568  0.2304
  860MOL0     O13435   6.070   2.167   7.700  0.0065 -0.1502  0.0176
  860MOL0     C13436   6.092   2.519   7.649 -0.1894 -0.9557  0.0996
  860MOL0     C13437   6.104   2.640   7.721 -0.1846  0.5389 -0.2115
  860MOL0     N13438   5.855   2.584   8.218 -0.0824 -0.3208  0.2700
  860MOL0     N13439   5.768   2.487   8.229  0.0376  0.0743 -0.5848
  860MOL0     C13440   4.803   1.802   7.929  1.1797  0.7205 -0.5722
  860MOL0     C13441   4.765   1.682   7.875 -0.7511  0.0231  0.2453
  860MOL0     C13442   4.648   1.282   7.789 -0.5056  0.6652  0.1165
  860MOL0     C13443   4.553   1.248   7.685 -1.5810 -0.0639  0.2529
  860MOL0     C13444   4.553   1.121   7.626  0.7740  0.6340  1.5639
  860MOL0     C13445   4.643   1.018   7.671 -0.5261 -0.5103  0.0495
  860MOL0     O13446   4.662   0.888   7.621  0.2857  0.4033 -0.3031
  860MOL0     C13447   4.590   0.848   7.504 -0.0955 -1.1473 -0.5753
  860MOL0     C13448   4.539   0.702   7.515  0.9490 -0.9613  0.1117
  860MOL0     C13449   4.395   0.705   7.567 -0.1857  1.1316  0.4997
  860MOL0     C13450   4.334   0.561   7.603  0.4143 -0.7362  1.0742
  860MOL0     C13451   4.214   0.565   7.681  1.2807  0.2514 -0.8204
  860MOL0     C13452   4.101   0.567   7.731  0.0118 -0.1477  0.5079
  860MOL0     C13453   4.731   1.055   7.767 -0.6548 -0.1888  0.2588
  860MOL0     C13454   4.736   1.184   7.827  0.4940  0.5108  0.4048
  860MOL0     H13455   4.927   1.478   8.088 -0.0409 -0.1041 -0.0641
  860MOL0     H13456   4.985   1.690   8.199 -0.0721  1.2469  1.3905
  860MOL0     H13457   4.732   2.019   8.095  0.7424 -1.0668  1.3522
  860MOL0     H13458   4.847   2.089   7.979 -0.3530 -0.7285 -0.3528
  860MOL0     H13459   4.904   2.112   8.272 -0.8585 -2.0341 -0.9679
  860MOL0     H13460   4.801   2.228   8.191  0.2584  2.1252 -2.6404
  860MOL0     H13461   4.989   2.295   8.054  1.7100  0.8568  0.6754
  860MOL0     H13462   5.082   2.149   8.085 -1.8681 -0.4938 -1.9532
  860MOL0     H13463   5.024   2.357   8.281  0.3767 -0.1263 -1.4115
  860MOL0     H13464   5.116   2.225   8.338 -1.4280 -0.9106  0.7611
  860MOL0     H13465   5.212   2.404   8.106 -2.5923  1.9896  0.3535
  860MOL0     H13466   5.289   2.253   8.177 -1.7088 -1.5933  3.4784
  860MOL0     H13467   5.286   2.372   8.398 -1.6156 -1.2830  0.1276
  860MOL0     H13468   5.187   2.496   8.338  0.7471 -0.3813  0.1561
  860MOL0     H13469   5.360   2.581   8.191 -1.1177  0.4807  0.6639
  860MOL0     H13470   5.411   2.571   8.369 -1.7925 -0.5081  1.6654
  860MOL0     H13471   5.491   2.414   8.123 -2.2886  0.2493  0.1282
  860MOL0     H13472   5.554   2.366   8.279 -0.8234 -0.3985 -0.5337
  860MOL0     H13473   5.558   2.732   8.208 -0.3834  1.3455  3.5045
  860MOL0     H13474   5.856   2.855   8.331 -1.5762  0.3672  0.0088
  860MOL0     H13475   5.759   2.916   8.194 -1.3082 -0.6658  0.1926
  860MOL0     H13476   6.035   2.775   8.175  0.0298 -0.3408  1.0558
  860MOL0     H13477   5.988   2.956   8.162 -0.4079 -0.3365  3.3815
  860MOL0     H13478   5.890   2.739   7.969 -0.1307 -0.1640 -0.4259
  860MOL0     H13479   5.852   2.915   7.975  1.9249 -0.6441 -0.3295
  860MOL0     H13480   6.091   2.967   7.935 -0.1408  1.1309 -0.4607
  860MOL0     H13481   6.011   2.873   7.805  0.7960 -0.6309 -0.1176
  860MOL0     H13482   6.138   2.505   8.029  0.2458  2.2886 -0.0951
  860MOL0     H13483   6.099   2.301   7.906 -3.4411  0.1529 -1.9972
  860MOL0     H13484   5.924   2.075   7.526 -1.4938 -1.8169 -1.5826
  860MOL0     H13485   5.898   1.875   7.389 -2.8421  2.6693  2.2509
  860MOL0     H13486   6.268   1.726   7.201  0.2753 -1.0727 -0.9167
  860MOL0     H13487   6.185   1.759   7.050 -0.3464  0.3530  0.7981
  860MOL0     H13488   6.166   1.554   7.034 -1.1163  2.7026  0.2474
  860MOL0     H13489   6.036   1.553   7.153 -1.0424  0.3149  0.2434
  860MOL0     H13490   6.215   1.492   7.333  0.6337 -0.1024  0.8918
  860MOL0     H13491   6.343   1.476   7.208 -0.0983 -2.8579 -4.7818
  860MOL0     H13492   6.099   1.329   7.177 -0.0977  2.8051 -0.0261
  860MOL0     H13493   6.234   1.310   7.081 -0.8507  0.5981  0.1653
  860MOL0     H13494   6.209   1.146   7.300  0.0249 -0.2265  0.5861
  860MOL0     H13495   6.276   1.282   7.390 -1.1898 -1.1264  0.1548
  860MOL0     H13496   6.482   1.279   7.265  1.8366 -0.7716 -0.9235
  860MOL0     H13497   6.410   1.179   7.146  1.7700  3.3153 -0.0724
  860MOL0     H13498   6.448   1.086   7.435 -2.2766  1.4486 -0.7685
  860MOL0     H13499   6.400   0.986   7.318  0.7433 -3.0376  4.5362
  860MOL0     H13500   6.672   1.085   7.381  2.4726 -2.1660 -0.5203
  860MOL0     H13501   6.646   1.110   7.223 -0.0809  0.6751  1.8337
  860MOL0     H13502   6.242   1.986   7.163 -0.7505 -0.4178 -0.1383
  860MOL0     H13503   6.249   2.199   7.284  1.6059 -0.3917  0.2071
  860MOL0     H13504   6.076   2.520   7.542 -0.0356  0.3863  0.0749
  860MOL0     H13505   6.104   2.738   7.673  2.0044  0.3787 -0.6645
  860MOL0     H13506   4.768   1.893   7.881  1.1980  1.1209  0.1615
  860MOL0     H13507   4.714   1.681   7.779 -0.1846  0.8533 -0.0692
  860MOL0     H13508   4.487   1.326   7.649 -0.3887 -0.1501 -2.4454
  860MOL0     H13509   4.492   1.104   7.538  3.3975 -2.7260  0.1455
  860MOL0     H13510   4.663   0.844   7.423 -0.1416 -1.9637 -0.5853
  860MOL0     H13511   4.507   0.914   7.476  0.9833  0.8243  0.6800
  860MOL0     H13512   4.544   0.649   7.420  5.8678  0.0504 -0.4920
  860MOL0     H13513   4.603   0.649   7.586  0.7968  0.5763  1.4565
  860MOL0     H13514   4.335   0.738   7.482 -1.7600 -1.0185  0.6808
  860MOL0     H13515   4.382   0.766   7.657 -0.0574  1.7446  0.1063
  860MOL0     H13516   4.309   0.506   7.512 -2.3983  1.5157  0.3570
  860MOL0     H13517   4.413   0.499   7.647  3.0684  1.3724 -0.3936
  860MOL0     H13518   4.003   0.569   7.773 -0.2394  1.8277 -0.0558
  860MOL0     H13519   4.803   0.975   7.785 -0.3632  0.0496  0.1702
  860MOL0     H13520   4.816   1.205   7.896  0.5422  0.5685  0.3326
  861MOL0     O13521   2.400   1.217   0.472  0.2534  0.3869  0.1394
  861MOL0     C13522   2.389   1.297   0.569 -0.2256  0.5311  0.7142
  861MOL0     O13523   2.493   1.368   0.637  0.8278  0.3099  0.3769
  861MOL0     C13524   2.619   1.345   0.596  0.2744  0.0009  0.0324
  861MOL0     C13525   2.701   1.458   0.601  0.1577 -0.2196  0.6858
  861MOL0     C13526   2.831   1.449   0.555 -0.4448  0.6291 -0.2954
  861MOL0     C13527   2.895   1.332   0.512 -1.0655 -0.8781  0.3895
  861MOL0     O13528   3.011   1.313   0.448  0.0099 -0.3899 -0.7153
  861MOL0     C13529   3.095   1.429   0.432 -0.4144 -0.5523  0.3683
  861MOL0     C13530   3.166   1.468   0.559 -0.3041 -0.4820  0.3774
  861MOL0     C13531   3.249   1.594   0.539  0.1914  0.1474 -0.1284
  861MOL0     C13532   3.346   1.595   0.420  0.5953  0.7001 -0.1891
  861MOL0     C13533   3.391   1.740   0.391  0.4686  1.1119 -0.2923
  861MOL0     C13534   3.508   1.751   0.285  0.2349  0.3926  0.3289
  861MOL0     C13535   3.502   1.885   0.225  0.6193  0.0181  0.6832
  861MOL0     C13536   3.558   1.879   0.081 -0.0696 -0.3446  1.1967
  861MOL0     N13537   3.685   1.804   0.052 -0.0927 -0.6829  0.0383
  861MOL0     C13538   3.807   1.859   0.077 -0.1374  0.1076 -0.3829
  861MOL0     C13539   3.896   1.761   0.054 -0.3643 -1.0647 -0.4457
  861MOL0     C13540   4.037   1.762   0.112  0.5104 -1.2105 -0.3938
  861MOL0     C13541   4.142   1.747   0.010 -0.3394 -0.6619  0.1822
  861MOL0     C13542   4.174   1.865  -0.081  0.4202 -0.6270 -0.0150
  861MOL0     C13543   4.271   1.832  -0.193  0.4832 -0.7391  0.1842
  861MOL0     O13544   4.304   1.945  -0.273 -0.3235 -0.0724 -0.3122
  861MOL0     C13545   4.239   1.990  -0.381  0.0933  0.3841  0.1616
  861MOL0     C13546   4.123   1.925  -0.424 -0.5943  0.7043 -0.5262
  861MOL0     C13547   4.055   1.973  -0.530  0.3404  0.5250  1.0481
  861MOL0     C13548   4.114   2.066  -0.619  0.7895  0.4383 -0.1430
  861MOL0     C13549   4.041   2.082  -0.751  0.4620 -0.6575  0.4293
  861MOL0     O13550   4.088   2.175  -0.845 -0.4431 -0.3159 -0.0559
  861MOL0     C13551   4.030   2.224  -0.953  0.2748  0.2480  0.3963
  861MOL0     C13552   4.110   2.317  -1.023  0.1562 -0.6349 -0.1467
  861MOL0     C13553   4.071   2.370  -1.145 -0.4945 -0.2109 -0.5112
  861MOL0     C13554   3.946   2.344  -1.193 -0.0695 -0.0914 -0.0569
  861MOL0     O13555   3.912   2.391  -1.318 -0.2947 -0.3077 -0.1506
  861MOL0     C13556   3.998   2.475  -1.398  0.1297  0.5566 -0.4693
  861MOL0     C13557   3.931   2.509  -1.536  0.6317 -0.1891  0.9052
  861MOL0     C13558   3.833   2.623  -1.529  0.1637  0.6936 -0.0146
  861MOL0     C13559   3.759   2.620  -1.664  0.2302 -0.0257 -0.3317
  861MOL0     C13560   3.626   2.699  -1.669 -0.2185  0.2769 -0.8461
  861MOL0     C13561   3.524   2.672  -1.561  0.3754  0.3220 -0.2217
  861MOL0     C13562   3.387   2.735  -1.598 -0.9478  0.1616 -0.3748
  861MOL0     C13563   3.321   2.777  -1.469  0.6889 -0.2923 -0.0870
  861MOL0    Cl13564   3.140   2.793  -1.515  0.0568  0.2418 -0.0177
  861MOL0     C13565   3.862   2.264  -1.122  0.1149  0.1260  0.0276
  861MOL0     C13566   3.898   2.207  -1.000 -0.1878 -0.3272 -0.0741
  861MOL0     O13567   3.949   2.008  -0.779  0.8663 -0.3633 -0.0053
  861MOL0     C13568   4.232   2.128  -0.591 -0.2035 -0.5544 -1.8891
  861MOL0     C13569   4.291   2.090  -0.466  0.1685 -1.2928 -0.5653
  861MOL0     N13570   3.825   1.651   0.001  0.4254 -0.3681 -0.2979
  861MOL0     N13571   3.698   1.688  -0.005 -0.6675 -0.5471 -0.0040
  861MOL0     C13572   2.814   1.219   0.519 -0.0027 -0.5861  0.4408
  861MOL0     C13573   2.674   1.220   0.550  0.0449 -0.7280 -0.0040
  861MOL0     C13574   2.264   1.305   0.636 -1.2975  0.4776 -0.5431
  861MOL0     C13575   2.163   1.211   0.602  0.1684  0.7042  0.4839
  861MOL0     C13576   2.038   1.221   0.652  0.1490 -1.1198 -0.4406
  861MOL0     C13577   2.007   1.323   0.742 -0.0884 -0.2659  0.3138
  861MOL0     O13578   1.883   1.344   0.799  0.3815  0.0225  0.3325
  861MOL0     C13579   1.780   1.369   0.696  0.0921  0.3300  0.4267
  861MOL0     C13580   1.777   1.515   0.656  0.2398  0.3202 -1.2736
  861MOL0     C13581   1.724   1.608   0.762 -0.0347 -0.0299 -0.1862
  861MOL0     C13582   1.647   1.735   0.715  0.2889  0.0668  0.1304
  861MOL0     C13583   1.736   1.812   0.632  0.0986 -0.1196  0.5703
  861MOL0     C13584   1.815   1.860   0.550 -0.3362  0.4252  0.2013
  861MOL0     C13585   2.113   1.414   0.779  0.1076  0.5924 -0.4540
  861MOL0     C13586   2.247   1.399   0.731  0.4655  0.4261 -0.3099
  861MOL0     H13587   2.671   1.556   0.635 -1.1068 -0.1739 -0.4881
  861MOL0     H13588   2.892   1.538   0.546  0.5552 -0.0742 -0.8235
  861MOL0     H13589   3.034   1.507   0.385  0.0142 -0.5079 -0.1240
  861MOL0     H13590   3.167   1.409   0.352  1.4914  0.9912  1.6379
  861MOL0     H13591   3.230   1.386   0.591 -2.8718 -2.9487 -0.3199
  861MOL0     H13592   3.087   1.490   0.631 -0.0482  0.5572  0.3514
  861MOL0     H13593   3.309   1.591   0.630 -1.0459 -3.6591  0.7594
  861MOL0     H13594   3.189   1.684   0.523  1.8168  1.0262 -1.6852
  861MOL0     H13595   3.426   1.525   0.447  0.5298  1.1775  1.3688
  861MOL0     H13596   3.306   1.548   0.330  4.9822 -0.7791 -1.6348
  861MOL0     H13597   3.424   1.787   0.484  0.8962 -0.8925  0.6195
  861MOL0     H13598   3.296   1.785   0.360 -1.3305 -3.0291 -1.3694
  861MOL0     H13599   3.482   1.684   0.203  0.1826 -0.3803  0.9637
  861MOL0     H13600   3.604   1.717   0.326 -0.7493 -3.3277 -0.0843
  861MOL0     H13601   3.394   1.893   0.212  0.4316 -1.6203  0.9743
  861MOL0     H13602   3.529   1.973   0.283 -0.4705  0.6057  0.3242
  861MOL0     H13603   3.575   1.983   0.052  2.8524 -1.4504 -1.7724
  861MOL0     H13604   3.480   1.842   0.015  2.9247  2.0508 -4.3362
  861MOL0     H13605   3.831   1.940   0.144  0.2068 -1.1385  1.0546
  861MOL0     H13606   4.040   1.693   0.196  0.5747 -1.0455 -0.2584
  861MOL0     H13607   4.063   1.863   0.145 -0.9369 -0.0348 -2.6118
  861MOL0     H13608   4.104   1.660  -0.046 -2.0457 -1.3435  2.2673
  861MOL0     H13609   4.235   1.724   0.063 -0.8494  0.7458  1.7517
  861MOL0     H13610   4.089   1.912  -0.131  0.3039  0.7285  1.4058
  861MOL0     H13611   4.210   1.942  -0.013  3.1704 -1.9920  0.2620
  861MOL0     H13612   4.236   1.757  -0.265 -0.1684 -1.3061  1.0745
  861MOL0     H13613   4.355   1.783  -0.144  1.4085  0.8837  0.2898
  861MOL0     H13614   4.081   1.844  -0.366 -0.4276  0.2729 -0.9985
  861MOL0     H13615   3.959   1.933  -0.560 -0.8042  3.5989  0.1899
  861MOL0     H13616   4.207   2.352  -0.988  0.3572 -2.1627  0.9382
  861MOL0     H13617   4.130   2.448  -1.192 -0.3436  0.9413  1.4493
  861MOL0     H13618   4.090   2.422  -1.425  0.5211  0.2308  1.3660
  861MOL0     H13619   4.016   2.572  -1.352  1.9139 -0.9817  2.4120
  861MOL0     H13620   3.874   2.419  -1.560  0.7308  0.1231 -0.6164
  861MOL0     H13621   4.001   2.526  -1.619  0.9360 -0.0484  1.1902
  861MOL0     H13622   3.874   2.724  -1.516  1.3665 -0.0205  2.5743
  861MOL0     H13623   3.764   2.596  -1.449  0.1729 -0.1103 -0.2762
  861MOL0     H13624   3.820   2.675  -1.735  0.7775 -0.5070 -0.2451
  861MOL0     H13625   3.751   2.516  -1.698  2.0571  0.3944 -2.2309
  861MOL0     H13626   3.580   2.686  -1.767 -1.4150  0.5748 -0.3479
  861MOL0     H13627   3.647   2.807  -1.671 -0.3106  0.2923 -2.7835
  861MOL0     H13628   3.559   2.696  -1.460  0.5359  0.3547 -0.2825
  861MOL0     H13629   3.498   2.567  -1.545  3.1970 -0.2373  1.5083
  861MOL0     H13630   3.400   2.823  -1.662  0.9367  2.2469  2.6324
  861MOL0     H13631   3.326   2.664  -1.654 -1.0352  0.5922 -0.8302
  861MOL0     H13632   3.362   2.867  -1.423  1.0684 -0.8577  0.7041
  861MOL0     H13633   3.311   2.702  -1.390  2.8809  0.4686  0.9937
  861MOL0     H13634   3.761   2.261  -1.159  1.1303  0.2089 -2.9910
  861MOL0     H13635   3.816   2.163  -0.945 -0.8074  1.5712  0.5936
  861MOL0     H13636   4.274   2.197  -0.664 -1.9337  1.7107 -0.8754
  861MOL0     H13637   4.388   2.139  -0.453 -0.7784  0.9908 -1.4392
  861MOL0     H13638   2.854   1.121   0.493 -3.0146 -0.9793 -3.6891
  861MOL0     H13639   2.629   1.122   0.546  0.9444 -1.3790  3.1481
  861MOL0     H13640   2.183   1.130   0.534 -0.3920 -2.5091  3.8210
  861MOL0     H13641   1.959   1.149   0.634 -1.1609  0.1456  0.0798
  861MOL0     H13642   1.679   1.343   0.728  0.9223 -1.1489  2.0361
  861MOL0     H13643   1.805   1.322   0.601 -2.0905  0.3986 -0.2133
  861MOL0     H13644   1.873   1.554   0.621 -0.0588  3.3886  0.9039
  861MOL0     H13645   1.712   1.536   0.570 -3.3895  2.4512  1.6769
  861MOL0     H13646   1.816   1.640   0.812  1.8962 -0.6813 -3.0582
  861MOL0     H13647   1.658   1.555   0.831  1.3426 -1.8209 -0.1920
  861MOL0     H13648   1.556   1.715   0.657  2.2939 -1.8743 -2.5680
  861MOL0     H13649   1.629   1.794   0.806  0.8205 -1.2060  1.0947
  861MOL0     H13650   1.884   1.903   0.481  2.7853 -1.3015  2.0490
  861MOL0     H13651   2.092   1.492   0.851 -0.6498  0.2950 -0.3446
  861MOL0     H13652   2.328   1.464   0.763  1.0456  0.4954 -1.8752
  862MOL0     O13653   1.988   1.048  10.501 -0.3350  0.0233 -0.0404
  862MOL0     C13654   1.950   1.136  10.425 -0.1679  0.2399  0.7131
  862MOL0     O13655   1.906   1.126  10.299  0.4414 -0.1854  0.4222
  862MOL0     C13656   1.915   1.006  10.232 -0.0488 -0.3826  0.2597
  862MOL0     C13657   1.811   0.965  10.154  0.1800  0.1823  0.8806
  862MOL0     C13658   1.805   0.838  10.095 -0.4846 -0.3780  0.9355
  862MOL0     C13659   1.906   0.745  10.121  0.0131  0.7752  0.1610
  862MOL0     O13660   1.899   0.626  10.054  0.1093  0.2565 -0.0551
  862MOL0     C13661   1.985   0.520  10.090  0.6181 -0.4512 -0.4033
  862MOL0     C13662   1.978   0.412   9.986  0.4782 -0.2750 -0.4915
  862MOL0     C13663   2.055   0.299  10.038 -0.5459 -0.6265 -0.3454
  862MOL0     C13664   2.041   0.182   9.933 -0.3478 -0.0486  0.4320
  862MOL0     C13665   2.094   0.058   9.985  0.5799  1.3824 -0.1578
  862MOL0     C13666   2.073  -0.054   9.874 -0.7546  0.2612  0.4319
  862MOL0     C13667   2.127  -0.195   9.914  0.6796 -0.4938  0.2326
  862MOL0     C13668   2.137  -0.296   9.805  0.9843  0.9636  0.1934
  862MOL0     N13669   2.000  -0.331   9.755 -0.2618 -0.4051  0.1597
  862MOL0     C13670   1.888  -0.330   9.829  1.1102 -0.6439  0.1495
  862MOL0     C13671   1.787  -0.354   9.740  0.1970  0.7690 -0.8727
  862MOL0     C13672   1.654  -0.406   9.794 -0.2082  0.3150  0.6624
  862MOL0     C13673   1.547  -0.452   9.684  0.3909  0.0682 -0.0081
  862MOL0     C13674   1.455  -0.563   9.746 -0.1355 -0.2852  0.1883
  862MOL0     C13675   1.324  -0.574   9.680  0.5244  0.4192  0.0688
  862MOL0     O13676   1.261  -0.687   9.752 -0.5044  0.2501  0.0589
  862MOL0     C13677   1.125  -0.661   9.776 -0.5403  0.0405  0.7071
  862MOL0     C13678   1.081  -0.579   9.882 -0.3385 -0.2569  0.0310
  862MOL0     C13679   0.939  -0.569   9.913  0.5047  0.3413  0.9108
  862MOL0     C13680   0.851  -0.636   9.819 -0.3511 -0.1469  0.0090
  862MOL0     C13681   0.703  -0.611   9.820  0.2868 -0.3944 -0.4836
  862MOL0     O13682   0.659  -0.534   9.920  0.5961 -0.3962  0.1852
  862MOL0     C13683   0.522  -0.551   9.940  0.2836 -0.2949  0.2115
  862MOL0     C13684   0.441  -0.442   9.917 -0.2805  0.5959  0.7682
  862MOL0     C13685   0.304  -0.453   9.936 -0.1790  0.2229 -0.6001
  862MOL0     C13686   0.246  -0.573   9.988 -0.9613 -0.6789 -0.3353
  862MOL0     O13687   0.116  -0.571  10.015  1.0460 -0.0162 -0.4121
  862MOL0     C13688   0.064  -0.651  10.124 -1.1966  0.2748 -0.1951
  862MOL0     C13689  -0.084  -0.627  10.148  0.0023 -0.4342  0.0252
  862MOL0     C13690  -0.172  -0.682  10.035  0.6936 -1.1472 -0.2623
  862MOL0     C13691  -0.323  -0.662  10.060  0.4170  0.4502  0.0794
  862MOL0     C13692  -0.402  -0.735   9.950  0.1041 -0.0681 -0.7755
  862MOL0     C13693  -0.553  -0.740   9.963  1.4345 -1.3889  0.3286
  862MOL0     C13694  -0.618  -0.843   9.880 -0.3184  0.3959  0.1384
  862MOL0     C13695  -0.639  -0.795   9.731 -0.5060  0.5981  0.2268
  862MOL0    Cl13696  -0.661  -0.941   9.639 -0.0461  0.0493  0.2721
  862MOL0     C13697   0.334  -0.678  10.027 -0.0188  0.0985  0.8121
  862MOL0     C13698   0.472  -0.668  10.003 -0.2528 -0.0690 -0.4732
  862MOL0     O13699   0.627  -0.643   9.722 -0.4184 -0.0214  0.3653
  862MOL0     C13700   0.902  -0.681   9.696  0.4096  0.2949 -0.2938
  862MOL0     C13701   1.039  -0.698   9.683 -0.3874  0.2774  0.3566
  862MOL0     N13702   1.837  -0.359   9.610 -1.3228  0.5701 -0.2864
  862MOL0     N13703   1.971  -0.344   9.618 -0.3097  1.1336  0.2453
  862MOL0     C13704   2.019   0.786  10.199  0.1729 -0.0499  0.7606
  862MOL0     C13705   2.027   0.914  10.248  0.0974  0.6488 -0.0018
  862MOL0     C13706   1.937   1.273  10.474  0.1186 -0.4022  0.1399
  862MOL0     C13707   2.001   1.317  10.597  0.3756 -0.0166  0.8425
  862MOL0     C13708   1.993   1.438  10.659  1.7048 -0.0696  0.6978
  862MOL0     C13709   1.897   1.525  10.606 -0.4134 -1.5156  0.0774
  862MOL0     O13710   1.882   1.649  10.673 -0.0215  0.3535  0.0651
  862MOL0     C13711   1.830   1.653  10.811 -0.0158 -0.0182 -0.2086
  862MOL0     C13712   1.701   1.733  10.808 -0.3851  0.0126  0.1405
  862MOL0     C13713   1.711   1.877  10.754  1.0238  0.2385  0.1079
  862MOL0     C13714   1.680   1.984  10.866 -0.2069  0.1315 -0.4741
  862MOL0     C13715   1.537   1.975  10.910  0.0129 -0.0738  0.4169
  862MOL0     C13716   1.427   1.958  10.955 -0.0782  0.0572  1.2579
  862MOL0     C13717   1.830   1.495  10.481  1.0306  0.6407 -0.7532
  862MOL0     C13718   1.850   1.372  10.413  0.4463  0.4443 -0.1421
  862MOL0     H13719   1.731   1.039  10.149  0.2548  0.3670  2.1991
  862MOL0     H13720   1.727   0.815  10.023 -2.1375  1.2709  2.1010
  862MOL0     H13721   1.939   0.488  10.184 -1.9084 -0.7104 -1.6599
  862MOL0     H13722   2.092   0.542  10.101  0.6780 -0.3219 -1.2520
  862MOL0     H13723   2.015   0.458   9.894  0.4798  0.1016 -0.3034
  862MOL0     H13724   1.877   0.381   9.956  1.6796 -1.6789 -3.4597
  862MOL0     H13725   2.011   0.264  10.132  2.0582 -0.5808  0.9790
  862MOL0     H13726   2.156   0.332  10.063 -0.4876 -0.2376 -1.0793
  862MOL0     H13727   1.936   0.161   9.912 -1.4264  2.3837  2.7808
  862MOL0     H13728   2.089   0.206   9.838  2.2381 -0.7998  1.4370
  862MOL0     H13729   2.029   0.031  10.069  0.9488 -3.2346 -1.0651
  862MOL0     H13730   2.196   0.051  10.023  0.5070 -0.2375 -0.2079
  862MOL0     H13731   2.132  -0.035   9.784 -3.5136 -2.2059 -2.1347
  862MOL0     H13732   1.967  -0.062   9.846 -1.4507  1.9546  2.3601
  862MOL0     H13733   2.228  -0.180   9.954  0.7130 -0.3308  0.0885
  862MOL0     H13734   2.072  -0.228  10.003  0.3031 -0.7281 -0.0807
  862MOL0     H13735   2.190  -0.385   9.840  1.2142  0.3597 -1.5761
  862MOL0     H13736   2.194  -0.259   9.719  1.3526  1.8925  0.8250
  862MOL0     H13737   1.896  -0.345   9.937 -0.5964 -1.1329  0.2479
  862MOL0     H13738   1.602  -0.333   9.857 -1.1557 -0.8658  1.2692
  862MOL0     H13739   1.689  -0.490   9.854 -0.6358 -1.1213 -1.0286
  862MOL0     H13740   1.606  -0.488   9.599 -0.4093  1.0421 -1.0090
  862MOL0     H13741   1.498  -0.370   9.629 -1.2084 -0.2826  0.8332
  862MOL0     H13742   1.487  -0.663   9.715  0.0374  0.2701 -1.5364
  862MOL0     H13743   1.442  -0.545   9.853 -1.1621 -1.2537  0.2509
  862MOL0     H13744   1.329  -0.607   9.576  1.4560 -2.6094  0.9432
  862MOL0     H13745   1.269  -0.481   9.694  2.0799  1.3011  0.4968
  862MOL0     H13746   1.157  -0.534   9.945 -0.7353  1.1037 -0.4272
  862MOL0     H13747   0.906  -0.509   9.997  2.3761  0.5854  1.5141
  862MOL0     H13748   0.486  -0.358   9.867 -0.4051 -1.2262 -2.6726
  862MOL0     H13749   0.252  -0.360   9.912 -2.6225 -0.3483  2.0021
  862MOL0     H13750   0.126  -0.630  10.212 -0.1056 -0.7266 -0.7056
  862MOL0     H13751   0.082  -0.755  10.097 -1.6013  0.5154 -1.4390
  862MOL0     H13752  -0.102  -0.520  10.154  1.2650 -0.1520 -0.7644
  862MOL0     H13753  -0.128  -0.672  10.237 -2.8073 -1.1090 -1.5904
  862MOL0     H13754  -0.146  -0.786  10.014  1.3676 -1.0672  0.1522
  862MOL0     H13755  -0.136  -0.636   9.942  0.5170 -1.9875 -0.7607
  862MOL0     H13756  -0.338  -0.711  10.157 -0.7183  0.7535  0.0658
  862MOL0     H13757  -0.338  -0.554  10.070  2.5179  0.9877 -1.7573
  862MOL0     H13758  -0.372  -0.839   9.963  1.9140  0.6103  1.3533
  862MOL0     H13759  -0.360  -0.702   9.855  4.6429 -3.3899 -0.2668
  862MOL0     H13760  -0.618  -0.656   9.937 -0.5338 -2.7447  0.6235
  862MOL0     H13761  -0.583  -0.790  10.056 -2.0757  2.0822  1.3521
  862MOL0     H13762  -0.544  -0.923   9.890  1.7880  2.4624  2.5333
  862MOL0     H13763  -0.716  -0.874   9.919 -1.1073  0.2411 -1.8637
  862MOL0     H13764  -0.538  -0.765   9.702 -0.9693  1.1245 -0.8873
  862MOL0     H13765  -0.714  -0.718   9.709 -1.2897 -0.7340 -2.1855
  862MOL0     H13766   0.300  -0.771  10.070 -2.9271  1.2144  1.1958
  862MOL0     H13767   0.547  -0.746  10.011 -0.5778 -0.4717 -1.2073
  862MOL0     H13768   0.847  -0.724   9.613  3.1908 -2.0015 -1.0796
  862MOL0     H13769   1.067  -0.737   9.586 -1.9585 -1.9976  0.7510
  862MOL0     H13770   2.095   0.714  10.228  0.1517 -0.3004  0.1904
  862MOL0     H13771   2.110   0.944  10.311  0.0903  1.4529 -0.3573
  862MOL0     H13772   2.076   1.250  10.638  0.6836  1.6019  3.0947
  862MOL0     H13773   2.039   1.457  10.756  0.6540  2.0136  0.8526
  862MOL0     H13774   1.906   1.698  10.876  3.3455 -1.7409 -2.6415
  862MOL0     H13775   1.812   1.551  10.846  1.9752  0.5708  2.9300
  862MOL0     H13776   1.626   1.683  10.747 -0.7454  0.3588  0.2928
  862MOL0     H13777   1.662   1.739  10.910 -1.6200  0.4945 -0.3496
  862MOL0     H13778   1.631   1.874  10.679 -3.0740 -2.1488  4.0908
  862MOL0     H13779   1.808   1.895  10.707  0.6760  0.1469 -0.6591
  862MOL0     H13780   1.754   1.979  10.945  0.9050  2.0523 -1.3243
  862MOL0     H13781   1.692   2.085  10.824  0.7209  2.4087  4.5747
  862MOL0     H13782   1.322   1.940  10.972 -0.5951  1.7643  0.1245
  862MOL0     H13783   1.769   1.576  10.443  0.4447  2.4695  3.6271
  862MOL0     H13784   1.779   1.339  10.338 -1.7525 -1.2626  2.5012
  863MOL0     O13785   1.724   2.968   1.302 -0.1780 -0.0386 -0.1791
  863MOL0     C13786   1.807   3.037   1.236  0.5329  0.2384 -0.6918
  863MOL0     O13787   1.822   3.176   1.255  0.1539  0.0154  0.1274
  863MOL0     C13788   1.742   3.232   1.351  0.7279 -0.1236  0.7072
  863MOL0     C13789   1.652   3.336   1.317 -0.0664 -0.4852 -0.0447
  863MOL0     C13790   1.574   3.396   1.421 -0.8564 -0.2759 -0.1156
  863MOL0     C13791   1.585   3.356   1.552 -0.5157  0.3526  0.1635
  863MOL0     O13792   1.517   3.416   1.656  0.1943  0.4623 -0.6386
  863MOL0     C13793   1.396   3.478   1.632 -0.1964  0.7558 -0.3320
  863MOL0     C13794   1.320   3.518   1.764  0.2347  0.5447  0.2907
  863MOL0     C13795   1.292   3.389   1.840  0.3922 -0.3174 -0.4746
  863MOL0     C13796   1.156   3.395   1.901 -0.2183  0.2665  0.2455
  863MOL0     C13797   1.146   3.271   1.999  0.6370 -0.4223  0.0918
  863MOL0     C13798   1.040   3.169   1.926 -0.9197 -0.7770 -0.2827
  863MOL0     C13799   1.011   3.054   2.024  0.8165 -0.8808  0.3352
  863MOL0     C13800   1.138   2.971   2.048 -0.8776  0.1566 -0.1152
  863MOL0     N13801   1.114   2.825   2.051  0.3485  0.7298  1.1174
  863MOL0     C13802   1.095   2.738   1.949 -0.5937 -0.5005 -0.4299
  863MOL0     C13803   1.122   2.618   2.003 -0.3796 -0.5542 -0.0752
  863MOL0     C13804   1.144   2.483   1.935  0.4306 -0.5800 -0.0832
  863MOL0     C13805   1.065   2.378   2.023 -0.1313 -0.0032 -0.2834
  863MOL0     C13806   0.909   2.378   2.008  0.6978  0.7808 -0.0025
  863MOL0     C13807   0.842   2.285   2.110 -0.0121 -0.2285 -0.2235
  863MOL0     O13808   0.851   2.328   2.248  0.1105  0.3843 -0.2338
  863MOL0     C13809   0.744   2.402   2.289  0.0059 -0.1632 -0.1439
  863MOL0     C13810   0.743   2.545   2.281  0.2045  0.6894 -0.3294
  863MOL0     C13811   0.629   2.617   2.310 -0.6359 -0.6042  0.1302
  863MOL0     C13812   0.501   2.551   2.335  0.5107  0.4967 -0.2377
  863MOL0     C13813   0.374   2.625   2.346 -0.7459 -0.2643  0.3763
  863MOL0     O13814   0.266   2.571   2.414 -0.5493  0.1112  0.2031
  863MOL0     C13815   0.149   2.646   2.409  0.4544 -0.1273  0.1552
  863MOL0     C13816   0.047   2.606   2.314  0.3216  0.1247  0.5229
  863MOL0     C13817  -0.065   2.696   2.312  0.5647 -0.1211  0.4400
  863MOL0     C13818  -0.079   2.823   2.380 -1.2348  0.7837 -0.3254
  863MOL0     O13819  -0.186   2.913   2.368  0.6866 -0.1882 -0.5774
  863MOL0     C13820  -0.299   2.894   2.286 -0.2279  0.6874 -0.2971
  863MOL0     C13821  -0.404   2.998   2.334  0.3314  0.1976 -0.6059
  863MOL0     C13822  -0.376   3.133   2.270  0.9744 -0.3130 -0.4945
  863MOL0     C13823  -0.490   3.229   2.256 -0.5708  0.5050  0.0325
  863MOL0     C13824  -0.539   3.296   2.379 -0.0436  0.5278  0.3781
  863MOL0     C13825  -0.656   3.395   2.339  0.6648 -0.3000  0.3713
  863MOL0     C13826  -0.750   3.454   2.448  1.4997  0.8709 -0.5908
  863MOL0     C13827  -0.802   3.588   2.407  0.0754  0.2060 -0.0559
  863MOL0    Cl13828  -0.909   3.650   2.528 -0.6113  0.2381 -0.3452
  863MOL0     C13829   0.022   2.843   2.475  1.2212 -0.0523 -0.6859
  863MOL0     C13830   0.134   2.759   2.487 -0.0141  0.5131  1.0272
  863MOL0     O13831   0.383   2.748   2.315  0.6190  0.4131  0.4683
  863MOL0     C13832   0.511   2.415   2.355  0.0312 -0.0400  0.2838
  863MOL0     C13833   0.629   2.348   2.331 -0.5947  0.0209  0.2138
  863MOL0     N13834   1.149   2.635   2.136 -0.3767  0.7265 -0.0037
  863MOL0     N13835   1.125   2.752   2.175 -0.0560 -0.4408  0.3773
  863MOL0     C13836   1.669   3.249   1.588  1.6796 -0.1867  0.8421
  863MOL0     C13837   1.740   3.189   1.483 -0.4468 -0.5896  0.7405
  863MOL0     C13838   1.884   2.948   1.134  0.8425  0.1903 -0.2076
  863MOL0     C13839   1.917   3.009   1.019 -0.5249 -1.0917  0.1702
  863MOL0     C13840   1.979   2.938   0.922  0.2532 -0.3260  0.1923
  863MOL0     C13841   2.004   2.798   0.927 -0.1588 -0.6641  0.2864
  863MOL0     O13842   2.066   2.735   0.819 -0.1811 -0.5421 -0.3308
  863MOL0     C13843   2.125   2.604   0.837  0.2747 -0.4594 -0.0339
  863MOL0     C13844   2.034   2.487   0.785 -0.3566 -0.2145 -1.5017
  863MOL0     C13845   2.117   2.360   0.757  0.2883  0.4583 -0.4694
  863MOL0     C13846   2.144   2.333   0.600  0.5298 -0.5433  0.1284
  863MOL0     C13847   2.020   2.285   0.536  1.2391  0.7266 -0.2319
  863MOL0     C13848   1.926   2.250   0.467 -0.0194  0.7773 -0.4538
  863MOL0     C13849   1.972   2.739   1.051 -0.3016  0.2688  0.7088
  863MOL0     C13850   1.912   2.811   1.154 -0.1556 -0.6261  0.0801
  863MOL0     H13851   1.636   3.363   1.213  1.7727  0.1254 -0.2088
  863MOL0     H13852   1.507   3.479   1.408  1.9876  2.7283  2.5906
  863MOL0     H13853   1.338   3.412   1.568 -1.1006  0.8229  0.4035
  863MOL0     H13854   1.399   3.574   1.580 -1.4802  0.8641 -0.2367
  863MOL0     H13855   1.227   3.568   1.736 -1.1042 -2.2602 -0.6487
  863MOL0     H13856   1.370   3.583   1.836 -0.3735  0.6841  0.5991
  863MOL0     H13857   1.370   3.381   1.917  2.1333 -0.9370 -2.2191
  863MOL0     H13858   1.302   3.297   1.781 -1.1529 -0.2529 -0.8628
  863MOL0     H13859   1.144   3.485   1.962  0.7811  0.1204  0.6767
  863MOL0     H13860   1.078   3.398   1.825  0.3773  1.4584 -0.3413
  863MOL0     H13861   1.102   3.307   2.092 -0.8913 -0.8373 -0.4343
  863MOL0     H13862   1.237   3.212   2.010  0.9681 -0.3677 -1.9856
  863MOL0     H13863   1.087   3.117   1.842 -2.0432 -1.1136 -0.7178
  863MOL0     H13864   0.958   3.233   1.895  2.2023  1.2820 -5.7127
  863MOL0     H13865   0.969   3.098   2.115  0.0248 -0.3537 -0.2691
  863MOL0     H13866   0.935   2.988   1.981 -0.3284  0.5874  0.0132
  863MOL0     H13867   1.183   3.001   2.143 -2.4485 -0.5793  0.9162
  863MOL0     H13868   1.218   2.987   1.975 -1.9092  1.2317 -1.0536
  863MOL0     H13869   1.076   2.759   1.844  1.0919  0.5030 -0.5828
  863MOL0     H13870   1.249   2.455   1.923 -0.0801 -4.9337  2.8090
  863MOL0     H13871   1.105   2.497   1.834 -0.2968 -2.5666 -0.1309
  863MOL0     H13872   1.090   2.395   2.128 -0.1332 -2.5805  0.2145
  863MOL0     H13873   1.102   2.279   1.995 -2.3167 -0.7965 -0.6348
  863MOL0     H13874   0.869   2.479   2.017  3.4114  1.8403  1.6192
  863MOL0     H13875   0.899   2.336   1.908  2.4799 -3.0705  1.2176
  863MOL0     H13876   0.884   2.184   2.108 -0.1722 -0.3014  0.0685
  863MOL0     H13877   0.735   2.285   2.084 -0.0979 -2.4513 -0.0537
  863MOL0     H13878   0.824   2.604   2.240 -1.3245  3.6998  0.6903
  863MOL0     H13879   0.632   2.724   2.298  2.7509 -0.5667  0.1932
  863MOL0     H13880   0.076   2.516   2.261  1.6398  0.8766 -0.0917
  863MOL0     H13881  -0.151   2.670   2.251  1.2061  1.2082 -1.0687
  863MOL0     H13882  -0.347   2.799   2.311 -2.5331  2.4585  2.5283
  863MOL0     H13883  -0.276   2.907   2.179 -1.7489  0.6140 -0.6515
  863MOL0     H13884  -0.413   2.997   2.443 -2.1637 -1.9185 -0.7477
  863MOL0     H13885  -0.504   2.975   2.296 -0.4257  2.1797  0.0259
  863MOL0     H13886  -0.336   3.126   2.169 -1.3322  1.1311 -1.5932
  863MOL0     H13887  -0.305   3.182   2.338  0.0806 -1.7420  1.5615
  863MOL0     H13888  -0.451   3.305   2.187 -2.3199 -0.3271 -2.0059
  863MOL0     H13889  -0.577   3.181   2.209 -2.7690  4.5489 -0.4461
  863MOL0     H13890  -0.464   3.363   2.422  0.6763  0.8192 -1.2814
  863MOL0     H13891  -0.554   3.216   2.452  1.7638 -1.3775 -1.2187
  863MOL0     H13892  -0.718   3.336   2.271  0.7733 -3.5496  2.8544
  863MOL0     H13893  -0.596   3.474   2.293  1.3881 -0.3021  1.2771
  863MOL0     H13894  -0.840   3.393   2.459  3.0323 -1.0771  2.5968
  863MOL0     H13895  -0.710   3.469   2.549 -0.0244  3.6930 -0.3065
  863MOL0     H13896  -0.841   3.597   2.306  0.4024  2.6945 -0.0282
  863MOL0     H13897  -0.723   3.659   2.434 -2.0417  1.4037  3.9751
  863MOL0     H13898   0.023   2.929   2.540  0.6421 -1.0816  0.7318
  863MOL0     H13899   0.223   2.778   2.547 -0.4464 -0.7318  2.0907
  863MOL0     H13900   0.428   2.356   2.393  0.9430 -1.9235 -0.5196
  863MOL0     H13901   0.644   2.241   2.336  0.7327  0.0232 -2.2182
  863MOL0     H13902   1.654   3.209   1.688 -4.1461 -2.5789 -0.6021
  863MOL0     H13903   1.808   3.106   1.503  1.0607  1.1670  3.5599
  863MOL0     H13904   1.910   3.118   1.019 -0.2596 -1.0736  0.7099
  863MOL0     H13905   1.990   3.002   0.835  3.9495 -0.0838  0.6989
  863MOL0     H13906   2.149   2.579   0.941 -1.1565 -1.9468 -0.0221
  863MOL0     H13907   2.209   2.601   0.767  0.8230  1.7940  0.4174
  863MOL0     H13908   1.959   2.462   0.861 -4.0340 -2.1085 -5.3455
  863MOL0     H13909   1.980   2.523   0.697  3.0297 -1.3463 -4.2703
  863MOL0     H13910   2.053   2.279   0.793  1.6579  0.4239  2.1732
  863MOL0     H13911   2.205   2.372   0.821 -0.6574 -0.8779  1.1426
  863MOL0     H13912   2.175   2.425   0.551 -0.9657  0.3379  0.7865
  863MOL0     H13913   2.216   2.253   0.580 -1.2283 -2.2292  0.2488
  863MOL0     H13914   1.847   2.208   0.407  0.1950 -0.3061 -0.0075
  863MOL0     H13915   1.988   2.634   1.071  4.2088 -0.1977 -3.4040
  863MOL0     H13916   1.891   2.768   1.251  2.7980  2.3930  2.2889
  864MOL0     O13917   5.498   9.046   9.011 -0.0923 -0.4853  0.8947
  864MOL0     C13918   5.379   9.010   9.019 -1.1307 -0.0868  0.9121
  864MOL0     O13919   5.269   9.078   8.980  0.2663  1.0839  0.1034
  864MOL0     C13920   5.281   9.203   8.917 -0.6892 -0.8256 -0.5334
  864MOL0     C13921   5.216   9.231   8.801 -0.0098 -0.2432  0.4757
  864MOL0     C13922   5.214   9.359   8.750  0.2018 -0.4959 -0.1641
  864MOL0     C13923   5.282   9.468   8.818 -0.0006 -0.6259 -0.4608
  864MOL0     O13924   5.299   9.603   8.778  0.2981 -0.1107  0.3741
  864MOL0     C13925   5.431   9.655   8.739 -0.1895  1.1763  0.0922
  864MOL0     C13926   5.429   9.799   8.725  0.6000  0.1456 -0.1644
  864MOL0     C13927   5.498   9.860   8.598  0.4292  0.7874 -0.4661
  864MOL0     C13928   5.645   9.864   8.587 -0.3799  0.3650  0.2325
  864MOL0     C13929   5.732   9.897   8.709  0.5060 -0.8713  0.4020
  864MOL0     C13930   5.688  10.030   8.770  0.2104  0.4028  0.8609
  864MOL0     C13931   5.758  10.059   8.900 -0.0317 -0.8639 -0.2526
  864MOL0     C13932   5.713  10.185   8.953  0.6517 -0.5635 -0.5150
  864MOL0     N13933   5.746  10.299   8.865  0.1801 -0.0038 -0.5332
  864MOL0     C13934   5.847  10.380   8.901  0.1184  0.2112  0.4759
  864MOL0     C13935   5.857  10.464   8.789  0.1158  0.0624 -0.5705
  864MOL0     C13936   5.968  10.567   8.768  0.0981 -0.7043 -0.1738
  864MOL0     C13937   6.026  10.560   8.626  0.1260 -0.4302  0.6615
  864MOL0     C13938   6.151  10.651   8.631  0.2204  0.9194 -0.1743
  864MOL0     C13939   6.114  10.797   8.650  0.1525  0.3983 -0.7089
  864MOL0     O13940   5.995  10.828   8.572  0.8546  0.6059 -0.0225
  864MOL0     C13941   5.924  10.943   8.582  0.5744 -0.5193 -0.2559
  864MOL0     C13942   5.951  11.043   8.674 -0.7992  0.3276  0.2447
  864MOL0     C13943   5.857  11.148   8.693  0.2032 -0.6307  0.0646
  864MOL0     C13944   5.766  11.174   8.590  0.6479 -0.2906  0.1896
  864MOL0     C13945   5.672  11.292   8.609 -0.2432 -0.8110  0.0737
  864MOL0     O13946   5.651  11.363   8.495 -1.2551  0.3970  0.1546
  864MOL0     C13947   5.597  11.485   8.503 -0.9004 -0.6013 -0.9197
  864MOL0     C13948   5.658  11.580   8.591  0.4233 -0.1207  0.9000
  864MOL0     C13949   5.613  11.712   8.601 -0.3234 -0.5412 -0.9314
  864MOL0     C13950   5.511  11.770   8.523 -1.0319 -0.1707 -0.1388
  864MOL0     O13951   5.478  11.896   8.554  0.2026 -0.5144  0.1113
  864MOL0     C13952   5.460  11.981   8.437 -0.2752 -0.2379 -0.8076
  864MOL0     C13953   5.367  12.092   8.460  0.8720  0.2050 -0.3162
  864MOL0     C13954   5.220  12.022   8.468  0.0485  0.5041 -0.3285
  864MOL0     C13955   5.115  12.139   8.474  0.0948 -0.2904 -0.0938
  864MOL0     C13956   4.982  12.070   8.508  0.0495  0.0537  0.1640
  864MOL0     C13957   4.864  12.170   8.519 -0.3620 -0.3838 -0.3442
  864MOL0     C13958   4.915  12.303   8.589  0.2890  0.7842  0.2245
  864MOL0     C13959   4.801  12.411   8.609 -0.1859  0.5682  0.9611
  864MOL0    Cl13960   4.710  12.431   8.449 -0.2421 -0.3507  0.4584
  864MOL0     C13961   5.456  11.682   8.431  0.6637 -0.1391 -0.6690
  864MOL0     C13962   5.490  11.540   8.428 -0.2839 -0.4924  0.4520
  864MOL0     O13963   5.622  11.316   8.716  0.1336 -1.0501 -0.8368
  864MOL0     C13964   5.748  11.085   8.491  0.9545 -0.3381 -0.6339
  864MOL0     C13965   5.819  10.973   8.490  0.7775 -0.0912  0.5207
  864MOL0     N13966   5.747  10.438   8.707  0.9206  0.4347  0.0487
  864MOL0     N13967   5.675  10.347   8.758 -0.3554  0.5100  0.7195
  864MOL0     C13968   5.346   9.442   8.940 -0.2178  0.0220  0.2947
  864MOL0     C13969   5.345   9.310   8.988 -1.5767 -0.0124  0.4147
  864MOL0     C13970   5.356   8.885   9.072 -0.1449  0.8850  0.6778
  864MOL0     C13971   5.229   8.829   9.043  0.2865 -0.1468 -0.3216
  864MOL0     C13972   5.196   8.703   9.081 -0.3252  0.3747 -0.3068
  864MOL0     C13973   5.279   8.623   9.157 -1.1629  0.2961 -0.4176
  864MOL0     O13974   5.240   8.498   9.202 -0.8900 -0.1046  0.0236
  864MOL0     C13975   5.315   8.433   9.311 -1.1949 -0.2068 -0.0020
  864MOL0     C13976   5.427   8.330   9.251 -0.1144 -0.7234  0.0926
  864MOL0     C13977   5.370   8.189   9.198  0.2949 -0.1151  0.4742
  864MOL0     C13978   5.266   8.125   9.292 -0.2367 -0.4535  0.5528
  864MOL0     C13979   5.313   8.097   9.425 -0.5764  0.9047 -0.5490
  864MOL0     C13980   5.340   8.059   9.544 -0.1304 -0.5710 -0.0276
  864MOL0     C13981   5.407   8.680   9.182 -0.1068 -0.4771 -0.3575
  864MOL0     C13982   5.449   8.805   9.137  0.1903 -0.2633 -0.1180
  864MOL0     H13983   5.164   9.159   8.739  0.1347  1.6477 -1.9929
  864MOL0     H13984   5.169   9.386   8.655  1.4869  0.8773 -0.4270
  864MOL0     H13985   5.458   9.610   8.643 -0.5400 -1.9534  1.3534
  864MOL0     H13986   5.512   9.625   8.807  0.3439 -1.8074 -1.6911
  864MOL0     H13987   5.480   9.833   8.815  1.2741  1.9148 -1.1561
  864MOL0     H13988   5.325   9.832   8.728 -0.0832 -1.8930  0.2015
  864MOL0     H13989   5.445   9.956   8.589  0.1333  0.6217 -0.5076
  864MOL0     H13990   5.460   9.798   8.516 -1.5958 -0.7755  1.5351
  864MOL0     H13991   5.679   9.766   8.552  1.7526 -0.2959  3.6448
  864MOL0     H13992   5.675   9.929   8.505  1.4124  1.2473  1.5060
  864MOL0     H13993   5.839   9.911   8.690  1.1881  0.4960  4.3192
  864MOL0     H13994   5.724   9.820   8.786 -0.4649 -0.4784  0.7120
  864MOL0     H13995   5.581  10.034   8.793  0.0331 -0.2713  0.1737
  864MOL0     H13996   5.703  10.107   8.693 -1.3161  0.2558  0.3939
  864MOL0     H13997   5.739   9.978   8.971  1.5431 -0.1254  1.0633
  864MOL0     H13998   5.866  10.061   8.881  0.5309 -1.1414  2.5751
  864MOL0     H13999   5.758  10.184   9.052 -0.2024 -1.4659 -0.1291
  864MOL0     H14000   5.607  10.190   8.976  1.1379  0.1718  1.7728
  864MOL0     H14001   5.898  10.378   8.996 -2.0599  2.5599  1.8231
  864MOL0     H14002   6.044  10.549   8.845  1.8897  2.4330 -1.0330
  864MOL0     H14003   5.921  10.664   8.783  0.8374 -0.6138  1.9121
  864MOL0     H14004   5.954  10.605   8.557 -0.9923  0.8722  2.6053
  864MOL0     H14005   6.057  10.457   8.603  2.4804 -0.1159  2.1729
  864MOL0     H14006   6.222  10.618   8.708 -0.5003  0.8266  0.4610
  864MOL0     H14007   6.202  10.636   8.535 -1.4807  1.2097 -1.1590
  864MOL0     H14008   6.205  10.853   8.628  1.5404 -0.6122  1.8783
  864MOL0     H14009   6.075  10.806   8.753 -1.2570 -0.3734 -1.1426
  864MOL0     H14010   6.021  11.020   8.753  0.5654 -0.6533 -1.1960
  864MOL0     H14011   5.852  11.223   8.771 -1.0007 -0.2362 -0.3681
  864MOL0     H14012   5.736  11.550   8.661  3.2980  4.3220 -0.0020
  864MOL0     H14013   5.659  11.785   8.667 -0.2288  2.6251 -4.1903
  864MOL0     H14014   5.435  11.925   8.347  3.3801 -2.0416 -0.8885
  864MOL0     H14015   5.557  12.023   8.411 -0.1500  1.5689  2.0730
  864MOL0     H14016   5.371  12.164   8.377  2.1978  0.1991 -0.2804
  864MOL0     H14017   5.395  12.143   8.553  2.6151 -3.1521  1.1707
  864MOL0     H14018   5.209  11.962   8.558  1.6553  0.7656  0.0730
  864MOL0     H14019   5.211  11.950   8.386  0.6872 -1.5169  1.2785
  864MOL0     H14020   5.146  12.210   8.551  1.4895  0.2508 -1.0895
  864MOL0     H14021   5.102  12.189   8.377  2.1468 -1.7361 -1.2082
  864MOL0     H14022   5.001  12.021   8.604 -2.0766 -1.6636 -0.2162
  864MOL0     H14023   4.945  11.995   8.437 -0.3595  1.6280 -1.3587
  864MOL0     H14024   4.775  12.141   8.575 -1.1428  0.9267 -0.8396
  864MOL0     H14025   4.834  12.191   8.416 -0.3583 -0.5839 -0.3856
  864MOL0     H14026   4.953  12.280   8.689 -1.0254  0.9169  0.7806
  864MOL0     H14027   4.988  12.357   8.529  1.8676 -2.0340 -0.5541
  864MOL0     H14028   4.837  12.505   8.652  3.0336  0.1533 -0.5194
  864MOL0     H14029   4.720  12.369   8.669  0.5076 -0.4652  1.2001
  864MOL0     H14030   5.375  11.713   8.365 -0.3144 -0.0628  0.5293
  864MOL0     H14031   5.452  11.470   8.354 -1.1406  0.7983 -0.3720
  864MOL0     H14032   5.671  11.096   8.415  2.6428 -2.1396 -2.7386
  864MOL0     H14033   5.799  10.904   8.409 -0.5110  2.6941 -1.7034
  864MOL0     H14034   5.410   9.510   8.996  2.1255  2.3651 -4.6107
  864MOL0     H14035   5.394   9.279   9.080 -0.5083  0.4937  0.0233
  864MOL0     H14036   5.161   8.869   8.969 -0.8624  0.2447  0.9091
  864MOL0     H14037   5.105   8.654   9.047  0.3970 -0.2115 -1.4612
  864MOL0     H14038   5.250   8.376   9.378  0.9951 -1.8870  0.8292
  864MOL0     H14039   5.354   8.510   9.378 -1.6924 -1.5862  1.9325
  864MOL0     H14040   5.492   8.388   9.185 -2.3840  2.4380  0.3669
  864MOL0     H14041   5.494   8.305   9.334 -1.8516 -3.9880  0.6621
  864MOL0     H14042   5.453   8.122   9.173 -0.5222 -1.0602  0.2102
  864MOL0     H14043   5.313   8.211   9.107  0.4777  1.2159  0.6612
  864MOL0     H14044   5.175   8.184   9.304  0.9653  1.0229  3.3140
  864MOL0     H14045   5.245   8.026   9.251  2.4493 -0.3504 -1.3313
  864MOL0     H14046   5.341   8.030   9.647 -0.5095  0.7232  0.3687
  864MOL0     H14047   5.486   8.629   9.237 -1.9629  0.1462  3.1429
  864MOL0     H14048   5.552   8.837   9.149  0.0858  0.0905 -0.1639
  865MOL0     O14049  10.501   3.120   3.958 -1.0494 -0.2901 -0.8551
  865MOL0     C14050  10.478   3.193   4.054  0.0310 -0.8095 -0.1132
  865MOL0     O14051  10.367   3.183   4.142 -0.2574  0.2493 -0.2156
  865MOL0     C14052  10.277   3.085   4.098  0.5530 -0.2535 -0.2312
  865MOL0     C14053  10.168   3.136   4.045 -0.4975  0.1830 -0.1506
  865MOL0     C14054  10.063   3.055   4.005 -0.1041  0.3566 -0.7325
  865MOL0     C14055  10.085   2.921   4.009 -0.0974  0.9013  0.5519
  865MOL0     O14056   9.986   2.831   3.960 -0.5083 -0.0602 -0.1240
  865MOL0     C14057   9.908   2.859   3.849  0.1873 -0.4092  0.0550
  865MOL0     C14058   9.825   2.732   3.822 -0.3615  0.2206  0.3585
  865MOL0     C14059   9.676   2.761   3.772  0.0281  0.0901 -0.5856
  865MOL0     C14060   9.570   2.774   3.887 -0.5491 -0.1835  0.5314
  865MOL0     C14061   9.455   2.842   3.813 -0.2139 -0.3165  0.4434
  865MOL0     C14062   9.327   2.843   3.888 -0.1533 -0.1117  1.0229
  865MOL0     C14063   9.212   2.894   3.789  1.3133  0.4938 -0.1708
  865MOL0     C14064   9.144   2.789   3.715 -0.5312  0.6902 -0.0067
  865MOL0     N14065   9.047   2.713   3.789 -0.0677  0.7825 -0.3770
  865MOL0     C14066   8.947   2.765   3.861  0.0160  0.1526  0.0723
  865MOL0     C14067   8.899   2.658   3.939 -0.3337 -1.6536 -0.7647
  865MOL0     C14068   8.783   2.633   4.041  0.4306 -0.3198 -0.2515
  865MOL0     C14069   8.767   2.758   4.132  0.0783 -0.0507  0.0822
  865MOL0     C14070   8.684   2.720   4.260 -0.9358  1.2529  0.2905
  865MOL0     C14071   8.549   2.634   4.237 -0.2879 -0.8504  0.0944
  865MOL0     O14072   8.475   2.639   4.361 -0.3246 -0.3807  1.1559
  865MOL0     C14073   8.342   2.633   4.363  0.7973 -0.0618 -0.6498
  865MOL0     C14074   8.281   2.677   4.480 -1.3113 -1.1302 -0.8578
  865MOL0     C14075   8.145   2.680   4.486 -0.0997 -0.7336 -0.3561
  865MOL0     C14076   8.060   2.619   4.398 -0.0104  0.2712 -0.2795
  865MOL0     C14077   7.913   2.626   4.404 -0.7601 -0.2543  0.9494
  865MOL0     O14078   7.873   2.697   4.513  0.5949 -0.4058 -0.0130
  865MOL0     C14079   7.738   2.727   4.537 -0.0653  1.0430 -0.3914
  865MOL0     C14080   7.627   2.717   4.450  0.0743 -0.9578  0.6377
  865MOL0     C14081   7.506   2.774   4.487  0.6037 -0.7745  0.2164
  865MOL0     C14082   7.495   2.826   4.617  0.9162  0.4946 -0.2085
  865MOL0     O14083   7.379   2.885   4.653 -0.5028  0.6629  0.4425
  865MOL0     C14084   7.284   2.787   4.674 -0.5371 -0.6161 -0.0612
  865MOL0     C14085   7.144   2.850   4.670 -0.3873 -0.1841 -0.8071
  865MOL0     C14086   7.036   2.747   4.712  0.1797 -0.0948  0.2353
  865MOL0     C14087   6.888   2.777   4.688  0.3385 -0.7938  0.1186
  865MOL0     C14088   6.791   2.666   4.711 -0.0128 -0.3995  1.1055
  865MOL0     C14089   6.708   2.638   4.580 -0.2099  1.1044 -0.2670
  865MOL0     C14090   6.623   2.508   4.605 -0.6414 -0.3551  0.2219
  865MOL0     C14091   6.526   2.489   4.487 -0.1235  0.0343 -1.0732
  865MOL0    Cl14092   6.413   2.625   4.468  0.4603 -0.2876 -0.4453
  865MOL0     C14093   7.607   2.821   4.707 -0.3785 -0.3266 -0.4349
  865MOL0     C14094   7.729   2.766   4.665 -0.8757 -0.1271  0.4798
  865MOL0     O14095   7.843   2.571   4.318 -0.3367 -0.5418  0.8364
  865MOL0     C14096   8.125   2.565   4.281  1.2569  0.1263  0.4282
  865MOL0     C14097   8.261   2.566   4.267  1.0906 -0.4730  0.7720
  865MOL0     N14098   8.977   2.552   3.901 -0.1909 -0.0350 -0.2529
  865MOL0     N14099   9.063   2.584   3.814  0.8721  0.9026  0.4477
  865MOL0     C14100  10.194   2.864   4.069 -1.0586 -0.0352 -0.2459
  865MOL0     C14101  10.301   2.948   4.096  0.0553  0.2743 -0.5250
  865MOL0     C14102  10.576   3.306   4.083 -0.6946 -0.6849  0.5522
  865MOL0     C14103  10.558   3.418   4.165 -0.7010 -0.2398  0.3387
  865MOL0     C14104  10.660   3.526   4.184 -0.4922 -0.1602 -0.2880
  865MOL0     C14105  10.769   3.513   4.102 -0.1036 -0.0119 -0.3724
  865MOL0     O14106  10.873   3.609   4.110 -0.2284 -0.0610 -0.9497
  865MOL0     C14107  10.850   3.743   4.060  1.1842  0.1668 -0.2529
  865MOL0     C14108  10.880   3.760   3.908  0.2139 -0.1607  0.1811
  865MOL0     C14109  11.042   3.790   3.890 -0.8269 -0.6311 -0.3069
  865MOL0     C14110  11.110   3.652   3.911  0.1322  0.2075 -0.0532
  865MOL0     C14111  11.077   3.543   3.812  0.0938  0.1333  0.2900
  865MOL0     C14112  11.053   3.456   3.736 -0.5749  0.5449 -0.1251
  865MOL0     C14113  10.789   3.405   4.021  0.0715  0.3881  0.3323
  865MOL0     C14114  10.691   3.310   4.006 -0.2439 -0.6259  0.1287
  865MOL0     H14115  10.148   3.242   4.049  3.4182  1.0815 -0.0469
  865MOL0     H14116   9.969   3.102   3.975 -0.6982  0.4906  1.1927
  865MOL0     H14117   9.981   2.885   3.771 -0.4183 -1.0158 -0.7361
  865MOL0     H14118   9.835   2.939   3.857 -0.4869 -0.9980 -0.1687
  865MOL0     H14119   9.822   2.661   3.905 -0.2378  0.1262  0.2822
  865MOL0     H14120   9.878   2.685   3.739 -0.8740  1.0689 -0.4771
  865MOL0     H14121   9.654   2.678   3.705  0.6178 -0.4138 -0.1695
  865MOL0     H14122   9.672   2.851   3.710 -0.9364  0.3544 -0.1615
  865MOL0     H14123   9.542   2.670   3.908 -0.0343 -0.2163  1.0779
  865MOL0     H14124   9.609   2.814   3.981  0.8388 -4.0978  1.8480
  865MOL0     H14125   9.446   2.791   3.717  2.6228 -1.7173  0.7923
  865MOL0     H14126   9.482   2.947   3.797  1.3306 -0.1397  3.4861
  865MOL0     H14127   9.337   2.914   3.971 -0.7831 -0.6139  1.5367
  865MOL0     H14128   9.298   2.756   3.947 -1.2563 -0.6748 -0.2935
  865MOL0     H14129   9.139   2.957   3.840 -0.4681  1.0005 -3.1004
  865MOL0     H14130   9.258   2.962   3.716  0.8280  1.2736  0.2374
  865MOL0     H14131   9.211   2.719   3.663 -0.1465 -0.3655  1.8013
  865MOL0     H14132   9.092   2.842   3.636 -4.0563 -0.4796  1.3329
  865MOL0     H14133   8.898   2.862   3.858 -1.0576 -0.2481  2.5431
  865MOL0     H14134   8.805   2.554   4.113  1.4809  2.7017  3.0036
  865MOL0     H14135   8.688   2.615   3.989 -0.2637  2.0861  0.0520
  865MOL0     H14136   8.709   2.830   4.073 -0.3359  0.8755  1.5557
  865MOL0     H14137   8.863   2.802   4.160  1.2077 -1.5015 -1.3353
  865MOL0     H14138   8.745   2.655   4.323 -1.5659  1.4922  1.1596
  865MOL0     H14139   8.655   2.812   4.310 -1.5711  1.0283  0.3431
  865MOL0     H14140   8.560   2.531   4.203 -2.0056 -1.0788  0.1537
  865MOL0     H14141   8.478   2.682   4.169 -3.4366 -0.0411  3.5814
  865MOL0     H14142   8.338   2.735   4.552 -3.8008  0.4706 -0.0174
  865MOL0     H14143   8.114   2.711   4.586  1.6254  0.3614 -0.1161
  865MOL0     H14144   7.645   2.696   4.345  3.3500 -0.7877  1.0392
  865MOL0     H14145   7.422   2.799   4.423 -0.4157  2.1395  2.4774
  865MOL0     H14146   7.305   2.733   4.768 -0.5057 -2.7796 -1.2470
  865MOL0     H14147   7.288   2.707   4.600  1.6343 -0.7067  0.0936
  865MOL0     H14148   7.121   2.883   4.569 -1.6022  0.2654 -0.4061
  865MOL0     H14149   7.134   2.946   4.723 -3.2611  1.7882 -4.4437
  865MOL0     H14150   7.053   2.719   4.817  1.5537 -2.4248 -0.5417
  865MOL0     H14151   7.044   2.654   4.655 -1.3101 -1.0143  1.4628
  865MOL0     H14152   6.866   2.861   4.756  1.7147 -0.1015 -0.2653
  865MOL0     H14153   6.881   2.809   4.584  0.1058  1.8091  0.8646
  865MOL0     H14154   6.719   2.692   4.789 -2.0572  2.4519 -1.4694
  865MOL0     H14155   6.854   2.583   4.743  1.6877  0.2043 -0.5126
  865MOL0     H14156   6.777   2.632   4.496  0.8418  2.0490  0.5010
  865MOL0     H14157   6.646   2.723   4.549  0.5343  1.5084 -0.6587
  865MOL0     H14158   6.695   2.426   4.604  0.0845  0.1640  3.1108
  865MOL0     H14159   6.573   2.510   4.702 -0.1880 -2.5482  0.5483
  865MOL0     H14160   6.481   2.393   4.515  1.3025 -0.2369  0.4710
  865MOL0     H14161   6.577   2.484   4.391 -2.0047  4.1645 -2.5091
  865MOL0     H14162   7.598   2.853   4.810 -0.9164 -1.1609 -0.2071
  865MOL0     H14163   7.816   2.763   4.730 -0.5637  1.0458  0.1485
  865MOL0     H14164   8.062   2.524   4.203 -1.7793  1.9934  1.6843
  865MOL0     H14165   8.309   2.522   4.180  3.4565  0.0153  1.7415
  865MOL0     H14166  10.200   2.757   4.082 -2.2802 -0.3395 -1.9364
  865MOL0     H14167  10.396   2.904   4.123  0.7931  1.2817 -1.3614
  865MOL0     H14168  10.470   3.422   4.228 -0.0858 -0.4048  1.2388
  865MOL0     H14169  10.656   3.609   4.254  0.7531  0.4185 -0.8570
  865MOL0     H14170  10.916   3.803   4.123  1.4910 -0.8433  0.4071
  865MOL0     H14171  10.743   3.762   4.076  1.4433  0.8985  0.6679
  865MOL0     H14172  10.833   3.677   3.855 -1.2245 -1.4371  3.2280
  865MOL0     H14173  10.819   3.847   3.885  0.6816  1.2640  3.6992
  865MOL0     H14174  11.078   3.871   3.954  2.0576 -0.4806 -1.9376
  865MOL0     H14175  11.049   3.811   3.782 -0.2871 -1.9876 -0.5581
  865MOL0     H14176  11.218   3.658   3.901  0.5037 -3.9820 -0.3114
  865MOL0     H14177  11.088   3.613   4.011 -1.8386 -0.2409 -0.5999
  865MOL0     H14178  11.055   3.381   3.659  3.1931 -1.6407  1.8087
  865MOL0     H14179  10.871   3.394   3.951 -0.9430  1.5553 -1.1064
  865MOL0     H14180  10.712   3.233   3.933 -0.5853  0.6722 -1.3868
  866MOL0     O14181   0.677   3.350   5.236  0.0039  1.2709 -1.0172
  866MOL0     C14182   0.591   3.273   5.196  1.2835 -0.2367  0.2763
  866MOL0     O14183   0.583   3.222   5.065 -0.8945 -0.3717 -0.2321
  866MOL0     C14184   0.681   3.268   4.987 -0.5575 -0.1929  0.1123
  866MOL0     C14185   0.652   3.380   4.912 -0.8252 -0.0655 -0.4318
  866MOL0     C14186   0.746   3.420   4.818  0.2238 -0.2808 -0.5985
  866MOL0     C14187   0.875   3.362   4.804  0.1521  0.0322 -0.3777
  866MOL0     O14188   0.964   3.417   4.721 -0.4977 -0.3946 -0.3697
  866MOL0     C14189   1.087   3.357   4.687 -0.4822  0.3720  0.9052
  866MOL0     C14190   1.169   3.453   4.600 -0.0163  0.9614 -1.2913
  866MOL0     C14191   1.301   3.399   4.534  0.2668  0.2601  0.3596
  866MOL0     C14192   1.370   3.483   4.426  0.3920  0.3458  0.9659
  866MOL0     C14193   1.288   3.477   4.290  0.2423  0.2078  0.6245
  866MOL0     C14194   1.340   3.583   4.191 -0.2953  0.3519 -0.1847
  866MOL0     C14195   1.275   3.580   4.056  0.7357 -0.4535  0.3700
  866MOL0     C14196   1.124   3.587   4.045  0.4821  0.9638 -0.0713
  866MOL0     N14197   1.081   3.603   3.906  0.1163 -0.5145 -0.3444
  866MOL0     C14198   1.093   3.718   3.825  0.2248  0.2349 -0.4727
  866MOL0     C14199   1.035   3.686   3.708 -0.0451 -0.9277 -0.3746
  866MOL0     C14200   1.047   3.773   3.585 -0.4605 -0.3839  0.3970
  866MOL0     C14201   1.163   3.728   3.503  0.0705 -0.2674 -0.1217
  866MOL0     C14202   1.177   3.819   3.374 -0.9311  0.6539  0.4588
  866MOL0     C14203   1.319   3.844   3.327 -0.8152 -0.4526 -0.8155
  866MOL0     O14204   1.381   3.725   3.283 -0.5752 -0.1921 -0.5608
  866MOL0     C14205   1.435   3.707   3.155  0.5468 -0.8708 -0.7523
  866MOL0     C14206   1.442   3.571   3.115  0.0556  0.7903  0.0253
  866MOL0     C14207   1.478   3.533   2.989 -0.9666 -0.9380  0.3857
  866MOL0     C14208   1.538   3.634   2.908 -1.3329 -0.0551  0.4257
  866MOL0     C14209   1.606   3.599   2.784  0.3320  0.7090 -0.1972
  866MOL0     O14210   1.639   3.692   2.691  0.0080  0.6809  0.1881
  866MOL0     C14211   1.728   3.680   2.589  0.5512  0.0363 -0.0896
  866MOL0     C14212   1.698   3.745   2.469 -0.2873 -0.1909  0.1046
  866MOL0     C14213   1.802   3.748   2.367 -0.6295  0.4068  0.2031
  866MOL0     C14214   1.918   3.664   2.380 -0.6264  0.9417 -0.3388
  866MOL0     O14215   2.027   3.683   2.295 -0.3337  0.3041  0.0933
  866MOL0     C14216   2.044   3.812   2.234 -0.4562  0.7589  0.3518
  866MOL0     C14217   2.159   3.809   2.131  0.5373 -0.9801 -0.0065
  866MOL0     C14218   2.129   3.741   2.001  0.5976  1.2373 -0.5850
  866MOL0     C14219   2.072   3.605   2.011  0.8548 -0.1394 -0.2587
  866MOL0     C14220   2.087   3.509   1.897  0.2979  0.6368  0.9752
  866MOL0     C14221   2.036   3.573   1.762 -0.8060  0.2555  0.5255
  866MOL0     C14222   2.070   3.479   1.644 -0.1742  0.2431 -0.3163
  866MOL0     C14223   2.039   3.536   1.505  0.4309 -0.1758  0.6611
  866MOL0    Cl14224   2.088   3.434   1.366  0.5075  0.1225 -0.4755
  866MOL0     C14225   1.938   3.591   2.495  0.5797  0.3703 -0.2487
  866MOL0     C14226   1.844   3.600   2.593 -0.4173  0.1039  0.0685
  866MOL0     O14227   1.639   3.482   2.785  0.2182 -0.5263 -0.1431
  866MOL0     C14228   1.530   3.771   2.950  0.4589  0.0607 -0.4392
  866MOL0     C14229   1.482   3.808   3.073  0.3464  0.1900  1.3033
  866MOL0     N14230   0.994   3.552   3.725 -0.3894 -0.7310  0.6105
  866MOL0     N14231   1.016   3.501   3.841 -0.6624 -0.3485 -0.4377
  866MOL0     C14232   0.910   3.255   4.889  0.1826  0.1129  0.3950
  866MOL0     C14233   0.813   3.214   4.976  0.0868  0.8041  0.6161
  866MOL0     C14234   0.484   3.234   5.288  1.2208 -0.0029 -0.6246
  866MOL0     C14235   0.367   3.177   5.238 -0.0810  1.1481  0.1649
  866MOL0     C14236   0.262   3.146   5.320 -0.3084  0.1165 -0.2271
  866MOL0     C14237   0.266   3.164   5.459  0.4848 -0.5701  0.2001
  866MOL0     O14238   0.156   3.141   5.536  0.0584 -0.5124 -0.7315
  866MOL0     C14239   0.177   3.116   5.679  0.7654  0.3039  1.2086
  866MOL0     C14240   0.041   3.108   5.749 -0.1676 -0.8997 -0.8483
  866MOL0     C14241  -0.001   2.963   5.764  0.3319  0.7666 -0.1074
  866MOL0     C14242  -0.138   2.929   5.808  0.9138 -0.2683  0.1827
  866MOL0     C14243  -0.207   3.005   5.911 -0.7135  0.1043 -0.9020
  866MOL0     C14244  -0.267   3.034   6.009 -0.0607 -0.3991 -0.0830
  866MOL0     C14245   0.385   3.225   5.507  0.1471 -0.3733  0.8596
  866MOL0     C14246   0.493   3.245   5.425  0.0790  0.1496  0.3929
  866MOL0     H14247   0.555   3.429   4.910  0.3575  2.9208  3.6871
  866MOL0     H14248   0.721   3.506   4.756  1.7018  0.6831  0.0854
  866MOL0     H14249   1.061   3.272   4.623  0.3409  0.5966  0.2606
  866MOL0     H14250   1.140   3.342   4.782  2.6815 -3.2721 -1.1162
  866MOL0     H14251   1.192   3.536   4.668  0.6116 -1.1415  1.2049
  866MOL0     H14252   1.101   3.485   4.520 -0.7167  2.2498 -0.2223
  866MOL0     H14253   1.269   3.301   4.497 -0.2524 -0.9417  3.6481
  866MOL0     H14254   1.362   3.388   4.625  0.6936  2.2311  0.3481
  866MOL0     H14255   1.361   3.588   4.457 -1.4766  1.6213 -3.2091
  866MOL0     H14256   1.472   3.451   4.405  1.1252  1.3890  2.6657
  866MOL0     H14257   1.184   3.503   4.312 -0.2011  1.9907 -2.8629
  866MOL0     H14258   1.282   3.373   4.254  1.3759  0.0624  0.8289
  866MOL0     H14259   1.448   3.571   4.177 -0.4952 -0.9265 -0.8201
  866MOL0     H14260   1.315   3.679   4.237  0.7042  1.2494 -1.4364
  866MOL0     H14261   1.307   3.674   4.010 -2.2039  0.6992  0.4685
  866MOL0     H14262   1.314   3.497   3.996 -2.4230 -0.8987 -1.2784
  866MOL0     H14263   1.086   3.669   4.107 -0.0912  1.4451 -1.0225
  866MOL0     H14264   1.073   3.506   4.098 -2.6878  3.9744  1.9087
  866MOL0     H14265   1.146   3.808   3.855 -0.9765 -0.1188  3.2733
  866MOL0     H14266   1.071   3.872   3.626 -0.2854 -0.8439  1.4564
  866MOL0     H14267   0.958   3.780   3.522  1.6945  0.8503 -2.7351
  866MOL0     H14268   1.143   3.624   3.475 -0.0167 -0.6599  1.3553
  866MOL0     H14269   1.259   3.726   3.554  0.0849  1.0702 -0.0730
  866MOL0     H14270   1.112   3.773   3.299  2.2487 -1.2104 -1.3841
  866MOL0     H14271   1.135   3.915   3.408 -2.7490 -0.2994  1.0391
  866MOL0     H14272   1.389   3.889   3.399  0.4404 -2.0710 -0.9533
  866MOL0     H14273   1.300   3.916   3.248  0.0086 -0.4098 -0.9869
  866MOL0     H14274   1.415   3.491   3.182  0.0857  0.6371 -0.1462
  866MOL0     H14275   1.464   3.432   2.952 -0.2193 -0.3092 -1.8302
  866MOL0     H14276   1.599   3.790   2.469 -0.6823 -0.9214  2.3413
  866MOL0     H14277   1.768   3.791   2.273 -3.7522 -0.4465  0.8169
  866MOL0     H14278   2.072   3.888   2.307  0.5030  2.2289 -1.4470
  866MOL0     H14279   1.956   3.852   2.182 -0.9856  2.7042  2.5727
  866MOL0     H14280   2.240   3.754   2.180  1.1106 -0.7509 -0.6719
  866MOL0     H14281   2.188   3.912   2.111 -0.3473 -0.8277 -0.5115
  866MOL0     H14282   2.224   3.729   1.948  0.7773  0.1045 -0.0324
  866MOL0     H14283   2.054   3.799   1.947  0.3249 -0.7220 -2.4378
  866MOL0     H14284   2.127   3.551   2.089  2.2696 -1.6653 -2.2062
  866MOL0     H14285   1.967   3.616   2.041  1.8136  3.4316  2.4848
  866MOL0     H14286   2.030   3.418   1.920 -0.8382 -0.4897 -4.8263
  866MOL0     H14287   2.195   3.493   1.886  0.3603  1.2437  0.6809
  866MOL0     H14288   2.080   3.670   1.741  0.5461 -0.8900 -2.5085
  866MOL0     H14289   1.927   3.579   1.758 -0.8470 -0.7522 -0.5545
  866MOL0     H14290   2.178   3.462   1.648 -0.0914  0.9053  0.9467
  866MOL0     H14291   2.020   3.384   1.661 -1.8165  1.4276  2.0491
  866MOL0     H14292   2.088   3.634   1.501 -1.4577  0.7638 -1.1093
  866MOL0     H14293   1.933   3.561   1.510  1.2334  3.9286  0.6587
  866MOL0     H14294   2.028   3.531   2.501  0.0355 -0.5024 -0.4813
  866MOL0     H14295   1.858   3.546   2.686 -1.9899 -0.9820 -0.2889
  866MOL0     H14296   1.565   3.854   2.890 -1.0280  1.1920  0.1893
  866MOL0     H14297   1.495   3.913   3.096 -0.0392  0.7436 -0.8116
  866MOL0     H14298   1.011   3.213   4.885  1.0929  2.2292 -0.3329
  866MOL0     H14299   0.825   3.126   5.037 -4.1507 -1.3300 -1.2257
  866MOL0     H14300   0.354   3.161   5.132  3.1627 -2.1257  0.0392
  866MOL0     H14301   0.174   3.100   5.275 -1.3953  0.5244  1.4058
  866MOL0     H14302   0.239   3.195   5.723  0.7258  0.3180  1.2387
  866MOL0     H14303   0.233   3.022   5.685 -1.3441 -0.9404  3.5785
  866MOL0     H14304   0.043   3.141   5.854 -3.8891  0.8429 -1.1609
  866MOL0     H14305  -0.031   3.173   5.700  0.4370 -0.2223 -0.8609
  866MOL0     H14306   0.074   2.917   5.828  1.7655  1.9784 -0.8807
  866MOL0     H14307   0.005   2.917   5.664 -2.8217 -1.8778  0.7250
  866MOL0     H14308  -0.200   2.931   5.718  0.6081  1.6600  0.3855
  866MOL0     H14309  -0.139   2.826   5.844 -1.8182 -0.2651  0.3020
  866MOL0     H14310  -0.331   3.044   6.095 -4.1970 -1.5160 -2.7390
  866MOL0     H14311   0.416   3.263   5.604  0.1731  1.3212  0.2162
  866MOL0     H14312   0.580   3.288   5.473 -0.9068 -1.5677  4.0439
  867MOL0     O14313   3.698   5.070   2.047 -0.5116  1.1809 -0.6817
  867MOL0     C14314   3.688   5.006   2.153 -0.0456 -0.1075  0.8342
  867MOL0     O14315   3.716   5.064   2.277 -0.0409  0.5560  0.2198
  867MOL0     C14316   3.704   5.198   2.295 -0.8390  1.0658  1.4080
  867MOL0     C14317   3.580   5.261   2.255 -0.2917  0.1995  1.0606
  867MOL0     C14318   3.550   5.387   2.303 -0.1452  1.2752  0.2331
  867MOL0     C14319   3.639   5.462   2.384  1.2035  0.7361  0.5372
  867MOL0     O14320   3.629   5.596   2.417 -0.1875  0.2195 -0.1767
  867MOL0     C14321   3.514   5.674   2.378 -0.4178  0.5200  0.2705
  867MOL0     C14322   3.506   5.802   2.451 -0.1762 -0.0618  0.1392
  867MOL0     C14323   3.525   5.769   2.605  0.9746  0.0133  0.9038
  867MOL0     C14324   3.529   5.899   2.681 -0.0793 -0.3249 -0.9558
  867MOL0     C14325   3.499   5.883   2.834  0.0857  0.0499 -0.6163
  867MOL0     C14326   3.497   6.008   2.930  0.1831  0.5510  0.6834
  867MOL0     C14327   3.490   5.964   3.078  0.0753 -0.2410  0.8013
  867MOL0     C14328   3.541   6.076   3.168  0.0865 -0.1791  0.3918
  867MOL0     N14329   3.559   6.040   3.314 -0.5053 -0.5039  0.3457
  867MOL0     C14330   3.479   6.068   3.419  0.0210 -0.3342  0.0816
  867MOL0     C14331   3.556   6.040   3.533  0.1864 -0.0986 -0.9917
  867MOL0     C14332   3.499   6.045   3.672 -0.3098  0.0106 -0.1874
  867MOL0     C14333   3.560   5.936   3.759 -0.2644  0.1683 -0.2153
  867MOL0     C14334   3.482   5.935   3.887  0.7211  0.2146 -0.8325
  867MOL0     C14335   3.511   5.817   3.994 -0.6453 -0.3909  0.8933
  867MOL0     O14336   3.441   5.863   4.110 -0.6162 -0.1303  0.0196
  867MOL0     C14337   3.510   5.939   4.203 -0.7010 -0.5792  0.3974
  867MOL0     C14338   3.445   5.976   4.318  1.3694  0.2659  0.4346
  867MOL0     C14339   3.494   6.059   4.420 -0.0945 -0.2484  0.3412
  867MOL0     C14340   3.629   6.088   4.407 -0.0126 -0.9690  0.5121
  867MOL0     C14341   3.705   6.172   4.504 -0.0548  0.6137 -0.4721
  867MOL0     O14342   3.798   6.265   4.475 -1.0806 -0.2659  1.0581
  867MOL0     C14343   3.789   6.326   4.352 -0.3394  0.4940 -0.1806
  867MOL0     C14344   3.916   6.359   4.296 -0.1815  0.9122  1.1037
  867MOL0     C14345   3.929   6.413   4.172 -0.9108  0.4447 -0.5487
  867MOL0     C14346   3.817   6.444   4.092 -0.3242  1.1423  0.3559
  867MOL0     O14347   3.816   6.487   3.962 -0.3170 -0.0118  0.0241
  867MOL0     C14348   3.885   6.408   3.871  0.6662 -0.8067 -0.5233
  867MOL0     C14349   3.792   6.331   3.779 -0.2977 -0.1970  0.5701
  867MOL0     C14350   3.867   6.219   3.702 -0.1231 -0.3954  0.3066
  867MOL0     C14351   3.971   6.278   3.606  0.2184 -0.4431  0.5794
  867MOL0     C14352   4.069   6.162   3.566  0.2661  0.5395 -0.3409
  867MOL0     C14353   4.158   6.199   3.447  0.4572  0.2677  0.8830
  867MOL0     C14354   4.077   6.194   3.313  0.3683 -0.2161 -0.0560
  867MOL0     C14355   4.150   6.218   3.177 -0.2663 -0.7698  0.1839
  867MOL0    Cl14356   4.256   6.366   3.204 -0.8627 -0.9436  0.0245
  867MOL0     C14357   3.688   6.433   4.159 -0.1003 -0.0076 -0.3508
  867MOL0     C14358   3.675   6.377   4.290  0.1021 -1.5380  0.1288
  867MOL0     O14359   3.666   6.154   4.617  0.8054 -0.2483 -1.1738
  867MOL0     C14360   3.705   6.059   4.294 -0.0572 -0.9689  0.2722
  867MOL0     C14361   3.644   5.994   4.189 -1.2199 -0.0604 -0.8207
  867MOL0     N14362   3.681   6.002   3.489  0.3486 -0.6852 -0.4910
  867MOL0     N14363   3.683   6.004   3.363  0.7170  1.2383  0.5072
  867MOL0     C14364   3.754   5.393   2.428  0.4520  0.4563  0.1650
  867MOL0     C14365   3.782   5.258   2.392  0.1631 -0.3256 -1.0708
  867MOL0     C14366   3.615   4.878   2.153  0.2488  0.6195 -0.9307
  867MOL0     C14367   3.592   4.812   2.033 -0.7003  0.6598  0.9259
  867MOL0     C14368   3.532   4.697   2.023  0.1934  0.3228  0.2396
  867MOL0     C14369   3.477   4.638   2.134 -0.4016  0.1039  0.1605
  867MOL0     O14370   3.396   4.541   2.100  0.6261  0.5357 -0.0133
  867MOL0     C14371   3.322   4.496   2.211 -0.5070  0.7918 -1.6777
  867MOL0     C14372   3.205   4.397   2.184 -0.0214 -0.0470 -0.1766
  867MOL0     C14373   3.148   4.318   2.294 -0.1974  0.6380  0.5328
  867MOL0     C14374   3.010   4.252   2.255 -0.5132  0.2072  0.2784
  867MOL0     C14375   2.902   4.346   2.257  0.5271  0.7804  0.8125
  867MOL0     C14376   2.823   4.432   2.263  0.1036 -1.0646  0.6214
  867MOL0     C14377   3.503   4.695   2.266 -0.5286  0.0253  0.5964
  867MOL0     C14378   3.576   4.816   2.264 -0.0974 -0.1875 -1.5043
  867MOL0     H14379   3.512   5.210   2.187  2.2785 -2.8119  0.5672
  867MOL0     H14380   3.458   5.440   2.281 -0.5840  0.0863 -0.8888
  867MOL0     H14381   3.426   5.610   2.388 -1.1347  0.9973 -2.1132
  867MOL0     H14382   3.532   5.692   2.271  3.9629 -1.1569  0.5169
  867MOL0     H14383   3.418   5.858   2.418  2.0292  1.9089 -2.9504
  867MOL0     H14384   3.590   5.868   2.428  0.3449 -0.2524  1.3757
  867MOL0     H14385   3.608   5.700   2.618  0.8809 -0.2892 -0.0450
  867MOL0     H14386   3.433   5.716   2.632  1.0008  0.8666  2.8869
  867MOL0     H14387   3.629   5.942   2.672  1.1256 -2.7491  0.0091
  867MOL0     H14388   3.467   5.973   2.630  1.5999  0.4470 -1.9563
  867MOL0     H14389   3.573   5.807   2.861  2.1619  2.3183  0.4961
  867MOL0     H14390   3.402   5.832   2.842  0.9157 -1.3034  3.2092
  867MOL0     H14391   3.410   6.071   2.908  1.1847  1.4158 -1.0191
  867MOL0     H14392   3.583   6.069   2.901 -1.7224  2.6170 -0.9839
  867MOL0     H14393   3.387   5.950   3.112 -0.3965 -0.9273 -0.8117
  867MOL0     H14394   3.534   5.865   3.090  0.1276 -0.5809 -1.6954
  867MOL0     H14395   3.459   6.148   3.159 -1.6851 -2.1423 -0.1308
  867MOL0     H14396   3.631   6.131   3.140 -2.5643  4.5675  0.0914
  867MOL0     H14397   3.385   6.121   3.406 -0.3403 -0.3977  2.0828
  867MOL0     H14398   3.393   6.020   3.663 -1.1502  2.1480  2.4866
  867MOL0     H14399   3.510   6.148   3.705 -0.4399 -0.0339 -0.0053
  867MOL0     H14400   3.667   5.944   3.778 -0.1827 -0.0244 -0.5952
  867MOL0     H14401   3.558   5.839   3.710 -1.5972 -0.9482  1.8978
  867MOL0     H14402   3.496   6.030   3.940 -2.1456  0.0699  0.4015
  867MOL0     H14403   3.377   5.937   3.857  0.9048  2.4479 -1.5599
  867MOL0     H14404   3.618   5.804   4.011 -0.5347  2.1270  2.7435
  867MOL0     H14405   3.463   5.727   3.954  0.6852 -0.7738  0.1037
  867MOL0     H14406   3.342   5.942   4.325  0.9791  1.6592  2.4707
  867MOL0     H14407   3.428   6.082   4.503 -0.8956  0.5538 -0.5000
  867MOL0     H14408   4.009   6.338   4.349 -0.6382 -1.1904  1.1602
  867MOL0     H14409   4.028   6.446   4.143  0.3503 -1.4968  1.2972
  867MOL0     H14410   3.948   6.337   3.924  0.3618 -0.9522 -0.3556
  867MOL0     H14411   3.945   6.475   3.808  3.6701  0.5852  3.4016
  867MOL0     H14412   3.754   6.408   3.712  0.2089  1.5593  2.2043
  867MOL0     H14413   3.711   6.286   3.837  0.1165  0.0450  1.3593
  867MOL0     H14414   3.795   6.170   3.635 -1.0157  0.8153  0.3394
  867MOL0     H14415   3.912   6.155   3.778  1.0084  0.8246  0.7098
  867MOL0     H14416   3.926   6.321   3.516 -0.0981 -1.0397  0.4460
  867MOL0     H14417   4.035   6.349   3.659  0.2047 -0.8466  1.1601
  867MOL0     H14418   4.016   6.067   3.554  1.3486 -0.6767  3.2963
  867MOL0     H14419   4.128   6.149   3.657 -0.6405  3.0121  0.6727
  867MOL0     H14420   4.241   6.128   3.437 -1.4803 -1.8377 -1.9256
  867MOL0     H14421   4.205   6.297   3.456  1.5989  0.0774 -1.8622
  867MOL0     H14422   4.039   6.092   3.317 -1.0977  0.2680 -0.8638
  867MOL0     H14423   3.994   6.266   3.316  0.5885  0.0825  3.5095
  867MOL0     H14424   4.089   6.220   3.086  2.0004 -1.4152 -1.4304
  867MOL0     H14425   4.223   6.146   3.142 -1.7385 -0.8979 -2.9701
  867MOL0     H14426   3.597   6.457   4.104 -0.7421  0.8282  1.0330
  867MOL0     H14427   3.580   6.378   4.342  0.5923 -1.3763  1.0315
  867MOL0     H14428   3.812   6.076   4.297 -0.3721  1.4825 -0.2277
  867MOL0     H14429   3.702   5.974   4.100 -1.4327 -0.2068 -0.9283
  867MOL0     H14430   3.825   5.438   2.496  0.1896 -1.9327  2.1914
  867MOL0     H14431   3.873   5.201   2.412  0.6276  1.4261  2.4410
  867MOL0     H14432   3.623   4.853   1.938  0.1962 -1.1073  0.4229
  867MOL0     H14433   3.516   4.649   1.927  1.7110 -1.4732  0.8461
  867MOL0     H14434   3.282   4.582   2.264  2.7801  1.9202 -0.7554
  867MOL0     H14435   3.388   4.440   2.279 -1.4659  1.4694 -0.1264
  867MOL0     H14436   3.130   4.449   2.124  1.3225  0.8318 -1.1456
  867MOL0     H14437   3.261   4.326   2.122 -0.3556  1.5598 -2.4236
  867MOL0     H14438   3.137   4.387   2.378  1.1363 -0.1446  1.3866
  867MOL0     H14439   3.212   4.233   2.319 -0.6097  1.2323  4.0570
  867MOL0     H14440   3.010   4.211   2.154 -1.6396  2.1836 -0.5943
  867MOL0     H14441   2.993   4.171   2.327  0.6112 -1.0048 -0.7696
  867MOL0     H14442   2.749   4.509   2.271  2.1633  1.3614 -1.4766
  867MOL0     H14443   3.475   4.645   2.358 -3.7265 -0.9197 -0.7246
  867MOL0     H14444   3.609   4.855   2.360  1.2716 -0.9808 -1.6275
  868MOL0     O14445   7.424   3.202   5.798  0.2513 -0.3885  0.5089
  868MOL0     C14446   7.382   3.124   5.711  0.0096  0.1012 -0.2811
  868MOL0     O14447   7.269   3.047   5.726  0.0217  1.4345 -0.1673
  868MOL0     C14448   7.196   3.055   5.843  0.0262 -0.1907 -0.6107
  868MOL0     C14449   7.148   3.175   5.891  0.0128 -0.7826 -0.1282
  868MOL0     C14450   7.101   3.192   6.016  0.5049  0.8944  0.4951
  868MOL0     C14451   7.070   3.077   6.091 -1.1376 -0.3566 -0.2607
  868MOL0     O14452   6.986   3.088   6.196 -0.7589 -0.4815 -0.5833
  868MOL0     C14453   6.970   3.209   6.263  0.0892  0.4865 -0.0258
  868MOL0     C14454   6.909   3.184   6.396  0.4339 -0.0712 -0.5908
  868MOL0     C14455   6.766   3.133   6.394  0.0220 -0.2625 -0.6232
  868MOL0     C14456   6.720   3.122   6.546 -1.1787 -0.7564 -0.0298
  868MOL0     C14457   6.575   3.068   6.560  0.5244 -0.0456  0.4104
  868MOL0     C14458   6.568   2.989   6.683 -0.3087 -0.7096 -0.7516
  868MOL0     C14459   6.425   2.951   6.721  0.5600  0.6335 -0.0288
  868MOL0     C14460   6.431   2.879   6.851 -0.1118  0.0352  0.7164
  868MOL0     N14461   6.502   2.746   6.821 -0.1089  0.1929 -0.4116
  868MOL0     C14462   6.446   2.637   6.754  0.0497  0.2871  0.9633
  868MOL0     C14463   6.545   2.542   6.770  0.1876 -0.0615 -1.0330
  868MOL0     C14464   6.536   2.398   6.716  0.6653  1.0611 -0.3042
  868MOL0     C14465   6.587   2.293   6.817  0.0215 -0.1261  0.0204
  868MOL0     C14466   6.520   2.162   6.788  0.8375  0.5157  0.1685
  868MOL0     C14467   6.412   2.133   6.879  0.0068 -0.1667 -0.0830
  868MOL0     O14468   6.325   2.026   6.829 -0.5416 -0.4872  0.3420
  868MOL0     C14469   6.372   1.897   6.841  0.1075 -0.2537  0.8346
  868MOL0     C14470   6.362   1.803   6.740 -0.1915 -0.3073 -0.6667
  868MOL0     C14471   6.409   1.674   6.750  0.1188  0.2777  0.9382
  868MOL0     C14472   6.479   1.635   6.860  0.1187 -1.4340 -0.4400
  868MOL0     C14473   6.548   1.504   6.870  1.3203 -0.0057 -0.4413
  868MOL0     O14474   6.528   1.420   6.763 -0.1421 -0.7851 -0.2986
  868MOL0     C14475   6.529   1.280   6.765  0.1123 -0.5116  0.0115
  868MOL0     C14476   6.523   1.195   6.878 -1.0468 -0.2932  1.0661
  868MOL0     C14477   6.550   1.058   6.874  1.0298  0.0670  0.1318
  868MOL0     C14478   6.583   1.006   6.744  0.1485 -0.8511  0.4797
  868MOL0     O14479   6.608   0.874   6.749 -0.3568 -0.4646  0.4331
  868MOL0     C14480   6.597   0.788   6.638  0.2316 -0.3950 -0.5783
  868MOL0     C14481   6.699   0.672   6.649  0.6167  0.5215 -0.3105
  868MOL0     C14482   6.656   0.588   6.768 -0.2279 -0.8663  1.0949
  868MOL0     C14483   6.762   0.476   6.787 -0.0157 -0.6314 -0.1391
  868MOL0     C14484   6.750   0.401   6.920  0.4028  0.1513  0.8088
  868MOL0     C14485   6.863   0.297   6.946 -0.2131 -0.0298 -0.4404
  868MOL0     C14486   6.813   0.218   7.069  0.3827 -0.2514  0.4865
  868MOL0     C14487   6.915   0.113   7.115 -0.6291  0.3598  0.0107
  868MOL0    Cl14488   6.953   0.007   6.976 -0.8538 -0.1253 -0.4057
  868MOL0     C14489   6.575   1.090   6.633  0.4886  0.5572  0.0859
  868MOL0     C14490   6.539   1.223   6.641 -0.0509 -0.4676 -0.3849
  868MOL0     O14491   6.594   1.473   6.975 -0.2181 -0.2791 -0.6791
  868MOL0     C14492   6.487   1.729   6.968 -0.6225  0.3870 -1.1653
  868MOL0     C14493   6.430   1.856   6.956  1.5871 -0.6013  0.0300
  868MOL0     N14494   6.645   2.587   6.853  0.2972  0.0144  0.2121
  868MOL0     N14495   6.629   2.714   6.866  0.2333  0.4271  0.2731
  868MOL0     C14496   7.105   2.951   6.039 -0.2916  0.7805  0.0465
  868MOL0     C14497   7.181   2.936   5.926  0.9827 -1.9564 -0.0362
  868MOL0     C14498   7.464   3.100   5.589 -0.1529  0.1129 -0.3284
  868MOL0     C14499   7.436   3.001   5.493 -0.6578 -0.1862 -0.1346
  868MOL0     C14500   7.514   2.972   5.380 -0.6413 -1.0954  0.3946
  868MOL0     C14501   7.628   3.054   5.367 -1.0842 -1.4515  1.0675
  868MOL0     O14502   7.695   3.041   5.244 -0.4188  0.1747  0.4680
  868MOL0     C14503   7.681   3.155   5.166 -0.8831 -0.4968 -0.7822
  868MOL0     C14504   7.693   3.127   5.025 -0.3784  0.9814  0.0413
  868MOL0     C14505   7.819   3.048   4.987  0.0723  0.4053 -0.5940
  868MOL0     C14506   7.852   3.087   4.846 -1.2055  0.5293  0.3380
  868MOL0     C14507   7.967   3.007   4.801 -0.1820 -0.0381  0.1082
  868MOL0     C14508   8.051   2.944   4.751 -0.6552  0.2678 -0.3666
  868MOL0     C14509   7.675   3.140   5.474  0.0708 -0.7282  0.0478
  868MOL0     C14510   7.585   3.164   5.576 -0.4305  0.3141  0.7421
  868MOL0     H14511   7.149   3.264   5.828  1.2313  1.0459  2.3310
  868MOL0     H14512   7.074   3.291   6.052 -1.6333  0.0932  1.2870
  868MOL0     H14513   6.916   3.285   6.206 -1.0364  1.0637  1.7195
  868MOL0     H14514   7.071   3.241   6.289  0.7980 -1.3588 -0.2996
  868MOL0     H14515   6.905   3.276   6.456 -2.5506  1.1573 -2.4720
  868MOL0     H14516   6.970   3.106   6.443  0.7798 -0.3736 -1.5195
  868MOL0     H14517   6.781   3.032   6.355  0.4087 -0.1742 -0.7005
  868MOL0     H14518   6.691   3.188   6.337 -0.9951 -1.9022 -0.9577
  868MOL0     H14519   6.798   3.056   6.584 -0.0413  0.1920 -0.6374
  868MOL0     H14520   6.733   3.214   6.605  0.7389  0.0037 -1.5071
  868MOL0     H14521   6.548   3.001   6.478  2.7334  0.7799 -1.1070
  868MOL0     H14522   6.506   3.153   6.552  0.0664 -0.5975 -3.9571
  868MOL0     H14523   6.605   3.041   6.772 -2.0093  2.0620 -1.5134
  868MOL0     H14524   6.617   2.896   6.653  0.0812 -0.3636 -1.2083
  868MOL0     H14525   6.366   3.042   6.731 -1.7448 -0.6495 -1.1699
  868MOL0     H14526   6.370   2.880   6.658 -1.4492 -2.4798  4.6145
  868MOL0     H14527   6.329   2.857   6.885  0.9410 -2.1198  2.7750
  868MOL0     H14528   6.492   2.935   6.922 -1.0654  4.0875 -1.3535
  868MOL0     H14529   6.358   2.617   6.694  0.8404 -1.2060  0.2577
  868MOL0     H14530   6.589   2.396   6.621  2.1009  0.8490  0.4691
  868MOL0     H14531   6.428   2.381   6.710  1.0498 -1.8567 -0.6934
  868MOL0     H14532   6.540   2.321   6.911  3.2755 -0.6279  1.9246
  868MOL0     H14533   6.693   2.288   6.843  0.1545 -1.0225 -0.6260
  868MOL0     H14534   6.491   2.163   6.682 -3.1612  0.1433  1.1154
  868MOL0     H14535   6.598   2.085   6.786  2.6309  2.1961 -2.9264
  868MOL0     H14536   6.341   2.217   6.873  1.8517  1.4407 -0.3912
  868MOL0     H14537   6.448   2.113   6.980  1.1259 -2.1247 -0.8290
  868MOL0     H14538   6.321   1.840   6.646  0.1496  1.0795 -0.2909
  868MOL0     H14539   6.397   1.606   6.666 -1.8532 -0.7666  1.9963
  868MOL0     H14540   6.510   1.253   6.969 -1.4713  3.1038 -0.9889
  868MOL0     H14541   6.562   0.993   6.960 -2.3977  0.2962  0.9585
  868MOL0     H14542   6.629   0.850   6.553 -2.4840  2.4699  0.2596
  868MOL0     H14543   6.496   0.752   6.614  0.7731 -1.6512 -1.0564
  868MOL0     H14544   6.800   0.708   6.667  2.7765 -3.5018 -2.9186
  868MOL0     H14545   6.702   0.617   6.554 -0.1303 -4.3119  2.1126
  868MOL0     H14546   6.562   0.541   6.739 -3.5242  5.5004 -0.2645
  868MOL0     H14547   6.633   0.649   6.856  1.2563 -0.0966  0.9888
  868MOL0     H14548   6.750   0.408   6.702  0.5782 -0.1153 -0.6481
  868MOL0     H14549   6.862   0.516   6.768 -1.3955  3.9638  1.0786
  868MOL0     H14550   6.650   0.357   6.919 -0.5153  2.0996 -0.5937
  868MOL0     H14551   6.757   0.472   7.003 -5.8497 -1.5547  3.4123
  868MOL0     H14552   6.962   0.341   6.961  0.4224 -1.8845  1.2037
  868MOL0     H14553   6.855   0.236   6.856  0.4793  2.2693 -2.1654
  868MOL0     H14554   6.799   0.291   7.149  0.3977 -1.8285  1.9866
  868MOL0     H14555   6.719   0.166   7.049 -0.0058  1.2483 -2.0177
  868MOL0     H14556   6.886   0.057   7.205 -1.2004  2.5834  1.2802
  868MOL0     H14557   7.015   0.154   7.131  0.5404 -0.9220 -3.2188
  868MOL0     H14558   6.580   1.057   6.530  0.2824 -1.8245  0.7773
  868MOL0     H14559   6.536   1.283   6.551  1.3841 -0.4304 -0.4273
  868MOL0     H14560   6.530   1.711   7.066 -1.0006  2.4333 -0.5918
  868MOL0     H14561   6.420   1.918   7.044 -3.0391 -2.8920  1.4323
  868MOL0     H14562   7.079   2.861   6.093 -0.3618  1.6061  1.4652
  868MOL0     H14563   7.237   2.845   5.905  1.6203 -2.9492  4.7651
  868MOL0     H14564   7.335   2.963   5.498  0.2393 -2.6187  0.8369
  868MOL0     H14565   7.490   2.907   5.297 -0.2731  0.0446 -0.6293
  868MOL0     H14566   7.754   3.226   5.204  1.2719 -2.4526 -0.9877
  868MOL0     H14567   7.583   3.202   5.168 -0.1934  1.2765 -3.5375
  868MOL0     H14568   7.612   3.055   5.009 -0.5345  1.3288 -0.8351
  868MOL0     H14569   7.673   3.220   4.970 -2.3327  2.8648  3.6031
  868MOL0     H14570   7.789   2.942   4.986 -1.6821  0.8625 -0.6418
  868MOL0     H14571   7.900   3.055   5.059 -0.0303 -0.6431 -0.3661
  868MOL0     H14572   7.764   3.063   4.784  1.4839  1.5238 -4.3853
  868MOL0     H14573   7.877   3.193   4.837 -1.4519  0.5802  0.2207
  868MOL0     H14574   8.126   2.877   4.714 -1.8158 -1.5498  0.4726
  868MOL0     H14575   7.770   3.193   5.468 -1.1315  1.3676 -2.9628
  868MOL0     H14576   7.608   3.232   5.657 -0.0345  3.7504 -2.0532
  869MOL0     O14577   5.151  11.304   8.248 -0.4242 -0.0428 -0.0745
  869MOL0     C14578   5.240  11.295   8.158 -0.0807  0.0590 -0.9244
  869MOL0     O14579   5.280  11.393   8.080 -0.5120  0.2665  0.1222
  869MOL0     C14580   5.214  11.515   8.090 -0.7048 -0.3237  0.0739
  869MOL0     C14581   5.082  11.550   8.133  0.7821 -0.2978  0.5424
  869MOL0     C14582   5.039  11.682   8.136 -0.2530  0.6338 -0.5087
  869MOL0     C14583   5.120  11.778   8.084  0.4690 -0.9674  0.6156
  869MOL0     O14584   5.062  11.896   8.074  0.2172 -0.2343 -0.5247
  869MOL0     C14585   5.078  11.981   7.966 -0.5040 -0.2079 -0.0791
  869MOL0     C14586   4.973  12.095   7.959 -1.0544  1.0540  0.5610
  869MOL0     C14587   4.948  12.177   8.085  0.1686 -0.2897 -0.4980
  869MOL0     C14588   4.859  12.304   8.057  0.6458  0.0118 -0.1424
  869MOL0     C14589   4.713  12.253   8.016  0.1089 -0.2050 -0.6412
  869MOL0     C14590   4.609  12.360   8.056 -0.2759 -0.5739  0.1952
  869MOL0     C14591   4.478  12.348   7.980  0.9267  0.7896 -0.9088
  869MOL0     C14592   4.414  12.483   7.954 -0.3966  0.9247  0.6127
  869MOL0     N14593   4.379  12.542   8.083  0.5359 -0.2309  0.5860
  869MOL0     C14594   4.444  12.648   8.144  0.4012  0.0630  0.0827
  869MOL0     C14595   4.379  12.674   8.257 -0.3804 -0.5552 -0.2616
  869MOL0     C14596   4.402  12.794   8.353  0.4485  0.7056  1.1112
  869MOL0     C14597   4.439  12.751   8.497 -0.9511  0.2843  0.7778
  869MOL0     C14598   4.522  12.847   8.596 -0.7394  0.3732  0.3032
  869MOL0     C14599   4.488  12.998   8.577 -0.4655  1.2852 -0.5925
  869MOL0     O14600   4.504  13.079   8.696  1.2155  0.0960  0.0017
  869MOL0     C14601   4.613  13.048   8.776 -0.3164 -1.2704  0.9546
  869MOL0     C14602   4.595  12.996   8.906 -0.2597 -0.4056 -0.8094
  869MOL0     C14603   4.702  12.959   8.980 -0.0391 -0.3420 -0.4114
  869MOL0     C14604   4.837  12.967   8.925  0.0287  0.5381  0.2658
  869MOL0     C14605   4.951  12.983   9.018  0.1911 -0.0198  0.2118
  869MOL0     O14606   4.921  13.004   9.150  0.2287  0.2039  0.8715
  869MOL0     C14607   5.013  13.018   9.248 -0.2279  0.1009 -0.2716
  869MOL0     C14608   4.952  13.024   9.381  0.5880 -0.7836  0.6147
  869MOL0     C14609   5.039  13.049   9.495  0.0152  0.0820  0.0555
  869MOL0     C14610   5.180  13.073   9.476  0.2203  0.5511  0.3218
  869MOL0     O14611   5.271  13.099   9.578 -1.0241  0.0696  0.3215
  869MOL0     C14612   5.237  13.094   9.713  0.8501 -0.2636 -0.5314
  869MOL0     C14613   5.366  13.096   9.795  0.1925 -0.0806 -0.2094
  869MOL0     C14614   5.454  13.224   9.789  0.3776 -0.0439  0.4769
  869MOL0     C14615   5.358  13.343   9.835  0.3844 -1.0699  0.9924
  869MOL0     C14616   5.447  13.469   9.864  0.1539 -0.5098  0.2047
  869MOL0     C14617   5.375  13.599   9.851  0.2013  0.9710  0.0438
  869MOL0     C14618   5.474  13.716   9.864  0.0559 -0.9505 -0.6718
  869MOL0     C14619   5.401  13.847   9.832 -1.2531  0.4979  0.3847
  869MOL0    Cl14620   5.372  13.863   9.655  0.0400 -0.2150  0.3420
  869MOL0     C14621   5.228  13.060   9.346  0.0901 -0.9380 -0.3396
  869MOL0     C14622   5.143  13.050   9.233 -0.1140  1.0987  0.5973
  869MOL0     O14623   5.067  12.961   8.971  0.7412 -0.5299  0.1303
  869MOL0     C14624   4.854  13.017   8.790 -0.5584 -1.2482 -0.8363
  869MOL0     C14625   4.737  13.060   8.721 -0.0923  0.3597 -1.3645
  869MOL0     N14626   4.268  12.602   8.250 -0.9738  0.0808  0.6775
  869MOL0     N14627   4.266  12.510   8.156 -0.6629  0.2978  0.2332
  869MOL0     C14628   5.251  11.758   8.056  0.7725  0.1254 -0.1926
  869MOL0     C14629   5.296  11.627   8.070  0.9601 -0.2280  0.1499
  869MOL0     C14630   5.317  11.162   8.148 -0.3866 -0.4895 -0.3632
  869MOL0     C14631   5.448  11.162   8.087 -0.1972 -1.3211  0.3388
  869MOL0     C14632   5.525  11.049   8.082 -0.3378  0.8268  0.0326
  869MOL0     C14633   5.472  10.926   8.122 -0.0417  0.4777  0.3177
  869MOL0     O14634   5.543  10.809   8.089 -0.2412 -0.1210  0.4036
  869MOL0     C14635   5.688  10.804   8.117 -0.1845  0.4634  1.4304
  869MOL0     C14636   5.703  10.659   8.147  0.7321  0.3694 -0.0971
  869MOL0     C14637   5.837  10.607   8.163  0.2870 -0.4936  0.1684
  869MOL0     C14638   5.839  10.454   8.165 -0.4772  0.3069  0.6670
  869MOL0     C14639   5.769  10.393   8.277 -0.0732 -0.0709 -0.5150
  869MOL0     C14640   5.719  10.331   8.370 -0.5849 -0.1521  0.2036
  869MOL0     C14641   5.334  10.920   8.161  0.2063  1.0004  0.7314
  869MOL0     C14642   5.262  11.039   8.176 -0.7615  1.1867  0.0619
  869MOL0     H14643   5.012  11.476   8.171  2.3134 -0.2325  3.8323
  869MOL0     H14644   4.939  11.700   8.174  0.7684  0.5576  2.4182
  869MOL0     H14645   5.058  11.919   7.878 -1.3999 -0.9331  0.6188
  869MOL0     H14646   5.180  12.019   7.963 -0.0055 -1.5328 -0.8658
  869MOL0     H14647   4.875  12.051   7.939 -0.3258 -0.7115  0.7311
  869MOL0     H14648   5.000  12.154   7.870  2.0624  0.4000  0.9683
  869MOL0     H14649   5.040  12.210   8.134 -0.0941 -0.8676  0.4052
  869MOL0     H14650   4.903  12.111   8.159 -3.5357 -1.0188 -3.0988
  869MOL0     H14651   4.839  12.358   8.149  0.5573 -2.6860  1.5311
  869MOL0     H14652   4.902  12.380   7.991 -0.6814  1.4235  0.5494
  869MOL0     H14653   4.681  12.154   8.047 -1.6269  0.7159  0.7226
  869MOL0     H14654   4.713  12.261   7.907  0.3463 -0.2010 -0.6411
  869MOL0     H14655   4.659  12.454   8.031 -0.3863  0.0269  2.0636
  869MOL0     H14656   4.579  12.363   8.162 -3.3082 -2.3768 -0.5153
  869MOL0     H14657   4.490  12.290   7.888  0.8717  1.1230 -1.1256
  869MOL0     H14658   4.411  12.286   8.041  0.4716  1.7799 -0.3866
  869MOL0     H14659   4.322  12.461   7.899 -0.6231  1.0917  0.9178
  869MOL0     H14660   4.484  12.535   7.888  0.1042 -3.6359 -2.9296
  869MOL0     H14661   4.541  12.693   8.121 -1.3688  3.3763 -1.6458
  869MOL0     H14662   4.303  12.839   8.361  0.4051  1.2618 -1.5337
  869MOL0     H14663   4.479  12.861   8.312  0.7044 -0.7626 -0.9856
  869MOL0     H14664   4.495  12.657   8.485  1.0848  1.5839 -0.7395
  869MOL0     H14665   4.340  12.731   8.539 -0.8740  0.0139  0.8342
  869MOL0     H14666   4.489  12.808   8.693 -0.3720 -0.6112  0.0405
  869MOL0     H14667   4.629  12.837   8.581 -0.2558  4.0070  0.2811
  869MOL0     H14668   4.385  13.004   8.541 -0.1057 -0.7013 -2.1515
  869MOL0     H14669   4.547  13.031   8.490  1.2272 -0.5442 -0.2147
  869MOL0     H14670   4.497  12.977   8.948  0.6713 -3.0794  0.3557
  869MOL0     H14671   4.679  12.931   9.083 -0.8126  2.0462  0.1370
  869MOL0     H14672   4.845  13.004   9.384  0.3558 -0.5463 -2.5846
  869MOL0     H14673   4.995  13.056   9.593  0.0376 -1.1976  0.1747
  869MOL0     H14674   5.176  13.006   9.739 -1.1177  1.4311  0.8952
  869MOL0     H14675   5.169  13.175   9.740  0.7136  0.2959 -2.4366
  869MOL0     H14676   5.434  13.015   9.766 -1.1342  0.0894 -4.5113
  869MOL0     H14677   5.355  13.089   9.903  3.8885  0.0625  0.2859
  869MOL0     H14678   5.485  13.238   9.685 -2.0844 -2.0000 -0.6404
  869MOL0     H14679   5.550  13.216   9.840  1.3960 -1.0218 -1.4500
  869MOL0     H14680   5.292  13.373   9.753 -0.2009  2.6883  2.6503
  869MOL0     H14681   5.289  13.313   9.915 -0.5057 -0.9824  0.2742
  869MOL0     H14682   5.529  13.469   9.791  0.0899  0.9828  0.0996
  869MOL0     H14683   5.488  13.457   9.965 -1.1154  0.1747  0.8285
  869MOL0     H14684   5.302  13.606   9.932  1.2088  0.5034  1.0038
  869MOL0     H14685   5.322  13.596   9.755 -0.5662 -0.4374  0.4728
  869MOL0     H14686   5.513  13.725   9.966  2.7942 -2.9911 -1.4135
  869MOL0     H14687   5.571  13.706   9.813  0.6093 -2.0982  0.5308
  869MOL0     H14688   5.464  13.935   9.849 -1.2646  1.1448 -2.4795
  869MOL0     H14689   5.308  13.864   9.886 -1.8679 -0.8114 -0.2225
  869MOL0     H14690   5.333  13.082   9.327 -0.9355  2.9183 -2.7201
  869MOL0     H14691   5.177  13.063   9.130 -1.4854  1.1492  0.1363
  869MOL0     H14692   4.950  13.019   8.740 -1.0709 -2.1544 -1.8957
  869MOL0     H14693   4.744  13.098   8.620 -3.0428 -1.1870 -2.2411
  869MOL0     H14694   5.313  11.846   8.044 -1.5608  2.6143  3.8451
  869MOL0     H14695   5.399  11.596   8.083  1.4640 -0.2785 -3.1872
  869MOL0     H14696   5.483  11.258   8.049 -0.0095 -1.6630 -0.3652
  869MOL0     H14697   5.625  11.057   8.039  0.4205  2.9178  1.9233
  869MOL0     H14698   5.717  10.866   8.203  1.0747  0.0589  1.3108
  869MOL0     H14699   5.735  10.841   8.026  1.4873 -3.9553  0.2492
  869MOL0     H14700   5.647  10.638   8.238 -0.0932  0.6563 -0.5241
  869MOL0     H14701   5.657  10.600   8.067  1.1860 -1.1508  0.7117
  869MOL0     H14702   5.890  10.638   8.254  0.3845 -2.0255  0.6616
  869MOL0     H14703   5.897  10.638   8.076  0.5113  0.4625  0.6557
  869MOL0     H14704   5.799  10.407   8.074  0.3655 -0.7715  0.8413
  869MOL0     H14705   5.944  10.423   8.169 -0.3749 -0.5961 -3.7296
  869MOL0     H14706   5.678  10.282   8.456 -0.1205 -0.2629  0.3646
  869MOL0     H14707   5.292  10.821   8.176 -0.2868  1.5169  3.1258
  869MOL0     H14708   5.159  11.043   8.210 -0.8256  2.4000 -0.2393
  870MOL0     O14709   7.228   1.451   4.957 -1.1244 -0.0422 -0.4158
  870MOL0     C14710   7.138   1.401   4.886  0.9913  0.4551  0.4151
  870MOL0     O14711   7.146   1.273   4.834 -0.3528  0.2154  0.2622
  870MOL0     C14712   7.242   1.194   4.877  0.7805 -0.4761  1.1910
  870MOL0     C14713   7.261   1.160   5.007  1.0978  0.9636 -0.0454
  870MOL0     C14714   7.375   1.084   5.057 -0.6641 -0.3991  0.9665
  870MOL0     C14715   7.451   1.017   4.963 -1.2362  0.2157  0.1319
  870MOL0     O14716   7.561   0.938   5.007 -0.3741 -0.0361 -0.0437
  870MOL0     C14717   7.638   0.862   4.909  0.1639  0.1135 -0.2484
  870MOL0     C14718   7.661   0.729   4.967 -0.2167  0.7937  0.0220
  870MOL0     C14719   7.632   0.624   4.861 -0.4611  1.4813 -0.7799
  870MOL0     C14720   7.716   0.643   4.736 -0.7460 -0.2298  0.7573
  870MOL0     C14721   7.677   0.551   4.620 -0.2233 -0.5506  0.3094
  870MOL0     C14722   7.529   0.563   4.574 -0.0999  0.2192 -0.0649
  870MOL0     C14723   7.513   0.491   4.437 -0.3540 -0.4290 -0.7515
  870MOL0     C14724   7.370   0.476   4.388  0.2182 -0.1945 -0.6119
  870MOL0     N14725   7.313   0.589   4.306  1.5223 -0.2778 -0.3339
  870MOL0     C14726   7.333   0.721   4.331 -0.8213 -0.5842  0.3127
  870MOL0     C14727   7.268   0.785   4.230  0.0465  0.4257 -0.7616
  870MOL0     C14728   7.263   0.934   4.215  0.2684  0.3844  0.2757
  870MOL0     C14729   7.127   0.992   4.249  0.8548 -0.8041  0.1228
  870MOL0     C14730   7.152   1.142   4.247  0.9088  0.5305 -0.0532
  870MOL0     C14731   7.025   1.233   4.244 -1.6621  0.3552 -0.6706
  870MOL0     O14732   7.079   1.359   4.254  0.0344 -0.7967 -0.3051
  870MOL0     C14733   6.998   1.469   4.258  0.3630 -0.6321 -0.1749
  870MOL0     C14734   6.863   1.465   4.298 -0.5954 -0.2631  0.9749
  870MOL0     C14735   6.782   1.582   4.284  0.1610 -0.2879 -0.2227
  870MOL0     C14736   6.834   1.698   4.226 -0.1154 -0.4356  0.9078
  870MOL0     C14737   6.754   1.815   4.228 -0.4234  0.3020 -0.9800
  870MOL0     O14738   6.623   1.806   4.242 -0.1347  0.1165 -0.3880
  870MOL0     C14739   6.551   1.917   4.250  0.9639  0.3986  0.2608
  870MOL0     C14740   6.491   1.937   4.377  1.0830 -0.3136 -0.2024
  870MOL0     C14741   6.420   2.059   4.406 -0.1380 -0.3685  0.3849
  870MOL0     C14742   6.419   2.166   4.306 -0.1536  0.0561  0.5912
  870MOL0     O14743   6.352   2.286   4.334 -0.5794  0.2044  0.2608
  870MOL0     C14744   6.263   2.335   4.232  0.4627  0.6821  0.8170
  870MOL0     C14745   6.317   2.459   4.160  0.0818  0.3491 -0.7014
  870MOL0     C14746   6.201   2.515   4.071  0.4217  0.4759 -0.5160
  870MOL0     C14747   6.261   2.627   3.988  0.4819 -0.4096 -0.1077
  870MOL0     C14748   6.290   2.749   4.061 -0.1232 -0.1203  0.6322
  870MOL0     C14749   6.194   2.794   4.173 -0.5165 -0.8305 -0.2021
  870MOL0     C14750   6.250   2.911   4.244  0.1389 -1.2101  0.0537
  870MOL0     C14751   6.149   2.971   4.344 -0.1924  0.0258 -0.3528
  870MOL0    Cl14752   6.244   3.072   4.455 -0.5096  0.1501 -0.5511
  870MOL0     C14753   6.467   2.131   4.177  0.3647 -0.6471 -0.4144
  870MOL0     C14754   6.535   2.014   4.150 -0.1404  0.1307  1.0896
  870MOL0     O14755   6.820   1.917   4.237 -0.3290  0.3417 -0.4133
  870MOL0     C14756   6.968   1.703   4.185 -0.5194 -0.1577  0.5762
  870MOL0     C14757   7.050   1.592   4.201  0.1268  1.2392  0.0551
  870MOL0     N14758   7.218   0.697   4.141  0.6065 -0.2118  0.0845
  870MOL0     N14759   7.252   0.580   4.186  0.1685 -0.2450  0.0247
  870MOL0     C14760   7.430   1.052   4.826 -0.4643  0.8527  1.0232
  870MOL0     C14761   7.335   1.142   4.787  0.4185  1.0419  0.3183
  870MOL0     C14762   7.025   1.492   4.846 -0.3025  1.1186  0.7010
  870MOL0     C14763   6.939   1.449   4.743  0.1844 -0.1582 -0.4577
  870MOL0     C14764   6.823   1.517   4.710  0.0748  0.7111 -0.4327
  870MOL0     C14765   6.803   1.648   4.760  0.9551 -0.6350 -0.4985
  870MOL0     O14766   6.688   1.723   4.715 -0.7182 -0.4090 -0.2514
  870MOL0     C14767   6.720   1.859   4.695  1.0536 -0.8844  0.0730
  870MOL0     C14768   6.820   1.882   4.592 -0.1637  0.0625 -0.4027
  870MOL0     C14769   6.890   2.023   4.604 -0.1505 -0.6917  1.2790
  870MOL0     C14770   6.794   2.127   4.563  0.4324  0.7202  0.6050
  870MOL0     C14771   6.693   2.164   4.660  0.4781  0.1502 -1.0108
  870MOL0     C14772   6.597   2.199   4.734 -0.2304  0.5769 -0.2149
  870MOL0     C14773   6.892   1.698   4.859  0.2045  0.1950  0.0577
  870MOL0     C14774   7.005   1.618   4.895  0.7433  0.0025 -0.9053
  870MOL0     H14775   7.200   1.199   5.087  1.1631 -3.3626  2.4200
  870MOL0     H14776   7.410   1.076   5.160  0.1638  0.9908  0.8103
  870MOL0     H14777   7.734   0.909   4.885  1.9178 -3.6855 -1.4310
  870MOL0     H14778   7.583   0.849   4.816 -0.5802 -2.6712  0.4965
  870MOL0     H14779   7.590   0.721   5.049 -2.0427  2.1063 -1.3428
  870MOL0     H14780   7.765   0.713   4.999 -0.0497  1.0639 -0.3721
  870MOL0     H14781   7.523   0.622   4.855 -0.5714 -1.5528  0.3484
  870MOL0     H14782   7.658   0.524   4.896  2.2569  2.3594 -0.0853
  870MOL0     H14783   7.705   0.744   4.693 -0.2383 -1.2429 -1.9861
  870MOL0     H14784   7.821   0.636   4.766  0.0202  1.5603 -1.2470
  870MOL0     H14785   7.690   0.447   4.653  0.1250 -0.2805  1.0539
  870MOL0     H14786   7.734   0.574   4.530 -3.3398  1.9258 -1.2099
  870MOL0     H14787   7.504   0.665   4.545  0.4031 -0.7598 -4.8330
  870MOL0     H14788   7.462   0.527   4.652 -1.6331  0.0334 -1.4150
  870MOL0     H14789   7.577   0.543   4.365  0.6718  0.8143  0.9648
  870MOL0     H14790   7.541   0.385   4.440 -2.0056 -0.9683 -2.6765
  870MOL0     H14791   7.300   0.448   4.468  1.4261 -2.4552 -0.2459
  870MOL0     H14792   7.376   0.385   4.328  4.9972 -1.0294  0.7116
  870MOL0     H14793   7.390   0.759   4.415  1.4681 -5.4293  1.2818
  870MOL0     H14794   7.293   0.955   4.112  0.6707 -2.0896 -0.1884
  870MOL0     H14795   7.346   0.965   4.279  0.6635  0.9656 -0.5130
  870MOL0     H14796   7.109   0.963   4.353  0.1384 -1.9911 -0.3066
  870MOL0     H14797   7.060   0.946   4.176 -0.1239 -1.5249  1.4341
  870MOL0     H14798   7.209   1.157   4.339  0.6090 -1.0248  0.4106
  870MOL0     H14799   7.224   1.163   4.167  2.9632 -2.0943  0.9324
  870MOL0     H14800   6.962   1.212   4.331  4.1117 -0.1930  4.0513
  870MOL0     H14801   6.969   1.230   4.150 -0.6230  1.6637 -1.3526
  870MOL0     H14802   6.817   1.385   4.354 -2.6158  1.2531  1.6406
  870MOL0     H14803   6.676   1.585   4.306  0.1836  3.0406 -0.1321
  870MOL0     H14804   6.485   1.850   4.441 -0.9218  0.8366  1.2892
  870MOL0     H14805   6.356   2.074   4.492 -0.4200 -0.9187  0.2759
  870MOL0     H14806   6.162   2.349   4.274  1.4717  0.3699  3.5757
  870MOL0     H14807   6.247   2.253   4.162 -1.7933  0.3876  1.5699
  870MOL0     H14808   6.395   2.424   4.091  0.1797 -3.0666  0.9492
  870MOL0     H14809   6.354   2.521   4.242  0.1191 -2.7789  1.8582
  870MOL0     H14810   6.108   2.551   4.117  0.4754  0.8968 -0.7360
  870MOL0     H14811   6.167   2.433   4.007  1.9801 -1.4935  1.0357
  870MOL0     H14812   6.351   2.588   3.938  2.2641  0.7975  1.9845
  870MOL0     H14813   6.189   2.644   3.908  2.6887  4.2427 -1.4463
  870MOL0     H14814   6.307   2.832   3.992  1.2265 -1.7726 -1.1553
  870MOL0     H14815   6.393   2.746   4.097  0.0011  3.4599  0.9238
  870MOL0     H14816   6.182   2.716   4.249 -2.0004  1.0890  1.6849
  870MOL0     H14817   6.097   2.816   4.127  0.7543 -0.4230 -2.8746
  870MOL0     H14818   6.346   2.890   4.293  2.0957  1.8084 -2.1432
  870MOL0     H14819   6.268   3.002   4.185  1.9274 -0.4498  1.6557
  870MOL0     H14820   6.108   2.888   4.403  1.2978 -0.5866 -0.1266
  870MOL0     H14821   6.087   3.030   4.277  1.2900 -0.1966 -1.9769
  870MOL0     H14822   6.468   2.203   4.096  0.1886  1.0060  1.0028
  870MOL0     H14823   6.555   1.977   4.050 -3.4790  2.4115 -0.6102
  870MOL0     H14824   6.985   1.795   4.131 -0.8083 -0.6573 -0.3933
  870MOL0     H14825   7.153   1.585   4.167 -0.1672  1.3129 -0.8826
  870MOL0     H14826   7.486   1.005   4.746 -1.3568  2.4384 -0.6174
  870MOL0     H14827   7.323   1.152   4.680 -2.4733  1.7118  0.6059
  870MOL0     H14828   6.948   1.350   4.699 -2.9626 -1.0562  0.6605
  870MOL0     H14829   6.757   1.470   4.638 -0.0451  2.3487 -1.4509
  870MOL0     H14830   6.736   1.911   4.789  2.0781  0.7305 -0.9318
  870MOL0     H14831   6.628   1.898   4.650  0.4360 -4.3206 -2.0067
  870MOL0     H14832   6.897   1.804   4.598  0.3060  0.6468  4.3700
  870MOL0     H14833   6.776   1.877   4.492  1.6495 -3.0920 -1.1820
  870MOL0     H14834   6.979   2.012   4.541 -0.3699 -0.8127  0.9859
  870MOL0     H14835   6.918   2.031   4.709 -3.2782 -0.0947  2.1793
  870MOL0     H14836   6.842   2.222   4.536 -3.5896  3.1623  1.0900
  870MOL0     H14837   6.748   2.108   4.465  3.0658 -3.1245 -0.0894
  870MOL0     H14838   6.517   2.218   4.802  0.8438 -1.2272  1.6471
  870MOL0     H14839   6.891   1.792   4.913  2.9533  0.0520  0.5188
  870MOL0     H14840   7.071   1.644   4.978 -1.4364  0.6393  0.7218
  871MOL0     O14841   5.214   0.383   4.016  0.0913  0.0297  0.3079
  871MOL0     C14842   5.201   0.289   4.093  0.3176  0.2153 -0.7005
  871MOL0     O14843   5.137   0.293   4.215  0.1819  0.0030 -0.3251
  871MOL0     C14844   5.152   0.402   4.302 -0.2556 -0.5303 -0.2522
  871MOL0     C14845   5.243   0.509   4.279  0.7255 -0.0640  0.2804
  871MOL0     C14846   5.240   0.629   4.351  0.0182  0.3587  1.3015
  871MOL0     C14847   5.159   0.629   4.469  0.3723 -0.9599 -0.3397
  871MOL0     O14848   5.161   0.741   4.547 -0.0645  0.7101  0.3086
  871MOL0     C14849   5.100   0.735   4.673  0.3087  0.0005 -0.0213
  871MOL0     C14850   5.095   0.866   4.751 -1.0322 -0.6467 -1.0581
  871MOL0     C14851   5.020   0.844   4.883  0.6124 -0.0493  0.5262
  871MOL0     C14852   4.873   0.868   4.878  0.0757  0.3632 -0.4516
  871MOL0     C14853   4.797   0.867   5.018  0.0844  0.0997  0.4221
  871MOL0     C14854   4.643   0.870   5.012  0.2731  0.6385 -0.2105
  871MOL0     C14855   4.589   0.998   4.937 -0.3881  0.0879  0.5590
  871MOL0     C14856   4.441   0.997   4.940 -0.7106 -0.3584  0.4031
  871MOL0     N14857   4.383   1.077   4.829 -0.3161 -0.5071 -0.0246
  871MOL0     C14858   4.338   1.007   4.715 -0.2271  0.5384 -0.6864
  871MOL0     C14859   4.304   1.105   4.630 -0.4314  0.0621  0.9293
  871MOL0     C14860   4.248   1.093   4.494  0.0747 -0.4481  0.4745
  871MOL0     C14861   4.291   0.981   4.405  0.1857  0.2884  0.8222
  871MOL0     C14862   4.212   0.976   4.281  0.4941  0.3129  0.0430
  871MOL0     C14863   4.245   0.852   4.189 -0.1878 -0.1973 -0.4616
  871MOL0     O14864   4.149   0.852   4.080 -0.5488  0.7578 -0.1289
  871MOL0     C14865   4.048   0.760   4.091  0.4575  0.4794 -0.2326
  871MOL0     C14866   4.041   0.666   3.983  0.4262  1.0298  0.1013
  871MOL0     C14867   3.938   0.570   3.980  0.0819  0.7071  0.0047
  871MOL0     C14868   3.837   0.564   4.076  0.3082 -0.5562  0.0580
  871MOL0     C14869   3.732   0.463   4.074  0.2352  1.1285 -0.6515
  871MOL0     O14870   3.645   0.470   4.182  0.6863  1.0367  0.8174
  871MOL0     C14871   3.531   0.385   4.174  0.2668 -0.0212 -0.2839
  871MOL0     C14872   3.408   0.428   4.140  1.4680 -0.2783  0.6212
  871MOL0     C14873   3.292   0.336   4.133  0.6347 -0.4263 -0.7012
  871MOL0     C14874   3.314   0.208   4.170  0.4904 -0.3476  0.0971
  871MOL0     O14875   3.225   0.103   4.169 -1.0210 -0.1174  0.1519
  871MOL0     C14876   3.085   0.130   4.202  1.0600  0.6358 -0.2005
  871MOL0     C14877   2.994   0.012   4.155 -0.1926 -0.8710 -0.2333
  871MOL0     C14878   2.849   0.028   4.204  0.3545 -0.7889  0.4388
  871MOL0     C14879   2.773   0.148   4.162  0.1244 -0.2535  0.4720
  871MOL0     C14880   2.624   0.130   4.162  0.3719  0.2254 -0.2581
  871MOL0     C14881   2.545   0.259   4.121 -0.6918 -0.2269 -0.5881
  871MOL0     C14882   2.408   0.260   4.182 -0.6822 -0.4024  0.0587
  871MOL0     C14883   2.322   0.373   4.130 -0.4163 -0.6309  0.9506
  871MOL0    Cl14884   2.179   0.385   4.224  0.0789 -0.2670 -0.2748
  871MOL0     C14885   3.449   0.166   4.201  0.4358 -0.5574 -0.2914
  871MOL0     C14886   3.552   0.251   4.207  0.5975 -1.1404  0.5994
  871MOL0     O14887   3.729   0.381   3.982  0.2283 -0.5104 -0.2632
  871MOL0     C14888   3.851   0.660   4.180  0.1415 -0.0939  0.5077
  871MOL0     C14889   3.947   0.754   4.186  0.0883  0.2113  0.5267
  871MOL0     N14890   4.336   1.227   4.701  0.2854  0.0012  0.2659
  871MOL0     N14891   4.372   1.210   4.819  0.0372  0.3111  0.1675
  871MOL0     C14892   5.088   0.513   4.508  0.2224 -0.0618 -1.0106
  871MOL0     C14893   5.081   0.404   4.419  1.1961 -0.7746  0.0382
  871MOL0     C14894   5.219   0.151   4.039  0.1837  0.1566 -0.4749
  871MOL0     C14895   5.253   0.126   3.908  0.0404 -0.6525  0.9993
  871MOL0     C14896   5.283   0.004   3.844 -0.4677 -0.0038 -0.1093
  871MOL0     C14897   5.297  -0.109   3.929 -0.7905 -0.5809 -0.0596
  871MOL0     O14898   5.344  -0.224   3.882  0.3335  0.0810 -0.2276
  871MOL0     C14899   5.264  -0.280   3.775  0.2477 -0.9433  0.4429
  871MOL0     C14900   5.347  -0.375   3.690  0.0148 -0.4249 -0.9161
  871MOL0     C14901   5.483  -0.312   3.647  1.2723 -0.4142 -0.6673
  871MOL0     C14902   5.533  -0.390   3.533  0.2420  0.6786 -0.0222
  871MOL0     C14903   5.658  -0.326   3.483 -0.4125 -0.0061  0.7655
  871MOL0     C14904   5.762  -0.283   3.441 -0.1441  0.3353 -0.1065
  871MOL0     C14905   5.277  -0.086   4.064  0.6781  0.3259 -0.3454
  871MOL0     C14906   5.241   0.037   4.121 -0.3015  0.0241  0.1268
  871MOL0     H14907   5.305   0.497   4.190  2.7862 -1.1183  1.7746
  871MOL0     H14908   5.307   0.714   4.341 -0.3931  0.4112 -2.4534
  871MOL0     H14909   5.142   0.660   4.740 -0.3860 -0.0398  0.3767
  871MOL0     H14910   4.996   0.711   4.650  0.4979  0.8239 -1.9306
  871MOL0     H14911   5.059   0.951   4.691  3.0760  1.5154 -0.8142
  871MOL0     H14912   5.198   0.889   4.779 -0.6763 -2.0577 -1.1760
  871MOL0     H14913   5.057   0.923   4.948  1.0775  0.0267  0.1730
  871MOL0     H14914   5.049   0.746   4.920 -0.6996 -1.5638 -2.1740
  871MOL0     H14915   4.853   0.967   4.836 -0.6743  0.9341  1.1509
  871MOL0     H14916   4.835   0.790   4.812  0.0456 -0.1729  0.1799
  871MOL0     H14917   4.840   0.959   5.060  2.7616 -0.3972 -0.9775
  871MOL0     H14918   4.831   0.786   5.084 -0.4206  2.5212  3.9596
  871MOL0     H14919   4.594   0.842   5.106  0.0184 -0.0090 -0.5292
  871MOL0     H14920   4.615   0.780   4.956 -0.6483  0.7760  0.0174
  871MOL0     H14921   4.637   1.082   4.987 -0.5924 -0.8603  2.4538
  871MOL0     H14922   4.628   0.989   4.836 -0.9189 -1.3684  0.4546
  871MOL0     H14923   4.396   1.028   5.035 -2.6663  1.6685 -1.0654
  871MOL0     H14924   4.409   0.895   4.918  1.2940 -1.1846  1.1430
  871MOL0     H14925   4.332   0.900   4.696  0.2189  0.8297 -2.7394
  871MOL0     H14926   4.266   1.184   4.437  0.7369 -0.5942  0.4371
  871MOL0     H14927   4.140   1.093   4.509  0.2810  1.3356  2.3354
  871MOL0     H14928   4.281   0.885   4.457  2.2022 -0.2115  0.4079
  871MOL0     H14929   4.397   0.993   4.379 -0.2779  0.3708 -1.1927
  871MOL0     H14930   4.105   0.972   4.303  0.0791  0.4680 -1.7587
  871MOL0     H14931   4.230   1.064   4.218  0.3098 -1.6509 -2.9616
  871MOL0     H14932   4.234   0.757   4.242 -0.8962 -0.8893 -1.7842
  871MOL0     H14933   4.350   0.853   4.157  0.8654 -1.0479  2.5839
  871MOL0     H14934   4.116   0.665   3.904 -1.1076 -0.1271 -1.4091
  871MOL0     H14935   3.944   0.495   3.903  1.4869  0.0233  0.7410
  871MOL0     H14936   3.403   0.531   4.105  0.7923 -0.0631  1.2993
  871MOL0     H14937   3.193   0.377   4.115  0.4712 -1.2244 -1.6734
  871MOL0     H14938   3.048   0.212   4.140 -2.0045 -1.5658 -1.5091
  871MOL0     H14939   3.073   0.155   4.308 -1.3654  0.4992 -0.3871
  871MOL0     H14940   3.034  -0.086   4.183  1.5464 -0.2645 -0.4419
  871MOL0     H14941   2.986   0.016   4.046  0.4426  0.9432 -0.2581
  871MOL0     H14942   2.844   0.017   4.313  0.7303  1.2002  0.7043
  871MOL0     H14943   2.793  -0.055   4.161 -0.5866 -1.1885  2.3530
  871MOL0     H14944   2.806   0.236   4.217 -0.6414 -0.1144  0.7301
  871MOL0     H14945   2.787   0.173   4.056 -2.8849  3.6752  0.7508
  871MOL0     H14946   2.595   0.095   4.262  2.2936 -0.7700  0.0129
  871MOL0     H14947   2.603   0.047   4.094 -4.6219 -1.8087  3.1905
  871MOL0     H14948   2.543   0.268   4.012 -3.7136  0.1437 -0.6144
  871MOL0     H14949   2.594   0.346   4.166 -0.5203 -2.2330  3.5593
  871MOL0     H14950   2.363   0.165   4.151 -0.1068 -0.7383  0.2211
  871MOL0     H14951   2.412   0.268   4.292  3.4291 -0.5307  0.1032
  871MOL0     H14952   2.301   0.380   4.023 -1.5923  3.0928  1.3083
  871MOL0     H14953   2.390   0.456   4.148  1.9379 -2.2581  0.1659
  871MOL0     H14954   3.462   0.058   4.211  0.1930 -0.7784 -1.9686
  871MOL0     H14955   3.648   0.216   4.243  0.4741 -2.9833 -0.7260
  871MOL0     H14956   3.761   0.656   4.241  0.3121  0.4392  0.8022
  871MOL0     H14957   3.948   0.827   4.266 -1.1961  3.9290 -2.5515
  871MOL0     H14958   5.018   0.513   4.591  1.2719 -0.3265 -0.0942
  871MOL0     H14959   5.005   0.330   4.440 -0.7872  1.2742  0.4199
  871MOL0     H14960   5.263   0.215   3.847  0.5647 -2.0269 -1.0265
  871MOL0     H14961   5.323   0.010   3.743  3.3747  2.8168  1.3323
  871MOL0     H14962   5.217  -0.206   3.710 -1.4865  0.1072  2.7564
  871MOL0     H14963   5.192  -0.349   3.821 -1.0252 -0.3155 -0.5388
  871MOL0     H14964   5.369  -0.461   3.754 -1.8244  1.1818  2.0989
  871MOL0     H14965   5.286  -0.412   3.607 -2.1328  1.6677 -0.3804
  871MOL0     H14966   5.550  -0.301   3.733 -0.0442 -0.7636  0.4456
  871MOL0     H14967   5.452  -0.216   3.606 -4.8718 -0.4761  2.5745
  871MOL0     H14968   5.549  -0.493   3.565 -1.0835  0.0122 -1.3821
  871MOL0     H14969   5.461  -0.392   3.451  0.5891 -1.5211 -0.3273
  871MOL0     H14970   5.850  -0.246   3.391 -0.5425  0.2592 -0.8894
  871MOL0     H14971   5.297  -0.174   4.124 -0.5983  0.9513  1.0726
  871MOL0     H14972   5.242   0.045   4.229  4.7102 -2.0060  0.4999
  872MOL0     O14973   3.469   4.299   6.088 -0.7391 -0.1739  0.0118
  872MOL0     C14974   3.481   4.395   6.177  0.2146  0.1383  0.2613
  872MOL0     O14975   3.524   4.525   6.161  0.0878 -0.9413 -0.4209
  872MOL0     C14976   3.608   4.562   6.056 -0.4536 -0.1855  0.5815
  872MOL0     C14977   3.610   4.511   5.927 -0.8487 -0.2568 -0.3687
  872MOL0     C14978   3.688   4.562   5.825 -0.4297  0.1996  0.5195
  872MOL0     C14979   3.750   4.687   5.845  0.6704  0.6690  0.7720
  872MOL0     O14980   3.829   4.741   5.748 -0.3473  0.3247  0.0341
  872MOL0     C14981   3.810   4.875   5.709  0.2455 -0.0909 -0.6108
  872MOL0     C14982   3.884   4.907   5.586  0.7408 -0.4400 -0.9747
  872MOL0     C14983   3.865   5.052   5.557 -1.1021  0.4444  0.6242
  872MOL0     C14984   3.912   5.089   5.412  0.8820 -1.5644  0.5566
  872MOL0     C14985   3.938   5.244   5.412 -0.2890  0.4081  0.3153
  872MOL0     C14986   3.963   5.301   5.270  0.9054  1.3134  0.8186
  872MOL0     C14987   3.821   5.328   5.197  0.1620 -0.1259 -0.3859
  872MOL0     C14988   3.854   5.390   5.061  0.0357 -0.7967 -1.0154
  872MOL0     N14989   3.792   5.313   4.950 -0.2107 -0.3292 -0.5224
  872MOL0     C14990   3.705   5.370   4.859  0.4443  0.3026  0.5107
  872MOL0     C14991   3.693   5.282   4.759  0.3997  0.2487  0.3659
  872MOL0     C14992   3.618   5.294   4.628  0.1494  0.6510 -0.3679
  872MOL0     C14993   3.481   5.213   4.612 -0.1687  0.1019 -0.4185
  872MOL0     C14994   3.377   5.299   4.686  0.0297  1.1324 -1.4952
  872MOL0     C14995   3.244   5.224   4.689 -0.6188 -0.2044 -0.4559
  872MOL0     O14996   3.145   5.299   4.763 -0.3936 -0.1546 -0.1805
  872MOL0     C14997   3.109   5.256   4.889 -0.4162 -1.1293  0.9274
  872MOL0     C14998   2.979   5.264   4.926 -0.0363 -0.6161 -0.3719
  872MOL0     C14999   2.932   5.182   5.032  0.0527  1.3461  0.1707
  872MOL0     C15000   3.023   5.109   5.115  0.6226 -0.3108  0.4056
  872MOL0     C15001   2.967   5.045   5.239 -1.3905  0.3574  0.2282
  872MOL0     O15002   2.831   5.040   5.268 -0.6084  0.6715 -0.8087
  872MOL0     C15003   2.790   4.956   5.374 -1.0140 -0.0051  0.2717
  872MOL0     C15004   2.852   4.827   5.400  0.2817 -0.0043  1.2803
  872MOL0     C15005   2.816   4.761   5.518 -0.8249  0.2384 -0.3935
  872MOL0     C15006   2.704   4.805   5.593  0.8329  0.3267 -0.2772
  872MOL0     O15007   2.657   4.709   5.692  0.1841  0.6932  0.0023
  872MOL0     C15008   2.539   4.735   5.771 -0.1877  0.6156 -0.4703
  872MOL0     C15009   2.530   4.665   5.911  0.2480 -1.0447  0.5801
  872MOL0     C15010   2.644   4.731   6.004 -0.0101  0.6580  0.3103
  872MOL0     C15011   2.616   4.873   6.039  0.2944  0.2391 -1.1661
  872MOL0     C15012   2.670   4.998   5.962 -0.2805  0.0668  0.1079
  872MOL0     C15013   2.580   5.119   5.968  0.1104 -0.0834 -1.0612
  872MOL0     C15014   2.641   5.243   5.898  0.5731 -0.5534  0.1516
  872MOL0     C15015   2.761   5.315   5.973  0.3537  0.6452  0.1335
  872MOL0    Cl15016   2.709   5.409   6.116 -0.0881  0.5304  0.2453
  872MOL0     C15017   2.652   4.930   5.574  0.7789 -0.0129  0.4996
  872MOL0     C15018   2.698   5.008   5.463  0.0769  0.1889 -0.6345
  872MOL0     O15019   3.055   5.018   5.323  0.2869 -0.5520 -0.2099
  872MOL0     C15020   3.151   5.091   5.075 -0.4769 -0.0359  0.0483
  872MOL0     C15021   3.195   5.176   4.965  0.0628  0.1225 -1.2686
  872MOL0     N15022   3.766   5.168   4.797 -0.2552  0.4816  0.0968
  872MOL0     N15023   3.824   5.199   4.902  0.4993 -0.2346  0.6530
  872MOL0     C15024   3.743   4.742   5.970  0.2017 -0.7231  0.9979
  872MOL0     C15025   3.664   4.686   6.068 -0.5320  0.0912 -0.2777
  872MOL0     C15026   3.434   4.351   6.312 -1.2024 -1.0867 -0.1839
  872MOL0     C15027   3.443   4.215   6.349 -0.1486 -0.6668  0.3474
  872MOL0     C15028   3.409   4.163   6.468  0.4484 -0.1894 -0.4793
  872MOL0     C15029   3.385   4.256   6.572  0.0120  0.9336 -0.3033
  872MOL0     O15030   3.344   4.226   6.697 -0.6885 -0.2213  0.6064
  872MOL0     C15031   3.294   4.095   6.708 -0.1522 -0.4818 -0.8666
  872MOL0     C15032   3.228   4.064   6.840 -0.6564  0.2495  0.4741
  872MOL0     C15033   3.193   3.916   6.839 -1.0539  0.7073 -0.5308
  872MOL0     C15034   3.053   3.898   6.776 -0.1230 -0.2891 -0.2719
  872MOL0     C15035   2.998   3.765   6.793  0.5735  0.5476 -0.7460
  872MOL0     C15036   2.947   3.655   6.827 -0.0386  0.6513 -1.0605
  872MOL0     C15037   3.391   4.395   6.547 -1.4990  0.5141 -0.2432
  872MOL0     C15038   3.409   4.439   6.421 -0.4155 -0.0279  0.3524
  872MOL0     H15039   3.540   4.432   5.904 -2.9345  1.6212 -0.8171
  872MOL0     H15040   3.699   4.510   5.730 -2.3866  0.5395  0.0720
  872MOL0     H15041   3.833   4.940   5.794 -2.9559 -0.0101  0.3555
  872MOL0     H15042   3.702   4.890   5.698  0.7325  2.4416 -2.9979
  872MOL0     H15043   3.851   4.841   5.505  0.0638  0.6173 -1.5941
  872MOL0     H15044   3.990   4.893   5.605  0.5383 -0.2128  0.4061
  872MOL0     H15045   3.937   5.096   5.627 -1.0582 -2.9366  2.9779
  872MOL0     H15046   3.765   5.080   5.592 -0.9531  0.6846  0.8703
  872MOL0     H15047   3.999   5.034   5.376  2.1718  0.9926 -0.4505
  872MOL0     H15048   3.822   5.065   5.354  0.2489 -0.9132  1.2437
  872MOL0     H15049   4.020   5.270   5.480  0.8396 -0.7225 -0.5660
  872MOL0     H15050   3.854   5.288   5.466 -1.1721 -3.3546  2.3614
  872MOL0     H15051   4.018   5.216   5.231 -1.0469  0.1636  0.4120
  872MOL0     H15052   4.038   5.380   5.284  3.5663 -1.0720  0.8443
  872MOL0     H15053   3.767   5.234   5.187  0.4562 -0.8803  3.4277
  872MOL0     H15054   3.766   5.395   5.264 -0.5347 -2.4953  1.5459
  872MOL0     H15055   3.960   5.373   5.044  0.0381 -3.1221  0.7541
  872MOL0     H15056   3.833   5.497   5.051  1.3086 -0.4912 -0.5591
  872MOL0     H15057   3.655   5.466   4.863 -1.1100 -0.4974  2.0868
  872MOL0     H15058   3.685   5.260   4.548  0.9076  0.9777  0.1190
  872MOL0     H15059   3.602   5.399   4.598 -2.9416  0.6108  0.7576
  872MOL0     H15060   3.485   5.117   4.665  0.4271  1.5230  2.2957
  872MOL0     H15061   3.457   5.199   4.506 -0.9765 -2.5406  0.0273
  872MOL0     H15062   3.412   5.317   4.789  1.9051 -0.1093 -1.8709
  872MOL0     H15063   3.363   5.391   4.629  0.5412  0.8196 -2.1323
  872MOL0     H15064   3.242   5.117   4.711 -0.5237 -0.1992 -0.4254
  872MOL0     H15065   3.222   5.222   4.582  1.3535  0.9325 -0.9228
  872MOL0     H15066   2.914   5.341   4.887  1.3202 -0.4667 -2.4959
  872MOL0     H15067   2.828   5.173   5.058 -0.1107 -0.6256 -0.9509
  872MOL0     H15068   2.936   4.785   5.345  0.2458 -1.2103  2.1215
  872MOL0     H15069   2.848   4.663   5.552 -2.2155  0.5048  1.8952
  872MOL0     H15070   2.443   4.720   5.723 -1.7923  1.3668  2.2480
  872MOL0     H15071   2.541   4.843   5.794 -1.2059  0.4484  0.4749
  872MOL0     H15072   2.548   4.558   5.895 -0.7709 -1.0675 -0.6033
  872MOL0     H15073   2.426   4.679   5.943 -0.1443  2.3748 -1.6937
  872MOL0     H15074   2.737   4.732   5.947 -1.2459  1.3906 -1.7918
  872MOL0     H15075   2.658   4.677   6.098  1.1910  1.5662  0.6741
  872MOL0     H15076   2.507   4.871   6.054  0.3112  0.2016 -1.0518
  872MOL0     H15077   2.658   4.889   6.138 -1.3120  0.7008 -0.5139
  872MOL0     H15078   2.679   4.972   5.856 -1.7164  1.1863 -0.3220
  872MOL0     H15079   2.773   5.023   5.990  1.8723 -4.4518 -2.4648
  872MOL0     H15080   2.533   5.148   6.062 -0.3769  2.4902 -2.0241
  872MOL0     H15081   2.496   5.102   5.900  1.0760 -2.5591 -1.7771
  872MOL0     H15082   2.666   5.215   5.795 -0.4524 -0.1154 -0.2267
  872MOL0     H15083   2.563   5.319   5.891  2.7657  1.7701 -0.6459
  872MOL0     H15084   2.809   5.378   5.897 -1.6886 -1.2632 -2.9517
  872MOL0     H15085   2.834   5.240   6.002 -0.9893 -1.2580 -1.1529
  872MOL0     H15086   2.581   4.977   5.642  2.1590  1.7795  0.7843
  872MOL0     H15087   2.664   5.111   5.450  2.4027  0.9614 -1.0720
  872MOL0     H15088   3.225   5.032   5.127 -1.5874 -3.3717 -1.8767
  872MOL0     H15089   3.300   5.164   4.941  0.9005  1.2590  1.4043
  872MOL0     H15090   3.777   4.843   5.988 -3.5822  1.1247 -0.9346
  872MOL0     H15091   3.660   4.731   6.167  5.0717 -2.2236  1.4112
  872MOL0     H15092   3.469   4.144   6.271  1.0023  0.3929 -0.2648
  872MOL0     H15093   3.423   4.059   6.494 -0.1625 -0.0822  0.3119
  872MOL0     H15094   3.371   4.019   6.694  0.6330  0.5023 -2.0365
  872MOL0     H15095   3.224   4.079   6.626 -0.1462  0.3831 -1.0501
  872MOL0     H15096   3.300   4.084   6.919  0.9261  2.8802 -1.4725
  872MOL0     H15097   3.140   4.129   6.851 -2.6859 -2.0977 -0.7137
  872MOL0     H15098   3.185   3.876   6.941  2.0007 -0.0187 -0.5045
  872MOL0     H15099   3.263   3.845   6.793 -0.0964 -0.8425  2.9711
  872MOL0     H15100   2.988   3.974   6.821  3.0092  0.8602  2.8246
  872MOL0     H15101   3.069   3.924   6.671  2.4024  0.7732  0.2829
  872MOL0     H15102   2.913   3.563   6.871  3.9067 -0.1234  0.8702
  872MOL0     H15103   3.385   4.467   6.628 -0.5481  1.1817 -0.7446
  872MOL0     H15104   3.399   4.545   6.401  1.1795  0.3619  1.3918
  873MOL0     O15105   1.310   1.394   9.453  0.0865 -0.9711 -1.3450
  873MOL0     C15106   1.386   1.351   9.528  0.1070  0.4470 -0.3721
  873MOL0     O15107   1.491   1.267   9.501  0.5103 -0.1188  0.6911
  873MOL0     C15108   1.505   1.198   9.388 -0.4547 -0.2303 -0.6825
  873MOL0     C15109   1.637   1.159   9.354 -0.2000 -0.6206  1.0285
  873MOL0     C15110   1.669   1.095   9.239 -0.4235  0.2163  0.1878
  873MOL0     C15111   1.564   1.045   9.170  0.2058 -1.0806 -0.3745
  873MOL0     O15112   1.583   0.954   9.067  0.6839 -0.5361 -0.3003
  873MOL0     C15113   1.703   0.886   9.027  0.3621  0.0258 -0.2569
  873MOL0     C15114   1.752   0.773   9.119  0.0237  0.2198 -0.8720
  873MOL0     C15115   1.891   0.740   9.075  0.3194 -0.3747  0.3230
  873MOL0     C15116   1.943   0.629   9.166 -1.2670 -1.2634  0.2516
  873MOL0     C15117   1.898   0.486   9.136 -1.1873 -0.3636 -0.0993
  873MOL0     C15118   1.942   0.380   9.246 -0.3276  0.4839  0.4237
  873MOL0     C15119   1.893   0.421   9.393  0.7071 -0.1937  0.0909
  873MOL0     C15120   1.909   0.298   9.495 -0.6922  0.3888  0.1448
  873MOL0     N15121   2.040   0.234   9.485 -0.2290 -0.8755 -0.0952
  873MOL0     C15122   2.084   0.139   9.398 -0.6075 -0.2721  0.1169
  873MOL0     C15123   2.213   0.122   9.439  1.2086 -0.1859  0.6884
  873MOL0     C15124   2.295   0.017   9.371  0.0770 -0.8463  0.9043
  873MOL0     C15125   2.217  -0.121   9.393 -0.2667 -0.3713 -0.1370
  873MOL0     C15126   2.286  -0.252   9.333 -0.2656 -0.3409  1.0415
  873MOL0     C15127   2.271  -0.251   9.182  0.2803  0.8528  0.7609
  873MOL0     O15128   2.308  -0.380   9.136  0.0003  0.1849 -0.5543
  873MOL0     C15129   2.205  -0.439   9.065 -1.5831 -0.0558  1.2953
  873MOL0     C15130   2.172  -0.397   8.933  0.4792  0.1757 -0.1025
  873MOL0     C15131   2.073  -0.466   8.853  0.6573  0.1228 -0.9748
  873MOL0     C15132   2.000  -0.579   8.907 -0.2134  1.0600  0.4148
  873MOL0     C15133   1.888  -0.643   8.826 -0.0793  0.0978 -0.2137
  873MOL0     O15134   1.796  -0.709   8.900 -0.9059  0.3015 -0.3657
  873MOL0     C15135   1.673  -0.718   8.846  0.1468 -0.1866 -0.3224
  873MOL0     C15136   1.637  -0.832   8.771  0.7948  0.9708 -1.3646
  873MOL0     C15137   1.513  -0.852   8.710 -0.3056 -0.2156  0.7477
  873MOL0     C15138   1.418  -0.753   8.739  1.4594 -0.8891  0.1634
  873MOL0     O15139   1.291  -0.766   8.682 -0.3205  0.3660  0.2081
  873MOL0     C15140   1.189  -0.828   8.763  0.2840  0.6963  0.3678
  873MOL0     C15141   1.190  -0.979   8.744 -0.5549 -0.0740 -0.7965
  873MOL0     C15142   1.066  -1.055   8.791 -0.7120  0.7271 -0.6054
  873MOL0     C15143   1.086  -1.211   8.797  0.1736 -0.0094 -0.9446
  873MOL0     C15144   0.983  -1.293   8.877 -1.0266  0.5004 -0.5097
  873MOL0     C15145   0.973  -1.439   8.832 -0.0505 -0.3035  0.4794
  873MOL0     C15146   1.092  -1.533   8.863  0.7883 -0.6601  0.2428
  873MOL0     C15147   1.085  -1.589   9.009 -0.4987  0.5150 -0.1643
  873MOL0    Cl15148   0.952  -1.708   9.031  0.5396  0.0989  0.0115
  873MOL0     C15149   1.453  -0.638   8.815  0.2607 -0.5045  1.0314
  873MOL0     C15150   1.579  -0.622   8.877 -0.1136  0.1330 -0.7644
  873MOL0     O15151   1.877  -0.617   8.700  0.4427 -0.0103  0.2569
  873MOL0     C15152   2.050  -0.635   9.035 -0.3621  1.0900 -0.4257
  873MOL0     C15153   2.146  -0.559   9.106 -0.6907  0.0070  1.0287
  873MOL0     N15154   2.250   0.210   9.539  0.0797  0.8291 -0.0886
  873MOL0     N15155   2.135   0.276   9.578  0.5318  0.7040 -0.1480
  873MOL0     C15156   1.433   1.072   9.196  0.2607 -0.9643 -0.9607
  873MOL0     C15157   1.400   1.138   9.310 -0.1800 -0.9535 -0.3536
  873MOL0     C15158   1.380   1.381   9.664  0.5309 -1.4514 -0.1104
  873MOL0     C15159   1.267   1.452   9.711  0.8489  0.3227  1.0852
  873MOL0     C15160   1.255   1.480   9.847 -0.5438 -0.3960  0.0871
  873MOL0     C15161   1.368   1.447   9.931 -0.5252 -0.2227  0.2095
  873MOL0     O15162   1.369   1.483  10.061  0.4128 -0.5566 -0.8577
  873MOL0     C15163   1.454   1.421  10.167 -0.7693  0.0299 -0.6478
  873MOL0     C15164   1.524   1.528  10.246 -0.5593 -0.7345 -0.5237
  873MOL0     C15165   1.426   1.584  10.342  0.6397  0.1390 -0.3333
  873MOL0     C15166   1.472   1.712  10.413  0.0979 -0.2997 -0.5673
  873MOL0     C15167   1.393   1.755  10.526 -0.3948  1.0962  0.0475
  873MOL0     C15168   1.321   1.813  10.603  0.5011  0.8138  0.0325
  873MOL0     C15169   1.480   1.384   9.881  0.1534  0.0414 -0.1963
  873MOL0     C15170   1.486   1.356   9.746 -0.5286 -0.0991 -0.5238
  873MOL0     H15171   1.722   1.195   9.412 -0.2302 -0.8652  1.2280
  873MOL0     H15172   1.771   1.077   9.206 -0.5098 -0.6594  0.4017
  873MOL0     H15173   1.788   0.955   9.021  0.9452 -0.5204  1.2842
  873MOL0     H15174   1.696   0.839   8.929  1.0754 -2.2730  0.7459
  873MOL0     H15175   1.684   0.687   9.116  0.4227 -0.3859  2.4400
  873MOL0     H15176   1.746   0.814   9.221  0.8082 -1.3934 -0.1240
  873MOL0     H15177   1.957   0.827   9.087  1.0219 -1.1301  2.5141
  873MOL0     H15178   1.874   0.713   8.970 -1.9138  0.7786  0.3393
  873MOL0     H15179   2.052   0.628   9.155 -1.2146  1.6989 -0.1809
  873MOL0     H15180   1.910   0.647   9.269 -1.7421 -1.1490  0.0817
  873MOL0     H15181   1.929   0.451   9.037  1.4618 -3.9335  1.7817
  873MOL0     H15182   1.788   0.481   9.130 -1.3038  2.1329 -2.8408
  873MOL0     H15183   2.050   0.367   9.240 -0.5342 -0.8200 -1.9623
  873MOL0     H15184   1.897   0.281   9.230 -0.6345  0.7995 -0.8140
  873MOL0     H15185   1.936   0.513   9.433  1.5255 -0.3826 -0.3399
  873MOL0     H15186   1.786   0.440   9.380  0.5757  0.6916  2.0430
  873MOL0     H15187   1.831   0.224   9.476 -0.5071 -0.4928  2.4401
  873MOL0     H15188   1.890   0.328   9.599 -0.2810 -3.6573  1.5836
  873MOL0     H15189   2.035   0.096   9.311  0.0700 -0.9301  0.0539
  873MOL0     H15190   2.395   0.012   9.415  0.4877  2.4693  0.6006
  873MOL0     H15191   2.311   0.037   9.265 -2.8620  0.3035  0.5987
  873MOL0     H15192   2.120  -0.111   9.343 -0.6191  2.4600  0.9161
  873MOL0     H15193   2.220  -0.152   9.498 -0.6866  0.5565  0.1650
  873MOL0     H15194   2.394  -0.257   9.346 -0.0563 -0.0105 -0.3847
  873MOL0     H15195   2.235  -0.340   9.375 -1.9525  0.7697  1.4472
  873MOL0     H15196   2.343  -0.184   9.135 -1.7998  1.2130 -2.2145
  873MOL0     H15197   2.172  -0.218   9.149  0.9014  0.6827 -1.3792
  873MOL0     H15198   2.227  -0.311   8.898  2.4686 -0.7842  0.5095
  873MOL0     H15199   2.042  -0.423   8.759 -1.1771 -2.4731 -1.6584
  873MOL0     H15200   1.717  -0.905   8.766  0.5671  0.6772 -0.7042
  873MOL0     H15201   1.485  -0.940   8.654 -0.9621 -1.1082  2.4332
  873MOL0     H15202   1.096  -0.792   8.718 -0.3874 -0.5272  0.7439
  873MOL0     H15203   1.194  -0.806   8.870 -0.5470  0.8785  0.3738
  873MOL0     H15204   1.273  -1.032   8.791 -1.5210  0.7758  2.0162
  873MOL0     H15205   1.197  -1.008   8.638  3.8514 -1.1506 -0.4026
  873MOL0     H15206   0.982  -1.052   8.721  0.4013 -0.0058 -2.0474
  873MOL0     H15207   1.044  -1.016   8.890  2.1929  0.8336  0.0731
  873MOL0     H15208   1.072  -1.228   8.690  0.9285 -0.5306 -0.9612
  873MOL0     H15209   1.190  -1.227   8.825  0.6042  0.2337 -2.3589
  873MOL0     H15210   0.885  -1.248   8.861 -1.5484 -0.7149 -0.9294
  873MOL0     H15211   1.003  -1.292   8.984 -1.2048 -1.4182 -0.4129
  873MOL0     H15212   0.946  -1.449   8.727 -1.9318  1.5562  0.7186
  873MOL0     H15213   0.886  -1.480   8.885 -0.6381  1.3636  0.8581
  873MOL0     H15214   1.080  -1.621   8.799  0.2084 -2.2815  2.4551
  873MOL0     H15215   1.186  -1.484   8.835  0.7196 -0.7179 -0.0922
  873MOL0     H15216   1.085  -1.507   9.081  2.0096  1.3140 -0.9895
  873MOL0     H15217   1.174  -1.637   9.049  0.1334  1.3241 -0.5762
  873MOL0     H15218   1.363  -0.579   8.824 -0.0744 -0.7385 -0.4732
  873MOL0     H15219   1.596  -0.526   8.926 -0.0515 -0.1969 -0.1283
  873MOL0     H15220   2.016  -0.729   9.079  1.1271  0.2269 -1.0515
  873MOL0     H15221   2.190  -0.606   9.193  0.1011  1.4608  1.4609
  873MOL0     H15222   1.346   1.041   9.139 -1.0795  2.1305 -0.7757
  873MOL0     H15223   1.295   1.145   9.334  0.3948  0.1933  2.2640
  873MOL0     H15224   1.184   1.488   9.650  1.4305 -1.2496 -0.7082
  873MOL0     H15225   1.161   1.524   9.878 -0.4350  0.4267 -0.7126
  873MOL0     H15226   1.533   1.359  10.123  0.8992  1.4026  0.3162
  873MOL0     H15227   1.398   1.355  10.234  0.9019 -0.7396  0.0440
  873MOL0     H15228   1.607   1.479  10.298  0.5752 -0.6324 -2.1851
  873MOL0     H15229   1.555   1.607  10.178 -0.6074  0.6656  1.0125
  873MOL0     H15230   1.405   1.500  10.409 -0.3805 -1.5359 -2.6176
  873MOL0     H15231   1.335   1.610  10.287  2.3863  3.2431 -2.0549
  873MOL0     H15232   1.576   1.703  10.446 -0.3447 -0.4343  0.8667
  873MOL0     H15233   1.468   1.799  10.346  1.8856  0.6091  0.4317
  873MOL0     H15234   1.264   1.871  10.673  0.4256  0.7176  0.0496
  873MOL0     H15235   1.568   1.363   9.941  0.6404 -0.9003 -1.1988
  873MOL0     H15236   1.576   1.305   9.713 -1.3476 -0.9040 -1.5968
  874MOL0     O15237   5.582  10.895   0.699  0.3915 -0.2689  0.7700
  874MOL0     C15238   5.559  10.994   0.770 -1.0643  0.3400  0.3355
  874MOL0     O15239   5.618  11.024   0.886  0.0409 -0.1721  0.0168
  874MOL0     C15240   5.671  10.920   0.957  0.2981 -1.1778 -0.3939
  874MOL0     C15241   5.582  10.827   1.011 -0.3074 -0.4256  0.7107
  874MOL0     C15242   5.624  10.712   1.082 -0.2823  0.4451  0.9731
  874MOL0     C15243   5.760  10.700   1.113  0.8256  0.4520 -0.3210
  874MOL0     O15244   5.814  10.589   1.182  0.1030  0.2300 -0.2732
  874MOL0     C15245   5.724  10.480   1.235 -1.0168  1.3186  0.4027
  874MOL0     C15246   5.820  10.361   1.272  0.8396  0.6920 -0.2366
  874MOL0     C15247   5.897  10.406   1.399 -0.4334 -0.1352  0.3989
  874MOL0     C15248   6.005  10.293   1.438 -0.1354  0.3474  0.4206
  874MOL0     C15249   5.933  10.165   1.453  0.2453  1.0396 -0.3674
  874MOL0     C15250   6.003  10.063   1.544  0.2932 -1.0565  0.1570
  874MOL0     C15251   6.160  10.053   1.535 -0.5303  0.3964 -0.3209
  874MOL0     C15252   6.211   9.981   1.409  0.8926 -0.0619  0.3813
  874MOL0     N15253   6.348   9.937   1.423 -0.7950 -0.0210  0.0480
  874MOL0     C15254   6.456  10.010   1.387 -0.6557 -0.4721 -0.6528
  874MOL0     C15255   6.558   9.943   1.440 -1.0983  0.1986 -0.4243
  874MOL0     C15256   6.701   9.978   1.418  0.9375  0.1675 -0.8179
  874MOL0     C15257   6.783   9.848   1.399 -0.7160  0.7874  0.2170
  874MOL0     C15258   6.932   9.874   1.384 -1.2993 -0.4305  0.4047
  874MOL0     C15259   7.004   9.736   1.392  1.2226 -0.3229  0.5607
  874MOL0     O15260   7.150   9.772   1.376 -0.1428  0.2621 -0.1635
  874MOL0     C15261   7.239   9.668   1.346  0.2701 -0.5285 -0.6825
  874MOL0     C15262   7.374   9.693   1.331  0.2150  0.3133 -0.5480
  874MOL0     C15263   7.466   9.593   1.304 -0.5956 -0.3664  0.0578
  874MOL0     C15264   7.416   9.461   1.276  0.2948  0.0741  0.5563
  874MOL0     C15265   7.507   9.344   1.252  0.6993  0.0094  0.2272
  874MOL0     O15266   7.459   9.218   1.248  0.3975  0.3907 -0.5590
  874MOL0     C15267   7.548   9.115   1.205  0.1050 -0.9522 -0.3538
  874MOL0     C15268   7.643   9.076   1.298  0.0679 -0.0648  0.2369
  874MOL0     C15269   7.735   8.969   1.272 -0.5569 -0.9333  0.0334
  874MOL0     C15270   7.737   8.919   1.137  0.1437  0.1636 -0.4676
  874MOL0     O15271   7.824   8.818   1.084  0.6728  0.6493 -0.7074
  874MOL0     C15272   7.922   8.748   1.171  0.7032  0.5672 -0.2173
  874MOL0     C15273   7.876   8.610   1.201 -0.4325 -0.0206 -0.0910
  874MOL0     C15274   7.993   8.521   1.240 -0.7759  0.4044  0.0057
  874MOL0     C15275   8.102   8.481   1.138  0.0624  0.3316 -0.6616
  874MOL0     C15276   8.224   8.402   1.196  0.0878  0.4946  0.5663
  874MOL0     C15277   8.170   8.259   1.240 -0.6375  0.0783  0.9005
  874MOL0     C15278   8.132   8.166   1.119 -0.8773 -0.1936 -0.4790
  874MOL0     C15279   8.118   8.028   1.169 -0.5434 -0.9948 -0.8173
  874MOL0    Cl15280   8.285   7.970   1.213 -0.1287 -0.3655 -0.0242
  874MOL0     C15281   7.654   8.978   1.037 -0.3029  0.5134 -0.5815
  874MOL0     C15282   7.552   9.071   1.071  0.2909 -0.2304  0.2216
  874MOL0     O15283   7.629   9.367   1.241 -0.6429 -0.4591 -0.2578
  874MOL0     C15284   7.279   9.439   1.278  0.4568  0.8601 -0.7143
  874MOL0     C15285   7.195   9.536   1.316 -0.1065  0.0708  0.5345
  874MOL0     N15286   6.509   9.841   1.522 -0.3606 -0.6671 -0.9218
  874MOL0     N15287   6.379   9.837   1.503 -0.5563  0.5463  0.1893
  874MOL0     C15288   5.851  10.809   1.079  0.5684  1.4835  0.0741
  874MOL0     C15289   5.805  10.918   1.000  0.2967 -1.0194  0.1928
  874MOL0     C15290   5.494  11.112   0.699  0.5652  1.0255 -0.1941
  874MOL0     C15291   5.500  11.117   0.559 -0.4067 -0.1701  0.2016
  874MOL0     C15292   5.447  11.224   0.486  0.2478 -0.1605 -0.4821
  874MOL0     C15293   5.380  11.329   0.551 -0.7249 -0.3474 -0.8653
  874MOL0     O15294   5.337  11.432   0.469 -0.2580 -0.6287  0.0996
  874MOL0     C15295   5.234  11.517   0.533  0.2486 -0.0757 -0.7968
  874MOL0     C15296   5.186  11.627   0.447 -0.6044 -0.4289  0.2371
  874MOL0     C15297   5.108  11.562   0.319 -0.2050  0.1343  0.3764
  874MOL0     C15298   5.054  11.665   0.212  0.0004 -0.8072  0.2207
  874MOL0     C15299   5.154  11.745   0.140  0.5098 -0.7762  0.0431
  874MOL0     C15300   5.242  11.801   0.073 -0.1492  0.3492  0.1420
  874MOL0     C15301   5.369  11.319   0.693 -0.0154 -0.3945 -0.1118
  874MOL0     C15302   5.426  11.205   0.768  1.5383 -0.4096  1.2623
  874MOL0     H15303   5.478  10.837   0.981  0.5927  0.9190 -2.3533
  874MOL0     H15304   5.550  10.637   1.107 -0.8697  0.7550  0.2053
  874MOL0     H15305   5.651  10.458   1.157 -1.2752 -0.4390  1.0764
  874MOL0     H15306   5.667  10.516   1.321 -0.8243  0.2346  0.9975
  874MOL0     H15307   5.882  10.329   1.188 -0.8341  0.5042 -1.4757
  874MOL0     H15308   5.759  10.274   1.296  0.8156  0.2944 -1.6585
  874MOL0     H15309   5.821  10.410   1.478  0.8191 -0.0025  1.6470
  874MOL0     H15310   5.937  10.507   1.384 -2.0624  0.5739  0.5922
  874MOL0     H15311   6.088  10.293   1.367  1.0225 -1.0347  1.6971
  874MOL0     H15312   6.042  10.328   1.535 -3.8934  2.9147  1.1458
  874MOL0     H15313   5.915  10.116   1.356 -0.9739  0.2119  0.2481
  874MOL0     H15314   5.838  10.180   1.505 -1.7116 -2.5714 -2.4372
  874MOL0     H15315   5.966   9.962   1.527 -4.1557  0.1405  1.4466
  874MOL0     H15316   5.976  10.098   1.644 -1.2393  1.9658 -1.1845
  874MOL0     H15317   6.214  10.147   1.539  2.2697 -1.0393 -1.7850
  874MOL0     H15318   6.182   9.992   1.624  1.3957 -0.5950 -1.4225
  874MOL0     H15319   6.188  10.046   1.324  0.3443 -0.0515  0.5315
  874MOL0     H15320   6.146   9.895   1.387 -0.6517  0.1514  3.5223
  874MOL0     H15321   6.456  10.094   1.318 -0.8279  0.5348  0.5522
  874MOL0     H15322   6.729  10.022   1.514  0.0672 -1.8805  0.4454
  874MOL0     H15323   6.709  10.054   1.340  0.9418  2.2587  1.1119
  874MOL0     H15324   6.743   9.781   1.322  0.4612 -1.0113  1.1137
  874MOL0     H15325   6.776   9.785   1.488 -0.8027 -1.3134 -1.1938
  874MOL0     H15326   6.959   9.919   1.288 -0.1612  3.2912  2.3101
  874MOL0     H15327   6.958   9.952   1.456 -2.9718  3.1039 -2.4867
  874MOL0     H15328   6.977   9.670   1.309 -2.2669 -0.1250  1.4224
  874MOL0     H15329   6.968   9.694   1.487 -1.7065  3.4725  1.3746
  874MOL0     H15330   7.406   9.796   1.323  0.0475  0.2313 -3.1288
  874MOL0     H15331   7.572   9.611   1.294 -0.6872 -0.8988 -2.2048
  874MOL0     H15332   7.636   9.122   1.396  1.1374 -0.4220  0.4957
  874MOL0     H15333   7.800   8.935   1.352  2.3119 -1.1422 -2.1901
  874MOL0     H15334   7.934   8.802   1.266 -0.8920 -1.3753  1.1919
  874MOL0     H15335   8.014   8.753   1.112  1.0072 -1.8619 -0.0612
  874MOL0     H15336   7.814   8.581   1.115 -2.2508  1.4913  0.6393
  874MOL0     H15337   7.814   8.621   1.291  2.1115  1.3260  1.6166
  874MOL0     H15338   7.960   8.426   1.283  4.2293 -0.5074  2.6146
  874MOL0     H15339   8.041   8.571   1.325  1.5994 -0.5880 -0.6732
  874MOL0     H15340   8.062   8.423   1.054 -0.1697  0.1964 -0.4586
  874MOL0     H15341   8.154   8.569   1.098  1.6528 -0.0557  0.4542
  874MOL0     H15342   8.264   8.461   1.279  0.7989  1.6786 -0.5877
  874MOL0     H15343   8.296   8.383   1.116  1.3043 -1.0694  1.9563
  874MOL0     H15344   8.090   8.252   1.314 -0.7016  1.2404  0.9562
  874MOL0     H15345   8.259   8.228   1.296  0.6896 -1.9697 -2.0770
  874MOL0     H15346   8.034   8.196   1.080  0.9715  2.3964 -3.6733
  874MOL0     H15347   8.215   8.167   1.048  0.4719  1.1354  1.0132
  874MOL0     H15348   8.078   7.966   1.088  0.0673 -1.4449 -0.7721
  874MOL0     H15349   8.050   8.035   1.255 -0.8875  2.5442 -1.2054
  874MOL0     H15350   7.684   8.954   0.936  0.9514 -3.4529  0.5694
  874MOL0     H15351   7.489   9.124   1.000  3.8015  1.6062 -1.7628
  874MOL0     H15352   7.244   9.338   1.257  1.9763  0.3724 -0.9869
  874MOL0     H15353   7.090   9.510   1.321 -0.2033 -0.1982 -1.7392
  874MOL0     H15354   5.956  10.792   1.100  0.6130  0.6755 -0.7419
  874MOL0     H15355   5.867  11.003   0.974  0.5628 -0.4581  2.4918
  874MOL0     H15356   5.561  11.055   0.494  0.0094 -0.4716  0.8804
  874MOL0     H15357   5.455  11.235   0.378  1.3515  1.1459 -0.3024
  874MOL0     H15358   5.273  11.564   0.624  1.9622  2.1394 -2.5604
  874MOL0     H15359   5.151  11.453   0.565  1.0541 -1.4304 -1.3454
  874MOL0     H15360   5.103  11.676   0.499 -3.2239 -3.4142 -0.7793
  874MOL0     H15361   5.263  11.696   0.412 -0.1717  0.6968  3.1401
  874MOL0     H15362   5.015  11.515   0.353 -1.0757  1.1834 -0.4611
  874MOL0     H15363   5.174  11.490   0.271  3.1944  1.5160  2.6441
  874MOL0     H15364   5.001  11.605   0.138 -0.2768  1.5021 -1.5727
  874MOL0     H15365   4.991  11.733   0.269  3.3231  0.8167  2.2752
  874MOL0     H15366   5.318  11.851   0.017  0.2339  1.6787  1.7582
  874MOL0     H15367   5.331  11.405   0.748  3.7838  0.9417  0.7291
  874MOL0     H15368   5.410  11.204   0.875  1.6273  1.3059  1.3279
  875MOL0     O15369  10.910   9.955   3.967 -0.4320  0.4323  0.6351
  875MOL0     C15370  10.946  10.005   3.859 -0.0434 -0.4078  0.4043
  875MOL0     O15371  10.883   9.982   3.736 -0.3237 -0.1427  0.1742
  875MOL0     C15372  10.813   9.868   3.714 -1.3488 -0.1090  0.7733
  875MOL0     C15373  10.825   9.745   3.769 -0.2545  0.2660  0.5218
  875MOL0     C15374  10.735   9.653   3.738 -0.1506  0.0022  0.2090
  875MOL0     C15375  10.629   9.683   3.643  1.0653  0.8442  0.7452
  875MOL0     O15376  10.552   9.574   3.610  0.9583 -0.0831 -0.4214
  875MOL0     C15377  10.440   9.593   3.519 -0.1687  1.3269  0.2576
  875MOL0     C15378  10.348   9.465   3.494 -0.2832  0.2353  0.0114
  875MOL0     C15379  10.218   9.502   3.435  0.1079  0.7791 -0.1457
  875MOL0     C15380  10.115   9.396   3.450  0.2262  0.0677  0.8706
  875MOL0     C15381   9.983   9.427   3.368  0.9778 -0.2509  0.7336
  875MOL0     C15382   9.901   9.535   3.448  0.2055 -0.3156  0.0866
  875MOL0     C15383   9.753   9.516   3.420 -0.1192  0.4379 -0.4188
  875MOL0     C15384   9.691   9.418   3.516 -0.4880  0.5413  0.2697
  875MOL0     N15385   9.544   9.442   3.506  0.3685  0.9380  0.3916
  875MOL0     C15386   9.466   9.412   3.399 -0.3436  0.1659  0.5153
  875MOL0     C15387   9.343   9.437   3.446  0.3526  0.3010 -0.6906
  875MOL0     C15388   9.216   9.448   3.375  0.9881 -1.0012 -0.3741
  875MOL0     C15389   9.117   9.334   3.409 -1.4124  0.8437  0.0058
  875MOL0     C15390   9.011   9.339   3.297 -0.5856  0.3769  1.2527
  875MOL0     C15391   8.921   9.211   3.298  0.4882 -0.3882  0.3240
  875MOL0     O15392   8.818   9.214   3.392  0.2482  0.7632 -0.2583
  875MOL0     C15393   8.700   9.135   3.384  0.2768  0.0713  0.7103
  875MOL0     C15394   8.586   9.188   3.451 -0.4861  0.2386  0.0671
  875MOL0     C15395   8.461   9.126   3.456  0.4610 -0.3156  0.2393
  875MOL0     C15396   8.442   9.011   3.381  1.1668  0.8146  0.1202
  875MOL0     C15397   8.306   8.945   3.360 -0.7013  0.5741 -0.8067
  875MOL0     O15398   8.183   9.015   3.398 -0.2257 -0.0669 -0.4738
  875MOL0     C15399   8.060   8.947   3.382 -0.5683 -0.2634  0.0681
  875MOL0     C15400   7.978   9.016   3.292 -0.4878 -0.1594  0.7902
  875MOL0     C15401   7.869   8.942   3.252 -1.0073 -0.0695  0.8856
  875MOL0     C15402   7.851   8.811   3.275  0.4213 -0.8092 -0.2619
  875MOL0     O15403   7.748   8.760   3.203  1.0143  0.5502 -0.2783
  875MOL0     C15404   7.709   8.621   3.229 -0.3840 -0.2421 -0.0607
  875MOL0     C15405   7.581   8.592   3.146  0.2907 -0.5718  0.2984
  875MOL0     C15406   7.472   8.693   3.173  0.3118 -1.4160  0.5023
  875MOL0     C15407   7.337   8.663   3.101  0.1083 -0.1685 -0.6168
  875MOL0     C15408   7.241   8.780   3.107  0.6696 -0.6969 -0.1658
  875MOL0     C15409   7.299   8.924   3.054 -0.2624 -0.0124  0.2055
  875MOL0     C15410   7.327   8.920   2.908  1.1234  0.7453 -0.0548
  875MOL0     C15411   7.383   9.051   2.868  0.3715 -0.5727  0.2015
  875MOL0    Cl15412   7.402   9.073   2.691  0.4514  0.0308  0.2471
  875MOL0     C15413   7.943   8.748   3.365  0.5890  0.5314  0.3379
  875MOL0     C15414   8.041   8.820   3.430 -0.1723 -0.1118 -0.7810
  875MOL0     O15415   8.308   8.826   3.325 -0.1956  0.9025 -0.2274
  875MOL0     C15416   8.555   8.960   3.313  0.1019  0.0445  0.8993
  875MOL0     C15417   8.677   9.030   3.307  0.0065 -0.3117  0.7834
  875MOL0     N15418   9.348   9.479   3.571  0.0189 -0.5665  0.6296
  875MOL0     N15419   9.464   9.472   3.608  0.3750  1.1280 -0.6596
  875MOL0     C15420  10.628   9.804   3.578  0.0860 -0.9018  1.1631
  875MOL0     C15421  10.735   9.895   3.604 -1.1717  0.1919 -0.5958
  875MOL0     C15422  11.040  10.107   3.853 -1.4448 -0.0913  0.0933
  875MOL0     C15423  11.046  10.195   3.739  0.2637  0.3719 -0.5006
  875MOL0     C15424  11.144  10.288   3.721  0.8291  0.7842  0.5914
  875MOL0     C15425  11.264  10.286   3.799  0.8470 -0.6686 -0.3253
  875MOL0     O15426  11.368  10.372   3.792 -0.0706 -0.5317  0.4087
  875MOL0     C15427  11.383  10.487   3.704 -0.6090  0.9748  1.1473
  875MOL0     C15428  11.502  10.465   3.606  0.7445  0.0999 -1.5528
  875MOL0     C15429  11.634  10.514   3.679 -0.2646  0.4431 -0.1449
  875MOL0     C15430  11.771  10.471   3.620  0.0032 -0.6461  0.4627
  875MOL0     C15431  11.798  10.329   3.638  0.6190 -0.5179  0.6949
  875MOL0     C15432  11.818  10.212   3.648  0.0507 -0.0111 -0.2251
  875MOL0     C15433  11.263  10.199   3.913 -0.3090  0.9230  0.0812
  875MOL0     C15434  11.148  10.112   3.935 -0.0468 -0.0406  0.0722
  875MOL0     H15435  10.897   9.727   3.848 -1.2937 -1.4527  1.1348
  875MOL0     H15436  10.743   9.552   3.778 -1.6135  0.2285  1.1678
  875MOL0     H15437  10.487   9.613   3.422  1.1757 -3.2446 -0.2671
  875MOL0     H15438  10.378   9.676   3.555 -1.9849 -1.3221  3.8776
  875MOL0     H15439  10.340   9.429   3.597  0.5086  1.5045  0.5453
  875MOL0     H15440  10.400   9.397   3.425 -0.1580 -1.1779  1.4461
  875MOL0     H15441  10.233   9.528   3.330 -0.2887  0.8481 -0.1885
  875MOL0     H15442  10.176   9.585   3.494  1.1141  0.1285  1.5716
  875MOL0     H15443  10.153   9.299   3.414 -2.4156 -0.8132  0.2118
  875MOL0     H15444  10.094   9.396   3.557  0.8734  2.7182  1.0573
  875MOL0     H15445   9.933   9.330   3.361 -0.1724  0.3751 -0.2876
  875MOL0     H15446   9.996   9.462   3.265  1.8956  2.7926  1.7693
  875MOL0     H15447   9.920   9.633   3.402 -1.8403 -0.5650 -1.4433
  875MOL0     H15448   9.912   9.534   3.557 -0.0636  1.1616  0.1556
  875MOL0     H15449   9.696   9.609   3.415 -0.9774  0.0041  0.9384
  875MOL0     H15450   9.739   9.482   3.317  4.0564  3.1134 -2.1474
  875MOL0     H15451   9.719   9.429   3.621 -1.1392  0.5445  0.4422
  875MOL0     H15452   9.721   9.321   3.475  1.8448  1.1572  0.3608
  875MOL0     H15453   9.485   9.375   3.299  1.3909  0.7410  0.5904
  875MOL0     H15454   9.256   9.435   3.274  2.6169  1.5644 -0.1325
  875MOL0     H15455   9.169   9.545   3.389 -1.0054 -1.8626 -0.7493
  875MOL0     H15456   9.068   9.335   3.507 -2.7201 -1.6925 -0.5560
  875MOL0     H15457   9.171   9.239   3.402  0.4953  1.4226  3.8582
  875MOL0     H15458   8.952   9.431   3.295  1.4288  1.7292 -0.3890
  875MOL0     H15459   9.059   9.334   3.199 -2.5182  2.6536  0.0883
  875MOL0     H15460   8.994   9.133   3.322  0.5405 -0.1858  0.8489
  875MOL0     H15461   8.874   9.194   3.201  1.4969 -3.2510  0.2339
  875MOL0     H15462   8.588   9.287   3.496 -0.8723 -0.8952  2.7583
  875MOL0     H15463   8.382   9.184   3.502  0.4672  0.3457 -0.5461
  875MOL0     H15464   8.015   9.108   3.246 -0.4881 -1.5076 -2.1661
  875MOL0     H15465   7.794   8.982   3.183  1.0603 -0.4724 -1.7767
  875MOL0     H15466   7.685   8.610   3.335  3.3269  0.1514  0.9658
  875MOL0     H15467   7.782   8.543   3.205  1.9331  1.1558  1.9858
  875MOL0     H15468   7.549   8.489   3.165 -0.0332 -0.6394 -0.5587
  875MOL0     H15469   7.602   8.604   3.039  2.5244 -2.0345  0.4962
  875MOL0     H15470   7.517   8.788   3.142 -1.3214 -0.4733  0.9477
  875MOL0     H15471   7.448   8.702   3.279  1.3668  5.5334  0.6284
  875MOL0     H15472   7.369   8.637   2.999  1.0461 -1.1974 -0.0756
  875MOL0     H15473   7.293   8.576   3.150 -1.5784  0.1802 -1.4245
  875MOL0     H15474   7.201   8.789   3.209 -2.3962 -1.1905 -1.2076
  875MOL0     H15475   7.149   8.754   3.054  0.3411 -2.8283  1.3075
  875MOL0     H15476   7.389   8.958   3.107  0.5068 -1.6135 -0.0296
  875MOL0     H15477   7.227   9.006   3.065  0.9424  1.3302 -1.4630
  875MOL0     H15478   7.390   8.836   2.878  3.4320  2.6378 -0.7355
  875MOL0     H15479   7.226   8.907   2.867  0.5201  2.8610  0.6240
  875MOL0     H15480   7.488   9.059   2.897  0.9261  2.4410 -2.1884
  875MOL0     H15481   7.330   9.138   2.909  2.6396  2.2899 -2.4966
  875MOL0     H15482   7.939   8.643   3.394 -0.0172  0.6359  0.6546
  875MOL0     H15483   8.101   8.784   3.513 -0.1669 -1.1163 -1.2079
  875MOL0     H15484   8.534   8.865   3.266 -0.6195  0.6743 -0.1194
  875MOL0     H15485   8.766   8.985   3.265  0.0583 -2.0809  2.6313
  875MOL0     H15486  10.553   9.808   3.500  1.6275 -3.9208 -0.6766
  875MOL0     H15487  10.744   9.986   3.547  4.7036  0.3688  0.0511
  875MOL0     H15488  10.970  10.219   3.665 -0.3886  1.5897  0.5297
  875MOL0     H15489  11.131  10.359   3.640 -3.6159  0.4014  0.7507
  875MOL0     H15490  11.402  10.577   3.763  1.0338  0.7969  0.9305
  875MOL0     H15491  11.292  10.497   3.643  0.1553 -1.8416 -0.6767
  875MOL0     H15492  11.505  10.364   3.565 -0.7775  0.3608 -2.4010
  875MOL0     H15493  11.498  10.534   3.521 -1.5200  2.6107  0.4316
  875MOL0     H15494  11.635  10.463   3.776 -0.4605  0.8748  0.0871
  875MOL0     H15495  11.637  10.621   3.700 -2.3552  0.5349 -0.1066
  875MOL0     H15496  11.782  10.500   3.515  0.3700  0.3003  0.7546
  875MOL0     H15497  11.848  10.531   3.669  1.7599 -0.6613 -2.0841
  875MOL0     H15498  11.843  10.108   3.645 -1.6899 -0.4740 -0.0559
  875MOL0     H15499  11.360  10.195   3.961 -0.5235  2.1202  0.6651
  875MOL0     H15500  11.152  10.045   4.020 -0.5359  0.0829  0.1984
  876MOL0     O15501   0.531   1.867   0.736  0.3865  0.1352 -0.3510
  876MOL0     C15502   0.592   1.978   0.738 -0.3243 -0.6218 -0.1422
  876MOL0     O15503   0.580   2.075   0.645  0.2087 -0.0990 -0.7689
  876MOL0     C15504   0.522   2.043   0.526 -0.1624 -0.0671  0.5094
  876MOL0     C15505   0.390   2.085   0.507  0.2123 -0.1803  0.6692
  876MOL0     C15506   0.318   2.036   0.402  0.4320 -0.1540 -0.4612
  876MOL0     C15507   0.363   1.932   0.311 -0.2342 -0.4582 -0.3161
  876MOL0     O15508   0.285   1.881   0.210 -0.6645 -0.1803  0.3463
  876MOL0     C15509   0.159   1.934   0.166 -0.0035 -0.1064 -0.2942
  876MOL0     C15510   0.105   1.826   0.077  0.2291  0.4209  0.8724
  876MOL0     C15511   0.053   1.702   0.140  0.4999  0.3080 -0.7089
  876MOL0     C15512  -0.072   1.735   0.216 -0.2608 -1.2251  0.2643
  876MOL0     C15513  -0.138   1.601   0.264 -0.7127  0.2235  0.9694
  876MOL0     C15514  -0.068   1.548   0.385 -0.7063  0.3072  0.1495
  876MOL0     C15515  -0.137   1.418   0.418  0.1784 -0.3895  0.8824
  876MOL0     C15516  -0.052   1.354   0.527  0.6551 -0.2852  0.0309
  876MOL0     N15517  -0.095   1.220   0.535  0.6129 -0.2255 -0.2073
  876MOL0     C15518  -0.207   1.172   0.599  0.7233 -0.3617 -0.0615
  876MOL0     C15519  -0.191   1.041   0.600 -0.8031 -0.3054  0.2123
  876MOL0     C15520  -0.290   0.942   0.653  0.5885 -0.6998 -0.6944
  876MOL0     C15521  -0.329   0.955   0.799 -0.1292  0.6501 -0.0520
  876MOL0     C15522  -0.425   0.844   0.858 -0.8743 -0.3675  0.8744
  876MOL0     C15523  -0.461   0.850   1.014  0.6329 -0.2334 -1.2353
  876MOL0     O15524  -0.354   0.795   1.094 -0.7263  0.2524  0.2441
  876MOL0     C15525  -0.395   0.761   1.220 -0.2064  0.2914 -0.9566
  876MOL0     C15526  -0.297   0.711   1.311  0.3732  0.0437  0.2041
  876MOL0     C15527  -0.320   0.681   1.445  0.3260  0.6556  0.0001
  876MOL0     C15528  -0.449   0.707   1.496  0.9275 -0.1161 -0.0566
  876MOL0     C15529  -0.478   0.699   1.644 -0.0056 -0.7528 -0.2973
  876MOL0     O15530  -0.574   0.788   1.695 -0.0111  0.6747 -0.2221
  876MOL0     C15531  -0.586   0.784   1.831 -0.3199  0.0650 -0.1699
  876MOL0     C15532  -0.479   0.801   1.924 -0.2218 -0.6369 -0.6535
  876MOL0     C15533  -0.498   0.799   2.067  0.8427 -0.1264  0.3260
  876MOL0     C15534  -0.618   0.746   2.121 -0.4119 -0.0454  0.2952
  876MOL0     O15535  -0.638   0.719   2.257 -0.1693  0.4282 -0.7803
  876MOL0     C15536  -0.518   0.673   2.324 -0.6279 -0.0827  0.9910
  876MOL0     C15537  -0.548   0.624   2.463  1.0097  0.2995  0.3122
  876MOL0     C15538  -0.429   0.604   2.550 -1.0514  0.1223 -0.1110
  876MOL0     C15539  -0.445   0.573   2.703  0.2047 -0.2457  0.7790
  876MOL0     C15540  -0.523   0.435   2.699  0.1653  0.4044 -0.3471
  876MOL0     C15541  -0.561   0.398   2.851 -0.0064  0.1929  1.3673
  876MOL0     C15542  -0.648   0.279   2.840 -0.0654  0.9571 -0.8309
  876MOL0     C15543  -0.649   0.197   2.976  0.2752  0.2947 -0.1254
  876MOL0    Cl15544  -0.696   0.294   3.112 -0.2741 -0.7648 -0.3226
  876MOL0     C15545  -0.717   0.707   2.028 -0.4729  0.6347 -0.0327
  876MOL0     C15546  -0.707   0.735   1.892 -0.6287  0.7590 -0.5440
  876MOL0     O15547  -0.414   0.620   1.713  0.3952  0.0243 -0.2488
  876MOL0     C15548  -0.547   0.758   1.414 -0.4461 -0.1559 -0.8049
  876MOL0     C15549  -0.523   0.781   1.280  0.3329 -1.0855 -0.7061
  876MOL0     N15550  -0.075   1.007   0.541 -0.3370  0.9274  0.3096
  876MOL0     N15551  -0.024   1.113   0.497 -0.3118 -0.1611 -0.1246
  876MOL0     C15552   0.496   1.892   0.339 -0.1386  0.5869  0.4209
  876MOL0     C15553   0.574   1.947   0.436  0.3290 -0.2324  0.0196
  876MOL0     C15554   0.681   1.992   0.857  0.5431  0.0900 -0.7077
  876MOL0     C15555   0.673   1.905   0.973  0.9258  0.1833 -0.1735
  876MOL0     C15556   0.755   1.924   1.077 -0.8028  0.3732  0.1644
  876MOL0     C15557   0.848   2.022   1.077  0.2958  0.5084 -0.7337
  876MOL0     O15558   0.936   2.038   1.181 -0.4144  0.2738  0.5582
  876MOL0     C15559   0.940   2.146   1.274 -0.3440  0.5721  0.5488
  876MOL0     C15560   0.814   2.143   1.349  0.2989  0.1002 -0.2858
  876MOL0     C15561   0.788   2.014   1.429  0.7877 -0.9527 -0.0483
  876MOL0     C15562   0.651   2.012   1.492  0.4103 -0.0778 -0.2029
  876MOL0     C15563   0.649   2.106   1.606  0.8781 -0.0071 -0.2076
  876MOL0     C15564   0.642   2.187   1.689 -0.3675  0.2691 -0.1838
  876MOL0     C15565   0.863   2.106   0.968 -0.8446  0.1602  0.3242
  876MOL0     C15566   0.775   2.091   0.857 -0.1384 -0.6857  0.1682
  876MOL0     H15567   0.340   2.147   0.581  0.7565 -0.0142  0.9063
  876MOL0     H15568   0.213   2.063   0.409  0.3219 -0.8822  1.4671
  876MOL0     H15569   0.172   2.025   0.106  0.7583  0.0738  0.1396
  876MOL0     H15570   0.102   1.950   0.258  2.5992  0.5897  1.2830
  876MOL0     H15571   0.183   1.786   0.012  2.1676  1.3980  2.4802
  876MOL0     H15572   0.016   1.869   0.029 -1.4264  0.7998  3.9755
  876MOL0     H15573   0.124   1.665   0.214 -0.0923 -0.6701 -0.6052
  876MOL0     H15574   0.041   1.618   0.071  1.6371 -0.0078 -0.5455
  876MOL0     H15575  -0.033   1.798   0.296  0.6283 -1.9078  0.3751
  876MOL0     H15576  -0.146   1.791   0.158  1.3635 -1.5802 -2.3113
  876MOL0     H15577  -0.150   1.532   0.180  0.2601  0.5422  0.5544
  876MOL0     H15578  -0.232   1.628   0.312 -0.4101 -0.4122  1.9262
  876MOL0     H15579  -0.079   1.616   0.470 -1.0916  0.4792 -0.0365
  876MOL0     H15580   0.040   1.532   0.373 -0.4036  1.5125  1.0379
  876MOL0     H15581  -0.238   1.439   0.455  0.4426  3.4548 -0.1049
  876MOL0     H15582  -0.131   1.357   0.328  1.7700 -1.3460  1.6007
  876MOL0     H15583  -0.065   1.415   0.616  1.5787  1.9902 -1.3230
  876MOL0     H15584   0.054   1.361   0.499  1.5410 -2.4675  2.4114
  876MOL0     H15585  -0.282   1.223   0.658  3.2605  1.5629  1.6752
  876MOL0     H15586  -0.254   0.840   0.637  1.3859 -0.3883 -0.9499
  876MOL0     H15587  -0.382   0.950   0.594 -2.0336  1.9904  3.2688
  876MOL0     H15588  -0.379   1.052   0.804  1.3614  1.5736 -1.9509
  876MOL0     H15589  -0.233   0.969   0.848  0.7874 -0.1079 -1.5467
  876MOL0     H15590  -0.516   0.858   0.799 -2.2354 -0.1719  2.9156
  876MOL0     H15591  -0.380   0.748   0.832 -2.4879 -1.4001  1.7246
  876MOL0     H15592  -0.546   0.783   1.033  2.9127 -2.7799  0.9667
  876MOL0     H15593  -0.478   0.952   1.048 -0.3107 -0.2888 -1.5128
  876MOL0     H15594  -0.195   0.694   1.276  0.6371 -1.8848  1.7376
  876MOL0     H15595  -0.237   0.638   1.500 -0.2910 -1.3794 -0.5677
  876MOL0     H15596  -0.377   0.812   1.888  0.2593 -5.3138 -1.2828
  876MOL0     H15597  -0.428   0.834   2.142 -0.0902  1.1966  0.6166
  876MOL0     H15598  -0.442   0.751   2.325 -0.7672  0.1516 -1.2906
  876MOL0     H15599  -0.477   0.587   2.271 -1.6598 -0.1789  0.3007
  876MOL0     H15600  -0.598   0.528   2.451  2.4723 -0.1741 -3.2763
  876MOL0     H15601  -0.595   0.702   2.524  4.4792  0.5380  3.0487
  876MOL0     H15602  -0.379   0.700   2.537 -2.7944  0.8149 -2.4354
  876MOL0     H15603  -0.358   0.536   2.502 -2.3277 -2.4851  1.4866
  876MOL0     H15604  -0.350   0.568   2.758  0.6309 -0.6319  0.0199
  876MOL0     H15605  -0.499   0.657   2.749 -1.8737 -1.5029  0.7459
  876MOL0     H15606  -0.455   0.355   2.670  2.6143  0.6009  4.0957
  876MOL0     H15607  -0.620   0.436   2.647 -1.2611 -4.1532  1.7190
  876MOL0     H15608  -0.616   0.485   2.887  0.9520  1.6887 -0.6071
  876MOL0     H15609  -0.475   0.371   2.914  0.3456 -2.0360  0.0270
  876MOL0     H15610  -0.744   0.318   2.806  0.4167  1.7306 -1.3457
  876MOL0     H15611  -0.618   0.212   2.759 -1.7503 -0.8611 -0.0457
  876MOL0     H15612  -0.557   0.139   2.987  0.3363 -1.9179 -7.3283
  876MOL0     H15613  -0.721   0.115   2.968  1.6589 -1.3191  2.3704
  876MOL0     H15614  -0.813   0.672   2.066  0.4134 -1.0032  0.8023
  876MOL0     H15615  -0.786   0.701   1.827  1.9311  0.1193 -3.6015
  876MOL0     H15616  -0.644   0.771   1.463 -1.4139  0.7995 -2.8635
  876MOL0     H15617  -0.605   0.825   1.223  1.7904  1.1112 -1.2155
  876MOL0     H15618   0.533   1.812   0.275  1.7368  0.1390  1.9816
  876MOL0     H15619   0.673   1.906   0.456  1.3502  2.0138 -0.1396
  876MOL0     H15620   0.597   1.829   0.959  2.2116 -0.9098 -1.6661
  876MOL0     H15621   0.749   1.857   1.162 -0.6057 -1.3289 -1.1304
  876MOL0     H15622   0.952   2.239   1.216  1.6196 -1.2081 -2.1613
  876MOL0     H15623   1.033   2.135   1.330 -0.3794 -0.0562  0.4895
  876MOL0     H15624   0.813   2.229   1.416  0.0653  0.8331 -1.2026
  876MOL0     H15625   0.730   2.167   1.282 -0.9360 -0.7220  0.9227
  876MOL0     H15626   0.864   1.986   1.503 -1.2166 -0.6119  2.2438
  876MOL0     H15627   0.792   1.942   1.346  0.2619  2.8733 -3.7213
  876MOL0     H15628   0.582   2.036   1.410  1.8789 -2.0741 -2.1428
  876MOL0     H15629   0.633   1.911   1.529 -3.3745  0.7501  0.6779
  876MOL0     H15630   0.640   2.270   1.757  0.1484  1.2929 -1.3751
  876MOL0     H15631   0.948   2.173   0.967 -1.0706  0.4439 -0.2446
  876MOL0     H15632   0.788   2.159   0.773  1.6531 -2.5695 -1.1607
  877MOL0     O15633   4.159   9.479   5.764  0.0545 -0.1597  0.3205
  877MOL0     C15634   4.227   9.495   5.665 -0.3012  0.2314  0.3957
  877MOL0     O15635   4.243   9.597   5.582  0.4611  0.0512 -0.2841
  877MOL0     C15636   4.166   9.714   5.604 -0.1761  0.0943  0.4528
  877MOL0     C15637   4.026   9.708   5.636  0.3284 -0.0187  0.7158
  877MOL0     C15638   3.948   9.829   5.654  0.7812  0.6383 -0.3332
  877MOL0     C15639   4.008   9.946   5.626  0.1246  0.1650 -0.2608
  877MOL0     O15640   3.929  10.064   5.644 -0.2528  0.7205  0.3145
  877MOL0     C15641   3.932  10.153   5.532  0.0312 -0.2366  0.4169
  877MOL0     C15642   3.856  10.279   5.547 -0.2157 -0.2218 -0.2384
  877MOL0     C15643   3.920  10.353   5.666 -0.4089 -0.3949 -0.5034
  877MOL0     C15644   3.818  10.436   5.730 -0.1728  0.0461 -0.7034
  877MOL0     C15645   3.882  10.524   5.840  0.9077 -0.5370 -0.2084
  877MOL0     C15646   3.774  10.612   5.917  0.3005 -0.1002 -0.4439
  877MOL0     C15647   3.837  10.697   6.035 -0.0983  0.6078 -0.5135
  877MOL0     C15648   3.957  10.783   6.001  0.7663  0.6535 -0.7685
  877MOL0     N15649   4.033  10.838   6.118  0.4604 -0.8005 -0.5065
  877MOL0     C15650   4.067  10.770   6.233  0.4711 -0.3636  0.6363
  877MOL0     C15651   4.153  10.854   6.300  0.7339 -0.0913  0.6878
  877MOL0     C15652   4.216  10.841   6.433  0.4858 -0.6039 -0.1696
  877MOL0     C15653   4.342  10.753   6.443  0.1950  0.4727 -0.2889
  877MOL0     C15654   4.461  10.790   6.345  0.3746  0.2510 -0.6932
  877MOL0     C15655   4.533  10.921   6.398  0.6839 -0.6816  0.5271
  877MOL0     O15656   4.567  10.903   6.541  0.1375 -1.0837 -0.0304
  877MOL0     C15657   4.671  10.976   6.595 -0.7022  0.5090  0.6866
  877MOL0     C15658   4.758  11.060   6.516  0.4114 -0.7884  0.0445
  877MOL0     C15659   4.849  11.147   6.584  1.2537 -0.1139 -1.0716
  877MOL0     C15660   4.863  11.148   6.722  0.3499 -0.4703 -0.7159
  877MOL0     C15661   4.954  11.250   6.781  0.3041  0.1549  0.1807
  877MOL0     O15662   4.989  11.222   6.904 -0.6170  0.6373 -0.2552
  877MOL0     C15663   5.101  11.285   6.962 -1.1285  0.1909 -0.9017
  877MOL0     C15664   5.077  11.367   7.077  0.0229 -0.6310 -0.3398
  877MOL0     C15665   5.185  11.449   7.113 -0.1712  0.0881  0.3812
  877MOL0     C15666   5.314  11.430   7.065  0.1822 -0.4246  0.3310
  877MOL0     O15667   5.422  11.517   7.088  0.1200 -0.2615 -0.3419
  877MOL0     C15668   5.411  11.619   7.184 -0.1419 -0.3827 -0.5671
  877MOL0     C15669   5.534  11.716   7.166 -0.6579  0.9691 -0.4403
  877MOL0     C15670   5.659  11.669   7.247  0.4754 -0.3212  0.6628
  877MOL0     C15671   5.789  11.748   7.232 -0.1293 -0.4819  0.0596
  877MOL0     C15672   5.800  11.903   7.266  0.2624 -0.2790 -0.6763
  877MOL0     C15673   5.940  11.941   7.287 -0.7121  0.0042  0.3126
  877MOL0     C15674   5.954  12.089   7.336  0.2552  0.6037 -0.5264
  877MOL0     C15675   5.923  12.179   7.220 -0.6361 -1.3251  0.5088
  877MOL0    Cl15676   5.963  12.348   7.272 -0.2041  0.1416  0.1506
  877MOL0     C15677   5.332  11.343   6.955 -0.5470  0.4606  0.3458
  877MOL0     C15678   5.227  11.268   6.905  0.5552  0.5974  0.6505
  877MOL0     O15679   4.987  11.348   6.715 -0.1197  0.0599 -0.4783
  877MOL0     C15680   4.789  11.054   6.794  0.3304 -1.1197 -0.4825
  877MOL0     C15681   4.695  10.976   6.728  0.5818 -0.0052  0.1988
  877MOL0     N15682   4.165  10.967   6.220 -0.3379  0.3440 -0.8841
  877MOL0     N15683   4.099  10.955   6.113  0.4106 -0.0326  0.2465
  877MOL0     C15684   4.145   9.956   5.584 -0.0440  0.6945  0.2607
  877MOL0     C15685   4.223   9.838   5.574 -0.5184  0.1494  0.4178
  877MOL0     C15686   4.314   9.373   5.636  0.1676 -0.6625 -0.2839
  877MOL0     C15687   4.293   9.256   5.705  0.7949  1.1692  0.0132
  877MOL0     C15688   4.379   9.149   5.691 -0.4798  0.0102 -0.9714
  877MOL0     C15689   4.479   9.147   5.592 -0.1226 -0.0537 -0.4325
  877MOL0     O15690   4.562   9.039   5.569  0.4805  0.3616 -0.1306
  877MOL0     C15691   4.513   8.907   5.563  0.7323  0.3282 -0.4254
  877MOL0     C15692   4.608   8.792   5.522 -0.8118 -0.0849 -0.7439
  877MOL0     C15693   4.719   8.773   5.621  0.3441 -0.2969 -0.8715
  877MOL0     C15694   4.805   8.645   5.578 -0.5590 -0.2776  0.0662
  877MOL0     C15695   4.740   8.517   5.588  0.3619 -1.1291  0.1729
  877MOL0     C15696   4.681   8.409   5.595 -0.8535  0.2817 -0.4060
  877MOL0     C15697   4.500   9.271   5.519 -0.2631 -0.6534  0.1283
  877MOL0     C15698   4.414   9.380   5.541 -0.5133 -0.0792  0.3171
  877MOL0     H15699   3.984   9.609   5.650 -1.1604  0.4662 -0.0799
  877MOL0     H15700   3.844   9.821   5.682  1.2832 -1.0564  1.3150
  877MOL0     H15701   3.877  10.107   5.450  2.4907 -0.1259 -1.3917
  877MOL0     H15702   4.034  10.178   5.504 -0.7324  0.6360 -1.7350
  877MOL0     H15703   3.752  10.255   5.572 -0.7102  0.1952 -1.8097
  877MOL0     H15704   3.860  10.331   5.451  5.7811 -1.4946 -1.0859
  877MOL0     H15705   4.001  10.419   5.632 -0.6440  1.4269  2.1474
  877MOL0     H15706   3.954  10.282   5.741  1.7393  0.2893 -0.7652
  877MOL0     H15707   3.761  10.506   5.669 -0.1830  1.9018  1.3163
  877MOL0     H15708   3.739  10.374   5.773 -0.7266  1.5080  0.4845
  877MOL0     H15709   3.952  10.585   5.782  2.1880  0.7106  2.5016
  877MOL0     H15710   3.938  10.462   5.910  1.8620 -1.1913 -1.5139
  877MOL0     H15711   3.696  10.540   5.945 -0.4375  0.0159 -2.0886
  877MOL0     H15712   3.737  10.683   5.843 -1.7239  1.5074  1.9788
  877MOL0     H15713   3.767  10.760   6.091 -1.5041 -0.8485 -0.5580
  877MOL0     H15714   3.868  10.614   6.098 -3.3842 -0.5219 -0.1535
  877MOL0     H15715   3.931  10.866   5.934 -1.7409  0.3900 -0.2139
  877MOL0     H15716   4.020  10.715   5.943  2.3622 -0.5923  2.2163
  877MOL0     H15717   4.041  10.671   6.271  2.3963 -1.7977 -1.5089
  877MOL0     H15718   4.146  10.802   6.508  1.7388 -0.5709  1.0646
  877MOL0     H15719   4.252  10.937   6.470  0.9597 -1.7917  2.7393
  877MOL0     H15720   4.304  10.654   6.416 -0.2935  0.5299  0.1603
  877MOL0     H15721   4.377  10.760   6.547  3.9915 -2.1585 -1.2166
  877MOL0     H15722   4.519  10.700   6.321 -1.1083 -0.5160 -1.5814
  877MOL0     H15723   4.419  10.805   6.245 -1.2552  0.3432 -0.0105
  877MOL0     H15724   4.472  11.012   6.393 -1.3709 -1.9635  1.0371
  877MOL0     H15725   4.612  10.948   6.328 -1.2685 -1.0033 -1.9312
  877MOL0     H15726   4.760  11.063   6.408 -1.5239  1.1739 -0.0186
  877MOL0     H15727   4.917  11.209   6.527  1.4242 -2.1910 -3.2982
  877MOL0     H15728   4.975  11.378   7.114  1.0920  0.7483  2.4383
  877MOL0     H15729   5.182  11.523   7.192  2.7810 -0.8193  1.4845
  877MOL0     H15730   5.407  11.576   7.285 -0.4266 -4.8559 -2.2765
  877MOL0     H15731   5.325  11.683   7.162  0.9198  0.3567 -2.7876
  877MOL0     H15732   5.507  11.818   7.197  1.2142  0.6992  2.4888
  877MOL0     H15733   5.560  11.705   7.060  1.4756  0.4017  0.0823
  877MOL0     H15734   5.678  11.576   7.192 -2.2673 -0.3651 -0.3663
  877MOL0     H15735   5.635  11.643   7.351 -1.0171 -1.2717  0.1240
  877MOL0     H15736   5.871  11.704   7.289  0.1851  0.2251  0.1699
  877MOL0     H15737   5.807  11.727   7.126 -2.0206 -3.9702  0.2915
  877MOL0     H15738   5.741  11.933   7.354  2.4964  1.6858  0.2721
  877MOL0     H15739   5.761  11.957   7.179  4.0193  0.0040 -2.3911
  877MOL0     H15740   5.993  11.923   7.193 -1.5306  1.1323 -0.4005
  877MOL0     H15741   5.991  11.881   7.363 -0.4489  0.7984  0.7655
  877MOL0     H15742   5.892  12.106   7.425 -1.4547  0.1711 -1.5890
  877MOL0     H15743   6.054  12.114   7.373  2.0107 -2.3905 -2.7681
  877MOL0     H15744   5.818  12.178   7.191 -0.2122 -0.9703 -1.1332
  877MOL0     H15745   5.981  12.157   7.130  0.0916 -2.6297  1.2549
  877MOL0     H15746   5.428  11.320   6.910 -2.7064 -4.0951 -2.7199
  877MOL0     H15747   5.238  11.204   6.818  1.7623  2.5814 -0.7435
  877MOL0     H15748   4.794  11.052   6.902 -0.9083 -1.0417 -0.4087
  877MOL0     H15749   4.633  10.905   6.781  3.6527 -2.4840  0.7236
  877MOL0     H15750   4.196  10.049   5.562 -1.8768  0.8825 -4.3325
  877MOL0     H15751   4.326   9.848   5.543 -0.7261 -1.8230 -1.1078
  877MOL0     H15752   4.212   9.242   5.775  0.9011 -0.1636 -0.1004
  877MOL0     H15753   4.359   9.061   5.752  2.5434 -0.6933 -0.8540
  877MOL0     H15754   4.440   8.911   5.482 -0.4904 -2.3187  0.4291
  877MOL0     H15755   4.469   8.881   5.659  0.0941  0.7968 -0.5782
  877MOL0     H15756   4.547   8.701   5.518  0.0460 -0.7926  1.1755
  877MOL0     H15757   4.650   8.809   5.422  1.9432  1.0800  0.5211
  877MOL0     H15758   4.672   8.753   5.718 -0.6585  0.3246 -1.2087
  877MOL0     H15759   4.778   8.865   5.616  0.9420 -0.7528 -3.5658
  877MOL0     H15760   4.858   8.668   5.485 -1.9502 -0.8557 -0.9120
  877MOL0     H15761   4.884   8.655   5.653 -0.7772  5.4792 -0.0054
  877MOL0     H15762   4.629   8.319   5.617 -0.5507  0.5732  1.7154
  877MOL0     H15763   4.572   9.280   5.438  2.6587  1.7414  2.7238
  877MOL0     H15764   4.427   9.467   5.477  0.4592  1.4231  2.4406
  878MOL0     O15765   0.429   1.146   9.627 -0.5677  0.1688 -0.7449
  878MOL0     C15766   0.448   1.221   9.533 -0.6557 -0.3643  0.1370
  878MOL0     O15767   0.536   1.324   9.536  0.5708 -0.8125 -0.7996
  878MOL0     C15768   0.633   1.326   9.639  1.1108  0.4726  0.5797
  878MOL0     C15769   0.768   1.276   9.627 -0.2429  0.3842  0.2280
  878MOL0     C15770   0.849   1.302   9.737  0.3706 -0.0135  0.0357
  878MOL0     C15771   0.796   1.371   9.855  0.1100 -0.8384  0.1157
  878MOL0     O15772   0.869   1.369   9.966 -0.1345  0.0812 -1.4637
  878MOL0     C15773   0.862   1.468  10.069  0.2460 -0.3904  1.1732
  878MOL0     C15774   0.970   1.426  10.170 -0.0154  0.3350 -0.6698
  878MOL0     C15775   0.956   1.497  10.308 -0.1881  0.0481  0.4989
  878MOL0     C15776   1.069   1.476  10.406  1.1838  0.6185  0.1248
  878MOL0     C15777   1.036   1.547  10.534  0.3160 -0.5843 -0.0048
  878MOL0     C15778   1.138   1.508  10.643 -0.2443  0.2471 -0.0735
  878MOL0     C15779   1.096   1.577  10.772  1.3749 -0.5877  0.5042
  878MOL0     C15780   1.164   1.524  10.897 -0.5588  0.8198 -0.8781
  878MOL0     N15781   1.121   1.582  11.038 -0.4467 -0.5561  0.4182
  878MOL0     C15782   1.199   1.655  11.119 -0.2925 -0.5922  0.4669
  878MOL0     C15783   1.119   1.702  11.218 -0.4506 -0.0557 -0.1024
  878MOL0     C15784   1.158   1.780  11.340 -0.0980 -0.5551  0.3415
  878MOL0     C15785   1.047   1.792  11.447  0.5467  0.6416  0.5866
  878MOL0     C15786   1.006   1.656  11.513  0.3235  0.4314  0.2890
  878MOL0     C15787   0.933   1.675  11.646  0.3136  0.3475  0.0206
  878MOL0     O15788   0.942   1.549  11.720 -0.1953  0.3103 -0.1159
  878MOL0     C15789   0.916   1.548  11.851  0.0233  0.4312 -0.1444
  878MOL0     C15790   0.976   1.446  11.924  0.6635 -0.2757  0.4137
  878MOL0     C15791   0.949   1.434  12.063 -0.4939 -0.2085 -0.3703
  878MOL0     C15792   0.860   1.506  12.134  0.5951 -0.9820  0.4760
  878MOL0     C15793   0.830   1.475  12.282 -0.7236  0.3715  0.2862
  878MOL0     O15794   0.740   1.569  12.340  0.3364  1.1090 -0.0429
  878MOL0     C15795   0.731   1.567  12.474  0.0727 -0.1631 -0.4637
  878MOL0     C15796   0.839   1.590  12.558  0.1234  0.0753  0.0841
  878MOL0     C15797   0.834   1.577  12.701 -0.2684 -0.3923 -0.1830
  878MOL0     C15798   0.702   1.554  12.761  0.7039 -0.2733  0.1993
  878MOL0     O15799   0.701   1.538  12.898  0.1647  0.2985 -1.0524
  878MOL0     C15800   0.601   1.463  12.960  0.7500  0.5317  0.9773
  878MOL0     C15801   0.643   1.423  13.099  0.2815  0.1129 -0.4687
  878MOL0     C15802   0.535   1.332  13.161 -0.2547 -0.4497 -1.1768
  878MOL0     C15803   0.565   1.285  13.302 -0.7939  0.9066 -0.2253
  878MOL0     C15804   0.461   1.181  13.356  0.5978  0.1411  0.4675
  878MOL0     C15805   0.447   1.049  13.280  0.0315  0.4450  0.0736
  878MOL0     C15806   0.584   0.969  13.287  0.3887 -0.1640 -0.3605
  878MOL0     C15807   0.578   0.835  13.217 -0.0753  0.0319  0.5389
  878MOL0    Cl15808   0.472   0.713  13.313  0.2055  0.0846  0.3226
  878MOL0     C15809   0.605   1.524  12.676 -0.1148  0.8335  0.4600
  878MOL0     C15810   0.613   1.522  12.534 -0.4631  0.2019 -0.9967
  878MOL0     O15811   0.888   1.386  12.340 -0.4102 -0.0609  0.7431
  878MOL0     C15812   0.810   1.621  12.061  0.3887  0.0818 -0.8490
  878MOL0     C15813   0.832   1.636  11.920  0.8697 -0.5607 -0.1947
  878MOL0     N15814   0.995   1.656  11.192  0.4078  0.4046  0.8919
  878MOL0     N15815   0.994   1.584  11.082  0.2749 -1.5638 -0.2377
  878MOL0     C15816   0.669   1.422   9.860  0.3740 -0.3129  0.9388
  878MOL0     C15817   0.596   1.412   9.748 -0.0288  0.2496  0.3860
  878MOL0     C15818   0.404   1.184   9.391 -0.1872 -0.3478 -0.8226
  878MOL0     C15819   0.464   1.257   9.285 -0.0493  0.6574 -1.3429
  878MOL0     C15820   0.420   1.256   9.155  1.6413  0.0089 -0.3277
  878MOL0     C15821   0.323   1.165   9.118 -0.4501 -0.0796 -0.4687
  878MOL0     O15822   0.297   1.149   8.984 -0.2377 -0.3586  0.3800
  878MOL0     C15823   0.170   1.188   8.936 -0.7778  0.2270 -0.2604
  878MOL0     C15824   0.217   1.315   8.850 -1.4118 -0.6318 -0.0122
  878MOL0     C15825   0.118   1.389   8.778 -0.1416 -0.4834  0.0097
  878MOL0     C15826   0.139   1.540   8.745 -0.6955 -0.1338  0.4915
  878MOL0     C15827   0.113   1.618   8.864 -0.7782  0.4909 -1.1351
  878MOL0     C15828   0.091   1.669   8.971 -0.4541  0.5074  0.1397
  878MOL0     C15829   0.274   1.075   9.215  0.8531  0.2447 -0.1520
  878MOL0     C15830   0.308   1.086   9.352  0.1886  0.1173 -0.4922
  878MOL0     H15831   0.812   1.226   9.541 -2.1257  3.1487 -2.5626
  878MOL0     H15832   0.952   1.270   9.730  0.9473  1.8092 -0.5017
  878MOL0     H15833   0.771   1.449  10.126  1.7088  3.3287  5.3608
  878MOL0     H15834   0.860   1.573  10.039 -0.3257 -0.0587  2.3048
  878MOL0     H15835   1.069   1.444  10.127  2.1976 -1.5063  3.0964
  878MOL0     H15836   0.965   1.318  10.181  0.1253  0.4226  0.4204
  878MOL0     H15837   0.869   1.439  10.343  0.1473 -1.9984 -1.8136
  878MOL0     H15838   0.931   1.600  10.283  1.3827 -0.2049 -2.5714
  878MOL0     H15839   1.066   1.369  10.426 -2.0682  1.0258  2.6086
  878MOL0     H15840   1.166   1.519  10.380  0.4769  2.0075 -0.3531
  878MOL0     H15841   0.932   1.533  10.565  0.3463 -2.8629 -0.7882
  878MOL0     H15842   1.042   1.655  10.514  0.6420 -0.3272  1.4273
  878MOL0     H15843   1.237   1.543  10.611  0.6956 -0.5923  1.7350
  878MOL0     H15844   1.139   1.401  10.663  1.0168  0.2440 -0.0823
  878MOL0     H15845   1.093   1.686  10.764  0.4843 -0.6566 -0.2292
  878MOL0     H15846   0.990   1.550  10.774  1.2122 -1.1738 -4.3179
  878MOL0     H15847   1.273   1.530  10.890 -0.3406 -2.9565 -4.5857
  878MOL0     H15848   1.135   1.419  10.891 -0.4985  0.8503 -2.0272
  878MOL0     H15849   1.303   1.683  11.113 -0.7126  0.7227 -2.8299
  878MOL0     H15850   1.171   1.884  11.308  0.7457 -0.0800  2.1217
  878MOL0     H15851   1.255   1.758  11.383  0.3406  0.9436  0.2028
  878MOL0     H15852   0.972   1.846  11.388  1.9701 -1.8794 -4.0370
  878MOL0     H15853   1.094   1.857  11.521  0.6786  1.5957 -0.3144
  878MOL0     H15854   0.947   1.587  11.451  1.0002  0.4434 -0.3786
  878MOL0     H15855   1.097   1.599  11.530 -1.5646 -2.6186  1.0654
  878MOL0     H15856   0.827   1.698  11.633  0.8412  0.9644 -4.6939
  878MOL0     H15857   0.968   1.763  11.700  2.0201 -1.4679  2.1057
  878MOL0     H15858   1.052   1.377  11.890  2.9805  0.3117  3.8403
  878MOL0     H15859   1.004   1.358  12.119 -0.0830  0.5712  0.3085
  878MOL0     H15860   0.934   1.616  12.512 -0.9961  0.0109 -2.4119
  878MOL0     H15861   0.930   1.594  12.748  0.2890 -1.6919 -0.8144
  878MOL0     H15862   0.581   1.375  12.900  0.1541 -0.1793  2.1753
  878MOL0     H15863   0.501   1.507  12.952 -0.7070 -2.6085  0.4386
  878MOL0     H15864   0.687   1.504  13.157 -0.7438  0.7216 -0.5251
  878MOL0     H15865   0.731   1.363  13.074 -0.9048 -0.0556 -5.3575
  878MOL0     H15866   0.536   1.244  13.095 -1.2494 -1.8615  0.6239
  878MOL0     H15867   0.441   1.388  13.164  2.0723  3.8716 -0.7542
  878MOL0     H15868   0.663   1.237  13.314 -0.5672  2.0031  3.3095
  878MOL0     H15869   0.567   1.363  13.378 -2.3025 -1.3915  2.3767
  878MOL0     H15870   0.368   1.239  13.361  0.6225  0.1408  1.0036
  878MOL0     H15871   0.488   1.175  13.462  2.2147  1.8206  0.2012
  878MOL0     H15872   0.420   1.072  13.177 -1.9570 -3.7572 -0.5894
  878MOL0     H15873   0.378   0.976  13.324 -0.1753 -0.1470 -1.1795
  878MOL0     H15874   0.668   1.026  13.247  0.5665 -0.6036 -0.6233
  878MOL0     H15875   0.608   0.944  13.391  1.1097 -1.4312 -0.8087
  878MOL0     H15876   0.674   0.784  13.204  1.4112  1.5825  4.1032
  878MOL0     H15877   0.527   0.838  13.120 -2.0960 -1.1115  1.5063
  878MOL0     H15878   0.513   1.475  12.706 -1.2744 -1.7568 -5.8541
  878MOL0     H15879   0.524   1.486  12.483 -1.3595  1.0662 -0.0696
  878MOL0     H15880   0.763   1.699  12.119  1.6993  1.2726 -1.3287
  878MOL0     H15881   0.817   1.729  11.866  2.2875 -0.4589 -0.4616
  878MOL0     H15882   0.625   1.457   9.953  0.8595  1.4268  0.5537
  878MOL0     H15883   0.495   1.452   9.749  0.5463  1.8625 -1.2327
  878MOL0     H15884   0.541   1.330   9.305  1.2604 -0.6321 -1.5032
  878MOL0     H15885   0.474   1.313   9.081  0.7692  1.7323  0.3073
  878MOL0     H15886   0.103   1.215   9.018  0.4911  2.7214  0.0337
  878MOL0     H15887   0.140   1.114   8.861 -0.1284 -1.0990  0.7459
  878MOL0     H15888   0.266   1.376   8.927  1.2627 -2.6884  0.0464
  878MOL0     H15889   0.299   1.275   8.789  0.9654  0.8178  2.0243
  878MOL0     H15890   0.028   1.389   8.840 -1.8222  2.6695 -2.1055
  878MOL0     H15891   0.106   1.334   8.684  4.6020  0.8846 -1.6339
  878MOL0     H15892   0.233   1.564   8.694 -1.2477 -1.2405 -1.1490
  878MOL0     H15893   0.063   1.564   8.670 -0.8334 -2.1137 -0.0780
  878MOL0     H15894   0.085   1.729   9.060  1.2305  4.5689 -2.2069
  878MOL0     H15895   0.200   1.000   9.189  0.8686 -0.5850  1.9837
  878MOL0     H15896   0.266   1.017   9.425  2.2952 -2.3532 -1.4538
  879MOL0     O15897   3.749  10.686  10.448  1.0639 -0.2913  0.4484
  879MOL0     C15898   3.834  10.670  10.365  0.2262 -0.7447 -0.0473
  879MOL0     O15899   3.960  10.656  10.397 -0.0672  0.5157 -0.0686
  879MOL0     C15900   4.019  10.622  10.520  0.0425  0.5509  0.2035
  879MOL0     C15901   4.159  10.596  10.518  0.8053 -0.4580  0.0809
  879MOL0     C15902   4.229  10.568  10.638 -0.3880 -0.5975 -0.4079
  879MOL0     C15903   4.157  10.591  10.763 -0.1984 -0.4734 -0.3048
  879MOL0     O15904   4.220  10.575  10.882 -0.0063  0.0391 -0.2183
  879MOL0     C15905   4.332  10.486  10.884 -0.5584 -0.1924  0.2906
  879MOL0     C15906   4.387  10.467  11.025  0.2086 -0.3362  0.2465
  879MOL0     C15907   4.292  10.426  11.135 -1.1938  0.6471 -0.4989
  879MOL0     C15908   4.351  10.487  11.261  0.9214 -0.3151  0.5000
  879MOL0     C15909   4.263  10.442  11.371  0.0775 -0.3595 -0.7730
  879MOL0     C15910   4.337  10.474  11.506  0.3996 -0.4368 -0.7529
  879MOL0     C15911   4.449  10.365  11.543  1.0346  0.3572  0.0576
  879MOL0     C15912   4.521  10.374  11.680 -0.0516 -0.2391 -0.4774
  879MOL0     N15913   4.442  10.327  11.785  0.4755 -0.0786 -0.1731
  879MOL0     C15914   4.431  10.194  11.810 -0.5864 -0.0835 -0.5217
  879MOL0     C15915   4.313  10.177  11.879 -0.4071  0.0105  0.2001
  879MOL0     C15916   4.246  10.051  11.927  0.5256 -0.7245 -0.3214
  879MOL0     C15917   4.113  10.042  11.851 -0.2719 -0.2507  1.2950
  879MOL0     C15918   4.090   9.898  11.795 -0.2461 -0.3667 -1.0499
  879MOL0     C15919   3.966   9.907  11.713  0.5528  0.9550 -0.0164
  879MOL0     O15920   3.988   9.990  11.598 -0.4197 -0.3552  0.0546
  879MOL0     C15921   4.044   9.935  11.487 -0.6961  0.0727 -0.2019
  879MOL0     C15922   4.053  10.002  11.363 -0.7751  0.9316 -0.2304
  879MOL0     C15923   4.106   9.946  11.241 -0.5018 -1.0186  0.2066
  879MOL0     C15924   4.127   9.814  11.229 -0.7413  0.5574  0.7031
  879MOL0     C15925   4.169   9.755  11.097 -0.3009  0.4628  0.2926
  879MOL0     O15926   4.138   9.623  11.094  1.1350 -0.1225 -0.2030
  879MOL0     C15927   4.132   9.544  10.982 -0.2824 -0.0818 -0.6689
  879MOL0     C15928   4.130   9.591  10.847 -0.4837  0.0602  0.2730
  879MOL0     C15929   4.127   9.502  10.736  0.2683 -1.2099 -0.7215
  879MOL0     C15930   4.139   9.362  10.759  1.1499  0.4442  0.5814
  879MOL0     O15931   4.135   9.268  10.656 -0.6171 -0.0921 -0.6170
  879MOL0     C15932   4.163   9.308  10.524 -0.0881 -0.7909 -0.6880
  879MOL0     C15933   4.129   9.193  10.442 -0.3149 -0.0279 -0.5391
  879MOL0     C15934   4.150   9.226  10.295 -0.5147 -0.0930 -0.1840
  879MOL0     C15935   4.134   9.100  10.202 -0.6145  0.4029 -0.1120
  879MOL0     C15936   4.087   9.127  10.058 -0.6584 -0.7444 -0.5973
  879MOL0     C15937   4.069   9.000   9.972 -0.7225  0.1846  1.0987
  879MOL0     C15938   3.951   8.913  10.012  0.1685  0.2656  0.0243
  879MOL0     C15939   3.892   8.840   9.893  0.3314  0.3130 -0.3188
  879MOL0    Cl15940   3.794   8.949   9.801 -0.0255  0.7549  0.7577
  879MOL0     C15941   4.138   9.313  10.889  0.6275 -0.0340 -0.8137
  879MOL0     C15942   4.138   9.403  11.001 -0.6418  0.8090  1.2283
  879MOL0     O15943   4.244   9.814  11.015 -0.4840 -0.3076  0.4153
  879MOL0     C15944   4.114   9.734  11.347  0.8196 -1.1605  0.8072
  879MOL0     C15945   4.076   9.791  11.467  0.3347 -0.5561  0.2981
  879MOL0     N15946   4.273  10.298  11.911 -0.3207  0.5466 -1.0383
  879MOL0     N15947   4.353  10.393  11.868 -0.0858 -0.0327  0.8381
  879MOL0     C15948   4.031  10.638  10.762 -0.5639 -0.0891  0.0493
  879MOL0     C15949   3.955  10.645  10.640 -0.3403 -0.1330 -0.0465
  879MOL0     C15950   3.791  10.680  10.226  0.6682  0.1035 -0.0820
  879MOL0     C15951   3.889  10.682  10.126  0.9167  0.4842  0.9177
  879MOL0     C15952   3.862  10.688   9.992 -0.3740 -0.7442  0.1959
  879MOL0     C15953   3.736  10.702   9.944  0.6274  0.3927  0.2088
  879MOL0     O15954   3.717  10.734   9.806  0.5952 -0.6354  0.6815
  879MOL0     C15955   3.586  10.766   9.764  0.3258 -0.7661 -1.2131
  879MOL0     C15956   3.505  10.641   9.753 -0.0158  0.4552  0.1045
  879MOL0     C15957   3.576  10.509   9.717 -0.8858 -0.6790  0.7205
  879MOL0     C15958   3.483  10.402   9.656 -0.3993  0.5998  0.8477
  879MOL0     C15959   3.552  10.283   9.633 -0.0855  1.3699 -0.2209
  879MOL0     C15960   3.595  10.172   9.606  0.2639 -0.3479  0.0162
  879MOL0     C15961   3.628  10.696  10.035 -0.8339 -0.7180 -0.1996
  879MOL0     C15962   3.659  10.691  10.181 -0.5293 -0.0088  0.8900
  879MOL0     H15963   4.200  10.584  10.419 -2.5587 -1.5628 -1.3429
  879MOL0     H15964   4.334  10.546  10.626  1.2154  2.7854  4.3638
  879MOL0     H15965   4.415  10.536  10.832 -2.3308  1.7544 -0.8243
  879MOL0     H15966   4.309  10.391  10.835  0.8072 -0.3372 -0.1174
  879MOL0     H15967   4.431  10.565  11.047 -0.0312 -0.1718 -0.0017
  879MOL0     H15968   4.478  10.407  11.017  0.8661  0.3968  1.6834
  879MOL0     H15969   4.289  10.317  11.135 -1.0065  0.4963  3.6247
  879MOL0     H15970   4.189  10.460  11.118 -0.4874  2.5209 -1.3832
  879MOL0     H15971   4.453  10.458  11.289  1.7191  1.6632 -0.1992
  879MOL0     H15972   4.350  10.596  11.259 -2.4622 -0.2100  2.0889
  879MOL0     H15973   4.243  10.335  11.382 -1.2678  0.0790  1.8293
  879MOL0     H15974   4.166  10.492  11.366 -0.4208 -1.3762 -1.6824
  879MOL0     H15975   4.269  10.480  11.592 -0.5489  2.0319 -1.5669
  879MOL0     H15976   4.376  10.576  11.506 -1.2151  0.2748 -3.2651
  879MOL0     H15977   4.415  10.266  11.512  1.5369  0.1343  0.1954
  879MOL0     H15978   4.533  10.371  11.473 -0.0464 -1.6425 -1.5275
  879MOL0     H15979   4.553  10.474  11.710  4.1208 -2.3082  3.1096
  879MOL0     H15980   4.614  10.317  11.683  0.9839  1.4224 -0.2657
  879MOL0     H15981   4.494  10.115  11.770 -1.7022  0.1650 -2.9232
  879MOL0     H15982   4.220  10.042  12.033 -0.5020 -0.5841 -0.5466
  879MOL0     H15983   4.320   9.973  11.907  0.0457 -1.3639  0.3352
  879MOL0     H15984   4.115  10.111  11.766 -0.0048 -3.1800 -1.2092
  879MOL0     H15985   4.024  10.073  11.908 -1.3042  3.3736 -1.8574
  879MOL0     H15986   4.171   9.862  11.731  1.4162  1.3835 -0.0629
  879MOL0     H15987   4.069   9.838  11.885  2.7250  0.7018  0.5190
  879MOL0     H15988   3.886   9.943  11.777 -0.6755 -1.2867 -0.2048
  879MOL0     H15989   3.930   9.811  11.676 -0.1419  1.2672 -0.1772
  879MOL0     H15990   4.033  10.109  11.363 -0.0495  1.0708 -0.1685
  879MOL0     H15991   4.133  10.020  11.167  1.2233  0.2694  2.0056
  879MOL0     H15992   4.123   9.698  10.831  0.5552  0.3075  1.3015
  879MOL0     H15993   4.099   9.555  10.646 -4.8457 -0.5078  0.9415
  879MOL0     H15994   4.264   9.347  10.517 -0.3420  0.1054  0.3307
  879MOL0     H15995   4.098   9.385  10.481  1.7502  0.5286 -1.1897
  879MOL0     H15996   4.028   9.161  10.471 -0.0999  1.6945  2.5899
  879MOL0     H15997   4.198   9.110  10.460 -0.0520 -0.4117 -3.0150
  879MOL0     H15998   4.248   9.272  10.282  0.1102 -0.9097  1.3608
  879MOL0     H15999   4.069   9.291  10.262 -1.7310 -0.0300  2.6446
  879MOL0     H16000   4.222   9.034  10.203 -1.8482 -1.3155  1.0246
  879MOL0     H16001   4.062   9.036  10.255 -1.7003  3.3103  2.2223
  879MOL0     H16002   4.154   9.196  10.005  0.4647 -1.2186  0.1553
  879MOL0     H16003   3.993   9.181  10.051 -0.7242 -1.0515 -3.2940
  879MOL0     H16004   4.152   8.933   9.995 -2.1712 -1.3780  1.9406
  879MOL0     H16005   4.067   9.025   9.866  0.4102  0.4225  1.1162
  879MOL0     H16006   3.981   8.843  10.091  1.4170  3.0076  2.1608
  879MOL0     H16007   3.874   8.977  10.056  1.3081  0.4222  1.9446
  879MOL0     H16008   3.822   8.769   9.937 -0.2114  0.8213 -0.3539
  879MOL0     H16009   3.973   8.787   9.842 -0.4997 -2.1023  0.7130
  879MOL0     H16010   4.123   9.208  10.912 -1.3063  0.3715 -0.1007
  879MOL0     H16011   4.130   9.361  11.101  1.4427 -3.8168 -0.2458
  879MOL0     H16012   4.123   9.628  11.327 -0.3211 -0.8663 -1.5176
  879MOL0     H16013   4.070   9.718  11.547  0.4967 -0.8137  0.0745
  879MOL0     H16014   3.993  10.657  10.862  4.4319  0.2275  2.1802
  879MOL0     H16015   3.851  10.675  10.649 -0.2299 -0.0412  1.0700
  879MOL0     H16016   3.992  10.670  10.158  0.5857 -1.0389  1.4637
  879MOL0     H16017   3.943  10.689   9.919 -1.7361 -0.6145 -1.3999
  879MOL0     H16018   3.583  10.812   9.665 -0.4137  1.6514 -0.1629
  879MOL0     H16019   3.531  10.842   9.821 -1.1232 -0.7820 -2.5263
  879MOL0     H16020   3.455  10.616   9.847  1.8513  1.1362  1.3460
  879MOL0     H16021   3.423  10.671   9.687 -0.9001 -2.4819 -0.2625
  879MOL0     H16022   3.628  10.464   9.802 -0.8156 -1.7848  0.1083
  879MOL0     H16023   3.649  10.538   9.640  1.4570  1.9783  3.6403
  879MOL0     H16024   3.409  10.379   9.733 -0.3645  1.4497  1.1530
  879MOL0     H16025   3.423  10.432   9.570  3.3771 -2.7688 -3.4902
  879MOL0     H16026   3.625  10.076   9.569 -1.3573 -0.6337 -0.6490
  879MOL0     H16027   3.526  10.723  10.009 -1.2913  1.7895  3.4385
  879MOL0     H16028   3.582  10.710  10.255 -0.9867  1.7071  0.0267
  880MOL0     O16029  11.315   4.100  11.002  0.2574 -0.0162  0.3165
  880MOL0     C16030  11.362   4.031  10.915 -0.1282 -0.5609  0.4811
  880MOL0     O16031  11.368   4.064  10.780  0.8552 -0.5604 -0.4090
  880MOL0     C16032  11.409   4.193  10.751  0.6274 -0.0810 -0.6139
  880MOL0     C16033  11.356   4.258  10.648  0.9876 -0.3117 -0.1459
  880MOL0     C16034  11.398   4.376  10.594  0.7333  1.3867  0.2340
  880MOL0     C16035  11.485   4.454  10.674 -0.9563 -0.3244  0.2727
  880MOL0     O16036  11.533   4.570  10.631  0.8074 -0.6264 -0.1294
  880MOL0     C16037  11.439   4.670  10.607  0.6765  0.3525  0.1963
  880MOL0     C16038  11.487   4.741  10.480 -0.2784 -0.0248 -0.4008
  880MOL0     C16039  11.474   4.667  10.342  0.2555 -0.0975 -0.1328
  880MOL0     C16040  11.578   4.693  10.238 -0.5966 -0.2596  1.3771
  880MOL0     C16041  11.568   4.838  10.175  0.0272 -0.2589 -0.3716
  880MOL0     C16042  11.700   4.891  10.116 -0.3442  1.6704  0.8138
  880MOL0     C16043  11.749   4.801   9.992 -0.6030  0.2258 -0.1317
  880MOL0     C16044  11.837   4.898   9.900 -0.3013  0.9937  0.6454
  880MOL0     N16045  11.949   4.843   9.833  0.0011 -0.1522  1.2453
  880MOL0     C16046  12.033   4.740   9.867  0.7983 -0.8461 -0.4857
  880MOL0     C16047  12.116   4.733   9.766 -0.0460 -0.1744 -0.9390
  880MOL0     C16048  12.212   4.624   9.754 -0.1977 -0.6575  0.4671
  880MOL0     C16049  12.168   4.515   9.654 -1.2246  0.4745  0.3418
  880MOL0     C16050  12.251   4.381   9.656 -0.0357 -0.6109 -0.0537
  880MOL0     C16051  12.196   4.285   9.550 -0.1589  0.0703 -0.2710
  880MOL0     O16052  12.057   4.278   9.548  0.0481 -0.2424  0.7143
  880MOL0     C16053  11.994   4.211   9.450 -0.6028  1.2313  0.0404
  880MOL0     C16054  12.006   4.069   9.445 -0.2417  0.4307 -0.1226
  880MOL0     C16055  11.971   3.998   9.330 -0.2422 -0.1121 -0.5430
  880MOL0     C16056  11.919   4.060   9.219  0.5957  0.5743  1.5342
  880MOL0     C16057  11.873   3.975   9.102 -0.1267 -1.4128 -0.0912
  880MOL0     O16058  11.778   4.031   9.021  0.0263 -0.7280  0.9496
  880MOL0     C16059  11.745   3.965   8.902 -0.1152 -0.0731  0.9377
  880MOL0     C16060  11.611   3.920   8.873  0.4170 -0.2827  0.0408
  880MOL0     C16061  11.576   3.870   8.749 -0.4864  1.3216 -0.5442
  880MOL0     C16062  11.684   3.824   8.669 -0.8317 -0.2247 -0.7624
  880MOL0     O16063  11.673   3.752   8.561 -0.2825 -0.2094  0.4618
  880MOL0     C16064  11.580   3.787   8.458  0.5314 -0.7246  0.5118
  880MOL0     C16065  11.617   3.708   8.331  0.1884 -0.8397 -0.6732
  880MOL0     C16066  11.511   3.747   8.213  0.5088  0.0292  0.4871
  880MOL0     C16067  11.531   3.680   8.077  0.8194  0.3014 -0.1662
  880MOL0     C16068  11.420   3.713   7.977  0.3164 -0.6991 -0.1955
  880MOL0     C16069  11.445   3.653   7.838  0.7029  0.6473 -0.3302
  880MOL0     C16070  11.336   3.693   7.743 -0.1426  0.5839  0.8098
  880MOL0     C16071  11.388   3.676   7.595 -0.9505 -1.0297 -0.3407
  880MOL0    Cl16072  11.543   3.753   7.564  0.0560 -0.7415  0.2022
  880MOL0     C16073  11.816   3.852   8.702  0.4593 -0.1319 -0.0288
  880MOL0     C16074  11.849   3.932   8.813  0.7538 -0.1982 -0.1890
  880MOL0     O16075  11.923   3.866   9.096  0.7316  0.2666  0.6715
  880MOL0     C16076  11.905   4.195   9.228  0.1277 -0.4688 -0.2984
  880MOL0     C16077  11.946   4.270   9.333  0.1118  0.4939 -0.3515
  880MOL0     N16078  12.088   4.818   9.663 -0.1767 -0.0471 -0.1529
  880MOL0     N16079  11.995   4.894   9.709  0.3039  0.1417  0.2472
  880MOL0     C16080  11.555   4.395  10.777  0.0597  1.0937 -0.3361
  880MOL0     C16081  11.508   4.265  10.820  1.1299 -0.0680  0.1520
  880MOL0     C16082  11.411   3.905  10.948 -0.4821 -0.2932 -0.1507
  880MOL0     C16083  11.516   3.848  10.875 -0.1478 -1.2250 -0.3289
  880MOL0     C16084  11.572   3.723  10.908 -0.3843  0.5309 -0.1687
  880MOL0     C16085  11.527   3.656  11.028  0.5271  0.3238 -0.0399
  880MOL0     O16086  11.586   3.528  11.058 -0.6124  0.4587  0.2671
  880MOL0     C16087  11.494   3.419  11.073  0.0713  0.0614  0.3424
  880MOL0     C16088  11.527   3.336  11.198  1.1595  0.7337 -0.7573
  880MOL0     C16089  11.408   3.262  11.273  1.0244 -0.3249  0.3663
  880MOL0     C16090  11.295   3.357  11.323  0.1304  0.0375  0.2032
  880MOL0     C16091  11.216   3.299  11.426  0.1486 -0.0303  0.2070
  880MOL0     C16092  11.151   3.246  11.512  0.4630 -0.5655 -0.3541
  880MOL0     C16093  11.431   3.714  11.117  0.2648 -0.2584 -0.0249
  880MOL0     C16094  11.379   3.835  11.069 -0.6672 -0.5753  0.9555
  880MOL0     H16095  11.275   4.202  10.602 -2.8150  0.3690  4.9261
  880MOL0     H16096  11.363   4.404  10.495  2.0162  2.8661  0.1639
  880MOL0     H16097  11.423   4.735  10.694  0.9825  2.7159 -1.4304
  880MOL0     H16098  11.347   4.616  10.584  0.0971  0.5787  1.8119
  880MOL0     H16099  11.589   4.773  10.505 -0.3059 -1.0911  1.2418
  880MOL0     H16100  11.426   4.830  10.463 -1.9759 -1.5043 -2.6342
  880MOL0     H16101  11.382   4.685  10.285  1.2172 -2.2781 -2.5898
  880MOL0     H16102  11.481   4.559  10.357  2.6194 -0.3024 -2.0773
  880MOL0     H16103  11.681   4.691  10.274  1.2225  0.5499 -3.0645
  880MOL0     H16104  11.567   4.622  10.155 -2.1243  0.9987  0.4322
  880MOL0     H16105  11.528   4.902  10.254  0.0941 -3.0183  2.0658
  880MOL0     H16106  11.484   4.839  10.104 -0.6361  3.2335  0.2530
  880MOL0     H16107  11.780   4.906  10.189 -2.1515  3.1469  2.5973
  880MOL0     H16108  11.673   4.988  10.073 -1.6688  1.0194  0.0825
  880MOL0     H16109  11.804   4.710  10.020  1.5924  2.2615  2.7306
  880MOL0     H16110  11.667   4.772   9.926  0.2262 -0.8065 -0.7370
  880MOL0     H16111  11.867   4.986   9.959  2.3247  3.2391 -3.5747
  880MOL0     H16112  11.765   4.939   9.829 -2.1878  1.4189  2.6904
  880MOL0     H16113  12.020   4.682   9.957 -2.8663 -0.6376 -0.7075
  880MOL0     H16114  12.227   4.575   9.851  2.5683 -2.1048 -0.5502
  880MOL0     H16115  12.311   4.664   9.728 -1.9952  3.1719 -1.2169
  880MOL0     H16116  12.184   4.565   9.558  2.7705  3.8301  2.3936
  880MOL0     H16117  12.064   4.497   9.680 -1.2105 -0.5664 -0.2790
  880MOL0     H16118  12.356   4.404   9.635 -0.2095  0.3488  0.0609
  880MOL0     H16119  12.240   4.331   9.753  0.2457  2.3546  1.6684
  880MOL0     H16120  12.238   4.185   9.569  0.9177  0.2240 -1.6485
  880MOL0     H16121  12.219   4.311   9.447  0.1926 -0.7092 -0.3960
  880MOL0     H16122  12.061   4.018   9.523  1.7581  1.7132 -0.6192
  880MOL0     H16123  12.007   3.896   9.330  1.3036  0.3534  1.3439
  880MOL0     H16124  11.522   3.939   8.933  1.2727 -0.7982  1.5061
  880MOL0     H16125  11.473   3.843   8.728  0.1594  0.4762 -3.0252
  880MOL0     H16126  11.585   3.894   8.438 -1.2010 -0.7264 -0.1492
  880MOL0     H16127  11.478   3.764   8.489 -0.2299 -0.4528 -1.6317
  880MOL0     H16128  11.627   3.600   8.348  2.1603 -0.5682  0.2006
  880MOL0     H16129  11.714   3.750   8.300 -0.9781  1.7063 -1.1253
  880MOL0     H16130  11.499   3.855   8.196  1.0367 -0.1534 -1.2236
  880MOL0     H16131  11.412   3.723   8.252 -0.9522  0.2994 -2.7984
  880MOL0     H16132  11.623   3.711   8.027 -0.1001 -0.4210 -2.4256
  880MOL0     H16133  11.551   3.572   8.078  3.9395  0.7488  2.7678
  880MOL0     H16134  11.409   3.822   7.978 -1.3934 -0.8114 -1.5840
  880MOL0     H16135  11.327   3.666   8.010  0.4063 -0.1474  0.9088
  880MOL0     H16136  11.441   3.544   7.843 -2.1486  0.6358 -0.9824
  880MOL0     H16137  11.542   3.684   7.799  0.9046  0.6263  0.1384
  880MOL0     H16138  11.254   3.623   7.761  1.8395 -1.5629  2.0673
  880MOL0     H16139  11.299   3.795   7.751  0.1666  0.5768  2.9303
  880MOL0     H16140  11.320   3.718   7.520  0.7845  4.1737  0.6000
  880MOL0     H16141  11.400   3.569   7.575  0.9563 -1.2031  1.3791
  880MOL0     H16142  11.890   3.802   8.641 -1.7037 -0.8256 -2.2751
  880MOL0     H16143  11.949   3.974   8.816  0.2790  1.1583 -2.0873
  880MOL0     H16144  11.875   4.259   9.145  0.9214 -0.3320 -0.4824
  880MOL0     H16145  11.933   4.378   9.332  0.3364  0.5834  1.9313
  880MOL0     H16146  11.626   4.454  10.834  0.2232 -0.7442  1.4966
  880MOL0     H16147  11.568   4.223  10.900  1.9352 -2.0495 -1.4132
  880MOL0     H16148  11.541   3.905  10.786 -6.4558  3.0108 -0.1206
  880MOL0     H16149  11.655   3.684  10.849  0.3429  1.7880 -0.0135
  880MOL0     H16150  11.496   3.348  10.990 -6.2836 -2.4346  1.7271
  880MOL0     H16151  11.392   3.458  11.074  0.2178  0.5329 -1.0791
  880MOL0     H16152  11.606   3.266  11.169  2.2935  0.3357  2.6994
  880MOL0     H16153  11.583   3.390  11.277 -0.5687  1.2667  0.1547
  880MOL0     H16154  11.450   3.209  11.359 -0.5534  0.2047  1.4930
  880MOL0     H16155  11.373   3.192  11.197  1.6532  0.5817 -0.8042
  880MOL0     H16156  11.333   3.441  11.382 -0.6991 -1.0187  2.3524
  880MOL0     H16157  11.224   3.384  11.245 -0.2922 -4.1142 -1.0866
  880MOL0     H16158  11.081   3.198  11.577  0.5406 -1.2854 -0.7833
  880MOL0     H16159  11.388   3.680  11.210  2.7629  0.1556  1.3824
  880MOL0     H16160  11.307   3.883  11.135 -0.4310 -1.3151  1.7790
  881MOL0     O16161   0.382   6.075   6.226 -0.2165 -0.2211 -0.2887
  881MOL0     C16162   0.372   5.992   6.136  0.1353  0.1292  0.9635
  881MOL0     O16163   0.260   5.909   6.114 -0.0195  0.6505 -0.9771
  881MOL0     C16164   0.157   5.929   6.201 -0.5068  1.3603 -0.9413
  881MOL0     C16165   0.123   5.831   6.293 -0.1150 -0.1725 -1.1641
  881MOL0     C16166  -0.004   5.848   6.362 -1.1368 -0.0593  0.1235
  881MOL0     C16167  -0.085   5.957   6.350  0.4514 -0.3478  1.1363
  881MOL0     O16168  -0.206   5.954   6.419 -0.4305 -0.7572  0.1937
  881MOL0     C16169  -0.282   6.072   6.427 -0.5001 -0.0841 -0.1596
  881MOL0     C16170  -0.418   6.021   6.490  0.3084 -0.4984  0.5926
  881MOL0     C16171  -0.487   5.913   6.418 -0.0022 -0.5207  0.0553
  881MOL0     C16172  -0.610   5.862   6.491  0.1373  0.1523  0.1341
  881MOL0     C16173  -0.664   5.736   6.424 -0.2806  0.2497  0.3537
  881MOL0     C16174  -0.695   5.759   6.273 -0.7818  0.5372  0.0763
  881MOL0     C16175  -0.770   5.628   6.207 -0.8868 -0.8254 -0.5237
  881MOL0     C16176  -0.685   5.492   6.202 -0.1713 -0.7352 -0.0938
  881MOL0     N16177  -0.585   5.505   6.101  0.6212  0.6510  0.5172
  881MOL0     C16178  -0.462   5.562   6.122  0.2842  0.2090 -0.0641
  881MOL0     C16179  -0.422   5.588   6.001  0.3958  0.4796  0.1648
  881MOL0     C16180  -0.308   5.684   5.979  0.5567 -0.1080 -0.5723
  881MOL0     C16181  -0.364   5.826   5.966 -0.5568 -0.5954  0.2565
  881MOL0     C16182  -0.261   5.945   5.974  1.0341 -0.2037  0.2656
  881MOL0     C16183  -0.144   5.925   5.892 -0.5776  0.3349  0.5602
  881MOL0     O16184  -0.146   5.832   5.786  0.0682 -0.2036  0.4405
  881MOL0     C16185  -0.030   5.834   5.708 -0.1660  1.0294  0.7302
  881MOL0     C16186   0.071   5.928   5.719 -0.4475  0.2199  0.3587
  881MOL0     C16187   0.174   5.923   5.624  0.1962  0.2182 -0.5151
  881MOL0     C16188   0.180   5.811   5.533  0.8739 -0.7145  0.1615
  881MOL0     C16189   0.286   5.796   5.435 -0.4811 -0.4664 -1.0044
  881MOL0     O16190   0.308   5.680   5.375  0.1743  0.3428  0.1035
  881MOL0     C16191   0.412   5.666   5.282  0.7523  0.8039 -0.1102
  881MOL0     C16192   0.544   5.717   5.284 -0.2558  0.5156 -0.2242
  881MOL0     C16193   0.627   5.720   5.174 -0.3391  0.1330  0.8577
  881MOL0     C16194   0.587   5.662   5.058 -0.4809  0.1570  0.3747
  881MOL0     O16195   0.659   5.683   4.944  0.7330  0.6862  0.3718
  881MOL0     C16196   0.794   5.636   4.923 -0.3197  0.2028 -0.0449
  881MOL0     C16197   0.886   5.758   4.935  0.9232  0.2665 -0.1302
  881MOL0     C16198   1.026   5.734   4.892 -0.0964  0.7325 -0.3609
  881MOL0     C16199   1.113   5.858   4.917  0.6352 -0.2726  0.6962
  881MOL0     C16200   1.248   5.866   4.846 -0.2746 -0.3821 -0.0893
  881MOL0     C16201   1.233   5.844   4.697 -0.2825  0.2400 -0.8594
  881MOL0     C16202   1.344   5.897   4.607  0.3037  0.0776 -0.4844
  881MOL0     C16203   1.313   6.040   4.549  0.1032  0.2420 -0.8792
  881MOL0    Cl16204   1.327   6.173   4.667  0.1053  0.3588 -0.0298
  881MOL0     C16205   0.475   5.585   5.052 -0.1538 -0.6673 -0.7642
  881MOL0     C16206   0.380   5.589   5.165 -0.9701 -0.0861 -0.2057
  881MOL0     O16207   0.359   5.899   5.412  1.2484 -0.8940  0.2292
  881MOL0     C16208   0.077   5.716   5.525 -0.0878 -1.3621 -0.5257
  881MOL0     C16209  -0.027   5.725   5.612  0.1346  0.3153  0.2082
  881MOL0     N16210  -0.522   5.565   5.912  0.3694 -0.3769 -0.0113
  881MOL0     N16211  -0.619   5.506   5.969 -0.4684 -0.3875 -0.2973
  881MOL0     C16212  -0.046   6.057   6.259  0.1312  1.2493 -0.2706
  881MOL0     C16213   0.074   6.042   6.189 -0.2277  0.4376 -0.7657
  881MOL0     C16214   0.499   5.973   6.056  0.3513 -0.1967 -0.9399
  881MOL0     C16215   0.506   5.864   5.976 -0.0230 -0.0523 -0.4399
  881MOL0     C16216   0.617   5.844   5.892 -0.3327  0.2520 -0.7862
  881MOL0     C16217   0.730   5.933   5.893  0.0541  0.1999 -0.6492
  881MOL0     O16218   0.858   5.912   5.839  0.2548 -0.4404 -0.1770
  881MOL0     C16219   0.843   5.820   5.736  0.3806  0.9477  0.4464
  881MOL0     C16220   0.782   5.891   5.615 -0.2951 -0.1089  0.6071
  881MOL0     C16221   0.832   6.033   5.585 -0.0720  0.2578  0.5067
  881MOL0     C16222   0.749   6.105   5.484 -0.3142  0.3602  0.4649
  881MOL0     C16223   0.777   6.053   5.345 -0.1475 -0.5058 -0.2308
  881MOL0     C16224   0.815   6.023   5.232  0.1972 -0.2191  0.1669
  881MOL0     C16225   0.712   6.044   5.978  0.2909 -0.6346 -0.5148
  881MOL0     C16226   0.602   6.064   6.059  0.2812  0.1258  0.9633
  881MOL0     H16227   0.169   5.732   6.294 -3.5414 -1.9413  1.8737
  881MOL0     H16228  -0.048   5.779   6.433 -0.2624 -0.4911  0.2614
  881MOL0     H16229  -0.303   6.108   6.326  0.0829  0.5499 -0.0558
  881MOL0     H16230  -0.229   6.148   6.484  0.6980 -2.2017  1.6772
  881MOL0     H16231  -0.488   6.102   6.511  0.6772  0.7837 -2.6076
  881MOL0     H16232  -0.388   5.974   6.584 -1.4645 -1.4257  0.7279
  881MOL0     H16233  -0.416   5.831   6.402  0.0993 -0.6989  1.3351
  881MOL0     H16234  -0.505   5.954   6.318  1.2265 -0.7167 -0.2686
  881MOL0     H16235  -0.604   5.829   6.595 -2.0613 -1.4193 -0.1486
  881MOL0     H16236  -0.686   5.940   6.501 -1.5692 -1.2875 -0.9319
  881MOL0     H16237  -0.759   5.717   6.476 -2.4682  1.8102 -2.7331
  881MOL0     H16238  -0.585   5.661   6.437  1.4361  1.7672 -0.8544
  881MOL0     H16239  -0.597   5.764   6.225  0.6148 -5.7633  1.4030
  881MOL0     H16240  -0.748   5.855   6.275  2.9475  2.8125  3.0005
  881MOL0     H16241  -0.856   5.612   6.273 -0.7743  1.3498  0.2394
  881MOL0     H16242  -0.804   5.651   6.106 -0.3131  2.7094 -0.0213
  881MOL0     H16243  -0.756   5.413   6.175  1.8656 -2.1067 -1.7050
  881MOL0     H16244  -0.631   5.466   6.293  1.4515  0.4379 -0.6862
  881MOL0     H16245  -0.409   5.586   6.214  0.8211  3.0153 -1.0186
  881MOL0     H16246  -0.254   5.652   5.889 -1.0485 -0.7449 -1.3484
  881MOL0     H16247  -0.240   5.693   6.063  0.6159  1.3568 -0.7413
  881MOL0     H16248  -0.442   5.838   6.043 -1.5089  1.6309 -0.9798
  881MOL0     H16249  -0.405   5.820   5.865  0.6365  1.4190 -0.3858
  881MOL0     H16250  -0.319   6.033   5.944  0.6562 -1.0424 -1.5771
  881MOL0     H16251  -0.222   5.947   6.077  2.9024  2.4722 -0.3728
  881MOL0     H16252  -0.057   5.899   5.952 -1.3971  1.1286  2.1397
  881MOL0     H16253  -0.120   6.026   5.856  2.2422 -0.5131 -0.2086
  881MOL0     H16254   0.068   6.010   5.791 -3.3096 -1.0283  1.8006
  881MOL0     H16255   0.251   6.000   5.629 -1.2114  1.6402 -0.0623
  881MOL0     H16256   0.570   5.781   5.367 -0.4251  0.7324 -0.3354
  881MOL0     H16257   0.716   5.780   5.179 -0.5852  1.0428 -2.9333
  881MOL0     H16258   0.808   5.598   4.821 -0.9978  0.8216 -0.3812
  881MOL0     H16259   0.838   5.553   4.979  4.4160  0.0110 -3.4610
  881MOL0     H16260   0.894   5.795   5.037 -1.3120  1.4376 -0.3213
  881MOL0     H16261   0.847   5.845   4.881 -0.6468  0.1117  0.6864
  881MOL0     H16262   1.023   5.712   4.785 -2.3941  0.7122 -0.3415
  881MOL0     H16263   1.063   5.647   4.948  1.0607  0.7379 -1.0771
  881MOL0     H16264   1.062   5.953   4.900  1.1904  0.0998  1.0847
  881MOL0     H16265   1.125   5.842   5.025  1.1848  1.4006  0.9069
  881MOL0     H16266   1.307   5.780   4.878 -1.4579 -0.9791  0.5609
  881MOL0     H16267   1.299   5.960   4.873  1.1055 -2.0256  3.6691
  881MOL0     H16268   1.138   5.893   4.676  0.8434  2.4431 -1.1427
  881MOL0     H16269   1.222   5.736   4.681 -0.8012  0.3453 -1.2504
  881MOL0     H16270   1.439   5.897   4.662  0.2277 -0.8866 -0.3391
  881MOL0     H16271   1.338   5.833   4.519 -2.4385  0.4082 -0.6460
  881MOL0     H16272   1.213   6.058   4.507  0.9952  4.2783 -1.7117
  881MOL0     H16273   1.387   6.055   4.470  1.1341 -3.1950 -0.7328
  881MOL0     H16274   0.469   5.537   4.956  3.5766 -1.5921 -0.7129
  881MOL0     H16275   0.287   5.533   5.173 -0.3067 -1.0986  0.5883
  881MOL0     H16276   0.077   5.645   5.443  0.9442 -1.2412 -0.6332
  881MOL0     H16277  -0.113   5.659   5.610  0.8062 -0.6233  1.2262
  881MOL0     H16278  -0.109   6.141   6.232 -1.8641 -0.9795 -3.0711
  881MOL0     H16279   0.099   6.102   6.102  1.0921  1.6534  0.3955
  881MOL0     H16280   0.421   5.797   5.968  0.7430 -0.8256 -3.1262
  881MOL0     H16281   0.605   5.754   5.832 -1.7544  0.8624 -1.4869
  881MOL0     H16282   0.802   5.720   5.756  1.3128  0.2972 -0.7312
  881MOL0     H16283   0.948   5.798   5.715  0.3624  0.2251  1.0499
  881MOL0     H16284   0.799   5.829   5.526 -1.6352  1.9554 -1.1738
  881MOL0     H16285   0.674   5.894   5.628 -0.6202  0.5045 -1.7639
  881MOL0     H16286   0.941   6.033   5.577  0.0015 -2.8709  0.0989
  881MOL0     H16287   0.815   6.084   5.680 -4.6798  0.8765 -0.4240
  881MOL0     H16288   0.642   6.088   5.500 -0.0658 -0.8507  0.9364
  881MOL0     H16289   0.779   6.210   5.478  1.4977  0.0307  2.5815
  881MOL0     H16290   0.845   5.989   5.135  1.2524  1.2629 -0.0612
  881MOL0     H16291   0.790   6.119   5.986 -2.3078  2.3326 -1.1349
  881MOL0     H16292   0.610   6.149   6.126  1.1227 -1.1752  2.5811
  882MOL0     O16293   1.465   4.909   6.687  0.5434  0.4455  0.0674
  882MOL0     C16294   1.363   4.845   6.649  0.3215  0.9425 -0.5423
  882MOL0     O16295   1.275   4.769   6.727  0.6068  0.0785  0.6569
  882MOL0     C16296   1.309   4.763   6.860 -0.5907  0.9971  0.5275
  882MOL0     C16297   1.349   4.640   6.913 -0.4928  0.3170 -0.1357
  882MOL0     C16298   1.398   4.643   7.047  0.0481  0.4465  1.2295
  882MOL0     C16299   1.387   4.761   7.115  0.7522  0.4965 -0.0189
  882MOL0     O16300   1.431   4.748   7.246 -0.1496 -0.3401 -0.0994
  882MOL0     C16301   1.455   4.871   7.319 -0.0305 -0.2778 -0.4554
  882MOL0     C16302   1.327   4.889   7.399  0.2697  0.5817 -0.4169
  882MOL0     C16303   1.319   5.007   7.505  0.7819  0.1463 -0.0671
  882MOL0     C16304   1.226   5.119   7.454 -0.1615  0.9122 -0.6749
  882MOL0     C16305   1.232   5.239   7.554 -0.6513  0.5521  0.7948
  882MOL0     C16306   1.115   5.338   7.533  0.3142 -0.9077  0.4295
  882MOL0     C16307   1.141   5.455   7.641  0.7588  0.3359  0.4093
  882MOL0     C16308   1.059   5.573   7.596 -0.2760  0.6764  1.3360
  882MOL0     N16309   1.063   5.691   7.693 -0.1988  1.3984  0.3502
  882MOL0     C16310   0.993   5.706   7.810 -0.6572  0.0775  0.3918
  882MOL0     C16311   1.007   5.840   7.852 -0.6050  0.7642 -1.1338
  882MOL0     C16312   0.934   5.908   7.970 -0.4321  0.7165 -0.0662
  882MOL0     C16313   1.027   5.961   8.073  0.3531  0.7270  0.2938
  882MOL0     C16314   0.961   6.035   8.190  0.3561 -0.2745 -0.0381
  882MOL0     C16315   0.987   6.190   8.195 -1.0892  0.5212 -0.0638
  882MOL0     O16316   1.134   6.212   8.194  0.4722 -0.0918 -1.4603
  882MOL0     C16317   1.204   6.189   8.324  0.5696 -0.3708  0.1351
  882MOL0     C16318   1.336   6.160   8.308 -0.4604 -0.5237  0.5003
  882MOL0     C16319   1.427   6.156   8.414  0.7546  0.4590 -1.3381
  882MOL0     C16320   1.368   6.155   8.548 -0.1004 -0.7236  0.0176
  882MOL0     C16321   1.463   6.145   8.655 -0.1119  1.6075  0.7962
  882MOL0     O16322   1.426   6.208   8.767  0.1180 -0.2098 -0.4981
  882MOL0     C16323   1.526   6.241   8.855  0.5074  0.0214 -0.1614
  882MOL0     C16324   1.572   6.379   8.860  0.1407  1.3132 -0.0782
  882MOL0     C16325   1.659   6.414   8.957 -0.7995 -0.4307  0.1899
  882MOL0     C16326   1.711   6.320   9.053  0.4993  1.1111  0.0807
  882MOL0     O16327   1.787   6.379   9.144 -0.0954  0.3478  0.0300
  882MOL0     C16328   1.852   6.318   9.261  0.1706 -0.0672  1.2773
  882MOL0     C16329   1.915   6.432   9.342 -0.3326 -0.5147 -0.7154
  882MOL0     C16330   2.008   6.390   9.462 -0.4083 -0.7239 -0.1600
  882MOL0     C16331   2.010   6.489   9.575 -0.3476  0.0710  0.0734
  882MOL0     C16332   2.079   6.617   9.520  0.2201  0.7601  0.4189
  882MOL0     C16333   2.234   6.600   9.507  0.8874  0.9110  0.1941
  882MOL0     C16334   2.294   6.542   9.641 -0.8569 -0.8448 -0.5468
  882MOL0     C16335   2.445   6.563   9.639 -0.0343 -0.3903 -1.2198
  882MOL0    Cl16336   2.494   6.736   9.632  0.3330  0.0305  0.1691
  882MOL0     C16337   1.677   6.186   9.040  0.7671 -0.4643  0.0177
  882MOL0     C16338   1.575   6.150   8.955  0.1726 -0.6430 -0.2233
  882MOL0     O16339   1.573   6.114   8.637  0.4075  1.1124 -0.3696
  882MOL0     C16340   1.229   6.183   8.565  0.4151 -0.2911 -0.9164
  882MOL0     C16341   1.147   6.202   8.453  0.0276  0.4010 -0.5553
  882MOL0     N16342   1.081   5.898   7.756  0.4153 -0.0013  0.3638
  882MOL0     N16343   1.117   5.814   7.669  0.3232  0.0389 -0.4026
  882MOL0     C16344   1.324   4.874   7.072  0.1470 -0.0231  0.6151
  882MOL0     C16345   1.285   4.876   6.940 -0.2554  0.6726  0.0104
  882MOL0     C16346   1.318   4.849   6.512  0.6516 -0.3762  0.9275
  882MOL0     C16347   1.211   4.782   6.454  0.1666  0.1689 -0.4150
  882MOL0     C16348   1.170   4.788   6.316 -0.6547 -0.2951 -0.4886
  882MOL0     C16349   1.250   4.862   6.225  0.8088 -0.7604  0.7817
  882MOL0     O16350   1.218   4.849   6.094  0.6903 -0.5753  1.2211
  882MOL0     C16351   1.268   4.941   5.998 -0.9410  0.1853 -1.2365
  882MOL0     C16352   1.225   5.080   6.016 -0.2980 -0.1058 -0.3461
  882MOL0     C16353   1.077   5.105   5.989  0.1314 -1.7166 -0.4051
  882MOL0     C16354   1.031   5.248   6.029  0.2413 -0.3720  0.1204
  882MOL0     C16355   0.888   5.272   6.013 -0.4971 -0.4099 -0.4702
  882MOL0     C16356   0.766   5.275   6.013 -0.1566  0.3208  0.0110
  882MOL0     C16357   1.355   4.941   6.281  0.0185  0.7927  0.1520
  882MOL0     C16358   1.387   4.931   6.421 -0.7387 -0.0363 -0.4472
  882MOL0     H16359   1.371   4.549   6.859  0.2162 -0.6886  1.7640
  882MOL0     H16360   1.425   4.551   7.099 -0.1138 -1.6685 -2.0972
  882MOL0     H16361   1.481   4.960   7.260  1.2418 -0.5784 -0.3627
  882MOL0     H16362   1.544   4.863   7.382  1.0182 -0.1792 -1.8695
  882MOL0     H16363   1.305   4.803   7.463  1.5103  0.1136 -0.5956
  882MOL0     H16364   1.245   4.897   7.326  0.4634 -0.4593 -0.7643
  882MOL0     H16365   1.415   5.055   7.522  0.0436  0.9704  1.9742
  882MOL0     H16366   1.274   4.974   7.599 -1.0259  1.7156 -0.3051
  882MOL0     H16367   1.257   5.151   7.353  2.3808 -4.5747 -2.0178
  882MOL0     H16368   1.122   5.086   7.448 -1.3552  3.4079  3.0289
  882MOL0     H16369   1.328   5.289   7.536 -0.4562 -0.2234 -0.4189
  882MOL0     H16370   1.220   5.207   7.657 -3.6571 -1.3990 -0.0526
  882MOL0     H16371   1.018   5.294   7.554 -0.2988  1.0421  1.9454
  882MOL0     H16372   1.118   5.372   7.429  1.2242 -2.2349 -0.0130
  882MOL0     H16373   1.107   5.416   7.737 -0.6956 -2.7524 -1.1995
  882MOL0     H16374   1.244   5.482   7.663  0.7292 -0.4771  1.6619
  882MOL0     H16375   0.954   5.546   7.598 -1.4053  4.5209  2.2732
  882MOL0     H16376   1.074   5.595   7.490 -1.1991 -3.2685  0.2253
  882MOL0     H16377   0.941   5.621   7.855  0.6879 -0.2227  1.4316
  882MOL0     H16378   0.870   5.836   8.022  1.9304 -1.0876  0.5267
  882MOL0     H16379   0.875   5.991   7.930 -1.4513 -2.0876 -5.3252
  882MOL0     H16380   1.088   6.035   8.020  1.7126 -0.0945  0.6427
  882MOL0     H16381   1.097   5.880   8.096 -1.9326 -1.0286  1.5401
  882MOL0     H16382   0.852   6.029   8.181  0.4616 -1.6735 -0.5648
  882MOL0     H16383   0.990   5.991   8.285 -1.0194  1.7513  1.4067
  882MOL0     H16384   0.929   6.234   8.277 -4.7122  0.0181 -2.1507
  882MOL0     H16385   0.945   6.228   8.102 -0.2105  2.5331  0.3203
  882MOL0     H16386   1.370   6.143   8.207  1.9398  1.0488  0.9501
  882MOL0     H16387   1.534   6.140   8.409  1.2816  1.7177  2.4592
  882MOL0     H16388   1.541   6.451   8.785  3.5049  2.6144 -0.4084
  882MOL0     H16389   1.710   6.510   8.966 -1.7186  0.2556 -1.3896
  882MOL0     H16390   1.923   6.242   9.228 -1.0993 -0.1709 -1.4701
  882MOL0     H16391   1.766   6.287   9.321 -2.3759  2.6311 -0.7022
  882MOL0     H16392   1.832   6.480   9.393 -0.5956 -1.6991  0.0202
  882MOL0     H16393   1.967   6.508   9.285 -0.6168  0.9355  0.8785
  882MOL0     H16394   2.113   6.382   9.432  0.7843  1.8830  2.7646
  882MOL0     H16395   1.988   6.291   9.504 -1.4084 -0.7435 -0.6491
  882MOL0     H16396   1.906   6.514   9.599 -0.9606 -3.2727  1.3819
  882MOL0     H16397   2.043   6.459   9.675 -3.4420  0.7289  1.4204
  882MOL0     H16398   2.037   6.697   9.582 -2.1751 -0.1874  0.1085
  882MOL0     H16399   2.054   6.654   9.420 -1.3068  1.9331  1.1918
  882MOL0     H16400   2.278   6.696   9.477 -0.4114  0.8664 -2.0501
  882MOL0     H16401   2.249   6.538   9.419  0.1497  0.8081  0.1335
  882MOL0     H16402   2.251   6.605   9.719  1.1344 -0.3340  0.2127
  882MOL0     H16403   2.277   6.438   9.669 -0.2821 -1.3053 -1.8410
  882MOL0     H16404   2.475   6.498   9.556  1.0433 -0.4394 -0.7969
  882MOL0     H16405   2.482   6.517   9.731  0.0891  2.2360  0.1254
  882MOL0     H16406   1.699   6.116   9.120 -1.4278 -3.2174 -1.5808
  882MOL0     H16407   1.539   6.047   8.951  2.3444 -1.5260  0.8871
  882MOL0     H16408   1.187   6.184   8.665  2.8874 -2.2986  0.2377
  882MOL0     H16409   1.042   6.224   8.469  0.2724  0.7391  0.6808
  882MOL0     H16410   1.301   4.953   7.143  2.9560  0.8770  0.6333
  882MOL0     H16411   1.250   4.959   6.880  1.5860  2.0710  0.7744
  882MOL0     H16412   1.146   4.726   6.521  3.0174 -0.7607  1.8032
  882MOL0     H16413   1.096   4.725   6.268 -0.2737 -1.2079  0.0951
  882MOL0     H16414   1.240   4.910   5.897 -0.0547 -1.4280 -1.0191
  882MOL0     H16415   1.377   4.950   5.995 -0.7349  0.4539  2.4775
  882MOL0     H16416   1.246   5.110   6.119 -0.5670 -0.2767 -0.2428
  882MOL0     H16417   1.288   5.138   5.947  1.2923  1.0692  1.9426
  882MOL0     H16418   1.008   5.045   6.049 -2.3175 -1.0165 -2.3259
  882MOL0     H16419   1.064   5.088   5.881  0.8108  2.9424 -1.4439
  882MOL0     H16420   1.050   5.256   6.137  0.1351 -2.1990  0.3032
  882MOL0     H16421   1.086   5.322   5.969  1.0033  0.5830  1.9057
  882MOL0     H16422   0.662   5.288   6.036  0.2702 -0.5147  2.7532
  882MOL0     H16423   1.425   5.001   6.224 -1.2835  2.0524 -0.2120
  882MOL0     H16424   1.469   4.995   6.452 -2.2677  0.6769  2.4441
  883MOL0     O16425   0.454   0.613   8.270 -0.1190 -0.7234 -0.2933
  883MOL0     C16426   0.561   0.553   8.274 -0.1147 -0.3515 -0.0328
  883MOL0     O16427   0.588   0.436   8.211  0.0485  0.6680  0.3083
  883MOL0     C16428   0.501   0.382   8.111 -0.0706 -0.1182 -1.4470
  883MOL0     C16429   0.492   0.242   8.113  0.5114  0.4081  0.6580
  883MOL0     C16430   0.428   0.172   8.000 -0.8812  0.1208 -0.1731
  883MOL0     C16431   0.378   0.252   7.898 -0.1792 -0.0363 -0.0086
  883MOL0     O16432   0.304   0.197   7.793 -0.2140 -0.2204  0.1864
  883MOL0     C16433   0.214   0.086   7.806  0.0957 -0.6601 -0.2227
  883MOL0     C16434   0.085   0.141   7.747  0.2497 -0.1378 -0.4918
  883MOL0     C16435   0.022   0.246   7.845 -0.2416  0.0525 -0.9079
  883MOL0     C16436  -0.083   0.191   7.941 -0.4393 -0.3396 -0.2640
  883MOL0     C16437  -0.137   0.300   8.042 -0.2566  0.2439  0.8164
  883MOL0     C16438  -0.043   0.349   8.149 -0.2582  1.4175 -0.0805
  883MOL0     C16439  -0.120   0.424   8.246  0.9398  0.0166 -0.3884
  883MOL0     C16440  -0.009   0.477   8.335 -0.8147 -0.2735  0.5779
  883MOL0     N16441   0.090   0.375   8.376  0.7057 -0.9236 -0.7822
  883MOL0     C16442   0.225   0.368   8.344  0.8025  0.3744  0.3857
  883MOL0     C16443   0.273   0.271   8.433  0.6620  0.3408  0.0647
  883MOL0     C16444   0.409   0.234   8.462 -0.2082  0.7148  0.6576
  883MOL0     C16445   0.467   0.326   8.571  0.5812 -0.5137 -0.3303
  883MOL0     C16446   0.618   0.300   8.583 -1.0973  0.3331 -1.0891
  883MOL0     C16447   0.663   0.365   8.714 -0.0831  0.5932  1.2453
  883MOL0     O16448   0.810   0.381   8.701  0.2793  1.0402  0.0383
  883MOL0     C16449   0.887   0.293   8.781 -0.2931 -0.2367  0.4155
  883MOL0     C16450   0.852   0.167   8.843  0.3509  0.5336 -0.0159
  883MOL0     C16451   0.945   0.085   8.922  0.1814  0.1265 -0.7349
  883MOL0     C16452   1.065   0.145   8.954 -0.5401  0.2607  0.1253
  883MOL0     C16453   1.176   0.076   9.042  0.9559 -0.0748 -0.2523
  883MOL0     O16454   1.269   0.156   9.102 -0.4648  0.1480 -0.3548
  883MOL0     C16455   1.348   0.126   9.213 -0.9272 -0.1273  0.2532
  883MOL0     C16456   1.443   0.223   9.246  0.0194  0.3445  0.5542
  883MOL0     C16457   1.542   0.184   9.340  0.1840 -0.3228  0.5234
  883MOL0     C16458   1.538   0.067   9.419 -1.0040 -0.1169 -0.3866
  883MOL0     O16459   1.648   0.039   9.498  0.4037 -0.1108  0.6300
  883MOL0     C16460   1.617  -0.019   9.628  0.5747  0.5780 -0.9542
  883MOL0     C16461   1.618   0.087   9.733  0.0817  0.0316  0.5121
  883MOL0     C16462   1.582   0.044   9.874  0.2438 -0.4751  0.0610
  883MOL0     C16463   1.561   0.157   9.969 -0.3796  0.2516  1.0657
  883MOL0     C16464   1.532   0.116  10.111 -0.0663  0.5089  0.5563
  883MOL0     C16465   1.499   0.230  10.207 -0.0931  0.4982 -0.1954
  883MOL0     C16466   1.574   0.362  10.186 -0.2151 -0.3645 -0.2900
  883MOL0     C16467   1.524   0.466  10.273  0.0707  0.3527  0.2140
  883MOL0    Cl16468   1.641   0.608  10.292  0.1199 -0.1269 -0.1033
  883MOL0     C16469   1.437  -0.022   9.395 -0.3150 -0.0385 -0.9111
  883MOL0     C16470   1.339   0.008   9.294 -0.6062  0.3371  0.2584
  883MOL0     O16471   1.169  -0.045   9.047 -0.1586  0.4465 -0.1764
  883MOL0     C16472   1.097   0.266   8.898 -0.1635 -0.4933  0.1680
  883MOL0     C16473   1.019   0.333   8.806  0.0499 -0.3167 -0.0498
  883MOL0     N16474   0.166   0.219   8.505 -0.1949 -0.6444  0.9826
  883MOL0     N16475   0.056   0.289   8.475  0.8740  0.7699 -0.6925
  883MOL0     C16476   0.381   0.396   7.897 -0.4354 -0.1567 -0.4148
  883MOL0     C16477   0.448   0.457   8.005  0.9800  0.7422  0.2203
  883MOL0     C16478   0.666   0.605   8.357  1.4166  0.1936 -0.1764
  883MOL0     C16479   0.789   0.548   8.372  0.8430 -0.3231 -0.0765
  883MOL0     C16480   0.879   0.589   8.468  0.1377  0.6287  0.4506
  883MOL0     C16481   0.848   0.684   8.553 -0.4818 -1.1053  0.9483
  883MOL0     O16482   0.944   0.722   8.645 -0.4677 -0.4260 -0.3107
  883MOL0     C16483   0.905   0.687   8.781 -0.7701  0.6558  0.3519
  883MOL0     C16484   0.971   0.785   8.881  0.5715 -0.2979  0.2726
  883MOL0     C16485   0.948   0.932   8.850  0.3186  0.5029  0.3821
  883MOL0     C16486   1.051   1.028   8.903  0.2566 -0.2595 -0.1883
  883MOL0     C16487   1.060   1.038   9.052  0.3208  0.5607 -0.3253
  883MOL0     C16488   1.053   1.062   9.169  0.5226  1.1418  0.0937
  883MOL0     C16489   0.733   0.753   8.537 -0.1574  0.6576  0.6248
  883MOL0     C16490   0.640   0.711   8.441  0.6402 -0.1890 -1.0643
  883MOL0     H16491   0.550   0.202   8.195 -2.4215  0.3111  2.8443
  883MOL0     H16492   0.413   0.064   8.008 -2.1060  0.3026  0.1562
  883MOL0     H16493   0.198   0.049   7.908 -0.5951 -0.2360 -0.1746
  883MOL0     H16494   0.231  -0.002   7.743  1.0983 -1.4609  1.1062
  883MOL0     H16495   0.013   0.060   7.729 -0.0511 -0.1252  0.5904
  883MOL0     H16496   0.097   0.180   7.645  0.7776 -0.3106 -0.4972
  883MOL0     H16497  -0.025   0.316   7.776  0.9960  4.6287  2.4251
  883MOL0     H16498   0.099   0.298   7.902 -0.6226 -0.9552  0.5998
  883MOL0     H16499  -0.172   0.158   7.888 -1.2233 -3.5829  2.6963
  883MOL0     H16500  -0.048   0.098   7.987  0.5058  0.2400  0.2271
  883MOL0     H16501  -0.229   0.259   8.085  0.0640  0.9682  2.2488
  883MOL0     H16502  -0.178   0.383   7.984 -2.4575 -1.8142 -0.7998
  883MOL0     H16503   0.039   0.410   8.109 -0.7233  1.1846 -1.4424
  883MOL0     H16504  -0.012   0.258   8.202 -2.7614  0.2016 -0.5356
  883MOL0     H16505  -0.198   0.495   8.218 -0.5770 -0.7481  1.6733
  883MOL0     H16506  -0.173   0.345   8.299  0.2883 -0.4787 -1.7375
  883MOL0     H16507  -0.065   0.513   8.422 -3.7410 -0.5078 -1.0785
  883MOL0     H16508   0.044   0.559   8.285  3.0245 -2.1976  1.1113
  883MOL0     H16509   0.280   0.417   8.265  1.8236 -1.1214  0.1201
  883MOL0     H16510   0.475   0.237   8.375  1.3420  2.5685  1.8128
  883MOL0     H16511   0.408   0.130   8.495 -3.9491  0.6925  0.8616
  883MOL0     H16512   0.432   0.303   8.672  0.3047 -3.3285 -0.9776
  883MOL0     H16513   0.456   0.433   8.550  0.7870 -0.2684  0.7798
  883MOL0     H16514   0.642   0.193   8.577 -1.6632  0.0868  0.4477
  883MOL0     H16515   0.664   0.340   8.492  0.7952  2.1538  0.5517
  883MOL0     H16516   0.620   0.306   8.795 -1.2766 -3.8661 -2.2494
  883MOL0     H16517   0.609   0.458   8.734 -4.1337 -1.3651  0.2968
  883MOL0     H16518   0.755   0.123   8.820  1.6428 -3.3627  1.1599
  883MOL0     H16519   0.905  -0.006   8.966  1.6347 -0.0937  0.2016
  883MOL0     H16520   1.463   0.308   9.182  2.9904  0.0073  0.8612
  883MOL0     H16521   1.617   0.262   9.340 -0.9542  0.8055  1.3978
  883MOL0     H16522   1.685  -0.099   9.658  1.5060  0.4682 -3.1317
  883MOL0     H16523   1.518  -0.066   9.632  1.5069 -1.6227  4.0740
  883MOL0     H16524   1.548   0.159   9.691 -0.0002 -1.1384 -1.4755
  883MOL0     H16525   1.720   0.126   9.746  0.8642 -1.3056 -1.2313
  883MOL0     H16526   1.647  -0.037   9.908  1.5590 -0.4745 -2.2277
  883MOL0     H16527   1.484  -0.004   9.864 -0.4395  1.2254 -2.3402
  883MOL0     H16528   1.652   0.217   9.972  0.4950 -0.9452  0.0245
  883MOL0     H16529   1.480   0.221   9.933  0.8190  0.5620 -1.2658
  883MOL0     H16530   1.619   0.061  10.150 -0.8636 -0.8976  0.4215
  883MOL0     H16531   1.450   0.045  10.099  0.6865 -0.1424 -1.0522
  883MOL0     H16532   1.494   0.194  10.311 -2.0221  2.8214  0.6099
  883MOL0     H16533   1.396   0.267  10.201  0.0579  1.3554  1.5801
  883MOL0     H16534   1.679   0.340  10.208 -0.3151 -0.3449  0.2168
  883MOL0     H16535   1.556   0.396  10.083  0.6834  2.4241  0.4017
  883MOL0     H16536   1.521   0.415  10.370 -0.1228 -3.5444 -1.6590
  883MOL0     H16537   1.424   0.499  10.243 -0.1594 -2.9190 -3.2757
  883MOL0     H16538   1.431  -0.119   9.444  0.8502  1.0635  1.5640
  883MOL0     H16539   1.260  -0.062   9.269 -0.7871  0.8827 -0.7902
  883MOL0     H16540   1.194   0.308   8.922 -1.2334  2.6165 -0.4455
  883MOL0     H16541   1.056   0.428   8.769  0.0064  0.2861  1.3765
  883MOL0     H16542   0.321   0.452   7.825 -1.8651 -0.1061  0.7603
  883MOL0     H16543   0.461   0.565   8.004 -1.5314  1.1067 -1.6930
  883MOL0     H16544   0.815   0.465   8.306 -0.0940 -2.1927  1.7886
  883MOL0     H16545   0.973   0.536   8.468 -0.2111 -0.1290 -1.8145
  883MOL0     H16546   0.933   0.584   8.808 -1.7205  0.4516  0.5915
  883MOL0     H16547   0.796   0.685   8.778 -0.7485  1.0125 -2.5437
  883MOL0     H16548   0.921   0.758   8.975  2.9560  2.4942  2.5078
  883MOL0     H16549   1.078   0.768   8.893  0.7985 -0.0914 -1.3494
  883MOL0     H16550   0.857   0.968   8.897 -1.4955 -1.0807 -1.7121
  883MOL0     H16551   0.939   0.947   8.742  0.3694 -0.6686  0.2047
  883MOL0     H16552   1.146   0.999   8.859  0.3465  3.1400 -2.6334
  883MOL0     H16553   1.026   1.128   8.865  1.8179 -0.4774 -1.9304
  883MOL0     H16554   1.042   1.071   9.275 -1.9310  0.9965 -0.0791
  883MOL0     H16555   0.713   0.840   8.600 -0.1137  1.5805 -0.5908
  883MOL0     H16556   0.548   0.768   8.446 -0.8384 -2.5074  0.0291
  884MOL0     O16557   4.758   9.965   6.187  0.8735 -0.2080  0.3549
  884MOL0     C16558   4.754   9.913   6.291 -0.8622 -0.2263  0.0332
  884MOL0     O16559   4.655   9.946   6.388  0.0279  0.5875 -0.4236
  884MOL0     C16560   4.571  10.041   6.344  0.3494 -1.1486  0.4436
  884MOL0     C16561   4.610  10.175   6.354  0.2454  0.1266  0.7905
  884MOL0     C16562   4.524  10.287   6.352 -0.5835  0.8398 -0.8001
  884MOL0     C16563   4.390  10.267   6.321  0.3872  0.2193  0.8353
  884MOL0     O16564   4.320  10.385   6.312 -0.0340  0.3295 -0.3083
  884MOL0     C16565   4.195  10.390   6.247  0.0593 -0.1184  0.0240
  884MOL0     C16566   4.192  10.380   6.092 -0.7333  0.1229 -0.4656
  884MOL0     C16567   4.221  10.515   6.027 -0.8655 -0.1990 -0.0217
  884MOL0     C16568   4.376  10.520   6.007 -0.3034  0.0229 -0.0546
  884MOL0     C16569   4.414  10.614   5.890  0.1400 -0.3692 -0.0109
  884MOL0     C16570   4.400  10.759   5.937 -0.1445  0.3393  0.4430
  884MOL0     C16571   4.455  10.859   5.829 -0.1785 -0.5638 -0.1040
  884MOL0     C16572   4.413  10.997   5.857 -0.5734 -0.1242  0.5162
  884MOL0     N16573   4.479  11.062   5.969  0.2943 -0.2653  0.0406
  884MOL0     C16574   4.414  11.154   6.050 -0.3768 -0.2546  0.4507
  884MOL0     C16575   4.514  11.196   6.133  0.0326 -0.4347  0.0626
  884MOL0     C16576   4.468  11.314   6.216  0.7348  0.2468 -0.7755
  884MOL0     C16577   4.373  11.280   6.334 -0.2474  0.1381  0.0968
  884MOL0     C16578   4.318  11.411   6.387  0.1710  0.7169 -1.0405
  884MOL0     C16579   4.227  11.494   6.297  0.1061  0.2324  0.8764
  884MOL0     O16580   4.103  11.422   6.266  0.2437  0.8003  0.3433
  884MOL0     C16581   4.000  11.503   6.220  0.3065  0.0831 -0.5644
  884MOL0     C16582   3.870  11.446   6.215  0.0061 -0.2346 -0.2375
  884MOL0     C16583   3.756  11.522   6.179  0.3429  0.2042  0.6328
  884MOL0     C16584   3.778  11.651   6.128  0.0789  0.7973 -0.1189
  884MOL0     C16585   3.673  11.709   6.045  0.3606 -0.4979 -0.3918
  884MOL0     O16586   3.578  11.628   5.991  0.2808  0.8381  0.3320
  884MOL0     C16587   3.616  11.524   5.907 -0.6781  0.4766  0.4194
  884MOL0     C16588   3.527  11.418   5.907  0.1684  0.0461  0.0331
  884MOL0     C16589   3.561  11.302   5.829  0.3230 -0.4219 -0.5691
  884MOL0     C16590   3.686  11.289   5.764  0.9658 -0.4914  1.0409
  884MOL0     O16591   3.714  11.175   5.694 -0.2600  0.6784 -0.0899
  884MOL0     C16592   3.848  11.138   5.662  0.5434 -0.2153  0.1104
  884MOL0     C16593   3.841  11.018   5.561 -0.8186 -0.4561  0.1864
  884MOL0     C16594   3.980  10.962   5.540  0.7118 -0.5110  0.3403
  884MOL0     C16595   3.969  10.853   5.441  0.2245  0.8016  0.5011
  884MOL0     C16596   4.099  10.811   5.365 -0.5722 -0.2289 -0.4675
  884MOL0     C16597   4.190  10.745   5.467  0.1993 -0.2221 -0.3679
  884MOL0     C16598   4.279  10.643   5.406 -0.1504 -0.3556  0.1027
  884MOL0     C16599   4.418  10.667   5.424  0.1025 -0.5068 -0.3987
  884MOL0    Cl16600   4.490  10.539   5.335 -0.3282  0.0149  0.0138
  884MOL0     C16601   3.774  11.394   5.779  0.6521 -0.4948  0.3098
  884MOL0     C16602   3.739  11.512   5.847  1.3094  0.3035 -0.8471
  884MOL0     O16603   3.663  11.833   6.033 -0.1084  0.2195  0.2128
  884MOL0     C16604   3.908  11.709   6.125  0.0072  0.5801  0.0726
  884MOL0     C16605   4.014  11.640   6.181 -0.2646  0.4782  0.2975
  884MOL0     N16606   4.626  11.124   6.108 -0.4017 -0.0859 -0.6448
  884MOL0     N16607   4.615  11.047   6.011 -0.0699 -0.0696  0.4787
  884MOL0     C16608   4.345  10.135   6.303  0.5685 -0.5212 -0.2501
  884MOL0     C16609   4.428  10.022   6.318  0.6235  0.2101 -1.9211
  884MOL0     C16610   4.834   9.792   6.320 -0.0633 -0.1664  0.3204
  884MOL0     C16611   4.890   9.708   6.222  0.3382  0.4190 -0.3967
  884MOL0     C16612   4.975   9.608   6.266  0.4743 -0.1482  0.3848
  884MOL0     C16613   4.992   9.569   6.406 -0.6183  0.2094 -0.2274
  884MOL0     O16614   5.049   9.452   6.462  0.6470  0.2931  0.5637
  884MOL0     C16615   5.090   9.358   6.358 -0.4598 -0.6827  0.2927
  884MOL0     C16616   5.141   9.226   6.416  0.2063 -0.2311  0.4073
  884MOL0     C16617   5.035   9.153   6.498  0.2072  0.1792 -0.9400
  884MOL0     C16618   5.088   9.021   6.551 -0.5310  0.0302  0.0258
  884MOL0     C16619   5.156   9.043   6.680 -0.1040 -0.1787  0.4068
  884MOL0     C16620   5.215   9.061   6.787 -0.3317 -0.7698 -0.1590
  884MOL0     C16621   4.946   9.656   6.493  0.1227 -1.2410 -0.4591
  884MOL0     C16622   4.864   9.767   6.452 -0.1758 -0.7625  0.1406
  884MOL0     H16623   4.710  10.201   6.386 -0.5325  4.5939  0.1885
  884MOL0     H16624   4.561  10.388   6.363 -1.6699  1.1427  0.2791
  884MOL0     H16625   4.129  10.475   6.265 -1.1131 -0.9528 -0.2028
  884MOL0     H16626   4.136  10.306   6.284  2.0924 -0.8280  1.8401
  884MOL0     H16627   4.087  10.356   6.070 -1.1912 -0.9109  2.4279
  884MOL0     H16628   4.245  10.300   6.041 -1.4168  1.3859 -3.4031
  884MOL0     H16629   4.180  10.599   6.084 -0.6753 -0.2747  0.2305
  884MOL0     H16630   4.168  10.517   5.931  2.3700 -2.4700 -2.0475
  884MOL0     H16631   4.434  10.551   6.095  4.2649 -1.3206 -2.3125
  884MOL0     H16632   4.416  10.422   5.980  0.8349 -0.7834  3.8926
  884MOL0     H16633   4.347  10.610   5.804 -2.2744 -2.9194  1.8287
  884MOL0     H16634   4.518  10.587   5.867  0.0834 -0.2681 -0.3900
  884MOL0     H16635   4.454  10.782   6.029 -0.7486  2.9462  0.2294
  884MOL0     H16636   4.295  10.774   5.964 -1.1528 -1.3520 -2.0622
  884MOL0     H16637   4.563  10.845   5.817 -0.2944 -0.8786 -0.8296
  884MOL0     H16638   4.410  10.834   5.733  1.6509  3.4126 -2.2300
  884MOL0     H16639   4.307  10.996   5.885 -0.7493 -0.7129 -0.1509
  884MOL0     H16640   4.414  11.052   5.763  0.6144  0.1668  0.6778
  884MOL0     H16641   4.313  11.191   6.064 -0.4066 -0.6637  1.4423
  884MOL0     H16642   4.442  11.403   6.159  1.0347  1.5864  1.0862
  884MOL0     H16643   4.555  11.352   6.271 -0.1034 -0.1136  0.8842
  884MOL0     H16644   4.422  11.236   6.421  0.9418  0.4214 -0.4139
  884MOL0     H16645   4.300  11.209   6.292  2.1212 -2.6503  0.3926
  884MOL0     H16646   4.260  11.374   6.471  3.2956 -0.7812  0.6422
  884MOL0     H16647   4.407  11.460   6.428  0.8684 -0.0618 -1.5745
  884MOL0     H16648   4.278  11.537   6.210  2.9705 -2.6023  0.9309
  884MOL0     H16649   4.199  11.586   6.349 -1.9612 -0.5140  1.1752
  884MOL0     H16650   3.853  11.343   6.246  2.4626 -0.3965  0.7780
  884MOL0     H16651   3.661  11.471   6.195  1.6211 -2.0224  1.6528
  884MOL0     H16652   3.434  11.419   5.964  0.6153 -3.8791  1.0752
  884MOL0     H16653   3.492  11.219   5.818 -1.6271  0.7727  1.6798
  884MOL0     H16654   3.887  11.100   5.757 -2.8877 -0.9982  1.3638
  884MOL0     H16655   3.915  11.213   5.619  0.2699 -1.0641 -1.9054
  884MOL0     H16656   3.803  11.056   5.465  0.2527  0.2923  0.0436
  884MOL0     H16657   3.775  10.937   5.593 -0.8737 -0.4919 -0.0160
  884MOL0     H16658   4.025  10.934   5.636 -0.3904 -0.2705  0.9523
  884MOL0     H16659   4.040  11.045   5.501 -0.2682  2.1356  3.8648
  884MOL0     H16660   3.927  10.763   5.488  1.7270 -0.4554 -0.4783
  884MOL0     H16661   3.907  10.885   5.357 -0.6663  2.6974  1.8205
  884MOL0     H16662   4.144  10.897   5.315 -1.0816  0.8313  0.8539
  884MOL0     H16663   4.085  10.734   5.287 -2.4685  0.0806 -0.4785
  884MOL0     H16664   4.137  10.693   5.548  0.4623 -0.3930 -0.3031
  884MOL0     H16665   4.245  10.822   5.521 -0.9937  0.7275 -0.4802
  884MOL0     H16666   4.261  10.541   5.443  2.2974 -0.8004  0.2821
  884MOL0     H16667   4.261  10.639   5.298 -0.1758 -3.2216  0.1299
  884MOL0     H16668   4.430  10.665   5.533 -2.2404 -3.7810 -0.0378
  884MOL0     H16669   4.458  10.761   5.386  0.3524 -0.3888  0.1435
  884MOL0     H16670   3.870  11.367   5.738 -0.2896 -3.9796  0.0594
  884MOL0     H16671   3.802  11.600   5.851 -0.6334  1.7614 -0.6285
  884MOL0     H16672   3.931  11.805   6.080 -1.3347  0.5417 -0.7624
  884MOL0     H16673   4.111  11.686   6.197  1.0304 -2.4776  1.7968
  884MOL0     H16674   4.238  10.125   6.288  0.3990  3.1507 -2.9796
  884MOL0     H16675   4.391   9.921   6.333  2.8168 -0.2031  2.2551
  884MOL0     H16676   4.867   9.723   6.117  1.6935 -1.0458 -0.9386
  884MOL0     H16677   5.024   9.549   6.189 -2.7308 -3.3681  0.5469
  884MOL0     H16678   5.176   9.404   6.307  0.1030  3.2866  4.1871
  884MOL0     H16679   5.017   9.333   6.281  0.7339  2.3573 -2.0426
  884MOL0     H16680   5.177   9.164   6.334  0.9306 -1.1959  1.4216
  884MOL0     H16681   5.227   9.243   6.482  1.7611 -2.3367 -0.9574
  884MOL0     H16682   4.956   9.135   6.424  0.5497 -0.2711 -1.1990
  884MOL0     H16683   4.993   9.209   6.582  1.3543 -0.4526  0.0851
  884MOL0     H16684   4.997   8.962   6.565 -2.0812  2.0959 -0.7727
  884MOL0     H16685   5.161   8.971   6.487 -2.4741 -1.9788 -0.7627
  884MOL0     H16686   5.275   9.071   6.875  2.0986 -3.0898 -1.4091
  884MOL0     H16687   4.961   9.642   6.599 -2.4650 -1.4568 -0.0527
  884MOL0     H16688   4.841   9.843   6.526  1.0756 -0.3767  0.1578
  885MOL0     O16689   1.917   5.547   5.597  0.8206  0.9255  0.5384
  885MOL0     C16690   1.882   5.565   5.714 -0.4005  0.9617  0.9673
  885MOL0     O16691   1.793   5.659   5.757  0.5362  0.2282 -0.1219
  885MOL0     C16692   1.706   5.733   5.682 -0.5434 -0.4169 -1.0223
  885MOL0     C16693   1.722   5.758   5.543 -0.0922  0.1400  0.1075
  885MOL0     C16694   1.641   5.836   5.469  0.5070  0.1100  0.0843
  885MOL0     C16695   1.528   5.913   5.527 -0.2570 -0.4060 -0.2525
  885MOL0     O16696   1.432   5.986   5.455 -0.4421 -0.4824 -0.6500
  885MOL0     C16697   1.499   6.067   5.355 -0.5014  0.5143  0.1099
  885MOL0     C16698   1.439   6.200   5.358  0.4368  0.0252 -0.2082
  885MOL0     C16699   1.429   6.270   5.227  0.1947 -0.8717 -0.1411
  885MOL0     C16700   1.331   6.388   5.189 -0.1929  0.8720 -0.7803
  885MOL0     C16701   1.337   6.420   5.044 -0.2375  0.1454 -0.2584
  885MOL0     C16702   1.230   6.512   4.995 -0.2110  0.2332  0.5597
  885MOL0     C16703   1.088   6.471   5.006  0.8898  0.5849  0.1570
  885MOL0     C16704   0.989   6.577   4.952 -0.4857  1.2775 -0.2193
  885MOL0     N16705   1.034   6.638   4.822  0.9521  0.1007  0.5621
  885MOL0     C16706   1.032   6.584   4.690 -0.4518 -0.3302 -0.8264
  885MOL0     C16707   1.119   6.675   4.629  0.0354  0.5012  1.1613
  885MOL0     C16708   1.171   6.667   4.490  0.5388 -0.7664  0.5896
  885MOL0     C16709   1.248   6.780   4.432 -0.3604  0.2088 -0.5705
  885MOL0     C16710   1.299   6.752   4.292 -0.3029 -0.0105 -1.4041
  885MOL0     C16711   1.400   6.858   4.246 -0.1061  0.1932 -0.3551
  885MOL0     O16712   1.420   6.853   4.106 -0.3828  0.0934 -0.3147
  885MOL0     C16713   1.322   6.924   4.027 -0.3822  0.2120  0.1147
  885MOL0     C16714   1.318   6.908   3.888 -0.2570  0.3030 -0.3071
  885MOL0     C16715   1.241   6.982   3.804 -0.2022  0.3132  0.1992
  885MOL0     C16716   1.158   7.081   3.859 -0.4404 -0.4283  0.7268
  885MOL0     C16717   1.075   7.166   3.770  0.7262  0.3357  0.1600
  885MOL0     O16718   0.988   7.247   3.830  0.4523  0.6174  0.7618
  885MOL0     C16719   0.911   7.320   3.745 -0.2173 -0.5236 -1.1807
  885MOL0     C16720   0.777   7.297   3.720 -0.0700  0.0947  0.6788
  885MOL0     C16721   0.698   7.386   3.649  0.1043  0.0340  0.5184
  885MOL0     C16722   0.754   7.494   3.590 -0.0606  0.1352 -0.2374
  885MOL0     O16723   0.668   7.579   3.526 -0.0212 -1.4477  0.3946
  885MOL0     C16724   0.714   7.708   3.485  0.0224  0.2786 -0.9433
  885MOL0     C16725   0.592   7.783   3.444  0.8686  1.0443  0.0999
  885MOL0     C16726   0.617   7.918   3.369 -0.8012 -0.1260 -0.0493
  885MOL0     C16727   0.501   8.003   3.365  0.3336  0.1522 -0.5008
  885MOL0     C16728   0.551   8.142   3.325 -0.2855 -0.4387 -0.0517
  885MOL0     C16729   0.447   8.257   3.346 -0.0511 -0.9011  0.2808
  885MOL0     C16730   0.318   8.250   3.261 -0.3034 -0.1912  0.9872
  885MOL0     C16731   0.219   8.366   3.299 -0.7716 -0.2839  0.9221
  885MOL0    Cl16732   0.253   8.520   3.217 -0.2255 -0.1706 -0.2425
  885MOL0     C16733   0.886   7.527   3.619  0.4750 -0.1082  0.0547
  885MOL0     C16734   0.962   7.442   3.696 -0.2131 -0.0007  0.2628
  885MOL0     O16735   1.086   7.151   3.644 -0.1562  1.0409 -0.5225
  885MOL0     C16736   1.168   7.113   3.992 -0.0076  0.3797  0.7390
  885MOL0     C16737   1.249   7.030   4.080  0.4683 -0.2077  0.3279
  885MOL0     N16738   1.152   6.771   4.713  0.2303  0.6167  0.7896
  885MOL0     N16739   1.110   6.753   4.833 -0.0515  0.8646 -0.3032
  885MOL0     C16740   1.514   5.896   5.668 -0.2802 -0.2687  0.1505
  885MOL0     C16741   1.599   5.804   5.740 -0.0496  0.0289 -1.0458
  885MOL0     C16742   1.946   5.492   5.821 -1.1924 -0.1944 -0.4302
  885MOL0     C16743   2.063   5.414   5.808  0.9123  0.6268 -0.1128
  885MOL0     C16744   2.129   5.353   5.913  0.6175  0.2836 -0.5388
  885MOL0     C16745   2.078   5.358   6.036  0.1317  0.0802 -0.7159
  885MOL0     O16746   2.127   5.291   6.147  0.0308 -0.5327 -0.0338
  885MOL0     C16747   2.237   5.201   6.139  1.2372  0.7034 -1.0687
  885MOL0     C16748   2.265   5.128   6.277 -0.1423 -0.5764  0.7258
  885MOL0     C16749   2.395   5.040   6.256 -1.5924 -0.8321  0.1431
  885MOL0     C16750   2.387   4.918   6.358 -0.2733 -0.3854  0.3559
  885MOL0     C16751   2.509   4.839   6.372 -0.2562 -0.2191 -0.8422
  885MOL0     C16752   2.606   4.766   6.372 -0.4468  0.2477 -0.9772
  885MOL0     C16753   1.967   5.429   6.055 -0.2458 -0.5749 -0.8848
  885MOL0     C16754   1.907   5.502   5.951  0.0654 -0.0162 -0.1639
  885MOL0     H16755   1.793   5.705   5.481 -0.3858  0.5891 -0.6212
  885MOL0     H16756   1.666   5.864   5.367 -4.5937  0.4852 -1.3017
  885MOL0     H16757   1.478   6.013   5.262  0.4256 -1.2245  0.8485
  885MOL0     H16758   1.607   6.072   5.377 -1.0147  1.4198  2.9010
  885MOL0     H16759   1.485   6.262   5.435  1.6715 -1.1987  0.0656
  885MOL0     H16760   1.335   6.188   5.390  0.6998 -1.5507  0.1214
  885MOL0     H16761   1.391   6.193   5.158  1.2516 -0.5986 -1.0530
  885MOL0     H16762   1.529   6.292   5.191 -0.2090  1.5510  0.0681
  885MOL0     H16763   1.230   6.360   5.220  0.1458 -4.0524 -3.0889
  885MOL0     H16764   1.376   6.462   5.256  1.5154 -2.2278  1.8048
  885MOL0     H16765   1.308   6.329   4.991 -3.1259 -0.0297  1.3794
  885MOL0     H16766   1.431   6.460   5.007 -0.4325  1.4496  0.5765
  885MOL0     H16767   1.248   6.544   4.892  0.1189 -1.7279 -0.0145
  885MOL0     H16768   1.233   6.608   5.048 -1.5821  0.7194 -0.1818
  885MOL0     H16769   1.084   6.379   4.947  2.0978  0.9773 -0.5832
  885MOL0     H16770   1.075   6.457   5.113  1.2874 -2.0019 -0.0734
  885MOL0     H16771   0.970   6.652   5.029  1.9542  0.6649  1.0608
  885MOL0     H16772   0.891   6.533   4.932 -0.0692 -1.5016  3.0578
  885MOL0     H16773   0.998   6.486   4.656 -4.6572 -0.3471  2.5035
  885MOL0     H16774   1.081   6.657   4.427  1.2664  0.4885 -0.7240
  885MOL0     H16775   1.227   6.575   4.468  0.4610 -0.0332 -3.5800
  885MOL0     H16776   1.337   6.790   4.494 -1.0137 -0.6406  0.5378
  885MOL0     H16777   1.187   6.871   4.432 -2.0673 -0.8952 -0.6693
  885MOL0     H16778   1.328   6.649   4.269 -2.9746 -0.7026 -1.9384
  885MOL0     H16779   1.208   6.765   4.234 -2.2296 -3.3373  0.5457
  885MOL0     H16780   1.495   6.843   4.298 -0.0594  1.2982 -0.1100
  885MOL0     H16781   1.365   6.955   4.283 -1.2386 -0.2089 -0.3390
  885MOL0     H16782   1.388   6.837   3.845  1.5571  3.1137 -2.3670
  885MOL0     H16783   1.239   6.941   3.703  1.2600 -0.6901  0.5285
  885MOL0     H16784   0.727   7.208   3.757  1.3436 -2.5573 -3.1494
  885MOL0     H16785   0.599   7.347   3.632 -0.4064  1.5487 -0.1556
  885MOL0     H16786   0.775   7.698   3.395  1.7740 -1.9379  0.3962
  885MOL0     H16787   0.780   7.760   3.555  0.0632  1.9469 -2.1545
  885MOL0     H16788   0.556   7.817   3.542 -2.0275 -0.5215 -0.3011
  885MOL0     H16789   0.509   7.720   3.411  1.5303 -1.6557  3.1844
  885MOL0     H16790   0.653   7.911   3.266  2.1094 -0.2210  0.8596
  885MOL0     H16791   0.697   7.970   3.423  0.5878  0.5426 -2.5962
  885MOL0     H16792   0.441   7.947   3.292  0.4944 -1.1517  0.3419
  885MOL0     H16793   0.439   7.988   3.454 -0.7878 -0.8512 -1.4082
  885MOL0     H16794   0.597   8.149   3.225 -2.0987 -0.2236 -0.9156
  885MOL0     H16795   0.633   8.161   3.395 -0.0562 -0.5599 -0.2853
  885MOL0     H16796   0.499   8.352   3.336 -1.3146 -0.3117 -0.9897
  885MOL0     H16797   0.420   8.245   3.452 -0.7058 -2.7101 -0.0603
  885MOL0     H16798   0.338   8.247   3.154 -0.2751  0.7885  0.9596
  885MOL0     H16799   0.272   8.154   3.288  0.3690 -0.6011  0.6959
  885MOL0     H16800   0.232   8.372   3.408 -3.1076 -0.7699  1.2858
  885MOL0     H16801   0.115   8.347   3.272 -0.9164  1.3902  0.1836
  885MOL0     H16802   0.935   7.606   3.563 -0.5947 -0.1795 -1.0215
  885MOL0     H16803   1.068   7.452   3.718 -0.1289 -1.3574  0.5392
  885MOL0     H16804   1.104   7.191   4.031 -1.0217 -0.9551  1.8786
  885MOL0     H16805   1.248   7.069   4.182  2.1585  3.6595 -0.9589
  885MOL0     H16806   1.436   5.955   5.714 -0.0379  2.5067 -2.7246
  885MOL0     H16807   1.578   5.800   5.846 -0.5601 -2.2339 -1.1973
  885MOL0     H16808   2.109   5.412   5.709  0.3348  1.8867 -0.4233
  885MOL0     H16809   2.212   5.291   5.883 -1.5521 -2.8627 -0.5166
  885MOL0     H16810   2.333   5.250   6.121  3.0946 -2.5656 -0.7141
  885MOL0     H16811   2.224   5.128   6.058 -0.1488  1.2330 -1.3474
  885MOL0     H16812   2.278   5.202   6.356 -0.4556 -0.6638  0.8625
  885MOL0     H16813   2.184   5.057   6.296 -3.3660  2.5711 -0.1193
  885MOL0     H16814   2.484   5.096   6.284 -1.3716 -0.7844 -0.6140
  885MOL0     H16815   2.400   5.012   6.150  3.1497 -1.9131  0.4631
  885MOL0     H16816   2.357   4.951   6.457 -2.5556  0.9781 -0.7185
  885MOL0     H16817   2.313   4.847   6.318  1.6376 -2.4429  0.2458
  885MOL0     H16818   2.698   4.713   6.388 -1.5116 -1.2157  0.5540
  885MOL0     H16819   1.933   5.443   6.157 -0.2373  2.0714 -1.1577
  885MOL0     H16820   1.844   5.581   5.990 -0.4439 -0.8809  0.8007
  886MOL0     O16821   9.779   4.625   5.190  0.3813 -0.2180  0.7464
  886MOL0     C16822   9.886   4.564   5.177 -0.7753  0.5117  0.6407
  886MOL0     O16823   9.895   4.430   5.139  0.0965  0.0837  0.0264
  886MOL0     C16824   9.779   4.354   5.145 -0.1056  0.7821 -0.4815
  886MOL0     C16825   9.675   4.375   5.049  0.0608  0.2153  0.3836
  886MOL0     C16826   9.553   4.303   5.058  0.4169 -0.0385 -0.4850
  886MOL0     C16827   9.539   4.206   5.161  0.6766 -0.1631  0.1202
  886MOL0     O16828   9.423   4.142   5.191 -0.4529 -0.0395 -0.5051
  886MOL0     C16829   9.331   4.124   5.091  0.3304  0.2002 -0.4397
  886MOL0     C16830   9.222   4.029   5.134  0.5550  0.3293 -0.0130
  886MOL0     C16831   9.121   4.114   5.212  0.6629  0.1251 -0.3364
  886MOL0     C16832   8.983   4.041   5.206 -1.1933  0.0231  0.5611
  886MOL0     C16833   8.987   3.912   5.295  0.6659 -0.5205  0.0344
  886MOL0     C16834   8.838   3.856   5.287 -0.9717 -0.4793 -0.1563
  886MOL0     C16835   8.800   3.774   5.393 -0.2444  0.5090  0.4074
  886MOL0     C16836   8.865   3.637   5.408 -0.0348  0.9444 -0.2621
  886MOL0     N16837   8.793   3.569   5.519  1.1412  0.8689 -0.8587
  886MOL0     C16838   8.662   3.526   5.496 -0.6085 -0.6529  0.4616
  886MOL0     C16839   8.644   3.444   5.601 -0.5146  0.6100 -0.4654
  886MOL0     C16840   8.518   3.370   5.644  0.0880 -0.3935 -0.1204
  886MOL0     C16841   8.535   3.220   5.674  1.1117 -0.9098 -0.4004
  886MOL0     C16842   8.409   3.140   5.654  0.1826 -0.5794  0.9106
  886MOL0     C16843   8.319   3.154   5.777  0.3223  0.7693  0.6043
  886MOL0     O16844   8.373   3.107   5.896  0.2954  0.9235  0.0773
  886MOL0     C16845   8.302   3.125   6.011  0.5312 -0.5210 -0.1084
  886MOL0     C16846   8.165   3.139   6.020 -0.7947 -0.4624  0.6321
  886MOL0     C16847   8.107   3.146   6.144  1.1715  0.3005  0.2947
  886MOL0     C16848   8.178   3.144   6.266  0.1870  0.2433 -0.3504
  886MOL0     C16849   8.108   3.167   6.404  0.3835  0.2700  0.2932
  886MOL0     O16850   7.976   3.223   6.385  0.0348  0.5493  0.1023
  886MOL0     C16851   7.925   3.314   6.478  0.0214 -0.6155 -0.2919
  886MOL0     C16852   7.889   3.271   6.610  0.3384  0.1879 -0.2701
  886MOL0     C16853   7.846   3.365   6.705  0.2261 -1.2051 -0.4677
  886MOL0     C16854   7.870   3.508   6.686  0.9086  0.2565  0.3106
  886MOL0     O16855   7.877   3.596   6.793  0.1557 -0.3075 -0.0389
  886MOL0     C16856   7.897   3.546   6.925 -0.8631  0.9339 -0.0675
  886MOL0     C16857   7.766   3.514   6.994  0.0655 -0.5476  0.5556
  886MOL0     C16858   7.699   3.645   7.029  0.5009 -0.8435 -0.3661
  886MOL0     C16859   7.563   3.613   7.080  0.7170 -1.0296  0.3157
  886MOL0     C16860   7.563   3.546   7.219  0.0397 -0.1403  0.6576
  886MOL0     C16861   7.405   3.521   7.262 -0.2013 -0.5532 -0.3863
  886MOL0     C16862   7.383   3.472   7.403  0.3677  1.0398  0.0559
  886MOL0     C16863   7.237   3.467   7.428  0.4950  0.0272 -0.3040
  886MOL0    Cl16864   7.170   3.638   7.462 -0.3429  0.3311 -0.3312
  886MOL0     C16865   7.895   3.552   6.555 -0.0632  0.0959  0.3194
  886MOL0     C16866   7.930   3.454   6.456 -0.4378 -0.4525  0.2487
  886MOL0     O16867   8.160   3.144   6.506  0.2529 -0.0014  0.3286
  886MOL0     C16868   8.312   3.134   6.258 -0.4414  0.4502  0.4239
  886MOL0     C16869   8.379   3.130   6.133 -0.1464  0.6608  1.2567
  886MOL0     N16870   8.753   3.439   5.686 -1.0242  1.7655  0.5217
  886MOL0     N16871   8.847   3.504   5.629  0.0614  0.1149 -0.7865
  886MOL0     C16872   9.636   4.185   5.257  0.8395  0.2994  0.8545
  886MOL0     C16873   9.754   4.262   5.246 -0.1506  0.2162  0.5746
  886MOL0     C16874  10.019   4.633   5.196  0.3299  0.6361  0.6358
  886MOL0     C16875  10.139   4.557   5.216 -0.1364 -0.0838  0.2353
  886MOL0     C16876  10.260   4.631   5.238  0.8535  0.0824 -0.5427
  886MOL0     C16877  10.258   4.768   5.249  0.8857 -0.4183 -0.5365
  886MOL0     O16878  10.366   4.842   5.252 -0.3805 -0.4393 -0.5654
  886MOL0     C16879  10.448   4.853   5.373 -0.1095 -0.4579  0.2901
  886MOL0     C16880  10.527   4.982   5.376 -0.7158 -1.1691  0.1875
  886MOL0     C16881  10.615   5.012   5.250 -0.2619 -0.3599  0.7503
  886MOL0     C16882  10.734   5.107   5.256 -0.0852 -0.1815 -0.1692
  886MOL0     C16883  10.683   5.253   5.250  0.3051  0.4267 -0.0678
  886MOL0     C16884  10.665   5.372   5.256  0.0306  0.4028  0.4113
  886MOL0     C16885  10.140   4.838   5.236  0.6647  0.2204  0.2030
  886MOL0     C16886  10.018   4.772   5.206  0.0878 -0.1072 -0.0491
  886MOL0     H16887   9.694   4.445   4.968  2.2679 -3.9434 -3.1638
  886MOL0     H16888   9.475   4.332   4.988  0.5260  0.2728 -0.4766
  886MOL0     H16889   9.382   4.081   5.005 -0.7597  0.5824 -1.2951
  886MOL0     H16890   9.282   4.218   5.062 -0.7547  0.2841  1.4883
  886MOL0     H16891   9.256   3.947   5.198  0.9319  0.2213 -0.3418
  886MOL0     H16892   9.185   3.994   5.036 -0.7591  3.9474 -0.9523
  886MOL0     H16893   9.102   4.214   5.170 -1.4599  0.1633  0.5575
  886MOL0     H16894   9.154   4.124   5.316  2.9556 -4.4311 -0.3830
  886MOL0     H16895   8.909   4.108   5.250 -0.0475  2.1445 -0.5309
  886MOL0     H16896   8.949   4.034   5.102  1.1758 -0.7311 -0.2396
  886MOL0     H16897   9.013   3.942   5.397 -5.8837 -5.0959  3.8851
  886MOL0     H16898   9.060   3.839   5.260  1.7168  0.5857 -0.1072
  886MOL0     H16899   8.824   3.798   5.195 -2.3847 -0.8347  0.2556
  886MOL0     H16900   8.768   3.939   5.272 -1.4101 -0.4499  1.8470
  886MOL0     H16901   8.815   3.830   5.485  3.0985  1.1054 -0.3932
  886MOL0     H16902   8.691   3.767   5.383 -0.4200  0.7364  2.0027
  886MOL0     H16903   8.970   3.632   5.438  0.3216  0.3905 -1.5351
  886MOL0     H16904   8.857   3.568   5.324 -3.0219  1.4273 -0.4732
  886MOL0     H16905   8.591   3.538   5.415 -0.8550 -1.1416  0.5997
  886MOL0     H16906   8.444   3.394   5.567 -0.9476  0.8241  1.1946
  886MOL0     H16907   8.500   3.428   5.736  1.1960 -1.5713  0.8813
  886MOL0     H16908   8.564   3.199   5.777  0.2648 -0.4368 -0.0610
  886MOL0     H16909   8.606   3.182   5.599 -0.1376 -1.8444 -1.1525
  886MOL0     H16910   8.354   3.164   5.563  0.3095 -0.5509  0.8405
  886MOL0     H16911   8.441   3.036   5.640  2.8178  0.0880  1.4668
  886MOL0     H16912   8.226   3.103   5.749  0.7477  0.7495 -0.8636
  886MOL0     H16913   8.298   3.259   5.802  2.3796  1.1578  0.8702
  886MOL0     H16914   8.109   3.138   5.927 -2.7621 -3.3039  1.7018
  886MOL0     H16915   8.002   3.172   6.152  1.1517  0.9061 -1.4111
  886MOL0     H16916   7.864   3.168   6.634 -1.1336  0.6016  0.0834
  886MOL0     H16917   7.808   3.332   6.801  1.8209 -1.9608 -0.0702
  886MOL0     H16918   7.959   3.618   6.979 -1.1658 -0.5578  2.4377
  886MOL0     H16919   7.966   3.461   6.933  0.5003  1.9219 -0.9433
  886MOL0     H16920   7.787   3.454   7.084  0.1099 -0.7148  0.4344
  886MOL0     H16921   7.704   3.452   6.929  1.4484 -1.6387  0.2067
  886MOL0     H16922   7.688   3.700   6.935  1.6612 -3.5997 -2.2268
  886MOL0     H16923   7.763   3.693   7.104 -2.8532  2.7526  0.4958
  886MOL0     H16924   7.511   3.705   7.110  2.4569  0.0278  0.2535
  886MOL0     H16925   7.515   3.549   7.006 -3.0321 -0.5998  2.1061
  886MOL0     H16926   7.618   3.621   7.278 -0.3662  0.6601  0.0335
  886MOL0     H16927   7.598   3.442   7.216 -0.4979 -0.3423  1.2144
  886MOL0     H16928   7.370   3.448   7.189 -1.8004 -1.8957  1.5990
  886MOL0     H16929   7.342   3.610   7.254 -2.9142 -2.3726 -0.7253
  886MOL0     H16930   7.415   3.368   7.411 -2.5042 -0.2327 -2.6169
  886MOL0     H16931   7.432   3.532   7.479  0.5146  0.6048  0.3099
  886MOL0     H16932   7.222   3.397   7.511 -2.2588 -0.8447 -1.4253
  886MOL0     H16933   7.188   3.425   7.339  0.9304  2.4008 -1.7643
  886MOL0     H16934   7.914   3.657   6.537 -0.6000  0.4280  1.5779
  886MOL0     H16935   7.960   3.500   6.363 -0.8420  3.1928  1.7811
  886MOL0     H16936   8.381   3.157   6.339 -1.9852  2.8539  1.1463
  886MOL0     H16937   8.487   3.135   6.122 -0.0812  0.7314  1.9133
  886MOL0     H16938   9.616   4.112   5.335 -0.4020 -3.3851 -2.5635
  886MOL0     H16939   9.840   4.228   5.303  2.1676  0.3402 -2.5481
  886MOL0     H16940  10.148   4.450   5.225  2.6590  0.0329 -0.3293
  886MOL0     H16941  10.354   4.578   5.247  1.1290  0.7693  1.0008
  886MOL0     H16942  10.518   4.769   5.364  0.2802 -0.1614  0.5232
  886MOL0     H16943  10.381   4.839   5.459 -2.4984  0.1752 -1.3787
  886MOL0     H16944  10.446   5.052   5.399  0.5780  1.3995 -2.4973
  886MOL0     H16945  10.591   4.969   5.464  0.1861  0.4340 -0.1975
  886MOL0     H16946  10.550   5.062   5.178  1.2999  0.0307 -0.4415
  886MOL0     H16947  10.673   4.927   5.213  5.5188  1.1388  5.0119
  886MOL0     H16948  10.788   5.079   5.347 -2.3570 -0.9165  1.0287
  886MOL0     H16949  10.793   5.096   5.164 -0.3383  0.6279 -0.4379
  886MOL0     H16950  10.665   5.479   5.265  1.5161  0.3200  1.9551
  886MOL0     H16951  10.145   4.945   5.249 -0.5644 -0.0759  4.5920
  886MOL0     H16952   9.924   4.826   5.212 -0.4926 -1.0935 -0.0368
  887MOL0     O16953   2.451   5.699   7.687  0.1822  0.5842 -0.4557
  887MOL0     C16954   2.351   5.645   7.725 -0.1128 -0.0190 -0.8445
  887MOL0     O16955   2.331   5.508   7.733 -0.6552  0.1547  0.1948
  887MOL0     C16956   2.425   5.423   7.670  0.7452 -0.2486  0.7631
  887MOL0     C16957   2.556   5.425   7.709  0.5103  0.6211 -0.2991
  887MOL0     C16958   2.646   5.344   7.648 -0.3657  0.4436  0.1479
  887MOL0     C16959   2.606   5.266   7.542 -0.1433 -0.2280  0.0232
  887MOL0     O16960   2.701   5.181   7.486 -0.3384 -0.7690  0.0406
  887MOL0     C16961   2.832   5.161   7.544 -0.0371  0.0181 -0.2579
  887MOL0     C16962   2.902   5.023   7.508  0.7227  0.2685  0.6572
  887MOL0     C16963   2.814   4.905   7.555  0.4397 -0.3562 -0.7164
  887MOL0     C16964   2.804   4.898   7.705  0.0520 -0.8423 -0.3118
  887MOL0     C16965   2.680   4.817   7.734  0.1674 -0.0232 -0.2434
  887MOL0     C16966   2.628   4.814   7.876  0.4192 -0.5484 -0.5797
  887MOL0     C16967   2.630   4.962   7.943 -0.3158 -0.2699  0.5789
  887MOL0     C16968   2.548   5.074   7.874  0.1494 -0.2647 -0.0032
  887MOL0     N16969   2.402   5.057   7.867 -0.9768  0.1943 -0.7967
  887MOL0     C16970   2.322   5.084   7.971 -0.4304  0.9759 -0.4610
  887MOL0     C16971   2.193   5.077   7.929 -0.5744 -0.6493 -0.0554
  887MOL0     C16972   2.074   5.087   8.012 -0.3513 -0.4062 -0.0540
  887MOL0     C16973   1.946   5.072   7.923 -0.5952  0.2954 -0.9371
  887MOL0     C16974   1.902   5.196   7.849 -0.6631  0.2963  0.2672
  887MOL0     C16975   1.860   5.316   7.947 -1.3761  0.1733  0.1663
  887MOL0     O16976   1.976   5.398   7.961  0.1025  0.0803 -0.4213
  887MOL0     C16977   1.993   5.470   8.071 -0.0570  0.4787 -0.0490
  887MOL0     C16978   2.125   5.510   8.096  0.2812  0.4990 -0.0437
  887MOL0     C16979   2.158   5.561   8.223  0.6999 -0.3476  0.8656
  887MOL0     C16980   2.057   5.592   8.308 -0.1931 -0.2177 -0.2561
  887MOL0     C16981   2.098   5.669   8.438  0.4521  0.0803 -0.8023
  887MOL0     O16982   2.007   5.682   8.529  0.0927  0.3398 -0.7405
  887MOL0     C16983   2.029   5.791   8.617 -0.9686  0.5029  0.4468
  887MOL0     C16984   2.117   5.775   8.732  0.4919 -0.9993  0.4249
  887MOL0     C16985   2.132   5.887   8.822  0.2214  0.0559  0.3322
  887MOL0     C16986   2.067   6.006   8.807  0.4932  0.0141  1.1012
  887MOL0     O16987   2.103   6.095   8.901 -0.2868 -0.4970 -0.3649
  887MOL0     C16988   2.040   6.224   8.900  0.7744 -0.0993 -0.6324
  887MOL0     C16989   2.101   6.295   9.019  1.0086  0.7093  0.5553
  887MOL0     C16990   2.238   6.363   8.980 -0.6217  0.3258 -0.5494
  887MOL0     C16991   2.289   6.442   9.105 -0.3529  0.4264  0.1305
  887MOL0     C16992   2.416   6.523   9.066  0.0134 -0.5651  0.6997
  887MOL0     C16993   2.485   6.551   9.196 -0.3385 -0.3392 -0.1855
  887MOL0     C16994   2.624   6.611   9.155 -0.7639  0.2844  0.0322
  887MOL0     C16995   2.708   6.637   9.276 -0.1712  0.4172 -0.1824
  887MOL0    Cl16996   2.872   6.693   9.219 -0.4710 -0.1314 -0.0520
  887MOL0     C16997   1.971   6.016   8.699 -0.1142 -0.5084 -0.3801
  887MOL0     C16998   1.955   5.906   8.607 -0.2442 -0.1073  0.5817
  887MOL0     O16999   2.221   5.704   8.447 -0.1377  0.4611 -0.4852
  887MOL0     C17000   1.923   5.568   8.275 -0.5237 -0.0353 -0.2683
  887MOL0     C17001   1.889   5.507   8.152 -0.0236 -0.0796  0.5589
  887MOL0     N17002   2.201   5.053   7.796 -1.1509  0.8397 -0.6670
  887MOL0     N17003   2.326   5.036   7.760 -0.1355 -0.6089 -0.1254
  887MOL0     C17004   2.476   5.261   7.504  0.5314  0.4814  0.3260
  887MOL0     C17005   2.379   5.337   7.573 -0.5898  0.6608 -0.0822
  887MOL0     C17006   2.226   5.727   7.756  0.1255  0.0341 -0.5315
  887MOL0     C17007   2.226   5.874   7.760 -0.1084  0.3149  0.0066
  887MOL0     C17008   2.107   5.949   7.783  0.1448 -0.6510 -0.5378
  887MOL0     C17009   1.991   5.877   7.826 -0.2953 -0.0506  0.2143
  887MOL0     O17010   1.876   5.926   7.867 -0.5834 -0.2080 -0.8326
  887MOL0     C17011   1.876   6.048   7.932  0.4124 -0.7374 -0.8665
  887MOL0     C17012   1.956   6.048   8.068 -0.2283  0.1797 -0.0484
  887MOL0     C17013   1.909   5.950   8.180  0.0029 -0.3291 -0.8156
  887MOL0     C17014   1.784   5.999   8.253  0.0735  0.4649 -0.5823
  887MOL0     C17015   1.720   5.886   8.321  0.4636 -0.8870 -0.9145
  887MOL0     C17016   1.671   5.786   8.363  0.1407 -0.8104 -0.5055
  887MOL0     C17017   1.999   5.734   7.824 -0.5741  0.4228  0.2852
  887MOL0     C17018   2.105   5.661   7.791 -0.1074 -0.3893 -0.3177
  887MOL0     H17019   2.579   5.474   7.802 -2.9633 -1.0871  1.6728
  887MOL0     H17020   2.745   5.361   7.689  0.1840  0.1742 -1.0252
  887MOL0     H17021   2.822   5.172   7.652 -1.3906  3.0478 -0.5804
  887MOL0     H17022   2.903   5.235   7.505  1.6385 -1.5052 -0.2093
  887MOL0     H17023   2.996   5.023   7.564 -0.3894 -0.4020  2.6375
  887MOL0     H17024   2.913   5.015   7.400 -3.5346  2.4726 -0.1433
  887MOL0     H17025   2.855   4.815   7.508 -0.9018 -0.0738 -2.5732
  887MOL0     H17026   2.715   4.921   7.510  0.4964  0.3859 -0.5793
  887MOL0     H17027   2.888   4.857   7.761 -0.8678  0.9097  2.5831
  887MOL0     H17028   2.805   4.995   7.755 -0.4143 -1.4195  0.8773
  887MOL0     H17029   2.684   4.715   7.694 -1.7883 -0.0566 -0.4251
  887MOL0     H17030   2.598   4.869   7.684  0.8294  1.4315  0.1361
  887MOL0     H17031   2.690   4.747   7.936  0.7725  2.3334  2.6208
  887MOL0     H17032   2.520   4.794   7.871  0.0125  0.6939  1.4781
  887MOL0     H17033   2.593   4.949   8.045  1.3063 -0.7705  1.1241
  887MOL0     H17034   2.734   4.990   7.959 -1.2888  2.9521  2.0503
  887MOL0     H17035   2.586   5.088   7.772  0.7441 -2.1530 -0.0818
  887MOL0     H17036   2.572   5.168   7.925 -2.0344  0.3655 -0.0371
  887MOL0     H17037   2.353   5.097   8.074 -1.3327 -2.6744  0.4254
  887MOL0     H17038   2.078   5.185   8.060  1.0076 -0.8706  0.8236
  887MOL0     H17039   2.076   5.003   8.083 -2.0779 -2.8014 -2.6257
  887MOL0     H17040   1.866   5.037   7.988  1.1596 -0.0284  1.1788
  887MOL0     H17041   1.974   4.985   7.862  1.5557  0.8398 -0.8235
  887MOL0     H17042   1.983   5.225   7.781  0.7487 -0.5385  1.5358
  887MOL0     H17043   1.823   5.170   7.778 -1.0028 -0.6656  0.9607
  887MOL0     H17044   1.816   5.285   8.042 -3.3519  3.6611  0.5837
  887MOL0     H17045   1.781   5.367   7.892 -0.9099  1.3221  0.5288
  887MOL0     H17046   2.201   5.493   8.021  0.2765  0.3606 -0.0170
  887MOL0     H17047   2.263   5.587   8.240  0.2166  0.3031  3.2126
  887MOL0     H17048   2.166   5.682   8.758  0.8178 -0.9124  0.1332
  887MOL0     H17049   2.189   5.868   8.912 -2.1393 -2.1583  1.5158
  887MOL0     H17050   1.932   6.206   8.908  0.8854 -2.6323 -3.1156
  887MOL0     H17051   2.053   6.290   8.814 -0.7171 -0.0286 -0.8296
  887MOL0     H17052   2.108   6.233   9.109 -2.9398 -0.1316  0.4394
  887MOL0     H17053   2.035   6.375   9.054  1.2868  0.7088  1.1000
  887MOL0     H17054   2.223   6.432   8.897 -2.4884  3.8535  2.4312
  887MOL0     H17055   2.313   6.287   8.954 -2.4698 -2.3808  1.4453
  887MOL0     H17056   2.217   6.507   9.156  0.2802  0.2935  1.2208
  887MOL0     H17057   2.321   6.365   9.175 -0.0470 -0.9074 -1.4217
  887MOL0     H17058   2.380   6.613   9.015  2.7235  0.3932  0.3039
  887MOL0     H17059   2.479   6.477   8.990 -0.8308  0.9845 -1.0157
  887MOL0     H17060   2.493   6.470   9.268 -1.1481  1.0337  1.5034
  887MOL0     H17061   2.433   6.629   9.252  0.2716 -0.0623  0.0064
  887MOL0     H17062   2.683   6.537   9.102  0.2659  1.4935 -0.5729
  887MOL0     H17063   2.613   6.698   9.088  0.0353  1.5444  1.4726
  887MOL0     H17064   2.717   6.546   9.336  0.9593  0.8328  0.3197
  887MOL0     H17065   2.666   6.712   9.344  0.2749  0.0390  0.5240
  887MOL0     H17066   1.916   6.107   8.678  0.4977 -0.4529 -1.8015
  887MOL0     H17067   1.894   5.904   8.517 -2.0754 -1.0478  1.7740
  887MOL0     H17068   1.846   5.593   8.347 -0.7049  3.4534 -1.4917
  887MOL0     H17069   1.794   5.456   8.147  1.0411 -2.3235  1.5948
  887MOL0     H17070   2.439   5.207   7.418  1.9068 -1.5210  0.9172
  887MOL0     H17071   2.276   5.338   7.540 -0.9599  4.4139  0.7742
  887MOL0     H17072   2.320   5.919   7.731 -0.0632  0.1408 -0.1180
  887MOL0     H17073   2.102   6.058   7.784 -0.8416 -0.6471  1.9811
  887MOL0     H17074   1.770   6.056   7.956 -0.1588 -1.2418 -2.9320
  887MOL0     H17075   1.900   6.125   7.857 -0.6932 -1.3352 -1.8773
  887MOL0     H17076   2.060   6.020   8.049 -0.1757  0.3907 -0.0763
  887MOL0     H17077   1.973   6.147   8.112  0.1295 -0.1076  0.4635
  887MOL0     H17078   1.991   5.930   8.250 -0.0811  0.9428 -0.3344
  887MOL0     H17079   1.894   5.853   8.131 -2.7652 -1.9324  2.7399
  887MOL0     H17080   1.809   6.083   8.318  4.3521  0.0274 -1.3500
  887MOL0     H17081   1.719   6.038   8.174 -0.5237 -2.6816 -1.7833
  887MOL0     H17082   1.620   5.696   8.389 -3.5578  1.0737 -0.5759
  887MOL0     H17083   1.910   5.678   7.853  0.2785 -1.6744 -0.8857
  887MOL0     H17084   2.106   5.553   7.804  0.8388 -0.2488  0.9155
  888MOL0     O17085   0.112   7.342   9.733 -0.6752  0.6031 -0.2469
  888MOL0     C17086   0.218   7.298   9.785  0.3527  0.0586  0.3781
  888MOL0     O17087   0.244   7.156   9.799  0.3966 -0.7377  0.3891
  888MOL0     C17088   0.152   7.058   9.769  0.2564 -0.2397  0.0282
  888MOL0     C17089   0.196   6.955   9.690 -0.6426  0.2401  0.5805
  888MOL0     C17090   0.111   6.859   9.640  0.6653  0.5012 -0.4674
  888MOL0     C17091  -0.020   6.854   9.696  0.2792 -0.0570  0.0800
  888MOL0     O17092  -0.106   6.754   9.660  0.8397  0.1311  0.3846
  888MOL0     C17093  -0.134   6.750   9.526  0.5538 -1.2329  0.3294
  888MOL0     C17094  -0.199   6.603   9.498  0.7499 -0.5828  0.4089
  888MOL0     C17095  -0.319   6.610   9.401  0.3263  0.4008  0.2519
  888MOL0     C17096  -0.363   6.464   9.373  0.1702 -1.5093  0.2305
  888MOL0     C17097  -0.448   6.452   9.250  0.3946  0.4645 -0.0374
  888MOL0     C17098  -0.498   6.313   9.244  0.7983  1.0574  0.1018
  888MOL0     C17099  -0.618   6.299   9.150  0.3825  0.4564  0.2428
  888MOL0     C17100  -0.699   6.169   9.168  0.2588  0.2745  0.3117
  888MOL0     N17101  -0.625   6.039   9.167  0.1378 -0.1918  0.4734
  888MOL0     C17102  -0.550   5.996   9.278  0.0347  0.3763 -0.2075
  888MOL0     C17103  -0.523   5.871   9.239 -0.3203  0.1105 -0.1683
  888MOL0     C17104  -0.447   5.762   9.302 -0.7071 -0.6359 -0.2702
  888MOL0     C17105  -0.321   5.731   9.217 -0.0500 -0.0893  0.1399
  888MOL0     C17106  -0.209   5.654   9.299  0.0521  0.3930  0.4597
  888MOL0     C17107  -0.253   5.531   9.367 -0.4185 -0.1612  0.4261
  888MOL0     O17108  -0.132   5.460   9.400 -0.2094 -0.7451  0.7450
  888MOL0     C17109  -0.132   5.324   9.424 -0.2537  1.1839 -0.8782
  888MOL0     C17110  -0.021   5.254   9.378  0.6940  0.0419  0.6003
  888MOL0     C17111  -0.018   5.121   9.406  1.3140 -0.0540  0.1106
  888MOL0     C17112  -0.117   5.049   9.482  0.0234 -0.2937  0.0952
  888MOL0     C17113  -0.094   4.911   9.515 -0.1327 -0.4204 -0.0179
  888MOL0     O17114   0.038   4.873   9.525  0.3089  0.7813 -0.1970
  888MOL0     C17115   0.080   4.750   9.578 -0.7130 -0.5652 -0.2796
  888MOL0     C17116   0.001   4.639   9.626 -0.1477  0.6284  0.6091
  888MOL0     C17117   0.063   4.541   9.695 -0.1719  0.1233  0.5395
  888MOL0     C17118   0.201   4.535   9.715 -0.2035 -0.4661 -0.0544
  888MOL0     O17119   0.262   4.454   9.806 -0.0333 -0.9300 -0.6804
  888MOL0     C17120   0.336   4.347   9.745 -0.5178  1.0314  0.6814
  888MOL0     C17121   0.264   4.232   9.679 -0.1498 -0.0810  0.4897
  888MOL0     C17122   0.140   4.168   9.758 -0.2945  0.8646 -0.2376
  888MOL0     C17123   0.073   4.060   9.672 -0.4507 -0.1326 -0.9509
  888MOL0     C17124  -0.002   3.949   9.756  0.3921  0.1969 -0.4647
  888MOL0     C17125  -0.101   3.991   9.867 -0.1558 -0.1846 -0.3879
  888MOL0     C17126  -0.231   4.031   9.790  0.0833 -0.9870  0.5734
  888MOL0     C17127  -0.341   4.098   9.877 -0.3588 -0.0562  0.4650
  888MOL0    Cl17128  -0.464   4.145   9.765  0.0963 -0.3269  0.8147
  888MOL0     C17129   0.281   4.634   9.658  0.2661  0.6215  0.4015
  888MOL0     C17130   0.223   4.750   9.597  0.0628  0.0102 -0.6705
  888MOL0     O17131  -0.197   4.841   9.527  0.0157 -0.6499  0.8079
  888MOL0     C17132  -0.223   5.120   9.532  0.2909 -0.1088 -0.3757
  888MOL0     C17133  -0.241   5.259   9.502 -1.5558  0.7224 -0.2466
  888MOL0     N17134  -0.586   5.842   9.117 -0.4382  0.5935 -0.4446
  888MOL0     N17135  -0.632   5.950   9.066  0.0357  0.2487 -0.2063
  888MOL0     C17136  -0.064   6.945   9.793  0.6873 -0.2946 -0.5308
  888MOL0     C17137   0.016   7.057   9.816 -0.4907 -0.0274 -0.8105
  888MOL0     C17138   0.319   7.385   9.847 -0.6995 -0.0117 -0.6984
  888MOL0     C17139   0.420   7.341   9.930  0.5518 -0.2954 -0.2507
  888MOL0     C17140   0.519   7.430   9.989 -0.1514 -0.2959  0.3917
  888MOL0     C17141   0.509   7.568   9.967 -0.4341  0.2295 -0.3572
  888MOL0     O17142   0.613   7.651  10.010  0.3842 -0.4255 -0.3091
  888MOL0     C17143   0.591   7.786   9.970  0.1832 -0.2333  0.8509
  888MOL0     C17144   0.726   7.857  10.007  0.5032 -0.4832  0.4242
  888MOL0     C17145   0.718   7.994   9.941  0.1717  0.0322  0.5860
  888MOL0     C17146   0.840   8.087   9.967 -0.5854 -0.0169 -0.5033
  888MOL0     C17147   0.798   8.201   9.895  1.1910 -0.0485  0.3158
  888MOL0     C17148   0.750   8.307   9.879  0.7930 -0.1526  0.0224
  888MOL0     C17149   0.388   7.611   9.900  0.7646  1.4652  0.5214
  888MOL0     C17150   0.301   7.517   9.845 -0.4504 -0.4789  0.5161
  888MOL0     H17151   0.299   6.958   9.655 -1.3308  1.6505 -1.4859
  888MOL0     H17152   0.155   6.772   9.591  0.9272  0.4041 -0.0609
  888MOL0     H17153  -0.045   6.767   9.465  1.5062  1.1764  2.2138
  888MOL0     H17154  -0.198   6.835   9.504  1.9430 -0.2442 -0.0408
  888MOL0     H17155  -0.257   6.580   9.588  1.3596  0.5861  1.1297
  888MOL0     H17156  -0.127   6.525   9.472 -0.2071 -1.0432 -0.9975
  888MOL0     H17157  -0.299   6.651   9.301 -4.0558 -1.9284 -1.8731
  888MOL0     H17158  -0.394   6.677   9.442 -0.0826 -0.3734  0.7934
  888MOL0     H17159  -0.270   6.413   9.350 -0.0217 -0.5565 -3.1012
  888MOL0     H17160  -0.411   6.437   9.468 -0.5207  1.2696  0.7795
  888MOL0     H17161  -0.394   6.469   9.156 -1.1177  2.2830 -0.6261
  888MOL0     H17162  -0.537   6.515   9.254  0.9714  1.3541 -0.7907
  888MOL0     H17163  -0.531   6.277   9.341 -0.1166  1.9915  0.1538
  888MOL0     H17164  -0.418   6.245   9.213  1.8904 -1.6052  7.0474
  888MOL0     H17165  -0.688   6.377   9.181  0.6830  0.1150  1.8880
  888MOL0     H17166  -0.586   6.317   9.047  2.1189 -4.2237 -0.2640
  888MOL0     H17167  -0.790   6.163   9.107 -1.6965 -1.3562  3.1111
  888MOL0     H17168  -0.746   6.176   9.267  1.4658  1.0896  0.8593
  888MOL0     H17169  -0.534   6.052   9.370 -0.7051 -0.7792  0.6698
  888MOL0     H17170  -0.515   5.676   9.309  0.0119 -1.1462  0.5605
  888MOL0     H17171  -0.428   5.787   9.407 -1.6070  0.8798 -0.4446
  888MOL0     H17172  -0.286   5.833   9.201 -2.2275  0.7419  0.3534
  888MOL0     H17173  -0.342   5.671   9.128 -0.2851  1.5993 -0.9835
  888MOL0     H17174  -0.119   5.639   9.239 -1.8045  2.0289 -3.0594
  888MOL0     H17175  -0.191   5.726   9.379  1.0475  0.8957 -0.1895
  888MOL0     H17176  -0.320   5.469   9.307 -2.9923 -0.3709  3.2435
  888MOL0     H17177  -0.306   5.549   9.461  0.9869 -0.8197  1.3668
  888MOL0     H17178   0.058   5.298   9.317 -0.5642  1.8135  0.1675
  888MOL0     H17179   0.076   5.076   9.375  0.9749 -1.5573  1.1676
  888MOL0     H17180  -0.106   4.622   9.617  0.3442 -2.1732 -1.1598
  888MOL0     H17181   0.011   4.456   9.739 -2.2851  0.2812 -1.4429
  888MOL0     H17182   0.382   4.308   9.837 -1.1205 -0.2471  0.4660
  888MOL0     H17183   0.410   4.392   9.679 -1.5698  1.1450 -0.4663
  888MOL0     H17184   0.335   4.149   9.674  1.4708  1.0958  2.3144
  888MOL0     H17185   0.233   4.246   9.575  1.9211 -2.5819 -0.5894
  888MOL0     H17186   0.070   4.246   9.792  2.1792  2.3615  1.8236
  888MOL0     H17187   0.190   4.129   9.847  1.9103  2.0837 -0.8784
  888MOL0     H17188   0.005   4.114   9.606  0.0253  0.7590 -0.7238
  888MOL0     H17189   0.150   4.009   9.613 -1.7811 -2.0905 -1.0937
  888MOL0     H17190   0.076   3.892   9.809 -1.3016 -0.4303  1.4635
  888MOL0     H17191  -0.052   3.877   9.690 -3.2758  0.9124  1.2948
  888MOL0     H17192  -0.056   4.070   9.927  0.2060 -1.3838  0.9754
  888MOL0     H17193  -0.120   3.899   9.923  4.6593  0.3874  2.7404
  888MOL0     H17194  -0.197   4.111   9.724  1.4447 -1.5541  0.5495
  888MOL0     H17195  -0.273   3.952   9.727 -1.8740  0.8785 -0.5986
  888MOL0     H17196  -0.302   4.183   9.934 -2.7927 -2.0623  5.8576
  888MOL0     H17197  -0.375   4.026   9.953  3.8235 -3.1884 -0.2918
  888MOL0     H17198   0.383   4.623   9.692  0.5823 -2.1771 -1.1391
  888MOL0     H17199   0.270   4.845   9.571  0.1803  0.6443  1.6605
  888MOL0     H17200  -0.279   5.079   9.615 -2.0989  1.8057 -0.9285
  888MOL0     H17201  -0.323   5.317   9.544 -0.7287  2.8330 -1.3938
  888MOL0     H17202  -0.160   6.930   9.842  1.0826 -0.7172  0.1208
  888MOL0     H17203  -0.015   7.137   9.883  0.0822 -0.0534 -0.5077
  888MOL0     H17204   0.431   7.235   9.949 -0.0088 -0.4127 -0.5652
  888MOL0     H17205   0.597   7.395  10.055  1.3570 -0.8242 -1.5532
  888MOL0     H17206   0.504   7.828  10.020 -1.0635 -2.7845  1.0169
  888MOL0     H17207   0.574   7.798   9.863  1.8241 -0.9327  0.4707
  888MOL0     H17208   0.742   7.860  10.116  0.6283 -1.7136  0.4585
  888MOL0     H17209   0.799   7.784   9.970  0.1312 -1.7742  2.0977
  888MOL0     H17210   0.634   8.049   9.984  1.3732  1.8460  0.7345
  888MOL0     H17211   0.701   7.989   9.833 -0.6297 -0.4620  0.7323
  888MOL0     H17212   0.856   8.101  10.074  0.4594 -1.3692 -0.4442
  888MOL0     H17213   0.932   8.041   9.929 -2.0083 -2.4975 -1.1941
  888MOL0     H17214   0.705   8.404   9.875  0.5932 -0.1510  1.6946
  888MOL0     H17215   0.354   7.714   9.887 -2.6058  0.4596  0.5393
  888MOL0     H17216   0.216   7.553   9.787 -0.0382  0.7430  0.6440
  889MOL0     O17217   3.297   5.856   5.373 -0.0190  0.1058  0.3040
  889MOL0     C17218   3.213   5.785   5.321 -0.4275  0.2554 -0.5273
  889MOL0     O17219   3.152   5.684   5.388 -0.6275 -0.0437  0.8725
  889MOL0     C17220   3.160   5.661   5.522 -0.8135  0.5940  0.7214
  889MOL0     C17221   3.259   5.720   5.612 -0.1037  0.0811  0.4247
  889MOL0     C17222   3.258   5.681   5.751  0.1087 -0.1837  0.1024
  889MOL0     C17223   3.179   5.570   5.792  0.2662  1.1472 -0.5202
  889MOL0     O17224   3.171   5.515   5.915  0.0956  0.5360 -0.2766
  889MOL0     C17225   3.233   5.568   6.034 -0.8624  0.3687 -0.4346
  889MOL0     C17226   3.159   5.700   6.079 -0.7160  0.1808  0.0482
  889MOL0     C17227   3.015   5.673   6.116  0.5406 -0.3624  0.8004
  889MOL0     C17228   2.935   5.797   6.162  0.3739 -0.0197 -0.2400
  889MOL0     C17229   2.787   5.760   6.214 -0.2166 -0.5155  0.2614
  889MOL0     C17230   2.679   5.773   6.093 -0.6725  0.2750 -0.3479
  889MOL0     C17231   2.677   5.900   6.013 -0.2192  0.4224  0.6649
  889MOL0     C17232   2.542   5.918   5.941  0.8635  0.4230  0.2170
  889MOL0     N17233   2.517   5.820   5.830  0.0706  0.1390  0.0140
  889MOL0     C17234   2.464   5.870   5.711 -0.4794  0.3831  0.4770
  889MOL0     C17235   2.399   5.760   5.659 -0.0278  0.1186  1.1241
  889MOL0     C17236   2.296   5.757   5.553 -0.4034  1.1197  1.7321
  889MOL0     C17237   2.242   5.892   5.500 -0.4839  0.2460 -0.7707
  889MOL0     C17238   2.160   5.980   5.600 -0.2718 -0.5048  0.2217
  889MOL0     C17239   2.039   5.909   5.659 -0.2560 -0.1391  0.3738
  889MOL0     O17240   2.011   5.962   5.788 -0.0640  0.6279  0.5010
  889MOL0     C17241   2.035   5.875   5.897  0.3209 -0.6930 -0.4458
  889MOL0     C17242   2.157   5.810   5.921  0.3483 -0.2219 -0.3376
  889MOL0     C17243   2.185   5.737   6.032 -0.0466 -0.3036  0.8179
  889MOL0     C17244   2.094   5.720   6.133 -0.2844 -0.0635 -0.1139
  889MOL0     C17245   2.134   5.659   6.266  0.3513  0.1917 -0.0830
  889MOL0     O17246   2.261   5.614   6.272  0.5137 -0.3757 -0.7022
  889MOL0     C17247   2.302   5.517   6.359 -0.8593  0.9330 -0.3488
  889MOL0     C17248   2.433   5.467   6.343 -0.2030 -1.0146  0.1564
  889MOL0     C17249   2.484   5.366   6.427  0.3473 -0.9066  0.1067
  889MOL0     C17250   2.416   5.319   6.537  0.6340 -1.0216  0.8518
  889MOL0     O17251   2.480   5.234   6.620  0.5430  0.6555  0.8562
  889MOL0     C17252   2.625   5.216   6.620 -0.1663 -0.2038  0.4292
  889MOL0     C17253   2.669   5.188   6.766  0.0482  0.4829  0.0072
  889MOL0     C17254   2.827   5.188   6.768 -0.2025  0.5133 -0.0654
  889MOL0     C17255   2.898   5.168   6.899 -0.4247 -0.1542 -0.9955
  889MOL0     C17256   3.036   5.237   6.915 -0.2155 -0.4302 -0.4915
  889MOL0     C17257   3.152   5.172   6.841  0.4227 -1.0658 -0.1090
  889MOL0     C17258   3.274   5.224   6.915 -0.8739 -0.2869  0.7523
  889MOL0     C17259   3.335   5.352   6.855  0.0675  0.0490 -0.2740
  889MOL0    Cl17260   3.459   5.326   6.722 -0.3824  0.0906 -0.5584
  889MOL0     C17261   2.284   5.365   6.556  0.8423  1.0029  0.3123
  889MOL0     C17262   2.229   5.468   6.477  0.6124  0.6232 -0.4348
  889MOL0     O17263   2.045   5.632   6.347 -0.4551  0.3538  0.9823
  889MOL0     C17264   1.970   5.779   6.104  0.6246  0.0624 -0.6623
  889MOL0     C17265   1.941   5.860   5.998  0.0201  0.6854 -0.4877
  889MOL0     N17266   2.440   5.649   5.735  0.5108 -0.4971 -0.3877
  889MOL0     N17267   2.500   5.690   5.845 -0.2383  0.6382  0.3825
  889MOL0     C17268   3.076   5.537   5.711  0.2047  0.2089  0.2205
  889MOL0     C17269   3.059   5.587   5.580 -0.3157  0.2644 -0.6836
  889MOL0     C17270   3.210   5.774   5.178  0.6748 -0.3704  0.1235
  889MOL0     C17271   3.251   5.886   5.102  0.0903 -0.5998 -0.3941
  889MOL0     C17272   3.246   5.879   4.965  0.4526 -0.0490 -0.1705
  889MOL0     C17273   3.197   5.767   4.890 -0.5053 -0.0782 -1.5509
  889MOL0     O17274   3.230   5.749   4.759  0.2005  0.1210  0.7875
  889MOL0     C17275   3.185   5.853   4.673  0.9645 -0.2017  0.6071
  889MOL0     C17276   3.034   5.898   4.694  0.0019 -0.4235 -0.1988
  889MOL0     C17277   2.929   5.798   4.637  1.4812  0.0970  0.6836
  889MOL0     C17278   2.906   5.670   4.720  0.2935  0.3074 -0.3179
  889MOL0     C17279   2.793   5.590   4.665  0.0713 -0.3958  0.7016
  889MOL0     C17280   2.723   5.510   4.618  0.3162 -0.0936 -0.4130
  889MOL0     C17281   3.165   5.658   4.970 -0.4526  0.3308  0.3767
  889MOL0     C17282   3.177   5.656   5.110  0.0853 -0.8058 -0.9734
  889MOL0     H17283   3.340   5.782   5.574 -0.0452 -3.1862 -6.4868
  889MOL0     H17284   3.321   5.736   5.820  0.7652 -0.9031  0.0868
  889MOL0     H17285   3.338   5.589   6.009  0.4553 -1.6459  2.6483
  889MOL0     H17286   3.239   5.501   6.121 -1.0088 -2.6787 -2.6282
  889MOL0     H17287   3.166   5.780   6.005 -1.8642  0.9068  0.6934
  889MOL0     H17288   3.209   5.752   6.162  1.1202  0.9744 -1.4860
  889MOL0     H17289   3.001   5.595   6.191 -2.6026 -0.2304  0.4874
  889MOL0     H17290   2.966   5.630   6.028  3.1265  1.2763 -1.5793
  889MOL0     H17291   2.988   5.850   6.242 -1.7080 -0.2425  1.3438
  889MOL0     H17292   2.926   5.859   6.072 -2.1170  3.2482  2.0304
  889MOL0     H17293   2.752   5.836   6.285 -4.2181  1.5673 -3.4118
  889MOL0     H17294   2.781   5.668   6.273  2.3769 -0.5452  0.5671
  889MOL0     H17295   2.582   5.760   6.142  0.0229  1.5470  1.5157
  889MOL0     H17296   2.709   5.696   6.021  0.2509  0.0975  0.2063
  889MOL0     H17297   2.697   5.984   6.080  1.3867  1.4812 -1.0313
  889MOL0     H17298   2.756   5.901   5.937 -0.1416  3.8033  0.6244
  889MOL0     H17299   2.530   6.022   5.911 -3.1950  0.2732  0.8516
  889MOL0     H17300   2.466   5.899   6.017  0.0746 -2.1206 -1.0700
  889MOL0     H17301   2.465   5.972   5.675  2.6042  0.4833  0.6007
  889MOL0     H17302   2.215   5.694   5.592 -0.2725 -1.1546 -1.3288
  889MOL0     H17303   2.337   5.703   5.467 -3.2991  1.3026  0.1453
  889MOL0     H17304   2.183   5.882   5.408 -3.4255  4.5311  0.3293
  889MOL0     H17305   2.332   5.950   5.474 -0.8355 -0.0148 -2.7274
  889MOL0     H17306   2.223   6.001   5.686 -1.6205 -2.5803  1.8119
  889MOL0     H17307   2.129   6.079   5.566 -4.4054 -1.0440  1.7826
  889MOL0     H17308   2.050   5.800   5.656 -1.6236 -0.2922  0.2934
  889MOL0     H17309   1.958   5.927   5.588 -0.4037  1.8521  0.9770
  889MOL0     H17310   2.231   5.827   5.843  1.8164  1.0279  1.2672
  889MOL0     H17311   2.287   5.703   6.045  0.5216  0.6405 -0.9202
  889MOL0     H17312   2.500   5.501   6.266 -0.2948 -1.8060 -0.2843
  889MOL0     H17313   2.585   5.329   6.411  1.2562  1.5864 -0.4372
  889MOL0     H17314   2.691   5.297   6.588  1.7330 -0.8677  2.4630
  889MOL0     H17315   2.657   5.131   6.560  1.3185 -0.4125  1.4736
  889MOL0     H17316   2.630   5.092   6.800  1.7254 -0.9077 -1.7786
  889MOL0     H17317   2.626   5.259   6.838 -4.0747 -1.8695  0.1956
  889MOL0     H17318   2.869   5.280   6.726 -2.8414  1.2798 -1.2718
  889MOL0     H17319   2.854   5.096   6.715  1.6888  0.9226  0.1208
  889MOL0     H17320   2.842   5.220   6.978  1.1216 -0.5062  0.3741
  889MOL0     H17321   2.900   5.062   6.923  2.1973  0.0304 -0.1239
  889MOL0     H17322   3.054   5.220   7.022  1.7157  2.2997 -0.2907
  889MOL0     H17323   3.028   5.345   6.903 -3.2620 -0.5048  0.0555
  889MOL0     H17324   3.156   5.198   6.735  3.8877 -2.5449 -0.4587
  889MOL0     H17325   3.148   5.063   6.847 -1.1691 -1.2154 -2.4071
  889MOL0     H17326   3.248   5.241   7.020 -0.6783  1.0737  0.5986
  889MOL0     H17327   3.358   5.154   6.913 -0.3960  0.2388  1.7084
  889MOL0     H17328   3.398   5.396   6.932 -0.7512 -0.0627  0.4678
  889MOL0     H17329   3.263   5.428   6.825  1.5740  2.3027  1.5323
  889MOL0     H17330   2.220   5.333   6.638  1.7830  2.1904  1.5629
  889MOL0     H17331   2.135   5.512   6.511 -0.1745 -2.0447  1.1240
  889MOL0     H17332   1.894   5.766   6.180  2.7398 -2.2456  1.2548
  889MOL0     H17333   1.846   5.906   5.973  0.7854  2.0362 -1.0454
  889MOL0     H17334   3.002   5.472   5.758  1.4907 -1.2873  0.2500
  889MOL0     H17335   2.973   5.566   5.517  0.3845  0.0927 -1.6107
  889MOL0     H17336   3.277   5.978   5.153 -1.5136  0.2205 -0.9631
  889MOL0     H17337   3.293   5.956   4.905 -1.6353 -0.9563 -3.1790
  889MOL0     H17338   3.188   5.822   4.568  1.0016 -1.0930  0.8573
  889MOL0     H17339   3.259   5.932   4.684  2.1762 -1.3165  0.8202
  889MOL0     H17340   3.017   5.922   4.799 -2.8444 -1.4457 -0.3448
  889MOL0     H17341   3.034   5.998   4.649  3.6543 -0.0726  0.2554
  889MOL0     H17342   2.959   5.776   4.534 -0.0163  0.9657  0.0324
  889MOL0     H17343   2.835   5.854   4.640  2.1196  1.2477  0.1279
  889MOL0     H17344   3.004   5.621   4.718  0.4134  0.5556 -2.1609
  889MOL0     H17345   2.878   5.701   4.822  0.1701 -2.2692  0.5153
  889MOL0     H17346   2.658   5.435   4.577 -0.2375 -0.0608  0.3659
  889MOL0     H17347   3.132   5.567   4.920  0.5005  0.7045 -0.9690
  889MOL0     H17348   3.164   5.566   5.169 -1.5895 -1.1749 -1.8503
  890MOL0     O17349   9.709   5.399   7.793  0.3941  0.1794  0.2251
  890MOL0     C17350   9.804   5.383   7.719  0.2504  0.0054 -0.7330
  890MOL0     O17351   9.938   5.374   7.752 -0.1379  0.0634  0.2533
  890MOL0     C17352   9.969   5.401   7.886 -0.0547 -0.9365 -0.3090
  890MOL0     C17353   9.912   5.502   7.965 -0.3682  0.9316  0.1673
  890MOL0     C17354   9.932   5.513   8.100 -0.5828  0.6292 -0.4889
  890MOL0     C17355  10.034   5.439   8.168  0.3313  1.5103  0.2566
  890MOL0     O17356  10.055   5.458   8.305 -0.8829  0.3896 -0.8302
  890MOL0     C17357   9.952   5.531   8.380  0.0281  0.5694 -0.1582
  890MOL0     C17358   9.950   5.470   8.515  0.4810  0.4131  0.6373
  890MOL0     C17359  10.080   5.493   8.597  0.5864  0.7809 -0.6090
  890MOL0     C17360  10.074   5.481   8.748 -0.0353  0.0678  0.4116
  890MOL0     C17361  10.214   5.489   8.804 -0.6502 -0.2239  0.9921
  890MOL0     C17362  10.211   5.469   8.954 -0.6212  0.3138  0.1606
  890MOL0     C17363  10.178   5.325   9.000 -1.1739 -0.1233  0.1608
  890MOL0     C17364  10.290   5.214   8.994  1.1044  0.4302  0.6965
  890MOL0     N17365  10.420   5.252   9.049  0.5291  0.7384 -0.5701
  890MOL0     C17366  10.460   5.232   9.177 -0.4941 -0.0397 -0.3794
  890MOL0     C17367  10.593   5.248   9.179  0.5660 -0.3012 -0.4930
  890MOL0     C17368  10.683   5.218   9.290 -0.0881 -0.0034  1.0669
  890MOL0     C17369  10.613   5.232   9.429  0.0318 -0.0522 -0.1069
  890MOL0     C17370  10.714   5.243   9.548 -0.3829  0.5131  0.9052
  890MOL0     C17371  10.803   5.113   9.577  0.4101 -0.5749 -0.7136
  890MOL0     O17372  10.874   5.140   9.696 -0.3249  0.0691 -0.3469
  890MOL0     C17373  10.930   5.039   9.761  0.2763  0.4847  0.0203
  890MOL0     C17374  10.973   5.087   9.885  0.0534  1.0961 -1.0232
  890MOL0     C17375  11.046   5.000   9.972 -0.3960 -0.6527  0.2101
  890MOL0     C17376  11.064   4.860   9.935 -0.1663 -0.1761  0.1320
  890MOL0     C17377  11.133   4.762  10.024 -0.4398 -0.2251  0.1287
  890MOL0     O17378  11.084   4.630  10.015 -1.4293  0.9821 -0.0968
  890MOL0     C17379  11.171   4.536  10.069 -0.0311  0.0217  0.2492
  890MOL0     C17380  11.292   4.520  10.001  0.2197 -0.2490 -0.5847
  890MOL0     C17381  11.389   4.427  10.034  0.2629  0.1903  0.1676
  890MOL0     C17382  11.370   4.344  10.141 -0.2909  0.5764  1.0651
  890MOL0     O17383  11.465   4.251  10.182  0.3456  0.9142 -0.3735
  890MOL0     C17384  11.591   4.289  10.208  0.2895  0.2380  0.0047
  890MOL0     C17385  11.686   4.174  10.249  0.4887  0.1998  0.3270
  890MOL0     C17386  11.707   4.079  10.132 -0.1665 -0.3882  0.6928
  890MOL0     C17387  11.806   3.968  10.155  0.5062 -0.8790 -0.0912
  890MOL0     C17388  11.805   3.877  10.035  0.0499  0.0944  0.7201
  890MOL0     C17389  11.684   3.781  10.029  0.4642  0.4707  0.2646
  890MOL0     C17390  11.673   3.678  10.151 -0.1224 -0.6450  1.1834
  890MOL0     C17391  11.798   3.587  10.161 -0.5960  0.0169 -0.1271
  890MOL0    Cl17392  11.791   3.435  10.058  0.3141 -0.6989 -0.3688
  890MOL0     C17393  11.254   4.375  10.224  0.0886  0.6099  0.2152
  890MOL0     C17394  11.150   4.461  10.188 -0.1885 -0.0227  0.8061
  890MOL0     O17395  11.220   4.798  10.100  0.0920  0.1841 -0.0927
  890MOL0     C17396  11.009   4.817   9.814  0.8094  1.0322 -0.1302
  890MOL0     C17397  10.943   4.903   9.724 -1.1292 -0.2720  0.3922
  890MOL0     N17398  10.626   5.293   9.053  0.3384 -0.1392  0.5333
  890MOL0     N17399  10.524   5.310   8.987  1.0392  0.1358  1.0357
  890MOL0     C17400  10.096   5.338   8.089 -0.8336 -0.1219  0.8085
  890MOL0     C17401  10.059   5.322   7.958 -0.0334 -0.4420 -0.2795
  890MOL0     C17402   9.765   5.381   7.576 -0.6910  0.3929 -0.1865
  890MOL0     C17403   9.860   5.353   7.483 -0.5142  0.5114 -0.3247
  890MOL0     C17404   9.836   5.347   7.345 -0.3619  0.2929 -0.1518
  890MOL0     C17405   9.708   5.388   7.312  0.5837 -0.1360  1.1883
  890MOL0     O17406   9.671   5.357   7.184  0.1599  0.3168 -0.0786
  890MOL0     C17407   9.575   5.252   7.171  1.3956 -0.3347  0.1067
  890MOL0     C17408   9.614   5.166   7.051  0.0392 -0.7824  0.2174
  890MOL0     C17409   9.595   5.235   6.916  0.2131 -0.2053 -0.0787
  890MOL0     C17410   9.457   5.203   6.854 -0.4220 -0.1366 -0.4465
  890MOL0     C17411   9.354   5.294   6.914  0.1971 -0.2874  0.2611
  890MOL0     C17412   9.274   5.360   6.965 -0.3707 -0.8873 -0.6268
  890MOL0     C17413   9.612   5.421   7.406 -0.3563 -0.0830 -0.7388
  890MOL0     C17414   9.640   5.416   7.536 -0.3942  0.0978  0.4654
  890MOL0     H17415   9.857   5.583   7.918  0.0118  1.6145  0.8834
  890MOL0     H17416   9.871   5.588   8.150 -0.9373  1.9588 -2.8084
  890MOL0     H17417   9.850   5.522   8.342  0.6116 -0.5453 -1.5124
  890MOL0     H17418   9.980   5.637   8.380  1.0783  0.3217  0.9664
  890MOL0     H17419   9.939   5.365   8.488 -1.7293  0.3094  1.7842
  890MOL0     H17420   9.858   5.505   8.563  0.1142 -1.9688  1.7644
  890MOL0     H17421  10.100   5.599   8.582 -0.2688  1.2536  1.2233
  890MOL0     H17422  10.149   5.419   8.555 -1.0292 -0.8453 -0.5150
  890MOL0     H17423  10.015   5.566   8.782 -0.2605 -0.4917  1.4387
  890MOL0     H17424  10.029   5.387   8.781  1.5744 -0.6163  0.7874
  890MOL0     H17425  10.246   5.590   8.777 -1.4669 -0.7457 -2.2064
  890MOL0     H17426  10.282   5.418   8.758 -3.5470 -0.9749 -2.4989
  890MOL0     H17427  10.143   5.540   9.003 -0.8522  0.8676 -0.9286
  890MOL0     H17428  10.312   5.492   8.989  0.1609 -3.4772  0.8903
  890MOL0     H17429  10.144   5.344   9.102  0.9304  0.4083  0.8123
  890MOL0     H17430  10.087   5.289   8.952 -1.0056 -1.3455  0.7217
  890MOL0     H17431  10.301   5.194   8.887 -2.0211 -1.3060  0.6066
  890MOL0     H17432  10.260   5.123   9.045  0.9380 -0.1927 -0.4802
  890MOL0     H17433  10.395   5.210   9.261  4.3361 -1.3632  3.4117
  890MOL0     H17434  10.770   5.283   9.273  0.1964 -0.0712  2.2130
  890MOL0     H17435  10.714   5.114   9.274 -4.7147 -1.2577 -1.4443
  890MOL0     H17436  10.568   5.133   9.443  2.5280 -1.4781 -1.2755
  890MOL0     H17437  10.556   5.324   9.417  3.8262  2.6754  0.8426
  890MOL0     H17438  10.774   5.331   9.525 -1.5025  1.0279 -0.1793
  890MOL0     H17439  10.665   5.260   9.645  0.3732  0.5988  1.2764
  890MOL0     H17440  10.870   5.104   9.491  0.6199  0.3828 -0.6615
  890MOL0     H17441  10.740   5.024   9.581 -0.3528 -0.0988 -1.6348
  890MOL0     H17442  10.947   5.184   9.925  1.3652  0.1447  2.4491
  890MOL0     H17443  11.077   5.028  10.072 -1.3463 -4.4776  1.7501
  890MOL0     H17444  11.297   4.576   9.908 -2.9908  1.1603 -0.0636
  890MOL0     H17445  11.485   4.428   9.983  1.4798  2.4067  2.2484
  890MOL0     H17446  11.596   4.351  10.298  3.4848  3.8800 -2.3697
  890MOL0     H17447  11.632   4.347  10.125  0.3427 -1.6704 -1.3759
  890MOL0     H17448  11.639   4.116  10.329  1.1536 -2.9153 -1.3561
  890MOL0     H17449  11.779   4.213  10.290 -0.4589  1.3869  1.4405
  890MOL0     H17450  11.727   4.140  10.044  0.5279  0.0437  1.1483
  890MOL0     H17451  11.606   4.039  10.118  0.1681 -0.5197 -1.6770
  890MOL0     H17452  11.901   4.016  10.179  0.4185 -1.0675  0.6886
  890MOL0     H17453  11.772   3.916  10.245 -1.6287 -0.8648 -0.8407
  890MOL0     H17454  11.902   3.829  10.049 -0.5998 -1.7724 -0.6969
  890MOL0     H17455  11.807   3.939   9.945  0.2871 -1.1914 -0.1920
  890MOL0     H17456  11.680   3.736   9.929 -1.3724  1.7458 -0.2898
  890MOL0     H17457  11.590   3.836  10.033  1.0259  2.3405 -4.5436
  890MOL0     H17458  11.652   3.733  10.243  1.6980  3.9281 -0.8161
  890MOL0     H17459  11.597   3.609  10.114  0.5575 -0.7127 -0.1279
  890MOL0     H17460  11.774   3.553  10.262 -0.3060  2.7262  0.9405
  890MOL0     H17461  11.887   3.641  10.130 -0.1824 -0.3936  0.3363
  890MOL0     H17462  11.234   4.319  10.315 -1.5562 -3.0450 -2.1576
  890MOL0     H17463  11.056   4.475  10.241 -1.5096  2.0508 -1.8068
  890MOL0     H17464  11.009   4.711   9.795 -1.1340  1.5036 -3.6668
  890MOL0     H17465  10.918   4.860   9.628  1.9689  2.3326 -1.8009
  890MOL0     H17466  10.174   5.271   8.122  0.1015 -0.4624 -1.8937
  890MOL0     H17467  10.118   5.243   7.912  0.7827  0.2378 -0.4283
  890MOL0     H17468   9.960   5.321   7.512 -0.1396 -0.4051 -2.4409
  890MOL0     H17469   9.903   5.302   7.273  1.0588  0.6311  0.9141
  890MOL0     H17470   9.472   5.290   7.173  2.0165  1.5307  2.5549
  890MOL0     H17471   9.581   5.181   7.254  1.0514 -2.0006 -1.2435
  890MOL0     H17472   9.719   5.141   7.066 -0.1667 -1.1867  1.0876
  890MOL0     H17473   9.560   5.071   7.050 -0.2879 -0.6919  2.7463
  890MOL0     H17474   9.667   5.191   6.847  0.3246  1.5550 -1.1400
  890MOL0     H17475   9.609   5.343   6.928  1.3524 -0.4882  1.3197
  890MOL0     H17476   9.455   5.220   6.746 -0.3475  2.8293 -0.0694
  890MOL0     H17477   9.425   5.100   6.871 -0.0273  0.2215  3.4287
  890MOL0     H17478   9.216   5.439   7.007  1.8890  0.0438  0.9234
  890MOL0     H17479   9.512   5.457   7.387  0.2635  1.8845 -0.5212
  890MOL0     H17480   9.563   5.440   7.608 -1.1072  0.1151 -0.2973
  891MOL0     O17481   5.349   3.176   9.350  0.3514  0.6621 -0.4210
  891MOL0     C17482   5.235   3.150   9.313  0.4476  0.0113  0.0819
  891MOL0     O17483   5.128   3.240   9.300  0.5137  0.3757  0.2860
  891MOL0     C17484   5.126   3.375   9.336  0.6677 -0.3669  0.0631
  891MOL0     C17485   5.235   3.450   9.368  0.2455  0.4507 -0.3155
  891MOL0     C17486   5.216   3.586   9.409 -0.9269 -0.2618 -0.2288
  891MOL0     C17487   5.091   3.654   9.404 -1.3823  0.3742  0.7077
  891MOL0     O17488   5.066   3.787   9.431 -0.5320 -0.0259  1.1332
  891MOL0     C17489   5.173   3.861   9.503  0.4021  0.6909 -0.3715
  891MOL0     C17490   5.116   3.989   9.558 -0.5344 -0.0591  0.3305
  891MOL0     C17491   5.000   3.973   9.649 -0.5671  0.3227 -0.3593
  891MOL0     C17492   4.959   4.083   9.730 -0.5574  0.1338  1.0027
  891MOL0     C17493   4.833   4.050   9.809  0.6129  0.6788  0.0708
  891MOL0     C17494   4.761   4.173   9.866 -0.8448  0.1485  0.1314
  891MOL0     C17495   4.742   4.156  10.022  0.6194  0.2942 -1.0753
  891MOL0     C17496   4.691   4.293  10.084 -0.3687  0.7170  1.0468
  891MOL0     N17497   4.700   4.303  10.234 -0.2666  1.3101  0.6800
  891MOL0     C17498   4.623   4.234  10.330  0.2522 -0.4900  0.1552
  891MOL0     C17499   4.682   4.281  10.439  0.4057  0.0083 -0.1220
  891MOL0     C17500   4.634   4.230  10.574 -0.3340  1.1636 -0.5947
  891MOL0     C17501   4.716   4.288  10.695 -0.3021 -0.4311  0.2833
  891MOL0     C17502   4.682   4.436  10.726  0.0841 -0.1933  0.1046
  891MOL0     C17503   4.610   4.446  10.861  0.2517  0.3194 -0.2508
  891MOL0     O17504   4.480   4.368  10.840 -0.1959  1.4719 -0.0499
  891MOL0     C17505   4.370   4.439  10.799 -0.3617  1.0706  1.3121
  891MOL0     C17506   4.282   4.351  10.737  0.7576 -0.1351 -0.3266
  891MOL0     C17507   4.155   4.404  10.694 -0.7998  0.5024  0.4810
  891MOL0     C17508   4.119   4.535  10.694 -0.2962  0.1403 -0.2272
  891MOL0     C17509   3.989   4.584  10.634 -0.1744 -0.1911 -0.4457
  891MOL0     O17510   3.886   4.494  10.641 -0.0984  1.0204  0.3816
  891MOL0     C17511   3.761   4.521  10.632 -0.7081 -0.0936 -0.0114
  891MOL0     C17512   3.701   4.649  10.653  0.3421  0.1358 -0.0122
  891MOL0     C17513   3.560   4.657  10.662 -0.9732 -0.3350 -0.9073
  891MOL0     C17514   3.481   4.548  10.627  0.3961 -0.5202 -1.2277
  891MOL0     O17515   3.339   4.557  10.623  0.0205 -0.6139 -0.9561
  891MOL0     C17516   3.266   4.646  10.718 -0.4140  0.3594 -0.0668
  891MOL0     C17517   3.127   4.598  10.713 -0.0150  1.1082  0.6286
  891MOL0     C17518   3.094   4.463  10.784 -0.0465  0.2830 -0.7822
  891MOL0     C17519   2.951   4.424  10.731  0.7969 -0.4153 -0.8296
  891MOL0     C17520   2.928   4.279  10.783  0.4708  0.2637 -0.5871
  891MOL0     C17521   2.782   4.248  10.781  0.3190  0.2871 -0.0123
  891MOL0     C17522   2.733   4.207  10.640  0.5661 -0.1867  0.7228
  891MOL0     C17523   2.811   4.089  10.574 -0.0650 -0.7328 -0.5565
  891MOL0    Cl17524   2.728   4.053  10.418  0.2547 -0.0411  0.1249
  891MOL0     C17525   3.544   4.420  10.613 -0.0691  0.5778 -0.7289
  891MOL0     C17526   3.685   4.403  10.614 -0.3615 -0.3430 -0.7266
  891MOL0     O17527   3.986   4.699  10.584 -0.5393 -0.5534 -0.0787
  891MOL0     C17528   4.206   4.620  10.761 -0.2215 -0.0125  0.7255
  891MOL0     C17529   4.338   4.575  10.806 -0.0791  0.1700 -0.3396
  891MOL0     N17530   4.788   4.362  10.415 -0.3853  0.3900  0.5586
  891MOL0     N17531   4.788   4.384  10.291  0.1641 -0.0018  0.1935
  891MOL0     C17532   4.992   3.582   9.335  0.0281  0.3471  0.6796
  891MOL0     C17533   5.006   3.447   9.321  1.4748 -0.4842  0.0646
  891MOL0     C17534   5.195   3.010   9.292  0.3354  0.7345  0.0042
  891MOL0     C17535   5.074   2.983   9.215 -0.1966 -0.1102 -0.3542
  891MOL0     C17536   5.029   2.857   9.182 -1.1382 -0.2503 -0.9747
  891MOL0     C17537   5.110   2.755   9.230  0.5876  0.6234  0.5044
  891MOL0     O17538   5.087   2.625   9.224  0.5011  0.0491 -0.6111
  891MOL0     C17539   4.972   2.574   9.145 -0.3369 -0.0641 -0.6501
  891MOL0     C17540   4.848   2.546   9.228 -0.3009  0.0194  0.0852
  891MOL0     C17541   4.740   2.489   9.136 -0.5513 -0.3425 -0.9813
  891MOL0     C17542   4.636   2.417   9.209 -0.0966 -0.3204  0.7716
  891MOL0     C17543   4.575   2.506   9.310 -0.3454 -0.1697  0.0293
  891MOL0     C17544   4.526   2.572   9.392 -0.5370  0.8622 -0.9807
  891MOL0     C17545   5.238   2.780   9.294 -0.1245 -0.0618  0.6531
  891MOL0     C17546   5.280   2.905   9.326  1.3150 -0.8112  0.0275
  891MOL0     H17547   5.331   3.402   9.386 -0.5117 -1.8320 -1.8970
  891MOL0     H17548   5.299   3.627   9.466 -1.1644  0.7039 -0.5675
  891MOL0     H17549   5.252   3.880   9.429  0.7010  0.6627 -0.0642
  891MOL0     H17550   5.209   3.806   9.590 -2.4498  1.1999  1.2370
  891MOL0     H17551   5.091   4.035   9.462 -2.2323 -1.8553 -0.1350
  891MOL0     H17552   5.198   4.050   9.597  0.0687  1.7274 -3.2861
  891MOL0     H17553   5.023   3.883   9.706  0.4982  0.1745 -0.9946
  891MOL0     H17554   4.915   3.952   9.583 -0.3250  2.8694 -1.6290
  891MOL0     H17555   5.039   4.124   9.792 -0.2409  2.3527 -0.7220
  891MOL0     H17556   4.946   4.164   9.657  3.4229 -0.6794 -0.8907
  891MOL0     H17557   4.856   3.975   9.884  0.1477 -1.1115 -1.5136
  891MOL0     H17558   4.762   4.008   9.737  0.9598 -1.7801  1.0670
  891MOL0     H17559   4.664   4.201   9.824 -2.6527 -0.4861  3.4840
  891MOL0     H17560   4.832   4.253   9.845 -0.0010 -1.0620 -1.9456
  891MOL0     H17561   4.659   4.090  10.049  1.8229 -1.5211 -1.6143
  891MOL0     H17562   4.831   4.113  10.069  1.8067  2.6038 -1.0652
  891MOL0     H17563   4.588   4.316  10.056 -0.7072  2.1526  3.3078
  891MOL0     H17564   4.746   4.378  10.041 -1.2067  0.9174  0.3335
  891MOL0     H17565   4.546   4.158  10.328  1.0061 -1.3349  1.6801
  891MOL0     H17566   4.632   4.120  10.577 -1.5824  1.1740 -0.4435
  891MOL0     H17567   4.535   4.272  10.591 -0.4418 -0.3305  3.9918
  891MOL0     H17568   4.824   4.278  10.680 -0.3594 -2.1094  0.7722
  891MOL0     H17569   4.688   4.226  10.781 -0.0824 -0.4846  0.3176
  891MOL0     H17570   4.776   4.491  10.739  1.9188 -3.1241  0.1509
  891MOL0     H17571   4.639   4.479  10.636  3.5550 -0.4220 -1.8488
  891MOL0     H17572   4.587   4.547  10.897 -0.1718  0.4591 -0.9043
  891MOL0     H17573   4.670   4.396  10.938  1.7979 -0.1298 -1.7004
  891MOL0     H17574   4.308   4.246  10.736 -3.3777 -1.4460  2.9210
  891MOL0     H17575   4.081   4.334  10.658  0.2199 -0.4111  0.0869
  891MOL0     H17576   3.761   4.737  10.675 -0.1265  0.2564  0.8560
  891MOL0     H17577   3.523   4.755  10.689 -2.0746 -0.9337 -0.1615
  891MOL0     H17578   3.273   4.752  10.690 -0.7295  0.5675  0.6081
  891MOL0     H17579   3.305   4.642  10.821  3.5777  0.4514 -1.4014
  891MOL0     H17580   3.101   4.589  10.607 -0.1225  0.8316  0.6778
  891MOL0     H17581   3.064   4.669  10.767 -2.2239 -3.3569  4.7005
  891MOL0     H17582   3.097   4.480  10.892 -0.7676  2.8260 -1.1101
  891MOL0     H17583   3.167   4.384  10.762 -2.1798 -2.2130  0.4303
  891MOL0     H17584   2.873   4.495  10.761  3.4511  1.1020  3.4749
  891MOL0     H17585   2.947   4.429  10.622  2.1201  3.9409 -0.8770
  891MOL0     H17586   2.956   4.272  10.888  0.7350  0.2415 -0.6578
  891MOL0     H17587   2.995   4.210  10.731  2.1935  1.3852  0.0775
  891MOL0     H17588   2.727   4.338  10.808 -0.6254 -0.1358 -0.4892
  891MOL0     H17589   2.758   4.175  10.858 -0.0767  0.9362  0.4860
  891MOL0     H17590   2.628   4.178  10.636 -0.8641  4.0853  1.9017
  891MOL0     H17591   2.753   4.285  10.565  2.5828 -1.5637 -0.2605
  891MOL0     H17592   2.829   4.004  10.641  2.9134  0.1995 -0.0451
  891MOL0     H17593   2.913   4.124  10.555  0.3794 -1.8326 -0.2371
  891MOL0     H17594   3.481   4.332  10.604 -1.9324  1.5394  1.7231
  891MOL0     H17595   3.733   4.306  10.615  1.3103  0.4175  1.7155
  891MOL0     H17596   4.175   4.723  10.775 -2.5172 -0.5098 -0.2844
  891MOL0     H17597   4.416   4.648  10.822 -0.4677  1.3789 -3.3068
  891MOL0     H17598   4.890   3.617   9.319 -0.2643 -0.2583  1.1640
  891MOL0     H17599   4.921   3.397   9.274  0.7602  0.4257  0.3619
  891MOL0     H17600   5.000   3.054   9.182  1.1180  1.1918 -0.5992
  891MOL0     H17601   4.931   2.850   9.135 -1.2205  2.1064 -1.2808
  891MOL0     H17602   5.007   2.484   9.092  2.0157  0.7901 -0.6984
  891MOL0     H17603   4.942   2.650   9.073  1.0809  1.9897  0.8043
  891MOL0     H17604   4.868   2.466   9.299 -0.1615 -0.7144 -0.7690
  891MOL0     H17605   4.822   2.641   9.277  3.6226  0.0607  2.5469
  891MOL0     H17606   4.791   2.407   9.083  0.3247 -2.5235  2.8171
  891MOL0     H17607   4.683   2.554   9.069 -2.6936 -2.9256 -1.8741
  891MOL0     H17608   4.559   2.379   9.141  1.3796 -1.2031 -0.4762
  891MOL0     H17609   4.685   2.338   9.266  3.2317  1.7228  0.9918
  891MOL0     H17610   4.476   2.626   9.469  3.0994 -0.8695  2.9458
  891MOL0     H17611   5.279   2.693   9.343  4.9072  2.1064  0.9677
  891MOL0     H17612   5.373   2.920   9.381  1.5878 -0.7913 -0.4375
  892MOL0     O17613   1.641   1.127  11.341 -0.4587  0.9666  0.5442
  892MOL0     C17614   1.679   1.086  11.448  0.4496  0.9812 -0.8933
  892MOL0     O17615   1.682   0.954  11.486  0.1424 -0.3202  0.1354
  892MOL0     C17616   1.614   0.860  11.410 -0.2149  0.5917  0.8138
  892MOL0     C17617   1.694   0.762  11.357 -0.4022  0.7187  0.5988
  892MOL0     C17618   1.634   0.660  11.286 -0.8440  0.5133  1.0349
  892MOL0     C17619   1.493   0.652  11.265  0.5106  0.7619  0.3507
  892MOL0     O17620   1.443   0.540  11.196  0.0217  0.9492  0.0152
  892MOL0     C17621   1.308   0.489  11.201  0.3930 -0.2729 -0.2927
  892MOL0     C17622   1.301   0.373  11.099 -0.4172  0.2462  0.2632
  892MOL0     C17623   1.179   0.276  11.124 -0.5876 -0.0822  0.8089
  892MOL0     C17624   1.178   0.158  11.024  0.2962  0.1748 -0.4189
  892MOL0     C17625   1.291   0.054  11.062  0.5300 -0.0969  0.1713
  892MOL0     C17626   1.277  -0.068  10.972 -0.1344 -0.2312  0.4903
  892MOL0     C17627   1.419  -0.131  10.967  0.2928 -0.5465 -0.2576
  892MOL0     C17628   1.412  -0.261  10.886  0.2578 -0.0758  0.1811
  892MOL0     N17629   1.544  -0.321  10.881  0.1824 -0.1272 -0.2465
  892MOL0     C17630   1.581  -0.433  10.954  0.1158 -0.4431 -0.3214
  892MOL0     C17631   1.705  -0.465  10.913  0.5656  0.0670 -0.1134
  892MOL0     C17632   1.784  -0.585  10.965  0.1758 -0.0529 -0.4377
  892MOL0     C17633   1.867  -0.642  10.846  0.2244  0.2719 -0.0979
  892MOL0     C17634   1.834  -0.789  10.838 -1.4362 -0.6558  0.0959
  892MOL0     C17635   1.924  -0.868  10.940  0.3239  0.1146  0.9783
  892MOL0     O17636   1.911  -1.014  10.920 -0.0881  0.4517  0.4129
  892MOL0     C17637   1.841  -1.092  11.013  0.3005 -1.0735 -0.1103
  892MOL0     C17638   1.712  -1.061  11.067  0.0093  0.1836  0.0249
  892MOL0     C17639   1.643  -1.145  11.162 -1.7463 -0.1113  0.5713
  892MOL0     C17640   1.705  -1.270  11.192  0.4296  0.7519 -0.8701
  892MOL0     C17641   1.639  -1.366  11.277  0.2885  0.6725 -1.0576
  892MOL0     O17642   1.703  -1.480  11.312  0.0032 -0.0097  0.7617
  892MOL0     C17643   1.645  -1.591  11.383 -0.0377  0.3491  0.2376
  892MOL0     C17644   1.733  -1.689  11.427 -0.3007 -0.5829 -0.4494
  892MOL0     C17645   1.684  -1.812  11.469 -0.5554  0.2282  0.3698
  892MOL0     C17646   1.548  -1.835  11.491 -1.5207  0.8791  0.7380
  892MOL0     O17647   1.507  -1.954  11.548 -0.3826  0.2400 -0.2165
  892MOL0     C17648   1.599  -2.012  11.650  0.5779  0.2891  0.3251
  892MOL0     C17649   1.511  -2.098  11.741  0.4622  0.2116  0.4770
  892MOL0     C17650   1.451  -2.214  11.662 -1.4044  0.3592 -0.0049
  892MOL0     C17651   1.545  -2.324  11.634  1.1266 -0.0565 -0.0768
  892MOL0     C17652   1.503  -2.446  11.556  0.1419 -0.7158  0.1208
  892MOL0     C17653   1.408  -2.426  11.434  0.4058  0.5253  0.6695
  892MOL0     C17654   1.456  -2.329  11.315 -0.2426 -0.1078 -0.7284
  892MOL0     C17655   1.391  -2.369  11.185  0.1305 -0.9049 -0.0458
  892MOL0    Cl17656   1.216  -2.409  11.212 -0.4740  0.8052 -0.9308
  892MOL0     C17657   1.463  -1.729  11.469 -0.0986 -0.6070  0.0577
  892MOL0     C17658   1.506  -1.615  11.393 -0.7030  0.0139 -1.5525
  892MOL0     O17659   1.535  -1.328  11.329  0.3846  0.4910 -0.7389
  892MOL0     C17660   1.828  -1.298  11.131 -0.2162 -0.2751  0.1867
  892MOL0     C17661   1.887  -1.218  11.039  0.0193 -0.0916  0.3366
  892MOL0     N17662   1.754  -0.374  10.828 -0.1615  0.2900  0.6360
  892MOL0     N17663   1.658  -0.290  10.806  0.0892  0.1922  0.1120
  892MOL0     C17664   1.421   0.759  11.296 -0.1315  0.1794  0.3082
  892MOL0     C17665   1.477   0.863  11.372  0.7606 -0.1171  0.9117
  892MOL0     C17666   1.772   1.171  11.534 -0.5652 -0.9865  0.0822
  892MOL0     C17667   1.810   1.121  11.665 -0.0586 -0.6490  0.1459
  892MOL0     C17668   1.889   1.199  11.746 -0.3158 -1.1224  0.4971
  892MOL0     C17669   1.935   1.329  11.706 -0.0190  0.0781  0.0732
  892MOL0     O17670   2.015   1.395  11.798  0.2143  0.0161 -0.0947
  892MOL0     C17671   2.076   1.519  11.772  0.2709 -0.3023  0.5330
  892MOL0     C17672   2.154   1.568  11.892  0.5952  0.6116 -0.1043
  892MOL0     C17673   2.210   1.705  11.874  0.0722 -0.0943  0.2098
  892MOL0     C17674   2.218   1.800  12.001  0.2891 -1.0177  0.3608
  892MOL0     C17675   2.280   1.748  12.119 -0.3941  0.6851  1.0143
  892MOL0     C17676   2.308   1.709  12.230  0.7156  0.2441  0.7416
  892MOL0     C17677   1.892   1.376  11.582  0.4889 -0.6683 -0.1209
  892MOL0     C17678   1.817   1.301  11.497  0.6432 -0.2816  0.3279
  892MOL0     H17679   1.802   0.762  11.365 -0.5043  1.0201  3.0407
  892MOL0     H17680   1.694   0.586  11.234 -1.3892  0.5088  0.3951
  892MOL0     H17681   1.234   0.564  11.172  1.7084  1.7276  1.2214
  892MOL0     H17682   1.287   0.457  11.303  2.6952  3.4443  1.5413
  892MOL0     H17683   1.390   0.310  11.090 -2.2624 -2.2342 -2.1242
  892MOL0     H17684   1.267   0.422  11.007  0.0940 -3.0262 -1.8455
  892MOL0     H17685   1.087   0.336  11.120 -0.0654  0.6606 -1.0847
  892MOL0     H17686   1.200   0.240  11.226  2.2824 -2.5629 -0.4985
  892MOL0     H17687   1.085   0.102  11.035 -0.3396  1.3833  0.6934
  892MOL0     H17688   1.184   0.200  10.923 -2.4894  2.4711  0.2485
  892MOL0     H17689   1.282   0.007  11.161  1.0795 -1.7003 -0.5006
  892MOL0     H17690   1.395   0.084  11.049  1.5840 -3.7955 -1.2606
  892MOL0     H17691   1.265  -0.037  10.868 -0.2927 -2.3976 -0.1765
  892MOL0     H17692   1.189  -0.130  10.989 -1.9090 -0.0609 -5.7503
  892MOL0     H17693   1.489  -0.062  10.919  1.6787 -0.8658  1.2225
  892MOL0     H17694   1.454  -0.153  11.068  3.8379 -0.0136 -1.2513
  892MOL0     H17695   1.380  -0.247  10.782  3.2404 -0.7875 -0.9347
  892MOL0     H17696   1.347  -0.327  10.944 -1.4203  2.5069  1.4622
  892MOL0     H17697   1.520  -0.491  11.023 -0.3894 -3.1781 -2.8665
  892MOL0     H17698   1.701  -0.649  10.999 -1.3441 -0.5958 -4.5128
  892MOL0     H17699   1.849  -0.568  11.050 -1.2070 -1.0545  0.8798
  892MOL0     H17700   1.974  -0.636  10.867  0.2382 -0.7369  0.1892
  892MOL0     H17701   1.836  -0.596  10.752 -0.1651 -1.5195 -0.9018
  892MOL0     H17702   1.725  -0.797  10.843 -1.6145 -0.9852 -2.7189
  892MOL0     H17703   1.859  -0.822  10.737  0.5470  2.8194 -0.6999
  892MOL0     H17704   1.911  -0.842  11.046  0.2773  0.4201  0.8975
  892MOL0     H17705   2.029  -0.859  10.910  0.8413 -1.3322  2.2021
  892MOL0     H17706   1.665  -0.973  11.025 -0.7760  0.1285  0.7770
  892MOL0     H17707   1.550  -1.111  11.208 -1.9483 -1.7427  1.4421
  892MOL0     H17708   1.841  -1.690  11.419 -0.1234 -1.2332  1.4323
  892MOL0     H17709   1.743  -1.902  11.480 -0.3639  0.1063 -1.3308
  892MOL0     H17710   1.648  -1.938  11.713  0.7803  0.2811  0.1775
  892MOL0     H17711   1.681  -2.065  11.600  1.3665  0.3780  1.4981
  892MOL0     H17712   1.446  -2.023  11.787  3.1938  2.6095  0.6915
  892MOL0     H17713   1.578  -2.136  11.820  2.0655 -2.0081 -1.7953
  892MOL0     H17714   1.397  -2.168  11.579 -3.2049 -0.9321  0.3841
  892MOL0     H17715   1.376  -2.260  11.726  2.6991 -1.7330  3.9149
  892MOL0     H17716   1.629  -2.285  11.577  3.3305  0.3443  3.1781
  892MOL0     H17717   1.590  -2.359  11.728  1.2917  1.8683  0.6001
  892MOL0     H17718   1.457  -2.515  11.627  1.4354 -0.5496  1.1582
  892MOL0     H17719   1.596  -2.496  11.531  0.7036  1.1506 -1.8416
  892MOL0     H17720   1.307  -2.393  11.462 -0.0365 -0.2254  0.0057
  892MOL0     H17721   1.403  -2.529  11.398  2.8692  1.3950 -2.6968
  892MOL0     H17722   1.412  -2.229  11.329  0.3248  0.0075  0.3845
  892MOL0     H17723   1.564  -2.312  11.311 -0.3790  2.4538  2.4223
  892MOL0     H17724   1.447  -2.456  11.148  2.3015  0.0613  0.8170
  892MOL0     H17725   1.404  -2.294  11.107  0.8472 -1.2673 -0.2893
  892MOL0     H17726   1.357  -1.747  11.485  0.5089 -1.2024  4.7924
  892MOL0     H17727   1.433  -1.552  11.343 -0.9018 -0.8550 -2.3770
  892MOL0     H17728   1.883  -1.390  11.150  1.0669 -0.1909 -2.5576
  892MOL0     H17729   1.984  -1.233  10.994  0.0530  1.9477 -0.3654
  892MOL0     H17730   1.314   0.754  11.282 -0.4000 -3.1812  2.4022
  892MOL0     H17731   1.415   0.946  11.403 -1.7243 -0.5161 -2.4091
  892MOL0     H17732   1.773   1.025  11.699  0.8354 -1.5560 -1.3524
  892MOL0     H17733   1.899   1.185  11.854 -0.7425  3.2114  1.2720
  892MOL0     H17734   1.993   1.590  11.766  0.8367  0.4065  1.0549
  892MOL0     H17735   2.128   1.516  11.676  0.0524  2.4513  0.2520
  892MOL0     H17736   2.085   1.564  11.977  0.9443 -5.3236  0.3490
  892MOL0     H17737   2.237   1.500  11.916  2.5484  1.2127 -4.3128
  892MOL0     H17738   2.158   1.767  11.800  2.0729  0.8289 -0.4935
  892MOL0     H17739   2.312   1.679  11.845 -0.0957 -1.9374  1.1585
  892MOL0     H17740   2.279   1.883  11.965 -0.7271 -0.2666  0.3111
  892MOL0     H17741   2.122   1.845  12.030 -0.0006 -3.2222  3.2015
  892MOL0     H17742   2.319   1.685  12.334 -1.0792 -1.9189  0.5209
  892MOL0     H17743   1.928   1.476  11.564 -2.7566  0.3559 -1.5425
  892MOL0     H17744   1.773   1.343  11.408 -1.6506 -2.5614  0.2666
  893MOL0     O17745  10.265   4.966   7.390  0.3075  0.0376 -0.0219
  893MOL0     C17746  10.142   4.987   7.413 -0.4403  0.3038 -0.0605
  893MOL0     O17747  10.098   5.030   7.529 -0.1550 -0.2548  0.0782
  893MOL0     C17748  10.194   5.045   7.626 -0.1453 -0.8384 -0.1665
  893MOL0     C17749  10.286   5.146   7.617  0.0452  0.6460  0.0101
  893MOL0     C17750  10.398   5.141   7.708 -0.0462  0.4421 -0.3917
  893MOL0     C17751  10.405   5.049   7.806  0.0502 -0.6080  0.0164
  893MOL0     O17752  10.514   5.035   7.880 -0.2000 -0.5437  0.5646
  893MOL0     C17753  10.612   4.937   7.834  0.8245  0.3832  0.7624
  893MOL0     C17754  10.708   4.884   7.939  0.7837  0.4284 -0.5800
  893MOL0     C17755  10.844   4.820   7.890  0.5723  0.5915  0.1149
  893MOL0     C17756  10.798   4.701   7.795 -0.2129  0.3583  0.3234
  893MOL0     C17757  10.909   4.607   7.751 -0.2636  0.3887 -0.6143
  893MOL0     C17758  11.029   4.679   7.673  0.5569 -0.4798  0.2173
  893MOL0     C17759  11.146   4.583   7.631  0.6734  1.8146  1.4447
  893MOL0     C17760  11.112   4.495   7.514  0.0726 -0.9478  0.0395
  893MOL0     N17761  11.164   4.556   7.387 -0.6238  0.1177  0.1408
  893MOL0     C17762  11.109   4.654   7.312  0.0924  0.9257 -0.2188
  893MOL0     C17763  11.200   4.672   7.211  1.0005 -1.9286 -0.5682
  893MOL0     C17764  11.189   4.778   7.104 -0.2169  0.3339  0.4136
  893MOL0     C17765  11.124   4.738   6.971  0.0607  0.0800  0.8068
  893MOL0     C17766  10.972   4.711   6.997  0.0297  0.4190  0.6837
  893MOL0     C17767  10.905   4.737   6.864  0.2009 -0.2314 -0.2565
  893MOL0     O17768  10.959   4.650   6.760  0.2638  0.3282 -0.0980
  893MOL0     C17769  10.876   4.553   6.710  1.0414 -0.7508 -0.3901
  893MOL0     C17770  10.835   4.555   6.580 -0.7277  0.4231 -1.1800
  893MOL0     C17771  10.748   4.465   6.529  0.0752 -0.9929  0.1506
  893MOL0     C17772  10.691   4.358   6.607  0.2762  0.0352  0.6243
  893MOL0     C17773  10.594   4.259   6.557 -0.2933  0.0423  0.5591
  893MOL0     O17774  10.544   4.307   6.436  0.1110 -0.1722 -0.2186
  893MOL0     C17775  10.498   4.216   6.341 -0.3013  0.2863 -0.3266
  893MOL0     C17776  10.403   4.120   6.367 -0.6277 -0.6344  0.2149
  893MOL0     C17777  10.352   4.041   6.265 -0.5618 -0.4580 -0.4752
  893MOL0     C17778  10.401   4.058   6.134  0.1681 -0.2077  0.2479
  893MOL0     O17779  10.342   3.978   6.040 -0.9139 -0.3015 -0.2568
  893MOL0     C17780  10.311   4.036   5.918 -0.6728 -0.1174  0.4959
  893MOL0     C17781  10.199   4.141   5.927 -0.1905  0.0518 -0.1700
  893MOL0     C17782  10.076   4.112   6.016 -0.2060  0.6622 -0.0035
  893MOL0     C17783   9.946   4.093   5.928 -0.3369 -0.7118 -1.2840
  893MOL0     C17784   9.832   4.068   6.033 -0.6110  0.1041  0.1599
  893MOL0     C17785   9.701   4.019   5.966 -0.0717 -0.7326 -0.1086
  893MOL0     C17786   9.569   4.067   6.037  0.2461 -0.2202 -0.1368
  893MOL0     C17787   9.443   4.040   5.965  0.4817 -0.0818  0.1524
  893MOL0    Cl17788   9.305   4.139   6.030  0.1849  0.2532 -0.4118
  893MOL0     C17789  10.485   4.169   6.100 -0.7069 -0.1588 -0.2706
  893MOL0     C17790  10.540   4.239   6.209 -0.6349 -1.1947  0.3685
  893MOL0     O17791  10.566   4.154   6.613 -0.5019  0.0502  0.3875
  893MOL0     C17792  10.719   4.361   6.742  0.0809 -0.7695 -0.3762
  893MOL0     C17793  10.811   4.454   6.793 -0.0442 -0.1558 -0.2985
  893MOL0     N17794  11.312   4.596   7.233  0.8901  0.6408 -0.8737
  893MOL0     N17795  11.281   4.511   7.329 -0.4002 -0.1406 -0.1655
  893MOL0     C17796  10.301   4.968   7.825  0.4557  0.3364 -0.0942
  893MOL0     C17797  10.193   4.964   7.735  1.2278  1.0108 -0.6660
  893MOL0     C17798  10.045   4.950   7.309  0.3455  0.4463  0.4349
  893MOL0     C17799  10.089   4.886   7.190  0.1880 -0.0362 -0.4533
  893MOL0     C17800  10.001   4.857   7.090  0.5511  0.3747  0.0850
  893MOL0     C17801   9.862   4.863   7.090 -0.3554 -0.0174 -0.0002
  893MOL0     O17802   9.776   4.824   6.994 -0.1563  0.1438 -0.2907
  893MOL0     C17803   9.818   4.801   6.860 -0.5073  0.6240 -0.0132
  893MOL0     C17804   9.716   4.874   6.773  0.2686 -0.3257  0.5680
  893MOL0     C17805   9.569   4.829   6.785  0.6846 -0.5054 -0.3424
  893MOL0     C17806   9.489   4.878   6.656 -0.5213  1.1309 -0.4771
  893MOL0     C17807   9.342   4.913   6.682 -0.4096 -0.0026  1.2341
  893MOL0     C17808   9.230   4.955   6.713 -0.0075 -0.7671 -0.5078
  893MOL0     C17809   9.820   4.908   7.216  0.1210  0.1094 -0.0246
  893MOL0     C17810   9.906   4.961   7.319  0.0003 -1.3110 -0.2548
  893MOL0     H17811  10.284   5.217   7.535  1.5501  0.5092 -0.1687
  893MOL0     H17812  10.484   5.206   7.701  1.2707 -1.3615 -2.1986
  893MOL0     H17813  10.669   4.973   7.748  0.2716  2.1124  1.0767
  893MOL0     H17814  10.551   4.856   7.793  2.1828  0.4924 -1.6521
  893MOL0     H17815  10.652   4.809   7.995  0.3411  0.0330 -1.5482
  893MOL0     H17816  10.732   4.962   8.013  1.1749  1.3469 -1.6409
  893MOL0     H17817  10.908   4.777   7.967  0.0511 -0.3117  0.0533
  893MOL0     H17818  10.897   4.895   7.829 -0.3945  2.0378  0.9867
  893MOL0     H17819  10.724   4.636   7.842  0.1464 -1.4247 -1.4178
  893MOL0     H17820  10.739   4.742   7.713  2.3105  1.0095 -1.2975
  893MOL0     H17821  10.857   4.539   7.684 -0.5871 -1.8220  1.7163
  893MOL0     H17822  10.940   4.547   7.837 -3.9117  0.1593  0.7199
  893MOL0     H17823  11.063   4.765   7.732 -0.9648 -1.0449  2.0453
  893MOL0     H17824  10.984   4.732   7.589 -0.2045 -2.2050 -0.5083
  893MOL0     H17825  11.229   4.651   7.608  1.4534  0.8143  1.2649
  893MOL0     H17826  11.184   4.524   7.715  1.8645  0.1467 -0.1898
  893MOL0     H17827  11.005   4.475   7.501 -0.1942 -1.6525  2.7450
  893MOL0     H17828  11.156   4.397   7.536  1.8081 -0.5815 -1.4673
  893MOL0     H17829  11.011   4.698   7.327 -0.6616 -0.9069  0.6220
  893MOL0     H17830  11.297   4.789   7.090 -0.0295 -1.4560  0.2548
  893MOL0     H17831  11.146   4.875   7.130 -2.3520 -0.3977 -0.1001
  893MOL0     H17832  11.167   4.645   6.932  7.0866  1.4504  3.6104
  893MOL0     H17833  11.140   4.817   6.896 -2.6677  1.3385  1.4430
  893MOL0     H17834  10.961   4.605   7.022 -1.9290 -0.1265 -2.0557
  893MOL0     H17835  10.935   4.770   7.081  0.7691 -0.9350  2.0222
  893MOL0     H17836  10.931   4.841   6.841 -0.1155 -0.0930 -0.0019
  893MOL0     H17837  10.798   4.715   6.876 -0.0591  0.1722 -1.6154
  893MOL0     H17838  10.876   4.637   6.522 -0.6016  1.6758  0.5921
  893MOL0     H17839  10.713   4.476   6.426 -2.8365  2.9945  1.3204
  893MOL0     H17840  10.384   4.095   6.471  2.3474 -0.9948  0.7502
  893MOL0     H17841  10.283   3.960   6.286 -0.6669  0.0479  1.2847
  893MOL0     H17842  10.278   3.953   5.854 -1.5827 -0.7130  1.6988
  893MOL0     H17843  10.397   4.072   5.861 -1.0834  0.4184  0.2067
  893MOL0     H17844  10.169   4.173   5.828 -2.3547  2.7772  1.2569
  893MOL0     H17845  10.250   4.231   5.963 -0.4371  0.3323 -0.5246
  893MOL0     H17846  10.059   4.193   6.088 -1.8951 -2.2197  3.1710
  893MOL0     H17847  10.095   4.019   6.072 -0.1442 -0.5037 -1.8622
  893MOL0     H17848   9.935   4.186   5.871  2.6430  1.6252  1.5748
  893MOL0     H17849   9.949   4.004   5.864 -0.4209 -2.2226  0.7250
  893MOL0     H17850   9.821   4.163   6.086 -3.2724  1.2758 -2.2290
  893MOL0     H17851   9.845   3.987   6.105 -2.2388  1.0959  1.6647
  893MOL0     H17852   9.695   3.910   5.960 -4.6235 -1.0760  4.3314
  893MOL0     H17853   9.694   4.068   5.868 -0.1050 -1.8620 -0.6961
  893MOL0     H17854   9.561   4.013   6.131  0.3225  1.6840  1.0164
  893MOL0     H17855   9.571   4.174   6.060  0.9007 -0.6865  2.1042
  893MOL0     H17856   9.409   3.936   5.967 -0.7994  0.2956 -0.8554
  893MOL0     H17857   9.447   4.071   5.860  1.5254 -1.1632 -0.1562
  893MOL0     H17858  10.519   4.186   5.998  1.4986  0.3746  0.5008
  893MOL0     H17859  10.609   4.321   6.193 -0.8804 -1.4389 -2.4272
  893MOL0     H17860  10.681   4.282   6.807 -0.1024  0.3493  0.9276
  893MOL0     H17861  10.847   4.456   6.895 -1.5186  2.0558  0.2327
  893MOL0     H17862  10.298   4.897   7.907 -2.0646 -0.1285 -0.5212
  893MOL0     H17863  10.111   4.895   7.749  2.6303 -0.6173 -0.0445
  893MOL0     H17864  10.193   4.865   7.170  0.4964  0.7136  0.2910
  893MOL0     H17865  10.042   4.816   6.998  0.0070  0.9829 -0.4501
  893MOL0     H17866   9.833   4.695   6.835  4.6973  1.3290 -0.9790
  893MOL0     H17867   9.917   4.846   6.846  0.6349 -1.3492  1.2601
  893MOL0     H17868   9.714   4.983   6.786  3.1835 -0.1874  0.5273
  893MOL0     H17869   9.738   4.852   6.668  1.5365 -1.7999  1.0912
  893MOL0     H17870   9.526   4.874   6.875 -2.2835 -2.5896 -0.5599
  893MOL0     H17871   9.548   4.721   6.789 -0.2410 -0.3449 -0.5276
  893MOL0     H17872   9.540   4.966   6.616  1.7021 -0.4819 -1.3297
  893MOL0     H17873   9.481   4.802   6.578  2.3287 -0.5003  0.6642
  893MOL0     H17874   9.137   4.985   6.757 -0.0248 -0.7958 -0.5257
  893MOL0     H17875   9.713   4.916   7.227 -0.2278 -3.9975  1.5376
  893MOL0     H17876   9.876   5.014   7.409  1.8292 -1.1104  0.2850
  894MOL0     O17877   3.835  10.005   4.731 -0.0517 -0.0827 -0.9026
  894MOL0     C17878   3.732   9.982   4.789 -0.4844 -0.6666 -0.2844
  894MOL0     O17879   3.683   9.860   4.800 -0.1540  0.1806  0.7873
  894MOL0     C17880   3.758   9.759   4.755  0.0354  0.2672 -0.0938
  894MOL0     C17881   3.746   9.699   4.631 -0.2777 -0.8613 -0.9903
  894MOL0     C17882   3.817   9.584   4.594 -0.1515 -0.0334  0.3375
  894MOL0     C17883   3.916   9.533   4.679 -0.3527  0.0444  0.5102
  894MOL0     O17884   4.006   9.439   4.624  0.6109  0.6017  0.3025
  894MOL0     C17885   4.040   9.323   4.706  0.1952 -0.2504  0.4035
  894MOL0     C17886   4.083   9.205   4.609 -0.5145  0.1066 -0.5825
  894MOL0     C17887   4.150   9.103   4.683 -0.7724 -0.1320 -0.8547
  894MOL0     C17888   4.184   8.989   4.595  0.7456 -0.4344 -0.1576
  894MOL0     C17889   4.298   8.890   4.643  0.5401  0.2137 -0.4070
  894MOL0     C17890   4.275   8.753   4.576  0.9530 -0.4476 -0.6047
  894MOL0     C17891   4.404   8.661   4.599  0.5556 -0.9079  1.1203
  894MOL0     C17892   4.413   8.593   4.735 -0.2922 -1.4210  0.6418
  894MOL0     N17893   4.284   8.549   4.791 -0.3214  0.1542  1.0524
  894MOL0     C17894   4.188   8.625   4.863  1.0110  0.5189  0.1812
  894MOL0     C17895   4.093   8.537   4.902  0.1437  0.4879  0.3168
  894MOL0     C17896   3.959   8.559   4.968  0.0065 -0.0731 -0.1471
  894MOL0     C17897   3.963   8.579   5.121  0.3782  0.1187  0.5223
  894MOL0     C17898   4.052   8.696   5.180  0.6581  0.1036  0.2737
  894MOL0     C17899   3.989   8.832   5.173  0.6295  0.0402 -0.0746
  894MOL0     O17900   3.970   8.858   5.032 -0.8228  0.6878  0.2151
  894MOL0     C17901   3.867   8.949   4.996 -0.5117  0.2711 -0.8165
  894MOL0     C17902   3.852   8.967   4.862 -0.2751 -0.6306 -0.1768
  894MOL0     C17903   3.738   9.041   4.814  0.4534  0.9108  0.4201
  894MOL0     C17904   3.649   9.104   4.903 -0.4508  0.7235  0.7002
  894MOL0     C17905   3.525   9.173   4.851  0.8764  0.5670 -0.0704
  894MOL0     O17906   3.512   9.203   4.715  0.1590  0.3162 -0.4617
  894MOL0     C17907   3.429   9.309   4.691  0.9152 -0.6872  0.0894
  894MOL0     C17908   3.297   9.306   4.665  0.9740  0.7863 -0.6096
  894MOL0     C17909   3.222   9.423   4.660 -0.2468 -0.2154  0.1085
  894MOL0     C17910   3.266   9.552   4.656 -0.9846  0.8182  0.0473
  894MOL0     O17911   3.177   9.657   4.648 -0.1043  0.1064 -0.1996
  894MOL0     C17912   3.240   9.784   4.649  0.0475  0.2558 -0.3798
  894MOL0     C17913   3.126   9.886   4.633  0.0783  0.7289 -0.0093
  894MOL0     C17914   3.029   9.900   4.758  0.3257  0.3136 -0.1351
  894MOL0     C17915   2.919  10.003   4.731 -0.1577  0.5388  0.5836
  894MOL0     C17916   2.843  10.042   4.853  0.1507  0.1189 -0.5385
  894MOL0     C17917   2.728  10.134   4.810  0.1812  0.5664 -0.2887
  894MOL0     C17918   2.669  10.218   4.927  0.1116  0.7318 -0.1390
  894MOL0     C17919   2.678  10.369   4.894  0.2665 -0.7093 -1.5766
  894MOL0    Cl17920   2.848  10.422   4.851  0.6893  0.0821  0.4377
  894MOL0     C17921   3.413   9.556   4.664 -0.5334  0.1992 -0.2137
  894MOL0     C17922   3.489   9.437   4.681  0.5479 -0.5120  0.1752
  894MOL0     O17923   3.440   9.200   4.932 -0.1864 -0.5599  0.1197
  894MOL0     C17924   3.682   9.101   5.045  0.6585  0.6813  0.0116
  894MOL0     C17925   3.791   9.026   5.092  0.0915  0.1011  0.5853
  894MOL0     N17926   4.128   8.417   4.841 -0.2847 -0.1583  0.1402
  894MOL0     N17927   4.248   8.416   4.789  0.6310 -0.2259  0.4489
  894MOL0     C17928   3.932   9.597   4.805  0.2656  0.1958  0.6861
  894MOL0     C17929   3.846   9.703   4.847  0.6746  0.4377  0.7932
  894MOL0     C17930   3.651  10.097   4.830  0.9758  0.2931  0.2746
  894MOL0     C17931   3.688  10.233   4.792  0.1187 -0.1773 -0.0713
  894MOL0     C17932   3.599  10.343   4.817  0.6756 -0.8174 -0.6599
  894MOL0     C17933   3.470  10.312   4.870  0.3117  0.2055  0.4813
  894MOL0     O17934   3.390  10.415   4.865 -0.1601 -0.3077 -0.7549
  894MOL0     C17935   3.257  10.407   4.910  0.3957  0.4461  0.4777
  894MOL0     C17936   3.242  10.428   5.062 -0.1143  0.5008  0.8557
  894MOL0     C17937   3.090  10.442   5.103  0.2355 -1.3324 -0.3050
  894MOL0     C17938   3.093  10.456   5.258  1.0324  0.4538 -0.1948
  894MOL0     C17939   2.953  10.484   5.308  0.2024  0.6344 -1.0473
  894MOL0     C17940   2.844  10.510   5.346 -0.4169  0.5443 -0.0771
  894MOL0     C17941   3.438  10.179   4.912  0.0174  0.3309 -1.0079
  894MOL0     C17942   3.527  10.073   4.895  0.0191  0.0221  0.2784
  894MOL0     H17943   3.678   9.734   4.554  1.1024 -1.1157 -2.3704
  894MOL0     H17944   3.783   9.537   4.502  0.4907 -0.0898  0.1254
  894MOL0     H17945   3.952   9.286   4.759  1.0849  0.0465  2.1351
  894MOL0     H17946   4.122   9.344   4.774 -1.0627 -0.0422  1.9024
  894MOL0     H17947   4.149   9.237   4.528 -1.5382  0.3334 -1.3612
  894MOL0     H17948   3.983   9.170   4.581 -1.8486  1.9511  1.5466
  894MOL0     H17949   4.091   9.065   4.767  1.7582  2.8735  2.5988
  894MOL0     H17950   4.238   9.148   4.731  0.7136 -4.0522  0.5263
  894MOL0     H17951   4.095   8.925   4.590 -0.6754  1.3726  0.8883
  894MOL0     H17952   4.212   9.026   4.496 -3.3660 -1.0752 -1.7599
  894MOL0     H17953   4.297   8.868   4.751  4.2264 -1.8315 -0.6207
  894MOL0     H17954   4.398   8.929   4.626  1.2050 -2.4146 -3.4222
  894MOL0     H17955   4.254   8.770   4.470  0.3063 -0.5711 -0.5059
  894MOL0     H17956   4.176   8.712   4.601  1.0776 -0.1656  0.3741
  894MOL0     H17957   4.388   8.580   4.526  0.4761 -2.3349  2.6623
  894MOL0     H17958   4.482   8.727   4.560  0.5909 -0.1072  2.4948
  894MOL0     H17959   4.444   8.667   4.810 -1.2688 -0.0235 -0.2650
  894MOL0     H17960   4.484   8.510   4.732 -0.7193 -1.7694 -0.1162
  894MOL0     H17961   4.174   8.727   4.896  0.8258  0.9949 -1.3340
  894MOL0     H17962   3.898   8.468   4.964 -0.1756  0.0240  0.3871
  894MOL0     H17963   3.905   8.641   4.920 -0.6819  0.2844  1.1870
  894MOL0     H17964   4.007   8.488   5.162 -4.3184 -2.1059  1.2391
  894MOL0     H17965   3.861   8.587   5.160  0.6426  2.4229  0.8814
  894MOL0     H17966   4.082   8.684   5.284  2.1250  0.9509 -0.0277
  894MOL0     H17967   4.148   8.690   5.127 -0.5088 -2.6124 -1.8231
  894MOL0     H17968   4.050   8.913   5.214  0.5746  0.3995 -0.6832
  894MOL0     H17969   3.893   8.830   5.225  1.5906  1.7010  1.9019
  894MOL0     H17970   3.908   8.910   4.788 -2.4940 -2.1692 -0.7677
  894MOL0     H17971   3.712   9.013   4.712 -1.9962  1.2041  0.8928
  894MOL0     H17972   3.257   9.205   4.659 -1.0875  1.2872  2.3155
  894MOL0     H17973   3.115   9.404   4.661 -0.2345 -0.8904 -2.8100
  894MOL0     H17974   3.296   9.795   4.555  2.1511 -0.9566  0.6665
  894MOL0     H17975   3.299   9.809   4.737  4.2920  0.2243 -2.9529
  894MOL0     H17976   3.066   9.868   4.543  3.6700 -0.0171 -2.4397
  894MOL0     H17977   3.176   9.983   4.626  1.7395 -0.0964  0.1115
  894MOL0     H17978   3.077   9.924   4.853  1.9600 -2.1252 -0.2502
  894MOL0     H17979   2.987   9.800   4.775  1.5524  0.0823  1.8510
  894MOL0     H17980   2.971  10.088   4.685  0.7700 -0.1353  0.3386
  894MOL0     H17981   2.850   9.954   4.662 -0.2343 -0.6544  1.4847
  894MOL0     H17982   2.926  10.087   4.908  0.4427  0.3285 -1.1360
  894MOL0     H17983   2.800   9.964   4.916 -0.7723  1.4573  0.5443
  894MOL0     H17984   2.643  10.069   4.785 -0.2979  0.9540  0.2932
  894MOL0     H17985   2.753  10.197   4.725  7.5563 -0.5242  0.3635
  894MOL0     H17986   2.564  10.190   4.935  0.5883 -1.0716  0.2109
  894MOL0     H17987   2.726  10.188   5.016  3.1129 -4.2472 -3.2556
  894MOL0     H17988   2.646  10.424   4.982  0.7346 -1.7767 -0.7098
  894MOL0     H17989   2.607  10.389   4.814  1.3883 -0.6913 -2.5938
  894MOL0     H17990   3.460   9.653   4.679 -1.7674  0.7253  0.3862
  894MOL0     H17991   3.597   9.447   4.683  0.3912  1.3423  0.7140
  894MOL0     H17992   3.619   9.153   5.116  0.0981 -0.2163  0.1795
  894MOL0     H17993   3.821   9.020   5.197  2.1089 -1.6907 -0.0067
  894MOL0     H17994   4.014   9.554   4.862 -1.6582 -3.3691  1.0421
  894MOL0     H17995   3.857   9.741   4.948 -1.0337  2.0767  0.4185
  894MOL0     H17996   3.780  10.264   4.744 -0.4868  1.6531 -0.1323
  894MOL0     H17997   3.625  10.444   4.787 -1.4965  0.9923  2.8684
  894MOL0     H17998   3.213  10.308   4.895 -0.0661  0.7627 -0.3523
  894MOL0     H17999   3.195  10.469   4.845 -0.7644 -2.5941 -1.4951
  894MOL0     H18000   3.280  10.351   5.129 -2.0580 -1.1484  0.1638
  894MOL0     H18001   3.302  10.519   5.077  2.7014 -1.0790 -0.0771
  894MOL0     H18002   3.020  10.372   5.057 -0.4388  0.4021 -2.0589
  894MOL0     H18003   3.071  10.540   5.059  2.3342 -0.9810 -0.5333
  894MOL0     H18004   3.133  10.359   5.289  0.9873 -0.4310 -2.6904
  894MOL0     H18005   3.149  10.539   5.302 -0.5752  0.7238  1.4827
  894MOL0     H18006   2.750  10.556   5.368 -0.8050 -0.0943 -0.3642
  894MOL0     H18007   3.343  10.148   4.954  0.2809 -1.4327 -1.6318
  894MOL0     H18008   3.504   9.970   4.920  0.8231 -0.1699  0.2694
  895MOL0     O18009   1.409   0.261   1.370 -1.3405 -0.1358  0.0682
  895MOL0     C18010   1.409   0.368   1.314  0.3787  0.0809 -0.4108
  895MOL0     O18011   1.304   0.451   1.313 -0.0837  0.4486 -0.5327
  895MOL0     C18012   1.220   0.439   1.415 -0.6638  0.1216  0.1922
  895MOL0     C18013   1.103   0.369   1.388  0.6916 -0.5049  0.2926
  895MOL0     C18014   1.003   0.349   1.482  0.3434 -0.1270  0.2951
  895MOL0     C18015   1.011   0.393   1.614 -0.0035 -0.3176 -0.2577
  895MOL0     O18016   0.919   0.391   1.713  0.2511  0.7834  0.5783
  895MOL0     C18017   0.908   0.262   1.780  0.5860  0.1220 -0.6735
  895MOL0     C18018   0.992   0.250   1.905 -0.3819  0.7667 -0.0102
  895MOL0     C18019   1.004   0.384   1.982 -0.5099  0.0911  0.2037
  895MOL0     C18020   1.111   0.374   2.094  0.8492  0.3767 -0.1129
  895MOL0     C18021   1.129   0.514   2.162 -0.0744  0.3651 -0.3343
  895MOL0     C18022   1.260   0.579   2.113 -1.0694 -0.7308 -0.1074
  895MOL0     C18023   1.274   0.726   2.159  0.4123 -0.1448  0.1430
  895MOL0     C18024   1.322   0.761   2.301 -0.5878  0.3541  0.7618
  895MOL0     N18025   1.219   0.713   2.392 -0.7941  0.0178  0.2657
  895MOL0     C18026   1.098   0.781   2.412 -0.5088 -1.3218  0.0950
  895MOL0     C18027   1.047   0.740   2.526 -0.9169  0.4480 -0.1014
  895MOL0     C18028   0.931   0.785   2.603  0.5072  0.2677 -0.8652
  895MOL0     C18029   0.950   0.903   2.689  0.0974 -1.0687  0.6668
  895MOL0     C18030   0.849   0.932   2.799 -0.2546  0.1023 -0.1096
  895MOL0     C18031   0.838   1.084   2.835  0.1211  0.9757  0.5889
  895MOL0     O18032   0.729   1.096   2.924  0.1566  0.3998  0.2938
  895MOL0     C18033   0.607   1.149   2.885 -0.2754  0.4452  0.7346
  895MOL0     C18034   0.556   1.151   2.751 -0.8713 -0.5172 -0.6646
  895MOL0     C18035   0.432   1.219   2.712  0.2931 -0.1418 -0.4433
  895MOL0     C18036   0.351   1.265   2.818 -1.1125 -0.7181  0.5029
  895MOL0     C18037   0.220   1.320   2.790  0.2005  0.0948  0.0072
  895MOL0     O18038   0.179   1.306   2.666 -0.0788  0.2041 -0.5533
  895MOL0     C18039   0.064   1.359   2.604 -0.1882  0.3760  0.0957
  895MOL0     C18040   0.045   1.326   2.468 -0.6865 -0.3771  0.4874
  895MOL0     C18041  -0.051   1.379   2.380 -0.0211  1.0748  0.4752
  895MOL0     C18042  -0.139   1.465   2.451  0.3072 -0.2049  0.7504
  895MOL0     O18043  -0.236   1.507   2.365  0.9978  0.1228 -0.3549
  895MOL0     C18044  -0.373   1.509   2.416  0.2040  0.1103 -0.9782
  895MOL0     C18045  -0.476   1.555   2.300 -0.2715 -0.3873 -0.3790
  895MOL0     C18046  -0.440   1.472   2.172 -0.2372  0.4480  0.3994
  895MOL0     C18047  -0.491   1.555   2.056  0.4641  0.4318  0.2188
  895MOL0     C18048  -0.483   1.491   1.916  1.5055 -0.8203  0.4193
  895MOL0     C18049  -0.598   1.392   1.891  0.8641 -0.6336  0.4190
  895MOL0     C18050  -0.630   1.393   1.743  0.2340  0.0666 -0.0758
  895MOL0     C18051  -0.746   1.295   1.728  0.1057  0.3554  0.6087
  895MOL0    Cl18052  -0.765   1.255   1.561  0.0841 -0.3190  0.3214
  895MOL0     C18053  -0.120   1.507   2.580  0.1201  0.0006  0.2637
  895MOL0     C18054  -0.026   1.454   2.657 -0.0690  0.3583  0.8206
  895MOL0     O18055   0.156   1.367   2.883 -0.4694 -0.4502 -0.5321
  895MOL0     C18056   0.400   1.263   2.946 -0.2533 -0.1390  0.1877
  895MOL0     C18057   0.522   1.211   2.975 -0.5552 -0.5393 -0.7796
  895MOL0     N18058   1.137   0.639   2.580  1.1014  0.0758  0.0646
  895MOL0     N18059   1.241   0.632   2.500  0.7013  0.2536 -0.5438
  895MOL0     C18060   1.128   0.466   1.639  0.6879 -0.8591  0.0890
  895MOL0     C18061   1.225   0.492   1.547 -0.3648 -0.3127  0.1377
  895MOL0     C18062   1.532   0.407   1.240  0.8089 -0.4153 -0.2848
  895MOL0     C18063   1.543   0.531   1.173  0.3665 -0.0491 -0.2389
  895MOL0     C18064   1.666   0.561   1.112  0.5697 -0.2522  0.0685
  895MOL0     C18065   1.773   0.468   1.107 -0.3303 -0.3468 -0.3850
  895MOL0     O18066   1.896   0.508   1.062 -0.5716  0.3354 -0.3289
  895MOL0     C18067   1.908   0.659   1.040 -0.7583 -0.2534 -0.5625
  895MOL0     C18068   2.059   0.698   1.018 -0.1907 -0.7124 -0.7029
  895MOL0     C18069   2.134   0.750   1.133  0.1180 -0.5499 -0.0542
  895MOL0     C18070   2.150   0.641   1.239 -0.4989 -0.9335 -0.7802
  895MOL0     C18071   2.234   0.527   1.205 -0.1243  0.5722  0.4101
  895MOL0     C18072   2.292   0.432   1.169 -0.6965 -0.3675 -0.0719
  895MOL0     C18073   1.755   0.344   1.166 -0.5196  0.1827 -0.5639
  895MOL0     C18074   1.632   0.320   1.228  0.3255 -0.2073  0.5668
  895MOL0     H18075   1.094   0.314   1.295  1.5259  0.0802 -0.1486
  895MOL0     H18076   0.925   0.286   1.440 -0.5654  0.5686  0.9088
  895MOL0     H18077   0.915   0.171   1.720  1.1232  1.6442 -3.0610
  895MOL0     H18078   0.812   0.259   1.834  1.2961  0.0774  0.6351
  895MOL0     H18079   1.091   0.217   1.870  0.3789 -0.3428  2.7968
  895MOL0     H18080   0.959   0.168   1.971  1.6394  1.4721  2.0082
  895MOL0     H18081   0.916   0.406   2.044  1.2317 -2.3062  3.9409
  895MOL0     H18082   1.037   0.459   1.909  1.8686  0.3060  1.3932
  895MOL0     H18083   1.079   0.303   2.171  0.7557  0.8110  0.2558
  895MOL0     H18084   1.200   0.320   2.061 -1.5577 -4.7853  0.8502
  895MOL0     H18085   1.134   0.490   2.269  2.9337  1.1779 -0.1912
  895MOL0     H18086   1.039   0.572   2.146 -1.0453 -0.9054  0.3115
  895MOL0     H18087   1.261   0.576   2.003  1.5700 -0.8043 -0.1671
  895MOL0     H18088   1.353   0.530   2.143 -0.2350  1.2216  0.6793
  895MOL0     H18089   1.346   0.761   2.085 -0.1325 -1.1222 -0.8840
  895MOL0     H18090   1.177   0.774   2.138  0.8217  0.8445  0.4595
  895MOL0     H18091   1.321   0.869   2.313  3.8343  0.3843  2.4614
  895MOL0     H18092   1.419   0.727   2.338  1.1147  2.9793 -0.9410
  895MOL0     H18093   1.071   0.871   2.357  0.5059 -0.3527  1.1389
  895MOL0     H18094   0.919   0.703   2.675  2.3242  2.2937  1.9853
  895MOL0     H18095   0.832   0.795   2.559 -1.1118  0.7213  2.5124
  895MOL0     H18096   0.945   0.984   2.615 -0.2841 -0.6643  1.1309
  895MOL0     H18097   1.055   0.891   2.718  0.6387  1.2136 -0.0883
  895MOL0     H18098   0.750   0.903   2.762  0.4069 -1.1431 -1.0259
  895MOL0     H18099   0.862   0.875   2.891  0.4468 -2.6989 -1.7826
  895MOL0     H18100   0.816   1.145   2.747 -0.8974 -0.8168 -0.4665
  895MOL0     H18101   0.933   1.116   2.878  1.0471 -0.9698  0.1186
  895MOL0     H18102   0.625   1.108   2.679 -0.3644  1.3049 -1.3335
  895MOL0     H18103   0.395   1.225   2.610 -0.9031  1.1212  0.0293
  895MOL0     H18104   0.135   1.269   2.448  1.4821  3.5384 -2.5934
  895MOL0     H18105  -0.051   1.354   2.275 -2.2893  0.7269  0.5003
  895MOL0     H18106  -0.382   1.576   2.502 -2.6103 -1.9144  0.4575
  895MOL0     H18107  -0.401   1.409   2.449  3.5502 -1.4076 -2.2733
  895MOL0     H18108  -0.453   1.662   2.291 -2.7675  0.2059 -0.2049
  895MOL0     H18109  -0.581   1.536   2.323 -1.0717  1.6422 -2.0565
  895MOL0     H18110  -0.506   1.386   2.164 -2.1021  1.8315  0.2318
  895MOL0     H18111  -0.337   1.434   2.178 -1.4859 -3.3111  0.4052
  895MOL0     H18112  -0.596   1.571   2.082  0.8290 -1.5690  3.5084
  895MOL0     H18113  -0.437   1.650   2.058 -0.1715  0.7862  1.7035
  895MOL0     H18114  -0.387   1.440   1.901  0.0634 -3.1000 -1.9547
  895MOL0     H18115  -0.495   1.571   1.843  0.3154  1.2569  2.7563
  895MOL0     H18116  -0.678   1.419   1.961 -0.5299  3.3944 -2.3448
  895MOL0     H18117  -0.559   1.295   1.923 -1.3245 -2.4792 -2.0207
  895MOL0     H18118  -0.657   1.493   1.706 -0.5046 -0.1406 -0.1071
  895MOL0     H18119  -0.541   1.350   1.697 -0.3713 -1.2885 -0.0367
  895MOL0     H18120  -0.837   1.332   1.777 -0.9239  1.9651 -2.3028
  895MOL0     H18121  -0.726   1.208   1.792 -2.1394 -0.1907  0.6426
  895MOL0     H18122  -0.171   1.591   2.626  0.3583  0.1672  0.2293
  895MOL0     H18123  -0.020   1.499   2.755 -1.8024  3.4440 -0.3684
  895MOL0     H18124   0.347   1.309   3.029  2.2868 -0.7015  2.2861
  895MOL0     H18125   0.558   1.221   3.077  1.6130 -0.2739 -1.5290
  895MOL0     H18126   1.134   0.510   1.738 -1.5319  0.3457 -0.2586
  895MOL0     H18127   1.319   0.537   1.577  0.8685 -1.3519 -1.9688
  895MOL0     H18128   1.461   0.603   1.169 -0.5748 -1.1190 -3.4084
  895MOL0     H18129   1.678   0.652   1.055  0.9545  0.5773  1.4318
  895MOL0     H18130   1.864   0.711   1.126  1.4045 -1.6125  1.4842
  895MOL0     H18131   1.854   0.686   0.949  1.2007  2.8157 -0.9819
  895MOL0     H18132   2.102   0.604   0.980 -1.7636 -1.7692  0.0177
  895MOL0     H18133   2.052   0.773   0.939 -0.5838  0.0163  0.0111
  895MOL0     H18134   2.075   0.837   1.164  2.9710  1.2054  0.8726
  895MOL0     H18135   2.227   0.788   1.091 -2.2856  3.5700 -2.3539
  895MOL0     H18136   2.204   0.685   1.324  1.6746  0.6902 -2.8376
  895MOL0     H18137   2.050   0.613   1.271  0.0673 -2.8171 -0.5367
  895MOL0     H18138   2.358   0.355   1.133 -0.7255 -0.0774 -0.7553
  895MOL0     H18139   1.835   0.270   1.170 -2.0479 -1.4938  1.5104
  895MOL0     H18140   1.627   0.218   1.265  0.1678 -0.7061 -0.7572
  896MOL0     O18141   4.818   7.798   9.681  0.2754  0.1256  0.6666
  896MOL0     C18142   4.936   7.818   9.707  0.6218  0.0105 -0.8482
  896MOL0     O18143   4.989   7.938   9.685  0.5865 -0.3731  0.8692
  896MOL0     C18144   4.903   8.049   9.674  0.2636 -0.8021  1.1237
  896MOL0     C18145   4.885   8.096   9.540 -0.4185  0.0690  0.3195
  896MOL0     C18146   4.802   8.208   9.514  0.6528 -0.0494 -0.5828
  896MOL0     C18147   4.749   8.288   9.620 -0.0703  0.6610 -0.2571
  896MOL0     O18148   4.686   8.413   9.598 -0.7177  0.0859 -0.9310
  896MOL0     C18149   4.624   8.472   9.713  0.3872  0.0578  0.0868
  896MOL0     C18150   4.527   8.576   9.669  0.1951  0.3075 -0.3816
  896MOL0     C18151   4.550   8.709   9.725  0.4214 -0.2652  0.8021
  896MOL0     C18152   4.670   8.770   9.651 -0.1500  0.4514 -0.0883
  896MOL0     C18153   4.716   8.901   9.721  0.4113 -0.4025 -0.7818
  896MOL0     C18154   4.851   8.950   9.671 -1.3143  0.0502 -0.2022
  896MOL0     C18155   4.889   9.087   9.758 -0.1191  0.3337  0.2306
  896MOL0     C18156   5.021   9.160   9.718 -0.8644  0.5402 -0.1664
  896MOL0     N18157   5.002   9.297   9.670 -0.5874  0.6638  0.2096
  896MOL0     C18158   5.034   9.345   9.543 -0.2618 -0.1754 -0.3545
  896MOL0     C18159   4.958   9.461   9.537 -0.6986  0.1142 -0.3053
  896MOL0     C18160   4.966   9.550   9.409 -0.0519  0.5814  0.1176
  896MOL0     C18161   5.093   9.644   9.426 -0.2142  0.0601  0.4199
  896MOL0     C18162   5.130   9.735   9.303  0.4783  0.6426 -0.6144
  896MOL0     C18163   5.206   9.674   9.187 -0.0698  0.1862  0.0358
  896MOL0     O18164   5.255   9.539   9.214  0.4851 -0.0861  0.0167
  896MOL0     C18165   5.376   9.527   9.283 -0.0920 -0.4156  0.7807
  896MOL0     C18166   5.477   9.627   9.291 -0.5652  0.3400  0.4664
  896MOL0     C18167   5.602   9.600   9.357 -0.0978 -1.0406 -0.8066
  896MOL0     C18168   5.622   9.488   9.430  1.3024 -0.3819 -0.0828
  896MOL0     C18169   5.743   9.466   9.509 -0.3575  0.5917 -0.4158
  896MOL0     O18170   5.766   9.339   9.563 -0.4775 -1.4577  0.2295
  896MOL0     C18171   5.884   9.318   9.641 -0.7532 -0.0745 -0.2078
  896MOL0     C18172   5.878   9.205   9.729 -1.1903  0.1433  0.5486
  896MOL0     C18173   5.992   9.160   9.803 -0.9653  0.3378 -0.3788
  896MOL0     C18174   6.109   9.229   9.800 -0.9357 -0.8287 -0.5924
  896MOL0     O18175   6.212   9.172   9.880 -0.1853 -0.0391  1.1309
  896MOL0     C18176   6.315   9.248   9.935  0.0272  0.2211  0.1438
  896MOL0     C18177   6.409   9.166  10.014 -0.4116 -0.3746  0.0229
  896MOL0     C18178   6.349   9.064  10.112 -0.0397 -0.3860  0.2789
  896MOL0     C18179   6.285   8.933  10.050 -0.1559  0.0343  0.6688
  896MOL0     C18180   6.377   8.855   9.963 -0.1692  0.0224 -0.6824
  896MOL0     C18181   6.353   8.709   9.962  0.5141  0.1241  0.5152
  896MOL0     C18182   6.281   8.676   9.836  0.0836 -0.4055 -0.0363
  896MOL0     C18183   6.257   8.521   9.829 -0.0592 -0.4917  0.0956
  896MOL0    Cl18184   6.124   8.471   9.938  0.0171 -0.1514 -0.0680
  896MOL0     C18185   6.122   9.343   9.712 -0.0076  0.0457 -0.5068
  896MOL0     C18186   6.006   9.384   9.642  1.5226  0.2696  0.1295
  896MOL0     O18187   5.819   9.556   9.528  0.0797 -0.1070 -0.4296
  896MOL0     C18188   5.525   9.384   9.420 -0.0458  0.7179  1.0611
  896MOL0     C18189   5.402   9.403   9.347  0.3088 -1.4604  0.0361
  896MOL0     N18190   4.904   9.491   9.659 -0.0559 -0.6312 -0.8671
  896MOL0     N18191   4.936   9.391   9.738 -0.2577 -0.0855 -0.8462
  896MOL0     C18192   4.770   8.239   9.752  0.5069 -0.1675  1.5787
  896MOL0     C18193   4.836   8.122   9.779 -0.5531  0.9910  0.1805
  896MOL0     C18194   5.012   7.704   9.761  0.8430  0.4277 -1.1940
  896MOL0     C18195   5.137   7.718   9.822 -0.1927 -0.5426  0.0027
  896MOL0     C18196   5.209   7.607   9.868 -0.3930 -0.1170  0.1428
  896MOL0     C18197   5.148   7.478   9.868 -0.4891  0.4526  0.1469
  896MOL0     O18198   5.224   7.375   9.912 -0.2814 -0.4382  0.3457
  896MOL0     C18199   5.180   7.239   9.919 -0.4820 -0.1307 -0.5842
  896MOL0     C18200   5.292   7.142   9.907 -0.0459 -0.1404  0.3807
  896MOL0     C18201   5.412   7.183   9.991 -0.1024 -0.0390  0.2010
  896MOL0     C18202   5.398   7.234  10.126 -0.9307  0.0310 -0.4541
  896MOL0     C18203   5.360   7.120  10.209 -0.7765 -0.1090 -0.9158
  896MOL0     C18204   5.326   7.034  10.285 -0.0978 -0.1972 -0.4426
  896MOL0     C18205   5.025   7.455   9.806 -0.6848 -0.3219 -0.8273
  896MOL0     C18206   4.956   7.573   9.751 -0.3934  1.3121 -0.1881
  896MOL0     H18207   4.936   8.032   9.468  0.6234  0.9076  0.2882
  896MOL0     H18208   4.792   8.245   9.412 -2.0479  1.5287  0.1528
  896MOL0     H18209   4.702   8.508   9.780 -0.3031  0.5963  0.5980
  896MOL0     H18210   4.557   8.406   9.769 -2.4978  0.6991 -2.3319
  896MOL0     H18211   4.431   8.536   9.703  0.6045 -0.1822  0.2303
  896MOL0     H18212   4.529   8.586   9.560 -1.1524 -2.4427 -0.7263
  896MOL0     H18213   4.563   8.716   9.834  0.3202 -1.8473  0.9361
  896MOL0     H18214   4.460   8.760   9.690 -0.6454 -2.2578  0.5255
  896MOL0     H18215   4.746   8.693   9.666 -0.8198  0.3516  3.9511
  896MOL0     H18216   4.654   8.793   9.545  1.3373  1.1157 -0.1894
  896MOL0     H18217   4.721   8.889   9.830 -2.9565  0.2300 -0.4225
  896MOL0     H18218   4.646   8.983   9.703  3.5526  2.5670 -0.3819
  896MOL0     H18219   4.840   8.982   9.567 -0.6864  0.2698 -0.2062
  896MOL0     H18220   4.932   8.879   9.687 -0.8933  0.9315  1.9059
  896MOL0     H18221   4.805   9.152   9.732  0.2579  0.5579 -0.4570
  896MOL0     H18222   4.898   9.072   9.866  1.0901 -3.9607 -0.2843
  896MOL0     H18223   5.062   9.104   9.632 -1.3035  0.4933 -0.3478
  896MOL0     H18224   5.097   9.175   9.794  0.4297  1.0579 -1.5042
  896MOL0     H18225   5.086   9.287   9.468 -0.3274  0.0884 -0.6084
  896MOL0     H18226   4.877   9.614   9.405  0.9374  1.9556 -0.9538
  896MOL0     H18227   4.988   9.494   9.318  0.0034  1.6969 -0.5801
  896MOL0     H18228   5.180   9.591   9.466  3.0741  4.6066  0.0722
  896MOL0     H18229   5.065   9.712   9.507 -2.5322 -1.2024  0.7472
  896MOL0     H18230   5.043   9.787   9.261 -0.5049 -0.1584  0.3459
  896MOL0     H18231   5.199   9.809   9.343  1.8998 -0.6990 -0.4987
  896MOL0     H18232   5.290   9.742   9.168  0.9454 -0.4040  2.1940
  896MOL0     H18233   5.132   9.660   9.106 -1.4411 -0.9403  1.4220
  896MOL0     H18234   5.470   9.717   9.232  2.2155 -0.0191 -0.5885
  896MOL0     H18235   5.680   9.676   9.368 -1.6154  0.2237  4.0852
  896MOL0     H18236   5.786   9.147   9.729 -0.6949 -0.6688  1.4969
  896MOL0     H18237   5.973   9.075   9.867 -0.7833 -0.8368 -1.8154
  896MOL0     H18238   6.275   9.328   9.999 -0.2637 -0.9276  1.4441
  896MOL0     H18239   6.364   9.296   9.850 -1.0648  2.0547  0.4808
  896MOL0     H18240   6.476   9.235  10.066 -0.0728  0.9622 -2.0334
  896MOL0     H18241   6.474   9.105   9.951 -0.0606  0.5851 -0.5652
  896MOL0     H18242   6.268   9.109  10.170  0.4849 -0.6086  1.1960
  896MOL0     H18243   6.430   9.031  10.178  0.4560 -2.0864 -1.0981
  896MOL0     H18244   6.253   8.862  10.127  0.5340 -3.7120 -2.2346
  896MOL0     H18245   6.193   8.949   9.993  1.0039 -3.4789 -2.5725
  896MOL0     H18246   6.478   8.878   9.997 -1.2386  2.4144  1.2436
  896MOL0     H18247   6.373   8.896   9.862 -0.9577 -2.7479 -1.8776
  896MOL0     H18248   6.299   8.684  10.054 -0.2952  2.8093  0.8580
  896MOL0     H18249   6.442   8.646   9.964  1.9434  2.0534  0.0486
  896MOL0     H18250   6.183   8.724   9.838 -0.1975 -0.9756  0.1816
  896MOL0     H18251   6.336   8.715   9.750  0.5784  3.3309  1.7904
  896MOL0     H18252   6.346   8.459   9.834 -0.7905 -1.6280 -0.4715
  896MOL0     H18253   6.218   8.491   9.731  0.4464  0.3989 -0.3955
  896MOL0     H18254   6.221   9.387   9.701 -1.0159  2.9238  0.9720
  896MOL0     H18255   6.033   9.463   9.572 -0.6295  4.2123  3.2939
  896MOL0     H18256   5.536   9.292   9.476 -0.3370 -0.3942 -0.6276
  896MOL0     H18257   5.333   9.319   9.339 -0.5533 -0.6211 -1.7100
  896MOL0     H18258   4.743   8.294   9.841 -2.7740 -0.3361  0.8331
  896MOL0     H18259   4.847   8.089   9.882 -1.2480  3.9000  1.2716
  896MOL0     H18260   5.179   7.818   9.823 -0.0766 -0.5847 -0.4622
  896MOL0     H18261   5.315   7.609   9.894 -0.5220 -1.7639  0.9432
  896MOL0     H18262   5.110   7.215   9.838  0.2674 -1.4624 -0.8700
  896MOL0     H18263   5.127   7.216  10.012  1.7350 -2.2443  0.2609
  896MOL0     H18264   5.246   7.051   9.947 -1.9177 -0.0806 -1.4431
  896MOL0     H18265   5.338   7.116   9.811  2.1655  2.3373  0.6751
  896MOL0     H18266   5.480   7.243   9.929  1.5123 -2.4017 -0.4675
  896MOL0     H18267   5.469   7.090   9.985 -3.0476 -1.9258 -4.9102
  896MOL0     H18268   5.489   7.278  10.168 -0.4322  0.1529 -1.6378
  896MOL0     H18269   5.309   7.298  10.131 -3.7735 -3.5399 -1.2732
  896MOL0     H18270   5.319   6.960  10.363  0.7055  2.1148  2.0067
  896MOL0     H18271   4.976   7.359   9.798 -2.6095  0.5884 -0.3987
  896MOL0     H18272   4.853   7.565   9.719 -0.5135 -0.6249  0.5371
  897MOL0     O18273  10.325   9.569   6.809 -0.2178 -0.3222  0.4384
  897MOL0     C18274  10.354   9.539   6.692  0.6039 -0.5594 -0.3340
  897MOL0     O18275  10.481   9.548   6.643 -0.7126  0.4409 -0.6419
  897MOL0     C18276  10.587   9.529   6.730  0.4673  0.0048 -0.5579
  897MOL0     C18277  10.602   9.434   6.831 -0.1002  0.5305 -0.0071
  897MOL0     C18278  10.715   9.414   6.917 -0.7232  0.6882  0.6825
  897MOL0     C18279  10.823   9.499   6.898  0.1483 -0.3558 -0.4477
  897MOL0     O18280  10.921   9.484   6.995  0.4720 -0.4771  0.1901
  897MOL0     C18281  11.041   9.570   6.990 -0.1334  0.0289  0.1979
  897MOL0     C18282  11.097   9.602   7.133  0.0328  0.1236  0.3585
  897MOL0     C18283  11.104   9.476   7.229  0.3647 -0.1842 -0.5389
  897MOL0     C18284  11.171   9.349   7.169 -0.6783 -1.1402  0.3001
  897MOL0     C18285  11.173   9.232   7.268 -0.0083 -0.2185  0.4339
  897MOL0     C18286  11.266   9.107   7.215  0.6061  0.1834  0.2817
  897MOL0     C18287  11.201   9.029   7.101 -0.2500 -0.3262  0.3278
  897MOL0     C18288  11.295   8.964   7.000 -1.2151 -0.0855 -0.8269
  897MOL0     N18289  11.240   8.894   6.891  0.2040 -0.3613  0.5093
  897MOL0     C18290  11.194   8.946   6.768 -0.0945  0.2045  0.2767
  897MOL0     C18291  11.173   8.836   6.690  0.5301 -0.1831  0.1363
  897MOL0     C18292  11.134   8.837   6.534 -0.4326 -0.4488 -0.3594
  897MOL0     C18293  10.991   8.793   6.496 -0.1059 -0.4797 -0.6792
  897MOL0     C18294  10.933   8.667   6.566  0.5038 -0.6740 -0.2741
  897MOL0     C18295  10.796   8.617   6.515  0.3093 -0.1327 -0.2450
  897MOL0     O18296  10.688   8.719   6.547 -0.2480 -0.0032  0.2395
  897MOL0     C18297  10.573   8.698   6.488  0.6265 -0.3183  0.8310
  897MOL0     C18298  10.551   8.661   6.354 -0.2601  0.0619  0.2037
  897MOL0     C18299  10.426   8.633   6.301 -1.5845 -0.2528 -0.0680
  897MOL0     C18300  10.312   8.650   6.379  0.5191 -0.5627 -0.0008
  897MOL0     C18301  10.178   8.635   6.327  0.6887  0.6190 -0.4225
  897MOL0     O18302  10.082   8.638   6.412  0.6519 -0.0591 -0.2442
  897MOL0     C18303   9.951   8.603   6.382  0.2774 -0.2190 -0.2816
  897MOL0     C18304   9.879   8.534   6.484 -0.3210  0.2664 -0.0014
  897MOL0     C18305   9.753   8.477   6.452 -0.5709  0.2473 -0.0710
  897MOL0     C18306   9.691   8.513   6.326 -0.2110 -0.2904 -0.2643
  897MOL0     O18307   9.563   8.464   6.312  0.4736  0.5878  0.1044
  897MOL0     C18308   9.479   8.501   6.203  0.8313  0.1006  0.3084
  897MOL0     C18309   9.372   8.392   6.201 -0.2645 -0.7268 -0.0136
  897MOL0     C18310   9.284   8.398   6.080  0.6917 -0.2703 -0.0619
  897MOL0     C18311   9.325   8.287   5.981  0.0636 -0.5468  0.9802
  897MOL0     C18312   9.209   8.267   5.876  0.8167 -0.3139 -0.3973
  897MOL0     C18313   9.227   8.383   5.776 -0.1830  0.2027  0.5365
  897MOL0     C18314   9.121   8.389   5.656  0.8171 -0.2027 -0.0435
  897MOL0     C18315   9.161   8.508   5.565 -0.9135 -0.4828  0.2657
  897MOL0    Cl18316   9.040   8.522   5.432  0.4258 -0.0613 -0.3226
  897MOL0     C18317   9.758   8.583   6.226 -0.8533  0.2343 -0.4161
  897MOL0     C18318   9.889   8.623   6.258  0.2343  0.6701 -0.5331
  897MOL0     O18319  10.168   8.613   6.208  0.0421  0.3974  0.2554
  897MOL0     C18320  10.331   8.703   6.509 -0.1122 -0.1875 -1.1662
  897MOL0     C18321  10.461   8.729   6.559  0.0581 -0.1184  0.3862
  897MOL0     N18322  11.191   8.719   6.761  0.4699  0.0044 -0.1509
  897MOL0     N18323  11.238   8.757   6.874 -0.7988  0.1897  0.3416
  897MOL0     C18324  10.819   9.591   6.787  1.0292  0.0311 -1.3367
  897MOL0     C18325  10.705   9.608   6.716  0.5558  0.2822  0.8984
  897MOL0     C18326  10.248   9.492   6.602 -0.8486  0.0340  0.5961
  897MOL0     C18327  10.280   9.455   6.468 -0.0715 -0.9374  0.2694
  897MOL0     C18328  10.175   9.411   6.379 -0.2387 -0.7069 -0.4018
  897MOL0     C18329  10.039   9.404   6.418  0.2130 -0.0636 -0.6374
  897MOL0     O18330   9.941   9.374   6.329 -0.0549  0.6593  0.8875
  897MOL0     C18331   9.802   9.379   6.374 -0.6109 -0.0632 -0.2311
  897MOL0     C18332   9.697   9.357   6.264  0.2416  1.1810 -0.1068
  897MOL0     C18333   9.689   9.215   6.208 -0.3492  0.3167  0.4180
  897MOL0     C18334   9.824   9.160   6.151  0.6907 -0.1087 -0.0982
  897MOL0     C18335   9.799   9.024   6.089  0.5787 -0.4665 -0.1192
  897MOL0     C18336   9.777   8.910   6.059  0.3522 -0.2134  0.1029
  897MOL0     C18337  10.017   9.437   6.557  0.3245 -0.8878  0.3337
  897MOL0     C18338  10.121   9.474   6.646  0.8002 -0.4308 -0.3545
  897MOL0     H18339  10.510   9.379   6.849  1.2195 -2.1719 -0.9171
  897MOL0     H18340  10.725   9.323   6.976 -1.3952 -1.5878 -2.4570
  897MOL0     H18341  11.014   9.660   6.933 -0.4940  0.6476  1.3164
  897MOL0     H18342  11.126   9.525   6.938 -0.0450  2.0678 -1.5694
  897MOL0     H18343  11.035   9.687   7.166 -2.7445 -1.1407 -1.2388
  897MOL0     H18344  11.195   9.648   7.112 -0.5887  0.7195 -1.4979
  897MOL0     H18345  11.010   9.436   7.267  1.2934  0.1143  2.3299
  897MOL0     H18346  11.174   9.512   7.306 -1.6485  1.7928  0.4893
  897MOL0     H18347  11.130   9.331   7.069 -0.6948  4.1818 -0.9909
  897MOL0     H18348  11.277   9.377   7.157 -0.5672 -1.6872 -0.0116
  897MOL0     H18349  11.069   9.199   7.268  0.3436 -1.3758 -0.4478
  897MOL0     H18350  11.216   9.275   7.359  4.0031 -0.0246 -1.3227
  897MOL0     H18351  11.256   9.031   7.293 -0.0615 -0.3249 -0.2898
  897MOL0     H18352  11.371   9.132   7.196  1.1395 -1.3793  0.9772
  897MOL0     H18353  11.133   8.950   7.136 -0.2704  0.6777  2.7275
  897MOL0     H18354  11.137   9.091   7.038 -1.7309 -1.9583  0.1444
  897MOL0     H18355  11.372   8.899   7.043 -0.9270  0.0414 -1.1472
  897MOL0     H18356  11.350   9.049   6.959  3.8529 -3.0876 -1.1381
  897MOL0     H18357  11.194   9.050   6.735  1.9131  0.0540 -0.3734
  897MOL0     H18358  11.206   8.773   6.482 -0.0058  0.2920 -0.7063
  897MOL0     H18359  11.151   8.936   6.491  2.5742 -0.5712  0.3125
  897MOL0     H18360  10.990   8.778   6.388  2.1393 -0.0982 -0.7982
  897MOL0     H18361  10.919   8.868   6.529 -2.1498 -2.8690  0.7088
  897MOL0     H18362  11.003   8.585   6.553  1.6262  0.2582 -0.3096
  897MOL0     H18363  10.928   8.688   6.674 -1.9423  0.5071 -0.5440
  897MOL0     H18364  10.772   8.517   6.553  2.5774 -0.5461  0.2170
  897MOL0     H18365  10.806   8.621   6.406  3.2154  0.1588 -0.0313
  897MOL0     H18366  10.637   8.647   6.290  0.2575 -1.3085  1.1484
  897MOL0     H18367  10.432   8.588   6.203  0.2133 -0.0460 -0.0736
  897MOL0     H18368   9.928   8.509   6.577  1.2283 -1.7635 -1.2755
  897MOL0     H18369   9.686   8.424   6.520 -0.5419 -0.7294 -0.7843
  897MOL0     H18370   9.526   8.508   6.105  2.1590 -1.3364  0.8151
  897MOL0     H18371   9.437   8.597   6.236 -1.9251 -0.0162 -2.4293
  897MOL0     H18372   9.312   8.395   6.292 -0.8389 -1.4142 -0.3627
  897MOL0     H18373   9.426   8.297   6.192  4.8892  1.8454 -0.4486
  897MOL0     H18374   9.294   8.496   6.034  3.0820 -0.6566 -0.4964
  897MOL0     H18375   9.185   8.370   6.118  0.6900  0.4919  0.4972
  897MOL0     H18376   9.422   8.319   5.940  0.0426  1.2094  2.2054
  897MOL0     H18377   9.328   8.187   6.027  0.4716 -1.2440 -0.5043
  897MOL0     H18378   9.111   8.269   5.923  0.9813 -2.5549  0.1795
  897MOL0     H18379   9.226   8.174   5.822 -0.2385 -0.5562 -0.3192
  897MOL0     H18380   9.326   8.377   5.729 -0.1651  2.3637  0.2099
  897MOL0     H18381   9.218   8.480   5.826  0.1189  0.4946  0.0237
  897MOL0     H18382   9.112   8.291   5.609  0.4123  0.3312 -1.1199
  897MOL0     H18383   9.027   8.422   5.701  1.3161 -0.7422  1.4432
  897MOL0     H18384   9.254   8.494   5.510 -1.9896  1.1986 -2.1512
  897MOL0     H18385   9.160   8.597   5.628 -0.0453  1.1611 -1.9397
  897MOL0     H18386   9.705   8.602   6.133  1.6543 -0.5145 -2.1121
  897MOL0     H18387   9.938   8.671   6.174  0.8554 -1.4178 -1.4296
  897MOL0     H18388  10.241   8.722   6.565  0.0763 -1.2082 -0.4855
  897MOL0     H18389  10.490   8.770   6.655  2.5818  0.9360 -0.7557
  897MOL0     H18390  10.891   9.669   6.766 -1.9822  2.8557 -2.0622
  897MOL0     H18391  10.714   9.677   6.633 -2.7980  0.7357  0.7612
  897MOL0     H18392  10.384   9.449   6.437  0.0932 -1.2895  0.8635
  897MOL0     H18393  10.204   9.381   6.279 -0.2665  0.9187 -0.9191
  897MOL0     H18394   9.799   9.485   6.399  0.4930  1.0444 -4.0136
  897MOL0     H18395   9.791   9.308   6.457 -1.5323  2.7134  2.1921
  897MOL0     H18396   9.598   9.371   6.308 -0.9898 -4.0457 -0.5063
  897MOL0     H18397   9.719   9.427   6.183  1.2502 -1.2368 -2.0654
  897MOL0     H18398   9.618   9.218   6.125  1.8496  0.3362 -1.5625
  897MOL0     H18399   9.655   9.151   6.290  0.4456 -2.5319 -1.3154
  897MOL0     H18400   9.861   9.226   6.072 -0.5626 -1.3344 -1.7834
  897MOL0     H18401   9.901   9.157   6.228 -0.8505  4.7430  2.0380
  897MOL0     H18402   9.749   8.809   6.038 -1.0391 -0.3305  2.3017
  897MOL0     H18403   9.917   9.441   6.598  0.1462 -1.6654 -0.0042
  897MOL0     H18404  10.098   9.495   6.750 -2.9421  1.4861 -1.3706
  898MOL0     O18405   0.439   7.433   3.133  0.8936 -0.7812  0.2065
  898MOL0     C18406   0.356   7.458   3.215  0.9101 -0.6797 -0.5174
  898MOL0     O18407   0.264   7.562   3.211  0.6620  0.4357 -0.5775
  898MOL0     C18408   0.274   7.661   3.117 -0.3894  0.1790  0.0263
  898MOL0     C18409   0.154   7.694   3.045  0.0272 -0.8861 -0.2793
  898MOL0     C18410   0.155   7.810   2.965 -0.4401  0.7522  0.1830
  898MOL0     C18411   0.269   7.893   2.964 -0.1396 -1.1101  0.6405
  898MOL0     O18412   0.278   8.016   2.900  0.3128  0.4818 -0.3925
  898MOL0     C18413   0.191   8.054   2.799 -0.5267  1.1052 -0.6088
  898MOL0     C18414   0.235   8.197   2.763  0.5948  0.0775  0.2532
  898MOL0     C18415   0.141   8.260   2.666 -0.4659 -0.5885  1.0762
  898MOL0     C18416   0.187   8.395   2.594 -0.1869 -0.5969  0.5343
  898MOL0     C18417   0.205   8.512   2.703 -0.0531  0.7966  0.3613
  898MOL0     C18418   0.232   8.637   2.630  0.7360  0.3045 -0.4932
  898MOL0     C18419   0.259   8.760   2.720 -0.6076 -1.1973 -1.4840
  898MOL0     C18420   0.236   8.895   2.662 -0.0513  0.2986 -0.4152
  898MOL0     N18421   0.249   8.992   2.777  0.3666  0.2294 -0.4255
  898MOL0     C18422   0.370   9.020   2.834 -0.1379 -0.1062  0.5086
  898MOL0     C18423   0.336   9.099   2.943 -0.7275  0.4511 -0.7645
  898MOL0     C18424   0.422   9.190   3.030 -0.0607 -0.0316  0.1399
  898MOL0     C18425   0.491   9.110   3.146  0.1097 -0.9506  0.1941
  898MOL0     C18426   0.537   8.978   3.104 -0.8312 -0.5331 -0.3086
  898MOL0     C18427   0.606   8.903   3.213  0.3032 -0.8890  0.6855
  898MOL0     O18428   0.545   8.902   3.337 -0.0314  0.3755  0.8995
  898MOL0     C18429   0.594   8.801   3.410  1.3386  0.4983  0.5520
  898MOL0     C18430   0.727   8.804   3.460 -0.3324 -1.5976  0.5062
  898MOL0     C18431   0.773   8.704   3.543 -0.4788  1.6675 -0.1350
  898MOL0     C18432   0.686   8.598   3.576 -0.5208  0.3467  0.2329
  898MOL0     C18433   0.717   8.494   3.677 -0.9291  0.6340 -0.4593
  898MOL0     O18434   0.701   8.366   3.633 -1.1644  0.6123 -0.6138
  898MOL0     C18435   0.746   8.270   3.714 -0.5337 -0.6562 -0.2358
  898MOL0     C18436   0.679   8.148   3.707 -0.3480  0.2519 -0.6787
  898MOL0     C18437   0.716   8.041   3.795  0.0855  0.2105 -0.2503
  898MOL0     C18438   0.822   8.047   3.884  0.2356 -0.1369  0.0171
  898MOL0     O18439   0.856   7.950   3.972 -0.4565 -0.5455  0.4010
  898MOL0     C18440   0.806   7.820   3.992  0.3207  0.1043  0.6891
  898MOL0     C18441   0.741   7.818   4.135  0.8719 -0.9570  0.5152
  898MOL0     C18442   0.617   7.903   4.139 -0.6297  0.9933  0.0230
  898MOL0     C18443   0.555   7.873   4.278  0.2682 -0.1358 -0.2873
  898MOL0     C18444   0.455   7.986   4.299 -0.0174 -1.1942  0.4479
  898MOL0     C18445   0.377   7.961   4.427 -0.7047 -0.0812 -0.8107
  898MOL0     C18446   0.292   8.086   4.454  0.2967  0.1820 -1.1864
  898MOL0     C18447   0.200   8.047   4.563 -0.5625 -1.1139 -0.5884
  898MOL0    Cl18448   0.108   8.199   4.610  0.2876  0.0699  0.3683
  898MOL0     C18449   0.891   8.170   3.880  0.0194 -0.4405  0.0159
  898MOL0     C18450   0.859   8.279   3.801  0.3650  0.3992 -0.7528
  898MOL0     O18451   0.748   8.526   3.793 -0.6943 -1.0818  0.2400
  898MOL0     C18452   0.553   8.592   3.534  0.2615  0.5523 -1.0358
  898MOL0     C18453   0.506   8.694   3.447  0.2407 -1.3135 -0.4562
  898MOL0     N18454   0.201   9.111   2.951  0.0832  0.8620  0.5016
  898MOL0     N18455   0.146   9.036   2.864  0.5573 -0.8146 -0.3059
  898MOL0     C18456   0.392   7.850   3.021 -0.6203 -0.4662 -0.1605
  898MOL0     C18457   0.397   7.727   3.090 -0.1348 -0.0718 -0.3941
  898MOL0     C18458   0.343   7.379   3.338  1.0366 -0.3478 -0.4536
  898MOL0     C18459   0.324   7.444   3.465  0.6623 -0.2890  0.0745
  898MOL0     C18460   0.330   7.368   3.584 -0.3885 -0.2076 -0.8086
  898MOL0     C18461   0.348   7.234   3.587 -0.3539 -0.0226  0.5710
  898MOL0     O18462   0.347   7.166   3.706  0.4841  0.1620 -0.4919
  898MOL0     C18463   0.402   7.031   3.718  0.2133  0.4551  0.8413
  898MOL0     C18464   0.408   6.988   3.869 -1.0799  0.9311  1.3010
  898MOL0     C18465   0.259   6.963   3.917 -0.9533 -0.0466 -0.3399
  898MOL0     C18466   0.253   6.962   4.069  0.0993  0.8146 -0.5788
  898MOL0     C18467   0.282   7.094   4.133  1.3071 -0.6705 -0.2664
  898MOL0     C18468   0.292   7.205   4.185  0.7039  0.1488 -0.6592
  898MOL0     C18469   0.382   7.174   3.463  0.6651  1.1601  0.4464
  898MOL0     C18470   0.370   7.246   3.339  1.3175  0.2979  0.5008
  898MOL0     H18471   0.072   7.624   3.054  2.2389 -3.3407  3.1959
  898MOL0     H18472   0.063   7.846   2.919 -0.3612 -0.7073 -1.2039
  898MOL0     H18473   0.086   8.042   2.827 -0.2661 -1.7800 -0.4874
  898MOL0     H18474   0.209   7.990   2.712 -0.1210  1.2268 -0.6169
  898MOL0     H18475   0.339   8.193   2.729  1.1820  1.4888  1.7773
  898MOL0     H18476   0.234   8.257   2.854 -1.2186 -4.9121  3.9624
  898MOL0     H18477   0.045   8.269   2.716  0.3783 -0.7342  2.7703
  898MOL0     H18478   0.110   8.192   2.586 -1.9166  2.7971 -1.4867
  898MOL0     H18479   0.273   8.385   2.528  0.8704  1.5750  1.4695
  898MOL0     H18480   0.098   8.426   2.539 -1.4698 -1.6927  1.8945
  898MOL0     H18481   0.284   8.481   2.773 -0.5638 -2.8934 -0.4857
  898MOL0     H18482   0.112   8.526   2.759  0.0460  0.8728  0.5085
  898MOL0     H18483   0.172   8.655   2.540 -3.0831  0.4421  1.8790
  898MOL0     H18484   0.330   8.608   2.590 -0.7924 -3.3160 -2.0325
  898MOL0     H18485   0.210   8.751   2.818  0.3234 -2.4532 -1.0995
  898MOL0     H18486   0.363   8.754   2.755 -1.8078  0.9820  3.3649
  898MOL0     H18487   0.136   8.905   2.620 -1.7923 -0.3529  3.1491
  898MOL0     H18488   0.315   8.917   2.590  2.3088  1.3340  2.3070
  898MOL0     H18489   0.463   8.982   2.794 -2.3544 -1.3210 -4.2239
  898MOL0     H18490   0.362   9.275   3.064 -2.1570 -1.0963 -0.7096
  898MOL0     H18491   0.495   9.237   2.962  0.1723 -1.2393 -0.4770
  898MOL0     H18492   0.415   9.096   3.223  2.2417 -2.1583  2.2170
  898MOL0     H18493   0.578   9.166   3.183  1.2305 -1.6378 -1.2772
  898MOL0     H18494   0.454   8.909   3.086  0.0031 -2.1868  1.7708
  898MOL0     H18495   0.601   8.977   3.015  0.2540  1.8489  0.3723
  898MOL0     H18496   0.710   8.934   3.226  1.6158 -1.7840 -4.9945
  898MOL0     H18497   0.615   8.800   3.176  0.5311 -0.7831  0.4444
  898MOL0     H18498   0.772   8.898   3.431 -2.4219 -0.0565  1.9772
  898MOL0     H18499   0.869   8.702   3.592 -0.9149 -1.7198  0.8743
  898MOL0     H18500   0.585   8.150   3.653 -0.2513 -2.1584 -1.0432
  898MOL0     H18501   0.655   7.954   3.817  0.7024 -0.5400 -1.4270
  898MOL0     H18502   0.882   7.741   3.992 -0.8530 -1.1526 -2.1374
  898MOL0     H18503   0.732   7.802   3.914  1.0609  0.3556 -0.0808
  898MOL0     H18504   0.821   7.853   4.201  2.2493 -1.7851 -0.6533
  898MOL0     H18505   0.712   7.717   4.167  1.4010 -0.8926  1.2300
  898MOL0     H18506   0.552   7.874   4.055  2.3767 -2.3075 -1.4281
  898MOL0     H18507   0.649   8.007   4.138  2.5499  0.1114 -1.3110
  898MOL0     H18508   0.514   7.772   4.276  2.3661 -1.1568  2.3352
  898MOL0     H18509   0.631   7.870   4.356 -1.1508  0.6957  1.1821
  898MOL0     H18510   0.381   8.004   4.221 -0.0224  3.5380  1.2049
  898MOL0     H18511   0.521   8.072   4.315  1.2350 -2.1793  0.7967
  898MOL0     H18512   0.442   7.935   4.511  0.6985  0.2340 -1.7651
  898MOL0     H18513   0.309   7.876   4.420 -1.7696  0.2438  3.0385
  898MOL0     H18514   0.347   8.178   4.477  0.2373  0.7079 -3.0068
  898MOL0     H18515   0.233   8.119   4.368 -0.1018  2.5028 -0.1111
  898MOL0     H18516   0.255   8.018   4.653 -1.4190 -0.2292  0.2577
  898MOL0     H18517   0.130   7.966   4.541 -1.3137 -0.9146  0.8734
  898MOL0     H18518   0.981   8.179   3.940  0.0254 -2.7648  0.4456
  898MOL0     H18519   0.933   8.359   3.793  0.1585  0.4633 -2.5022
  898MOL0     H18520   0.483   8.521   3.579  0.2353  1.3776  0.3029
  898MOL0     H18521   0.409   8.675   3.400 -0.6409  0.1767  0.6769
  898MOL0     H18522   0.480   7.912   3.007 -0.2715 -0.6931  0.9199
  898MOL0     H18523   0.490   7.699   3.138 -0.5506  0.7049  0.9039
  898MOL0     H18524   0.301   7.550   3.468 -1.5192 -0.6851 -1.0448
  898MOL0     H18525   0.299   7.419   3.674  1.8675 -0.6735  0.3234
  898MOL0     H18526   0.501   7.033   3.670  0.9086  0.7657  2.2374
  898MOL0     H18527   0.337   6.958   3.668 -0.3913  1.7832 -0.3653
  898MOL0     H18528   0.475   6.903   3.883 -1.0680  0.2918 -1.8748
  898MOL0     H18529   0.462   7.066   3.923 -0.2117 -0.7757  3.0083
  898MOL0     H18530   0.221   6.868   3.879 -2.1554 -0.2983  1.3789
  898MOL0     H18531   0.198   7.046   3.879 -3.4181 -1.2231  0.8165
  898MOL0     H18532   0.157   6.923   4.103  1.5254 -2.2304  0.3540
  898MOL0     H18533   0.335   6.894   4.096 -1.2391 -0.7701 -0.2991
  898MOL0     H18534   0.294   7.303   4.230  2.3490 -0.0061 -0.3182
  898MOL0     H18535   0.409   7.070   3.448  0.3114  1.4017 -2.4351
  898MOL0     H18536   0.377   7.195   3.244 -1.4972  1.0959 -0.2077
  899MOL0     O18537   7.611  11.110   0.797  0.0847  0.0025 -0.0087
  899MOL0     C18538   7.541  11.174   0.716 -0.4874 -0.5730  0.1421
  899MOL0     O18539   7.523  11.158   0.575  0.2350 -0.1467 -0.1983
  899MOL0     C18540   7.586  11.052   0.508  0.3532  0.6588 -1.0315
  899MOL0     C18541   7.563  11.068   0.378  0.7023 -0.4971 -0.3900
  899MOL0     C18542   7.631  10.984   0.291 -0.2524  0.5827  0.0915
  899MOL0     C18543   7.717  10.877   0.325 -0.4755 -1.3132  0.3529
  899MOL0     O18544   7.779  10.790   0.236 -0.3247 -0.2143  0.1501
  899MOL0     C18545   7.734  10.783   0.099  0.4881 -0.1131 -0.3017
  899MOL0     C18546   7.824  10.671   0.039  0.3511  0.9007  0.3256
  899MOL0     C18547   7.965  10.723   0.029 -0.2774 -0.1896  0.6541
  899MOL0     C18548   8.068  10.656   0.123 -0.7924 -0.4764 -0.6243
  899MOL0     C18549   8.120  10.763   0.228 -0.0678 -0.4410  0.4858
  899MOL0     C18550   8.194  10.697   0.346  0.3684  0.2624  0.4945
  899MOL0     C18551   8.323  10.656   0.291  0.1189  0.0857 -0.1584
  899MOL0     C18552   8.420  10.604   0.396  0.2850 -0.3499  0.0594
  899MOL0     N18553   8.554  10.586   0.349 -0.3324 -0.2553 -0.1130
  899MOL0     C18554   8.656  10.664   0.399  0.3992  0.6197 -0.5869
  899MOL0     C18555   8.741  10.666   0.301  0.5728  0.5201  1.1700
  899MOL0     C18556   8.875  10.732   0.302  0.7531 -0.4009 -1.2210
  899MOL0     C18557   8.872  10.862   0.390  1.0216  0.3318 -0.0365
  899MOL0     C18558   9.005  10.949   0.380 -0.5884  0.4080  0.1279
  899MOL0     C18559   8.957  11.087   0.429  0.1536 -0.7464 -0.6414
  899MOL0     O18560   8.950  11.184   0.316 -0.0348  0.0963 -0.5553
  899MOL0     C18561   8.903  11.308   0.342 -0.6478 -0.2939 -0.5740
  899MOL0     C18562   8.963  11.378   0.446 -0.9150 -0.4364  0.6471
  899MOL0     C18563   8.934  11.520   0.460  1.0057  0.2918  0.2559
  899MOL0     C18564   8.832  11.583   0.389  0.8831 -0.1183  0.6969
  899MOL0     C18565   8.801  11.729   0.411  1.4024  0.4799  1.0899
  899MOL0     O18566   8.685  11.768   0.346  0.4541  0.1762  0.2015
  899MOL0     C18567   8.676  11.903   0.312  0.0338 -0.4878 -0.0841
  899MOL0     C18568   8.604  11.997   0.389 -1.0026 -1.3733  1.0072
  899MOL0     C18569   8.592  12.133   0.354 -0.5756  0.3615  0.2451
  899MOL0     C18570   8.637  12.176   0.237 -0.0149 -0.3631  0.5448
  899MOL0     O18571   8.596  12.303   0.200  0.5245  0.0970  0.2573
  899MOL0     C18572   8.702  12.396   0.199  0.0252 -0.1033 -1.0732
  899MOL0     C18573   8.667  12.523   0.275  0.8195 -0.7430  0.0063
  899MOL0     C18574   8.523  12.575   0.239 -0.1219  0.0132 -0.0721
  899MOL0     C18575   8.488  12.719   0.277  0.4054  0.6509 -0.3340
  899MOL0     C18576   8.357  12.771   0.224 -0.1799  0.6910 -0.6214
  899MOL0     C18577   8.335  12.919   0.267  0.3275  0.0563  0.4339
  899MOL0     C18578   8.224  12.988   0.210 -0.2453  0.2203  0.2275
  899MOL0     C18579   8.094  12.899   0.186 -0.8752 -0.2364 -0.1812
  899MOL0    Cl18580   7.966  13.022   0.159  0.0025 -0.2311 -0.2911
  899MOL0     C18581   8.709  12.091   0.149  0.4018 -0.0787  0.9544
  899MOL0     C18582   8.733  11.954   0.184  0.4565  0.8739 -0.6386
  899MOL0     O18583   8.884  11.810   0.461 -0.0039 -0.0505  0.0741
  899MOL0     C18584   8.781  11.516   0.275  0.7034 -0.3198 -0.8863
  899MOL0     C18585   8.813  11.381   0.258  0.1133 -1.0854  0.3894
  899MOL0     N18586   8.697  10.574   0.198 -0.5592 -0.0370 -0.2237
  899MOL0     N18587   8.584  10.537   0.231  0.2003  0.5644  0.9552
  899MOL0     C18588   7.730  10.852   0.469  1.1468  0.0314 -0.2102
  899MOL0     C18589   7.670  10.942   0.555  0.1682 -0.0978 -0.3409
  899MOL0     C18590   7.450  11.273   0.780  0.0625  0.2022 -0.2989
  899MOL0     C18591   7.374  11.366   0.703 -0.5051  0.9952 -0.1745
  899MOL0     C18592   7.278  11.449   0.752  0.3139 -0.2145 -0.2299
  899MOL0     C18593   7.253  11.446   0.889 -0.1709 -0.3387 -0.6827
  899MOL0     O18594   7.167  11.527   0.957 -0.4181  0.1572  0.0147
  899MOL0     C18595   7.060  11.589   0.890  0.1758  0.0435  0.2213
  899MOL0     C18596   6.977  11.681   0.980  0.4252  0.6824 -0.6135
  899MOL0     C18597   7.062  11.764   1.083 -0.6634  0.4538  0.4767
  899MOL0     C18598   6.966  11.859   1.164  0.8228  0.8023 -0.1374
  899MOL0     C18599   6.882  11.943   1.077 -0.3432  0.2157  0.4393
  899MOL0     C18600   6.820  12.015   1.007  0.9216  0.4001  0.0332
  899MOL0     C18601   7.338  11.370   0.972 -0.1909  0.4164  0.1395
  899MOL0     C18602   7.440  11.282   0.916  0.5616 -0.1795 -0.3156
  899MOL0     H18603   7.493  11.146   0.350  2.6315  0.8024 -1.8880
  899MOL0     H18604   7.617  10.988   0.183  2.4360 -1.8360 -0.4770
  899MOL0     H18605   7.749  10.881   0.052  2.6313 -0.1117  0.2977
  899MOL0     H18606   7.628  10.755   0.092 -0.1259  2.2633 -1.8505
  899MOL0     H18607   7.777  10.640  -0.055  0.2685 -2.2664  1.3166
  899MOL0     H18608   7.803  10.581   0.097  0.2252  0.0348 -1.0121
  899MOL0     H18609   7.964  10.831   0.047  0.1520 -0.2289  0.9177
  899MOL0     H18610   8.011  10.713  -0.070  1.6879 -0.3323  1.5404
  899MOL0     H18611   8.022  10.569   0.170 -0.4542  0.3993  1.4293
  899MOL0     H18612   8.152  10.625   0.060  2.3408  1.1978  2.3557
  899MOL0     H18613   8.031  10.810   0.273 -0.2249  0.7919 -1.0209
  899MOL0     H18614   8.180  10.838   0.175  0.5474 -0.5277  1.0513
  899MOL0     H18615   8.153  10.607   0.393  3.9907 -1.4885  0.6280
  899MOL0     H18616   8.205  10.773   0.425 -2.9451 -0.7803  2.1740
  899MOL0     H18617   8.307  10.580   0.214 -1.5813 -0.3715  0.5890
  899MOL0     H18618   8.372  10.742   0.245  0.1560 -0.7084 -1.6798
  899MOL0     H18619   8.369  10.519   0.443  1.2096 -0.5493  0.7349
  899MOL0     H18620   8.434  10.672   0.480 -3.0573  1.3646 -0.6264
  899MOL0     H18621   8.650  10.716   0.494  1.1272  0.5862 -0.5150
  899MOL0     H18622   8.903  10.755   0.198  0.9255  2.7122 -0.5908
  899MOL0     H18623   8.957  10.672   0.342 -0.9669 -2.0103  0.0649
  899MOL0     H18624   8.834  10.847   0.492 -0.5034  0.0487 -0.6182
  899MOL0     H18625   8.798  10.918   0.333 -0.6812 -0.5442  1.2008
  899MOL0     H18626   9.081  10.909   0.448 -2.2222 -0.7446  1.3854
  899MOL0     H18627   9.058  10.950   0.285  1.8116 -0.9266  1.3401
  899MOL0     H18628   9.018  11.128   0.510 -1.7387  3.1022 -0.9213
  899MOL0     H18629   8.855  11.075   0.466 -0.3567  0.4939 -1.5465
  899MOL0     H18630   9.027  11.317   0.509  1.6440 -1.2868 -2.4860
  899MOL0     H18631   8.979  11.564   0.549 -0.2888  0.6580  0.7619
  899MOL0     H18632   8.548  11.955   0.472 -1.0528  2.1367  2.9586
  899MOL0     H18633   8.538  12.208   0.412 -0.8230  0.2221  0.1951
  899MOL0     H18634   8.741  12.426   0.101  0.3099  4.6552  0.2369
  899MOL0     H18635   8.785  12.343   0.246 -1.0426 -1.2605 -0.4438
  899MOL0     H18636   8.736  12.604   0.250 -1.5761  1.6704  0.6911
  899MOL0     H18637   8.688  12.513   0.382  1.2963 -0.4681 -0.0585
  899MOL0     H18638   8.443  12.512   0.280 -0.2747 -0.1699 -0.6434
  899MOL0     H18639   8.503  12.556   0.133 -0.1860  0.3156 -0.1147
  899MOL0     H18640   8.486  12.727   0.386 -0.8372  2.4081 -0.4592
  899MOL0     H18641   8.570  12.782   0.241 -0.1804  1.0066 -1.0531
  899MOL0     H18642   8.276  12.711   0.265 -2.2459  2.8293 -1.3448
  899MOL0     H18643   8.344  12.763   0.116 -2.2867  0.9851 -0.4282
  899MOL0     H18644   8.423  12.980   0.248 -1.1192  3.3335  3.0828
  899MOL0     H18645   8.337  12.928   0.376  2.3218  2.4812  0.2898
  899MOL0     H18646   8.191  13.057   0.288  0.9609  1.2567 -0.1547
  899MOL0     H18647   8.246  13.044   0.119  1.2817  0.2921  0.6174
  899MOL0     H18648   8.079  12.835   0.273  0.7761 -1.8554 -1.0282
  899MOL0     H18649   8.123  12.825   0.110  2.4865  0.8009 -0.0554
  899MOL0     H18650   8.745  12.128   0.054  3.9032 -2.3204  1.2218
  899MOL0     H18651   8.782  11.895   0.108 -2.8250  0.3934 -2.5704
  899MOL0     H18652   8.716  11.570   0.207 -0.1752 -0.4014 -0.1227
  899MOL0     H18653   8.768  11.328   0.174  0.8502  2.2619 -2.3376
  899MOL0     H18654   7.791  10.769   0.503  0.0266 -0.6005  0.3162
  899MOL0     H18655   7.699  10.930   0.659  0.7864 -1.9134 -0.6942
  899MOL0     H18656   7.390  11.371   0.596  1.1310 -0.7951 -0.0554
  899MOL0     H18657   7.228  11.517   0.683  0.3803 -0.3927 -0.4566
  899MOL0     H18658   6.993  11.518   0.842  0.0439 -2.2051  3.4611
  899MOL0     H18659   7.108  11.653   0.814 -0.6641 -2.9919 -3.1555
  899MOL0     H18660   6.923  11.735   0.902  3.1355 -0.9839 -3.9807
  899MOL0     H18661   6.899  11.620   1.026  0.0893  1.3129 -0.3458
  899MOL0     H18662   7.132  11.827   1.026  0.0033 -1.0991 -0.4784
  899MOL0     H18663   7.126  11.698   1.142 -1.2363  0.5861  1.2557
  899MOL0     H18664   6.905  11.806   1.237 -0.7142  3.4613  0.6221
  899MOL0     H18665   7.035  11.920   1.223 -1.4610  1.5104  1.9733
  899MOL0     H18666   6.775  12.080   0.935 -2.0874  0.3456  1.6752
  899MOL0     H18667   7.327  11.375   1.079 -0.0732  1.8165  0.1125
  899MOL0     H18668   7.500  11.234   0.993 -1.9404  2.2785  3.4479
  900MOL0     O18669  10.421   8.289   9.874 -0.8985 -0.4969  0.1142
  900MOL0     C18670  10.512   8.355   9.834  0.5290  0.2304  0.0061
  900MOL0     O18671  10.556   8.347   9.704  0.3824 -0.6693 -0.1274
  900MOL0     C18672  10.492   8.251   9.622  0.3269  0.8247  0.2946
  900MOL0     C18673  10.563   8.152   9.559  0.0557  0.0201  0.0843
  900MOL0     C18674  10.506   8.050   9.481  0.8458 -0.2431 -0.7187
  900MOL0     C18675  10.368   8.045   9.467  0.1927  1.9534 -0.3740
  900MOL0     O18676  10.301   7.953   9.391 -0.7334 -0.3107 -0.8170
  900MOL0     C18677  10.360   7.827   9.385  0.5728  0.3428 -0.6636
  900MOL0     C18678  10.396   7.777   9.237 -0.0469  0.0931  0.3015
  900MOL0     C18679  10.507   7.674   9.251 -0.3529  0.2611 -0.2389
  900MOL0     C18680  10.581   7.643   9.107  0.2249  0.1842  0.8158
  900MOL0     C18681  10.622   7.762   9.025 -0.6560  0.2060 -0.2331
  900MOL0     C18682  10.706   7.732   8.895  0.3519 -0.3582 -0.3600
  900MOL0     C18683  10.768   7.853   8.823 -0.5598 -0.4761 -0.0318
  900MOL0     C18684  10.774   7.833   8.667 -0.7138  0.4660  0.3054
  900MOL0     N18685  10.883   7.749   8.621 -0.0169 -0.4323 -0.0147
  900MOL0     C18686  10.869   7.618   8.592 -0.1296  0.1525 -0.3750
  900MOL0     C18687  10.984   7.568   8.543 -0.0909 -0.4087 -0.1891
  900MOL0     C18688  10.994   7.423   8.504  0.4316 -0.2477 -0.1877
  900MOL0     C18689  11.053   7.413   8.359 -0.1711  0.5621 -1.1170
  900MOL0     C18690  10.979   7.501   8.262  0.4210 -0.5490 -0.4152
  900MOL0     C18691  10.966   7.454   8.117  0.2016  0.4387 -1.1857
  900MOL0     O18692  11.093   7.437   8.065  0.5218  0.6521 -0.1462
  900MOL0     C18693  11.101   7.354   7.949  0.0751 -0.2219  0.0637
  900MOL0     C18694  10.988   7.292   7.890  0.0956 -0.9890  1.2109
  900MOL0     C18695  11.005   7.213   7.775  0.8517 -0.2585  0.0041
  900MOL0     C18696  11.131   7.180   7.727 -1.2872  0.4114 -0.1014
  900MOL0     C18697  11.139   7.093   7.605  0.4075  0.6458 -0.4030
  900MOL0     O18698  11.275   7.047   7.587  0.1522  0.3247  0.4148
  900MOL0     C18699  11.312   6.944   7.500 -0.6474 -0.4669  0.2839
  900MOL0     C18700  11.238   6.822   7.494 -0.6878 -0.6519  0.7589
  900MOL0     C18701  11.284   6.736   7.393  0.9671 -1.1345 -0.3185
  900MOL0     C18702  11.400   6.763   7.319 -0.5495 -0.3887  0.4191
  900MOL0     O18703  11.437   6.655   7.237 -0.5998 -0.2133  0.4397
  900MOL0     C18704  11.570   6.653   7.179  0.6188  0.4077 -0.2115
  900MOL0     C18705  11.590   6.526   7.088 -0.4938 -0.5889 -0.3411
  900MOL0     C18706  11.659   6.410   7.170  1.2921 -0.1841 -0.3169
  900MOL0     C18707  11.632   6.269   7.101 -0.4796 -0.6839 -0.0165
  900MOL0     C18708  11.712   6.163   7.174 -0.3526 -0.0941  0.0756
  900MOL0     C18709  11.718   6.025   7.127  0.4149  0.6505  0.6665
  900MOL0     C18710  11.605   5.934   7.135 -0.2438 -0.2043 -1.0206
  900MOL0     C18711  11.642   5.798   7.080 -0.0609  0.0825  0.5831
  900MOL0    Cl18712  11.733   5.707   7.211 -0.0953 -0.1714  0.0161
  900MOL0     C18713  11.482   6.873   7.338  0.3455  0.2629  0.4874
  900MOL0     C18714  11.430   6.972   7.424 -0.1176  0.2261  0.5662
  900MOL0     O18715  11.040   7.069   7.535  0.1439  0.5519 -0.2175
  900MOL0     C18716  11.247   7.229   7.798  0.2572 -0.5500  0.2798
  900MOL0     C18717  11.230   7.322   7.900 -0.0288 -0.5670 -0.0831
  900MOL0     N18718  11.080   7.669   8.549 -0.6520 -0.6805  0.7567
  900MOL0     N18719  11.024   7.772   8.596  0.4279 -1.4339  0.2524
  900MOL0     C18720  10.287   8.144   9.523  0.7785  0.9268  0.1242
  900MOL0     C18721  10.352   8.246   9.599 -0.2014 -0.0640  0.8404
  900MOL0     C18722  10.585   8.446   9.919 -0.3744 -0.1528 -1.4331
  900MOL0     C18723  10.567   8.433  10.060 -0.0282 -0.3026  0.4230
  900MOL0     C18724  10.630   8.521  10.151  0.2511 -0.6486  0.1385
  900MOL0     C18725  10.723   8.621  10.104  0.5421 -0.6992  0.4183
  900MOL0     O18726  10.801   8.695  10.200  0.1804 -0.4638  0.0297
  900MOL0     C18727  10.836   8.828  10.157 -0.4654  0.2413 -0.4265
  900MOL0     C18728  10.886   8.910  10.276  0.2977 -0.1931  0.0871
  900MOL0     C18729  10.763   8.930  10.365 -0.2300 -0.5555 -0.2585
  900MOL0     C18730  10.789   9.056  10.457  0.3662 -0.7869 -0.8827
  900MOL0     C18731  10.688   9.068  10.562  1.8258  0.1626  0.4435
  900MOL0     C18732  10.598   9.065  10.639  1.1567  0.4044 -0.0604
  900MOL0     C18733  10.740   8.639   9.962  0.0185 -0.4198 -1.0070
  900MOL0     C18734  10.670   8.552   9.877 -0.2381 -0.9981  0.5666
  900MOL0     H18735  10.670   8.151   9.578  0.1178  1.5719 -0.0182
  900MOL0     H18736  10.576   7.983   9.432 -0.6073 -1.4102 -1.2292
  900MOL0     H18737  10.276   7.759   9.398 -0.7127  1.5366 -2.2771
  900MOL0     H18738  10.439   7.809   9.458 -1.4674 -0.4617  1.4523
  900MOL0     H18739  10.420   7.870   9.185 -0.0056  0.6036  1.2182
  900MOL0     H18740  10.311   7.723   9.195  2.2166 -3.0219 -0.6787
  900MOL0     H18741  10.478   7.584   9.306  2.5212  0.8998  2.6152
  900MOL0     H18742  10.585   7.715   9.316  0.7552  0.5217 -1.6647
  900MOL0     H18743  10.670   7.584   9.133 -0.4855 -0.2803  2.3373
  900MOL0     H18744  10.518   7.581   9.043  2.2262 -1.9171  0.7374
  900MOL0     H18745  10.690   7.818   9.089  2.7595 -2.2755 -1.4317
  900MOL0     H18746  10.535   7.816   8.986  0.0618  0.1305 -2.0444
  900MOL0     H18747  10.643   7.688   8.818 -1.1438  1.6100 -0.3231
  900MOL0     H18748  10.785   7.658   8.912  0.6194 -0.1291 -0.5866
  900MOL0     H18749  10.720   7.948   8.846 -0.7247 -0.9744  1.8585
  900MOL0     H18750  10.869   7.858   8.864  0.0022  0.1844 -1.4360
  900MOL0     H18751  10.786   7.933   8.624 -1.3472 -0.0159 -1.0384
  900MOL0     H18752  10.680   7.802   8.622 -0.5757  1.3446 -0.6255
  900MOL0     H18753  10.786   7.549   8.604 -0.5420 -0.4012 -4.8593
  900MOL0     H18754  10.893   7.381   8.497  0.7092 -1.3008  1.6238
  900MOL0     H18755  11.049   7.359   8.574 -1.0722 -3.3112 -1.5672
  900MOL0     H18756  11.054   7.315   8.310 -1.9496  0.5226 -1.1349
  900MOL0     H18757  11.157   7.444   8.377  0.5924 -2.0746 -0.5422
  900MOL0     H18758  10.879   7.514   8.306  1.1908 -0.9219  1.5181
  900MOL0     H18759  11.009   7.606   8.260  0.2938 -0.4938  0.3468
  900MOL0     H18760  10.904   7.524   8.060  1.8109  2.1230 -0.9634
  900MOL0     H18761  10.914   7.358   8.127  0.0953  0.3630 -2.3006
  900MOL0     H18762  10.885   7.306   7.920 -0.4387  1.1368 -1.2215
  900MOL0     H18763  10.920   7.170   7.723  0.2999  1.8221 -0.9116
  900MOL0     H18764  11.149   6.819   7.557 -1.3014 -1.1227 -0.1076
  900MOL0     H18765  11.222   6.655   7.358  0.3438 -1.3075  1.1203
  900MOL0     H18766  11.631   6.663   7.270  0.1809  2.2133 -0.0667
  900MOL0     H18767  11.580   6.741   7.114  0.6887  0.2898 -0.3602
  900MOL0     H18768  11.654   6.552   7.003  0.3979 -0.2328  0.4288
  900MOL0     H18769  11.492   6.492   7.053 -0.4021 -2.0364  0.7059
  900MOL0     H18770  11.610   6.408   7.268  0.3251  0.9452 -0.7382
  900MOL0     H18771  11.766   6.423   7.186  1.5576 -1.7190 -0.6844
  900MOL0     H18772  11.523   6.258   7.107 -0.4715 -0.1795  1.6286
  900MOL0     H18773  11.664   6.258   6.997 -1.5046 -0.7183 -0.3387
  900MOL0     H18774  11.689   6.154   7.280 -0.2424 -2.8829 -0.0459
  900MOL0     H18775  11.817   6.195   7.170  0.2331 -1.0011  4.1811
  900MOL0     H18776  11.797   5.963   7.171 -0.5679 -2.6547 -1.7543
  900MOL0     H18777  11.745   6.023   7.020  1.8584 -0.1543  1.0087
  900MOL0     H18778  11.582   5.925   7.241 -0.5951  2.5171 -0.7925
  900MOL0     H18779  11.521   5.969   7.074 -1.8487 -1.5414  0.3476
  900MOL0     H18780  11.709   5.802   6.994  1.7909  0.3064  1.9710
  900MOL0     H18781  11.553   5.741   7.051 -0.1687  1.2066 -1.4413
  900MOL0     H18782  11.571   6.902   7.283 -0.8806 -1.2650 -2.5832
  900MOL0     H18783  11.476   7.070   7.430 -3.0343  1.7159  0.8309
  900MOL0     H18784  11.343   7.226   7.746  0.2224  2.3271 -0.0894
  900MOL0     H18785  11.308   7.376   7.952  0.4224 -0.7589 -0.5566
  900MOL0     H18786  10.180   8.134   9.509  1.0836 -2.6776 -0.3741
  900MOL0     H18787  10.297   8.325   9.650  2.0958  0.7422  2.2532
  900MOL0     H18788  10.485   8.370  10.090 -0.9781 -0.5283 -2.3892
  900MOL0     H18789  10.611   8.514  10.257 -0.9535 -0.2442 -0.0396
  900MOL0     H18790  10.765   8.888  10.100  1.2640  0.3193 -2.6170
  900MOL0     H18791  10.924   8.810  10.095  1.5366  0.6694  2.1223
  900MOL0     H18792  10.965   8.855  10.328  0.3183 -1.2428 -0.9855
  900MOL0     H18793  10.926   9.005  10.241  0.4810 -0.5082 -0.5798
  900MOL0     H18794  10.746   8.833  10.414 -3.4516  0.3982  0.8110
  900MOL0     H18795  10.668   8.956  10.317 -0.1548 -2.8403 -1.8195
  900MOL0     H18796  10.882   9.051  10.514 -1.4906  2.1242  2.8935
  900MOL0     H18797  10.793   9.146  10.394 -2.4516 -0.6368 -0.9801
  900MOL0     H18798  10.520   9.054  10.712  3.2375 -0.9090  2.1285
  900MOL0     H18799  10.814   8.709   9.926 -0.6431  0.0001 -1.5930
  900MOL0     H18800  10.677   8.566   9.770 -0.3939  0.4702  0.7217
  901MOL0     O18801   3.954   1.370   8.620  0.1696 -0.0519 -0.6322
  901MOL0     C18802   3.851   1.374   8.557  0.4287  0.2073  0.2296
  901MOL0     O18803   3.757   1.472   8.557  0.0150 -0.2702 -0.6152
  901MOL0     C18804   3.760   1.569   8.657 -0.2243  0.2980 -0.5228
  901MOL0     C18805   3.817   1.547   8.788 -0.0926 -0.2361  0.7324
  901MOL0     C18806   3.791   1.639   8.894 -0.6731 -0.3565  0.1504
  901MOL0     C18807   3.713   1.755   8.865 -0.0340 -0.6245 -0.0819
  901MOL0     O18808   3.691   1.844   8.962 -0.3974  0.1336 -0.6011
  901MOL0     C18809   3.791   1.956   8.965  0.6412 -0.4589  0.1718
  901MOL0     C18810   3.706   2.087   8.984  0.4194  0.0016 -1.1113
  901MOL0     C18811   3.800   2.200   9.008  0.0645 -0.9822  0.3846
  901MOL0     C18812   3.729   2.339   9.033 -0.2820 -0.2838  1.3504
  901MOL0     C18813   3.831   2.448   9.086 -0.4036 -0.4118 -0.3453
  901MOL0     C18814   3.752   2.589   9.095 -0.0686 -0.1327 -0.4108
  901MOL0     C18815   3.800   2.663   9.226  0.5949 -0.3914  0.5354
  901MOL0     C18816   3.743   2.810   9.219 -0.4592 -0.0403 -0.7006
  901MOL0     N18817   3.736   2.892   9.344  0.2980  0.9273 -0.1029
  901MOL0     C18818   3.838   2.892   9.427 -0.9106  0.0173 -0.7802
  901MOL0     C18819   3.798   2.981   9.528 -0.2023 -0.5913  0.2647
  901MOL0     C18820   3.897   3.040   9.629 -0.1115  0.1875  0.4278
  901MOL0     C18821   3.929   2.936   9.740 -0.3932  0.8681  0.0354
  901MOL0     C18822   4.004   3.012   9.850 -0.9693 -0.1412 -0.0626
  901MOL0     C18823   4.044   2.925   9.974 -0.2246 -0.8450  0.2882
  901MOL0     O18824   4.144   2.996  10.050 -1.0809 -0.1827  0.3451
  901MOL0     C18825   4.203   2.936  10.160 -1.1328 -0.0291  0.2919
  901MOL0     C18826   4.226   3.017  10.268  0.1385 -0.1938 -0.9630
  901MOL0     C18827   4.292   2.966  10.377  0.1092  0.2510 -0.2278
  901MOL0     C18828   4.322   2.824  10.384 -0.0557 -0.4080 -0.0849
  901MOL0     C18829   4.365   2.758  10.510  0.6862 -0.9213 -0.6513
  901MOL0     O18830   4.418   2.629  10.499 -0.2483  0.3555 -0.4763
  901MOL0     C18831   4.449   2.559  10.610  0.7008 -0.3999  0.0638
  901MOL0     C18832   4.558   2.483  10.608 -0.4101  0.0354 -0.1137
  901MOL0     C18833   4.602   2.411  10.717  0.2890  0.5022  0.4629
  901MOL0     C18834   4.529   2.408  10.834 -0.1363  0.0407 -0.4194
  901MOL0     O18835   4.571   2.333  10.943 -0.0678 -1.1005  0.0858
  901MOL0     C18836   4.703   2.283  10.966 -0.1050 -0.1270 -0.0099
  901MOL0     C18837   4.724   2.224  11.105 -0.8282 -0.3491  0.0907
  901MOL0     C18838   4.705   2.336  11.216 -0.2282 -0.6725 -0.7117
  901MOL0     C18839   4.722   2.285  11.370  0.4058 -0.4155  0.1613
  901MOL0     C18840   4.733   2.393  11.472 -0.2715 -0.1423 -0.4740
  901MOL0     C18841   4.870   2.447  11.474  1.1767  0.2167  0.6349
  901MOL0     C18842   4.912   2.532  11.595  0.0555  0.2877  0.6545
  901MOL0     C18843   4.821   2.645  11.630  0.5613 -1.0787  0.5369
  901MOL0    Cl18844   4.803   2.759  11.494 -0.0764 -0.0453  0.0672
  901MOL0     C18845   4.419   2.492  10.840  0.2410 -0.8668  0.5028
  901MOL0     C18846   4.377   2.565  10.728 -0.6148  1.3413 -0.8803
  901MOL0     O18847   4.366   2.837  10.610  0.5025  0.3589 -0.1024
  901MOL0     C18848   4.310   2.750  10.272  0.5699 -0.0304  0.1366
  901MOL0     C18849   4.249   2.798  10.157  0.3475 -0.1747  0.4121
  901MOL0     N18850   3.665   3.017   9.499 -0.6500  0.2704  0.1503
  901MOL0     N18851   3.631   2.954   9.392  0.0674 -0.3122 -0.6794
  901MOL0     C18852   3.658   1.776   8.741  0.0441 -0.6613  1.2793
  901MOL0     C18853   3.686   1.687   8.632  0.5293 -0.0210  0.9562
  901MOL0     C18854   3.833   1.269   8.451 -0.1660 -0.4719  0.1552
  901MOL0     C18855   3.707   1.217   8.425 -0.2331  0.4819 -0.3910
  901MOL0     C18856   3.677   1.128   8.323 -0.5942 -0.5070 -0.1680
  901MOL0     C18857   3.775   1.083   8.237 -0.4899 -0.0413 -0.2921
  901MOL0     O18858   3.761   0.993   8.133  0.3610  0.1981 -0.0625
  901MOL0     C18859   3.638   0.910   8.139 -0.0300  0.5481  0.0424
  901MOL0     C18860   3.512   0.974   8.080 -0.7450  0.2784 -0.4579
  901MOL0     C18861   3.386   0.903   8.129  0.5716  0.4908 -1.1706
  901MOL0     C18862   3.259   0.956   8.068  0.6022 -0.8161  0.7776
  901MOL0     C18863   3.205   1.079   8.127 -0.2304 -0.9985 -0.3955
  901MOL0     C18864   3.169   1.186   8.177 -0.3443 -0.9286  0.1626
  901MOL0     C18865   3.912   1.126   8.259 -0.7485  0.6408 -0.1047
  901MOL0     C18866   3.936   1.222   8.368  0.0530  0.3462  1.2332
  901MOL0     H18867   3.861   1.452   8.814 -4.0036 -2.5718 -0.3572
  901MOL0     H18868   3.828   1.622   8.995  2.4189  3.4239 -0.0854
  901MOL0     H18869   3.852   1.952   8.875  0.8197 -4.8574  0.3184
  901MOL0     H18870   3.847   1.946   9.059 -1.7447  1.4364  1.9223
  901MOL0     H18871   3.643   2.090   9.073 -0.0665  0.2401 -1.4626
  901MOL0     H18872   3.644   2.101   8.895  0.2277  2.9784 -0.6057
  901MOL0     H18873   3.863   2.223   8.922 -0.5778  0.4265  0.2660
  901MOL0     H18874   3.857   2.165   9.095 -2.0534 -3.1376  1.0200
  901MOL0     H18875   3.680   2.378   8.944  0.4100  3.7702  2.5597
  901MOL0     H18876   3.651   2.324   9.107  1.1580  0.0758  3.0040
  901MOL0     H18877   3.920   2.455   9.023 -0.1834  0.9120  0.0898
  901MOL0     H18878   3.868   2.421   9.185  1.0405 -1.9480 -1.2456
  901MOL0     H18879   3.645   2.564   9.099  0.3711 -2.1640 -0.0055
  901MOL0     H18880   3.774   2.653   9.009 -1.4399  0.2231 -0.5237
  901MOL0     H18881   3.764   2.615   9.317  1.0028  2.5577  2.4007
  901MOL0     H18882   3.909   2.661   9.240  0.3967 -2.6366  2.2787
  901MOL0     H18883   3.642   2.816   9.177  0.5025  3.8614 -2.9257
  901MOL0     H18884   3.806   2.868   9.152  1.2518 -0.6890  0.2765
  901MOL0     H18885   3.932   2.837   9.422  0.5328  2.3591 -0.6673
  901MOL0     H18886   3.865   3.131   9.681 -0.3667 -0.5027  1.5120
  901MOL0     H18887   3.985   3.081   9.578 -0.4836 -0.3024 -0.6307
  901MOL0     H18888   3.996   2.853   9.714  0.8556  0.6073  3.4632
  901MOL0     H18889   3.837   2.893   9.781  0.4528 -1.8653 -0.6828
  901MOL0     H18890   4.096   3.054   9.808 -0.9640 -1.5930 -1.6027
  901MOL0     H18891   3.943   3.094   9.888  0.9023  1.7580 -0.9342
  901MOL0     H18892   4.085   2.827   9.949  2.0896 -0.5014  2.3437
  901MOL0     H18893   3.952   2.908  10.032  0.2970 -4.1806  0.3585
  901MOL0     H18894   4.181   3.115  10.261 -2.5150 -1.2680 -0.1179
  901MOL0     H18895   4.305   3.019  10.471 -2.1947 -1.1980  1.0178
  901MOL0     H18896   4.621   2.476  10.520  4.9434  1.8841  3.0785
  901MOL0     H18897   4.702   2.370  10.707 -0.5208 -1.2893 -0.6852
  901MOL0     H18898   4.774   2.363  10.944  0.8604 -0.6992  0.9345
  901MOL0     H18899   4.722   2.207  10.890  1.3945  3.0553 -3.0892
  901MOL0     H18900   4.825   2.184  11.119 -1.4935 -1.3006  2.7995
  901MOL0     H18901   4.660   2.141  11.139  1.6605 -2.0377  0.9719
  901MOL0     H18902   4.607   2.382  11.203  0.5406  0.7235 -1.8948
  901MOL0     H18903   4.775   2.419  11.202 -0.6253  1.1600  5.4276
  901MOL0     H18904   4.629   2.231  11.388 -0.4637  1.3053  1.0897
  901MOL0     H18905   4.806   2.215  11.361  3.6735  3.3168 -1.8102
  901MOL0     H18906   4.709   2.353  11.571 -2.2355 -0.2851 -0.9641
  901MOL0     H18907   4.665   2.473  11.439 -0.9346 -0.6705 -0.4224
  901MOL0     H18908   4.876   2.512  11.386 -1.6584 -0.3066 -0.0542
  901MOL0     H18909   4.946   2.371  11.456 -0.0834 -1.0805  0.5684
  901MOL0     H18910   4.924   2.466  11.681  0.0610 -1.6317 -0.7417
  901MOL0     H18911   5.005   2.583  11.568 -0.0682  1.9832  3.1421
  901MOL0     H18912   4.854   2.696  11.721  0.0610 -0.0228  0.1539
  901MOL0     H18913   4.720   2.611  11.654 -1.5476  3.3174 -0.9694
  901MOL0     H18914   4.348   2.496  10.922 -0.2444  0.4527  0.0299
  901MOL0     H18915   4.290   2.630  10.722 -3.5147 -2.0362  0.7711
  901MOL0     H18916   4.332   2.643  10.269  1.7172  0.1976 -0.6089
  901MOL0     H18917   4.237   2.726  10.076 -1.2044 -0.4199  0.8208
  901MOL0     H18918   3.591   1.858   8.717 -2.1491 -2.3887  1.1514
  901MOL0     H18919   3.641   1.689   8.533  0.9142  1.7828  0.7899
  901MOL0     H18920   3.626   1.249   8.490  1.2716  0.6791  1.4523
  901MOL0     H18921   3.572   1.102   8.311 -0.7772  0.3880 -0.5775
  901MOL0     H18922   3.621   0.872   8.240  0.6772  0.2707  0.0601
  901MOL0     H18923   3.657   0.826   8.072 -0.0358  0.4790  0.1284
  901MOL0     H18924   3.522   1.079   8.108  1.8169  0.5932 -2.2599
  901MOL0     H18925   3.521   0.971   7.971  2.7800  2.7803 -0.3944
  901MOL0     H18926   3.385   0.883   8.237 -1.0428 -2.9886 -1.6811
  901MOL0     H18927   3.388   0.802   8.087 -0.9647  1.6106 -4.1814
  901MOL0     H18928   3.271   0.984   7.963 -0.8069 -3.4452 -0.1654
  901MOL0     H18929   3.183   0.878   8.063  0.2225 -0.4536 -4.2660
  901MOL0     H18930   3.133   1.265   8.238  2.5220  2.3842 -2.0211
  901MOL0     H18931   3.998   1.107   8.196 -1.1950 -0.2718 -0.4646
  901MOL0     H18932   4.029   1.277   8.378  3.1414 -3.6264 -2.1497
  902MOL0     O18933   3.666   6.316   8.737  0.9022  0.7790  0.3309
  902MOL0     C18934   3.639   6.245   8.831 -0.6149 -0.1488 -0.4809
  902MOL0     O18935   3.628   6.291   8.960  0.4230  0.7723  0.2460
  902MOL0     C18936   3.646   6.424   8.997  0.0024  0.2017  0.0538
  902MOL0     C18937   3.705   6.452   9.121  0.4506  0.5536 -0.3712
  902MOL0     C18938   3.707   6.590   9.172  0.6972  0.9044 -0.8859
  902MOL0     C18939   3.657   6.688   9.099 -0.5482 -0.1389 -0.9927
  902MOL0     O18940   3.694   6.819   9.134  0.5877 -0.8018 -0.4532
  902MOL0     C18941   3.732   6.908   9.026  0.1600  0.6306 -0.0087
  902MOL0     C18942   3.798   7.017   9.084  0.0965 -0.4575 -0.0048
  902MOL0     C18943   3.838   7.112   8.978 -0.2793  0.7181  0.0144
  902MOL0     C18944   3.913   7.235   9.042  0.2615 -0.3017  0.6501
  902MOL0     C18945   4.058   7.195   9.091 -0.2213 -0.8651  0.0548
  902MOL0     C18946   4.140   7.318   9.148 -0.3688 -0.2098  0.5927
  902MOL0     C18947   4.268   7.268   9.222 -0.0716  0.2430 -0.0395
  902MOL0     C18948   4.334   7.373   9.314  0.6715 -0.2482 -0.1193
  902MOL0     N18949   4.473   7.336   9.346  0.2784  1.3197 -0.2258
  902MOL0     C18950   4.568   7.294   9.261 -0.6180 -1.3071 -0.7097
  902MOL0     C18951   4.669   7.265   9.348 -0.0698 -0.0696 -0.0303
  902MOL0     C18952   4.808   7.248   9.312 -0.6080  1.2572  0.1832
  902MOL0     C18953   4.874   7.394   9.344 -0.4241  0.6857  1.0247
  902MOL0     C18954   5.012   7.391   9.316 -0.5213  0.4408 -0.1267
  902MOL0     C18955   5.106   7.365   9.438  0.6150 -0.4349  0.3931
  902MOL0     O18956   5.234   7.302   9.401  0.1331  1.3233 -0.2467
  902MOL0     C18957   5.318   7.279   9.503 -0.6047  1.2377  0.1085
  902MOL0     C18958   5.396   7.170   9.493 -0.0660 -0.1391 -0.5006
  902MOL0     C18959   5.504   7.140   9.573  0.3357  0.2063 -0.1595
  902MOL0     C18960   5.556   7.249   9.656  0.6827 -0.2034 -0.2456
  902MOL0     C18961   5.684   7.237   9.735 -0.0312 -0.5166 -0.2294
  902MOL0     O18962   5.722   7.113   9.766 -0.3832  0.4683  0.1720
  902MOL0     C18963   5.833   7.095   9.842  0.3062  0.2438 -0.0285
  902MOL0     C18964   5.943   7.031   9.766 -0.4580  0.7575  0.3674
  902MOL0     C18965   6.066   7.009   9.825  0.0453  0.1325  0.5304
  902MOL0     C18966   6.085   7.040   9.957  0.2128  0.1525  1.2008
  902MOL0     O18967   6.190   7.004  10.034  0.0684 -0.2417 -0.0457
  902MOL0     C18968   6.327   7.028   9.986  1.0282  0.4658 -0.8572
  902MOL0     C18969   6.412   7.065  10.106 -0.3205  0.1014  0.1794
  902MOL0     C18970   6.356   7.201  10.151  0.8121  0.3026  0.0545
  902MOL0     C18971   6.442   7.255  10.263 -0.2516  1.0918  0.1828
  902MOL0     C18972   6.363   7.375  10.322  0.0907 -0.2530 -0.0340
  902MOL0     C18973   6.417   7.437  10.449 -0.1082 -0.4484 -0.0690
  902MOL0     C18974   6.324   7.534  10.507 -0.4676  0.2626 -0.3078
  902MOL0     C18975   6.373   7.629  10.615  0.8596 -0.3860  0.9802
  902MOL0    Cl18976   6.472   7.551  10.738  0.4867  0.3943  0.3527
  902MOL0     C18977   5.973   7.094  10.029 -0.1447 -0.0340 -0.8915
  902MOL0     C18978   5.846   7.132   9.980  0.2784 -0.4349 -0.0611
  902MOL0     O18979   5.736   7.343   9.766 -0.2399 -0.0855  0.2489
  902MOL0     C18980   5.474   7.355   9.679  0.0443 -0.5500  0.2882
  902MOL0     C18981   5.354   7.378   9.602  0.5163 -0.6536 -0.0223
  902MOL0     N18982   4.623   7.267   9.483  0.2452  0.4081  0.8989
  902MOL0     N18983   4.512   7.321   9.477  0.5651  0.3820 -0.0775
  902MOL0     C18984   3.586   6.663   8.978  0.7920 -0.5774 -0.1963
  902MOL0     C18985   3.587   6.531   8.925  0.0417 -0.7957  0.3920
  902MOL0     C18986   3.605   6.100   8.809  0.1634 -0.5664 -0.0949
  902MOL0     C18987   3.581   6.060   8.674  0.5213  0.8958 -0.5105
  902MOL0     C18988   3.546   5.926   8.656 -0.7336 -0.8285  0.3259
  902MOL0     C18989   3.526   5.841   8.764  0.5110  0.0259  0.7376
  902MOL0     O18990   3.477   5.721   8.731 -0.5209 -0.4869  0.3911
  902MOL0     C18991   3.561   5.607   8.767 -1.1322 -0.7328  1.2781
  902MOL0     C18992   3.540   5.490   8.677 -0.9466 -0.5109 -0.7531
  902MOL0     C18993   3.565   5.520   8.525 -0.5070  0.2588 -0.7451
  902MOL0     C18994   3.703   5.499   8.463 -0.0038 -0.3565  0.2462
  902MOL0     C18995   3.794   5.611   8.497  0.1035  0.7533 -0.5263
  902MOL0     C18996   3.851   5.711   8.541  0.4357  0.8337 -0.4467
  902MOL0     C18997   3.549   5.888   8.898 -0.0244  0.7186  0.5558
  902MOL0     C18998   3.598   6.016   8.919  0.1653 -1.4663 -0.6736
  902MOL0     H18999   3.746   6.372   9.181  2.0416  0.7759 -1.1038
  902MOL0     H19000   3.750   6.610   9.269  1.5682 -0.3342 -0.9962
  902MOL0     H19001   3.643   6.937   8.969  1.2277 -1.4154 -2.9934
  902MOL0     H19002   3.795   6.851   8.957  1.8065  1.6341  0.6088
  902MOL0     H19003   3.883   6.976   9.141 -0.3592  0.6933  1.5622
  902MOL0     H19004   3.736   7.070   9.157 -2.9974 -3.5751 -0.1150
  902MOL0     H19005   3.743   7.143   8.933 -0.7288 -1.8480 -0.9739
  902MOL0     H19006   3.902   7.068   8.901  0.8854  0.9742  0.8169
  902MOL0     H19007   3.929   7.311   8.965  2.9386  0.3386  1.7155
  902MOL0     H19008   3.843   7.271   9.118  0.1799 -0.4849  0.6627
  902MOL0     H19009   4.115   7.156   9.006 -0.0793 -0.2473 -0.1351
  902MOL0     H19010   4.047   7.114   9.164 -0.5095  1.2199  2.4460
  902MOL0     H19011   4.085   7.378   9.221 -1.5370 -3.4565  2.5817
  902MOL0     H19012   4.185   7.385   9.074 -0.9494  0.6062  0.9594
  902MOL0     H19013   4.245   7.184   9.288 -1.6342 -0.8822 -1.8770
  902MOL0     H19014   4.342   7.234   9.150  0.7893  3.7182 -1.0090
  902MOL0     H19015   4.271   7.376   9.403 -1.4404 -2.4136 -1.4074
  902MOL0     H19016   4.350   7.465   9.257 -1.0414 -1.1209 -2.1167
  902MOL0     H19017   4.576   7.309   9.154 -0.0872 -2.3178 -0.8249
  902MOL0     H19018   4.812   7.215   9.208  1.6729  1.3064  0.2061
  902MOL0     H19019   4.854   7.169   9.373  0.0078  1.0953 -0.4614
  902MOL0     H19020   4.852   7.445   9.438  1.7755 -1.4241  2.8013
  902MOL0     H19021   4.833   7.454   9.262 -0.5687 -0.2107  0.4271
  902MOL0     H19022   5.020   7.315   9.238  1.6260 -1.4215  1.7549
  902MOL0     H19023   5.029   7.496   9.292 -2.0813  1.1725  1.6848
  902MOL0     H19024   5.044   7.294   9.493  0.9186 -0.4987  0.6578
  902MOL0     H19025   5.113   7.453   9.503 -0.8693  1.3894 -1.7582
  902MOL0     H19026   5.359   7.093   9.425  0.1726 -1.7071  1.0696
  902MOL0     H19027   5.555   7.044   9.574 -1.4573 -0.7746  0.2691
  902MOL0     H19028   5.918   6.987   9.670  0.1746 -1.1244  1.0246
  902MOL0     H19029   6.149   6.967   9.769 -2.5405  0.5213 -4.1443
  902MOL0     H19030   6.322   7.102   9.905 -0.3663  2.1479  0.6979
  902MOL0     H19031   6.369   6.934   9.948  0.3988  0.1295 -0.7341
  902MOL0     H19032   6.516   7.070  10.072 -0.1881 -0.4470  0.4961
  902MOL0     H19033   6.394   6.992  10.185 -2.9748  0.7858  0.2982
  902MOL0     H19034   6.250   7.184  10.171  0.4392  0.8927 -1.3409
  902MOL0     H19035   6.349   7.277  10.073 -0.0135  3.1394  2.7098
  902MOL0     H19036   6.455   7.172  10.333 -1.3891  1.9433  1.4300
  902MOL0     H19037   6.540   7.279  10.220 -0.4765  0.8823 -0.4687
  902MOL0     H19038   6.262   7.336  10.334 -0.9921  0.4883 -4.7430
  902MOL0     H19039   6.351   7.439  10.234  0.1144 -1.0189 -0.6081
  902MOL0     H19040   6.512   7.485  10.423 -0.6880  1.2685  0.8487
  902MOL0     H19041   6.440   7.363  10.526  2.1832 -1.3669 -1.5306
  902MOL0     H19042   6.290   7.601  10.428  0.0034  0.1913 -0.5730
  902MOL0     H19043   6.234   7.488  10.547 -1.0661  2.1658  0.6799
  902MOL0     H19044   6.284   7.678  10.656  1.4828  0.7295  1.0419
  902MOL0     H19045   6.412   7.712  10.554 -2.5235 -1.1919 -2.7512
  902MOL0     H19046   5.982   7.130  10.131 -1.8947 -0.6045 -0.5054
  902MOL0     H19047   5.760   7.180  10.027 -2.0190 -0.1700 -4.0244
  902MOL0     H19048   5.519   7.419   9.754  4.9818 -1.0594 -1.9062
  902MOL0     H19049   5.296   7.468   9.622  0.0266 -1.4914  2.7039
  902MOL0     H19050   3.544   6.747   8.924  2.0733  1.6562  2.0474
  902MOL0     H19051   3.524   6.532   8.837 -2.7494  0.9690  2.2537
  902MOL0     H19052   3.592   6.117   8.583 -1.5521 -0.2949 -1.5646
  902MOL0     H19053   3.530   5.881   8.559  0.1310  0.8389 -0.6238
  902MOL0     H19054   3.536   5.576   8.869 -1.8727  2.2101  2.0752
  902MOL0     H19055   3.667   5.633   8.770 -1.3338  0.4470 -0.5290
  902MOL0     H19056   3.605   5.408   8.709  0.1155 -0.8013 -3.3414
  902MOL0     H19057   3.441   5.448   8.698 -0.3999 -1.7404 -0.5459
  902MOL0     H19058   3.539   5.626   8.512 -0.7343  1.2639  5.1133
  902MOL0     H19059   3.507   5.444   8.473 -1.3243  0.5734 -0.3174
  902MOL0     H19060   3.763   5.412   8.490  1.2736 -1.2013 -4.4421
  902MOL0     H19061   3.691   5.495   8.354 -2.4230  0.7644  0.4074
  902MOL0     H19062   3.900   5.793   8.590  0.9668  0.9741 -1.2085
  902MOL0     H19063   3.560   5.819   8.981 -0.4393  0.1073  0.1028
  902MOL0     H19064   3.617   6.046   9.021 -0.2659 -3.2150 -0.0537
  903MOL0     O19065   3.740   0.317   3.634 -0.1527 -0.2493 -0.6452
  903MOL0     C19066   3.699   0.430   3.661 -1.1883  0.2900  0.2621
  903MOL0     O19067   3.576   0.464   3.715 -0.2311  0.4598  0.7348
  903MOL0     C19068   3.475   0.368   3.702 -0.1167  0.2472  0.4949
  903MOL0     C19069   3.411   0.352   3.585 -0.4918 -0.8805 -0.0474
  903MOL0     C19070   3.305   0.268   3.574 -0.1560 -0.9078  0.7683
  903MOL0     C19071   3.254   0.193   3.675 -0.2083  0.7688  0.0346
  903MOL0     O19072   3.147   0.108   3.656  0.0142 -0.4328  0.3027
  903MOL0     C19073   3.153  -0.024   3.715  0.1025  0.3754 -0.5797
  903MOL0     C19074   3.151  -0.130   3.605  0.6274 -0.6091 -0.6706
  903MOL0     C19075   3.264  -0.118   3.509  0.3453 -0.9672 -0.2687
  903MOL0     C19076   3.406  -0.110   3.569  0.4530  0.8510  0.1668
  903MOL0     C19077   3.514  -0.055   3.462 -0.5463 -0.1651  0.6554
  903MOL0     C19078   3.639  -0.025   3.546 -0.7325  0.3985  0.3611
  903MOL0     C19079   3.756   0.007   3.452  1.0351 -0.0625 -0.0522
  903MOL0     C19080   3.888  -0.003   3.515  0.9150  0.9651 -0.4629
  903MOL0     N19081   3.983  -0.068   3.421 -0.6759 -0.1778  0.3661
  903MOL0     C19082   4.084  -0.152   3.455 -1.1366 -0.1600 -0.0921
  903MOL0     C19083   4.170  -0.164   3.346 -0.9126 -0.1977  0.1755
  903MOL0     C19084   4.295  -0.246   3.348 -0.4868  0.3406 -0.7187
  903MOL0     C19085   4.340  -0.310   3.484  0.1027 -0.6021  0.1044
  903MOL0     C19086   4.387  -0.453   3.466  0.6154 -0.5750 -0.2109
  903MOL0     C19087   4.448  -0.488   3.593 -0.5652  1.3574 -0.7518
  903MOL0     O19088   4.451  -0.630   3.591 -0.5565  0.1770 -0.0811
  903MOL0     C19089   4.541  -0.680   3.676 -0.0532  0.1365 -0.0285
  903MOL0     C19090   4.510  -0.681   3.810  0.2282  0.7024  0.4650
  903MOL0     C19091   4.588  -0.740   3.911  0.0689  0.1698 -0.2610
  903MOL0     C19092   4.715  -0.797   3.875  0.3523  0.6378  0.1481
  903MOL0     C19093   4.796  -0.864   3.976  0.3841  0.5904  0.3682
  903MOL0     O19094   4.883  -0.958   3.930  0.1386  0.6577  0.4125
  903MOL0     C19095   4.976  -1.006   4.013 -0.0039 -0.3124 -0.3682
  903MOL0     C19096   5.102  -1.039   3.952  0.2041 -0.0728  0.3117
  903MOL0     C19097   5.203  -1.095   4.030  0.4555 -1.1786  0.1595
  903MOL0     C19098   5.170  -1.143   4.158  0.8238 -1.2745  0.6056
  903MOL0     O19099   5.273  -1.213   4.217  1.5382  0.1174  0.0284
  903MOL0     C19100   5.275  -1.248   4.360  0.0640 -0.0578  0.8610
  903MOL0     C19101   5.420  -1.304   4.392  0.5126 -0.5576  0.1821
  903MOL0     C19102   5.481  -1.256   4.524 -0.1563 -0.1237 -0.1470
  903MOL0     C19103   5.620  -1.305   4.550 -0.3590  0.0231  0.3509
  903MOL0     C19104   5.678  -1.246   4.674  0.6635  0.0288  1.3586
  903MOL0     C19105   5.812  -1.310   4.727 -0.0264 -0.3757 -0.7240
  903MOL0     C19106   5.906  -1.213   4.787  0.0874 -1.5162 -0.2057
  903MOL0     C19107   5.827  -1.134   4.902 -0.7509  0.7967  0.3366
  903MOL0    Cl19108   5.935  -1.021   4.986  0.4070 -0.4469 -0.6636
  903MOL0     C19109   5.049  -1.114   4.219  0.0772  0.1251 -0.2450
  903MOL0     C19110   4.949  -1.043   4.147  0.9841 -0.8533  0.5704
  903MOL0     O19111   4.775  -0.834   4.093  0.0231  0.5824  0.3439
  903MOL0     C19112   4.744  -0.794   3.739  0.6765  0.4392  0.2979
  903MOL0     C19113   4.665  -0.738   3.638  0.5446 -0.3253 -0.1601
  903MOL0     N19114   4.128  -0.069   3.252  0.2953  0.9004  0.8700
  903MOL0     N19115   4.012  -0.033   3.295  0.5770 -0.1951 -0.5044
  903MOL0     C19116   3.315   0.214   3.798  0.0408  0.4022  0.9392
  903MOL0     C19117   3.429   0.292   3.813 -0.1302 -0.4532 -0.1830
  903MOL0     C19118   3.795   0.537   3.639  0.8594 -0.4992 -0.8313
  903MOL0     C19119   3.931   0.517   3.601 -0.2694  0.1399  0.3306
  903MOL0     C19120   4.026   0.620   3.590 -0.5432  0.6522 -0.0643
  903MOL0     C19121   3.994   0.750   3.627 -0.2436 -0.1491  0.1130
  903MOL0     O19122   4.096   0.844   3.632 -0.6263 -0.2121  0.7908
  903MOL0     C19123   4.072   0.966   3.709  0.0527  0.4431  0.4343
  903MOL0     C19124   4.200   1.035   3.727 -0.6159  0.6204  0.3754
  903MOL0     C19125   4.307   0.935   3.782  0.3587  0.1115 -0.0509
  903MOL0     C19126   4.427   0.995   3.848  0.0693  0.7353  0.4157
  903MOL0     C19127   4.393   1.095   3.945 -0.7156 -0.0980 -0.5461
  903MOL0     C19128   4.352   1.174   4.025  0.0508  0.3301 -0.3428
  903MOL0     C19129   3.858   0.776   3.652  0.0357 -0.1514 -0.2477
  903MOL0     C19130   3.762   0.670   3.664 -0.8766  0.3811 -1.0230
  903MOL0     H19131   3.460   0.401   3.502  1.8623 -1.8324  0.6781
  903MOL0     H19132   3.275   0.254   3.471  0.6198  2.3845 -0.0149
  903MOL0     H19133   3.064  -0.050   3.773  0.7206 -0.1330  0.1607
  903MOL0     H19134   3.234  -0.035   3.787 -1.5604  0.4745  1.3997
  903MOL0     H19135   3.062  -0.132   3.542  2.9841  0.2253 -4.2820
  903MOL0     H19136   3.167  -0.228   3.651  0.3713 -1.0545 -1.5111
  903MOL0     H19137   3.252  -0.033   3.442  1.4395 -1.9270 -1.7481
  903MOL0     H19138   3.257  -0.212   3.454  0.9252 -1.3285  0.2595
  903MOL0     H19139   3.411  -0.040   3.652  1.4545  0.0007  0.8532
  903MOL0     H19140   3.440  -0.208   3.605 -0.7086 -0.1015 -1.1935
  903MOL0     H19141   3.487   0.045   3.427  2.4148 -0.0827 -1.7758
  903MOL0     H19142   3.525  -0.116   3.373 -3.4401  0.0581  0.0411
  903MOL0     H19143   3.666  -0.120   3.594 -1.3336  0.3885  0.6829
  903MOL0     H19144   3.618   0.048   3.625  2.3403  2.1546 -0.2973
  903MOL0     H19145   3.748  -0.042   3.354 -0.4217  3.1377 -1.6922
  903MOL0     H19146   3.755   0.108   3.411  0.7380  0.1341  0.4400
  903MOL0     H19147   3.888  -0.072   3.601 -0.8955  0.8363 -0.5384
  903MOL0     H19148   3.917   0.096   3.551 -0.7656  1.1311  0.5329
  903MOL0     H19149   4.084  -0.214   3.544 -1.7988  1.2897  0.9686
  903MOL0     H19150   4.381  -0.188   3.313  0.2322  0.5587  1.2432
  903MOL0     H19151   4.279  -0.323   3.272 -3.6983  1.2027 -1.0577
  903MOL0     H19152   4.274  -0.294   3.570  2.0212  2.8764  1.1283
  903MOL0     H19153   4.423  -0.249   3.522  0.1928  0.8324 -2.1952
  903MOL0     H19154   4.294  -0.507   3.444  0.9225 -0.5180 -1.7786
  903MOL0     H19155   4.458  -0.449   3.383  1.6807 -0.2559  0.6852
  903MOL0     H19156   4.386  -0.451   3.675 -0.6390 -2.5949  1.2199
  903MOL0     H19157   4.548  -0.444   3.588  1.4719 -2.8909 -1.6921
  903MOL0     H19158   4.416  -0.640   3.846 -0.3597 -0.6130  0.4836
  903MOL0     H19159   4.549  -0.740   4.013  0.5226  1.1677 -0.0688
  903MOL0     H19160   5.107  -1.015   3.847 -0.8959  0.7524  0.4293
  903MOL0     H19161   5.296  -1.118   3.980  0.5390  2.4044 -1.6607
  903MOL0     H19162   5.198  -1.319   4.391  0.5401 -1.2704 -0.6030
  903MOL0     H19163   5.266  -1.154   4.416  1.3270 -1.1672  3.0656
  903MOL0     H19164   5.487  -1.277   4.309  0.8241 -0.0377  0.5947
  903MOL0     H19165   5.423  -1.413   4.389  0.0253 -0.7560  3.6562
  903MOL0     H19166   5.418  -1.269   4.613 -0.5457  1.7366 -0.1240
  903MOL0     H19167   5.498  -1.148   4.517  1.3543 -0.3609 -0.5236
  903MOL0     H19168   5.633  -1.413   4.561 -1.8236 -0.2679 -0.4625
  903MOL0     H19169   5.683  -1.276   4.465  1.4466 -0.2077  1.5588
  903MOL0     H19170   5.609  -1.268   4.757 -0.7548 -1.7810 -0.2198
  903MOL0     H19171   5.692  -1.138   4.663 -2.3963  0.7417  3.0884
  903MOL0     H19172   5.863  -1.368   4.650  1.1435 -0.8859  0.3840
  903MOL0     H19173   5.793  -1.383   4.807  3.6561 -2.7943 -1.7854
  903MOL0     H19174   5.992  -1.267   4.826  1.0261  0.0559 -0.0428
  903MOL0     H19175   5.938  -1.140   4.713  2.2527  0.6076  2.6477
  903MOL0     H19176   5.787  -1.213   4.967  2.5664 -1.0846  0.3694
  903MOL0     H19177   5.746  -1.072   4.863 -2.0096 -0.6764  0.5090
  903MOL0     H19178   5.017  -1.157   4.313 -2.8865  0.3521 -1.0440
  903MOL0     H19179   4.854  -1.024   4.196  0.7740  1.0345 -0.4745
  903MOL0     H19180   4.830  -0.853   3.711 -1.4894 -3.9084  1.8145
  903MOL0     H19181   4.682  -0.734   3.531 -0.7011 -2.5404 -0.5000
  903MOL0     H19182   3.272   0.158   3.880 -0.5667 -0.1181  0.2781
  903MOL0     H19183   3.466   0.298   3.914 -2.8195  2.3503  0.7874
  903MOL0     H19184   3.968   0.417   3.576  0.9676  0.4965  0.6707
  903MOL0     H19185   4.128   0.590   3.566  0.0278  2.2728  0.2040
  903MOL0     H19186   4.025   0.939   3.803  0.9351  1.4819  1.2008
  903MOL0     H19187   4.005   1.023   3.644  0.3935  0.2228 -0.1161
  903MOL0     H19188   4.241   1.078   3.635 -0.1255  1.2313  0.8706
  903MOL0     H19189   4.190   1.121   3.794  4.1161  0.9045  1.0446
  903MOL0     H19190   4.344   0.879   3.696  0.4129  2.0022 -1.2989
  903MOL0     H19191   4.252   0.871   3.852 -0.2818 -1.1467 -1.6527
  903MOL0     H19192   4.494   0.917   3.886  0.6567  0.5553 -0.9272
  903MOL0     H19193   4.492   1.053   3.782  1.5457  2.0524  2.9058
  903MOL0     H19194   4.319   1.229   4.111  3.4585  2.4999 -0.2421
  903MOL0     H19195   3.815   0.876   3.657  0.7960  0.1998 -0.6140
  903MOL0     H19196   3.660   0.689   3.694 -1.4463 -2.1905 -1.1374
  904MOL0     O19197  10.867  10.894   3.404  0.2162 -0.1529 -0.1939
  904MOL0     C19198  10.858  10.917   3.284 -0.2631 -0.1963 -0.4663
  904MOL0     O19199  10.756  10.888   3.209 -0.6121  0.5402 -0.2490
  904MOL0     C19200  10.661  10.807   3.264 -0.4226 -0.3288 -0.2451
  904MOL0     C19201  10.659  10.678   3.224  0.6399  0.4105 -0.2957
  904MOL0     C19202  10.558  10.594   3.274 -0.0457 -0.2357 -0.0449
  904MOL0     C19203  10.461  10.648   3.356  0.5088 -0.9553 -0.2672
  904MOL0     O19204  10.359  10.566   3.394 -0.5399 -0.4704 -0.3277
  904MOL0     C19205  10.254  10.610   3.480 -0.5575 -0.0918  0.6128
  904MOL0     C19206  10.179  10.488   3.514  0.0044 -0.1216  0.0377
  904MOL0     C19207  10.112  10.430   3.386  0.6373 -1.1540  0.6941
  904MOL0     C19208  10.011  10.321   3.437  0.1893 -0.6203  0.8404
  904MOL0     C19209   9.885  10.406   3.462 -0.6039  0.1794 -1.0437
  904MOL0     C19210   9.784  10.395   3.349 -0.2133  0.2408  0.5676
  904MOL0     C19211   9.642  10.376   3.395  0.1030 -0.4929  0.6889
  904MOL0     C19212   9.529  10.419   3.292 -0.5951  0.6606 -0.7540
  904MOL0     N19213   9.507  10.329   3.175 -0.5172 -0.1623  0.9971
  904MOL0     C19214   9.414  10.238   3.163  0.3500  0.8195  0.6680
  904MOL0     C19215   9.406  10.196   3.037  0.6943  0.6336  0.0374
  904MOL0     C19216   9.303  10.090   2.999 -0.3583  0.0037 -1.0614
  904MOL0     C19217   9.314  10.029   2.862  0.3553 -0.7320  0.1868
  904MOL0     C19218   9.456   9.976   2.821 -0.3970  0.6033 -0.1815
  904MOL0     C19219   9.427   9.876   2.713  0.3696 -0.0001  0.6825
  904MOL0     O19220   9.554   9.858   2.643 -0.8991 -0.4852 -0.1437
  904MOL0     C19221   9.642   9.766   2.690  0.1770  1.0479  0.8309
  904MOL0     C19222   9.631   9.685   2.802  0.0025 -0.5027 -0.3488
  904MOL0     C19223   9.746   9.599   2.846 -0.0254 -0.6015  0.4296
  904MOL0     C19224   9.869   9.611   2.773  0.3482 -0.5735 -0.7619
  904MOL0     C19225   9.996   9.546   2.823  0.1615 -0.2511  0.3658
  904MOL0     O19226  10.102   9.584   2.753 -0.1787  0.0326  0.2056
  904MOL0     C19227  10.230   9.577   2.805  0.8229  1.0969 -0.0757
  904MOL0     C19228  10.281   9.457   2.849  0.8747 -0.8771 -0.6923
  904MOL0     C19229  10.411   9.450   2.890  0.5831  0.5257 -1.0161
  904MOL0     C19230  10.499   9.556   2.873  0.2814  0.5004 -0.8438
  904MOL0     O19231  10.628   9.547   2.905  0.1401  0.3733 -0.4513
  904MOL0     C19232  10.687   9.646   2.986 -1.2767  0.5087 -0.3348
  904MOL0     C19233  10.820   9.592   3.048  0.6593 -0.1129  0.1486
  904MOL0     C19234  10.857   9.638   3.188 -0.0240  0.1548 -0.8250
  904MOL0     C19235  10.957   9.536   3.253  0.6338 -0.5639 -1.0613
  904MOL0     C19236  10.909   9.496   3.396 -0.2547  0.3355  0.5446
  904MOL0     C19237  10.776   9.414   3.403  0.6054  0.4261 -1.0295
  904MOL0     C19238  10.759   9.306   3.297 -1.0909  0.3507  0.6408
  904MOL0     C19239  10.622   9.236   3.294  0.3636 -0.0832 -0.9341
  904MOL0    Cl19240  10.599   9.173   3.134 -0.0302 -0.0416 -0.7492
  904MOL0     C19241  10.449   9.681   2.846  0.0648  0.8250  0.5985
  904MOL0     C19242  10.315   9.692   2.807 -0.0018 -0.2829  0.2806
  904MOL0     O19243   9.996   9.477   2.920 -0.5285  0.1916  0.1781
  904MOL0     C19244   9.862   9.673   2.647 -0.1681  1.2016  0.1089
  904MOL0     C19245   9.757   9.750   2.611 -0.0955  0.0414  0.3623
  904MOL0     N19246   9.507  10.255   2.965  0.1211  0.9207 -0.2405
  904MOL0     N19247   9.565  10.329   3.051 -0.2523  0.4638  0.0056
  904MOL0     C19248  10.459  10.785   3.394 -1.1208 -0.4816  0.3760
  904MOL0     C19249  10.566  10.864   3.339 -0.2605 -0.7560  0.0785
  904MOL0     C19250  10.969  10.987   3.214  1.1824 -0.0109  0.7631
  904MOL0     C19251  11.083  11.032   3.280  0.0631 -1.3006 -0.3362
  904MOL0     C19252  11.189  11.110   3.212  0.0417  0.4206  0.0324
  904MOL0     C19253  11.170  11.153   3.076  0.7045 -0.2695 -0.3119
  904MOL0     O19254  11.252  11.216   2.986 -0.5029  0.2044  1.1226
  904MOL0     C19255  11.391  11.205   3.013 -0.2462 -0.9353  0.7989
  904MOL0     C19256  11.425  11.340   3.079 -0.5275 -0.3988  0.0782
  904MOL0     C19257  11.551  11.401   3.008 -0.5103  0.3381  0.0211
  904MOL0     C19258  11.652  11.430   3.119  0.0675  0.0494  0.3791
  904MOL0     C19259  11.709  11.316   3.191 -0.4364 -0.5638  0.1676
  904MOL0     C19260  11.757  11.217   3.244 -0.4028 -0.3096 -1.0638
  904MOL0     C19261  11.046  11.119   3.016  0.1716  0.6366  0.1408
  904MOL0     C19262  10.948  11.033   3.082  0.0008  0.4300 -0.4756
  904MOL0     H19263  10.740  10.638   3.163  0.5063 -0.1987 -0.0891
  904MOL0     H19264  10.569  10.486   3.260  1.2950  0.0613 -1.6734
  904MOL0     H19265  10.188  10.686   3.438 -3.1981 -3.2353 -1.3974
  904MOL0     H19266  10.293  10.642   3.577  1.2825 -3.3223  1.1066
  904MOL0     H19267  10.108  10.510   3.594  1.6706 -1.1787  1.8722
  904MOL0     H19268  10.255  10.418   3.550  1.6790  0.2106 -2.5841
  904MOL0     H19269  10.197  10.387   3.333  1.3054  1.8139 -0.8895
  904MOL0     H19270  10.072  10.506   3.319  2.0444 -1.4622 -0.5370
  904MOL0     H19271  10.005  10.235   3.370  2.1641  0.8262 -1.3807
  904MOL0     H19272  10.059  10.276   3.525 -0.9313 -2.0058  0.7626
  904MOL0     H19273   9.912  10.510   3.485 -1.9942  0.8403 -2.1766
  904MOL0     H19274   9.844  10.366   3.555  3.4723  0.7770  1.2314
  904MOL0     H19275   9.806  10.324   3.268  0.6911  2.5614 -1.3320
  904MOL0     H19276   9.780  10.491   3.297 -0.9908 -0.5905 -0.9946
  904MOL0     H19277   9.622  10.269   3.403 -1.3448 -0.3995 -0.9391
  904MOL0     H19278   9.621  10.436   3.484 -2.5214 -1.9212  1.1455
  904MOL0     H19279   9.573  10.509   3.247 -1.9909  0.5391 -2.4703
  904MOL0     H19280   9.439  10.460   3.339 -0.5524  2.7080 -2.2857
  904MOL0     H19281   9.349  10.221   3.248 -0.1389  3.3697  0.8644
  904MOL0     H19282   9.198  10.120   3.004 -0.3135  0.1202 -0.8091
  904MOL0     H19283   9.317  10.019   3.080  1.3676  1.8395  0.3728
  904MOL0     H19284   9.269  10.097   2.789 -0.3655 -0.9901  0.3815
  904MOL0     H19285   9.246   9.944   2.860  2.4950 -2.5635  1.1720
  904MOL0     H19286   9.508  10.063   2.781 -3.1799  3.2006  1.4100
  904MOL0     H19287   9.507   9.935   2.909 -2.0574 -1.5371 -0.1246
  904MOL0     H19288   9.348   9.914   2.648  1.3354  0.5528 -0.1872
  904MOL0     H19289   9.385   9.784   2.757  1.5455  0.4427  2.8781
  904MOL0     H19290   9.536   9.677   2.854 -1.6884  2.0603 -2.7520
  904MOL0     H19291   9.740   9.535   2.934  1.4273  0.6629  1.5147
  904MOL0     H19292  10.235   9.363   2.822  0.8001 -1.9400  2.7455
  904MOL0     H19293  10.440   9.350   2.920 -1.9424  0.1288  0.2904
  904MOL0     H19294  10.610   9.669   3.060 -2.6830  0.8140 -1.8405
  904MOL0     H19295  10.708   9.736   2.927 -0.0538  0.5395  0.1111
  904MOL0     H19296  10.901   9.620   2.981  0.6038 -1.1065 -0.3586
  904MOL0     H19297  10.826   9.483   3.047  1.7579 -0.1156  2.0711
  904MOL0     H19298  10.771   9.641   3.256  0.1091 -1.0608 -0.5861
  904MOL0     H19299  10.910   9.732   3.173 -0.3669  0.5563  0.3893
  904MOL0     H19300  10.973   9.449   3.189  2.0082 -0.6181 -0.6782
  904MOL0     H19301  11.053   9.589   3.249 -0.3491  1.5599  1.0568
  904MOL0     H19302  10.898   9.576   3.470 -0.6814 -1.3447  2.4021
  904MOL0     H19303  10.991   9.438   3.440 -0.3440  0.6653  1.1603
  904MOL0     H19304  10.693   9.484   3.392 -0.3227 -0.4622 -0.0349
  904MOL0     H19305  10.772   9.361   3.499 -1.1205  2.2483 -0.0108
  904MOL0     H19306  10.773   9.354   3.199  1.0903  0.2110  0.8288
  904MOL0     H19307  10.833   9.230   3.322 -1.1920 -0.1667 -0.5585
  904MOL0     H19308  10.542   9.308   3.316  0.0184 -0.4081 -1.1102
  904MOL0     H19309  10.622   9.158   3.372  0.2661  0.4409 -0.4035
  904MOL0     H19310  10.522   9.761   2.832  1.8121 -0.7597  0.2106
  904MOL0     H19311  10.281   9.790   2.774  1.5441  0.0768 -0.2886
  904MOL0     H19312   9.944   9.671   2.577 -2.3356 -3.8030 -2.7739
  904MOL0     H19313   9.755   9.803   2.517  1.3772  1.1702  0.9305
  904MOL0     H19314  10.392  10.828   3.468 -0.4336  1.1817  0.0882
  904MOL0     H19315  10.586  10.969   3.359 -0.8401 -0.5546 -0.3632
  904MOL0     H19316  11.101  11.007   3.385  1.6852  0.5827 -0.1046
  904MOL0     H19317  11.282  11.137   3.261  0.8686 -0.6226 -0.9324
  904MOL0     H19318  11.438  11.197   2.914  1.0787  0.2752  1.2861
  904MOL0     H19319  11.417  11.111   3.063  1.4241 -0.1673  1.4807
  904MOL0     H19320  11.340  11.410   3.083  0.5823  0.9491  2.7272
  904MOL0     H19321  11.448  11.323   3.185  1.5075 -2.5786 -0.6366
  904MOL0     H19322  11.525  11.496   2.960 -0.6153  1.6971  2.5785
  904MOL0     H19323  11.601  11.327   2.946 -1.5237 -0.0831 -0.2982
  904MOL0     H19324  11.745  11.472   3.078 -0.8261 -1.8913 -4.1885
  904MOL0     H19325  11.614  11.513   3.179 -0.6273  0.2014 -0.2534
  904MOL0     H19326  11.791  11.129   3.293  1.2077 -0.6178 -2.6465
  904MOL0     H19327  11.035  11.127   2.909  0.3801 -1.3104 -0.0445
  904MOL0     H19328  10.859  11.010   3.024  0.5139  0.8316 -1.4413
  905MOL0     O19329  10.608   9.994  10.226 -0.0294 -0.8708 -0.4682
  905MOL0     C19330  10.494   9.951  10.215 -0.0793  0.1903 -1.4228
  905MOL0     O19331  10.465   9.826  10.171 -0.8160  0.9348  0.1649
  905MOL0     C19332  10.563   9.736  10.122  0.2470 -0.1333  2.2253
  905MOL0     C19333  10.690   9.767  10.074 -0.8228  0.3245  0.3140
  905MOL0     C19334  10.765   9.671  10.004  0.1666 -1.2490 -0.1612
  905MOL0     C19335  10.714   9.539   9.984 -0.1964  0.3892  0.4332
  905MOL0     O19336  10.783   9.443   9.916 -0.5731  0.0580 -0.4147
  905MOL0     C19337  10.814   9.481   9.775 -0.1368  0.3952 -0.5036
  905MOL0     C19338  10.829   9.364   9.681 -0.0259  0.1153 -0.7730
  905MOL0     C19339  10.956   9.296   9.682 -0.3281  0.3129  0.3005
  905MOL0     C19340  10.953   9.171   9.596 -0.4019 -0.2380 -0.2096
  905MOL0     C19341  10.942   9.214   9.453 -0.0738  1.1507  0.7482
  905MOL0     C19342  10.967   9.102   9.356 -0.4191 -0.5368 -0.2845
  905MOL0     C19343  10.879   9.122   9.226  0.0987 -0.9570  0.1482
  905MOL0     C19344  10.920   9.254   9.159 -0.3485 -0.4668 -0.4738
  905MOL0     N19345  10.837   9.281   9.051  0.7878  0.6582  0.7424
  905MOL0     C19346  10.712   9.345   9.072 -0.4788  0.8654  0.2032
  905MOL0     C19347  10.686   9.392   8.945  0.8153  0.9999 -0.0086
  905MOL0     C19348  10.575   9.493   8.932 -0.3462 -0.4158  0.1960
  905MOL0     C19349  10.422   9.448   8.924  0.6927  0.0582 -0.5806
  905MOL0     C19350  10.387   9.358   8.798 -0.6386 -0.3834 -0.2772
  905MOL0     C19351  10.234   9.317   8.802  0.3518 -0.1558 -0.4596
  905MOL0     O19352  10.149   9.438   8.821  0.3688  0.4269  0.1280
  905MOL0     C19353  10.024   9.426   8.875 -0.5818 -0.1097 -0.9098
  905MOL0     C19354  10.009   9.416   9.014  0.0285 -0.2409  0.4029
  905MOL0     C19355   9.877   9.420   9.077  0.0719 -0.3231  0.2779
  905MOL0     C19356   9.761   9.425   8.998  0.5243  0.0910 -0.6373
  905MOL0     C19357   9.624   9.425   9.053 -0.8836  0.3345 -0.2074
  905MOL0     O19358   9.518   9.397   8.975 -0.1806 -0.1839  0.2944
  905MOL0     C19359   9.394   9.414   9.030 -1.1174 -0.6478 -0.2625
  905MOL0     C19360   9.321   9.310   9.081 -0.3279  0.8054 -0.1577
  905MOL0     C19361   9.187   9.325   9.120 -0.1287 -0.5292 -0.8082
  905MOL0     C19362   9.125   9.449   9.101 -0.6479  0.0967  0.4405
  905MOL0     O19363   8.995   9.470   9.124  0.2835  0.4054 -0.3136
  905MOL0     C19364   8.965   9.442   9.263 -0.9442  0.1352  0.8269
  905MOL0     C19365   8.851   9.519   9.327  0.7983  0.1367  0.2092
  905MOL0     C19366   8.712   9.446   9.305 -0.9346  0.5421 -0.8913
  905MOL0     C19367   8.664   9.449   9.163 -0.8424  0.7917  0.4156
  905MOL0     C19368   8.530   9.387   9.143 -0.0596 -0.1241 -0.8339
  905MOL0     C19369   8.418   9.431   9.232  0.0011  0.4315  0.3522
  905MOL0     C19370   8.285   9.403   9.171  0.8472 -0.1865 -0.5872
  905MOL0     C19371   8.173   9.451   9.262  0.2074  0.2383  0.4395
  905MOL0    Cl19372   8.177   9.389   9.432 -0.3710 -0.3476  0.2176
  905MOL0     C19373   9.194   9.548   9.038  0.4684  0.1696  0.2556
  905MOL0     C19374   9.329   9.536   9.003 -0.5967  0.2232  0.2473
  905MOL0     O19375   9.620   9.441   9.172  0.2746 -0.1180 -1.0108
  905MOL0     C19376   9.786   9.408   8.856 -0.3189  0.1739 -0.0256
  905MOL0     C19377   9.914   9.401   8.799 -0.7040  0.6663  0.5644
  905MOL0     N19378  10.789   9.353   8.854 -0.5048  0.1855 -0.3045
  905MOL0     N19379  10.874   9.282   8.920  0.2751  0.0183  0.9193
  905MOL0     C19380  10.592   9.510  10.042 -0.3250  0.2628 -0.7194
  905MOL0     C19381  10.526   9.604  10.110  0.4928  0.8112 -0.5974
  905MOL0     C19382  10.384  10.037  10.258 -0.1828  0.7347 -0.0547
  905MOL0     C19383  10.274  10.038  10.172 -0.4890 -0.1008  0.2851
  905MOL0     C19384  10.173  10.127  10.199 -0.2831  0.7100  0.5875
  905MOL0     C19385  10.169  10.204  10.317 -0.1750  0.6212 -0.1873
  905MOL0     O19386  10.066  10.289  10.329 -0.2609 -0.7608 -0.9813
  905MOL0     C19387  10.077  10.404  10.245  1.0066  0.1073  0.3047
  905MOL0     C19388  10.102  10.528  10.316  0.2273  0.2264 -1.0360
  905MOL0     C19389  10.225  10.518  10.394 -0.6122 -0.7605 -0.3533
  905MOL0     C19390  10.277  10.664  10.419 -0.2014 -0.4864  0.1829
  905MOL0     C19391  10.396  10.654  10.502  0.5166 -0.3095 -0.6280
  905MOL0     C19392  10.481  10.635  10.586  0.0019  0.5546 -0.8810
  905MOL0     C19393  10.280  10.199  10.396  0.0007  1.0035 -0.0943
  905MOL0     C19394  10.387  10.117  10.375 -0.4066  0.1539  0.2082
  905MOL0     H19395  10.738   9.863  10.089  2.5363 -1.4064  1.6005
  905MOL0     H19396  10.861   9.701   9.964 -0.8059  3.3284  0.3895
  905MOL0     H19397  10.907   9.537   9.762  1.4163 -2.1234 -0.8488
  905MOL0     H19398  10.733   9.540   9.730 -1.3019 -1.6708 -1.2786
  905MOL0     H19399  10.809   9.409   9.584 -2.8637  4.3088  1.4268
  905MOL0     H19400  10.748   9.291   9.692  1.5846 -1.5548  0.7275
  905MOL0     H19401  10.987   9.267   9.782 -1.0394  2.4870  1.2149
  905MOL0     H19402  11.024   9.375   9.648  1.6803 -1.1539  0.7634
  905MOL0     H19403  11.046   9.115   9.607  1.7440  2.9389 -0.8597
  905MOL0     H19404  10.866   9.106   9.611 -0.7142  0.3241  0.4643
  905MOL0     H19405  11.023   9.285   9.435  1.7620 -1.4665 -2.7197
  905MOL0     H19406  10.846   9.265   9.438 -1.9359 -1.6677  2.2125
  905MOL0     H19407  10.941   9.010   9.408 -0.6605  0.5107  1.5430
  905MOL0     H19408  11.072   9.089   9.328  0.8388 -0.0278  3.5538
  905MOL0     H19409  10.910   9.040   9.161  2.1258  0.1262 -0.3278
  905MOL0     H19410  10.771   9.116   9.245  0.0614 -0.6449  0.0385
  905MOL0     H19411  11.021   9.236   9.121 -0.7224 -2.4223 -0.6564
  905MOL0     H19412  10.915   9.331   9.237 -0.8817 -3.0187  2.2099
  905MOL0     H19413  10.659   9.360   9.166 -0.9273  0.8144 -0.0350
  905MOL0     H19414  10.596   9.560   8.849 -1.8026  1.6903  1.4238
  905MOL0     H19415  10.578   9.554   9.023 -0.1587 -1.4022  0.8790
  905MOL0     H19416  10.359   9.537   8.919  0.3459 -0.1798 -0.4683
  905MOL0     H19417  10.382   9.404   9.015  2.4659 -1.5905 -0.5189
  905MOL0     H19418  10.399   9.428   8.714 -3.6951  0.6421  0.0386
  905MOL0     H19419  10.451   9.271   8.781 -1.6925 -1.5478  1.5203
  905MOL0     H19420  10.211   9.252   8.886  2.3834  0.9768  1.0473
  905MOL0     H19421  10.209   9.264   8.709 -0.8246  2.4570 -1.7364
  905MOL0     H19422  10.097   9.410   9.077 -1.0089 -1.5597  1.7998
  905MOL0     H19423   9.870   9.446   9.182 -0.3902  3.3689 -0.5335
  905MOL0     H19424   9.375   9.217   9.098 -0.5432  0.6327 -0.4107
  905MOL0     H19425   9.134   9.244   9.169  1.0054 -1.1095 -0.4972
  905MOL0     H19426   9.054   9.461   9.322  0.7132 -1.3292 -1.0425
  905MOL0     H19427   8.951   9.335   9.282 -1.0020  0.2514  1.4417
  905MOL0     H19428   8.853   9.619   9.283  2.6671 -0.9776 -2.5079
  905MOL0     H19429   8.870   9.517   9.435 -0.3202 -2.7018  0.4273
  905MOL0     H19430   8.653   9.502   9.379  0.5920  2.3340 -0.9624
  905MOL0     H19431   8.725   9.345   9.344  0.0089  0.8597 -0.3411
  905MOL0     H19432   8.666   9.552   9.124  1.7132  0.9686  0.8557
  905MOL0     H19433   8.733   9.386   9.106  0.2513  0.1516  2.3695
  905MOL0     H19434   8.548   9.279   9.145  2.0141  0.2057 -0.0609
  905MOL0     H19435   8.515   9.409   9.037  1.7376  2.0585 -0.7051
  905MOL0     H19436   8.438   9.536   9.252  0.2946  0.3800  0.3295
  905MOL0     H19437   8.422   9.387   9.332 -1.0117 -1.6309 -0.4498
  905MOL0     H19438   8.290   9.460   9.078 -0.8255  1.5246  0.2963
  905MOL0     H19439   8.270   9.296   9.152 -1.8158  0.3529 -2.0405
  905MOL0     H19440   8.081   9.439   9.204  0.8795  2.2725 -1.1786
  905MOL0     H19441   8.187   9.558   9.277  1.6196  0.2861 -0.9209
  905MOL0     H19442   9.149   9.646   9.023 -1.8238 -0.8299  0.1418
  905MOL0     H19443   9.382   9.625   8.971  1.1798  0.6191  3.7913
  905MOL0     H19444   9.701   9.392   8.790  1.4861 -2.2471 -1.9812
  905MOL0     H19445   9.924   9.404   8.691  2.0989 -1.0842  0.6667
  905MOL0     H19446  10.556   9.408  10.048  0.6530 -0.0284  0.7627
  905MOL0     H19447  10.435   9.581  10.165  2.7389 -0.8064  2.8301
  905MOL0     H19448  10.263   9.966  10.091  2.4990 -0.0693 -0.2825
  905MOL0     H19449  10.088  10.140  10.133 -0.1263  2.0594  0.6243
  905MOL0     H19450   9.973  10.414  10.213 -0.1438 -0.5851  3.4467
  905MOL0     H19451  10.136  10.385  10.154  0.5264 -0.5209  0.1234
  905MOL0     H19452  10.107  10.622  10.259 -3.2805  3.4818  3.2552
  905MOL0     H19453  10.016  10.544  10.383  1.3783  1.7058  0.1566
  905MOL0     H19454  10.297  10.455  10.339  0.7587  1.1810 -0.9277
  905MOL0     H19455  10.206  10.466  10.488  1.5955  0.6580  0.9891
  905MOL0     H19456  10.308  10.703  10.321 -1.6275  0.0500 -0.0733
  905MOL0     H19457  10.199  10.731  10.456 -1.2541 -1.5991  0.0314
  905MOL0     H19458  10.556  10.623  10.662 -1.0539 -3.5656 -0.2677
  905MOL0     H19459  10.301  10.273  10.472  0.6354  1.3085 -0.5584
  905MOL0     H19460  10.472  10.115  10.442 -1.1510 -3.2580  1.2447
  906MOL0     O19461   7.944   7.632  11.364 -0.2281 -0.2284 -0.7067
  906MOL0     C19462   8.032   7.712  11.347  0.1551  0.0592 -1.2472
  906MOL0     O19463   8.017   7.839  11.299  0.5283 -0.2951 -0.3725
  906MOL0     C19464   7.894   7.892  11.295  1.3733  0.0195  0.1157
  906MOL0     C19465   7.798   7.909  11.395 -0.3253 -0.7159 -0.1761
  906MOL0     C19466   7.672   7.975  11.374  0.6893  0.2409  0.2729
  906MOL0     C19467   7.648   8.033  11.251  0.0202  0.0084 -0.1293
  906MOL0     O19468   7.538   8.113  11.224 -0.4293  0.9538 -0.1965
  906MOL0     C19469   7.433   8.081  11.123 -0.2805  0.1354 -0.5265
  906MOL0     C19470   7.336   8.200  11.126  0.2888 -1.0626 -0.9231
  906MOL0     C19471   7.245   8.196  11.002 -0.2541 -1.3473 -0.8912
  906MOL0     C19472   7.170   8.326  10.994  0.4649  0.0944 -0.1791
  906MOL0     C19473   7.067   8.314  10.883  0.1931 -0.1438 -0.4343
  906MOL0     C19474   6.954   8.419  10.895 -0.0706 -0.3474 -0.0111
  906MOL0     C19475   6.883   8.441  10.772 -0.9263 -0.0837  0.4898
  906MOL0     C19476   6.840   8.315  10.705 -0.0431  0.5430  0.5594
  906MOL0     N19477   6.731   8.333  10.608 -0.3587  0.2273  0.6573
  906MOL0     C19478   6.599   8.365  10.621 -0.6900  0.6065  0.1573
  906MOL0     C19479   6.540   8.348  10.497 -0.0294 -0.2592  0.5617
  906MOL0     C19480   6.394   8.342  10.477 -0.3242  1.0568  0.5196
  906MOL0     C19481   6.350   8.441  10.379 -0.6379  0.0395  0.4259
  906MOL0     C19482   6.199   8.440  10.377  0.7162  0.7845 -0.5313
  906MOL0     C19483   6.152   8.511  10.263  2.0256 -0.6019  1.2146
  906MOL0     O19484   6.169   8.648  10.287  0.1398 -0.2444  0.4072
  906MOL0     C19485   6.058   8.726  10.302 -0.3530 -0.5369  0.7322
  906MOL0     C19486   5.960   8.734  10.198  0.0930 -0.2842  0.0250
  906MOL0     C19487   5.871   8.834  10.198 -0.1533 -1.0608 -0.7700
  906MOL0     C19488   5.867   8.924  10.310  0.0326 -0.6356  1.0420
  906MOL0     C19489   5.767   9.031  10.318 -0.4812 -0.7027  0.1870
  906MOL0     O19490   5.663   9.033  10.236  0.1631  0.7529  0.6844
  906MOL0     C19491   5.554   9.107  10.252 -0.3493  0.1303  0.0943
  906MOL0     C19492   5.545   9.244  10.240 -0.4195 -0.7005  0.0593
  906MOL0     C19493   5.422   9.304  10.263  0.6380  0.1927 -1.5108
  906MOL0     C19494   5.302   9.230  10.269  0.5900  0.1816 -0.8022
  906MOL0     O19495   5.176   9.297  10.271  0.1565  0.1659 -0.3081
  906MOL0     C19496   5.092   9.253  10.169 -1.1078  0.6602 -0.7855
  906MOL0     C19497   4.968   9.344  10.179 -0.2161 -0.1304 -0.2038
  906MOL0     C19498   4.867   9.311  10.082  0.0113 -0.5149  0.5111
  906MOL0     C19499   4.730   9.387  10.118 -0.0788  0.5430  0.8029
  906MOL0     C19500   4.610   9.341  10.028  0.1671  0.0963 -0.1479
  906MOL0     C19501   4.579   9.189  10.002 -0.2220  0.4952 -1.0345
  906MOL0     C19502   4.566   9.105  10.133  0.2769  0.3179 -0.4548
  906MOL0     C19503   4.535   8.954  10.108 -0.9076 -0.4138 -0.2789
  906MOL0    Cl19504   4.423   8.940   9.975 -0.8304 -0.5552  0.0655
  906MOL0     C19505   5.317   9.088  10.292  0.6199  0.7335  0.8464
  906MOL0     C19506   5.444   9.028  10.278 -0.2590 -0.5664 -0.2157
  906MOL0     O19507   5.784   9.118  10.405  0.3077 -0.6263 -0.6662
  906MOL0     C19508   5.951   8.902  10.420 -0.2635  0.2190  0.6914
  906MOL0     C19509   6.052   8.813  10.411 -0.8470  0.0113 -0.4187
  906MOL0     N19510   6.641   8.319  10.410 -0.1444  0.6478  0.6025
  906MOL0     N19511   6.758   8.317  10.480 -0.2992  1.0100  0.0068
  906MOL0     C19512   7.746   8.032  11.154 -0.4626 -0.1498  0.2282
  906MOL0     C19513   7.869   7.965  11.178  0.3416 -0.2435 -0.1032
  906MOL0     C19514   8.165   7.667  11.398  0.9144 -0.4482 -0.6938
  906MOL0     C19515   8.270   7.752  11.394 -0.6328 -0.1300  0.1128
  906MOL0     C19516   8.398   7.715  11.452  0.5726 -0.2915 -0.5933
  906MOL0     C19517   8.421   7.587  11.511 -0.2805  0.0023 -0.4468
  906MOL0     O19518   8.552   7.557  11.545 -0.3422 -0.0081 -0.2111
  906MOL0     C19519   8.585   7.439  11.618  0.1329  0.3089 -0.0360
  906MOL0     C19520   8.746   7.428  11.627 -0.3337 -0.1597 -0.6771
  906MOL0     C19521   8.840   7.444  11.498  0.6000 -0.7254  0.8230
  906MOL0     C19522   8.987   7.439  11.531 -0.8776  0.7287  0.3976
  906MOL0     C19523   9.032   7.303  11.580  0.5620  0.1541 -0.1217
  906MOL0     C19524   9.064   7.201  11.637  0.1553  0.3687 -0.0830
  906MOL0     C19525   8.314   7.504  11.508  0.1475  0.0894 -0.4705
  906MOL0     C19526   8.186   7.550  11.470 -0.0888 -0.1797 -0.5325
  906MOL0     H19527   7.829   7.873  11.492  0.8843  1.2059  0.2126
  906MOL0     H19528   7.603   7.972  11.458 -0.2282  1.4488 -0.4049
  906MOL0     H19529   7.386   7.984  11.144  1.2078 -0.0591  2.4810
  906MOL0     H19530   7.483   8.067  11.027 -1.2099 -3.1148 -0.6405
  906MOL0     H19531   7.388   8.297  11.120  1.4820 -1.7591 -5.0975
  906MOL0     H19532   7.279   8.197  11.219 -1.4914  1.5640 -1.8127
  906MOL0     H19533   7.170   8.117  11.010 -3.5321  1.6278  0.4874
  906MOL0     H19534   7.307   8.172  10.916  2.1113 -0.4960  0.4858
  906MOL0     H19535   7.115   8.355  11.083  1.8108 -2.4204  1.6036
  906MOL0     H19536   7.240   8.409  10.984  3.7733 -2.6781 -2.6607
  906MOL0     H19537   7.022   8.214  10.883 -1.2889  0.4915 -0.6056
  906MOL0     H19538   7.134   8.328  10.798  0.7539  0.9543  0.1725
  906MOL0     H19539   6.990   8.511  10.945  0.7650 -0.6207 -0.0919
  906MOL0     H19540   6.885   8.369  10.963  1.2539 -4.1206 -1.1880
  906MOL0     H19541   6.801   8.509  10.796  0.5988  1.6696  0.9427
  906MOL0     H19542   6.940   8.491  10.694 -0.3485 -1.2227  0.1530
  906MOL0     H19543   6.810   8.246  10.785 -2.2834  1.9706  1.0209
  906MOL0     H19544   6.934   8.281  10.660  0.7082  2.8968  0.2179
  906MOL0     H19545   6.543   8.396  10.708 -0.1548 -1.6735  1.3838
  906MOL0     H19546   6.353   8.357  10.578  2.1893 -0.3663  1.8412
  906MOL0     H19547   6.368   8.241  10.444  5.9535 -1.4143  1.8535
  906MOL0     H19548   6.379   8.425  10.275 -2.2142  1.7248 -0.3185
  906MOL0     H19549   6.385   8.537  10.420  1.2068 -1.0585  1.6040
  906MOL0     H19550   6.152   8.342  10.383  1.9536 -0.0411 -2.9063
  906MOL0     H19551   6.159   8.490  10.466 -1.9486 -3.7495  1.1760
  906MOL0     H19552   6.048   8.485  10.241  1.9293  0.2085  0.6636
  906MOL0     H19553   6.199   8.491  10.167 -1.2677  2.5722 -1.3433
  906MOL0     H19554   5.969   8.665  10.115 -2.0587  0.7834 -1.2053
  906MOL0     H19555   5.796   8.841  10.121 -0.1888  1.0635 -0.5955
  906MOL0     H19556   5.630   9.308  10.218  1.1938 -1.9779  2.1395
  906MOL0     H19557   5.411   9.412  10.262  0.7254  0.2645  0.9260
  906MOL0     H19558   5.062   9.150  10.192  0.3970  0.2324 -0.6714
  906MOL0     H19559   5.133   9.254  10.068  1.2593  0.7578  0.1114
  906MOL0     H19560   5.009   9.446  10.183  0.9718 -0.5223 -1.6011
  906MOL0     H19561   4.919   9.303  10.268  2.4591 -1.8521  0.5864
  906MOL0     H19562   4.856   9.202  10.073 -3.7761 -0.6522  3.7369
  906MOL0     H19563   4.888   9.348   9.981 -1.0754 -0.5323  0.2617
  906MOL0     H19564   4.698   9.351  10.216 -1.8033  1.0929  0.4703
  906MOL0     H19565   4.741   9.495  10.131 -0.7242  0.7782 -0.4024
  906MOL0     H19566   4.623   9.390   9.931  2.4199  4.6839  2.1330
  906MOL0     H19567   4.518   9.387  10.063 -0.1662  0.0226 -0.9032
  906MOL0     H19568   4.663   9.145   9.947  1.1410  3.3580 -1.4353
  906MOL0     H19569   4.489   9.177   9.941 -0.7752 -2.1919  0.1682
  906MOL0     H19570   4.653   9.102  10.199 -1.3873  0.7329  1.9019
  906MOL0     H19571   4.479   9.143  10.188 -0.3206 -0.6449 -0.7109
  906MOL0     H19572   4.502   8.897  10.195 -0.3781 -1.1863 -0.5732
  906MOL0     H19573   4.634   8.909  10.098 -0.2154  1.4147 -2.5827
  906MOL0     H19574   5.238   9.014  10.292  0.6481  0.6678  2.4196
  906MOL0     H19575   5.459   8.924  10.305 -4.5270 -1.2783  0.0916
  906MOL0     H19576   5.957   8.964  10.509  1.3151  3.3519 -1.4435
  906MOL0     H19577   6.115   8.804  10.498 -2.3499  0.7111  0.7827
  906MOL0     H19578   7.739   8.077  11.055  1.4950 -0.2668  0.0094
  906MOL0     H19579   7.945   7.967  11.101  0.8465  2.2289  0.3820
  906MOL0     H19580   8.257   7.852  11.355  3.7587  1.2807  1.5981
  906MOL0     H19581   8.489   7.765  11.422  0.0310  0.8420 -0.3703
  906MOL0     H19582   8.548   7.350  11.565  5.2802 -0.3315 -3.3117
  906MOL0     H19583   8.536   7.444  11.716  1.1419  0.2557  0.4832
  906MOL0     H19584   8.794   7.480  11.710  2.0989 -1.7181 -1.0217
  906MOL0     H19585   8.766   7.321  11.638  0.9155 -0.0187 -1.4147
  906MOL0     H19586   8.800   7.534  11.450  1.3171 -0.5603  0.5273
  906MOL0     H19587   8.807   7.365  11.429 -3.3276 -0.0220  1.6380
  906MOL0     H19588   9.040   7.467  11.440 -0.3645  1.7827  0.9997
  906MOL0     H19589   9.003   7.514  11.609 -0.1686 -0.4328  1.4252
  906MOL0     H19590   9.082   7.111  11.693  1.2616  0.3617 -0.4283
  906MOL0     H19591   8.337   7.409  11.554 -0.6040  0.2163  0.1830
  906MOL0     H19592   8.104   7.483  11.492 -0.8463 -0.2167 -3.0546
  907MOL0     O19593   8.966   1.205   1.369 -0.0871  0.3924  0.3566
  907MOL0     C19594   8.872   1.159   1.304  0.1680 -0.2630  0.1088
  907MOL0     O19595   8.777   1.237   1.242  0.1358  0.0916  0.1630
  907MOL0     C19596   8.761   1.366   1.291  0.1574  0.8872  0.2508
  907MOL0     C19597   8.632   1.398   1.335  0.7105  0.1335  0.6956
  907MOL0     C19598   8.591   1.529   1.377 -0.1558 -0.5473  0.3045
  907MOL0     C19599   8.695   1.621   1.376  0.8148 -0.3406 -0.8358
  907MOL0     O19600   8.677   1.755   1.403  0.6274 -0.5408 -0.2264
  907MOL0     C19601   8.544   1.815   1.432  0.0965  0.0596 -0.0031
  907MOL0     C19602   8.589   1.953   1.484 -0.1740 -0.6901  0.2727
  907MOL0     C19603   8.476   2.056   1.465  0.0871 -0.0584 -0.0056
  907MOL0     C19604   8.526   2.195   1.485  0.1523 -0.4385  0.9193
  907MOL0     C19605   8.559   2.237   1.627  0.3672 -1.4832 -0.9356
  907MOL0     C19606   8.574   2.395   1.643  0.6924 -0.1262 -0.6309
  907MOL0     C19607   8.631   2.440   1.784 -0.0907 -0.0852  0.1710
  907MOL0     C19608   8.719   2.566   1.801 -0.5280 -0.4140  0.2194
  907MOL0     N19609   8.666   2.689   1.735  0.4879 -0.0334  0.2022
  907MOL0     C19610   8.747   2.801   1.729  0.2902 -0.4165  0.0230
  907MOL0     C19611   8.662   2.894   1.666 -1.1562 -0.0489 -0.0372
  907MOL0     C19612   8.698   3.035   1.634 -0.1443 -0.5155 -0.2360
  907MOL0     C19613   8.772   3.088   1.509 -0.1141  0.7793 -0.1055
  907MOL0     C19614   8.913   3.024   1.513  0.2394 -0.6584 -0.3821
  907MOL0     C19615   9.015   3.082   1.408 -0.3057  0.2176 -0.7277
  907MOL0     O19616   9.096   2.975   1.366  0.2927 -0.1805  0.1232
  907MOL0     C19617   9.151   3.000   1.240  0.5874 -0.1539  0.1314
  907MOL0     C19618   9.174   2.898   1.143 -0.0770 -0.6978 -0.0726
  907MOL0     C19619   9.238   2.928   1.019 -0.4709  0.3845 -0.0934
  907MOL0     C19620   9.282   3.060   0.983 -0.1413  1.0479  0.2203
  907MOL0     C19621   9.344   3.071   0.852  0.8028 -0.3107  0.1686
  907MOL0     O19622   9.333   2.974   0.757 -0.0643  0.2797  0.5026
  907MOL0     C19623   9.371   3.009   0.629  0.8978 -0.6118  0.2882
  907MOL0     C19624   9.321   3.125   0.557 -0.4983 -0.4914 -0.1275
  907MOL0     C19625   9.364   3.152   0.422  0.1196 -0.2707  0.1489
  907MOL0     C19626   9.442   3.058   0.357 -1.3781 -0.4738 -0.1155
  907MOL0     O19627   9.462   3.076   0.222 -0.4245  0.5555 -0.0713
  907MOL0     C19628   9.489   3.203   0.160  0.2635  0.3868  0.7533
  907MOL0     C19629   9.358   3.217   0.072 -0.3092  0.2075  0.0793
  907MOL0     C19630   9.343   3.364   0.015 -0.0918 -0.4099 -0.2334
  907MOL0     C19631   9.316   3.464   0.134  0.0058 -0.0940 -0.0225
  907MOL0     C19632   9.265   3.602   0.091  0.2106  1.2208  0.2340
  907MOL0     C19633   9.212   3.695   0.206 -0.4007  0.1051  0.8537
  907MOL0     C19634   9.163   3.831   0.152 -0.2745  0.4157  0.3040
  907MOL0     C19635   9.051   3.828   0.042 -0.4869  0.0776  0.5430
  907MOL0    Cl19636   8.921   3.714   0.089  0.3579 -0.0145 -0.0680
  907MOL0     C19637   9.488   2.937   0.418  0.3872 -0.3982 -1.1337
  907MOL0     C19638   9.447   2.912   0.552  0.0235 -0.8024  0.7447
  907MOL0     O19639   9.408   3.175   0.845 -0.4072 -0.4320 -1.5233
  907MOL0     C19640   9.258   3.158   1.082 -0.2335 -0.6138  1.2863
  907MOL0     C19641   9.195   3.126   1.205  0.2782  0.0663 -0.8519
  907MOL0     N19642   8.542   2.836   1.633  0.5610 -0.2556  0.3496
  907MOL0     N19643   8.546   2.716   1.678 -0.0928  0.0150 -0.1162
  907MOL0     C19644   8.824   1.589   1.336 -0.4976  1.1601  0.0383
  907MOL0     C19645   8.857   1.466   1.292  0.0528  0.4352  0.3983
  907MOL0     C19646   8.860   1.017   1.279 -0.0299  0.3417 -0.3724
  907MOL0     C19647   8.947   0.928   1.356  0.5567 -0.9662  0.2243
  907MOL0     C19648   8.923   0.791   1.339 -0.7039 -0.0139  0.0434
  907MOL0     C19649   8.836   0.737   1.254 -0.2431 -0.4427  0.3527
  907MOL0     O19650   8.821   0.607   1.213 -0.3854 -0.3411 -0.0256
  907MOL0     C19651   8.857   0.493   1.298  0.2294  0.5555  0.9642
  907MOL0     C19652   8.764   0.468   1.416 -0.7901  0.7347 -0.2626
  907MOL0     C19653   8.611   0.494   1.397 -0.3039  0.5334 -0.5522
  907MOL0     C19654   8.536   0.388   1.314  0.5508 -0.5190 -0.2432
  907MOL0     C19655   8.605   0.350   1.191 -0.3833  0.0297 -0.5578
  907MOL0     C19656   8.656   0.328   1.086 -0.6726 -0.5087  1.2220
  907MOL0     C19657   8.747   0.821   1.183  0.7251 -1.0901  0.2057
  907MOL0     C19658   8.761   0.965   1.192 -1.1625  0.0909  0.1283
  907MOL0     H19659   8.552   1.325   1.326  1.0193 -0.5022  2.7282
  907MOL0     H19660   8.487   1.540   1.407 -1.7615  0.3445 -4.5841
  907MOL0     H19661   8.481   1.756   1.499 -0.0214  1.3862  1.0904
  907MOL0     H19662   8.490   1.827   1.338 -0.1876 -3.5273 -0.4536
  907MOL0     H19663   8.657   1.992   1.408 -0.7588 -0.6349 -0.2221
  907MOL0     H19664   8.641   1.957   1.580  1.4379  1.7318 -0.6177
  907MOL0     H19665   8.399   2.051   1.543  0.5948  0.8504  0.5627
  907MOL0     H19666   8.420   2.056   1.371 -0.3371  0.2700  0.2469
  907MOL0     H19667   8.619   2.220   1.433 -0.4207 -1.4280 -0.6586
  907MOL0     H19668   8.452   2.261   1.440  0.7249 -0.0107  0.5944
  907MOL0     H19669   8.652   2.189   1.662 -0.8523 -2.0055  1.8909
  907MOL0     H19670   8.480   2.208   1.696 -2.2770  3.0788 -1.6596
  907MOL0     H19671   8.474   2.437   1.625  0.6025  0.1175  0.3597
  907MOL0     H19672   8.640   2.431   1.564  0.8503 -1.4135 -1.1031
  907MOL0     H19673   8.550   2.457   1.856 -0.1717  1.0411 -0.1795
  907MOL0     H19674   8.698   2.362   1.822  3.7563  2.9119  0.0686
  907MOL0     H19675   8.818   2.549   1.760 -1.3640 -0.7062 -1.7977
  907MOL0     H19676   8.739   2.593   1.905  0.8595 -0.9118  0.1051
  907MOL0     H19677   8.851   2.798   1.758 -0.0045  1.1663  1.3515
  907MOL0     H19678   8.741   3.074   1.727  0.7371 -0.5472 -0.6238
  907MOL0     H19679   8.610   3.100   1.635 -0.6263 -1.1129  1.6338
  907MOL0     H19680   8.795   3.195   1.509  2.0117  0.3637  0.0634
  907MOL0     H19681   8.720   3.053   1.420  0.8883  1.7639 -1.1109
  907MOL0     H19682   8.965   3.016   1.609 -1.1143  0.2259  0.4542
  907MOL0     H19683   8.910   2.918   1.486  1.2134 -0.1641 -2.6434
  907MOL0     H19684   9.080   3.151   1.464 -1.0770  2.2144 -2.1612
  907MOL0     H19685   8.968   3.141   1.329 -1.7277 -3.8347 -3.1833
  907MOL0     H19686   9.147   2.793   1.152 -3.3048  0.1918  2.3055
  907MOL0     H19687   9.264   2.848   0.950 -1.6463 -0.2358  0.1680
  907MOL0     H19688   9.252   3.187   0.613 -0.9011 -1.7605  0.8349
  907MOL0     H19689   9.321   3.242   0.379  1.9410  1.5315  1.8908
  907MOL0     H19690   9.575   3.198   0.092 -1.1628  4.2610 -1.7145
  907MOL0     H19691   9.510   3.278   0.236  1.4748 -0.5374  1.3692
  907MOL0     H19692   9.263   3.184   0.116 -0.1938 -0.0245  0.1522
  907MOL0     H19693   9.375   3.149  -0.012 -0.7525 -1.5224  1.3295
  907MOL0     H19694   9.255   3.374  -0.049 -0.7484 -1.7208  0.4325
  907MOL0     H19695   9.433   3.391  -0.042 -0.2067  0.8850  0.1742
  907MOL0     H19696   9.230   3.414   0.179 -2.8441  0.9868 -3.7245
  907MOL0     H19697   9.408   3.471   0.193  1.0978  1.4762 -1.7856
  907MOL0     H19698   9.188   3.581   0.016  1.1188 -1.5921 -0.0264
  907MOL0     H19699   9.343   3.654   0.035  0.9359 -1.1560 -1.1027
  907MOL0     H19700   9.292   3.708   0.279  2.2789 -1.7033 -1.5394
  907MOL0     H19701   9.124   3.653   0.256  0.8999 -2.4448  1.1619
  907MOL0     H19702   9.125   3.885   0.240 -1.8735  3.0226 -1.8198
  907MOL0     H19703   9.248   3.895   0.126  0.1258 -0.5499 -0.8156
  907MOL0     H19704   9.091   3.771  -0.043 -1.7186  0.9126 -0.6430
  907MOL0     H19705   9.017   3.930   0.018 -0.4863 -0.6243 -2.9937
  907MOL0     H19706   9.548   2.876   0.352  0.7972 -0.9934 -0.2218
  907MOL0     H19707   9.478   2.819   0.599  4.3455 -1.3322 -2.5545
  907MOL0     H19708   9.295   3.258   1.062  1.7679 -1.2801  1.5129
  907MOL0     H19709   9.191   3.206   1.278  0.4215  1.6644 -2.5201
  907MOL0     H19710   8.880   1.681   1.320  1.7359 -0.2631 -0.9441
  907MOL0     H19711   8.949   1.434   1.245 -0.2441  0.1693 -0.0028
  907MOL0     H19712   9.019   0.960   1.431  1.9958 -1.4065 -0.9048
  907MOL0     H19713   8.989   0.728   1.398 -1.4727 -2.3595 -1.4483
  907MOL0     H19714   8.960   0.511   1.331  0.1799  2.5105  0.2086
  907MOL0     H19715   8.862   0.398   1.244  2.2680  0.4022  1.3252
  907MOL0     H19716   8.779   0.368   1.458 -0.7160 -0.0563 -2.0881
  907MOL0     H19717   8.810   0.529   1.494  0.0262  1.1521 -1.0535
  907MOL0     H19718   8.608   0.599   1.367  3.0659  1.3381  1.3935
  907MOL0     H19719   8.557   0.485   1.491 -0.0625 -1.0336 -0.5371
  907MOL0     H19720   8.525   0.290   1.362  0.7202 -1.3897 -1.8967
  907MOL0     H19721   8.436   0.429   1.297  1.1478  1.0566 -0.1376
  907MOL0     H19722   8.701   0.319   0.990  2.7700  5.5411  1.7554
  907MOL0     H19723   8.661   0.783   1.131 -0.0621  0.5670  0.2171
  907MOL0     H19724   8.701   1.028   1.126 -0.3890  1.7361  0.9528
  908MOL0     O19725   5.134   8.676  10.434  0.0753 -0.2792 -0.2191
  908MOL0     C19726   5.027   8.611  10.441 -0.0601  0.9899  0.5893
  908MOL0     O19727   5.017   8.475  10.427 -0.3726  0.1618 -0.1221
  908MOL0     C19728   5.134   8.418  10.397  0.6789  0.7307 -0.5590
  908MOL0     C19729   5.178   8.311  10.472  0.5947 -0.0404 -0.5133
  908MOL0     C19730   5.283   8.233  10.437  0.7034  0.3444  0.6935
  908MOL0     C19731   5.355   8.257  10.310  0.1084 -0.0517 -0.7664
  908MOL0     O19732   5.433   8.162  10.248  0.8886 -0.3778  0.0840
  908MOL0     C19733   5.425   8.020  10.285 -0.2934 -1.3388 -0.3119
  908MOL0     C19734   5.478   7.937  10.169  0.6430 -0.4685 -1.0222
  908MOL0     C19735   5.473   7.792  10.213 -0.7761  0.3173 -0.4912
  908MOL0     C19736   5.592   7.753  10.306  0.8398 -0.1098  0.7809
  908MOL0     C19737   5.586   7.611  10.355  0.0896 -0.5817  0.2130
  908MOL0     C19738   5.441   7.572  10.412  1.1143  0.5241  0.1994
  908MOL0     C19739   5.444   7.431  10.476 -0.1714 -0.1071 -0.1897
  908MOL0     C19740   5.509   7.430  10.617 -0.3073 -0.5758 -0.3810
  908MOL0     N19741   5.428   7.488  10.722  0.2285  0.8329  0.5646
  908MOL0     C19742   5.293   7.486  10.750  0.6040  0.0065  0.2049
  908MOL0     C19743   5.262   7.592  10.828  0.2885 -0.5745 -0.2978
  908MOL0     C19744   5.138   7.644  10.899 -0.0879  0.3419 -0.0199
  908MOL0     C19745   5.107   7.792  10.866 -0.7713  0.8791 -0.0112
  908MOL0     C19746   4.987   7.849  10.946  0.5626 -0.1009  0.0119
  908MOL0     C19747   4.946   7.987  10.904 -0.2679 -0.0499 -0.0586
  908MOL0     O19748   4.897   7.985  10.765  0.2029 -0.4160 -0.2231
  908MOL0     C19749   4.814   8.083  10.722 -0.0339  0.3643  0.8571
  908MOL0     C19750   4.742   8.056  10.603 -0.2429  0.2549 -0.4921
  908MOL0     C19751   4.657   8.162  10.560 -0.2747  0.7466 -0.1208
  908MOL0     C19752   4.624   8.268  10.637 -0.0599 -0.8122 -0.1308
  908MOL0     C19753   4.515   8.363  10.602  0.0537  0.4439  0.4259
  908MOL0     O19754   4.485   8.383  10.468 -0.1241  0.3039  0.5715
  908MOL0     C19755   4.365   8.435  10.443  0.1764 -0.4100 -0.3224
  908MOL0     C19756   4.252   8.385  10.514  0.1436 -0.2464 -0.4491
  908MOL0     C19757   4.128   8.442  10.481  0.2084 -0.1320 -0.1639
  908MOL0     C19758   4.108   8.550  10.386 -0.0263 -0.3894  0.4927
  908MOL0     O19759   3.992   8.611  10.348  0.3884  0.0854  0.0201
  908MOL0     C19760   3.872   8.573  10.422 -0.1897 -0.4290  0.2345
  908MOL0     C19761   3.756   8.670  10.385 -1.3075  0.0533 -0.2574
  908MOL0     C19762   3.795   8.827  10.395  0.3679 -0.2406 -0.3246
  908MOL0     C19763   3.733   8.902  10.510 -0.6613 -0.4542  0.1526
  908MOL0     C19764   3.699   9.043  10.479  0.1752  0.1418 -0.6538
  908MOL0     C19765   3.671   9.117  10.616  0.4567 -0.2181 -0.1205
  908MOL0     C19766   3.794   9.126  10.713  0.8647  1.0728  0.4679
  908MOL0     C19767   3.748   9.099  10.856 -0.1781  0.4614  0.8156
  908MOL0    Cl19768   3.723   8.918  10.878 -0.1763  0.2206  0.3515
  908MOL0     C19769   4.221   8.595  10.317 -0.3618 -0.5626 -0.0018
  908MOL0     C19770   4.344   8.535  10.347 -0.0793  0.1310 -0.6371
  908MOL0     O19771   4.472   8.422  10.695 -0.8504  0.2717 -0.9078
  908MOL0     C19772   4.693   8.291  10.759 -0.2304 -0.6271  0.4316
  908MOL0     C19773   4.787   8.201  10.799  0.5621  0.5122 -0.9005
  908MOL0     N19774   5.386   7.647  10.859 -0.7417  0.5628 -0.0910
  908MOL0     N19775   5.482   7.588  10.794  0.0395 -0.1229  0.8325
  908MOL0     C19776   5.306   8.362  10.235  0.1637 -0.6004  0.5581
  908MOL0     C19777   5.204   8.444  10.281  0.0425 -0.3241  0.1292
  908MOL0     C19778   4.896   8.684  10.466 -1.2134  0.7727 -1.0345
  908MOL0     C19779   4.797   8.617  10.540  0.5212  0.1209 -0.0584
  908MOL0     C19780   4.675   8.685  10.560  0.4334  0.4579 -0.9679
  908MOL0     C19781   4.664   8.822  10.528  0.0820  0.8237 -0.6646
  908MOL0     O19782   4.533   8.869  10.544 -0.1347 -0.0862  0.2410
  908MOL0     C19783   4.514   9.011  10.544  0.4256 -0.5446  0.4731
  908MOL0     C19784   4.558   9.093  10.655 -1.3040  0.0339 -0.9515
  908MOL0     C19785   4.477   9.061  10.785  0.2092  0.3913 -1.0377
  908MOL0     C19786   4.523   9.160  10.903 -0.5485  0.2018 -0.3597
  908MOL0     C19787   4.452   9.122  11.026 -0.1727  0.0266  0.2409
  908MOL0     C19788   4.381   9.100  11.122 -0.0551  0.7840  0.2981
  908MOL0     C19789   4.761   8.889  10.456 -0.2425 -0.0975 -0.6515
  908MOL0     C19790   4.876   8.815  10.421  0.0125 -1.0384 -0.3542
  908MOL0     H19791   5.122   8.259  10.549  1.6881 -3.9895 -2.1665
  908MOL0     H19792   5.305   8.158  10.512 -0.3834  0.1556  0.8386
  908MOL0     H19793   5.327   7.985  10.320 -1.0766  0.8763 -0.1199
  908MOL0     H19794   5.486   8.013  10.375  0.4117 -0.1875 -0.6818
  908MOL0     H19795   5.574   7.982  10.142  0.1097  0.8680 -0.7927
  908MOL0     H19796   5.415   7.949  10.080 -0.6638 -0.1077 -0.0732
  908MOL0     H19797   5.482   7.728  10.125 -0.7136 -0.5439  0.1175
  908MOL0     H19798   5.375   7.773  10.257 -0.8561  2.8776  0.6362
  908MOL0     H19799   5.690   7.769  10.260  0.1985  1.4239 -0.1436
  908MOL0     H19800   5.604   7.816  10.394 -1.5900  2.6325 -0.7021
  908MOL0     H19801   5.665   7.596  10.429  2.9406 -2.5106 -2.9328
  908MOL0     H19802   5.616   7.551  10.269 -2.1366  0.0635 -1.0819
  908MOL0     H19803   5.379   7.560  10.323 -1.8338 -0.8547  2.2848
  908MOL0     H19804   5.404   7.656  10.471 -0.8238  2.2879 -3.2539
  908MOL0     H19805   5.343   7.391  10.474  0.3243 -1.4319  0.1226
  908MOL0     H19806   5.499   7.366  10.407  1.4901 -1.7803  2.5342
  908MOL0     H19807   5.607   7.477  10.627 -0.3942 -0.5767  0.6149
  908MOL0     H19808   5.534   7.326  10.643 -0.1392 -0.0745  1.5895
  908MOL0     H19809   5.217   7.419  10.709 -0.5114  1.1986  0.2297
  908MOL0     H19810   5.153   7.635  11.007 -0.5417  2.5108  0.2635
  908MOL0     H19811   5.051   7.585  10.868  0.1665 -0.3252  0.5078
  908MOL0     H19812   5.084   7.801  10.760 -3.3248 -1.9911  0.1670
  908MOL0     H19813   5.192   7.856  10.892 -1.8017  2.3915 -0.2389
  908MOL0     H19814   4.902   7.783  10.929  0.8043 -0.3922 -0.0861
  908MOL0     H19815   5.015   7.844  11.052  1.9966  0.2621 -0.3266
  908MOL0     H19816   5.031   8.054  10.922 -0.0452 -0.9419  2.5934
  908MOL0     H19817   4.868   8.015  10.975  0.7220  1.4386  0.4768
  908MOL0     H19818   4.760   7.968  10.542 -1.0239 -1.2633  1.3684
  908MOL0     H19819   4.612   8.148  10.462  0.7751 -3.6089 -0.1872
  908MOL0     H19820   4.251   8.298  10.578 -0.7051 -0.8462 -1.2566
  908MOL0     H19821   4.037   8.413  10.532  0.4242 -2.3467 -0.9235
  908MOL0     H19822   3.896   8.584  10.529 -4.0594  2.5186  1.0142
  908MOL0     H19823   3.830   8.477  10.392 -0.9090  0.1873 -0.7492
  908MOL0     H19824   3.683   8.640  10.461 -0.1331 -0.0031  0.8777
  908MOL0     H19825   3.727   8.639  10.284 -0.6793 -1.7608  0.0725
  908MOL0     H19826   3.774   8.882  10.303 -0.4776  0.9587  0.5463
  908MOL0     H19827   3.902   8.836  10.415  0.0943 -2.3609  3.0287
  908MOL0     H19828   3.639   8.859  10.544 -0.5658 -0.6730  0.1466
  908MOL0     H19829   3.813   8.894  10.585 -0.5858  0.1264  0.1343
  908MOL0     H19830   3.609   9.053  10.418 -0.1136  5.9518  0.1924
  908MOL0     H19831   3.786   9.089  10.432  1.4908 -1.3084  0.2520
  908MOL0     H19832   3.597   9.059  10.672 -1.8596  3.3008  0.8208
  908MOL0     H19833   3.643   9.218  10.586  1.2505 -0.5789 -2.2807
  908MOL0     H19834   3.875   9.058  10.682  0.3258  1.7472 -2.7919
  908MOL0     H19835   3.840   9.225  10.702  3.5822 -0.2925 -1.9079
  908MOL0     H19836   3.655   9.153  10.880 -1.6536 -0.5491 -2.1285
  908MOL0     H19837   3.823   9.135  10.927 -2.6350  0.6299  3.5132
  908MOL0     H19838   4.213   8.683  10.254 -1.0001 -0.8861 -0.3834
  908MOL0     H19839   4.430   8.570  10.290  1.0412 -1.0831  0.2428
  908MOL0     H19840   4.668   8.380  10.815  0.9383  0.5647 -0.8739
  908MOL0     H19841   4.828   8.212  10.899 -1.8505  2.7070 -0.0384
  908MOL0     H19842   5.343   8.367  10.133 -2.1882 -1.7445 -0.4031
  908MOL0     H19843   5.162   8.528  10.226 -2.0221 -1.9211 -0.8592
  908MOL0     H19844   4.816   8.517  10.578  2.3214  1.4307  2.8342
  908MOL0     H19845   4.586   8.637  10.601 -0.6948  3.1599  0.0129
  908MOL0     H19846   4.406   9.027  10.532  0.4646  1.0684  1.9209
  908MOL0     H19847   4.550   9.053  10.449 -0.1692 -2.1896 -0.5251
  908MOL0     H19848   4.665   9.087  10.674 -1.8428 -1.4568  2.5028
  908MOL0     H19849   4.523   9.190  10.618 -2.0110  1.8900  3.7447
  908MOL0     H19850   4.498   8.957  10.813 -0.4499 -0.2823 -2.8987
  908MOL0     H19851   4.370   9.076  10.768 -0.9598 -3.1362  1.8339
  908MOL0     H19852   4.630   9.144  10.918 -0.6829 -1.5925 -0.9852
  908MOL0     H19853   4.504   9.263  10.871 -0.2138  0.1783 -0.6434
  908MOL0     H19854   4.319   9.075  11.205  0.5435 -0.3555  0.4243
  908MOL0     H19855   4.748   8.988  10.414  1.2768  0.1131 -0.6504
  908MOL0     H19856   4.950   8.859  10.355 -0.8304  0.3528 -0.4078
  909MOL0     O19857   1.950  10.494   8.673  0.0740  1.0285 -0.9777
  909MOL0     C19858   1.993  10.434   8.572 -0.5037 -0.7028 -0.0363
  909MOL0     O19859   1.920  10.422   8.456 -0.9097  0.0769 -0.0156
  909MOL0     C19860   1.790  10.469   8.437 -0.3051 -0.6402  0.4108
  909MOL0     C19861   1.702  10.407   8.358 -0.5023 -0.3978  0.3508
  909MOL0     C19862   1.585  10.461   8.309 -0.4852 -0.3622  0.2825
  909MOL0     C19863   1.558  10.592   8.353 -0.6287 -0.4253  0.4243
  909MOL0     O19864   1.438  10.640   8.314 -0.5823  0.2877  0.2693
  909MOL0     C19865   1.445  10.768   8.251 -0.5289  0.2757  0.1543
  909MOL0     C19866   1.338  10.799   8.141 -0.3118  0.1527 -0.1164
  909MOL0     C19867   1.340  10.700   8.021  0.1438  0.7884  0.2602
  909MOL0     C19868   1.462  10.707   7.939  0.5924  0.3451  0.5222
  909MOL0     C19869   1.481  10.586   7.843  0.7384 -0.9771 -0.4069
  909MOL0     C19870   1.534  10.452   7.902 -1.0544 -1.0877 -1.1226
  909MOL0     C19871   1.466  10.341   7.832  0.8404  1.4763 -0.3065
  909MOL0     C19872   1.319  10.335   7.867 -0.4354  1.0503 -0.5469
  909MOL0     N19873   1.257  10.207   7.834 -0.5633  0.2416 -0.7251
  909MOL0     C19874   1.275  10.105   7.924 -0.0972 -0.1698 -0.7656
  909MOL0     C19875   1.205   9.999   7.867 -0.2628 -0.1390  0.0182
  909MOL0     C19876   1.193   9.863   7.935 -0.1588 -0.7033 -0.3571
  909MOL0     C19877   1.331   9.813   7.984  0.0190 -0.1799  0.2979
  909MOL0     C19878   1.316   9.662   8.024 -0.0882  0.3092 -0.6635
  909MOL0     C19879   1.428   9.609   8.106 -0.2259  0.0969 -0.2057
  909MOL0     O19880   1.459   9.470   8.091 -0.0877 -0.5741  0.6891
  909MOL0     C19881   1.558   9.415   8.171 -0.3569  0.4520  0.0028
  909MOL0     C19882   1.591   9.276   8.149 -0.9459  0.5985  0.1907
  909MOL0     C19883   1.696   9.212   8.210  0.0932 -0.0153 -0.3497
  909MOL0     C19884   1.766   9.278   8.307 -0.6514 -0.3649  0.8650
  909MOL0     C19885   1.873   9.212   8.379  0.8203 -0.7174  0.4254
  909MOL0     O19886   1.946   9.288   8.454  0.3114  0.8133 -0.1243
  909MOL0     C19887   2.049   9.217   8.515  0.4234  0.4229  0.0580
  909MOL0     C19888   2.180   9.222   8.460 -0.3101 -0.0062 -0.0754
  909MOL0     C19889   2.288   9.165   8.535 -0.4894  0.2524  0.0784
  909MOL0     C19890   2.271   9.111   8.655  0.4473  0.9274  0.2103
  909MOL0     O19891   2.368   9.068   8.744  0.2063 -0.1048  0.3587
  909MOL0     C19892   2.352   8.941   8.814 -0.1442 -0.3347 -0.6483
  909MOL0     C19893   2.495   8.879   8.842  0.4853  0.0810  0.5029
  909MOL0     C19894   2.568   8.849   8.709  0.1382  0.3967  0.2257
  909MOL0     C19895   2.595   8.966   8.613 -0.8711 -0.3346  0.4102
  909MOL0     C19896   2.722   8.926   8.523  0.3777 -0.2925 -0.4201
  909MOL0     C19897   2.756   9.025   8.416 -1.2096  0.6280  0.7296
  909MOL0     C19898   2.875   8.979   8.332 -0.2341  0.1845  0.2257
  909MOL0     C19899   2.863   8.840   8.260 -0.5602  0.1019  0.3428
  909MOL0    Cl19900   3.003   8.809   8.153 -0.1048  0.2791 -0.2753
  909MOL0     C19901   2.138   9.097   8.702 -0.0359 -0.5925 -0.0932
  909MOL0     C19902   2.027   9.141   8.627 -1.3197  0.6771  0.2617
  909MOL0     O19903   1.906   9.107   8.343  0.8093  0.8440  0.2799
  909MOL0     C19904   1.733   9.414   8.332 -0.3590 -0.0283  0.3544
  909MOL0     C19905   1.640   9.484   8.261  0.0807 -0.4318 -0.3304
  909MOL0     N19906   1.160  10.042   7.743 -0.5343 -0.2354  0.0579
  909MOL0     N19907   1.178  10.167   7.727 -0.6974  0.3533 -0.5020
  909MOL0     C19908   1.652  10.672   8.419  0.2921  0.1143 -0.2501
  909MOL0     C19909   1.766  10.601   8.463  0.4082  0.8148 -0.2616
  909MOL0     C19910   2.127  10.361   8.579  1.3690  0.9160  0.6384
  909MOL0     C19911   2.199  10.355   8.698 -0.9108  0.4797 -0.2296
  909MOL0     C19912   2.304  10.262   8.709  0.4763 -0.3882  0.2808
  909MOL0     C19913   2.343  10.171   8.609 -0.0434 -0.1710  0.6701
  909MOL0     O19914   2.437  10.074   8.618 -0.2698  0.0234  0.2537
  909MOL0     C19915   2.494  10.034   8.750 -0.8545 -0.0709 -0.0796
  909MOL0     C19916   2.631  10.102   8.762  0.0577  0.0933 -0.0939
  909MOL0     C19917   2.669  10.170   8.886  0.1984 -0.0595  0.4875
  909MOL0     C19918   2.815  10.230   8.877 -0.2670 -0.2942  0.2810
  909MOL0     C19919   2.853  10.304   8.997  0.9238 -0.3043 -0.9838
  909MOL0     C19920   2.885  10.350   9.103 -0.8606  0.3546  1.3761
  909MOL0     C19921   2.273  10.184   8.488  1.0499 -0.1972  0.7786
  909MOL0     C19922   2.166  10.271   8.477 -0.2315 -0.3538  0.4293
  909MOL0     H19923   1.731  10.307   8.326  1.2301 -0.3112  1.4869
  909MOL0     H19924   1.527  10.401   8.240  0.6207 -1.4893  0.3023
  909MOL0     H19925   1.547  10.798   8.225 -0.8352 -1.3947 -3.7454
  909MOL0     H19926   1.409  10.828   8.335 -0.8390 -1.2077  1.1153
  909MOL0     H19927   1.345  10.903   8.108 -1.7067 -0.3556 -2.1898
  909MOL0     H19928   1.245  10.779   8.195 -1.0776 -2.4533 -2.1816
  909MOL0     H19929   1.253  10.719   7.958  3.3644 -1.2988 -5.4934
  909MOL0     H19930   1.343  10.599   8.061  4.1718  1.2608  1.5568
  909MOL0     H19931   1.460  10.797   7.877 -2.6832  0.2632  0.3475
  909MOL0     H19932   1.549  10.712   8.006 -0.6671  0.5872  2.2165
  909MOL0     H19933   1.554  10.622   7.770  2.1568 -0.7484  1.0555
  909MOL0     H19934   1.390  10.567   7.785 -0.8492 -6.1705  3.0489
  909MOL0     H19935   1.515  10.455   8.010 -1.0102  0.3327 -1.1376
  909MOL0     H19936   1.641  10.456   7.883 -0.8582 -0.7399 -0.0429
  909MOL0     H19937   1.467  10.355   7.724 -1.5990 -1.9084 -0.9337
  909MOL0     H19938   1.513  10.245   7.857 -1.4396 -0.0701 -1.6020
  909MOL0     H19939   1.270  10.408   7.802  1.8667  4.2976  1.0789
  909MOL0     H19940   1.301  10.355   7.973  2.3663 -1.9618  0.6757
  909MOL0     H19941   1.317  10.105   8.024 -1.2480  1.0394 -0.2507
  909MOL0     H19942   1.155   9.805   7.850 -2.0680  1.0455 -0.7849
  909MOL0     H19943   1.124   9.865   8.020 -0.5718 -2.3942 -0.6068
  909MOL0     H19944   1.357   9.862   8.078 -0.5437 -0.1329  0.4377
  909MOL0     H19945   1.413   9.831   7.914  0.8024 -1.1156  0.9464
  909MOL0     H19946   1.221   9.653   8.078  1.5860  0.7484  2.6474
  909MOL0     H19947   1.318   9.597   7.936  1.2705 -1.7085  0.7659
  909MOL0     H19948   1.416   9.645   8.209  0.9419  0.0510 -0.0402
  909MOL0     H19949   1.516   9.665   8.073  0.7184  1.4472  3.9820
  909MOL0     H19950   1.530   9.213   8.087 -0.4140 -2.2981  2.3974
  909MOL0     H19951   1.714   9.107   8.194 -2.0270 -1.6672  5.4483
  909MOL0     H19952   2.175   9.275   8.365 -1.5950 -1.0761 -0.6286
  909MOL0     H19953   2.392   9.169   8.503 -0.5027 -2.1425 -0.4372
  909MOL0     H19954   2.289   8.873   8.756  2.6693 -0.7838 -3.4455
  909MOL0     H19955   2.298   8.972   8.904 -0.3850  0.4434 -1.0489
  909MOL0     H19956   2.472   8.783   8.890  0.9988 -0.2806  0.0412
  909MOL0     H19957   2.554   8.935   8.916 -0.3999  1.3170  0.3049
  909MOL0     H19958   2.518   8.771   8.651  0.7079  1.8476 -2.3788
  909MOL0     H19959   2.667   8.816   8.742  0.3760 -2.0455 -2.5581
  909MOL0     H19960   2.510   8.986   8.548 -0.7660  0.1003  0.4024
  909MOL0     H19961   2.608   9.058   8.671 -2.3931  0.4523 -0.4473
  909MOL0     H19962   2.691   8.833   8.474 -3.2658  0.2172  0.6050
  909MOL0     H19963   2.805   8.897   8.587 -0.9183  0.8727  1.9039
  909MOL0     H19964   2.776   9.122   8.461 -0.5727  1.9490 -2.1704
  909MOL0     H19965   2.677   9.035   8.341 -0.0042 -3.5256 -1.4104
  909MOL0     H19966   2.891   9.056   8.255  0.6394  1.2715  1.4529
  909MOL0     H19967   2.967   8.985   8.390  0.6338  2.2999 -1.2501
  909MOL0     H19968   2.780   8.851   8.189  0.7046  1.5874 -0.9651
  909MOL0     H19969   2.840   8.754   8.324 -3.3638  0.0092 -0.6359
  909MOL0     H19970   2.115   9.062   8.802 -1.3713  1.3646  0.3214
  909MOL0     H19971   1.932   9.155   8.678 -1.6396 -1.0401  0.2150
  909MOL0     H19972   1.789   9.475   8.402 -0.2227  0.1334  0.1072
  909MOL0     H19973   1.622   9.591   8.268 -0.7446 -0.3614 -2.5738
  909MOL0     H19974   1.635  10.777   8.443 -0.2993  0.0816 -0.4954
  909MOL0     H19975   1.829  10.645   8.539 -1.7108 -0.0482  2.1157
  909MOL0     H19976   2.174  10.406   8.790 -1.5497  1.8791 -1.1351
  909MOL0     H19977   2.352  10.255   8.806  1.6958 -2.0294 -0.3880
  909MOL0     H19978   2.516   9.927   8.752  2.8181  0.5550  1.2607
  909MOL0     H19979   2.425  10.056   8.832  0.5044  2.2514  0.5381
  909MOL0     H19980   2.701  10.023   8.733  0.8362  1.4203 -2.0680
  909MOL0     H19981   2.630  10.178   8.683 -2.7777  0.4704  0.1906
  909MOL0     H19982   2.672  10.102   8.972 -1.7694 -1.9578 -0.8463
  909MOL0     H19983   2.594  10.246   8.910 -0.5814  0.0935 -2.1225
  909MOL0     H19984   2.889  10.154   8.849 -0.7453 -0.7156  0.1414
  909MOL0     H19985   2.803  10.304   8.798 -3.7203  0.6398  1.4770
  909MOL0     H19986   2.925  10.380   9.198  0.9944  2.1887  0.0950
  909MOL0     H19987   2.301  10.115   8.408  0.0794  3.2618 -2.8939
  909MOL0     H19988   2.116  10.279   8.382  2.4481  0.8527 -0.9965
  910MOL0     O19989   9.577   4.584   9.993 -0.7115 -0.1035 -0.4544
  910MOL0     C19990   9.496   4.505  10.044 -0.3948 -1.2278  0.6148
  910MOL0     O19991   9.399   4.545  10.138 -0.0538  1.1638 -0.0641
  910MOL0     C19992   9.394   4.676  10.177 -0.5990 -0.1359 -0.1807
  910MOL0     C19993   9.423   4.719  10.313  0.0116  0.4713  0.7376
  910MOL0     C19994   9.411   4.854  10.351  0.4311 -0.2936 -0.5182
  910MOL0     C19995   9.372   4.949  10.257 -0.0703 -0.0578 -0.6877
  910MOL0     O19996   9.347   5.084  10.284 -0.2917 -0.1866  0.1825
  910MOL0     C19997   9.384   5.142  10.413 -0.7469  0.6333  0.4478
  910MOL0     C19998   9.277   5.111  10.506  0.3926  0.1997 -0.2468
  910MOL0     C19999   9.161   5.194  10.481  0.7808  0.3767  0.4960
  910MOL0     C20000   9.028   5.158  10.558  0.8958 -0.1239  0.1258
  910MOL0     C20001   8.906   5.244  10.525 -0.1989  0.3776 -0.6731
  910MOL0     C20002   8.834   5.199  10.394  0.5876  0.4751  0.1755
  910MOL0     C20003   8.754   5.071  10.427  0.1440  0.1319  0.5322
  910MOL0     C20004   8.629   5.030  10.347 -1.1869  0.9427 -0.0347
  910MOL0     N20005   8.664   5.026  10.211  0.2133  0.2207  0.8046
  910MOL0     C20006   8.751   4.946  10.141 -0.5119 -0.3130  0.5120
  910MOL0     C20007   8.751   4.978  10.011  0.1002 -1.7129 -0.5396
  910MOL0     C20008   8.830   4.918   9.898 -0.3377  0.0625 -0.2190
  910MOL0     C20009   8.982   4.943   9.930  0.5601  0.0172 -0.8932
  910MOL0     C20010   9.073   4.940   9.807  0.5309  0.9881  0.3968
  910MOL0     C20011   9.061   4.802   9.743 -0.0733  0.3639  0.1325
  910MOL0     O20012   9.121   4.699   9.825 -0.3113  0.3092 -0.2690
  910MOL0     C20013   9.089   4.572   9.785 -0.0554 -0.3433  0.3885
  910MOL0     C20014   9.192   4.477   9.802 -0.1151  0.6652  1.1216
  910MOL0     C20015   9.159   4.346   9.785 -0.0950 -0.3848 -0.7282
  910MOL0     C20016   9.023   4.301   9.744 -1.0984  0.3809 -0.7374
  910MOL0     C20017   8.989   4.158   9.733  1.7936  0.4825  0.4729
  910MOL0     O20018   8.858   4.123   9.751 -0.5182 -0.0512  0.4603
  910MOL0     C20019   8.799   4.016   9.693  0.1783  0.7704 -0.7181
  910MOL0     C20020   8.834   3.966   9.564  0.5717 -0.5809 -0.5146
  910MOL0     C20021   8.779   3.845   9.518 -1.0217 -0.2462 -0.7894
  910MOL0     C20022   8.698   3.777   9.604  0.0734 -0.5354  0.7805
  910MOL0     O20023   8.632   3.656   9.566  0.0283  0.3389  0.4561
  910MOL0     C20024   8.641   3.610   9.431  1.0534 -0.1650  0.3948
  910MOL0     C20025   8.752   3.505   9.416 -0.4531 -0.1490  0.5435
  910MOL0     C20026   8.730   3.407   9.302  0.0339  0.3941  0.3703
  910MOL0     C20027   8.610   3.320   9.319  0.9891 -0.9816  0.4044
  910MOL0     C20028   8.604   3.209   9.207 -0.5919 -1.0701  0.0810
  910MOL0     C20029   8.503   3.106   9.246 -0.4768 -0.2860 -0.9840
  910MOL0     C20030   8.518   2.968   9.188  0.3327  0.3307 -0.3020
  910MOL0     C20031   8.509   2.856   9.291  0.1469 -0.5723  0.4280
  910MOL0    Cl20032   8.655   2.838   9.389 -0.5265  0.0723 -0.0366
  910MOL0     C20033   8.657   3.828   9.721  0.1132 -0.2588 -1.2951
  910MOL0     C20034   8.701   3.945   9.782  0.8381 -1.1025  0.1526
  910MOL0     O20035   9.084   4.076   9.727  0.7615 -0.4573  1.3096
  910MOL0     C20036   8.927   4.395   9.723  0.4400 -1.3715  0.7579
  910MOL0     C20037   8.958   4.527   9.754 -0.3292  0.3637  0.3292
  910MOL0     N20038   8.670   5.093  10.009  0.1265  0.0361 -0.6865
  910MOL0     N20039   8.613   5.117  10.125 -0.2645  0.2807  0.2494
  910MOL0     C20040   9.334   4.905  10.132  0.5248 -0.5725 -0.6472
  910MOL0     C20041   9.338   4.773  10.091 -0.6839 -0.7334 -0.1667
  910MOL0     C20042   9.503   4.367   9.994 -0.5342  0.0995  0.1812
  910MOL0     C20043   9.410   4.269  10.037  0.4435  1.1999 -0.0693
  910MOL0     C20044   9.414   4.139   9.988 -0.3467  0.2399  0.0009
  910MOL0     C20045   9.503   4.105   9.893 -0.5062  0.8649  0.1387
  910MOL0     O20046   9.513   3.975   9.847  0.4495  0.4666 -0.1156
  910MOL0     C20047   9.396   3.940   9.771  0.3845  0.5161 -0.0788
  910MOL0     C20048   9.369   3.788   9.767  0.5829  0.6753 -0.0747
  910MOL0     C20049   9.272   3.749   9.886 -0.2393  0.0273  1.5810
  910MOL0     C20050   9.221   3.606   9.855 -0.1335 -0.3250 -0.0998
  910MOL0     C20051   9.104   3.620   9.773  0.0585  0.3150  0.6786
  910MOL0     C20052   9.018   3.645   9.685  1.1779  0.4029 -1.1586
  910MOL0     C20053   9.591   4.202   9.850  0.4138  0.3363  0.4404
  910MOL0     C20054   9.588   4.332   9.893 -0.7690 -0.4211 -0.0618
  910MOL0     H20055   9.462   4.648  10.386 -1.2126  0.9964  1.9551
  910MOL0     H20056   9.444   4.885  10.450  1.7169 -1.0894 -0.6752
  910MOL0     H20057   9.388   5.249  10.394  0.8801  0.8274  1.6987
  910MOL0     H20058   9.479   5.100  10.445 -1.5248 -0.5518  1.2900
  910MOL0     H20059   9.317   5.117  10.608 -0.9098  0.7669  0.2561
  910MOL0     H20060   9.265   5.002  10.510  2.4783 -0.1184 -1.2662
  910MOL0     H20061   9.135   5.194  10.374  1.8362 -1.8923  0.1988
  910MOL0     H20062   9.197   5.295  10.502 -0.6879  1.1554 -0.4987
  910MOL0     H20063   9.017   5.051  10.536  3.3583 -0.1466 -1.3554
  910MOL0     H20064   9.045   5.164  10.666  1.1337  2.0309  0.0016
  910MOL0     H20065   8.939   5.347  10.511 -2.5949  1.0312 -1.9101
  910MOL0     H20066   8.837   5.251  10.609 -0.5786  2.8332 -1.1296
  910MOL0     H20067   8.894   5.208  10.304  0.2887 -3.2339 -0.5288
  910MOL0     H20068   8.761   5.277  10.369  0.3383  0.4319  0.7496
  910MOL0     H20069   8.830   4.995  10.410 -1.1460 -1.1079  0.0631
  910MOL0     H20070   8.730   5.077  10.534  0.0318  2.7754  0.4338
  910MOL0     H20071   8.541   5.092  10.365 -1.6946  0.3433 -0.4454
  910MOL0     H20072   8.612   4.926  10.376  3.8143  0.0083  0.4227
  910MOL0     H20073   8.794   4.858  10.187 -0.5264 -0.3393  0.4746
  910MOL0     H20074   8.802   4.971   9.806 -1.4708  3.2972  1.7949
  910MOL0     H20075   8.815   4.811   9.887 -2.1035  0.3466 -0.8387
  910MOL0     H20076   9.020   4.863   9.994 -2.5661 -0.5540  0.4401
  910MOL0     H20077   8.997   5.033   9.990 -1.8693 -0.8416  1.1498
  910MOL0     H20078   9.040   5.006   9.727  0.4867  0.0115 -0.4116
  910MOL0     H20079   9.177   4.956   9.837  0.1930  0.6656  1.8030
  910MOL0     H20080   9.111   4.802   9.646  2.3375 -1.6215  1.2524
  910MOL0     H20081   8.964   4.762   9.710  1.3750 -2.5371 -1.0340
  910MOL0     H20082   9.291   4.504   9.836  1.0195 -3.0078  1.2169
  910MOL0     H20083   9.236   4.273   9.805 -0.5154 -0.6188  0.0609
  910MOL0     H20084   8.903   4.014   9.494 -0.0247 -1.4893 -1.7766
  910MOL0     H20085   8.812   3.807   9.421  0.2993  0.7626 -0.7689
  910MOL0     H20086   8.650   3.689   9.355  0.2476 -2.2116 -1.9670
  910MOL0     H20087   8.545   3.564   9.407  2.2505 -0.7291 -4.6162
  910MOL0     H20088   8.739   3.453   9.512 -3.2912  1.2246  1.0079
  910MOL0     H20089   8.848   3.552   9.397 -0.9007  0.7122  0.3618
  910MOL0     H20090   8.819   3.343   9.304  0.4571  0.9750  0.2960
  910MOL0     H20091   8.720   3.461   9.208 -4.0597  0.9927  0.9565
  910MOL0     H20092   8.611   3.276   9.419 -1.6607 -3.7374 -0.6251
  910MOL0     H20093   8.523   3.383   9.298  2.3303  1.0513  0.7227
  910MOL0     H20094   8.703   3.164   9.206  1.4685  2.7955  3.2645
  910MOL0     H20095   8.592   3.242   9.104 -0.9511 -0.0183  0.4476
  910MOL0     H20096   8.405   3.149   9.224 -0.1776  1.2221  0.4111
  910MOL0     H20097   8.513   3.103   9.355 -1.3699  0.2883 -0.8811
  910MOL0     H20098   8.443   2.969   9.108  2.0640  1.1953 -2.0129
  910MOL0     H20099   8.616   2.961   9.139  0.0277  1.1746 -1.0843
  910MOL0     H20100   8.501   2.761   9.237  0.0645  0.1152 -0.7795
  910MOL0     H20101   8.432   2.866   9.368  0.4582 -2.0845  0.9805
  910MOL0     H20102   8.598   3.760   9.782 -1.7194  2.0228 -0.3502
  910MOL0     H20103   8.663   3.989   9.873 -1.2402  2.4686 -2.1874
  910MOL0     H20104   8.821   4.381   9.704  0.0444  0.3299  1.5090
  910MOL0     H20105   8.872   4.592   9.759 -0.8245 -0.3335  3.4951
  910MOL0     H20106   9.299   4.981  10.062  0.2923  2.5370  2.5651
  910MOL0     H20107   9.297   4.739   9.997 -0.3123 -3.4207  0.5506
  910MOL0     H20108   9.331   4.303  10.103 -1.2053 -1.7938 -0.3274
  910MOL0     H20109   9.345   4.072  10.038 -0.2056  0.8322  1.0153
  910MOL0     H20110   9.430   3.961   9.669 -0.6172 -0.9665 -0.7565
  910MOL0     H20111   9.303   3.990   9.797 -0.0930 -0.6105  0.4641
  910MOL0     H20112   9.327   3.757   9.671 -2.1437  2.7417  0.3505
  910MOL0     H20113   9.460   3.730   9.782 -2.3939 -4.3907  0.8479
  910MOL0     H20114   9.187   3.818   9.881  0.6073  1.2288  2.7873
  910MOL0     H20115   9.319   3.770   9.983  3.4228  2.0190 -0.4143
  910MOL0     H20116   9.294   3.551   9.794 -0.9815  2.8140 -4.3693
  910MOL0     H20117   9.194   3.561   9.951 -1.5316 -0.4283 -0.5275
  910MOL0     H20118   8.940   3.662   9.613  0.3780 -0.4982 -0.5233
  910MOL0     H20119   9.669   4.168   9.783  1.9749 -2.5927  3.4807
  910MOL0     H20120   9.664   4.399   9.854  1.5974 -2.9906 -0.2143
  911MOL0     O20121  10.367   6.263   7.338 -0.6406  0.6594 -0.0288
  911MOL0     C20122  10.273   6.190   7.342 -0.4934  0.3992  0.1872
  911MOL0     O20123  10.223   6.149   7.462 -0.4480 -0.4189  0.4626
  911MOL0     C20124  10.292   6.131   7.575 -0.8452 -0.3212 -0.1037
  911MOL0     C20125  10.426   6.156   7.598  0.1289  0.8376 -0.0708
  911MOL0     C20126  10.484   6.130   7.719  0.4920 -0.7361 -0.2682
  911MOL0     C20127  10.412   6.089   7.835 -0.2904  0.4387  0.4283
  911MOL0     O20128  10.446   6.106   7.964  0.2207  0.2410 -0.5713
  911MOL0     C20129  10.565   6.179   8.006  0.2005 -0.0750 -0.2555
  911MOL0     C20130  10.584   6.197   8.157 -0.2897 -0.2171  0.1881
  911MOL0     C20131  10.493   6.293   8.228 -1.0947  0.4018  0.4555
  911MOL0     C20132  10.502   6.268   8.378  1.0314 -0.1455  0.6316
  911MOL0     C20133  10.403   6.376   8.456 -0.2640 -0.7205  0.7990
  911MOL0     C20134  10.383   6.334   8.610 -0.7322 -0.3713 -0.1133
  911MOL0     C20135  10.288   6.429   8.689 -0.5872 -0.1670 -0.5478
  911MOL0     C20136  10.330   6.576   8.672  0.0394  0.1219  0.4137
  911MOL0     N20137  10.467   6.599   8.715  1.1915 -0.1781  0.4848
  911MOL0     C20138  10.532   6.566   8.844 -0.2958  0.4685 -0.6368
  911MOL0     C20139  10.658   6.583   8.804  0.0927 -0.2477 -0.7111
  911MOL0     C20140  10.769   6.564   8.901  0.1788 -0.5549  0.4854
  911MOL0     C20141  10.785   6.689   8.992  0.3339  0.2457 -0.2436
  911MOL0     C20142  10.927   6.745   9.005 -0.0015 -0.1510 -0.5648
  911MOL0     C20143  10.948   6.836   9.124  0.2247  0.6633  0.0920
  911MOL0     O20144  10.836   6.927   9.134  0.8336 -0.1111  0.1873
  911MOL0     C20145  10.849   7.039   9.219  0.3900  1.2106  0.1472
  911MOL0     C20146  10.938   7.044   9.323 -0.2360  0.4691  0.6165
  911MOL0     C20147  10.922   7.147   9.421 -0.3788  0.2203  0.7790
  911MOL0     C20148  10.819   7.245   9.405  0.1543 -0.1290 -0.5921
  911MOL0     C20149  10.804   7.363   9.494 -0.1695  0.6039 -0.0661
  911MOL0     O20150  10.686   7.428   9.487  0.4581  0.2606 -0.1266
  911MOL0     C20151  10.650   7.536   9.575 -1.2641  0.9974  0.0887
  911MOL0     C20152  10.517   7.529   9.633  0.4527  0.3942  0.9985
  911MOL0     C20153  10.465   7.649   9.698 -0.3405  0.2339  0.1716
  911MOL0     C20154  10.544   7.759   9.703  0.3550 -0.1148 -0.4158
  911MOL0     O20155  10.497   7.874   9.764  0.0811  0.5390 -0.3252
  911MOL0     C20156  10.447   7.859   9.903 -0.2359 -0.1304 -0.1041
  911MOL0     C20157  10.289   7.842   9.899 -0.2440  0.4564 -0.0334
  911MOL0     C20158  10.219   7.964   9.844  1.1014 -0.5534 -0.3633
  911MOL0     C20159  10.069   7.974   9.883  0.3076  0.1947  0.0647
  911MOL0     C20160  10.003   8.085   9.799  0.2107 -0.3318  0.3574
  911MOL0     C20161   9.848   8.083   9.821  0.4380  0.5904 -0.1386
  911MOL0     C20162   9.799   8.122   9.965  0.3171 -1.6587 -0.1408
  911MOL0     C20163   9.844   8.269  10.000 -1.0693 -0.6151 -0.0023
  911MOL0    Cl20164   9.780   8.388   9.879  0.1915 -0.0126  0.6109
  911MOL0     C20165  10.676   7.757   9.651  0.1668 -0.3194 -0.3639
  911MOL0     C20166  10.736   7.645   9.601  0.4782 -0.0675  0.4870
  911MOL0     O20167  10.891   7.387   9.567  0.0882  0.6035  0.0160
  911MOL0     C20168  10.732   7.237   9.293 -0.0080  0.0522  0.1898
  911MOL0     C20169  10.748   7.130   9.213  0.0976  0.8889 -0.0963
  911MOL0     N20170  10.675   6.629   8.675 -0.4972 -0.2410  0.2070
  911MOL0     N20171  10.554   6.635   8.619 -0.2204 -0.3446 -0.7556
  911MOL0     C20172  10.274   6.065   7.807  0.2381 -1.1627  0.0945
  911MOL0     C20173  10.219   6.096   7.683 -0.0785 -0.5057  0.5484
  911MOL0     C20174  10.196   6.172   7.218 -0.8706  0.3581 -1.0752
  911MOL0     C20175  10.065   6.117   7.220  0.2629  0.1501 -0.3349
  911MOL0     C20176  10.002   6.077   7.093 -0.2616 -0.2824  0.4066
  911MOL0     C20177  10.068   6.096   6.968  0.8167 -0.6577 -0.4327
  911MOL0     O20178  10.010   6.058   6.850  0.2992 -0.3465 -0.3702
  911MOL0     C20179   9.877   6.112   6.818  1.0686 -0.9451  0.4994
  911MOL0     C20180   9.878   6.102   6.665 -0.1212 -0.7403 -0.6276
  911MOL0     C20181   9.759   6.160   6.596 -1.0153 -0.2131 -0.2194
  911MOL0     C20182   9.768   6.131   6.442 -0.1291  0.5122 -0.8897
  911MOL0     C20183   9.722   6.234   6.353 -0.0885 -0.0785 -1.0392
  911MOL0     C20184   9.681   6.314   6.272 -0.0360 -1.1062  0.2459
  911MOL0     C20185  10.193   6.149   6.973  0.9541  0.4115  0.2212
  911MOL0     C20186  10.263   6.175   7.094  0.2176 -0.2375 -0.0986
  911MOL0     H20187  10.496   6.206   7.531  0.9692 -0.0926  0.0979
  911MOL0     H20188  10.586   6.158   7.742  0.6228 -0.8945 -0.6453
  911MOL0     H20189  10.561   6.281   7.966  0.0985  0.1475  0.3032
  911MOL0     H20190  10.654   6.123   7.978 -0.5098 -1.4540  0.1630
  911MOL0     H20191  10.683   6.238   8.182  0.9515 -2.5955 -0.4612
  911MOL0     H20192  10.586   6.097   8.200  1.1122  0.1257  0.9856
  911MOL0     H20193  10.393   6.277   8.187 -0.5495  0.0011 -0.7352
  911MOL0     H20194  10.524   6.398   8.217 -0.0323 -0.1397 -2.3961
  911MOL0     H20195  10.464   6.168   8.400 -1.0275  0.8372  1.8386
  911MOL0     H20196  10.607   6.265   8.409  1.1627 -3.1476  0.2416
  911MOL0     H20197  10.308   6.387   8.404  0.5254 -0.7443 -0.7184
  911MOL0     H20198  10.462   6.467   8.441 -0.7002 -0.9718 -4.3526
  911MOL0     H20199  10.483   6.326   8.653  0.9832  3.1958 -2.9321
  911MOL0     H20200  10.338   6.235   8.614  4.4558 -3.0212  1.1876
  911MOL0     H20201  10.183   6.420   8.663 -1.2993 -0.7275  2.1672
  911MOL0     H20202  10.289   6.407   8.796 -2.7050  0.8260 -0.2811
  911MOL0     H20203  10.260   6.649   8.713  1.9704  2.8898 -0.8928
  911MOL0     H20204  10.324   6.603   8.566  5.8770  2.0089  0.1824
  911MOL0     H20205  10.483   6.544   8.939 -0.1389 -1.3107 -0.9309
  911MOL0     H20206  10.859   6.549   8.841  0.3183  0.8050  0.3086
  911MOL0     H20207  10.749   6.473   8.957  1.6958 -1.1191  0.1565
  911MOL0     H20208  10.768   6.644   9.090 -0.0221  1.4473  0.2677
  911MOL0     H20209  10.708   6.763   8.970  0.2527 -0.1466 -1.3728
  911MOL0     H20210  10.987   6.654   9.008 -0.7863 -0.7418 -1.8143
  911MOL0     H20211  10.955   6.792   8.910 -0.3195 -2.0308 -1.6380
  911MOL0     H20212  11.042   6.891   9.112  0.7132 -0.1804 -0.0510
  911MOL0     H20213  10.949   6.775   9.215  3.0631 -1.3659 -1.1615
  911MOL0     H20214  11.015   6.968   9.336  0.2043  0.9725  0.9781
  911MOL0     H20215  10.991   7.170   9.501  0.4973  0.8009 -0.1120
  911MOL0     H20216  10.461   7.435   9.628 -1.2940  1.3989  0.8376
  911MOL0     H20217  10.363   7.633   9.730 -1.1232  1.6999 -1.4148
  911MOL0     H20218  10.478   7.938   9.973 -1.2972  0.0448  0.1841
  911MOL0     H20219  10.481   7.765   9.947  0.0547  0.9966  2.3007
  911MOL0     H20220  10.250   7.828  10.001  1.5292 -1.8572  0.4026
  911MOL0     H20221  10.251   7.754   9.848 -1.6849  0.8741  0.2712
  911MOL0     H20222  10.235   7.988   9.739 -2.5172  1.3948 -0.6265
  911MOL0     H20223  10.269   8.045   9.898 -0.9621  0.2748  0.3988
  911MOL0     H20224  10.037   7.877   9.845 -0.5811  0.9677 -1.2465
  911MOL0     H20225  10.045   7.986   9.990 -0.2227  0.2619 -0.0594
  911MOL0     H20226  10.025   8.078   9.692 -1.5604 -2.6330  0.0471
  911MOL0     H20227  10.030   8.182   9.842 -1.8125  0.3390  0.2311
  911MOL0     H20228   9.811   7.984   9.792  1.8883  0.0939 -0.4142
  911MOL0     H20229   9.812   8.156   9.748 -2.1675  0.5034  0.9617
  911MOL0     H20230   9.690   8.120   9.966  0.2449  0.2349 -0.6773
  911MOL0     H20231   9.830   8.052  10.043 -0.0304 -0.5461  1.0303
  911MOL0     H20232   9.952   8.285  10.010 -1.0345 -1.2239  0.6236
  911MOL0     H20233   9.812   8.308  10.097 -0.8804 -0.2349 -0.0896
  911MOL0     H20234  10.734   7.848   9.636 -0.7279  1.0212  3.2634
  911MOL0     H20235  10.833   7.652   9.552 -0.2748 -0.1650 -1.1055
  911MOL0     H20236  10.655   7.313   9.289  1.9968  2.1594  0.0303
  911MOL0     H20237  10.663   7.112   9.148 -1.7749  0.9000  2.1659
  911MOL0     H20238  10.205   6.054   7.890 -3.3965 -3.9072 -2.9540
  911MOL0     H20239  10.114   6.068   7.689  0.5305 -3.4901 -0.9858
  911MOL0     H20240   9.997   6.118   7.304  0.1836  2.1356 -0.3763
  911MOL0     H20241   9.899   6.041   7.100 -0.2191 -0.1572  1.9661
  911MOL0     H20242   9.865   6.216   6.849  2.3301 -1.2060  1.9793
  911MOL0     H20243   9.788   6.054   6.842  0.4199 -0.2019 -0.0517
  911MOL0     H20244   9.960   6.163   6.627 -0.7846  0.3477 -0.3847
  911MOL0     H20245   9.904   6.000   6.635 -0.2689 -0.8483 -0.3964
  911MOL0     H20246   9.744   6.266   6.619  0.6818  0.0335 -0.1820
  911MOL0     H20247   9.667   6.107   6.624 -0.6117 -0.2092  1.1707
  911MOL0     H20248   9.868   6.099   6.411 -0.4691 -2.6481  0.8299
  911MOL0     H20249   9.710   6.041   6.423  1.7700 -1.7059  2.6700
  911MOL0     H20250   9.629   6.373   6.199 -1.7408 -2.2827  0.4572
  911MOL0     H20251  10.244   6.148   6.878 -2.1913  2.0378 -1.6517
  911MOL0     H20252  10.366   6.203   7.075  0.1442  1.8485  2.0908
  912MOL0     O20253   1.854   0.028   6.992  0.1152 -0.1894 -0.4969
  912MOL0     C20254   1.734   0.025   7.002  1.4183  0.2397  0.0019
  912MOL0     O20255   1.649   0.120   6.962 -0.9460 -0.2632 -0.0517
  912MOL0     C20256   1.686   0.209   6.857  0.3133  0.0759 -1.0960
  912MOL0     C20257   1.587   0.298   6.820  1.0235  0.1639  0.6388
  912MOL0     C20258   1.604   0.393   6.715 -0.6246 -0.0267 -0.7032
  912MOL0     C20259   1.724   0.414   6.665 -0.5677 -0.1390 -0.4530
  912MOL0     O20260   1.731   0.520   6.578  0.4778  0.0896 -0.6818
  912MOL0     C20261   1.757   0.490   6.443 -0.4602  0.6085 -0.7588
  912MOL0     C20262   1.639   0.421   6.369 -0.0453 -0.5427  0.2899
  912MOL0     C20263   1.678   0.385   6.218  0.5595  0.2872  0.4296
  912MOL0     C20264   1.544   0.373   6.152 -0.2709  0.5413  0.7379
  912MOL0     C20265   1.577   0.301   6.017  0.1510 -0.6930 -0.8657
  912MOL0     C20266   1.448   0.305   5.935  0.2997  0.0997  0.1793
  912MOL0     C20267   1.478   0.302   5.778  0.0050  1.0805 -0.0550
  912MOL0     C20268   1.343   0.295   5.712  0.1331  1.0384  0.3604
  912MOL0     N20269   1.289   0.156   5.714  0.0009 -0.3748  0.0500
  912MOL0     C20270   1.357   0.035   5.699  0.6063  1.4260 -0.7007
  912MOL0     C20271   1.260  -0.057   5.682  0.2994  0.2922  0.1701
  912MOL0     C20272   1.269  -0.200   5.650 -0.6384  0.7276 -0.1082
  912MOL0     C20273   1.331  -0.277   5.764  0.1354  0.1429 -1.0181
  912MOL0     C20274   1.237  -0.295   5.893 -0.2362 -1.0472 -0.5140
  912MOL0     C20275   1.130  -0.396   5.866  0.6552  0.5500  0.1491
  912MOL0     O20276   1.025  -0.386   5.965  0.1026  0.4622  0.4704
  912MOL0     C20277   0.919  -0.469   5.932 -0.7003 -1.0376 -0.3589
  912MOL0     C20278   0.808  -0.456   6.013  0.2441  0.5437 -0.2110
  912MOL0     C20279   0.701  -0.545   5.991 -0.0230  0.6740  0.2783
  912MOL0     C20280   0.708  -0.642   5.887  0.3994  0.2683 -0.1930
  912MOL0     C20281   0.603  -0.734   5.851  0.4012  1.3854 -0.4171
  912MOL0     O20282   0.488  -0.701   5.912  0.3668 -0.1603  1.0685
  912MOL0     C20283   0.370  -0.774   5.915 -0.4591 -0.2656 -1.1033
  912MOL0     C20284   0.357  -0.914   5.884 -0.0886 -0.4721  0.4137
  912MOL0     C20285   0.236  -0.979   5.904  0.9066  0.3068 -0.0867
  912MOL0     C20286   0.122  -0.912   5.918 -0.0962 -0.5637  0.2922
  912MOL0     O20287  -0.001  -0.980   5.924  0.3397 -0.3313 -0.0438
  912MOL0     C20288  -0.120  -0.917   5.921  0.5618  0.2085 -0.5763
  912MOL0     C20289  -0.232  -1.018   5.922  0.1202  0.1907  0.0512
  912MOL0     C20290  -0.253  -1.078   5.780 -0.0554  0.0556  0.4157
  912MOL0     C20291  -0.376  -1.183   5.784  0.1963 -0.7740  0.7943
  912MOL0     C20292  -0.402  -1.237   5.641 -0.0912  1.6062 -0.1086
  912MOL0     C20293  -0.400  -1.396   5.636  1.2342  0.0925 -0.2678
  912MOL0     C20294  -0.379  -1.429   5.480  0.0851  0.3310  0.8955
  912MOL0     C20295  -0.300  -1.558   5.468  0.1074  0.1683 -1.0483
  912MOL0    Cl20296  -0.384  -1.690   5.567 -0.0090  0.3416 -0.3425
  912MOL0     C20297   0.122  -0.772   5.932 -0.3052  0.1275 -0.1070
  912MOL0     C20298   0.250  -0.710   5.943 -0.4249 -0.4101  0.1816
  912MOL0     O20299   0.618  -0.830   5.784 -0.4169  0.3931  0.9741
  912MOL0     C20300   0.821  -0.652   5.803  1.1296 -0.1757  0.4736
  912MOL0     C20301   0.920  -0.559   5.823  0.1401 -0.4962 -0.4736
  912MOL0     N20302   1.133  -0.000   5.695 -0.8057  0.3507 -0.2452
  912MOL0     N20303   1.150   0.122   5.710 -0.4023 -0.0284  0.5438
  912MOL0     C20304   1.828   0.326   6.691 -0.5875 -0.1301 -0.5655
  912MOL0     C20305   1.811   0.230   6.787 -0.3377  0.2519  0.5675
  912MOL0     C20306   1.678  -0.095   7.071  0.0695 -1.0978 -0.2703
  912MOL0     C20307   1.762  -0.201   7.094 -1.3851  0.1030  0.1159
  912MOL0     C20308   1.714  -0.316   7.175  0.2346 -0.7601  0.4687
  912MOL0     C20309   1.583  -0.317   7.220  0.0980  0.4948 -0.5103
  912MOL0     O20310   1.536  -0.423   7.295  1.0068  0.7089 -0.6577
  912MOL0     C20311   1.421  -0.408   7.378 -0.0790 -0.5057  0.0516
  912MOL0     C20312   1.415  -0.524   7.474 -0.0883  0.0020 -0.2383
  912MOL0     C20313   1.538  -0.516   7.577  0.8545 -0.2239 -0.0615
  912MOL0     C20314   1.550  -0.382   7.647 -0.0654  0.9357  0.0628
  912MOL0     C20315   1.648  -0.391   7.752 -0.5426  0.7395 -0.5459
  912MOL0     C20316   1.725  -0.410   7.848 -0.8954  0.1244 -0.0339
  912MOL0     C20317   1.494  -0.208   7.184 -0.3177  0.4983 -0.3782
  912MOL0     C20318   1.538  -0.101   7.116  0.2477 -0.0940  0.9723
  912MOL0     H20319   1.497   0.302   6.881 -0.1121 -0.8577 -0.9267
  912MOL0     H20320   1.527   0.462   6.680  0.1016  1.2082  0.0555
  912MOL0     H20321   1.849   0.430   6.444 -0.0565  0.9907  3.4609
  912MOL0     H20322   1.781   0.583   6.391  0.3495  1.2926  0.7815
  912MOL0     H20323   1.559   0.496   6.368  0.5255  0.0805 -0.2218
  912MOL0     H20324   1.616   0.324   6.412 -1.2804 -0.4404 -0.0983
  912MOL0     H20325   1.719   0.284   6.206 -0.8392 -0.1252 -1.4849
  912MOL0     H20326   1.757   0.445   6.172  0.0448 -0.8195 -2.0995
  912MOL0     H20327   1.469   0.312   6.204  1.6278 -0.8009  2.0321
  912MOL0     H20328   1.506   0.475   6.141 -0.0977  0.4114 -1.3854
  912MOL0     H20329   1.604   0.197   6.039 -0.7889 -0.8678 -0.5149
  912MOL0     H20330   1.656   0.349   5.957  0.2689 -0.6259 -0.6569
  912MOL0     H20331   1.385   0.389   5.962 -0.4556 -0.8366  1.4538
  912MOL0     H20332   1.387   0.216   5.955 -0.0626 -0.5058 -3.0534
  912MOL0     H20333   1.536   0.392   5.758  1.1087  0.1657 -1.1533
  912MOL0     H20334   1.539   0.216   5.748  2.7326  3.1593 -0.8879
  912MOL0     H20335   1.360   0.344   5.616 -1.4712  2.7615  0.8887
  912MOL0     H20336   1.279   0.368   5.764 -2.1459  0.1389 -1.0018
  912MOL0     H20337   1.461   0.003   5.704 -0.0813 -0.9147 -0.1112
  912MOL0     H20338   1.323  -0.209   5.555 -0.7447  0.1326 -0.1188
  912MOL0     H20339   1.172  -0.235   5.612 -1.1224  1.8595  0.0321
  912MOL0     H20340   1.416  -0.220   5.804 -0.5938 -0.4005  1.5179
  912MOL0     H20341   1.359  -0.379   5.737 -0.0700  0.6246 -3.2677
  912MOL0     H20342   1.289  -0.328   5.984 -1.7586 -1.4936  0.2220
  912MOL0     H20343   1.189  -0.200   5.915 -1.0299 -1.8452  1.4500
  912MOL0     H20344   1.174  -0.495   5.875 -0.7565 -0.1339 -0.2523
  912MOL0     H20345   1.092  -0.373   5.767 -0.3161 -1.0545  0.1276
  912MOL0     H20346   0.807  -0.386   6.097 -0.7698 -2.6145  2.6412
  912MOL0     H20347   0.606  -0.537   6.042 -0.6476 -0.2561 -0.6991
  912MOL0     H20348   0.439  -0.981   5.864 -0.5888 -0.4481 -2.0187
  912MOL0     H20349   0.213  -1.079   5.870 -0.8213  0.2361  1.1564
  912MOL0     H20350  -0.132  -0.829   5.857  0.8991  2.2900  2.0218
  912MOL0     H20351  -0.131  -0.871   6.020  3.4739 -0.2256  0.0383
  912MOL0     H20352  -0.326  -0.966   5.942 -0.6901 -1.1796 -0.0233
  912MOL0     H20353  -0.216  -1.090   6.003 -1.1840  0.8573  0.9324
  912MOL0     H20354  -0.163  -1.126   5.740  0.3485  0.2981  1.0176
  912MOL0     H20355  -0.282  -1.000   5.709 -1.0219 -0.2991  0.3995
  912MOL0     H20356  -0.340  -1.264   5.847 -0.3667 -0.5081  1.4742
  912MOL0     H20357  -0.469  -1.138   5.821  1.2341  2.2192  0.0863
  912MOL0     H20358  -0.327  -1.197   5.571 -0.0404  0.7755 -0.5447
  912MOL0     H20359  -0.495  -1.194   5.602  1.6457  5.1754 -0.7048
  912MOL0     H20360  -0.492  -1.445   5.671  3.4304 -1.6329  3.8486
  912MOL0     H20361  -0.314  -1.421   5.700  0.6375  0.0901  0.5521
  912MOL0     H20362  -0.476  -1.444   5.432  0.8750  0.3873 -0.7854
  912MOL0     H20363  -0.332  -1.348   5.424 -1.0230  0.3802  0.0177
  912MOL0     H20364  -0.201  -1.543   5.512 -1.5746 -2.1618  4.2764
  912MOL0     H20365  -0.285  -1.587   5.363  0.4515 -0.2305 -0.8917
  912MOL0     H20366   0.029  -0.719   5.949 -0.6014 -0.1550 -0.8130
  912MOL0     H20367   0.251  -0.602   5.953  1.9205 -0.2522 -1.0320
  912MOL0     H20368   0.825  -0.716   5.715  3.0281  1.9272 -1.0929
  912MOL0     H20369   1.006  -0.567   5.758 -0.2767  0.3938 -1.1522
  912MOL0     H20370   1.923   0.327   6.638 -0.2521  0.9962  0.0217
  912MOL0     H20371   1.897   0.167   6.807 -1.1000  0.2881  4.8975
  912MOL0     H20372   1.867  -0.204   7.066 -0.8644  0.3187  1.9381
  912MOL0     H20373   1.787  -0.395   7.185  3.2519  1.5452 -1.5390
  912MOL0     H20374   1.338  -0.410   7.306  0.8717  0.1273 -1.0910
  912MOL0     H20375   1.432  -0.309   7.422 -0.9428 -1.8362  3.6329
  912MOL0     H20376   1.316  -0.533   7.521  0.4373  3.4818  1.8902
  912MOL0     H20377   1.434  -0.623   7.433 -3.2746 -1.7371  2.0031
  912MOL0     H20378   1.625  -0.547   7.519 -0.6957  0.5896 -3.0498
  912MOL0     H20379   1.529  -0.590   7.657  0.2411 -0.1811 -0.0845
  912MOL0     H20380   1.591  -0.302   7.584  0.2797 -0.6325 -1.7755
  912MOL0     H20381   1.450  -0.347   7.678  1.0901  4.3944  0.3060
  912MOL0     H20382   1.818  -0.424   7.899 -0.1138  4.7811  0.2596
  912MOL0     H20383   1.388  -0.211   7.210 -0.3842  0.1939 -0.6811
  912MOL0     H20384   1.461  -0.026   7.099 -0.0533 -0.5691  0.1588
  913MOL0     O20385  11.278   7.944   2.708  0.9417  0.0809  0.0081
  913MOL0     C20386  11.251   7.945   2.588 -0.2542  1.6164  0.1811
  913MOL0     O20387  11.131   7.972   2.528 -1.5247 -0.4318 -0.2617
  913MOL0     C20388  11.015   7.991   2.601 -0.2125  0.2412  0.1027
  913MOL0     C20389  10.991   7.977   2.739 -0.7606  0.8479  0.9976
  913MOL0     C20390  10.870   8.003   2.798  0.3502 -0.9448  0.6166
  913MOL0     C20391  10.757   8.043   2.714 -0.9483  1.0898 -0.6989
  913MOL0     O20392  10.643   8.059   2.791  0.0790 -0.0603  0.9869
  913MOL0     C20393  10.540   8.155   2.755  0.0356  0.7197 -0.1837
  913MOL0     C20394  10.597   8.293   2.766  0.2860  0.0139  0.0346
  913MOL0     C20395  10.529   8.401   2.693  0.5399  0.0029 -0.0040
  913MOL0     C20396  10.403   8.450   2.767 -0.1652  0.8993  0.7236
  913MOL0     C20397  10.308   8.546   2.692  2.0173 -0.1686  0.7570
  913MOL0     C20398  10.187   8.587   2.770  0.2402  0.5958  0.4361
  913MOL0     C20399  10.121   8.715   2.707  0.3663 -0.0784  0.1124
  913MOL0     C20400  10.022   8.774   2.813 -0.3735 -0.6224 -0.4455
  913MOL0     N20401   9.944   8.875   2.757  0.2025 -0.4563 -0.4963
  913MOL0     C20402   9.992   8.987   2.682  1.1605 -0.5764 -0.6294
  913MOL0     C20403   9.869   9.055   2.670  0.0784  0.0442  0.5102
  913MOL0     C20404   9.843   9.177   2.593 -1.1887  0.6361  0.4155
  913MOL0     C20405   9.816   9.139   2.444 -0.5190 -0.2164 -0.6198
  913MOL0     C20406   9.791   9.262   2.352 -0.2801  0.1835 -0.4000
  913MOL0     C20407   9.675   9.354   2.392  0.4913 -0.4714  0.3474
  913MOL0     O20408   9.660   9.471   2.310 -0.2431  0.0967 -0.3830
  913MOL0     C20409   9.561   9.558   2.343 -0.5030 -0.7081 -1.2923
  913MOL0     C20410   9.491   9.567   2.462 -0.2997  0.5127 -0.8253
  913MOL0     C20411   9.393   9.662   2.485 -0.4009 -0.3536 -0.4637
  913MOL0     C20412   9.365   9.755   2.381  0.6321  0.2456 -0.0333
  913MOL0     C20413   9.260   9.846   2.397 -0.5289  0.0521 -0.0121
  913MOL0     O20414   9.264   9.968   2.329 -0.5214 -0.1439 -1.1621
  913MOL0     C20415   9.148  10.036   2.346  0.1408 -0.1815 -0.0264
  913MOL0     C20416   9.145  10.152   2.428  0.8655  0.2624  0.8014
  913MOL0     C20417   9.035  10.229   2.426 -0.2782 -0.7473 -0.8310
  913MOL0     C20418   8.927  10.209   2.338  0.7367  0.3124 -0.5381
  913MOL0     O20419   8.808  10.269   2.337  0.4423 -0.5627  0.2512
  913MOL0     C20420   8.783  10.370   2.427 -0.4779 -0.3069 -0.1696
  913MOL0     C20421   8.633  10.369   2.455 -0.1344 -0.6102  0.1611
  913MOL0     C20422   8.577  10.222   2.494 -0.1878 -0.5684 -1.0703
  913MOL0     C20423   8.428  10.208   2.507  0.4996  0.1556  0.2742
  913MOL0     C20424   8.374  10.056   2.489 -0.4259 -0.1915 -0.0519
  913MOL0     C20425   8.439   9.973   2.602 -0.1586 -1.0364 -0.1041
  913MOL0     C20426   8.393   9.829   2.589  0.7817  0.3014 -0.4172
  913MOL0     C20427   8.425   9.744   2.715 -0.4228  0.2740 -0.6648
  913MOL0    Cl20428   8.415   9.580   2.653  0.1588 -0.0126  0.1381
  913MOL0     C20429   8.925  10.094   2.258 -0.4854  0.2478 -0.6217
  913MOL0     C20430   9.031  10.002   2.264  0.8944 -0.2392  0.9993
  913MOL0     O20431   9.176   9.819   2.479  0.5576 -0.1643  0.1640
  913MOL0     C20432   9.454   9.749   2.267  0.3641  0.0678  0.4769
  913MOL0     C20433   9.539   9.649   2.245  0.2213  0.6296  0.0516
  913MOL0     N20434   9.766   8.978   2.721 -0.1190 -0.1408  0.4680
  913MOL0     N20435   9.807   8.873   2.764 -0.5361  0.1087 -0.3621
  913MOL0     C20436  10.772   8.050   2.577 -0.1571 -0.1101 -1.5755
  913MOL0     C20437  10.902   8.038   2.526 -0.6104  0.5753  0.8924
  913MOL0     C20438  11.364   7.918   2.493 -0.8195  0.6129 -0.5333
  913MOL0     C20439  11.481   7.843   2.527 -0.6215 -0.6515 -0.2047
  913MOL0     C20440  11.583   7.824   2.424  0.0708  0.0413 -1.0962
  913MOL0     C20441  11.565   7.879   2.300  0.3725  0.7281 -0.5392
  913MOL0     O20442  11.659   7.867   2.204  0.3633 -0.8106  0.6297
  913MOL0     C20443  11.775   7.783   2.209  0.5635 -0.5184 -0.1766
  913MOL0     C20444  11.729   7.640   2.223 -0.4351  0.0644 -1.2992
  913MOL0     C20445  11.851   7.548   2.242 -0.6540 -0.8633  1.2683
  913MOL0     C20446  11.802   7.414   2.201  0.3260  0.4914 -0.2146
  913MOL0     C20447  11.885   7.298   2.234 -0.5916  0.2008 -0.4569
  913MOL0     C20448  11.960   7.207   2.244  0.3561  0.5532  0.3747
  913MOL0     C20449  11.447   7.955   2.269  0.7291  0.5626 -0.6107
  913MOL0     C20450  11.350   7.978   2.362  0.5637  0.3410 -0.0601
  913MOL0     H20451  11.076   7.954   2.803  1.6724  0.9565 -1.9803
  913MOL0     H20452  10.855   8.003   2.906  0.0441  0.4809  0.6021
  913MOL0     H20453  10.453   8.157   2.822  0.3588  1.0208  0.2375
  913MOL0     H20454  10.521   8.124   2.652  1.6485  2.2963 -1.0059
  913MOL0     H20455  10.696   8.284   2.721  0.0108  0.6564 -0.7181
  913MOL0     H20456  10.624   8.325   2.867  1.8300  2.8708 -1.1855
  913MOL0     H20457  10.504   8.376   2.589 -1.5501 -0.2139  0.5006
  913MOL0     H20458  10.595   8.488   2.694  0.6234 -0.0369  2.3515
  913MOL0     H20459  10.341   8.368   2.805 -0.4116  0.0749 -1.3129
  913MOL0     H20460  10.447   8.489   2.860  0.6318 -2.6093  1.9969
  913MOL0     H20461  10.271   8.497   2.601 -1.9881  2.3402  0.7974
  913MOL0     H20462  10.368   8.631   2.658 -0.1279 -0.1355 -3.6335
  913MOL0     H20463  10.232   8.608   2.868 -0.2572 -1.0489  1.0662
  913MOL0     H20464  10.107   8.513   2.779  0.2984  0.4664 -0.1309
  913MOL0     H20465  10.204   8.781   2.681 -0.8407  1.9276  1.1452
  913MOL0     H20466  10.069   8.683   2.616 -0.0583  0.8526  0.0114
  913MOL0     H20467  10.083   8.818   2.892 -1.0980  0.2277 -0.3372
  913MOL0     H20468   9.950   8.708   2.862  1.4682 -1.5548  1.1008
  913MOL0     H20469  10.086   9.018   2.638  1.2445  2.3995  1.3651
  913MOL0     H20470   9.926   9.248   2.592 -0.7692  0.1607  0.7317
  913MOL0     H20471   9.764   9.236   2.639 -0.9112  0.9241  0.5251
  913MOL0     H20472   9.723   9.082   2.436 -0.5803 -0.5098  1.6761
  913MOL0     H20473   9.900   9.083   2.402  0.2554 -0.2163  0.8572
  913MOL0     H20474   9.885   9.315   2.338  0.4078 -1.3822 -2.2002
  913MOL0     H20475   9.758   9.216   2.258  2.0613 -1.3539 -0.5745
  913MOL0     H20476   9.698   9.383   2.495  1.1127  1.8419 -0.3926
  913MOL0     H20477   9.588   9.287   2.396  0.7784 -0.8933 -0.2009
  913MOL0     H20478   9.517   9.501   2.544 -4.0503  0.4421  0.5048
  913MOL0     H20479   9.335   9.653   2.576  1.1582 -1.3859  0.4656
  913MOL0     H20480   9.236  10.190   2.474  0.4038  1.5041  0.7150
  913MOL0     H20481   9.035  10.328   2.470 -0.7274  0.0865 -2.6265
  913MOL0     H20482   8.817  10.467   2.391 -1.5413  1.8829  4.0825
  913MOL0     H20483   8.825  10.348   2.526  1.1655 -0.3268 -0.8467
  913MOL0     H20484   8.589  10.398   2.359 -1.0880  0.8156  0.9973
  913MOL0     H20485   8.603  10.440   2.532  1.0023  0.3359 -0.2280
  913MOL0     H20486   8.625  10.185   2.585  1.8195  1.8094 -1.0822
  913MOL0     H20487   8.607  10.151   2.416  4.6327  1.8662 -1.7590
  913MOL0     H20488   8.399  10.260   2.599 -0.9057 -0.1209  0.0056
  913MOL0     H20489   8.382  10.260   2.422  0.8966 -1.8722 -1.2489
  913MOL0     H20490   8.397  10.026   2.386  3.5450 -0.7505  0.8468
  913MOL0     H20491   8.267  10.069   2.506 -0.6537  0.3811 -1.7249
  913MOL0     H20492   8.418  10.014   2.701  1.9323 -2.2842  0.9231
  913MOL0     H20493   8.547   9.977   2.586 -0.1855 -0.4351 -0.1511
  913MOL0     H20494   8.284   9.820   2.576  0.6953 -1.0452  0.9504
  913MOL0     H20495   8.434   9.796   2.494 -3.2374 -0.6937 -2.0275
  913MOL0     H20496   8.346   9.770   2.786 -1.8584 -0.8397 -1.7795
  913MOL0     H20497   8.521   9.772   2.759 -0.6902  2.2221 -1.2224
  913MOL0     H20498   8.840  10.082   2.190 -1.3506  2.6845 -0.0630
  913MOL0     H20499   9.043   9.922   2.191  2.1537  2.0131 -1.4450
  913MOL0     H20500   9.438   9.831   2.197  2.3783 -0.5634 -0.8083
  913MOL0     H20501   9.600   9.629   2.157  0.7580  0.8261  0.3685
  913MOL0     H20502  10.688   8.070   2.511 -0.5890  2.7014 -0.3236
  913MOL0     H20503  10.919   8.054   2.420  4.5777 -0.4603  1.2858
  913MOL0     H20504  11.504   7.803   2.625 -0.7836  2.0551  1.0347
  913MOL0     H20505  11.672   7.774   2.460 -1.3426  0.5082  3.8493
  913MOL0     H20506  11.845   7.802   2.291 -1.6031  2.3633  1.1970
  913MOL0     H20507  11.818   7.792   2.109 -0.3363 -0.2932 -0.5455
  913MOL0     H20508  11.655   7.617   2.300  0.0414  0.6342 -0.6620
  913MOL0     H20509  11.690   7.615   2.124  3.3684  0.2868 -3.0543
  913MOL0     H20510  11.891   7.549   2.344 -1.1172 -1.3584  1.4623
  913MOL0     H20511  11.918   7.593   2.169 -1.9090 -1.5819 -0.3746
  913MOL0     H20512  11.716   7.398   2.267  0.5831  0.8997  0.2280
  913MOL0     H20513  11.783   7.411   2.094  4.2662 -2.4336 -1.0396
  913MOL0     H20514  12.017   7.117   2.246 -1.6050 -0.7512  1.1419
  913MOL0     H20515  11.422   7.983   2.167 -2.5672 -0.9101 -0.3347
  913MOL0     H20516  11.270   8.049   2.345 -0.8540 -1.5715 -1.8456
  914MOL0     O20517   2.773   9.284   0.236  1.0018 -0.3141 -0.1185
  914MOL0     C20518   2.761   9.163   0.235 -0.2724  0.3396 -0.7745
  914MOL0     O20519   2.825   9.072   0.315  0.2513 -0.0691 -0.2528
  914MOL0     C20520   2.896   9.114   0.427 -0.1375  0.9751  0.5421
  914MOL0     C20521   2.962   9.232   0.446  0.3969 -0.1238  0.3576
  914MOL0     C20522   3.027   9.265   0.565  0.0080  1.0403 -0.2739
  914MOL0     C20523   3.036   9.184   0.674 -0.2686  0.3899  0.0496
  914MOL0     O20524   3.101   9.231   0.774 -0.1261  0.0422 -0.2157
  914MOL0     C20525   3.153   9.135   0.866 -0.1678 -0.1486  0.0464
  914MOL0     C20526   3.210   9.205   0.994  0.9088  0.2238 -0.0380
  914MOL0     C20527   3.261   9.106   1.096  0.3175 -0.4070  0.0793
  914MOL0     C20528   3.384   9.042   1.049 -0.5065 -0.1637 -0.2191
  914MOL0     C20529   3.457   8.960   1.164 -0.9335  0.4846  0.0457
  914MOL0     C20530   3.595   8.920   1.129  0.2147 -1.6740 -1.1134
  914MOL0     C20531   3.677   8.867   1.259 -1.1699  0.4796 -0.5524
  914MOL0     C20532   3.822   8.827   1.246  0.3757 -0.8136  0.3013
  914MOL0     N20533   3.873   8.751   1.368  0.1563 -1.1075 -0.6837
  914MOL0     C20534   3.975   8.665   1.381 -0.2492  0.4450  0.0003
  914MOL0     C20535   3.969   8.619   1.506  0.0344  0.1707 -0.3900
  914MOL0     C20536   4.058   8.518   1.577 -0.2111  0.4526 -0.5979
  914MOL0     C20537   4.205   8.550   1.546  0.1089  0.1944  0.3046
  914MOL0     C20538   4.301   8.462   1.635 -0.9790  0.5421  0.0452
  914MOL0     C20539   4.453   8.497   1.611  1.0203  0.1556 -0.3087
  914MOL0     O20540   4.471   8.580   1.498  0.5175 -0.1607 -0.2908
  914MOL0     C20541   4.595   8.653   1.489 -0.2269  0.5560 -0.4818
  914MOL0     C20542   4.712   8.624   1.557  0.1906 -0.2528 -0.1959
  914MOL0     C20543   4.835   8.696   1.534 -0.4814  0.2368 -1.2162
  914MOL0     C20544   4.834   8.817   1.463 -1.2698 -0.7279 -0.1779
  914MOL0     C20545   4.938   8.907   1.455 -0.2176 -0.3928  0.0361
  914MOL0     O20546   5.005   8.934   1.574 -1.0270  0.2838  0.3902
  914MOL0     C20547   5.061   9.056   1.601  0.9478  0.0210 -0.4538
  914MOL0     C20548   5.051   9.109   1.726 -0.0497 -0.2200  0.4274
  914MOL0     C20549   5.129   9.228   1.751  0.3603  0.6514  0.6854
  914MOL0     C20550   5.203   9.302   1.659  0.1948  0.9349  0.6227
  914MOL0     O20551   5.264   9.419   1.700  0.6596 -0.8043  0.0020
  914MOL0     C20552   5.322   9.518   1.611  1.1238 -0.2579  0.3039
  914MOL0     C20553   5.229   9.623   1.543  0.1047 -0.1582  0.7130
  914MOL0     C20554   5.081   9.614   1.580 -0.3481 -0.1628  0.3903
  914MOL0     C20555   5.014   9.738   1.514 -0.4582  0.3945  0.2341
  914MOL0     C20556   4.859   9.735   1.537 -0.5801 -1.2209 -0.0455
  914MOL0     C20557   4.786   9.872   1.528 -0.9554 -0.3469  0.5331
  914MOL0     C20558   4.807   9.971   1.638 -0.0303 -0.1370  0.0584
  914MOL0     C20559   4.764  10.108   1.581  0.2558 -0.3659 -0.3025
  914MOL0    Cl20560   4.757  10.211   1.719 -0.0590 -0.0484  0.1365
  914MOL0     C20561   5.204   9.246   1.536  0.4512  0.3436  0.0303
  914MOL0     C20562   5.139   9.129   1.507  0.3005  0.7339 -0.6457
  914MOL0     O20563   4.956   8.964   1.345  0.1876  0.0311 -0.2135
  914MOL0     C20564   4.708   8.841   1.394 -0.3839 -0.3142 -0.2412
  914MOL0     C20565   4.599   8.761   1.407 -0.2051  0.0239 -0.0385
  914MOL0     N20566   3.859   8.674   1.570 -0.6268 -0.6753  0.3435
  914MOL0     N20567   3.802   8.748   1.489  0.7673  0.5033  0.0461
  914MOL0     C20568   2.975   9.059   0.654 -0.5182  0.0740  0.5440
  914MOL0     C20569   2.911   9.020   0.528 -0.7857  0.4437 -0.8197
  914MOL0     C20570   2.658   9.109   0.151  1.4240 -0.2125  0.5317
  914MOL0     C20571   2.574   9.002   0.189 -0.2029  0.6575 -1.0821
  914MOL0     C20572   2.470   8.955   0.103  0.8584 -0.7610 -0.0128
  914MOL0     C20573   2.444   9.038  -0.009  0.3213 -0.8930  1.0491
  914MOL0     O20574   2.332   9.008  -0.088 -0.2700 -0.3966 -0.3187
  914MOL0     C20575   2.287   9.091  -0.193 -0.5141 -0.3868  0.9368
  914MOL0     C20576   2.193   9.016  -0.293 -0.4221 -0.0313  0.1880
  914MOL0     C20577   2.080   8.962  -0.211  0.1424 -0.3385 -0.4356
  914MOL0     C20578   1.971   8.913  -0.303 -0.5690 -0.3253 -0.4428
  914MOL0     C20579   1.852   8.868  -0.226 -0.0068 -0.9954 -0.5464
  914MOL0     C20580   1.765   8.829  -0.149 -0.6023 -0.2512 -0.1457
  914MOL0     C20581   2.527   9.145  -0.039  0.8954  0.8757  0.0584
  914MOL0     C20582   2.631   9.179   0.034 -0.1156 -0.3235  0.5845
  914MOL0     H20583   2.964   9.311   0.372  1.9296  0.6895  1.2251
  914MOL0     H20584   3.066   9.363   0.589 -0.9465  1.1705  0.8334
  914MOL0     H20585   3.230   9.079   0.813 -1.5375  1.3342 -3.8390
  914MOL0     H20586   3.089   9.059   0.911 -0.8845 -0.5791 -1.6251
  914MOL0     H20587   3.132   9.274   1.028  0.7932 -0.1892  0.5494
  914MOL0     H20588   3.301   9.258   0.965  3.4233 -3.6602  0.0624
  914MOL0     H20589   3.190   9.032   1.133 -0.4511 -0.0063 -0.5632
  914MOL0     H20590   3.269   9.187   1.169 -1.8929  1.1650 -1.2837
  914MOL0     H20591   3.349   8.972   0.973  0.1336  0.8116 -1.4578
  914MOL0     H20592   3.447   9.117   1.001  0.1911 -0.4062  0.2967
  914MOL0     H20593   3.404   8.868   1.191 -1.1219  0.4770 -0.3548
  914MOL0     H20594   3.458   9.027   1.250  1.0164 -0.9156  1.1973
  914MOL0     H20595   3.641   9.011   1.091 -0.1044 -1.9852 -2.2894
  914MOL0     H20596   3.584   8.851   1.044  0.2439 -0.8991 -1.7533
  914MOL0     H20597   3.684   8.937   1.343  2.2624 -1.4358  0.9645
  914MOL0     H20598   3.615   8.786   1.298 -0.0641  0.2099  0.7117
  914MOL0     H20599   3.881   8.917   1.224 -0.5354 -0.8300 -2.6478
  914MOL0     H20600   3.828   8.754   1.164 -0.9541 -1.8470  1.0790
  914MOL0     H20601   4.050   8.639   1.307 -1.0973 -1.1499 -0.3339
  914MOL0     H20602   4.044   8.412   1.552  3.8867 -0.9391  1.9660
  914MOL0     H20603   4.058   8.541   1.684 -0.2576 -0.3421 -0.4213
  914MOL0     H20604   4.229   8.655   1.565 -0.1643 -0.0058  1.9459
  914MOL0     H20605   4.224   8.530   1.441 -2.1583 -1.5490  0.1650
  914MOL0     H20606   4.275   8.480   1.739 -0.0570 -0.7432  0.5283
  914MOL0     H20607   4.269   8.359   1.617 -3.2742  1.3598 -0.8663
  914MOL0     H20608   4.509   8.404   1.600 -0.3544 -0.5525 -1.7554
  914MOL0     H20609   4.490   8.537   1.706 -1.4491  0.8003  0.4809
  914MOL0     H20610   4.699   8.539   1.623  0.2866 -0.0389  0.0979
  914MOL0     H20611   4.925   8.684   1.594 -1.9220  0.5053  1.1486
  914MOL0     H20612   4.973   9.072   1.791 -0.1977  0.9234  0.9392
  914MOL0     H20613   5.120   9.276   1.847  2.1156  0.4802  0.9648
  914MOL0     H20614   5.390   9.461   1.546  1.1414 -1.5408  1.3965
  914MOL0     H20615   5.390   9.582   1.668  2.0018 -0.4094 -0.5447
  914MOL0     H20616   5.243   9.639   1.436 -3.4006  0.5292  0.2268
  914MOL0     H20617   5.269   9.712   1.593 -1.5140  0.4026  1.0781
  914MOL0     H20618   5.069   9.627   1.688  0.2273  2.2120  0.2248
  914MOL0     H20619   5.049   9.518   1.540  1.2649 -1.2754  1.6725
  914MOL0     H20620   5.064   9.834   1.530 -0.6860  1.1215 -2.7394
  914MOL0     H20621   5.033   9.721   1.407 -0.3623 -0.3903  0.3698
  914MOL0     H20622   4.829   9.700   1.636  1.3976 -2.0815  0.2930
  914MOL0     H20623   4.821   9.657   1.470  2.0816 -3.8120  1.2419
  914MOL0     H20624   4.678   9.859   1.515 -1.1957  0.9059  1.1397
  914MOL0     H20625   4.820   9.910   1.431  2.5977  1.3478  2.2239
  914MOL0     H20626   4.744   9.954   1.726 -0.9586  0.9244 -0.3904
  914MOL0     H20627   4.912   9.971   1.669  0.3320  2.1293 -0.9528
  914MOL0     H20628   4.660  10.110   1.545  0.6213  2.8191 -1.5070
  914MOL0     H20629   4.829  10.148   1.502  1.6749  0.8071  1.3912
  914MOL0     H20630   5.273   9.295   1.467  0.0631  0.8991  0.0316
  914MOL0     H20631   5.151   9.086   1.408 -1.1638  1.2748 -1.0774
  914MOL0     H20632   4.692   8.918   1.319  1.2912 -3.0256 -3.7158
  914MOL0     H20633   4.509   8.776   1.347  2.4681  2.3188 -3.9468
  914MOL0     H20634   2.991   8.976   0.723  0.5305 -0.3371 -0.1674
  914MOL0     H20635   2.875   8.918   0.525  0.6954 -0.1086 -2.8860
  914MOL0     H20636   2.603   8.956   0.283  0.2475 -0.7517 -1.8679
  914MOL0     H20637   2.402   8.875   0.129 -0.0208 -0.0395 -0.0414
  914MOL0     H20638   2.372   9.132  -0.248  0.9973 -0.8586  2.8068
  914MOL0     H20639   2.225   9.176  -0.165 -2.2242 -0.7685 -1.3839
  914MOL0     H20640   2.162   9.087  -0.370  0.1356 -0.4108 -0.4005
  914MOL0     H20641   2.238   8.929  -0.343  0.8774 -0.3818  1.8889
  914MOL0     H20642   2.049   9.036  -0.136 -1.6884 -0.0390 -1.4533
  914MOL0     H20643   2.112   8.881  -0.144 -0.5363  0.9513  1.5244
  914MOL0     H20644   1.942   8.988  -0.376  0.7431  1.7712  1.0885
  914MOL0     H20645   2.012   8.828  -0.359 -0.0653 -1.3256  1.3324
  914MOL0     H20646   1.675   8.782  -0.113 -2.2485  1.4013 -1.8216
  914MOL0     H20647   2.498   9.222  -0.110  2.8511  1.9033  0.3022
  914MOL0     H20648   2.698   9.257  -0.002 -1.5249 -0.5874 -2.9912
  915MOL0     O20649   2.288   7.253   6.079  1.2511  0.9154 -0.9221
  915MOL0     C20650   2.339   7.364   6.076 -0.3014  0.0551 -0.1710
  915MOL0     O20651   2.268   7.487   6.073 -0.8287  0.1493 -0.6070
  915MOL0     C20652   2.137   7.479   6.074 -0.1551 -0.0560 -0.7817
  915MOL0     C20653   2.062   7.396   5.994  1.3548  0.3934 -1.0928
  915MOL0     C20654   1.921   7.419   5.973 -0.2476 -0.0504  0.1051
  915MOL0     C20655   1.844   7.519   6.043 -0.3150  0.0815  0.1383
  915MOL0     O20656   1.709   7.492   6.028  0.4417  0.4758 -0.0255
  915MOL0     C20657   1.604   7.548   6.112  0.2846  0.2241 -1.0664
  915MOL0     C20658   1.605   7.477   6.250 -0.5558  0.3075  0.5512
  915MOL0     C20659   1.603   7.327   6.248 -0.1970  0.2166  0.8008
  915MOL0     C20660   1.574   7.264   6.378 -0.3479  0.4360 -0.2349
  915MOL0     C20661   1.564   7.118   6.366 -0.3467 -0.0153 -0.6259
  915MOL0     C20662   1.515   7.057   6.499 -0.1420 -0.4611  0.7387
  915MOL0     C20663   1.527   6.904   6.478 -0.0911 -0.2682 -0.8737
  915MOL0     C20664   1.469   6.827   6.601 -0.4573 -0.8716  0.9348
  915MOL0     N20665   1.532   6.848   6.728  0.3810  0.4406  0.2108
  915MOL0     C20666   1.624   6.763   6.785 -0.5494  0.6043  1.0732
  915MOL0     C20667   1.651   6.810   6.911 -0.1660 -0.3426  0.8613
  915MOL0     C20668   1.745   6.778   7.016  0.0699  0.6704 -0.0498
  915MOL0     C20669   1.726   6.635   7.060  0.0268  0.3340 -0.0941
  915MOL0     C20670   1.816   6.596   7.185 -0.2033 -0.4666  0.3733
  915MOL0     C20671   1.764   6.467   7.247 -0.0971  0.7552 -0.2517
  915MOL0     O20672   1.828   6.417   7.371 -0.2751  0.0339  0.3490
  915MOL0     C20673   1.816   6.280   7.403 -0.3650 -0.3765  0.8021
  915MOL0     C20674   1.687   6.227   7.397  0.7904  0.8292 -0.2713
  915MOL0     C20675   1.672   6.082   7.423 -0.5512 -0.0998 -0.2080
  915MOL0     C20676   1.778   6.008   7.460  0.4845  0.2927  0.2505
  915MOL0     C20677   1.755   5.864   7.468 -0.2352  0.4904 -0.3462
  915MOL0     O20678   1.868   5.788   7.463  1.4268 -0.4752 -0.2157
  915MOL0     C20679   1.876   5.650   7.481 -0.0090  0.5726  0.3824
  915MOL0     C20680   1.981   5.584   7.409  0.1750 -1.2286 -0.6866
  915MOL0     C20681   1.980   5.440   7.405  0.5129 -0.0605 -0.2530
  915MOL0     C20682   1.880   5.374   7.485  0.3108  0.1865 -0.7033
  915MOL0     O20683   1.868   5.238   7.498  0.6466 -0.6974 -0.4670
  915MOL0     C20684   1.962   5.149   7.438  0.0693 -0.0521  0.3725
  915MOL0     C20685   1.908   5.009   7.434  0.1745  0.7850 -0.1189
  915MOL0     C20686   1.962   4.923   7.550 -0.1045 -0.1392  0.1880
  915MOL0     C20687   1.905   4.774   7.556  0.2563 -0.4872 -0.0146
  915MOL0     C20688   2.005   4.664   7.611 -0.0415 -0.5146  0.2915
  915MOL0     C20689   2.082   4.709   7.744 -0.4341 -0.1204  0.9202
  915MOL0     C20690   2.216   4.637   7.760 -0.3308  0.7511  0.2544
  915MOL0     C20691   2.188   4.494   7.801  0.0415  1.0162 -1.1027
  915MOL0    Cl20692   2.137   4.487   7.974 -0.0577  0.0354  0.1990
  915MOL0     C20693   1.802   5.444   7.579 -0.3553  0.1508  0.2170
  915MOL0     C20694   1.805   5.575   7.572 -0.5092 -2.2266  0.3274
  915MOL0     O20695   1.640   5.823   7.487  0.1460  0.0036  0.6184
  915MOL0     C20696   1.907   6.064   7.466 -0.3380 -0.4341  0.0360
  915MOL0     C20697   1.925   6.201   7.436 -0.0969  0.4354  0.8337
  915MOL0     N20698   1.559   6.914   6.924 -0.7383 -0.1966  0.0134
  915MOL0     N20699   1.491   6.934   6.815  1.4536 -0.2357  0.4914
  915MOL0     C20700   1.914   7.606   6.127  0.2074 -0.2948  0.2800
  915MOL0     C20701   2.060   7.586   6.137  0.8808  0.0811  0.2112
  915MOL0     C20702   2.488   7.358   6.097 -0.4516 -0.2038  0.8057
  915MOL0     C20703   2.558   7.253   6.147  0.0507 -0.8375 -0.3911
  915MOL0     C20704   2.693   7.263   6.166  0.6980  0.2599  0.4628
  915MOL0     C20705   2.768   7.363   6.108 -0.1999  0.3483 -1.5030
  915MOL0     O20706   2.910   7.361   6.116 -1.2251  0.4783  0.4083
  915MOL0     C20707   2.968   7.444   6.221  0.8546 -0.2495 -0.5539
  915MOL0     C20708   3.103   7.396   6.279 -0.8295  0.1095  0.7610
  915MOL0     C20709   3.187   7.489   6.364 -0.4436  0.2451 -0.8723
  915MOL0     C20710   3.108   7.529   6.490  0.1409  0.0370 -0.3930
  915MOL0     C20711   3.040   7.413   6.553 -1.4302 -0.3720  0.0113
  915MOL0     C20712   2.983   7.334   6.618 -0.4249 -0.2191 -0.6235
  915MOL0     C20713   2.701   7.465   6.045  0.0462 -0.1211 -0.1970
  915MOL0     C20714   2.566   7.471   6.055  0.3821  0.7717  0.5078
  915MOL0     H20715   2.111   7.321   5.932  1.7087  0.8510 -1.3713
  915MOL0     H20716   1.871   7.350   5.906  1.0372 -0.5662 -0.3704
  915MOL0     H20717   1.503   7.537   6.070 -1.4823  0.5341  2.6260
  915MOL0     H20718   1.620   7.655   6.129  0.6897 -0.0270  0.2643
  915MOL0     H20719   1.518   7.505   6.310 -2.1274  1.6305 -2.1414
  915MOL0     H20720   1.695   7.507   6.304 -0.4877 -0.8464  1.1329
  915MOL0     H20721   1.699   7.293   6.206  0.2897  1.3479  0.9373
  915MOL0     H20722   1.529   7.299   6.173 -1.6019 -1.5777  2.7799
  915MOL0     H20723   1.648   7.306   6.447 -2.7246  1.2670  1.9486
  915MOL0     H20724   1.475   7.305   6.400 -0.1972  0.6098  0.1249
  915MOL0     H20725   1.669   7.091   6.353 -0.3712 -0.3948 -0.0979
  915MOL0     H20726   1.511   7.085   6.277  0.5048  0.5539 -1.3553
  915MOL0     H20727   1.413   7.090   6.518  0.6459  3.1073 -0.5321
  915MOL0     H20728   1.563   7.097   6.589 -0.9553  0.8144  0.6268
  915MOL0     H20729   1.476   6.864   6.390 -1.0743 -1.4057  0.1632
  915MOL0     H20730   1.629   6.870   6.458  0.0834  1.5099 -3.3320
  915MOL0     H20731   1.461   6.720   6.582 -2.1516 -1.2157  3.1807
  915MOL0     H20732   1.366   6.861   6.619 -0.3774 -1.4044  2.4940
  915MOL0     H20733   1.659   6.670   6.741 -1.4340 -0.0041  1.6324
  915MOL0     H20734   1.736   6.849   7.098  3.5589  2.7621 -1.2548
  915MOL0     H20735   1.847   6.786   6.977 -0.5298  1.9180 -1.5088
  915MOL0     H20736   1.750   6.570   6.976  1.8049 -0.0007  0.6411
  915MOL0     H20737   1.622   6.622   7.092 -1.0759  2.2327 -2.5585
  915MOL0     H20738   1.920   6.585   7.154  0.2127 -0.2455  1.6375
  915MOL0     H20739   1.824   6.679   7.255  5.4533  1.8923 -2.3656
  915MOL0     H20740   1.809   6.402   7.171  3.6114  1.3215  1.2217
  915MOL0     H20741   1.656   6.455   7.254 -0.0909 -0.5123 -1.6688
  915MOL0     H20742   1.604   6.296   7.397 -0.7322 -0.9274 -0.1469
  915MOL0     H20743   1.569   6.051   7.428 -0.3115 -0.8026  0.7165
  915MOL0     H20744   2.035   5.636   7.331  1.3697 -1.0615  0.2165
  915MOL0     H20745   2.050   5.386   7.342  2.2404 -0.6674  2.0338
  915MOL0     H20746   2.056   5.151   7.494  1.4681 -0.7674 -1.8447
  915MOL0     H20747   1.970   5.172   7.331  1.0502  0.0070  0.4495
  915MOL0     H20748   1.940   4.962   7.340 -1.4860 -1.7024  0.4635
  915MOL0     H20749   1.799   5.017   7.436 -0.4251 -2.4333  6.0364
  915MOL0     H20750   1.944   4.966   7.648  0.5436  0.4688  0.0443
  915MOL0     H20751   2.069   4.923   7.531 -0.3372  1.6521 -1.3974
  915MOL0     H20752   1.818   4.772   7.622  0.3737 -1.2803  0.1316
  915MOL0     H20753   1.873   4.742   7.457  2.4940  2.8732 -2.0214
  915MOL0     H20754   2.072   4.632   7.531 -0.9105 -2.4068  0.2696
  915MOL0     H20755   1.946   4.575   7.637  2.2957 -3.0613 -2.4878
  915MOL0     H20756   2.009   4.686   7.822 -1.7645 -0.3212 -0.3426
  915MOL0     H20757   2.123   4.810   7.754  3.6622 -1.1008 -2.6561
  915MOL0     H20758   2.268   4.659   7.666 -1.4905  3.5120  0.1527
  915MOL0     H20759   2.282   4.670   7.841 -0.9661  0.8666  0.7343
  915MOL0     H20760   2.270   4.424   7.785 -0.8033  0.3003 -2.4319
  915MOL0     H20761   2.105   4.454   7.743 -0.5183 -1.5107  1.2231
  915MOL0     H20762   1.735   5.396   7.649  0.5854  4.1063  4.2634
  915MOL0     H20763   1.747   5.632   7.643  2.8188  2.1577 -0.0921
  915MOL0     H20764   1.985   5.990   7.483  1.1594  0.4262 -2.5492
  915MOL0     H20765   2.020   6.252   7.430  1.9285 -3.0808  0.1331
  915MOL0     H20766   1.867   7.695   6.168 -1.3419 -0.0911 -1.7575
  915MOL0     H20767   2.116   7.652   6.202  1.4367 -0.2753  0.1035
  915MOL0     H20768   2.507   7.177   6.205 -0.8903  0.6349  0.7944
  915MOL0     H20769   2.738   7.187   6.229 -1.1511 -1.0666  0.2939
  915MOL0     H20770   2.888   7.449   6.295 -0.2037  1.0907 -1.7275
  915MOL0     H20771   2.979   7.545   6.180  1.7591  0.5520  1.5369
  915MOL0     H20772   3.092   7.301   6.334  0.2769 -1.2499 -1.2200
  915MOL0     H20773   3.165   7.361   6.196 -1.9618 -1.1625  0.4198
  915MOL0     H20774   3.222   7.578   6.310 -2.1225  2.0936  0.9143
  915MOL0     H20775   3.273   7.432   6.400 -0.3646 -0.6161 -2.3201
  915MOL0     H20776   3.177   7.563   6.567  0.4757 -2.4002  0.4744
  915MOL0     H20777   3.033   7.604   6.462 -0.8716  0.0489  2.0708
  915MOL0     H20778   2.914   7.267   6.665 -3.2448  0.4346 -3.4421
  915MOL0     H20779   2.756   7.547   6.001  0.2817  1.0754  2.1350
  915MOL0     H20780   2.514   7.552   6.004 -2.7932 -1.6768 -0.4935
  916MOL0     O20781   7.779   3.909   1.150 -0.6999  0.4416 -0.4392
  916MOL0     C20782   7.796   3.798   1.210 -0.7454 -0.1079  0.4657
  916MOL0     O20783   7.740   3.766   1.334  0.1699 -0.5906  0.0040
  916MOL0     C20784   7.666   3.849   1.418 -0.4025 -0.3035  0.1145
  916MOL0     C20785   7.654   3.991   1.424 -0.1264  1.0788  0.3319
  916MOL0     C20786   7.588   4.048   1.529 -0.6134 -0.0221  0.4621
  916MOL0     C20787   7.510   3.973   1.617  0.1743 -0.5868  0.1068
  916MOL0     O20788   7.436   4.040   1.714  0.0804 -0.0271  0.1886
  916MOL0     C20789   7.479   4.011   1.844 -0.1207  0.9497  0.1177
  916MOL0     C20790   7.389   4.054   1.962 -0.2878  0.1904  0.3004
  916MOL0     C20791   7.241   4.030   1.945 -0.4157  0.1449 -0.0880
  916MOL0     C20792   7.202   3.898   1.894  0.3206  0.0764  0.3689
  916MOL0     C20793   7.056   3.909   1.840 -0.9336  0.4824  0.3455
  916MOL0     C20794   7.010   3.782   1.762 -0.1531 -0.7718 -0.0321
  916MOL0     C20795   6.987   3.651   1.853  0.9565  0.9053 -0.3432
  916MOL0     C20796   6.838   3.642   1.899  0.5078 -0.1475 -0.4000
  916MOL0     N20797   6.839   3.549   2.017  0.2085  0.6407  0.8815
  916MOL0     C20798   6.802   3.571   2.143  0.5355 -0.4504  0.9821
  916MOL0     C20799   6.838   3.456   2.202  0.4435 -0.9983  0.0540
  916MOL0     C20800   6.827   3.436   2.352  0.2650 -0.4590  0.5536
  916MOL0     C20801   6.731   3.325   2.392  0.2323  0.5389  0.5589
  916MOL0     C20802   6.586   3.370   2.355 -1.0318 -0.4663 -0.5225
  916MOL0     C20803   6.504   3.363   2.475 -0.2266  0.1712  0.5466
  916MOL0     O20804   6.373   3.423   2.456  0.1457  0.3271  0.2890
  916MOL0     C20805   6.310   3.457   2.569  0.4591  0.0391 -0.3645
  916MOL0     C20806   6.336   3.423   2.705  0.2099  0.5369 -0.1981
  916MOL0     C20807   6.257   3.455   2.810 -0.2587 -0.9239  0.2061
  916MOL0     C20808   6.152   3.545   2.792 -1.0795  0.7373  0.1650
  916MOL0     C20809   6.067   3.583   2.901  0.1278 -0.6643 -0.1894
  916MOL0     O20810   6.121   3.561   3.033 -0.4140 -0.7182  0.3585
  916MOL0     C20811   6.039   3.596   3.129  0.0798 -0.9705 -0.3885
  916MOL0     C20812   6.038   3.726   3.187 -0.7446  0.3222  0.4459
  916MOL0     C20813   5.953   3.758   3.292  0.2104  0.0122  0.5578
  916MOL0     C20814   5.848   3.664   3.328  0.3649 -1.0632  0.0459
  916MOL0     O20815   5.745   3.693   3.408 -0.6870  0.1018 -0.6882
  916MOL0     C20816   5.745   3.814   3.494  0.5801  0.0621  0.5451
  916MOL0     C20817   5.603   3.836   3.536 -0.2329  0.4289 -0.7547
  916MOL0     C20818   5.533   3.736   3.629  0.3150 -0.4317  0.8722
  916MOL0     C20819   5.379   3.768   3.648  0.3209 -0.4503 -0.3726
  916MOL0     C20820   5.346   3.905   3.713 -0.1490  0.4744 -0.7894
  916MOL0     C20821   5.198   3.943   3.744  0.7145  0.0857  0.4083
  916MOL0     C20822   5.116   3.984   3.617 -0.4331 -0.6223 -0.4613
  916MOL0     C20823   4.982   4.050   3.652  0.1868  0.4734  0.0481
  916MOL0    Cl20824   4.900   4.096   3.502 -0.1804  0.3916 -0.5144
  916MOL0     C20825   5.854   3.535   3.273  0.6222 -0.6319 -0.4733
  916MOL0     C20826   5.938   3.506   3.168  0.7130  0.9443  0.5960
  916MOL0     O20827   5.958   3.631   2.875 -0.8180 -0.3172  0.1474
  916MOL0     C20828   6.126   3.588   2.657 -0.5007 -0.4658 -0.0888
  916MOL0     C20829   6.197   3.531   2.557 -0.0110  0.1878 -0.8008
  916MOL0     N20830   6.889   3.362   2.117 -0.0963 -0.4698 -0.7694
  916MOL0     N20831   6.900   3.425   2.008  0.2154 -0.0707  0.8778
  916MOL0     C20832   7.496   3.833   1.601 -0.2708 -0.4820 -1.0558
  916MOL0     C20833   7.585   3.773   1.506 -0.6011 -0.0744 -0.0339
  916MOL0     C20834   7.876   3.698   1.138  0.7886  0.3833 -0.2054
  916MOL0     C20835   7.875   3.563   1.181  0.3584 -0.6356 -0.3189
  916MOL0     C20836   7.960   3.478   1.122  0.7657  0.5212  0.6074
  916MOL0     C20837   8.031   3.500   1.004 -0.8314 -0.8533  0.0681
  916MOL0     O20838   8.101   3.388   0.952  0.9980 -0.2407  0.1615
  916MOL0     C20839   8.154   3.397   0.817  0.3625  0.5064  0.4072
  916MOL0     C20840   8.250   3.278   0.795  0.1530  0.1528 -0.3138
  916MOL0     C20841   8.358   3.318   0.690 -0.0501  0.4086  0.0160
  916MOL0     C20842   8.322   3.307   0.536  0.2188 -0.0403  0.4454
  916MOL0     C20843   8.225   3.412   0.497  0.2125  0.4251 -0.2380
  916MOL0     C20844   8.124   3.484   0.485  0.0366 -0.1808 -0.4552
  916MOL0     C20845   8.033   3.642   0.953 -0.5209 -0.1324 -1.1378
  916MOL0     C20846   7.953   3.734   1.025 -0.7047  0.1715  1.2263
  916MOL0     H20847   7.714   4.049   1.354  0.8353  1.4741  1.4597
  916MOL0     H20848   7.585   4.156   1.526  0.9377  0.0359 -2.7742
  916MOL0     H20849   7.579   4.051   1.859 -0.0356  1.2224 -1.1338
  916MOL0     H20850   7.499   3.904   1.852  1.3440  1.1264 -0.8714
  916MOL0     H20851   7.411   4.157   1.990  0.9738 -0.1347  0.5582
  916MOL0     H20852   7.420   4.005   2.055 -2.0081 -0.1536  0.7293
  916MOL0     H20853   7.222   4.115   1.879  2.1536  0.0928 -1.0080
  916MOL0     H20854   7.187   4.045   2.039 -1.1612 -0.5568 -0.3988
  916MOL0     H20855   7.260   3.855   1.811  0.1760 -1.5953  1.0932
  916MOL0     H20856   7.207   3.828   1.978  2.4605  0.9280  1.0134
  916MOL0     H20857   7.062   3.982   1.759 -2.0099  1.6569  1.2897
  916MOL0     H20858   6.988   3.930   1.923 -0.2699 -1.7122  1.5434
  916MOL0     H20859   7.085   3.744   1.691 -0.7600 -2.3223  0.1218
  916MOL0     H20860   6.922   3.818   1.707  2.7837  4.5565 -2.0374
  916MOL0     H20861   7.016   3.555   1.808 -1.6956 -0.3140  0.3705
  916MOL0     H20862   7.056   3.654   1.938 -0.6469 -1.0716  1.1151
  916MOL0     H20863   6.782   3.608   1.811  2.7743 -1.9808 -1.2184
  916MOL0     H20864   6.796   3.742   1.914 -1.5483 -0.7666 -1.6026
  916MOL0     H20865   6.751   3.656   2.187  0.7975  0.0727  0.3063
  916MOL0     H20866   6.796   3.534   2.389  0.3536  0.3567 -1.4304
  916MOL0     H20867   6.931   3.423   2.383  0.9089  0.6835 -1.0078
  916MOL0     H20868   6.754   3.312   2.498  0.0814  4.0463  1.1539
  916MOL0     H20869   6.747   3.232   2.338 -3.1680 -0.3997  0.9277
  916MOL0     H20870   6.588   3.470   2.311 -0.4649 -0.0624  0.3869
  916MOL0     H20871   6.558   3.294   2.281 -0.4402 -0.5331 -0.6882
  916MOL0     H20872   6.546   3.415   2.562 -1.5206  2.2787 -0.0226
  916MOL0     H20873   6.485   3.260   2.507  3.2968 -0.7492  0.1482
  916MOL0     H20874   6.408   3.342   2.715 -2.8139 -2.0932  2.9631
  916MOL0     H20875   6.269   3.394   2.899 -1.1134  0.6346  1.4453
  916MOL0     H20876   6.108   3.805   3.164  3.8370 -3.0240  1.3345
  916MOL0     H20877   5.972   3.845   3.355  0.2800 -0.2416  0.8933
  916MOL0     H20878   5.775   3.905   3.441 -2.6031  1.0787  0.2864
  916MOL0     H20879   5.812   3.794   3.578  2.1444 -1.2289 -0.9264
  916MOL0     H20880   5.545   3.847   3.445 -1.5116 -1.1932 -0.1858
  916MOL0     H20881   5.591   3.929   3.592 -1.5338 -0.8437  1.2013
  916MOL0     H20882   5.579   3.734   3.728  1.0291 -6.2816  0.8008
  916MOL0     H20883   5.537   3.638   3.581  0.7348  1.5085 -3.4712
  916MOL0     H20884   5.328   3.753   3.552 -0.6859 -0.6008  0.1691
  916MOL0     H20885   5.351   3.691   3.720  4.8418 -0.4458  1.7068
  916MOL0     H20886   5.387   3.983   3.647 -0.6617  1.2403 -0.2238
  916MOL0     H20887   5.407   3.901   3.804  1.2438  0.9861 -1.6624
  916MOL0     H20888   5.199   4.035   3.803  0.6553 -0.4962  1.3461
  916MOL0     H20889   5.145   3.862   3.796  0.2801  1.6648  2.5388
  916MOL0     H20890   5.167   4.049   3.546  0.0949  0.0726  0.5292
  916MOL0     H20891   5.098   3.886   3.571  0.1630 -1.0391  0.1573
  916MOL0     H20892   5.006   4.139   3.712  0.6978  1.6651 -1.8472
  916MOL0     H20893   4.921   3.981   3.712  1.4642 -1.3639 -0.6572
  916MOL0     H20894   5.780   3.460   3.298 -0.9327  1.3305  1.2432
  916MOL0     H20895   5.934   3.419   3.104 -0.0311 -0.7446  2.8025
  916MOL0     H20896   6.044   3.656   2.634  1.1688  2.1215  1.1259
  916MOL0     H20897   6.175   3.557   2.454 -2.8425 -0.7468 -0.5045
  916MOL0     H20898   7.440   3.767   1.667 -1.7201 -1.6864 -3.3503
  916MOL0     H20899   7.582   3.666   1.490 -0.1348 -0.1379  0.2931
  916MOL0     H20900   7.811   3.529   1.261 -0.4740  1.2917 -0.1147
  916MOL0     H20901   7.960   3.372   1.143  5.4300 -0.0757 -1.1734
  916MOL0     H20902   8.201   3.496   0.810 -2.8517  2.0260 -3.5645
  916MOL0     H20903   8.068   3.403   0.750  0.1090  1.9708  0.8278
  916MOL0     H20904   8.296   3.239   0.885 -0.7205 -2.0350 -0.7653
  916MOL0     H20905   8.189   3.191   0.771 -1.7670 -0.0413  4.2588
  916MOL0     H20906   8.436   3.242   0.698 -1.6657 -1.4205 -0.9462
  916MOL0     H20907   8.389   3.421   0.711  1.1573  0.0218  0.2179
  916MOL0     H20908   8.409   3.328   0.472 -0.5967  0.5226 -0.5097
  916MOL0     H20909   8.286   3.207   0.512 -0.6352  0.5321 -0.7246
  916MOL0     H20910   8.038   3.548   0.486  1.0383  1.3932  3.4680
  916MOL0     H20911   8.082   3.678   0.863 -2.7338  2.4722 -1.4393
  916MOL0     H20912   7.931   3.833   0.986 -0.5924 -0.1079  0.4143
  917MOL0     O20913   5.214  10.042   7.968  0.3706 -0.7605  0.3816
  917MOL0     C20914   5.195   9.931   7.920 -0.2159  0.3163 -0.4096
  917MOL0     O20915   5.243   9.893   7.792  0.3380  0.8263  0.0938
  917MOL0     C20916   5.363   9.962   7.755 -0.5742  0.9569 -0.1897
  917MOL0     C20917   5.355  10.020   7.627 -0.8449 -0.5500 -1.0073
  917MOL0     C20918   5.474  10.081   7.570  0.2297 -1.6012 -0.6975
  917MOL0     C20919   5.592  10.066   7.626  0.8407 -0.7015  0.6302
  917MOL0     O20920   5.704  10.115   7.563 -0.4404 -0.3154  0.0843
  917MOL0     C20921   5.724  10.082   7.419 -0.0982 -0.8741  0.4674
  917MOL0     C20922   5.877  10.069   7.408  1.0364  0.6029 -0.6362
  917MOL0     C20923   5.942  10.086   7.268  0.2011  0.0686 -0.6186
  917MOL0     C20924   6.096  10.085   7.260  0.5685 -0.8831  0.2313
  917MOL0     C20925   6.170  10.117   7.124 -0.1214  0.2023 -0.5147
  917MOL0     C20926   6.141  10.007   7.019  0.4738 -0.6016 -0.3624
  917MOL0     C20927   6.237   9.895   7.038 -0.4619 -0.9066 -0.1401
  917MOL0     C20928   6.188   9.768   6.967  0.5747  0.4862  0.5692
  917MOL0     N20929   6.075   9.695   7.047 -0.2721  1.0522  0.7434
  917MOL0     C20930   6.096   9.629   7.162  0.1823  0.7944 -0.5621
  917MOL0     C20931   5.973   9.559   7.170 -0.1530  0.8412  0.5099
  917MOL0     C20932   5.917   9.479   7.290  0.4215  0.0436  0.9917
  917MOL0     C20933   5.885   9.334   7.268  0.0013 -0.4369 -0.5667
  917MOL0     C20934   5.788   9.292   7.147  0.2454  0.1576 -0.1740
  917MOL0     C20935   5.724   9.153   7.167 -0.6439 -0.2213  0.2473
  917MOL0     O20936   5.827   9.057   7.214  0.3959  0.0132  0.8944
  917MOL0     C20937   5.827   8.932   7.168 -0.0140  0.5786 -0.0723
  917MOL0     C20938   5.949   8.878   7.134 -0.1142 -0.4135  0.5468
  917MOL0     C20939   5.947   8.753   7.074  0.7225  1.0927 -0.1053
  917MOL0     C20940   5.830   8.669   7.062  0.0704 -0.3707  0.3416
  917MOL0     C20941   5.823   8.540   6.986 -0.5788 -0.7754 -1.2595
  917MOL0     O20942   5.701   8.500   6.955  0.3238  0.2524  0.7467
  917MOL0     C20943   5.675   8.373   6.917  0.4277 -0.1074  0.7204
  917MOL0     C20944   5.655   8.342   6.781 -1.2851 -0.6446 -0.3381
  917MOL0     C20945   5.616   8.214   6.740 -0.8614 -0.2073 -0.0845
  917MOL0     C20946   5.590   8.110   6.833  0.1957 -1.3754  1.2005
  917MOL0     O20947   5.570   7.985   6.804 -0.6778  0.7645  0.9104
  917MOL0     C20948   5.658   7.932   6.702  0.3475  0.3353 -0.0313
  917MOL0     C20949   5.622   7.792   6.691 -1.5467 -0.3282  0.3372
  917MOL0     C20950   5.680   7.727   6.564  0.4719 -0.0912  0.3128
  917MOL0     C20951   5.652   7.568   6.558  0.6065 -0.2142 -0.4372
  917MOL0     C20952   5.733   7.509   6.448  0.2556 -0.4957 -0.2830
  917MOL0     C20953   5.650   7.534   6.315 -0.9735 -0.0711 -0.4323
  917MOL0     C20954   5.724   7.460   6.193  0.7388 -0.8176  0.0186
  917MOL0     C20955   5.747   7.309   6.197  0.3182 -0.3766  0.9426
  917MOL0    Cl20956   5.582   7.226   6.182  0.2614  0.3896 -0.1002
  917MOL0     C20957   5.597   8.147   6.972 -0.4956 -0.7954 -0.9007
  917MOL0     C20958   5.631   8.283   7.008  1.0580  0.1676 -0.3193
  917MOL0     O20959   5.929   8.488   6.946  1.3634 -0.3187 -0.6720
  917MOL0     C20960   5.718   8.723   7.110  0.2360 -0.2444 -0.1141
  917MOL0     C20961   5.716   8.857   7.157  1.3403  0.2840 -0.2871
  917MOL0     N20962   5.899   9.583   7.050 -0.1339 -0.4346  0.0615
  917MOL0     N20963   5.962   9.675   6.983 -0.4165 -0.6949 -0.3209
  917MOL0     C20964   5.605  10.004   7.747  0.8782  0.5842 -0.6398
  917MOL0     C20965   5.491   9.952   7.816 -0.6211 -0.4492 -0.1142
  917MOL0     C20966   5.095   9.834   7.987  0.3042 -0.3424 -0.2035
  917MOL0     C20967   5.015   9.853   8.103  0.0288 -0.4052 -0.5636
  917MOL0     C20968   4.924   9.758   8.140 -0.0697  0.8388  0.7864
  917MOL0     C20969   4.914   9.637   8.074  0.9668  0.0495 -0.5516
  917MOL0     O20970   4.820   9.551   8.132  0.0131 -0.7974 -0.3346
  917MOL0     C20971   4.784   9.416   8.083  0.2493 -0.7265 -1.2431
  917MOL0     C20972   4.884   9.315   8.134 -0.3002 -1.1784 -0.3224
  917MOL0     C20973   4.908   9.339   8.287 -0.3796 -0.0891 -0.4992
  917MOL0     C20974   4.993   9.238   8.357 -0.1930 -1.1311  0.8480
  917MOL0     C20975   4.919   9.117   8.386 -1.8483  0.2125  0.6728
  917MOL0     C20976   4.862   9.008   8.383  0.2979  0.9641 -1.0586
  917MOL0     C20977   5.006   9.617   7.969  0.2264 -0.6676  0.4411
  917MOL0     C20978   5.091   9.712   7.931  0.5792  0.4740 -0.2493
  917MOL0     H20979   5.268  10.029   7.563  0.3640 -0.7386 -2.7423
  917MOL0     H20980   5.483  10.132   7.474  2.7749  1.1915  0.8305
  917MOL0     H20981   5.687  10.160   7.353 -0.1908 -1.9620 -0.8061
  917MOL0     H20982   5.671   9.989   7.393 -0.4346 -0.7414  0.6598
  917MOL0     H20983   5.902   9.970   7.445 -1.0961  1.0908  2.4527
  917MOL0     H20984   5.934  10.134   7.475  0.6483 -1.2464  1.5847
  917MOL0     H20985   5.919  10.185   7.227  0.7950 -0.0934 -1.3528
  917MOL0     H20986   5.891  10.019   7.198 -0.0930 -1.0821  0.6514
  917MOL0     H20987   6.134  10.161   7.329  1.6140 -0.0220 -1.2310
  917MOL0     H20988   6.129   9.986   7.293 -0.0317 -0.5739  1.8484
  917MOL0     H20989   6.271  10.118   7.164 -0.7826 -4.6850  2.1981
  917MOL0     H20990   6.131  10.213   7.089 -2.0731 -0.0751  0.6947
  917MOL0     H20991   6.167  10.046   6.921  3.1524 -0.7577  0.2010
  917MOL0     H20992   6.036   9.977   7.024  0.5836 -1.5306 -2.6994
  917MOL0     H20993   6.333   9.928   6.998 -1.1827  3.0362  0.9606
  917MOL0     H20994   6.237   9.876   7.146  0.8029  1.1730  0.2849
  917MOL0     H20995   6.277   9.705   6.950 -0.8825 -1.3261 -0.7746
  917MOL0     H20996   6.145   9.802   6.873  0.9855  1.1741  0.6207
  917MOL0     H20997   6.171   9.650   7.238 -1.1818 -0.9134  1.3503
  917MOL0     H20998   5.829   9.542   7.307 -0.3521 -0.2656 -1.4721
  917MOL0     H20999   5.983   9.479   7.378  2.1359  0.8234 -0.2463
  917MOL0     H21000   5.839   9.311   7.365  1.8938  0.0308  0.4965
  917MOL0     H21001   5.979   9.278   7.271  0.6227  0.6233  0.3944
  917MOL0     H21002   5.709   9.365   7.123  0.1717 -0.1905 -1.0454
  917MOL0     H21003   5.848   9.293   7.055  0.3181 -3.1199 -0.2630
  917MOL0     H21004   5.680   9.125   7.071  1.3597 -0.8552 -0.5491
  917MOL0     H21005   5.656   9.165   7.252 -0.3032 -0.5274  0.5683
  917MOL0     H21006   6.040   8.937   7.141 -0.7427  0.9753 -1.8238
  917MOL0     H21007   6.042   8.722   7.032 -0.0840  0.0094 -1.1993
  917MOL0     H21008   5.675   8.411   6.699 -1.7184  1.5415  1.3053
  917MOL0     H21009   5.596   8.205   6.634  1.5874  3.1037 -1.0060
  917MOL0     H21010   5.762   7.944   6.734  0.6719  0.6065 -1.1560
  917MOL0     H21011   5.646   7.976   6.603 -1.4707 -1.7956 -0.8394
  917MOL0     H21012   5.513   7.787   6.687 -1.9378 -0.8874  5.5446
  917MOL0     H21013   5.644   7.737   6.783  1.2048 -1.6140 -0.9780
  917MOL0     H21014   5.788   7.746   6.567  0.0886  2.2736  1.5712
  917MOL0     H21015   5.643   7.766   6.469  2.6740 -1.1652 -1.0748
  917MOL0     H21016   5.685   7.517   6.649 -0.8072  0.0304  0.2368
  917MOL0     H21017   5.546   7.541   6.558  0.9680 -1.7706 -0.9297
  917MOL0     H21018   5.740   7.401   6.461 -1.4606 -0.4195  1.8468
  917MOL0     H21019   5.835   7.546   6.434  0.1876  0.8000  2.0941
  917MOL0     H21020   5.633   7.640   6.291 -3.5787 -0.3602 -0.1364
  917MOL0     H21021   5.555   7.480   6.325  1.4681 -4.3737  2.2990
  917MOL0     H21022   5.650   7.475   6.113  1.9313  3.3909 -0.5500
  917MOL0     H21023   5.811   7.515   6.156  0.9357 -0.6808  0.6856
  917MOL0     H21024   5.800   7.282   6.289 -1.3558 -0.3872  1.9663
  917MOL0     H21025   5.810   7.272   6.116  0.2871  0.9241  0.3138
  917MOL0     H21026   5.565   8.080   7.051 -3.6823  0.8093 -0.6863
  917MOL0     H21027   5.618   8.322   7.108 -0.2380 -2.4029  0.5968
  917MOL0     H21028   5.629   8.660   7.112  0.8326 -1.0937  1.1526
  917MOL0     H21029   5.621   8.900   7.185  2.1964  2.0652  0.0635
  917MOL0     H21030   5.697   9.999   7.805  1.3199  3.2809 -0.9683
  917MOL0     H21031   5.502   9.903   7.912  0.5542  0.1677  0.0878
  917MOL0     H21032   5.021   9.943   8.163  0.7387  0.4395 -1.8523
  917MOL0     H21033   4.858   9.770   8.226  1.3038 -2.2148  2.4244
  917MOL0     H21034   4.780   9.420   7.974  1.7429  1.9082 -1.2636
  917MOL0     H21035   4.683   9.395   8.119 -0.8128  0.4883 -3.3190
  917MOL0     H21036   4.845   9.213   8.123 -2.9308 -0.1325 -1.4623
  917MOL0     H21037   4.972   9.319   8.069 -0.0885 -3.6238 -0.2834
  917MOL0     H21038   4.816   9.349   8.345 -0.0983 -0.4167  0.0148
  917MOL0     H21039   4.967   9.430   8.300 -2.3694  0.8337  4.4529
  917MOL0     H21040   5.068   9.216   8.280  0.9251 -0.3616  1.7060
  917MOL0     H21041   5.036   9.281   8.447 -0.5928  1.8026 -0.2554
  917MOL0     H21042   4.808   8.919   8.409 -0.2084  2.0093  1.8203
  917MOL0     H21043   5.004   9.523   7.914  1.6393 -0.6640  0.3259
  917MOL0     H21044   5.155   9.686   7.847  0.5585 -1.8151  0.3585
  918MOL0     O21045   9.317   7.568   3.418 -0.3424  1.3507  0.1134
  918MOL0     C21046   9.277   7.521   3.314  0.3179 -0.0528  0.9241
  918MOL0     O21047   9.221   7.398   3.296  0.1902  0.5110 -0.2597
  918MOL0     C21048   9.217   7.324   3.422 -0.2762  0.9871  0.3580
  918MOL0     C21049   9.332   7.253   3.463 -0.4472 -0.4344 -0.1826
  918MOL0     C21050   9.332   7.169   3.578 -0.5440 -0.2282 -0.2552
  918MOL0     C21051   9.216   7.151   3.650 -0.4374  0.5245  0.1712
  918MOL0     O21052   9.229   7.076   3.766 -0.6507  0.2897  0.6933
  918MOL0     C21053   9.122   7.024   3.834  0.0346  0.5161 -0.9412
  918MOL0     C21054   9.064   6.911   3.748 -0.1759  0.9655  0.5536
  918MOL0     C21055   8.923   6.859   3.773 -0.9573 -0.5480 -0.1931
  918MOL0     C21056   8.892   6.863   3.922 -0.7781 -0.4627  0.1771
  918MOL0     C21057   8.766   6.775   3.956  0.3510 -0.3705  0.3672
  918MOL0     C21058   8.788   6.687   4.079 -0.0586 -1.4170 -0.7355
  918MOL0     C21059   8.661   6.638   4.150 -0.5198 -0.7591  0.4214
  918MOL0     C21060   8.698   6.560   4.282  0.1841  0.2940  0.5383
  918MOL0     N21061   8.579   6.565   4.378 -1.3584  0.5489  0.5538
  918MOL0     C21062   8.464   6.498   4.358 -0.9481  0.5052 -0.6333
  918MOL0     C21063   8.396   6.513   4.474 -0.0826  1.2317 -0.3409
  918MOL0     C21064   8.250   6.464   4.496 -0.7902  1.8450  0.0063
  918MOL0     C21065   8.243   6.383   4.626 -0.4003 -0.4216  0.4444
  918MOL0     C21066   8.108   6.369   4.691 -0.0476 -0.5525  0.1691
  918MOL0     C21067   7.990   6.351   4.598  0.0122  0.3296 -0.2340
  918MOL0     O21068   7.871   6.388   4.670  0.0794 -0.1631 -0.1892
  918MOL0     C21069   7.747   6.373   4.612 -0.9900 -0.8008  0.7460
  918MOL0     C21070   7.736   6.351   4.470  0.7655  0.7716  0.0649
  918MOL0     C21071   7.609   6.339   4.414  0.6141  0.6664  0.3781
  918MOL0     C21072   7.495   6.326   4.493 -0.0463  1.1562  0.2227
  918MOL0     C21073   7.359   6.295   4.428  0.4849 -0.5725 -0.1532
  918MOL0     O21074   7.370   6.249   4.298 -0.1413  0.3684 -0.2804
  918MOL0     C21075   7.262   6.197   4.239 -0.6713 -0.3817 -0.1284
  918MOL0     C21076   7.144   6.274   4.207 -0.2862 -1.3156  0.1213
  918MOL0     C21077   7.048   6.210   4.137  0.4884  0.6873  0.0109
  918MOL0     C21078   7.060   6.071   4.097  0.9476 -0.4982 -0.5619
  918MOL0     O21079   6.948   6.031   4.026 -0.2722  0.2232  0.2367
  918MOL0     C21080   6.947   5.897   3.979 -0.0349 -0.5612 -0.1527
  918MOL0     C21081   7.032   5.867   3.855  0.6154 -0.1591 -0.0864
  918MOL0     C21082   7.021   5.966   3.735  0.3432 -0.8969 -0.2028
  918MOL0     C21083   7.109   5.924   3.620  0.3262 -1.4057 -0.5680
  918MOL0     C21084   7.097   6.037   3.515  0.2577 -0.0559 -0.5628
  918MOL0     C21085   7.211   6.017   3.408  0.5905 -0.0001 -0.3388
  918MOL0     C21086   7.222   6.150   3.335 -1.2640 -0.3346  0.6247
  918MOL0     C21087   7.208   6.137   3.181  0.0438 -0.1490 -0.1266
  918MOL0    Cl21088   7.315   6.010   3.117 -0.1761 -0.5717  0.3745
  918MOL0     C21089   7.176   5.999   4.123 -0.1667 -0.0890  0.6115
  918MOL0     C21090   7.281   6.066   4.195  0.9275 -0.2172  0.7525
  918MOL0     O21091   7.257   6.307   4.491  0.7761 -0.1194  0.6086
  918MOL0     C21092   7.515   6.335   4.630  0.8803  1.1790 -0.2659
  918MOL0     C21093   7.634   6.371   4.689 -0.0806 -1.3279 -0.5752
  918MOL0     N21094   8.478   6.587   4.564  0.7989 -0.1173 -0.0934
  918MOL0     N21095   8.590   6.614   4.505 -0.4025  0.3298 -0.4722
  918MOL0     C21096   9.102   7.224   3.616  0.4206 -0.5648 -0.2065
  918MOL0     C21097   9.102   7.305   3.499 -0.2136 -0.1782  0.3737
  918MOL0     C21098   9.273   7.612   3.191 -0.1344  0.0935 -0.3609
  918MOL0     C21099   9.325   7.737   3.210 -0.8189 -0.0313 -0.3276
  918MOL0     C21100   9.310   7.826   3.107  0.5821  0.2368 -0.9771
  918MOL0     C21101   9.250   7.794   2.990 -0.9559 -0.6357  0.2100
  918MOL0     O21102   9.240   7.903   2.905  0.7413  0.2613 -0.4536
  918MOL0     C21103   9.169   7.902   2.781  0.6290 -0.5360  0.4215
  918MOL0     C21104   9.222   8.010   2.704  0.9949 -0.0805 -0.3927
  918MOL0     C21105   9.370   7.993   2.662  0.7744  0.1645 -0.6490
  918MOL0     C21106   9.377   7.889   2.546  0.1373 -0.4972 -0.1601
  918MOL0     C21107   9.514   7.874   2.480  0.1510  0.2479 -0.7697
  918MOL0     C21108   9.623   7.855   2.427  0.2903 -0.4738 -0.1770
  918MOL0     C21109   9.186   7.670   2.972 -0.3772  0.6703  0.1540
  918MOL0     C21110   9.199   7.575   3.076  0.0188 -0.8668 -0.1460
  918MOL0     H21111   9.419   7.273   3.400 -2.1998  2.4841 -1.9081
  918MOL0     H21112   9.426   7.127   3.610  0.8750  1.6745 -1.7158
  918MOL0     H21113   9.039   7.092   3.854 -0.8797 -0.6639 -0.5440
  918MOL0     H21114   9.155   6.972   3.925  1.7371 -0.8804 -2.2789
  918MOL0     H21115   9.135   6.830   3.771  1.4575  2.9619  3.0604
  918MOL0     H21116   9.084   6.931   3.642  1.8241 -0.7527  0.5204
  918MOL0     H21117   8.906   6.761   3.727 -2.4196  0.7630 -2.6420
  918MOL0     H21118   8.848   6.929   3.734 -0.6295 -0.4791 -0.7100
  918MOL0     H21119   8.982   6.822   3.968 -0.3923 -1.6562 -1.5204
  918MOL0     H21120   8.885   6.968   3.951 -1.7807 -0.2192 -0.8430
  918MOL0     H21121   8.755   6.708   3.870  2.1126 -1.1889  0.7395
  918MOL0     H21122   8.684   6.847   3.956  0.2966 -0.4282 -0.1960
  918MOL0     H21123   8.834   6.760   4.147 -1.2594 -1.0418 -0.2817
  918MOL0     H21124   8.858   6.605   4.061 -1.0449 -2.0846 -1.6064
  918MOL0     H21125   8.596   6.720   4.181 -0.4941 -0.4993 -0.1997
  918MOL0     H21126   8.609   6.581   4.073  0.5086 -3.9140  1.8922
  918MOL0     H21127   8.784   6.611   4.325  2.0778 -4.6201  3.3833
  918MOL0     H21128   8.738   6.460   4.262  1.1086  0.8966 -0.7223
  918MOL0     H21129   8.427   6.438   4.275 -0.5798 -1.7008  0.7233
  918MOL0     H21130   8.222   6.390   4.421  1.3782 -0.8652  1.6620
  918MOL0     H21131   8.178   6.546   4.489  0.2538  2.6950 -1.0527
  918MOL0     H21132   8.314   6.415   4.703 -0.4899 -2.6833  1.5744
  918MOL0     H21133   8.269   6.285   4.585 -1.2077 -0.4215 -0.0814
  918MOL0     H21134   8.110   6.279   4.752  3.1218 -2.0171 -1.8225
  918MOL0     H21135   8.091   6.460   4.750  3.6378  1.1101 -1.0238
  918MOL0     H21136   7.991   6.248   4.559 -0.9269 -0.0078  0.5948
  918MOL0     H21137   7.997   6.417   4.511 -3.7823 -1.2755 -1.9796
  918MOL0     H21138   7.818   6.339   4.399 -0.0863 -0.6376 -0.7335
  918MOL0     H21139   7.606   6.325   4.307 -0.0446  1.1955  0.3161
  918MOL0     H21140   7.125   6.377   4.233  1.1061 -0.9190 -0.3708
  918MOL0     H21141   6.968   6.279   4.112  0.7792  1.6749  1.6472
  918MOL0     H21142   6.844   5.869   3.953 -0.6870  0.0996  1.5980
  918MOL0     H21143   6.970   5.836   4.067  1.3341  1.8060  1.2366
  918MOL0     H21144   7.002   5.765   3.831 -0.9757  0.2944 -0.1248
  918MOL0     H21145   7.137   5.864   3.887  0.0051 -0.4592  2.0116
  918MOL0     H21146   7.047   6.061   3.783 -1.5961  0.1034 -1.0055
  918MOL0     H21147   6.917   5.977   3.702  0.7710  2.7247 -0.7394
  918MOL0     H21148   7.213   5.931   3.655 -0.1036  0.8631  0.4094
  918MOL0     H21149   7.094   5.830   3.566 -1.8080 -1.2778 -0.2496
  918MOL0     H21150   7.118   6.130   3.569  0.4534 -0.0244 -0.6914
  918MOL0     H21151   6.994   6.033   3.478 -0.8942  2.3685  1.9632
  918MOL0     H21152   7.196   5.935   3.337  3.6589  0.7813 -2.0773
  918MOL0     H21153   7.304   5.998   3.464 -0.8696  1.7698  2.9911
  918MOL0     H21154   7.155   6.229   3.370  1.2349  2.5655 -0.5996
  918MOL0     H21155   7.317   6.201   3.356 -1.4830  1.9781 -2.9966
  918MOL0     H21156   7.232   6.230   3.128  0.7893 -0.4165 -0.2685
  918MOL0     H21157   7.100   6.121   3.167  0.1451 -2.5868  1.3024
  918MOL0     H21158   7.186   5.893   4.101 -1.7684  0.1221 -1.4511
  918MOL0     H21159   7.371   6.009   4.219 -0.1463 -2.6521 -0.6033
  918MOL0     H21160   7.426   6.334   4.692  0.4017  3.2728 -0.8206
  918MOL0     H21161   7.635   6.406   4.792  0.1236 -2.2521 -0.2568
  918MOL0     H21162   9.009   7.229   3.672  0.3888 -0.6099 -0.2546
  918MOL0     H21163   9.009   7.341   3.455 -1.2214 -1.0453  1.7389
  918MOL0     H21164   9.379   7.789   3.289  4.3402 -2.8833 -1.5446
  918MOL0     H21165   9.341   7.928   3.131 -2.5088  1.1884 -0.6387
  918MOL0     H21166   9.060   7.911   2.787  0.7658  1.6936  0.4795
  918MOL0     H21167   9.190   7.808   2.730 -1.8284 -1.9783  1.8818
  918MOL0     H21168   9.163   8.018   2.612  1.4265  2.8784 -0.5168
  918MOL0     H21169   9.219   8.112   2.742  0.9233 -0.3957  0.4534
  918MOL0     H21170   9.422   7.948   2.747 -0.3381 -1.7274 -0.9113
  918MOL0     H21171   9.418   8.089   2.642  2.8713 -0.4291  1.1465
  918MOL0     H21172   9.337   7.795   2.584  1.8567 -0.9994  0.5331
  918MOL0     H21173   9.309   7.921   2.467  0.4295  1.3790  0.3050
  918MOL0     H21174   9.721   7.840   2.386  0.2472 -0.9592 -0.1041
  918MOL0     H21175   9.137   7.649   2.877 -1.1568  1.7718  0.2951
  918MOL0     H21176   9.147   7.480   3.067 -1.8849 -0.0901  1.7030
  919MOL0     O21177   4.098   7.872  10.587  0.5364  0.5733  0.6394
  919MOL0     C21178   3.990   7.909  10.540  0.2971  0.0496 -0.2111
  919MOL0     O21179   3.925   7.850  10.436 -0.5528 -0.0976  0.7330
  919MOL0     C21180   3.974   7.741  10.365 -0.6412  0.4776 -0.3507
  919MOL0     C21181   4.049   7.764  10.248 -0.9081 -0.5226 -0.1432
  919MOL0     C21182   4.093   7.646  10.176  0.2374  0.2229  0.0481
  919MOL0     C21183   4.063   7.512  10.218 -0.8422  0.0812  0.0427
  919MOL0     O21184   4.104   7.404  10.153  0.1280  0.0296  0.3027
  919MOL0     C21185   4.223   7.417  10.072 -0.3394 -0.0163 -0.6316
  919MOL0     C21186   4.189   7.428   9.926 -0.8435 -0.5896 -0.2018
  919MOL0     C21187   4.115   7.301   9.887  0.2010 -0.2696 -0.1444
  919MOL0     C21188   4.071   7.318   9.741  0.3819 -0.0337  0.3280
  919MOL0     C21189   4.039   7.180   9.678 -0.5008 -0.6491 -0.0241
  919MOL0     C21190   4.002   7.184   9.524 -0.7496 -0.4808 -0.5457
  919MOL0     C21191   3.860   7.253   9.500  0.3758  0.9312 -0.1146
  919MOL0     C21192   3.741   7.221   9.602 -0.3169  0.2069 -0.3054
  919MOL0     N21193   3.611   7.279   9.575  0.1923  0.5898  0.5618
  919MOL0     C21194   3.589   7.415   9.572  0.4642 -0.8578  0.8848
  919MOL0     C21195   3.455   7.422   9.578 -0.8097  0.2317 -0.6209
  919MOL0     C21196   3.376   7.554   9.583 -0.5875 -0.2654 -0.7646
  919MOL0     C21197   3.247   7.555   9.503 -0.1801  0.1347  0.9323
  919MOL0     C21198   3.247   7.510   9.354  0.2294 -0.0010 -0.1285
  919MOL0     C21199   3.113   7.521   9.296 -0.6544 -0.1734  0.4668
  919MOL0     O21200   3.024   7.433   9.350 -0.1597  1.1438 -0.3678
  919MOL0     C21201   2.892   7.453   9.328  0.0763 -0.2492 -0.3054
  919MOL0     C21202   2.830   7.384   9.223 -0.4928  0.8211  0.2823
  919MOL0     C21203   2.690   7.391   9.214 -0.3696 -1.0044 -0.4696
  919MOL0     C21204   2.609   7.473   9.302 -0.4009  1.2109 -0.4683
  919MOL0     C21205   2.465   7.468   9.294 -0.2452  0.6078 -0.8241
  919MOL0     O21206   2.427   7.395   9.194  0.2859 -0.1855  0.2048
  919MOL0     C21207   2.298   7.384   9.150  0.0313  0.0357  0.1604
  919MOL0     C21208   2.250   7.257   9.108 -0.1242  0.9434 -0.2233
  919MOL0     C21209   2.120   7.247   9.069 -0.4141  0.9055  0.4319
  919MOL0     C21210   2.037   7.355   9.056  0.7859  0.8026  0.3362
  919MOL0     O21211   1.903   7.350   9.019 -0.1589  0.4667  0.3838
  919MOL0     C21212   1.839   7.241   8.954  0.1127  0.6651 -0.1953
  919MOL0     C21213   1.854   7.221   8.812 -0.5908  0.0165  0.6886
  919MOL0     C21214   1.803   7.089   8.760  0.7550  0.0772 -1.1872
  919MOL0     C21215   1.742   7.098   8.616  1.0667  0.4952  0.3559
  919MOL0     C21216   1.681   6.963   8.577 -0.1401 -0.2843  0.0512
  919MOL0     C21217   1.634   6.952   8.437  0.8131 -0.3069 -0.2218
  919MOL0     C21218   1.740   6.973   8.325  0.7226 -0.5319  0.0295
  919MOL0     C21219   1.704   6.941   8.178 -0.2410  0.8771 -0.0797
  919MOL0    Cl21220   1.817   7.025   8.062 -0.1726  0.3455 -0.2795
  919MOL0     C21221   2.087   7.478   9.102 -0.2095 -0.6168  0.5142
  919MOL0     C21222   2.210   7.492   9.141 -0.6255  0.0738  1.1941
  919MOL0     O21223   2.393   7.525   9.369 -0.2424 -0.0009  0.4425
  919MOL0     C21224   2.672   7.558   9.393  0.1430 -0.3897 -0.3210
  919MOL0     C21225   2.808   7.546   9.407  0.6628  0.3027 -0.1940
  919MOL0     N21226   3.403   7.294   9.602 -0.2136 -0.5468  0.4404
  919MOL0     N21227   3.496   7.204   9.584  0.1319 -1.1109 -0.9504
  919MOL0     C21228   3.983   7.499  10.334  0.5261 -0.4083 -0.1198
  919MOL0     C21229   3.950   7.614  10.413  0.2616 -0.2783  0.0744
  919MOL0     C21230   3.941   8.033  10.601  0.4208  0.3027 -0.3670
  919MOL0     C21231   3.815   8.082  10.547 -0.9389  0.0171  0.3291
  919MOL0     C21232   3.765   8.196  10.600  0.6303 -0.7120 -0.3434
  919MOL0     C21233   3.817   8.274  10.703  0.1290  0.1837 -0.2079
  919MOL0     O21234   3.729   8.366  10.753 -0.3111  0.4026  0.5115
  919MOL0     C21235   3.769   8.445  10.855 -0.2785 -0.8071 -0.0456
  919MOL0     C21236   3.678   8.570  10.871 -0.2104  0.4010  0.0292
  919MOL0     C21237   3.535   8.536  10.903 -0.5537  0.0432  0.0474
  919MOL0     C21238   3.446   8.545  10.782 -0.3037 -0.4073 -0.8767
  919MOL0     C21239   3.319   8.495  10.824  1.7102  0.4828  0.3387
  919MOL0     C21240   3.213   8.442  10.863 -0.1288 -0.2655  0.9807
  919MOL0     C21241   3.931   8.224  10.763  0.0232 -0.4548 -0.4058
  919MOL0     C21242   3.997   8.112  10.704 -0.0999  0.3953 -0.2343
  919MOL0     H21243   4.082   7.863  10.217 -3.2278  0.5988  0.7449
  919MOL0     H21244   4.140   7.675  10.082 -1.4630  3.3912  0.0593
  919MOL0     H21245   4.273   7.322  10.091 -0.6712 -0.0211  0.2730
  919MOL0     H21246   4.286   7.500  10.106 -2.2204  1.2102  0.0220
  919MOL0     H21247   4.283   7.434   9.870 -1.1118 -0.3703 -0.6346
  919MOL0     H21248   4.135   7.522   9.910  1.4010  0.5632 -1.5423
  919MOL0     H21249   4.034   7.270   9.954  2.2519 -0.4161  2.4409
  919MOL0     H21250   4.189   7.221   9.898  0.7729  0.2235 -0.3522
  919MOL0     H21251   3.986   7.386   9.747 -2.7112 -3.6181  0.2247
  919MOL0     H21252   4.154   7.369   9.690  0.2071  0.9350  0.9651
  919MOL0     H21253   3.956   7.128   9.728 -4.4104  1.8390 -3.2106
  919MOL0     H21254   4.130   7.121   9.682  0.6702  1.1236  0.6352
  919MOL0     H21255   4.005   7.076   9.508 -3.1438 -1.2156  2.8365
  919MOL0     H21256   4.087   7.232   9.474 -0.0607  1.4663  2.2486
  919MOL0     H21257   3.882   7.360   9.498 -1.1443  1.2524 -1.1700
  919MOL0     H21258   3.818   7.226   9.402 -0.7680  0.0887  0.5841
  919MOL0     H21259   3.772   7.254   9.701  0.9377 -1.9162  0.0639
  919MOL0     H21260   3.729   7.112   9.600 -0.0082  0.1557  0.4757
  919MOL0     H21261   3.659   7.495   9.547  0.2920 -1.4589 -1.8228
  919MOL0     H21262   3.436   7.641   9.557  0.2777  0.2343  2.4240
  919MOL0     H21263   3.359   7.573   9.689  0.7928 -0.4396 -0.4861
  919MOL0     H21264   3.208   7.657   9.498 -0.3233  0.0502  0.2302
  919MOL0     H21265   3.164   7.499   9.546 -0.7853 -1.2509 -1.7678
  919MOL0     H21266   3.313   7.575   9.296 -0.1632  1.4429  0.9904
  919MOL0     H21267   3.282   7.406   9.346  0.3486  0.0085  0.2471
  919MOL0     H21268   3.110   7.506   9.188 -0.2912 -1.8031  0.6667
  919MOL0     H21269   3.084   7.623   9.326  2.6746  0.6163  1.4401
  919MOL0     H21270   2.894   7.330   9.154 -1.2290  1.6456 -1.0919
  919MOL0     H21271   2.652   7.323   9.138  0.8432 -0.5931 -1.4642
  919MOL0     H21272   2.309   7.168   9.129 -0.6385  0.9222  1.3145
  919MOL0     H21273   2.082   7.146   9.056  1.3416  0.2728 -0.1960
  919MOL0     H21274   1.733   7.256   8.972 -0.0063  0.4160 -0.6616
  919MOL0     H21275   1.881   7.156   9.009 -1.6592 -0.8539 -1.1003
  919MOL0     H21276   1.961   7.220   8.788 -1.0821 -0.8541 -1.7043
  919MOL0     H21277   1.809   7.299   8.749  0.2778 -0.6704 -0.8266
  919MOL0     H21278   1.721   7.047   8.820  1.8973 -1.5845 -0.7291
  919MOL0     H21279   1.882   7.015   8.775 -1.3170 -1.7002  2.5149
  919MOL0     H21280   1.656   7.166   8.619 -0.6095 -1.5496  1.8846
  919MOL0     H21281   1.822   7.130   8.549  0.1799  2.4093  0.1240
  919MOL0     H21282   1.589   6.937   8.630 -0.3294  0.6776  0.2070
  919MOL0     H21283   1.754   6.883   8.589 -0.0106 -0.5997 -2.3007
  919MOL0     H21284   1.562   7.033   8.422  0.3660 -0.9667 -1.9328
  919MOL0     H21285   1.586   6.857   8.410 -0.7570  0.4899 -0.3566
  919MOL0     H21286   1.772   7.078   8.329  0.0122 -0.0872 -3.1677
  919MOL0     H21287   1.829   6.914   8.352  0.5688 -0.6805  0.2109
  919MOL0     H21288   1.601   6.976   8.163 -1.0099 -2.0222 -2.8419
  919MOL0     H21289   1.704   6.831   8.171  0.2434  0.7662  1.4286
  919MOL0     H21290   2.015   7.559   9.097 -1.9657 -2.1099  0.4136
  919MOL0     H21291   2.250   7.590   9.168  0.8426 -1.0905  3.5147
  919MOL0     H21292   2.619   7.619   9.466 -1.1630 -2.2267  0.3337
  919MOL0     H21293   2.848   7.591   9.497  4.9859 -2.1567 -0.6056
  919MOL0     H21294   3.948   7.403  10.369  2.4890 -1.1859 -0.1970
  919MOL0     H21295   3.908   7.582  10.508 -0.7979  1.3411  0.1842
  919MOL0     H21296   3.765   8.031  10.466 -0.8329 -3.2553  2.1276
  919MOL0     H21297   3.676   8.239  10.556  1.7875  1.1213 -1.0533
  919MOL0     H21298   3.870   8.476  10.827  0.0013 -0.1761  1.5833
  919MOL0     H21299   3.769   8.386  10.947  0.6328  0.5302  0.8536
  919MOL0     H21300   3.713   8.618  10.962 -1.1791  0.4809  0.3718
  919MOL0     H21301   3.679   8.637  10.784  1.9934 -0.5734 -0.7696
  919MOL0     H21302   3.496   8.601  10.981 -0.0306  0.3970  0.0181
  919MOL0     H21303   3.530   8.431  10.931 -0.8760 -0.6277 -2.2588
  919MOL0     H21304   3.428   8.652  10.765  1.6167  0.5296  2.0780
  919MOL0     H21305   3.497   8.495  10.699  0.0482 -0.8693 -0.3924
  919MOL0     H21306   3.117   8.410  10.899 -1.7633 -2.0774 -4.0831
  919MOL0     H21307   3.989   8.268  10.843  0.5636 -1.3693 -0.2812
  919MOL0     H21308   4.101   8.093  10.731 -1.0056  0.5246  3.9908
  920MOL0     O21309   6.229   1.378   6.619 -0.7156  0.8439 -0.1910
  920MOL0     C21310   6.147   1.342   6.703 -0.0670 -0.4033 -0.0163
  920MOL0     O21311   6.048   1.418   6.757  0.3849 -0.3720 -1.5644
  920MOL0     C21312   6.017   1.542   6.712 -0.1761  0.1468  0.2855
  920MOL0     C21313   6.051   1.656   6.775  0.4953 -0.0134 -1.1518
  920MOL0     C21314   6.025   1.780   6.734 -0.7853 -0.5617 -0.5072
  920MOL0     C21315   5.978   1.805   6.606  0.7242  0.1317 -0.5721
  920MOL0     O21316   5.958   1.926   6.559  0.0665 -1.0979 -0.3104
  920MOL0     C21317   5.973   2.042   6.646 -0.6618 -0.1564  1.3025
  920MOL0     C21318   5.925   2.171   6.570 -0.5574  0.3275  0.1749
  920MOL0     C21319   5.773   2.163   6.534 -0.2965  0.2170 -0.2472
  920MOL0     C21320   5.720   2.261   6.426  0.6700 -0.5675  0.3734
  920MOL0     C21321   5.578   2.231   6.393  0.5069 -0.6658 -0.2240
  920MOL0     C21322   5.537   2.286   6.251  0.6128 -0.7699  0.4238
  920MOL0     C21323   5.428   2.203   6.191  0.0851  1.0016 -0.3178
  920MOL0     C21324   5.393   2.243   6.044  0.4151 -0.2168  0.0639
  920MOL0     N21325   5.268   2.181   6.001 -0.5690 -1.0561  0.5752
  920MOL0     C21326   5.252   2.058   5.949 -0.2033  0.6749 -0.6866
  920MOL0     C21327   5.130   2.069   5.901  0.1724 -0.5059  0.9844
  920MOL0     C21328   5.064   1.953   5.830  0.7073 -0.0256  0.6486
  920MOL0     C21329   5.022   1.843   5.928 -0.7619  0.0950  0.3657
  920MOL0     C21330   4.975   1.715   5.863 -0.1222  0.8655  0.4572
  920MOL0     C21331   4.854   1.714   5.783  0.0309 -0.6256 -0.1648
  920MOL0     O21332   4.891   1.753   5.647  0.7333  0.9186  0.1444
  920MOL0     C21333   4.941   1.658   5.555  0.3427  0.2814  0.5616
  920MOL0     C21334   4.950   1.708   5.428  0.7153 -0.9128  0.1210
  920MOL0     C21335   4.999   1.628   5.326 -0.2601  0.1783 -0.3454
  920MOL0     C21336   5.037   1.489   5.356 -0.0494 -1.6425 -0.6004
  920MOL0     C21337   5.064   1.404   5.238 -0.8076 -0.2521  0.2691
  920MOL0     O21338   5.005   1.443   5.119  0.2474  0.8518  0.2753
  920MOL0     C21339   5.040   1.382   5.003  0.0497  0.1226 -1.0204
  920MOL0     C21340   5.170   1.409   4.949  0.1024  0.5582  0.4337
  920MOL0     C21341   5.192   1.362   4.815  0.2897 -0.2712 -0.1673
  920MOL0     C21342   5.100   1.276   4.752 -0.0578  0.1356 -0.4733
  920MOL0     O21343   5.118   1.206   4.634  0.0910 -0.1351  0.5536
  920MOL0     C21344   5.244   1.227   4.572 -0.9820 -1.0062 -0.5366
  920MOL0     C21345   5.268   1.119   4.465 -0.4028 -0.8465  0.2576
  920MOL0     C21346   5.160   1.102   4.352 -0.8651  0.4628  0.0661
  920MOL0     C21347   5.229   1.012   4.249  0.7664 -0.0193  1.1563
  920MOL0     C21348   5.142   0.977   4.123  0.9873  0.6597  0.5836
  920MOL0     C21349   5.174   0.839   4.061  0.2846  0.6881  0.6221
  920MOL0     C21350   5.297   0.863   3.981  0.1120  0.2949  0.1178
  920MOL0     C21351   5.358   0.736   3.923 -0.1955  0.2072  0.7928
  920MOL0    Cl21352   5.470   0.642   4.054  0.0760  0.0353  0.3962
  920MOL0     C21353   4.983   1.245   4.815 -0.0722 -0.6391  0.6740
  920MOL0     C21354   4.952   1.294   4.941  0.2130 -0.8957  0.8903
  920MOL0     O21355   5.142   1.313   5.253  0.5764  0.1150 -0.4066
  920MOL0     C21356   5.045   1.453   5.492 -0.4979  0.4445 -0.1080
  920MOL0     C21357   4.989   1.530   5.590  0.7061 -0.0699  0.3981
  920MOL0     N21358   5.073   2.198   5.923 -0.3325 -0.3456  0.5446
  920MOL0     N21359   5.160   2.258   5.994 -0.3966 -0.1428  0.0552
  920MOL0     C21360   5.924   1.695   6.544  0.2033  1.2460 -0.0016
  920MOL0     C21361   5.952   1.562   6.593 -0.5036 -0.3248  0.3759
  920MOL0     C21362   6.157   1.205   6.745 -0.9175 -0.2501  0.5790
  920MOL0     C21363   6.207   1.105   6.660 -0.5933  0.4714 -0.7094
  920MOL0     C21364   6.193   0.973   6.694  0.6988 -0.3220 -0.0496
  920MOL0     C21365   6.146   0.940   6.829 -0.5344 -0.0087 -0.0961
  920MOL0     O21366   6.132   0.809   6.887  0.2027  0.3423 -0.2083
  920MOL0     C21367   6.180   0.704   6.802  0.4232  0.3172  0.0999
  920MOL0     C21368   6.150   0.567   6.861 -0.4254  1.7317 -0.6429
  920MOL0     C21369   6.246   0.518   6.967 -0.9113 -0.3213  0.2170
  920MOL0     C21370   6.302   0.612   7.071  0.3789  0.0993  0.6824
  920MOL0     C21371   6.373   0.549   7.175 -0.7677  0.3420 -0.4541
  920MOL0     C21372   6.435   0.483   7.256  0.9126 -0.8373 -0.4863
  920MOL0     C21373   6.098   1.043   6.909 -1.2344  0.1607  0.7578
  920MOL0     C21374   6.105   1.169   6.861 -0.2421 -0.2181 -0.7795
  920MOL0     H21375   6.098   1.638   6.871 -0.2259 -1.6032 -1.0547
  920MOL0     H21376   6.054   1.862   6.799 -1.2914 -3.2352  3.4298
  920MOL0     H21377   6.077   2.048   6.679 -0.6788 -2.4455  1.9224
  920MOL0     H21378   5.920   2.015   6.737 -0.0804 -4.6466  0.5514
  920MOL0     H21379   5.980   2.183   6.476  0.6145  0.6944  0.8849
  920MOL0     H21380   5.944   2.253   6.640 -0.4516 -2.6986  3.9950
  920MOL0     H21381   5.719   2.176   6.628 -0.2638 -2.4807  0.2064
  920MOL0     H21382   5.750   2.058   6.513 -0.7367  0.2341  0.1177
  920MOL0     H21383   5.740   2.359   6.471  2.7088 -0.6221 -0.2954
  920MOL0     H21384   5.770   2.242   6.330 -0.4627 -2.6939  0.1324
  920MOL0     H21385   5.505   2.250   6.473  0.4965 -1.2430 -0.0910
  920MOL0     H21386   5.579   2.122   6.384 -3.3660 -0.6631 -4.0978
  920MOL0     H21387   5.613   2.312   6.177 -1.3920  3.3497 -0.5137
  920MOL0     H21388   5.502   2.388   6.273  1.8961 -0.3142  0.4344
  920MOL0     H21389   5.450   2.096   6.198  0.8797  1.1502 -0.4966
  920MOL0     H21390   5.340   2.232   6.249 -0.4905  0.0658 -0.6904
  920MOL0     H21391   5.478   2.224   5.977 -0.3439  0.9580 -1.2926
  920MOL0     H21392   5.380   2.352   6.039  0.6650 -0.2188 -0.9379
  920MOL0     H21393   5.315   1.970   5.939 -1.1388 -0.1300  0.1602
  920MOL0     H21394   5.125   1.910   5.750 -1.4527  3.7239 -3.4215
  920MOL0     H21395   4.973   1.984   5.777  1.5436  0.6065 -0.4660
  920MOL0     H21396   4.939   1.884   5.986 -1.3479  1.0620 -1.1240
  920MOL0     H21397   5.100   1.819   6.002 -0.2101 -0.0883 -0.2701
  920MOL0     H21398   5.062   1.685   5.804 -1.0700  1.5403 -1.3373
  920MOL0     H21399   4.960   1.647   5.947 -0.0410  0.4673  0.1490
  920MOL0     H21400   4.783   1.785   5.828 -0.9729 -0.5488 -1.7759
  920MOL0     H21401   4.813   1.614   5.801  1.7111 -0.9280  2.5796
  920MOL0     H21402   4.912   1.810   5.422  1.1160 -0.4384  3.5895
  920MOL0     H21403   5.005   1.668   5.225 -1.2003  0.2026 -0.4022
  920MOL0     H21404   5.238   1.470   5.008 -1.3377 -0.6060  3.5740
  920MOL0     H21405   5.289   1.385   4.771 -0.3075 -0.0890 -1.4428
  920MOL0     H21406   5.321   1.214   4.649 -0.9826  0.3603 -0.2840
  920MOL0     H21407   5.250   1.333   4.546  0.0480 -1.2870 -1.4951
  920MOL0     H21408   5.260   1.022   4.515 -0.1569 -0.4344  1.1173
  920MOL0     H21409   5.372   1.134   4.433 -0.4184  1.8479  1.2003
  920MOL0     H21410   5.133   1.198   4.307  0.7256 -0.5312 -3.2908
  920MOL0     H21411   5.068   1.060   4.394 -0.4285  0.1845  0.7644
  920MOL0     H21412   5.306   1.074   4.202 -1.3835  2.7421  1.0136
  920MOL0     H21413   5.270   0.928   4.305  1.0213  0.0378  1.0597
  920MOL0     H21414   5.148   1.060   4.052  0.6072 -0.1315 -0.3926
  920MOL0     H21415   5.037   0.977   4.155  0.6186 -1.5183 -0.4038
  920MOL0     H21416   5.092   0.804   3.998  0.0124  1.6895  0.4026
  920MOL0     H21417   5.186   0.762   4.138 -0.3440  0.8972  0.9407
  920MOL0     H21418   5.273   0.933   3.900 -4.0849 -2.2254 -1.0969
  920MOL0     H21419   5.376   0.913   4.037 -0.8303  3.7963 -1.4053
  920MOL0     H21420   5.415   0.769   3.836 -1.4252  0.3689  0.0308
  920MOL0     H21421   5.283   0.662   3.895  0.6503  0.4119 -2.4103
  920MOL0     H21422   4.919   1.169   4.770  1.8148 -1.4372 -0.7794
  920MOL0     H21423   4.862   1.249   4.982 -1.7403 -0.4438 -2.5442
  920MOL0     H21424   5.076   1.353   5.519  0.0278  0.4935 -0.5127
  920MOL0     H21425   4.992   1.501   5.694 -2.3085  1.9306  1.1853
  920MOL0     H21426   5.875   1.706   6.447  0.4091 -0.2815 -0.3087
  920MOL0     H21427   5.921   1.487   6.520  2.1900 -1.2624  0.1024
  920MOL0     H21428   6.245   1.126   6.561 -1.7675  0.5790 -1.1604
  920MOL0     H21429   6.233   0.891   6.634  0.4175 -0.4008 -0.1308
  920MOL0     H21430   6.288   0.713   6.782  1.3323  0.1402  4.0892
  920MOL0     H21431   6.128   0.708   6.707  2.2259 -0.3565 -0.9763
  920MOL0     H21432   6.047   0.574   6.898 -0.7814  1.7368 -1.6069
  920MOL0     H21433   6.141   0.487   6.787  3.0789  0.3351  0.2131
  920MOL0     H21434   6.318   0.468   6.902 -4.3918 -1.4451 -3.1275
  920MOL0     H21435   6.193   0.437   7.018  4.0985 -2.8969  2.0360
  920MOL0     H21436   6.363   0.686   7.018 -0.6268 -0.3684 -1.2438
  920MOL0     H21437   6.233   0.676   7.126  1.1263 -0.4810  2.3453
  920MOL0     H21438   6.466   0.415   7.332 -3.2174  0.4407  2.7357
  920MOL0     H21439   6.056   1.011   7.004 -0.6685 -2.8523  0.1203
  920MOL0     H21440   6.054   1.245   6.919  1.5822  0.1622  0.4220
  921MOL0     O21441   7.158   5.866  10.668  0.2771  0.6701  0.2873
  921MOL0     C21442   7.180   5.984  10.646 -0.3421 -0.4865 -0.3398
  921MOL0     O21443   7.302   6.034  10.602 -0.4076  0.0593 -0.4133
  921MOL0     C21444   7.404   5.955  10.634 -0.2594  0.3854 -0.0669
  921MOL0     C21445   7.489   6.003  10.716  0.1625 -0.6514 -0.1640
  921MOL0     C21446   7.606   5.940  10.747  0.3648 -1.0740  0.0951
  921MOL0     C21447   7.643   5.813  10.693  0.4650  0.2754  0.3096
  921MOL0     O21448   7.764   5.760  10.721  0.0363 -0.0826  1.0942
  921MOL0     C21449   7.824   5.790  10.846 -0.4571 -0.0870  0.4025
  921MOL0     C21450   7.916   5.669  10.905 -0.7168 -0.4632 -0.2025
  921MOL0     C21451   8.021   5.627  10.806 -0.9920  0.6197  0.2085
  921MOL0     C21452   8.102   5.506  10.854 -0.4364 -0.1689  0.2615
  921MOL0     C21453   8.226   5.505  10.760 -0.4272  0.6130 -0.8268
  921MOL0     C21454   8.316   5.381  10.774 -0.2075 -0.0417 -0.1475
  921MOL0     C21455   8.425   5.374  10.664 -0.2518  0.8343  0.4561
  921MOL0     C21456   8.540   5.481  10.682  0.2173 -0.6621  1.0091
  921MOL0     N21457   8.592   5.483  10.820  0.8244  0.3327 -0.4541
  921MOL0     C21458   8.548   5.567  10.920 -0.5723  0.3853  0.2086
  921MOL0     C21459   8.596   5.515  11.034 -0.0096 -0.2200 -0.3002
  921MOL0     C21460   8.564   5.582  11.165  0.0055  0.4047  0.9996
  921MOL0     C21461   8.536   5.493  11.281 -0.0854 -0.0919  0.2697
  921MOL0     C21462   8.401   5.415  11.265  0.9129 -0.6810 -0.1626
  921MOL0     C21463   8.276   5.503  11.273 -0.1711 -0.3736 -0.4328
  921MOL0     O21464   8.156   5.427  11.311 -0.7257  0.7943  0.0745
  921MOL0     C21465   8.059   5.511  11.369 -0.3004 -0.9592 -0.9718
  921MOL0     C21466   8.013   5.493  11.503 -1.4735 -0.9218  1.4732
  921MOL0     C21467   7.893   5.549  11.547 -0.2999  0.7679 -1.2991
  921MOL0     C21468   7.822   5.642  11.467 -0.9753 -0.4231  0.2199
  921MOL0     C21469   7.697   5.703  11.510  0.1206  0.3422 -0.8038
  921MOL0     O21470   7.661   5.812  11.436  0.0001 -0.6913  0.2649
  921MOL0     C21471   7.559   5.897  11.479 -0.4354  0.4480 -0.4864
  921MOL0     C21472   7.489   5.965  11.381  0.3074  0.2214 -0.1316
  921MOL0     C21473   7.398   6.067  11.417  0.5471 -0.0391  0.2942
  921MOL0     C21474   7.360   6.100  11.552  0.3832  0.4935  0.6142
  921MOL0     O21475   7.278   6.202  11.573 -0.2028 -0.0046 -0.1222
  921MOL0     C21476   7.258   6.279  11.695 -0.3057 -0.3778 -0.6302
  921MOL0     C21477   7.374   6.329  11.780 -0.4254 -0.5879  0.8298
  921MOL0     C21478   7.348   6.450  11.866 -0.3343  0.0194  0.5643
  921MOL0     C21479   7.457   6.491  11.965  0.0225 -0.2587 -0.2704
  921MOL0     C21480   7.385   6.587  12.058  0.3266  0.5917 -0.9905
  921MOL0     C21481   7.483   6.661  12.149 -0.6859 -0.4610 -1.1402
  921MOL0     C21482   7.411   6.755  12.252 -0.1170 -0.0684  0.1363
  921MOL0     C21483   7.517   6.839  12.327  0.0829  0.2633  0.0484
  921MOL0    Cl21484   7.592   6.956  12.214  0.2603 -0.1994 -0.0989
  921MOL0     C21485   7.429   6.025  11.645 -0.3795 -0.5380 -0.6020
  921MOL0     C21486   7.525   5.931  11.616  0.4146 -0.2305  0.2004
  921MOL0     O21487   7.648   5.673  11.614 -0.3066  0.0450 -0.1182
  921MOL0     C21488   7.877   5.658  11.335  0.1776 -0.4376  0.3143
  921MOL0     C21489   7.993   5.595  11.283 -0.8890 -0.4702 -0.9841
  921MOL0     N21490   8.687   5.414  11.010 -0.5362 -0.0870  0.1511
  921MOL0     N21491   8.676   5.394  10.882  0.1407 -0.1049 -0.5123
  921MOL0     C21492   7.550   5.757  10.605 -0.4739 -0.1269 -0.2995
  921MOL0     C21493   7.432   5.827  10.573  0.2387 -0.0767 -0.3549
  921MOL0     C21494   7.072   6.077  10.670  0.8160 -0.7351  0.3269
  921MOL0     C21495   7.080   6.203  10.600  0.3509  0.2451  0.4039
  921MOL0     C21496   6.972   6.293  10.616  0.1087  0.3438  0.9259
  921MOL0     C21497   6.856   6.270  10.696 -0.7353 -1.1420 -0.8684
  921MOL0     O21498   6.762   6.376  10.705  0.2990  0.5563 -0.0621
  921MOL0     C21499   6.627   6.341  10.680 -0.2012 -0.5405  0.5774
  921MOL0     C21500   6.592   6.335  10.529 -0.0450  0.1783 -1.1730
  921MOL0     C21501   6.609   6.463  10.448  1.5075  0.3787  0.3374
  921MOL0     C21502   6.544   6.590  10.505  0.7498  0.8905  0.2042
  921MOL0     C21503   6.400   6.572  10.548  0.2583  0.8098  0.1385
  921MOL0     C21504   6.304   6.551  10.627 -0.1396 -0.6205  0.0485
  921MOL0     C21505   6.854   6.147  10.761  0.8131 -1.2136  0.3058
  921MOL0     C21506   6.957   6.053  10.748 -0.5731 -0.1048  0.1983
  921MOL0     H21507   7.463   6.099  10.759 -0.1975 -0.1465 -1.4684
  921MOL0     H21508   7.669   5.992  10.819 -1.2332 -1.3338  1.7303
  921MOL0     H21509   7.760   5.813  10.931  1.7787 -1.4056  2.5902
  921MOL0     H21510   7.881   5.879  10.819  1.5343 -1.6418 -0.8921
  921MOL0     H21511   7.848   5.585  10.925 -1.2894  0.5998  2.7868
  921MOL0     H21512   7.959   5.710  10.997  0.5484  1.9157 -1.7430
  921MOL0     H21513   8.089   5.713  10.794  0.0190  0.1095  1.8235
  921MOL0     H21514   7.983   5.601  10.707  0.9663  1.2205 -0.7575
  921MOL0     H21515   8.127   5.519  10.960 -0.1239  1.9690 -0.0162
  921MOL0     H21516   8.040   5.418  10.835  0.6480 -1.1981  1.3303
  921MOL0     H21517   8.280   5.599  10.770 -0.8750  0.7577  0.4466
  921MOL0     H21518   8.187   5.494  10.658 -1.5934 -2.4607 -0.1585
  921MOL0     H21519   8.248   5.299  10.750  1.7409 -1.6514 -0.4257
  921MOL0     H21520   8.361   5.360  10.872  0.9284  0.7289 -0.4834
  921MOL0     H21521   8.470   5.277  10.689  0.1542  1.2638  1.4613
  921MOL0     H21522   8.376   5.364  10.567 -1.9038 -2.5907  1.4689
  921MOL0     H21523   8.501   5.581  10.663  0.8284 -0.1961  2.0710
  921MOL0     H21524   8.617   5.475  10.604 -2.1199  0.0758 -1.4931
  921MOL0     H21525   8.481   5.651  10.905  0.6555  0.9022 -3.5273
  921MOL0     H21526   8.479   5.650  11.152  0.2019  1.2966  3.6438
  921MOL0     H21527   8.647   5.652  11.181  0.4313  0.5134 -1.3873
  921MOL0     H21528   8.535   5.550  11.374 -1.7107  0.1970  0.1089
  921MOL0     H21529   8.613   5.416  11.286 -0.2597 -0.1825  1.9011
  921MOL0     H21530   8.407   5.357  11.172  0.9035 -3.9556  1.7315
  921MOL0     H21531   8.398   5.334  11.339 -1.3408  1.2833  2.0662
  921MOL0     H21532   8.250   5.550  11.178  2.5829  1.1537 -0.5394
  921MOL0     H21533   8.292   5.589  11.339  4.5304  0.7430 -2.6126
  921MOL0     H21534   8.068   5.436  11.577 -0.5380  2.1129  3.2591
  921MOL0     H21535   7.871   5.522  11.649  3.9577 -2.0098 -0.8781
  921MOL0     H21536   7.527   5.940  11.282  1.5342 -2.4267  0.9115
  921MOL0     H21537   7.338   6.125  11.348  0.4540 -0.0096  0.4000
  921MOL0     H21538   7.186   6.222  11.755  1.7297 -0.5841  1.7838
  921MOL0     H21539   7.191   6.362  11.668 -1.7589 -0.1964  2.9457
  921MOL0     H21540   7.463   6.343  11.719  0.4575  0.6431  2.3185
  921MOL0     H21541   7.414   6.244  11.836  2.7706 -1.2168 -2.0724
  921MOL0     H21542   7.254   6.425  11.914 -1.0921 -2.4377 -1.9703
  921MOL0     H21543   7.329   6.543  11.812  0.1322  0.6848  1.5061
  921MOL0     H21544   7.491   6.400  12.015 -2.8873 -1.4930 -0.3113
  921MOL0     H21545   7.540   6.536  11.910  0.3481 -1.9317 -1.2216
  921MOL0     H21546   7.333   6.521  12.128 -0.7276  2.1430 -0.2659
  921MOL0     H21547   7.321   6.661  12.009  0.5978  1.8836  0.5229
  921MOL0     H21548   7.544   6.724  12.083  0.9016 -0.0283  0.6589
  921MOL0     H21549   7.546   6.592  12.206 -1.5202  0.4969  1.0260
  921MOL0     H21550   7.345   6.818  12.192 -1.8092 -3.1314 -1.4697
  921MOL0     H21551   7.335   6.704  12.311 -3.5087 -0.0310 -3.7626
  921MOL0     H21552   7.587   6.777  12.385 -1.2403 -1.5320 -0.1865
  921MOL0     H21553   7.479   6.912  12.399  2.1896  0.7397  0.7618
  921MOL0     H21554   7.403   6.038  11.750  0.5748 -2.3194 -0.1077
  921MOL0     H21555   7.583   5.883  11.695 -2.8665  0.7812  3.4909
  921MOL0     H21556   7.818   5.721  11.269  0.3022 -0.7330 -0.0824
  921MOL0     H21557   8.024   5.600  11.179  0.9155  1.9418 -0.4159
  921MOL0     H21558   7.574   5.662  10.557 -4.0989  0.6526 -4.2619
  921MOL0     H21559   7.370   5.792  10.491  0.5751 -0.7416 -0.3269
  921MOL0     H21560   7.156   6.237  10.530 -2.6771 -0.2339 -3.4386
  921MOL0     H21561   6.942   6.381  10.559 -1.9988 -0.4301  0.7193
  921MOL0     H21562   6.577   6.427  10.724  1.7517  0.9249  0.0637
  921MOL0     H21563   6.595   6.244  10.718 -0.1996 -2.1189 -3.0012
  921MOL0     H21564   6.655   6.259  10.480 -1.8991 -0.8108 -2.1465
  921MOL0     H21565   6.494   6.289  10.519  0.7693 -1.5819 -1.5652
  921MOL0     H21566   6.564   6.448  10.349  0.8277  0.0767  0.6808
  921MOL0     H21567   6.712   6.475  10.412  1.3397 -1.5454 -0.9093
  921MOL0     H21568   6.608   6.619  10.589  2.1049  2.9910 -1.4497
  921MOL0     H21569   6.542   6.667  10.427 -0.7590  0.8537  0.1845
  921MOL0     H21570   6.232   6.532  10.705 -0.1527 -0.7560  0.0057
  921MOL0     H21571   6.769   6.133  10.827 -0.8716 -4.2897 -2.2651
  921MOL0     H21572   6.956   5.957  10.800  0.9238 -1.0434 -1.4161
  922MOL0     O21573  11.175   4.940   0.053 -0.5586  0.8537 -0.6527
  922MOL0     C21574  11.175   5.036  -0.025  0.6455  0.4623 -0.9830
  922MOL0     O21575  11.071   5.128  -0.047 -0.5658  0.0894 -0.1517
  922MOL0     C21576  10.953   5.104   0.031 -0.4064 -0.4077  0.2718
  922MOL0     C21577  10.908   5.208   0.106  0.2639 -0.5250  0.1990
  922MOL0     C21578  10.780   5.206   0.163  0.1692 -0.8221 -1.0925
  922MOL0     C21579  10.695   5.103   0.140 -0.2795 -0.4054  0.8775
  922MOL0     O21580  10.572   5.110   0.209 -0.1076  0.0124 -0.0285
  922MOL0     C21581  10.481   4.993   0.194 -0.1261 -0.4957 -0.7548
  922MOL0     C21582  10.345   5.041   0.254  0.0280  0.0015  0.2435
  922MOL0     C21583  10.340   5.033   0.405  0.1624  0.2669  0.3367
  922MOL0     C21584  10.371   4.897   0.475 -0.7247 -0.1506 -0.1327
  922MOL0     C21585  10.349   4.887   0.631  0.1796  0.9801  0.1396
  922MOL0     C21586  10.395   5.011   0.700  0.3424  0.3937 -0.1764
  922MOL0     C21587  10.394   4.977   0.851  0.3579 -0.6629  0.1300
  922MOL0     C21588  10.439   5.099   0.924 -0.1484 -0.0285  0.0070
  922MOL0     N21589  10.354   5.141   1.038 -0.3048 -0.3505 -0.1768
  922MOL0     C21590  10.324   5.048   1.136 -0.7544  0.8869  0.7294
  922MOL0     C21591  10.245   5.117   1.224 -0.1611 -0.3143  0.4208
  922MOL0     C21592  10.169   5.053   1.331  0.1266  0.6443 -0.1442
  922MOL0     C21593  10.150   5.147   1.451  0.2253  0.4114 -0.1030
  922MOL0     C21594  10.013   5.138   1.510  0.7803  0.1156  0.3911
  922MOL0     C21595   9.999   5.010   1.586  0.4020  0.1848  0.4916
  922MOL0     O21596   9.864   5.008   1.647 -0.5382 -0.0237  2.0831
  922MOL0     C21597   9.811   4.904   1.716  1.0209  0.2654  0.0214
  922MOL0     C21598   9.674   4.902   1.748  0.0629 -0.4752 -0.2193
  922MOL0     C21599   9.614   4.796   1.819  0.2240 -0.2329 -0.7060
  922MOL0     C21600   9.686   4.687   1.868  0.1423 -0.1235  0.4140
  922MOL0     C21601   9.625   4.577   1.945  0.7188  0.5866  0.9179
  922MOL0     O21602   9.494   4.599   1.983 -0.2794  0.0905  0.7561
  922MOL0     C21603   9.413   4.514   2.054  0.5884  0.1644 -1.3423
  922MOL0     C21604   9.283   4.558   2.055  1.1288  0.0771  0.9951
  922MOL0     C21605   9.172   4.491   2.111 -0.2281  0.3700 -0.0339
  922MOL0     C21606   9.204   4.389   2.196 -0.1769 -1.1583 -0.3276
  922MOL0     O21607   9.109   4.337   2.285  0.1673  0.8100  0.2387
  922MOL0     C21608   8.984   4.296   2.225  0.1806  0.8275 -0.7826
  922MOL0     C21609   8.921   4.182   2.312 -0.2555  0.3712 -0.0532
  922MOL0     C21610   8.786   4.137   2.251 -0.0266  0.2510  0.1798
  922MOL0     C21611   8.727   4.023   2.323 -0.3891 -0.3662  0.4998
  922MOL0     C21612   8.585   3.978   2.295 -0.0635  0.1353 -0.3246
  922MOL0     C21613   8.481   4.074   2.342 -0.4427  0.1699  0.0124
  922MOL0     C21614   8.493   4.128   2.482  0.0957 -0.8919 -0.5239
  922MOL0     C21615   8.470   4.026   2.593  0.4653 -0.2529 -0.7689
  922MOL0    Cl21616   8.293   3.991   2.591  0.5332 -0.0111  0.2298
  922MOL0     C21617   9.330   4.342   2.205 -0.0194  0.0185  1.1725
  922MOL0     C21618   9.437   4.392   2.126  0.2701 -0.6849  0.1274
  922MOL0     O21619   9.691   4.472   1.963  0.9863  0.7854  0.3481
  922MOL0     C21620   9.823   4.692   1.822  0.2160 -0.1681 -0.3087
  922MOL0     C21621   9.886   4.804   1.763  0.2884  1.3388 -0.1021
  922MOL0     N21622  10.239   5.248   1.177  0.9114  0.1399  0.2587
  922MOL0     N21623  10.299   5.261   1.066  0.4924 -1.1330  0.6009
  922MOL0     C21624  10.745   4.992   0.069 -0.4524  0.2803 -0.7414
  922MOL0     C21625  10.872   4.987   0.014 -0.5624  1.0220  0.1344
  922MOL0     C21626  11.290   5.068  -0.103 -0.1085  0.0204 -0.0094
  922MOL0     C21627  11.300   5.162  -0.211 -0.7579  1.2978  0.3819
  922MOL0     C21628  11.423   5.184  -0.274  0.0398 -1.1252 -0.2200
  922MOL0     C21629  11.541   5.120  -0.236  0.4819  0.5041  0.6510
  922MOL0     O21630  11.653   5.151  -0.305 -0.3402 -0.2770 -0.5204
  922MOL0     C21631  11.777   5.098  -0.256  0.8373  0.0835  0.0889
  922MOL0     C21632  11.891   5.146  -0.345  0.5004  0.3839  0.7247
  922MOL0     C21633  11.888   5.308  -0.352  0.5542  0.4673  0.1683
  922MOL0     C21634  12.010   5.369  -0.411  0.4878 -0.7531 -0.0871
  922MOL0     C21635  12.040   5.327  -0.550  0.3084 -0.3951 -0.1813
  922MOL0     C21636  12.079   5.289  -0.663 -0.4935  0.3918 -0.4141
  922MOL0     C21637  11.533   5.039  -0.121 -0.1728 -0.2581  0.3948
  922MOL0     C21638  11.415   5.015  -0.050  1.0325  0.0746  0.2324
  922MOL0     H21639  10.975   5.293   0.106 -0.3664  0.1231 -3.1126
  922MOL0     H21640  10.728   5.287   0.213 -0.2935 -0.9187 -1.4057
  922MOL0     H21641  10.527   4.903   0.236  3.6649 -0.0804 -3.5080
  922MOL0     H21642  10.468   4.979   0.086  1.3039 -3.0880 -0.6668
  922MOL0     H21643  10.283   4.961   0.213 -0.3328 -0.3628  1.4737
  922MOL0     H21644  10.329   5.145   0.225  2.8725  1.0570  2.0342
  922MOL0     H21645  10.238   5.060   0.434 -0.8740 -1.3432 -1.5881
  922MOL0     H21646  10.406   5.111   0.445 -0.1379  0.8257 -0.2258
  922MOL0     H21647  10.317   4.815   0.427  0.2895 -0.6979 -0.3737
  922MOL0     H21648  10.474   4.865   0.459 -1.3396 -1.1918 -2.4192
  922MOL0     H21649  10.410   4.805   0.667 -0.3492  0.2911 -0.4971
  922MOL0     H21650  10.248   4.861   0.663 -0.1050 -0.4510 -1.7518
  922MOL0     H21651  10.320   5.086   0.673  1.0480  1.7703  1.5196
  922MOL0     H21652  10.494   5.043   0.668  0.7246 -0.6786 -0.1252
  922MOL0     H21653  10.295   4.945   0.885  0.5720  0.1786  1.5872
  922MOL0     H21654  10.470   4.900   0.867  2.7655  1.6619  0.7092
  922MOL0     H21655  10.457   5.188   0.863 -2.1466  1.8428  1.9594
  922MOL0     H21656  10.531   5.067   0.975 -2.6946 -4.4659  2.4237
  922MOL0     H21657  10.367   4.949   1.144  0.8219  1.1247 -2.6869
  922MOL0     H21658  10.217   4.957   1.352 -0.7906  0.3651  0.7301
  922MOL0     H21659  10.071   5.038   1.287  0.0359 -1.4129  0.6763
  922MOL0     H21660  10.160   5.252   1.423  2.2574  0.9534  2.3131
  922MOL0     H21661  10.226   5.112   1.521 -0.3494 -1.0917 -0.1938
  922MOL0     H21662  10.000   5.219   1.582 -0.1651 -1.3394  1.9515
  922MOL0     H21663   9.938   5.151   1.431  0.2782  3.7598  1.2815
  922MOL0     H21664  10.078   4.999   1.661 -1.8889 -2.2380  2.7820
  922MOL0     H21665   9.996   4.919   1.525 -4.3330 -0.5546  1.3710
  922MOL0     H21666   9.615   4.991   1.726  1.3533 -0.4179 -4.0963
  922MOL0     H21667   9.511   4.826   1.835 -0.6548 -2.2631 -2.1428
  922MOL0     H21668   9.279   4.654   2.006  1.1852 -0.9163 -1.0768
  922MOL0     H21669   9.073   4.536   2.113  0.0733  1.0449  0.1618
  922MOL0     H21670   8.984   4.249   2.126 -2.1371 -5.4548  1.6271
  922MOL0     H21671   8.917   4.382   2.230  0.3904  1.0220 -1.3559
  922MOL0     H21672   8.913   4.210   2.418 -0.3387  2.5441 -0.5746
  922MOL0     H21673   8.990   4.099   2.300  1.7905  1.9884  0.0106
  922MOL0     H21674   8.806   4.102   2.149  4.4749  2.6587 -0.0023
  922MOL0     H21675   8.716   4.220   2.255 -1.8867 -1.2735  0.3809
  922MOL0     H21676   8.781   3.933   2.292 -1.3647 -0.0706 -2.2922
  922MOL0     H21677   8.743   4.034   2.431  0.6286  3.3040  0.1109
  922MOL0     H21678   8.581   3.871   2.317  0.7573  0.2504  0.4527
  922MOL0     H21679   8.569   3.990   2.187 -2.5348  3.0613  0.2474
  922MOL0     H21680   8.380   4.032   2.334 -1.3229  2.2944 -0.6424
  922MOL0     H21681   8.483   4.162   2.278 -0.2441 -0.9384 -1.5803
  922MOL0     H21682   8.590   4.177   2.494 -0.1041 -0.7106  0.3822
  922MOL0     H21683   8.421   4.207   2.502 -1.6445 -2.4291 -0.4685
  922MOL0     H21684   8.494   4.077   2.686 -2.2714 -1.6993  0.8620
  922MOL0     H21685   8.524   3.930   2.587 -0.5049 -0.7484 -2.3078
  922MOL0     H21686   9.375   4.260   2.260  0.0230  0.5793  1.9960
  922MOL0     H21687   9.536   4.350   2.134 -0.2345 -1.6532  1.9545
  922MOL0     H21688   9.892   4.612   1.848  2.5994  1.4012 -1.4850
  922MOL0     H21689   9.993   4.805   1.747  0.0837  3.5851 -1.8790
  922MOL0     H21690  10.682   4.904   0.061 -0.4439  0.4111 -2.9146
  922MOL0     H21691  10.904   4.900  -0.043 -3.3544  0.2037 -0.3153
  922MOL0     H21692  11.212   5.221  -0.237 -1.3698  1.4993  2.6751
  922MOL0     H21693  11.415   5.256  -0.355  2.4410  1.3570  1.6095
  922MOL0     H21694  11.772   4.990  -0.244 -1.4917  0.2398  0.9364
  922MOL0     H21695  11.807   5.148  -0.163  0.4675 -0.7265  0.6545
  922MOL0     H21696  11.983   5.111  -0.296  2.1420 -0.4091 -2.6493
  922MOL0     H21697  11.888   5.084  -0.434 -0.0903 -0.1336  1.0927
  922MOL0     H21698  11.880   5.346  -0.250  1.4977  2.1911 -0.3587
  922MOL0     H21699  11.798   5.338  -0.408  0.1315 -3.3914 -1.5248
  922MOL0     H21700  11.994   5.477  -0.407  0.0837 -0.6834 -2.1967
  922MOL0     H21701  12.096   5.350  -0.346 -0.8981  0.1445  2.1309
  922MOL0     H21702  12.122   5.260  -0.756 -0.0453  0.8128 -0.3403
  922MOL0     H21703  11.618   5.002  -0.066 -1.0629 -1.3980  1.0434
  922MOL0     H21704  11.422   4.952   0.037 -3.3451 -2.3393 -0.8734
  923MOL0     O21705   5.370  10.438  11.373  0.5242  0.6725 -0.5130
  923MOL0     C21706   5.436  10.368  11.449  0.0301  0.5156  0.7733
  923MOL0     O21707   5.392  10.323  11.572 -0.5441  0.4573 -0.2075
  923MOL0     C21708   5.260  10.334  11.576  0.5190  0.5418 -0.0329
  923MOL0     C21709   5.200  10.440  11.625 -0.4673 -1.0527 -0.6039
  923MOL0     C21710   5.064  10.458  11.622  1.0589 -0.2854 -0.0254
  923MOL0     C21711   4.977  10.363  11.559 -0.4043  0.0052 -0.8866
  923MOL0     O21712   4.840  10.382  11.561 -0.3000 -0.1444  0.4017
  923MOL0     C21713   4.793  10.488  11.475 -0.1197  0.2712  1.1743
  923MOL0     C21714   4.757  10.453  11.324  0.4005  0.0003 -0.7164
  923MOL0     C21715   4.878  10.445  11.237  0.6958  0.3265 -0.0869
  923MOL0     C21716   4.824  10.405  11.088 -0.4921  0.5505  0.6469
  923MOL0     C21717   4.930  10.416  10.980  0.0411 -0.1060  1.1440
  923MOL0     C21718   4.866  10.339  10.861 -0.1158 -0.0507  0.5272
  923MOL0     C21719   4.960  10.360  10.743  0.0418  0.5356 -0.3938
  923MOL0     C21720   4.888  10.337  10.606  0.2684  0.1438  0.9327
  923MOL0     N21721   4.766  10.424  10.576  0.0973  0.6638  1.1761
  923MOL0     C21722   4.783  10.556  10.587 -0.6023 -0.7813 -0.0468
  923MOL0     C21723   4.672  10.606  10.536 -0.1584 -0.2690 -0.4588
  923MOL0     C21724   4.633  10.751  10.539  0.3440  0.6950 -1.0112
  923MOL0     C21725   4.612  10.804  10.394 -0.4964  0.0884 -0.4062
  923MOL0     C21726   4.744  10.811  10.309  0.0742  0.4972  0.3282
  923MOL0     C21727   4.767  10.705  10.200  1.6494  0.2786  0.8270
  923MOL0     O21728   4.648  10.708  10.122 -0.2921 -0.5211 -0.5517
  923MOL0     C21729   4.560  10.602  10.140 -0.3542 -0.0131  0.6656
  923MOL0     C21730   4.559  10.485  10.214 -0.1618  1.3053  0.7250
  923MOL0     C21731   4.446  10.407  10.231  0.2382  0.9712  0.2301
  923MOL0     C21732   4.321  10.446  10.178  0.0084 -0.7113  0.3186
  923MOL0     C21733   4.199  10.387  10.225  0.0641 -0.5455  0.3891
  923MOL0     O21734   4.089  10.415  10.158 -0.4013 -0.0341 -0.7883
  923MOL0     C21735   3.967  10.365  10.194  0.4559  0.7523  0.1496
  923MOL0     C21736   3.868  10.346  10.088 -0.0750  0.0338  0.2454
  923MOL0     C21737   3.734  10.328  10.109 -0.4221  0.6339 -0.8435
  923MOL0     C21738   3.689  10.320  10.244  1.0539  0.4065  0.1401
  923MOL0     O21739   3.556  10.314  10.265  0.4688  0.9641 -0.0265
  923MOL0     C21740   3.500  10.416  10.345  0.5546 -0.5750 -0.6976
  923MOL0     C21741   3.349  10.393  10.359  0.4950  0.5674  0.3798
  923MOL0     C21742   3.309  10.285  10.459 -0.3464  1.3553  0.1246
  923MOL0     C21743   3.154  10.270  10.467 -0.0185  0.4076 -0.0315
  923MOL0     C21744   3.114  10.181  10.583  0.0944 -0.2287  0.3566
  923MOL0     C21745   3.137  10.247  10.724  0.0239  0.7103  0.7673
  923MOL0     C21746   3.103  10.159  10.849 -0.4871  0.4314 -0.0411
  923MOL0     C21747   2.965  10.081  10.846 -0.1077  1.3984 -0.1629
  923MOL0    Cl21748   2.837  10.195  10.804 -0.1590  0.0684 -0.1495
  923MOL0     C21749   3.785  10.331  10.355  0.6848  0.1240  0.4768
  923MOL0     C21750   3.914  10.363  10.321 -0.4870 -0.3824  0.2042
  923MOL0     O21751   4.211  10.301  10.314 -0.5380  0.2886 -0.6023
  923MOL0     C21752   4.321  10.562  10.097 -0.0853  0.8570  0.4427
  923MOL0     C21753   4.442  10.632  10.071 -0.1096  0.6097  0.8099
  923MOL0     N21754   4.573  10.505  10.534 -0.6179 -0.3900  0.5181
  923MOL0     N21755   4.633  10.399  10.576  0.8465  0.2057  0.6556
  923MOL0     C21756   5.035  10.252  11.502  0.3106 -0.1188  0.6884
  923MOL0     C21757   5.176  10.242  11.508 -0.6549 -0.5171 -0.4919
  923MOL0     C21758   5.586  10.357  11.419  0.2864 -0.2981  0.0811
  923MOL0     C21759   5.659  10.447  11.335  0.8061  0.7739 -0.9098
  923MOL0     C21760   5.790  10.412  11.300 -0.3302 -0.4984  0.0342
  923MOL0     C21761   5.859  10.300  11.352 -0.7945  0.7886  0.0654
  923MOL0     O21762   5.996  10.284  11.322  0.3218 -0.4472 -0.5316
  923MOL0     C21763   6.037  10.155  11.282  0.4864  0.6507 -0.3443
  923MOL0     C21764   6.180  10.149  11.232 -0.1281  0.2088  0.5471
  923MOL0     C21765   6.212  10.079  11.095 -0.3742 -0.1086  1.1556
  923MOL0     C21766   6.355  10.117  11.046 -0.2385 -0.2983 -0.3231
  923MOL0     C21767   6.455  10.124  11.146 -0.1286 -0.3530  0.1782
  923MOL0     C21768   6.542  10.127  11.232  0.9506 -0.5776  0.2259
  923MOL0     C21769   5.788  10.212  11.429  0.5024 -0.7545  1.2015
  923MOL0     C21770   5.655  10.244  11.463 -0.6700  0.4798 -1.2546
  923MOL0     H21771   5.264  10.514  11.671 -2.5797  0.5121 -0.0404
  923MOL0     H21772   5.012  10.542  11.668  2.3269  0.6775 -0.3072
  923MOL0     H21773   4.863  10.571  11.460 -1.4789  1.0095 -1.8790
  923MOL0     H21774   4.706  10.534  11.523 -0.5343  0.7572 -0.0153
  923MOL0     H21775   4.693  10.531  11.283  0.2248 -0.2744 -0.9737
  923MOL0     H21776   4.709  10.354  11.324 -2.2754  1.1936  0.2113
  923MOL0     H21777   4.965  10.386  11.267  3.0724  1.1940 -4.3613
  923MOL0     H21778   4.927  10.542  11.245 -0.4413  0.8542  0.6526
  923MOL0     H21779   4.784  10.303  11.094  0.1128  0.4052  4.0148
  923MOL0     H21780   4.743  10.473  11.061 -1.7473  0.1318  3.0906
  923MOL0     H21781   5.026  10.371  11.007  0.9195  1.4132  0.6297
  923MOL0     H21782   4.952  10.519  10.953 -0.8969 -0.6449 -2.2439
  923MOL0     H21783   4.761  10.368  10.849 -1.4490 -4.1502  0.7825
  923MOL0     H21784   4.866  10.232  10.886  0.1048 -0.0150  0.6753
  923MOL0     H21785   4.998  10.463  10.749  2.3253 -0.3188  3.1636
  923MOL0     H21786   5.052  10.301  10.742  0.0744  0.5550 -2.2534
  923MOL0     H21787   4.857  10.232  10.593 -1.5176  0.8863 -1.6110
  923MOL0     H21788   4.951  10.352  10.518  2.7262  1.5066  2.8113
  923MOL0     H21789   4.878  10.606  10.602 -1.1149 -0.2986  1.9799
  923MOL0     H21790   4.712  10.802  10.594 -1.0187  0.5276  1.2364
  923MOL0     H21791   4.540  10.748  10.597 -0.9251 -0.5050 -3.0031
  923MOL0     H21792   4.561  10.900  10.408 -1.6802 -0.6191  0.2794
  923MOL0     H21793   4.533  10.756  10.335  1.9108 -2.0673 -2.0828
  923MOL0     H21794   4.728  10.905  10.255  0.2214  0.4754  0.2459
  923MOL0     H21795   4.833  10.813  10.373  1.2095 -1.7999 -1.0804
  923MOL0     H21796   4.778  10.614  10.260  1.6738 -2.2865 -2.7107
  923MOL0     H21797   4.860  10.732  10.148  0.4832  3.8826  0.3544
  923MOL0     H21798   4.650  10.460  10.268  0.1301  1.0892  0.1364
  923MOL0     H21799   4.449  10.317  10.290 -0.3575 -0.5877 -1.9677
  923MOL0     H21800   3.906  10.333   9.987 -1.7155 -0.7991 -0.3046
  923MOL0     H21801   3.659  10.315  10.031  0.2163  0.2828 -1.4149
  923MOL0     H21802   3.513  10.507  10.286 -0.1371  0.5781  0.8665
  923MOL0     H21803   3.531  10.426  10.449 -2.0668  2.9468 -0.0742
  923MOL0     H21804   3.316  10.367  10.257 -0.9371  0.2132  0.9065
  923MOL0     H21805   3.303  10.488  10.386 -1.0683  0.2530 -0.9933
  923MOL0     H21806   3.358  10.304  10.554 -0.0029  1.4838 -0.0771
  923MOL0     H21807   3.357  10.198  10.413  1.9520  2.7817 -0.3189
  923MOL0     H21808   3.114  10.371  10.481 -1.7972 -0.5039  2.1998
  923MOL0     H21809   3.112  10.226  10.376 -0.4760  2.1915 -0.7157
  923MOL0     H21810   3.147  10.077  10.582  1.2365  0.1231  0.0272
  923MOL0     H21811   3.006  10.168  10.569  0.2463  0.9913 -2.6271
  923MOL0     H21812   3.080  10.340  10.711 -0.4938  0.1442 -1.4080
  923MOL0     H21813   3.241  10.280  10.729  0.4493 -0.5738  0.6966
  923MOL0     H21814   3.190  10.092  10.851  1.3075  2.5598 -1.5455
  923MOL0     H21815   3.115  10.215  10.943 -0.1728  0.3554 -0.0336
  923MOL0     H21816   2.947  10.039  10.946 -0.9941 -0.8006 -1.1877
  923MOL0     H21817   2.945   9.990  10.789  0.0083  0.9557  0.4932
  923MOL0     H21818   3.747  10.338  10.456 -3.2355 -0.3295 -0.7887
  923MOL0     H21819   3.982  10.369  10.404 -0.5586  0.7750  0.1888
  923MOL0     H21820   4.227  10.589  10.049  1.3978  2.7440 -1.6374
  923MOL0     H21821   4.434  10.716  10.002  1.0647  0.0013 -0.1183
  923MOL0     H21822   4.971  10.179  11.453  0.4772  0.1731  0.0231
  923MOL0     H21823   5.219  10.153  11.463  0.2579 -1.6097  2.3358
  923MOL0     H21824   5.613  10.532  11.285  2.7409  0.7437 -2.9183
  923MOL0     H21825   5.834  10.481  11.229 -0.1577 -2.5710 -1.9904
  923MOL0     H21826   5.965  10.113  11.211  1.3486  0.3190 -1.0381
  923MOL0     H21827   6.041  10.087  11.367  0.4928  0.0335 -0.8301
  923MOL0     H21828   6.213  10.253  11.229 -0.0536  0.1813 -2.5041
  923MOL0     H21829   6.235  10.089  11.306 -1.4669 -2.7551 -0.6996
  923MOL0     H21830   6.158  10.118  11.008  0.2158 -0.4854  0.6197
  923MOL0     H21831   6.179   9.975  11.095 -0.7047 -0.0068  0.9059
  923MOL0     H21832   6.380  10.048  10.965 -0.8496  0.2559 -0.9962
  923MOL0     H21833   6.335  10.214  11.000  2.9158 -0.0900 -1.4712
  923MOL0     H21834   6.609  10.143  11.314 -0.3925  0.5391  1.1582
  923MOL0     H21835   5.822  10.114  11.460 -1.4936 -1.8545  0.1277
  923MOL0     H21836   5.600  10.158  11.499  1.9357 -0.8996 -0.2723
  924MOL0     O21837   0.339   8.002   3.796 -0.4412 -0.1204  0.0748
  924MOL0     C21838   0.294   7.927   3.709  1.1103 -0.3809 -0.1160
  924MOL0     O21839   0.313   7.789   3.701 -0.5024 -0.4311  0.3196
  924MOL0     C21840   0.363   7.738   3.815  0.0551  0.6275  0.4965
  924MOL0     C21841   0.476   7.654   3.810 -0.4653  0.1981  0.4046
  924MOL0     C21842   0.531   7.594   3.917  0.3890 -0.4507  0.4815
  924MOL0     C21843   0.446   7.592   4.036  0.5434  1.6098 -0.5070
  924MOL0     O21844   0.481   7.524   4.148 -0.3758  0.2131  0.2599
  924MOL0     C21845   0.602   7.444   4.146  0.1161  0.4663  0.5892
  924MOL0     C21846   0.634   7.387   4.280  1.5376  0.8739 -0.1024
  924MOL0     C21847   0.782   7.417   4.326  0.0375  0.3755  0.7476
  924MOL0     C21848   0.883   7.377   4.217 -0.8289  0.4193  0.2440
  924MOL0     C21849   1.030   7.384   4.264  0.4407  0.1560  0.7232
  924MOL0     C21850   1.070   7.531   4.319 -0.4873  0.7825  0.9720
  924MOL0     C21851   1.219   7.560   4.313  0.8182  0.3815  0.3000
  924MOL0     C21852   1.263   7.704   4.348 -0.8478 -0.6125  0.0804
  924MOL0     N21853   1.412   7.718   4.334  0.7117  0.0054 -0.2314
  924MOL0     C21854   1.500   7.615   4.324 -0.0005  0.6402 -1.2190
  924MOL0     C21855   1.625   7.672   4.330 -0.3667 -0.6106  0.6976
  924MOL0     C21856   1.749   7.601   4.347 -0.2108  0.4015 -0.2523
  924MOL0     C21857   1.742   7.494   4.456  0.3131 -0.0383  0.6485
  924MOL0     C21858   1.874   7.431   4.466  0.4385  0.6347 -0.0409
  924MOL0     C21859   1.872   7.287   4.525  0.2261 -0.1189 -0.0408
  924MOL0     O21860   2.005   7.258   4.579 -0.3372  0.6672 -0.0439
  924MOL0     C21861   2.023   7.154   4.669  0.4742  0.7184  1.0651
  924MOL0     C21862   2.153   7.146   4.714 -0.2597 -0.6165 -0.1670
  924MOL0     C21863   2.187   7.043   4.804 -0.3710 -0.4568  0.0650
  924MOL0     C21864   2.097   6.939   4.842  0.7743  0.2730 -0.1216
  924MOL0     C21865   2.125   6.829   4.930  0.9640  1.0596 -0.0918
  924MOL0     O21866   2.046   6.719   4.956  0.3782 -0.6495 -0.3092
  924MOL0     C21867   2.092   6.618   5.037  0.3232  0.6409 -0.1797
  924MOL0     C21868   2.103   6.632   5.170 -0.7831  0.1249 -0.6058
  924MOL0     C21869   2.158   6.538   5.259  0.7439 -0.4070  0.6694
  924MOL0     C21870   2.193   6.419   5.198  0.2810 -1.1179 -0.0472
  924MOL0     O21871   2.249   6.312   5.268 -0.9184  0.4669  0.1426
  924MOL0     C21872   2.385   6.319   5.308 -0.8828  0.0844 -0.6144
  924MOL0     C21873   2.403   6.316   5.464  0.5973  0.3425  0.9559
  924MOL0     C21874   2.546   6.293   5.493  0.5401  0.5635 -0.5040
  924MOL0     C21875   2.548   6.321   5.655 -0.4119  0.9399  0.0769
  924MOL0     C21876   2.608   6.456   5.699  0.1414  0.2119 -0.4752
  924MOL0     C21877   2.759   6.437   5.718 -0.0878 -0.2045 -0.1262
  924MOL0     C21878   2.822   6.574   5.722 -0.7868 -0.5214 -0.4768
  924MOL0     C21879   2.781   6.649   5.840 -0.1512  0.6297 -0.1948
  924MOL0    Cl21880   2.862   6.583   5.982  0.2332 -0.2461  0.1320
  924MOL0     C21881   2.193   6.404   5.064 -0.3473 -0.3168  0.3558
  924MOL0     C21882   2.122   6.490   4.985 -1.4300  0.0966  0.4657
  924MOL0     O21883   2.240   6.832   4.973  0.5008  0.0667  0.3104
  924MOL0     C21884   1.973   6.946   4.775 -0.6568 -0.5203  0.0344
  924MOL0     C21885   1.938   7.049   4.683 -0.0196  0.4330  0.7569
  924MOL0     N21886   1.600   7.809   4.349 -0.5653 -0.5458 -0.3237
  924MOL0     N21887   1.473   7.834   4.333  0.3511 -0.2692  0.6668
  924MOL0     C21888   0.338   7.682   4.050 -0.1459 -0.0308 -0.3533
  924MOL0     C21889   0.292   7.756   3.937 -0.6563  0.3418 -0.6533
  924MOL0     C21890   0.198   7.983   3.599 -0.4972 -0.0212  0.5299
  924MOL0     C21891   0.143   8.112   3.615 -0.2028  0.1921 -0.9039
  924MOL0     C21892   0.079   8.174   3.511  0.6806 -0.3528  0.9791
  924MOL0     C21893   0.053   8.106   3.388  0.6039 -0.3710  0.9144
  924MOL0     O21894  -0.027   8.157   3.285  0.2279 -0.0822  0.3712
  924MOL0     C21895  -0.069   8.069   3.173  0.0430 -0.0610 -0.1287
  924MOL0     C21896  -0.175   8.135   3.086  0.3673  0.4641 -0.5268
  924MOL0     C21897  -0.321   8.112   3.151 -0.3108  0.3493  1.1743
  924MOL0     C21898  -0.406   8.224   3.084  0.2161 -0.5506 -0.0542
  924MOL0     C21899  -0.507   8.265   3.175  0.7928  0.0985 -0.0166
  924MOL0     C21900  -0.608   8.299   3.244  0.7756 -0.0239  0.0027
  924MOL0     C21901   0.096   7.980   3.380 -0.3867  0.7802  0.0916
  924MOL0     C21902   0.177   7.920   3.476  0.0802 -0.1759 -0.2194
  924MOL0     H21903   0.521   7.637   3.712  0.0154 -1.6091  0.8929
  924MOL0     H21904   0.614   7.525   3.909  1.2887  0.5867  0.6251
  924MOL0     H21905   0.687   7.502   4.109 -0.6404  0.8921 -0.5366
  924MOL0     H21906   0.598   7.359   4.078 -0.2101  0.1108  1.0424
  924MOL0     H21907   0.613   7.281   4.295 -2.1967  1.3296 -1.2205
  924MOL0     H21908   0.561   7.432   4.348 -2.4974 -1.2771 -2.6292
  924MOL0     H21909   0.794   7.356   4.416  0.4510  1.2314  1.2925
  924MOL0     H21910   0.793   7.524   4.347 -2.8679  0.7437  0.8321
  924MOL0     H21911   0.870   7.270   4.200  3.8615 -1.0724  3.8237
  924MOL0     H21912   0.885   7.449   4.135  2.1331  2.4812  1.9180
  924MOL0     H21913   1.095   7.361   4.179  0.9268  0.7623  0.9247
  924MOL0     H21914   1.038   7.304   4.338 -3.1573 -4.6434 -3.3225
  924MOL0     H21915   1.044   7.549   4.423 -2.9616  0.8933  0.4046
  924MOL0     H21916   1.013   7.608   4.264  0.2145  2.8673  3.0275
  924MOL0     H21917   1.268   7.477   4.366 -1.0556 -0.2650  1.1137
  924MOL0     H21918   1.248   7.549   4.209 -0.6101  2.1004 -0.3288
  924MOL0     H21919   1.239   7.723   4.453 -1.1963 -2.3503  0.3560
  924MOL0     H21920   1.216   7.775   4.281  0.5838  0.3596  0.0621
  924MOL0     H21921   1.493   7.507   4.322  0.3560  0.6259 -2.1285
  924MOL0     H21922   1.828   7.672   4.374  1.5925 -0.2488 -3.3034
  924MOL0     H21923   1.788   7.571   4.249 -0.1060 -1.9473  0.4340
  924MOL0     H21924   1.675   7.413   4.426 -1.5085  1.9408 -0.9192
  924MOL0     H21925   1.710   7.549   4.544  1.6718 -1.0224  1.8038
  924MOL0     H21926   1.924   7.415   4.370 -0.6567 -2.8965 -0.1545
  924MOL0     H21927   1.939   7.501   4.520  1.5108 -1.0633  0.9772
  924MOL0     H21928   1.848   7.221   4.441 -2.2629  0.3867  0.1995
  924MOL0     H21929   1.804   7.285   4.611  1.1947  2.2903  0.8730
  924MOL0     H21930   2.220   7.226   4.685 -2.6756  0.9459 -1.8070
  924MOL0     H21931   2.288   7.015   4.833 -0.3551 -2.9197 -1.9803
  924MOL0     H21932   2.052   6.723   5.201 -2.8002 -1.1727  0.0750
  924MOL0     H21933   2.163   6.552   5.367  0.9826  1.1488  0.4784
  924MOL0     H21934   2.428   6.416   5.279 -0.5009 -0.5658 -2.3990
  924MOL0     H21935   2.444   6.235   5.270  0.4817 -0.5862  2.6549
  924MOL0     H21936   2.352   6.226   5.499  2.0987 -1.1733 -0.6221
  924MOL0     H21937   2.369   6.408   5.513  0.1266 -1.5065  4.3786
  924MOL0     H21938   2.617   6.352   5.434  3.6290 -0.7313  1.6260
  924MOL0     H21939   2.558   6.187   5.469 -0.4162  0.5278 -0.8323
  924MOL0     H21940   2.445   6.334   5.688 -1.2032 -0.2087 -1.7777
  924MOL0     H21941   2.597   6.238   5.707 -0.0401  0.8408 -0.4196
  924MOL0     H21942   2.557   6.490   5.790  0.8118  2.1279 -0.7721
  924MOL0     H21943   2.593   6.537   5.627  3.2005  1.3676  0.0573
  924MOL0     H21944   2.811   6.392   5.633 -1.6659 -1.9414 -0.2263
  924MOL0     H21945   2.777   6.385   5.813 -1.9099 -1.1857 -0.2773
  924MOL0     H21946   2.931   6.562   5.714 -0.9066 -2.1603  0.0718
  924MOL0     H21947   2.779   6.633   5.640  0.1692  2.9222  1.2945
  924MOL0     H21948   2.673   6.638   5.853 -0.2308 -0.5535 -1.6383
  924MOL0     H21949   2.813   6.753   5.835  0.6209  0.6118  2.6008
  924MOL0     H21950   2.225   6.307   5.028 -3.3271 -1.5742  0.8177
  924MOL0     H21951   2.113   6.463   4.880  0.6587 -0.2869  0.3278
  924MOL0     H21952   1.901   6.868   4.799 -0.7871 -0.4749 -0.1993
  924MOL0     H21953   1.833   7.053   4.657 -0.2693 -1.1239  1.4173
  924MOL0     H21954   0.298   7.698   4.150 -1.3360  0.2788 -0.8630
  924MOL0     H21955   0.195   7.805   3.939 -0.4103  0.8215  0.2927
  924MOL0     H21956   0.167   8.170   3.704  3.7636 -1.7037 -0.5409
  924MOL0     H21957   0.038   8.272   3.530 -0.4920 -1.1038  2.6345
  924MOL0     H21958  -0.102   7.968   3.200 -0.8843 -0.1659 -1.5282
  924MOL0     H21959   0.025   8.067   3.116  1.3633  0.4408  1.9178
  924MOL0     H21960  -0.149   8.241   3.084  1.8078  0.2674 -5.2720
  924MOL0     H21961  -0.169   8.113   2.979 -0.5132  2.2303 -0.9719
  924MOL0     H21962  -0.308   8.124   3.259  3.3940 -2.6280  1.2707
  924MOL0     H21963  -0.368   8.013   3.139  0.7973 -0.4433  2.9419
  924MOL0     H21964  -0.345   8.306   3.047  1.2652 -0.5028  1.6529
  924MOL0     H21965  -0.456   8.174   3.001 -2.2012  1.2756  0.2048
  924MOL0     H21966  -0.692   8.340   3.294 -2.3700 -2.8310 -2.4841
  924MOL0     H21967   0.089   7.922   3.288  1.2939 -1.8609  1.4830
  924MOL0     H21968   0.215   7.820   3.455 -1.7488 -0.2801 -3.7521
  925MOL0     O21969   5.941   7.053  11.444 -0.2748  0.8914  0.8195
  925MOL0     C21970   5.913   7.124  11.534  0.0141 -0.6821 -0.3092
  925MOL0     O21971   5.793   7.148  11.589  0.4453 -0.0357 -1.2037
  925MOL0     C21972   5.697   7.055  11.559  0.5223  0.0118 -0.0399
  925MOL0     C21973   5.588   7.103  11.477 -0.2100 -0.7253  0.8924
  925MOL0     C21974   5.497   7.015  11.428 -0.2464  0.4642 -0.6375
  925MOL0     C21975   5.495   6.878  11.454 -0.7000  0.1851 -0.6216
  925MOL0     O21976   5.401   6.800  11.393 -0.4978  0.3993  1.2851
  925MOL0     C21977   5.356   6.700  11.484  0.2755 -0.6965 -0.0772
  925MOL0     C21978   5.263   6.609  11.402 -1.4262 -0.0714 -0.4412
  925MOL0     C21979   5.176   6.541  11.506  0.3343 -0.6935  0.8935
  925MOL0     C21980   5.065   6.449  11.438 -0.7767 -0.3281 -0.6704
  925MOL0     C21981   4.993   6.387  11.556  0.1232 -0.0620  0.6443
  925MOL0     C21982   4.884   6.286  11.507 -0.4481  1.1954  0.0376
  925MOL0     C21983   4.820   6.237  11.642  0.3675  0.2079 -0.1344
  925MOL0     C21984   4.903   6.133  11.728  0.1491  0.7662  0.1811
  925MOL0     N21985   4.829   6.094  11.845 -1.0738 -0.6672 -0.4645
  925MOL0     C21986   4.818   6.169  11.962 -0.2342  0.1255  0.4822
  925MOL0     C21987   4.758   6.092  12.050  0.1278 -0.6925 -0.2381
  925MOL0     C21988   4.692   6.153  12.175 -0.3646  0.1255  0.1704
  925MOL0     C21989   4.728   6.068  12.294 -0.6121 -0.6646 -0.0894
  925MOL0     C21990   4.678   6.129  12.425  1.2639 -0.4494  0.7246
  925MOL0     C21991   4.674   6.027  12.545  0.3164 -0.4686  0.7886
  925MOL0     O21992   4.580   5.924  12.507 -0.0696 -0.0661  0.3453
  925MOL0     C21993   4.522   5.839  12.603 -0.3142  0.8890 -0.1172
  925MOL0     C21994   4.535   5.819  12.743 -0.7040 -1.0289  0.7482
  925MOL0     C21995   4.454   5.733  12.823 -0.7443 -0.0877  0.3079
  925MOL0     C21996   4.368   5.643  12.765  0.4555  0.6831  0.4828
  925MOL0     C21997   4.290   5.540  12.836  0.4758  0.2989  0.6315
  925MOL0     O21998   4.333   5.483  12.958 -0.4165 -0.0535  0.5736
  925MOL0     C21999   4.261   5.387  13.021  0.2669 -0.6019 -1.2690
  925MOL0     C22000   4.265   5.256  12.976 -0.8254  0.1462  0.6859
  925MOL0     C22001   4.194   5.156  13.049  0.9123  0.4752  0.1750
  925MOL0     C22002   4.123   5.185  13.164 -0.9102  0.4466  0.1725
  925MOL0     O22003   4.049   5.084  13.227 -0.6361 -0.1022 -0.2828
  925MOL0     C22004   3.904   5.103  13.210  0.3279  0.1420 -1.0072
  925MOL0     C22005   3.842   4.955  13.196 -0.2868 -0.7469 -0.0159
  925MOL0     C22006   3.714   4.962  13.116 -1.4853  0.0513 -0.5186
  925MOL0     C22007   3.629   4.833  13.099  1.2490 -1.3512  0.0211
  925MOL0     C22008   3.720   4.723  13.043 -0.3917  0.4679 -0.1147
  925MOL0     C22009   3.756   4.737  12.890  0.3371 -0.7424 -0.4538
  925MOL0     C22010   3.835   4.618  12.848  0.6113  0.2690  0.3980
  925MOL0     C22011   3.749   4.492  12.819  0.2647  0.5541  0.1909
  925MOL0    Cl22012   3.671   4.522  12.655 -0.1202 -0.2968 -0.1964
  925MOL0     C22013   4.123   5.312  13.217  0.1840 -0.4600  0.2552
  925MOL0     C22014   4.183   5.413  13.137 -0.5872  0.8437 -0.1756
  925MOL0     O22015   4.180   5.500  12.784  0.3194  0.4183  0.0512
  925MOL0     C22016   4.359   5.650  12.625 -0.0127 -0.0402 -0.1634
  925MOL0     C22017   4.418   5.753  12.558 -0.5465 -0.0876  1.1223
  925MOL0     N22018   4.736   5.969  11.988  0.1245 -1.0214 -0.3224
  925MOL0     N22019   4.789   5.973  11.874 -0.6972 -0.2409 -0.3739
  925MOL0     C22020   5.601   6.826  11.530 -0.0357  0.4811 -0.7057
  925MOL0     C22021   5.697   6.918  11.581  0.6201  0.4111 -0.7436
  925MOL0     C22022   6.029   7.205  11.577 -0.2592 -0.3146 -0.6604
  925MOL0     C22023   6.012   7.298  11.686  0.5636  0.6587  0.4945
  925MOL0     C22024   6.121   7.363  11.741 -0.2708  0.3585  0.0997
  925MOL0     C22025   6.247   7.344  11.685  0.5153  0.2886 -0.5190
  925MOL0     O22026   6.345   7.420  11.749 -0.0347  0.5506 -0.7536
  925MOL0     C22027   6.453   7.480  11.679 -0.6057 -0.1186  0.4052
  925MOL0     C22028   6.582   7.374  11.657  0.1865  0.0367  0.2986
  925MOL0     C22029   6.611   7.284  11.780  0.5798  0.6454  0.5375
  925MOL0     C22030   6.732   7.188  11.757  0.0884  0.0398  0.1005
  925MOL0     C22031   6.714   7.061  11.838  0.4370  0.4476  0.1283
  925MOL0     C22032   6.722   6.968  11.918  0.1611  0.8411  0.0551
  925MOL0     C22033   6.264   7.264  11.569 -0.7828  0.7264  0.0876
  925MOL0     C22034   6.163   7.182  11.528  0.9024  0.0741 -0.7265
  925MOL0     H22035   5.588   7.207  11.446  0.6953 -0.5391  1.4624
  925MOL0     H22036   5.425   7.050  11.354  1.5330  2.0387 -1.7229
  925MOL0     H22037   5.303   6.748  11.566  1.0395 -1.7415  1.0809
  925MOL0     H22038   5.430   6.633  11.530 -0.7061 -1.3279  0.6240
  925MOL0     H22039   5.313   6.539  11.334 -3.8556 -0.3074 -2.0994
  925MOL0     H22040   5.199   6.671  11.339  1.5892  2.4162 -1.3466
  925MOL0     H22041   5.126   6.611  11.574 -1.1522 -1.4049  0.5841
  925MOL0     H22042   5.240   6.484  11.574  0.2525 -2.2078 -0.2457
  925MOL0     H22043   4.992   6.507  11.380 -3.6641 -1.0805  1.9185
  925MOL0     H22044   5.105   6.378  11.365 -0.3882 -1.8424  0.9569
  925MOL0     H22045   4.955   6.473  11.613 -1.2125  0.5162 -1.0389
  925MOL0     H22046   5.058   6.329  11.623 -1.3495 -0.8039  1.4788
  925MOL0     H22047   4.915   6.196  11.454  3.7074  1.8201  1.0900
  925MOL0     H22048   4.819   6.345  11.442 -1.4099 -1.1298 -1.2218
  925MOL0     H22049   4.786   6.323  11.701  3.0907  2.0528 -1.0459
  925MOL0     H22050   4.727   6.190  11.611  1.3476 -1.5565 -0.5599
  925MOL0     H22051   4.994   6.176  11.770 -0.9586  2.9305  0.4633
  925MOL0     H22052   4.924   6.045  11.666 -0.9916  0.9678 -0.5235
  925MOL0     H22053   4.827   6.277  11.969 -0.1364  0.3269 -1.9504
  925MOL0     H22054   4.588   6.170  12.148  0.4045  1.0589 -2.5252
  925MOL0     H22055   4.729   6.252  12.202  0.8292 -0.8127  2.3112
  925MOL0     H22056   4.833   6.037  12.297 -0.1028  1.0258  1.0493
  925MOL0     H22057   4.669   5.977  12.278 -0.1996 -1.1234  0.9013
  925MOL0     H22058   4.735   6.209  12.474  3.3937 -1.6850  0.3628
  925MOL0     H22059   4.575   6.161  12.407  0.8060 -3.4401 -3.4592
  925MOL0     H22060   4.632   6.078  12.633 -0.9697 -1.0558  0.5417
  925MOL0     H22061   4.771   5.980  12.563  1.5442  0.7918 -2.0229
  925MOL0     H22062   4.610   5.876  12.797 -2.9030  1.1002  1.7294
  925MOL0     H22063   4.468   5.730  12.931 -0.0190 -2.2601  0.2077
  925MOL0     H22064   4.309   5.242  12.877 -2.7036 -0.9555 -0.0499
  925MOL0     H22065   4.190   5.054  13.011 -1.7416  0.7991 -0.5573
  925MOL0     H22066   3.881   5.166  13.124 -0.3290 -4.0890 -4.2860
  925MOL0     H22067   3.855   5.145  13.299  1.2752  3.3664 -1.9148
  925MOL0     H22068   3.822   4.914  13.295 -2.2188  1.8127  0.7634
  925MOL0     H22069   3.924   4.905  13.142  2.0166  2.5797  0.1101
  925MOL0     H22070   3.739   4.996  13.015  2.3741  1.0431  0.6195
  925MOL0     H22071   3.663   5.042  13.170 -1.2104 -0.8258  1.1111
  925MOL0     H22072   3.587   4.809  13.197 -0.3794  1.9411  0.2676
  925MOL0     H22073   3.542   4.851  13.036 -1.6767  0.9901  4.1847
  925MOL0     H22074   3.673   4.629  13.072 -0.6730  1.4947  3.1337
  925MOL0     H22075   3.822   4.721  13.083  1.1374  0.1787 -3.6468
  925MOL0     H22076   3.821   4.825  12.882 -0.7749  0.1083 -0.4241
  925MOL0     H22077   3.670   4.749  12.823  0.9234  1.6081 -0.8677
  925MOL0     H22078   3.897   4.651  12.764  0.8340 -1.6107 -0.2300
  925MOL0     H22079   3.918   4.600  12.917  0.5112 -4.3870 -0.3880
  925MOL0     H22080   3.686   4.450  12.898  0.0309  0.3072 -0.1263
  925MOL0     H22081   3.826   4.420  12.790  1.1229  1.3373  0.4686
  925MOL0     H22082   4.066   5.338  13.306  0.4236 -2.1285  0.9338
  925MOL0     H22083   4.190   5.517  13.169  1.2077  0.9400 -0.7330
  925MOL0     H22084   4.293   5.591  12.562  0.4764  0.4692 -1.1650
  925MOL0     H22085   4.392   5.755  12.453 -0.2122 -0.1943  1.0350
  925MOL0     H22086   5.620   6.721  11.546 -1.2501  0.5895  2.1043
  925MOL0     H22087   5.783   6.884  11.636 -0.3301 -2.8234 -1.0289
  925MOL0     H22088   5.924   7.334  11.739  1.1853  0.4596  1.6913
  925MOL0     H22089   6.102   7.431  11.824  1.9550 -3.2033  3.9314
  925MOL0     H22090   6.490   7.572  11.725  3.2674 -0.0097 -2.4202
  925MOL0     H22091   6.425   7.497  11.574 -0.5558 -1.5802  0.1331
  925MOL0     H22092   6.564   7.306  11.573 -3.3001  3.9411 -2.5097
  925MOL0     H22093   6.672   7.434  11.640 -1.6622  2.6942 -0.6781
  925MOL0     H22094   6.518   7.228  11.796  0.4299  0.9490  0.7527
  925MOL0     H22095   6.622   7.336  11.876  0.4979 -2.8725  2.6394
  925MOL0     H22096   6.750   7.149  11.657  2.0663 -0.3034  0.5394
  925MOL0     H22097   6.826   7.227  11.798  0.7945 -1.5245  0.0536
  925MOL0     H22098   6.722   6.900  12.001 -0.7840  2.8829  1.8368
  925MOL0     H22099   6.363   7.254  11.527  0.4578 -0.6885  3.0584
  925MOL0     H22100   6.169   7.098  11.461 -1.1028 -2.5853  2.1201
  926MOL0     O22101   7.100  10.109   5.202  0.5680 -0.8622  0.2710
  926MOL0     C22102   7.074  10.082   5.081 -0.3976 -0.1930  0.1434
  926MOL0     O22103   7.173  10.043   4.987  0.3446  0.3016 -1.3416
  926MOL0     C22104   7.307  10.050   5.027 -0.5769 -1.2915  0.1772
  926MOL0     C22105   7.392   9.935   5.030 -0.4607 -0.7460  0.0609
  926MOL0     C22106   7.522   9.944   5.073 -1.0247  0.0959 -0.4227
  926MOL0     C22107   7.578  10.073   5.092 -0.3736  0.8644 -0.9099
  926MOL0     O22108   7.694  10.096   5.168  0.0109  0.6288  0.0613
  926MOL0     C22109   7.811  10.026   5.133 -0.4009  0.1692  1.1957
  926MOL0     C22110   7.906  10.116   5.047  0.9647 -0.1201  0.1444
  926MOL0     C22111   7.849  10.126   4.909 -0.7147 -0.8836  0.2507
  926MOL0     C22112   7.936  10.204   4.812 -0.3650 -1.2945  0.5393
  926MOL0     C22113   7.868  10.222   4.670 -0.0179  0.8216 -0.0012
  926MOL0     C22114   7.974  10.253   4.560 -1.3868 -0.1391 -0.1361
  926MOL0     C22115   7.923  10.288   4.428 -0.3138 -0.3706  0.6160
  926MOL0     C22116   8.010  10.235   4.317  0.3799  0.8829  0.0360
  926MOL0     N22117   7.968  10.101   4.251  0.5760 -0.0988  0.1084
  926MOL0     C22118   7.930   9.998   4.324  0.3342  0.1540  0.6561
  926MOL0     C22119   7.895   9.901   4.237  0.0785  0.3482 -0.7044
  926MOL0     C22120   7.841   9.764   4.258 -0.4477  0.4076  0.1230
  926MOL0     C22121   7.931   9.657   4.196  0.4515  0.5566 -0.4980
  926MOL0     C22122   8.077   9.639   4.260  0.8043  0.3373 -0.1392
  926MOL0     C22123   8.167   9.578   4.161 -0.2061 -0.0032 -0.3356
  926MOL0     O22124   8.228   9.458   4.220  0.5285  0.5554 -0.5556
  926MOL0     C22125   8.311   9.377   4.151  1.0330 -0.6872  0.6334
  926MOL0     C22126   8.385   9.421   4.039  0.0627  0.4595  0.1049
  926MOL0     C22127   8.489   9.343   3.987  0.6831 -0.0690  0.8040
  926MOL0     C22128   8.515   9.213   4.047  0.9803  0.2033 -1.1420
  926MOL0     C22129   8.619   9.126   4.003 -1.1028  0.0087  0.4148
  926MOL0     O22130   8.602   8.990   4.004 -0.1135 -0.0523 -0.3442
  926MOL0     C22131   8.692   8.920   3.928 -0.6138 -0.0676  1.1909
  926MOL0     C22132   8.749   8.962   3.803  0.3046  0.7713 -0.0775
  926MOL0     C22133   8.841   8.872   3.733 -0.3429  0.7209  0.8694
  926MOL0     C22134   8.876   8.740   3.783  0.9594 -0.3012  0.8293
  926MOL0     O22135   8.961   8.657   3.722 -0.2323  0.2863 -0.7184
  926MOL0     C22136   9.031   8.685   3.599  1.1599  0.8529 -0.8281
  926MOL0     C22137   9.148   8.592   3.593 -0.5832  0.3657 -1.0722
  926MOL0     C22138   9.228   8.595   3.466  0.2738 -1.0325 -0.4877
  926MOL0     C22139   9.341   8.500   3.470  0.8454  0.1050 -0.2174
  926MOL0     C22140   9.447   8.517   3.361  0.0544 -0.1894 -0.3922
  926MOL0     C22141   9.573   8.586   3.401 -0.2277 -0.1857  0.2774
  926MOL0     C22142   9.659   8.508   3.496 -0.3254 -0.1281  0.0173
  926MOL0     C22143   9.685   8.357   3.484 -0.2715  0.4482 -0.7056
  926MOL0    Cl22144   9.599   8.267   3.635 -0.0101 -0.2288 -0.3121
  926MOL0     C22145   8.818   8.705   3.901  0.4278 -0.3163  0.5734
  926MOL0     C22146   8.734   8.798   3.970 -0.0309  0.4962  0.0134
  926MOL0     O22147   8.726   9.182   3.976  0.0098 -0.8697 -0.1403
  926MOL0     C22148   8.447   9.167   4.161  0.3539  0.3463  0.4699
  926MOL0     C22149   8.345   9.253   4.207  0.3115  0.3628 -0.0261
  926MOL0     N22150   7.903   9.948   4.114  0.1166  0.0666  0.2787
  926MOL0     N22151   7.949  10.072   4.119 -0.5634 -0.0982 -0.3589
  926MOL0     C22152   7.502  10.179   5.089 -0.3686 -0.8517 -0.4829
  926MOL0     C22153   7.370  10.174   5.052  0.6205 -0.0690  0.0135
  926MOL0     C22154   6.924  10.080   5.048 -0.5794 -0.1385  0.0457
  926MOL0     C22155   6.834  10.174   5.105  0.0970  0.6942 -0.3399
  926MOL0     C22156   6.699  10.159   5.062  0.2172 -0.6818  1.1959
  926MOL0     C22157   6.661  10.062   4.975  0.2990 -0.7770  0.5079
  926MOL0     O22158   6.526  10.030   4.948 -0.3120 -0.3626  0.1829
  926MOL0     C22159   6.427  10.131   4.962  0.0532 -0.5884  0.2269
  926MOL0     C22160   6.460  10.253   4.855 -0.5842  0.4607  0.0479
  926MOL0     C22161   6.425  10.221   4.709  0.2898 -0.2422  0.0826
  926MOL0     C22162   6.452  10.340   4.612  0.1913  0.0196 -0.2242
  926MOL0     C22163   6.379  10.339   4.483  1.2399 -0.0479 -0.1000
  926MOL0     C22164   6.318  10.345   4.380  1.0567 -1.1118  0.5630
  926MOL0     C22165   6.755   9.989   4.898 -0.2272 -0.0804 -1.0467
  926MOL0     C22166   6.887  10.001   4.942 -0.1155  0.7561  0.1791
  926MOL0     H22167   7.348   9.837   5.015  0.0640 -0.9614 -0.0736
  926MOL0     H22168   7.582   9.862   5.110 -2.1850 -0.8968 -0.6871
  926MOL0     H22169   7.783   9.933   5.082 -2.3669  0.3324  1.9003
  926MOL0     H22170   7.868   9.995   5.221 -0.1844 -0.0942  0.9642
  926MOL0     H22171   8.005  10.070   5.049  0.5223 -1.0912  2.0267
  926MOL0     H22172   7.909  10.208   5.107 -0.2338 -0.2848  0.4919
  926MOL0     H22173   7.754  10.179   4.915 -0.4706 -0.5912  2.4954
  926MOL0     H22174   7.849  10.026   4.866  1.8040 -0.4467 -0.9888
  926MOL0     H22175   7.981  10.298   4.845 -0.0649 -0.9281 -0.8299
  926MOL0     H22176   8.025  10.142   4.799 -0.3694 -1.5833  1.7868
  926MOL0     H22177   7.794  10.303   4.673  1.8804  2.6089  0.2541
  926MOL0     H22178   7.835  10.119   4.654  0.3449  0.8222 -0.7966
  926MOL0     H22179   8.036  10.163   4.559  0.0254  0.7440  1.8258
  926MOL0     H22180   8.031  10.342   4.586 -2.3669  0.6460 -0.5771
  926MOL0     H22181   7.820  10.253   4.415 -0.2153 -1.2511  2.0409
  926MOL0     H22182   7.922  10.397   4.421 -0.7216 -0.4528 -1.2282
  926MOL0     H22183   8.107  10.202   4.355 -2.0223 -3.0704  3.6867
  926MOL0     H22184   8.008  10.300   4.230 -0.8266 -0.7222 -1.2036
  926MOL0     H22185   7.929   9.985   4.432  0.8897 -3.8995  0.3371
  926MOL0     H22186   7.736   9.752   4.227 -0.1527 -2.0550 -0.0746
  926MOL0     H22187   7.838   9.738   4.364 -1.2382 -1.0763 -0.2345
  926MOL0     H22188   7.936   9.682   4.089 -2.2147 -1.5407 -1.2185
  926MOL0     H22189   7.880   9.561   4.206  0.0228  0.8832  0.5710
  926MOL0     H22190   8.111   9.740   4.284 -1.2964  1.1686 -0.4361
  926MOL0     H22191   8.068   9.581   4.352 -0.7906 -1.2391 -1.2203
  926MOL0     H22192   8.248   9.649   4.141  2.3157 -2.5737  0.0040
  926MOL0     H22193   8.123   9.552   4.065 -2.4637 -0.2106  0.6894
  926MOL0     H22194   8.373   9.519   3.995 -1.4947  0.1925 -0.1265
  926MOL0     H22195   8.544   9.382   3.901  0.1464  2.0116  1.3539
  926MOL0     H22196   8.741   9.060   3.758  3.3383  2.0807  1.8512
  926MOL0     H22197   8.898   8.896   3.644  0.2208 -2.4574  0.2810
  926MOL0     H22198   9.076   8.785   3.592 -0.3247  1.5247 -1.3096
  926MOL0     H22199   8.961   8.659   3.519  0.1530 -0.1924  0.3338
  926MOL0     H22200   9.110   8.490   3.603  0.2316  0.1940  0.6442
  926MOL0     H22201   9.216   8.614   3.676 -0.3659  2.8690 -1.8298
  926MOL0     H22202   9.261   8.699   3.455  0.8626 -0.8868  1.9505
  926MOL0     H22203   9.167   8.566   3.380  0.6252 -1.9535 -0.4318
  926MOL0     H22204   9.389   8.499   3.568 -1.2194 -0.0003  0.8517
  926MOL0     H22205   9.298   8.400   3.454 -0.7459  0.6081  0.7242
  926MOL0     H22206   9.402   8.575   3.280  1.7479  1.3592 -0.2919
  926MOL0     H22207   9.460   8.417   3.320 -3.8276 -0.9025 -0.3160
  926MOL0     H22208   9.558   8.690   3.431  2.9232  0.5173 -0.2482
  926MOL0     H22209   9.625   8.610   3.309  0.7515  3.2964  1.5973
  926MOL0     H22210   9.757   8.556   3.497 -0.7594  0.8395  2.2885
  926MOL0     H22211   9.609   8.522   3.592 -1.3179  1.4010 -0.6747
  926MOL0     H22212   9.787   8.319   3.496 -1.0748 -1.4842  0.5555
  926MOL0     H22213   9.644   8.321   3.389  2.4205 -1.2060 -1.3364
  926MOL0     H22214   8.832   8.609   3.949 -2.5549 -0.0055  2.2802
  926MOL0     H22215   8.689   8.757   4.060 -0.0395  0.8638  0.1775
  926MOL0     H22216   8.463   9.067   4.200  0.6777  1.2584  2.9092
  926MOL0     H22217   8.295   9.222   4.298 -1.5031 -2.4477 -1.8080
  926MOL0     H22218   7.534  10.278   5.121  2.5344 -1.4162 -1.3776
  926MOL0     H22219   7.308  10.263   5.058  0.4753 -0.2456  1.8529
  926MOL0     H22220   6.879  10.234   5.183  3.5054 -5.2203  3.0250
  926MOL0     H22221   6.627  10.219   5.117  2.5036  0.7278  2.8773
  926MOL0     H22222   6.439  10.172   5.062  0.6141 -2.8888  1.1771
  926MOL0     H22223   6.319  10.118   4.956 -0.7110  3.0590  2.6818
  926MOL0     H22224   6.406  10.341   4.892 -0.6939  1.2117 -1.8276
  926MOL0     H22225   6.569  10.263   4.863 -0.6742  0.9119  0.7940
  926MOL0     H22226   6.318  10.198   4.704 -0.1061  1.1259  1.5270
  926MOL0     H22227   6.482  10.133   4.679  2.0907  0.4233  1.3729
  926MOL0     H22228   6.415  10.425   4.671  1.2147 -2.6931  4.8703
  926MOL0     H22229   6.558  10.361   4.598  0.3552 -1.4212 -1.3973
  926MOL0     H22230   6.269  10.367   4.287  2.7807  1.8120  0.2127
  926MOL0     H22231   6.718   9.923   4.820  0.6038 -1.4895 -0.2973
  926MOL0     H22232   6.974   9.960   4.890  0.9366  0.8700  1.7781
  927MOL0     O22233   2.361   2.493   4.838  0.1555 -0.3667  0.1575
  927MOL0     C22234   2.336   2.577   4.751 -0.0821  0.6762 -1.5554
  927MOL0     O22235   2.407   2.687   4.718 -0.2054 -0.2727  0.7757
  927MOL0     C22236   2.518   2.718   4.795 -0.0836  0.2988  0.2198
  927MOL0     C22237   2.643   2.657   4.766 -0.0546 -0.0361  0.2639
  927MOL0     C22238   2.756   2.706   4.832  1.0597  0.1444 -0.5303
  927MOL0     C22239   2.746   2.807   4.931 -0.9278 -0.8649 -0.3709
  927MOL0     O22240   2.849   2.857   4.999  0.2871  0.0743 -0.5090
  927MOL0     C22241   2.979   2.875   4.936 -1.1753 -0.6540  0.2199
  927MOL0     C22242   3.055   2.992   4.990 -1.1046  0.4663 -0.4401
  927MOL0     C22243   2.970   3.122   4.971  1.4725  0.9670 -0.0904
  927MOL0     C22244   3.059   3.248   4.956  0.2761  0.6890 -0.0493
  927MOL0     C22245   2.994   3.373   4.902  0.2567 -1.4208 -0.3936
  927MOL0     C22246   2.936   3.347   4.753 -0.5432 -0.0430 -0.5415
  927MOL0     C22247   2.897   3.478   4.686 -0.0952 -0.3248  0.7975
  927MOL0     C22248   2.746   3.508   4.676 -0.8348 -0.5126 -0.4422
  927MOL0     N22249   2.676   3.508   4.804 -0.8489  0.1163 -0.2715
  927MOL0     C22250   2.634   3.391   4.873  1.2550 -0.3792 -0.0813
  927MOL0     C22251   2.606   3.434   5.001  0.1608 -0.0626 -0.6194
  927MOL0     C22252   2.566   3.338   5.117  0.6163 -1.2455  1.2539
  927MOL0     C22253   2.651   3.334   5.244 -0.3134  0.0052 -0.3927
  927MOL0     C22254   2.658   3.463   5.334  0.4104 -0.5901 -0.4397
  927MOL0     C22255   2.527   3.545   5.355 -0.3371 -0.0360  0.8311
  927MOL0     O22256   2.460   3.477   5.463  0.4420 -0.3091  0.0579
  927MOL0     C22257   2.357   3.552   5.522  0.1662 -0.3120 -0.5880
  927MOL0     C22258   2.240   3.573   5.458 -0.6904  0.5021 -0.1278
  927MOL0     C22259   2.136   3.643   5.511  0.3673  0.2473 -0.0779
  927MOL0     C22260   2.150   3.719   5.628  0.0610  0.2448  0.6462
  927MOL0     C22261   2.050   3.809   5.698 -0.7649 -0.2193  0.0868
  927MOL0     O22262   2.054   3.824   5.838 -0.8322 -0.5075  0.4251
  927MOL0     C22263   1.937   3.886   5.882 -0.3591 -0.4137 -0.1448
  927MOL0     C22264   1.853   3.829   5.979 -0.1805  0.1512 -0.3290
  927MOL0     C22265   1.736   3.887   6.023  0.0733 -0.3106  0.8058
  927MOL0     C22266   1.701   4.015   5.991 -0.6590  0.3666  0.2464
  927MOL0     O22267   1.590   4.076   6.025 -0.1592  0.1519  0.2845
  927MOL0     C22268   1.540   4.045   6.156  0.5620  0.1981 -0.0182
  927MOL0     C22269   1.404   4.115   6.190 -0.0358 -0.0832 -0.0875
  927MOL0     C22270   1.372   4.098   6.336  0.7542  0.2119 -0.7813
  927MOL0     C22271   1.224   4.152   6.350  0.3986 -0.5720 -0.2167
  927MOL0     C22272   1.156   4.097   6.474  1.0017 -0.4418 -0.3441
  927MOL0     C22273   1.107   3.954   6.450 -0.8614 -0.2619  0.1924
  927MOL0     C22274   1.044   3.901   6.583 -0.8347  1.1335 -0.3498
  927MOL0     C22275   0.912   3.979   6.612  0.1931 -0.1046  0.7394
  927MOL0    Cl22276   0.788   3.944   6.474  0.2581 -0.1450 -0.2304
  927MOL0     C22277   1.791   4.084   5.907 -0.0403  0.1907 -0.2162
  927MOL0     C22278   1.907   4.026   5.849 -0.7700 -0.2511  0.1383
  927MOL0     O22279   1.959   3.836   5.618 -0.2828  0.1967 -0.1277
  927MOL0     C22280   2.264   3.702   5.699 -0.6311  0.1771 -0.1039
  927MOL0     C22281   2.364   3.627   5.644 -0.4028  0.2498 -0.6325
  927MOL0     N22282   2.616   3.574   5.002 -0.2860 -0.0594 -0.3081
  927MOL0     N22283   2.662   3.616   4.888  0.5473  0.4663 -0.8440
  927MOL0     C22284   2.622   2.860   4.969  0.7974 -0.1130 -0.5487
  927MOL0     C22285   2.506   2.817   4.893 -0.5883 -0.7525 -0.3454
  927MOL0     C22286   2.207   2.550   4.687 -0.2831 -0.2787  1.0921
  927MOL0     C22287   2.188   2.594   4.553 -0.2699 -0.6322 -0.7556
  927MOL0     C22288   2.068   2.592   4.490 -0.3604  0.5986  0.1851
  927MOL0     C22289   1.958   2.542   4.564 -0.2631  0.1103 -0.4839
  927MOL0     O22290   1.825   2.528   4.522  0.1050  0.5657  0.0141
  927MOL0     C22291   1.789   2.557   4.381  0.2634  0.0523  0.2914
  927MOL0     C22292   1.640   2.539   4.373  0.5990 -1.3593  0.0821
  927MOL0     C22293   1.623   2.463   4.238 -0.4186  0.5988  0.5662
  927MOL0     C22294   1.479   2.467   4.179 -0.6333 -1.2733 -0.3570
  927MOL0     C22295   1.380   2.482   4.284  0.5634  0.1934  0.2592
  927MOL0     C22296   1.289   2.479   4.373 -0.5723  0.5192 -0.3870
  927MOL0     C22297   1.968   2.504   4.696 -0.5951  0.0668  0.1473
  927MOL0     C22298   2.101   2.493   4.755  1.5006 -0.1278 -0.0590
  927MOL0     H22299   2.654   2.575   4.695 -0.3835  0.3521 -0.2436
  927MOL0     H22300   2.839   2.646   4.796  2.8257  2.1465 -0.0253
  927MOL0     H22301   2.969   2.899   4.829 -1.5718 -0.0136  0.3949
  927MOL0     H22302   3.043   2.787   4.949 -1.3596 -0.6976  0.8457
  927MOL0     H22303   3.147   3.000   4.931 -0.0370 -0.5835  0.9853
  927MOL0     H22304   3.074   2.978   5.097 -0.4000  3.4863 -0.0966
  927MOL0     H22305   2.908   3.135   5.059  1.5503  1.2487 -0.0779
  927MOL0     H22306   2.893   3.107   4.894 -0.0629 -0.9425  1.7128
  927MOL0     H22307   3.112   3.275   5.048 -0.3699 -4.6810  2.2766
  927MOL0     H22308   3.121   3.213   4.873 -1.9431 -1.0312 -1.0950
  927MOL0     H22309   3.080   3.441   4.901 -0.2198 -0.7936  0.0935
  927MOL0     H22310   2.919   3.408   4.974  1.3310  3.0798 -1.1421
  927MOL0     H22311   2.864   3.264   4.755 -1.3985  0.5423 -2.8696
  927MOL0     H22312   3.019   3.296   4.703  0.1139 -0.5257  1.0060
  927MOL0     H22313   2.942   3.568   4.730  1.9019 -1.0180  0.2925
  927MOL0     H22314   2.933   3.468   4.583 -3.0699 -1.1142 -0.2758
  927MOL0     H22315   2.687   3.440   4.615 -2.8966  0.6620  0.1207
  927MOL0     H22316   2.738   3.606   4.626 -0.2906  1.1804  2.5660
  927MOL0     H22317   2.635   3.289   4.835 -1.6186  0.3979 -2.6752
  927MOL0     H22318   2.553   3.236   5.078  0.6225 -1.5900  2.1240
  927MOL0     H22319   2.468   3.371   5.151  1.8668  4.7592  0.0512
  927MOL0     H22320   2.749   3.297   5.215 -1.1887 -1.4077 -1.6807
  927MOL0     H22321   2.628   3.243   5.300  4.1786 -1.6157 -0.8086
  927MOL0     H22322   2.681   3.425   5.434 -2.0278  0.9033  0.7915
  927MOL0     H22323   2.736   3.534   5.302  2.3667 -0.7646  3.3512
  927MOL0     H22324   2.465   3.572   5.269 -0.0136 -0.2358  0.5322
  927MOL0     H22325   2.564   3.635   5.405 -0.1108 -0.2681  1.0833
  927MOL0     H22326   2.229   3.503   5.376  0.7696 -1.4915  1.2823
  927MOL0     H22327   2.040   3.638   5.461  0.2254  0.5203  0.1619
  927MOL0     H22328   1.902   3.744   6.025 -1.3268 -0.0129  0.5998
  927MOL0     H22329   1.683   3.828   6.097 -1.5264 -2.2556 -1.7517
  927MOL0     H22330   1.608   4.080   6.234  1.0691 -0.4720 -0.1500
  927MOL0     H22331   1.511   3.939   6.166 -1.9447  0.5603 -2.2529
  927MOL0     H22332   1.330   4.085   6.115  1.7039  0.4539 -2.1201
  927MOL0     H22333   1.421   4.221   6.169  0.9160  0.9083  4.5805
  927MOL0     H22334   1.437   4.147   6.407  2.1469 -1.7097 -0.6498
  927MOL0     H22335   1.373   3.991   6.358 -2.8572  0.1246 -0.3615
  927MOL0     H22336   1.229   4.261   6.356 -2.2596 -0.3279 -1.1637
  927MOL0     H22337   1.168   4.128   6.259  0.6349  1.5898 -0.9717
  927MOL0     H22338   1.070   4.159   6.501  0.1626 -2.6405  2.5679
  927MOL0     H22339   1.231   4.102   6.553  2.1245  2.2574 -1.4605
  927MOL0     H22340   1.190   3.889   6.418 -1.6076 -1.4430  0.5958
  927MOL0     H22341   1.023   3.955   6.380 -0.6787 -1.9715 -0.0932
  927MOL0     H22342   1.033   3.793   6.574 -4.5400  1.5835 -4.6087
  927MOL0     H22343   1.110   3.926   6.667 -1.0570  2.8379 -0.6430
  927MOL0     H22344   0.937   4.084   6.629  4.5391 -0.9274  0.5628
  927MOL0     H22345   0.886   3.938   6.710 -0.5375 -1.2274  0.0972
  927MOL0     H22346   1.756   4.178   5.864  1.5117  0.9642  0.1194
  927MOL0     H22347   1.964   4.083   5.775 -1.6590 -1.7788 -1.8319
  927MOL0     H22348   2.292   3.756   5.789 -3.8489 -1.1843  1.9064
  927MOL0     H22349   2.459   3.623   5.696 -1.1052  2.3246  0.9561
  927MOL0     H22350   2.606   2.938   5.043 -0.5959 -0.6758 -0.2226
  927MOL0     H22351   2.406   2.852   4.918 -1.6360 -3.5723 -0.2138
  927MOL0     H22352   2.270   2.649   4.509  0.5621 -1.3841 -0.1681
  927MOL0     H22353   2.051   2.613   4.385  1.8992 -0.5217 -0.4621
  927MOL0     H22354   1.852   2.500   4.312  0.0508  0.9249 -0.6475
  927MOL0     H22355   1.805   2.664   4.364  0.0114 -0.3166 -2.8412
  927MOL0     H22356   1.585   2.478   4.444 -3.6907  0.4850 -1.3003
  927MOL0     H22357   1.581   2.632   4.369 -1.6031 -2.5986  1.6570
  927MOL0     H22358   1.653   2.361   4.264  3.9258  1.3184 -0.7183
  927MOL0     H22359   1.696   2.495   4.164  2.1013 -0.7912  2.2771
  927MOL0     H22360   1.467   2.548   4.106  1.7695 -1.3434 -0.9252
  927MOL0     H22361   1.459   2.373   4.127  1.8047 -2.4845  0.7268
  927MOL0     H22362   1.198   2.467   4.428 -1.5442 -0.2837 -2.0945
  927MOL0     H22363   1.884   2.465   4.752 -0.5679  1.9211  1.5715
  927MOL0     H22364   2.108   2.469   4.861 -0.9283  1.0704  0.4415
  928MOL0     O22365   3.369   0.910   4.838 -0.1618  0.3253  0.5873
  928MOL0     C22366   3.360   0.981   4.939 -0.6654 -0.4744  0.3138
  928MOL0     O22367   3.384   0.941   5.065 -0.3195 -0.0173 -0.5301
  928MOL0     C22368   3.399   0.800   5.097 -0.2195 -1.0286  0.0787
  928MOL0     C22369   3.480   0.708   5.024  0.9077 -0.1590  0.3766
  928MOL0     C22370   3.476   0.575   5.064 -0.2323 -0.8973  0.1677
  928MOL0     C22371   3.409   0.533   5.185 -0.7175 -1.1863  1.0571
  928MOL0     O22372   3.419   0.401   5.238  0.6367 -0.6230 -0.6635
  928MOL0     C22373   3.474   0.297   5.164 -0.0884  0.4973 -0.4612
  928MOL0     C22374   3.393   0.249   5.049  0.2011  0.5258  1.0967
  928MOL0     C22375   3.452   0.125   4.973 -0.7954 -0.2993  0.3569
  928MOL0     C22376   3.358   0.012   4.941  0.5819 -0.4439 -0.0637
  928MOL0     C22377   3.399  -0.096   4.840 -0.3760  0.0666  0.8414
  928MOL0     C22378   3.504  -0.200   4.881 -0.0083  0.2167  0.2593
  928MOL0     C22379   3.504  -0.325   4.799  0.2120  0.7018  0.1027
  928MOL0     C22380   3.644  -0.353   4.748 -0.6265 -0.5158 -0.7412
  928MOL0     N22381   3.668  -0.283   4.625  0.4293 -0.5719  0.0797
  928MOL0     C22382   3.723  -0.160   4.606 -0.5766 -0.4877  0.7771
  928MOL0     C22383   3.700  -0.142   4.473  0.1544 -0.2445  0.5188
  928MOL0     C22384   3.747  -0.019   4.393 -0.2610  0.3417  0.1994
  928MOL0     C22385   3.896  -0.010   4.363  0.0033 -0.0845 -0.2101
  928MOL0     C22386   3.966   0.062   4.480 -0.0538  0.0708  0.1252
  928MOL0     C22387   4.116   0.061   4.462 -0.2585 -1.4885  0.4006
  928MOL0     O22388   4.171   0.135   4.577 -0.3036  0.0792  1.0176
  928MOL0     C22389   4.142   0.265   4.597 -1.0169 -1.0101 -0.7477
  928MOL0     C22390   4.126   0.363   4.503 -0.0673  0.2325  0.0068
  928MOL0     C22391   4.127   0.491   4.549  0.3407 -0.3060 -0.0348
  928MOL0     C22392   4.111   0.529   4.688 -0.0927 -0.0069  0.5903
  928MOL0     C22393   4.084   0.670   4.730  0.2805  0.0655  0.3962
  928MOL0     O22394   4.050   0.678   4.863 -0.0516 -0.4548 -1.0428
  928MOL0     C22395   3.986   0.793   4.909 -0.1237  0.3189 -0.3015
  928MOL0     C22396   4.052   0.874   5.000 -0.1040  0.5383 -0.0495
  928MOL0     C22397   3.995   0.996   5.044  0.3629 -0.0246 -0.4447
  928MOL0     C22398   3.858   1.018   5.024  0.2828 -0.0337  0.1598
  928MOL0     O22399   3.814   1.133   5.098 -0.1597 -0.1452  0.5144
  928MOL0     C22400   3.675   1.152   5.107 -0.4229  0.5468  0.8072
  928MOL0     C22401   3.660   1.246   5.219 -0.0285  0.2939  0.1092
  928MOL0     C22402   3.515   1.287   5.247  0.0158  0.2571  0.2849
  928MOL0     C22403   3.490   1.426   5.308 -0.0611 -0.6434  0.7300
  928MOL0     C22404   3.362   1.437   5.386 -0.1812  0.5016 -1.2527
  928MOL0     C22405   3.375   1.426   5.533  0.1084 -0.2874 -0.3019
  928MOL0     C22406   3.240   1.459   5.606 -0.0327  0.1370  0.1456
  928MOL0     C22407   3.269   1.432   5.764 -0.7801  0.3113  0.2050
  928MOL0    Cl22408   3.306   1.258   5.812 -0.2873  0.5534  0.4010
  928MOL0     C22409   3.784   0.936   4.933 -0.1748 -0.4391  0.1769
  928MOL0     C22410   3.856   0.831   4.864 -1.3593  0.3220  0.9436
  928MOL0     O22411   4.076   0.759   4.653  0.5098  0.0196 -0.1863
  928MOL0     C22412   4.122   0.421   4.781 -1.4467 -0.7824  0.4211
  928MOL0     C22413   4.137   0.297   4.735  1.3312  0.4461 -0.3076
  928MOL0     N22414   3.653  -0.265   4.414 -0.6423 -0.1692  0.5871
  928MOL0     N22415   3.629  -0.343   4.514  0.0325  0.3884  1.0539
  928MOL0     C22416   3.342   0.633   5.250  0.3975  0.1959  0.0356
  928MOL0     C22417   3.334   0.763   5.208  0.0410 -0.7278  0.8880
  928MOL0     C22418   3.308   1.115   4.928  0.0158 -0.4592  0.4405
  928MOL0     C22419   3.224   1.174   5.026 -0.7173 -0.7688 -0.2088
  928MOL0     C22420   3.169   1.304   5.011  0.7519  0.9140  0.1983
  928MOL0     C22421   3.198   1.371   4.890  0.5823 -0.2305 -0.5386
  928MOL0     O22422   3.137   1.496   4.870 -0.3388 -0.3167 -0.1633
  928MOL0     C22423   3.050   1.548   4.971  0.2966  0.0964 -0.0941
  928MOL0     C22424   2.993   1.679   4.921 -0.3329  0.7650  0.5673
  928MOL0     C22425   2.891   1.670   4.802  0.0756 -0.1560 -0.0721
  928MOL0     C22426   2.813   1.799   4.799 -0.4630 -1.3585 -0.9341
  928MOL0     C22427   2.691   1.794   4.871 -0.2457 -0.5239 -1.1182
  928MOL0     C22428   2.589   1.797   4.926  0.8006  0.4632 -0.7556
  928MOL0     C22429   3.271   1.312   4.791  0.7487  0.0645  1.0592
  928MOL0     C22430   3.332   1.187   4.806  0.7591 -0.3485  0.7191
  928MOL0     H22431   3.537   0.750   4.941 -0.0185  1.0493  0.3162
  928MOL0     H22432   3.543   0.515   5.003 -1.1986  0.0191 -1.8780
  928MOL0     H22433   3.502   0.211   5.225 -0.7239  1.3291  1.0601
  928MOL0     H22434   3.566   0.332   5.116 -1.0191  0.9839 -1.9512
  928MOL0     H22435   3.390   0.324   4.970 -3.3468  0.4733  1.0251
  928MOL0     H22436   3.291   0.227   5.082 -0.3968  1.9024  0.2739
  928MOL0     H22437   3.538   0.096   5.034 -1.6663 -1.3956  1.1123
  928MOL0     H22438   3.495   0.152   4.877  1.1968 -1.0337  0.9874
  928MOL0     H22439   3.345  -0.040   5.036  0.2893 -2.4534 -1.1547
  928MOL0     H22440   3.265   0.058   4.906  1.1874 -0.9800 -2.5061
  928MOL0     H22441   3.425  -0.047   4.746  1.0003 -2.3901 -0.1472
  928MOL0     H22442   3.309  -0.151   4.812 -0.7981  1.5542 -0.9090
  928MOL0     H22443   3.477  -0.240   4.979  0.8141 -3.5738 -0.9043
  928MOL0     H22444   3.602  -0.154   4.902 -0.8105  1.2792  1.8897
  928MOL0     H22445   3.451  -0.403   4.853 -1.6568 -1.8658 -4.7771
  928MOL0     H22446   3.433  -0.312   4.717 -1.6469  0.4867  1.6271
  928MOL0     H22447   3.647  -0.462   4.732  0.6030 -0.8624  1.4159
  928MOL0     H22448   3.718  -0.335   4.826  1.7972 -0.3452 -2.9699
  928MOL0     H22449   3.777  -0.094   4.674  1.2340  1.1723 -2.0658
  928MOL0     H22450   3.713   0.076   4.435  1.8485  0.0812  2.7112
  928MOL0     H22451   3.694  -0.030   4.298 -0.4982  0.2654  0.3390
  928MOL0     H22452   3.923   0.045   4.273  1.8204  0.8252  0.8360
  928MOL0     H22453   3.932  -0.113   4.366 -1.5087 -0.6519 -0.5968
  928MOL0     H22454   3.934   0.166   4.492  3.9357  1.3220  1.4809
  928MOL0     H22455   3.952   0.014   4.577  0.7383 -1.7662 -0.6169
  928MOL0     H22456   4.142   0.108   4.367  0.4915 -1.5466  0.5652
  928MOL0     H22457   4.169  -0.035   4.460  2.2422 -0.1925  0.4751
  928MOL0     H22458   4.115   0.337   4.398  0.3765  2.0145 -0.5168
  928MOL0     H22459   4.135   0.568   4.472  0.2233 -1.3739 -1.1309
  928MOL0     H22460   4.153   0.844   5.025  0.3326 -0.0912 -2.2867
  928MOL0     H22461   4.031   1.058   5.124 -1.1666  0.3551 -0.0265
  928MOL0     H22462   3.628   1.056   5.131  1.0131 -0.2516  0.5410
  928MOL0     H22463   3.638   1.182   5.009  2.5311  1.3109 -0.1869
  928MOL0     H22464   3.708   1.342   5.197  2.0698 -0.4625  1.1565
  928MOL0     H22465   3.715   1.203   5.303  0.5483 -1.4736 -1.1311
  928MOL0     H22466   3.465   1.217   5.315 -1.3099  0.6975 -0.2100
  928MOL0     H22467   3.466   1.303   5.151 -0.6183 -4.1206 -0.3009
  928MOL0     H22468   3.566   1.446   5.384 -1.5937 -0.6407  2.3220
  928MOL0     H22469   3.493   1.507   5.234  0.1385  0.4556  1.8983
  928MOL0     H22470   3.289   1.363   5.350 -1.7635  1.0956  0.5461
  928MOL0     H22471   3.310   1.531   5.361  1.1945  1.3322 -1.0838
  928MOL0     H22472   3.444   1.506   5.564 -0.2040 -0.1047 -0.0714
  928MOL0     H22473   3.413   1.327   5.559 -0.1288 -0.3212 -0.0750
  928MOL0     H22474   3.198   1.558   5.585 -0.5179 -0.2451 -0.7556
  928MOL0     H22475   3.163   1.389   5.575 -1.1276  0.7943  1.3126
  928MOL0     H22476   3.173   1.462   5.808 -2.5022 -3.7762 -0.3111
  928MOL0     H22477   3.346   1.499   5.802 -1.5499  0.7558  1.0110
  928MOL0     H22478   3.689   0.966   4.891  0.3768 -1.2173 -1.7284
  928MOL0     H22479   3.816   0.761   4.791  1.5264  0.5891 -1.1005
  928MOL0     H22480   4.138   0.448   4.884  0.3405 -0.5150  0.1210
  928MOL0     H22481   4.138   0.211   4.802 -2.5515 -0.2703 -0.9540
  928MOL0     H22482   3.285   0.591   5.332 -0.9161  0.2649 -0.8035
  928MOL0     H22483   3.262   0.828   5.257 -0.4425 -1.3564  1.0392
  928MOL0     H22484   3.198   1.120   5.117  1.1092 -1.3913 -0.0105
  928MOL0     H22485   3.120   1.357   5.092  1.5469  2.2413 -0.1394
  928MOL0     H22486   3.114   1.570   5.056 -0.6657 -1.3992  1.0599
  928MOL0     H22487   2.972   1.476   4.997 -0.2354  0.5463 -0.3995
  928MOL0     H22488   2.935   1.720   5.005  0.0063 -1.2811  1.8760
  928MOL0     H22489   3.076   1.749   4.907  0.4353  1.9441  7.3649
  928MOL0     H22490   2.821   1.588   4.821 -2.0222  2.0304  2.5232
  928MOL0     H22491   2.932   1.652   4.702 -3.2416 -2.4391 -1.2262
  928MOL0     H22492   2.883   1.871   4.842  1.3415 -1.6943 -3.1626
  928MOL0     H22493   2.786   1.840   4.702 -1.9629 -0.8967 -0.3500
  928MOL0     H22494   2.497   1.801   4.980  0.9217 -5.0783  0.4601
  928MOL0     H22495   3.286   1.376   4.704 -2.4418  0.5913  0.7644
  928MOL0     H22496   3.391   1.139   4.728  0.3621  0.9186 -0.4120
  929MOL0     O22497   9.858  11.310   1.448 -0.7501 -0.6890  0.0456
  929MOL0     C22498   9.897  11.430   1.432 -0.4617  0.1065 -0.3930
  929MOL0     O22499   9.992  11.467   1.342 -0.2073 -0.9180  0.0500
  929MOL0     C22500  10.034  11.385   1.240  1.0079  0.6887 -0.0133
  929MOL0     C22501   9.958  11.279   1.179 -0.4038 -0.4298  1.1312
  929MOL0     C22502  10.024  11.200   1.078 -0.1859 -1.3929 -1.5409
  929MOL0     C22503  10.160  11.224   1.043  0.3760  0.3395 -1.3067
  929MOL0     O22504  10.237  11.140   0.954 -0.7737  0.0239 -0.2478
  929MOL0     C22505  10.216  11.000   0.969 -0.2586  0.2637 -0.1868
  929MOL0     C22506  10.320  10.936   0.875 -0.2390  0.8712 -1.0390
  929MOL0     C22507  10.276  10.945   0.724 -0.1746 -0.2939  0.0250
  929MOL0     C22508  10.324  10.832   0.636 -0.2551  0.2713 -0.7912
  929MOL0     C22509  10.289  10.832   0.487 -0.6337  0.5281 -0.5592
  929MOL0     C22510  10.346  10.960   0.415  0.1626  0.4082 -0.2339
  929MOL0     C22511  10.272  10.995   0.278  0.2944  0.1096 -0.2822
  929MOL0     C22512  10.140  11.065   0.306  0.0100  0.8262 -0.1728
  929MOL0     N22513  10.047  11.046   0.197 -0.5468 -0.4786  0.0280
  929MOL0     C22514  10.054  11.102   0.073  0.7654 -0.1877  0.1321
  929MOL0     C22515   9.956  11.043   0.004  0.6036 -0.1697  0.5507
  929MOL0     C22516   9.902  11.046  -0.132  0.5342  0.1208 -0.3086
  929MOL0     C22517   9.795  11.147  -0.152 -0.3376  0.6373 -0.0861
  929MOL0     C22518   9.653  11.110  -0.104 -0.3964  0.2409 -0.5147
  929MOL0     C22519   9.541  11.192  -0.180  0.2835 -0.3941  0.8121
  929MOL0     O22520   9.418  11.168  -0.105  0.1397 -0.1968  0.3952
  929MOL0     C22521   9.305  11.246  -0.138 -0.9763 -0.2892 -0.1754
  929MOL0     C22522   9.273  11.295  -0.266  0.6383  0.4377 -0.4171
  929MOL0     C22523   9.153  11.363  -0.287  0.0064 -0.9101 -0.2706
  929MOL0     C22524   9.059  11.376  -0.177  0.5284  0.4689 -0.4122
  929MOL0     C22525   8.923  11.443  -0.192  0.4120 -0.0601 -0.1967
  929MOL0     O22526   8.843  11.449  -0.078  0.0072 -0.5509 -0.8558
  929MOL0     C22527   8.714  11.504  -0.088 -1.0645  0.7865  0.0473
  929MOL0     C22528   8.612  11.424  -0.125 -0.0832 -0.6527 -0.5091
  929MOL0     C22529   8.481  11.472  -0.137  0.0253  0.9759  0.2962
  929MOL0     C22530   8.450  11.608  -0.106 -0.8410  0.1233 -0.0932
  929MOL0     O22531   8.337  11.678  -0.119  0.8162 -0.5276 -0.6506
  929MOL0     C22532   8.293  11.697  -0.257 -0.3363  0.9139 -0.5210
  929MOL0     C22533   8.150  11.754  -0.289  0.1327  0.9070 -0.7890
  929MOL0     C22534   8.045  11.656  -0.235  0.5160 -0.1003 -0.2444
  929MOL0     C22535   7.901  11.694  -0.283 -0.3905 -0.2802 -0.1423
  929MOL0     C22536   7.821  11.757  -0.163  0.3812 -0.2189 -0.5508
  929MOL0     C22537   7.878  11.895  -0.110  1.0752 -0.5405  0.1430
  929MOL0     C22538   7.752  11.959  -0.033  0.6672  0.3696  0.1092
  929MOL0     C22539   7.785  12.096   0.043  0.1229 -0.1229 -0.6810
  929MOL0    Cl22540   7.845  12.208  -0.083 -0.4418  0.5548 -0.2757
  929MOL0     C22541   8.560  11.683  -0.055 -0.2650 -0.5228  0.5164
  929MOL0     C22542   8.690  11.635  -0.056  0.0681 -0.2618 -0.0965
  929MOL0     O22543   8.889  11.485  -0.305 -0.0168  0.4613  0.3151
  929MOL0     C22544   9.093  11.339  -0.052  0.0360 -0.2958  0.5678
  929MOL0     C22545   9.213  11.269  -0.043  0.0252  1.1173  0.1595
  929MOL0     N22546   9.883  10.959   0.088 -0.3278 -1.0606  0.5075
  929MOL0     N22547   9.948  10.954   0.197  0.3455 -0.5478 -0.1905
  929MOL0     C22548  10.224  11.328   1.108  0.0519 -0.5026  0.0609
  929MOL0     C22549  10.167  11.405   1.205 -0.1416  1.7025 -0.1121
  929MOL0     C22550   9.863  11.545   1.510 -1.3714  0.6629  0.2263
  929MOL0     C22551   9.941  11.668   1.501  0.7228  0.5203 -1.5311
  929MOL0     C22552   9.881  11.779   1.570  0.3356 -0.3819 -0.4608
  929MOL0     C22553   9.755  11.766   1.637 -0.1040 -1.2617  0.3253
  929MOL0     O22554   9.700  11.882   1.704 -0.0528 -0.8218  1.5105
  929MOL0     C22555   9.709  11.882   1.843 -0.2434 -0.3140  0.7738
  929MOL0     C22556   9.842  11.949   1.883 -0.9723 -0.0451 -0.3730
  929MOL0     C22557   9.871  11.932   2.027 -0.1268 -0.2644 -0.1200
  929MOL0     C22558   9.973  12.036   2.078 -0.5528 -0.2548 -0.2662
  929MOL0     C22559  10.111  12.005   2.048  0.0100  0.8336 -0.0651
  929MOL0     C22560  10.221  11.985   2.003  0.5546 -0.1268 -0.0989
  929MOL0     C22561   9.692  11.649   1.641 -0.4384 -0.0656  0.0234
  929MOL0     C22562   9.737  11.538   1.572  0.6498 -0.0968 -0.1301
  929MOL0     H22563   9.854  11.253   1.194 -1.3852  0.6743 -2.6688
  929MOL0     H22564   9.978  11.122   1.018 -0.1128 -1.8215 -1.0406
  929MOL0     H22565  10.114  10.970   0.943 -0.0452 -0.0638 -0.6608
  929MOL0     H22566  10.243  10.975   1.072  0.9608  1.3261 -0.2245
  929MOL0     H22567  10.323  10.829   0.900 -1.0104  1.5071  2.2676
  929MOL0     H22568  10.424  10.967   0.885 -0.7482  1.9079  2.1240
  929MOL0     H22569  10.305  11.046   0.694  1.1599 -0.1179  1.7578
  929MOL0     H22570  10.167  10.936   0.720 -0.0427 -2.5546 -0.0829
  929MOL0     H22571  10.430  10.815   0.656 -0.6558  0.4005  1.9100
  929MOL0     H22572  10.280  10.741   0.680 -3.2082  2.5719  1.4719
  929MOL0     H22573  10.180  10.825   0.489 -0.5822 -3.4107  3.5266
  929MOL0     H22574  10.323  10.741   0.437  0.6451 -0.6387  2.2356
  929MOL0     H22575  10.453  10.944   0.400  0.0561 -0.8317  0.2666
  929MOL0     H22576  10.345  11.050   0.477  0.6705 -0.0365  0.4328
  929MOL0     H22577  10.329  11.067   0.220  0.2520 -1.4213 -2.3497
  929MOL0     H22578  10.269  10.894   0.235  1.2525 -0.3357  0.6561
  929MOL0     H22579  10.160  11.172   0.312  4.2397  0.5706 -4.0799
  929MOL0     H22580  10.106  11.020   0.400 -0.3128  2.6046  0.6062
  929MOL0     H22581  10.128  11.166   0.026  0.8550 -1.2103 -1.1681
  929MOL0     H22582   9.867  10.946  -0.162  1.9133 -0.7375  0.7994
  929MOL0     H22583   9.995  11.068  -0.185  0.2507  0.3071 -0.7320
  929MOL0     H22584   9.787  11.163  -0.259  1.7948  2.6531 -0.0119
  929MOL0     H22585   9.821  11.242  -0.104  1.5044  0.6150 -0.9387
  929MOL0     H22586   9.638  11.002  -0.108 -0.5475  0.2803 -4.5508
  929MOL0     H22587   9.646  11.147  -0.001  2.1145 -0.6472  0.0274
  929MOL0     H22588   9.527  11.164  -0.284 -1.0740  2.1849  0.2288
  929MOL0     H22589   9.564  11.298  -0.190  5.0079 -1.2999 -0.4701
  929MOL0     H22590   9.349  11.285  -0.343  1.5520  3.6983 -0.0880
  929MOL0     H22591   9.122  11.400  -0.384 -2.8613 -1.2444  0.4346
  929MOL0     H22592   8.638  11.320  -0.143  1.7606 -0.0771 -1.4795
  929MOL0     H22593   8.415  11.410  -0.196  3.1360 -1.3022 -1.0995
  929MOL0     H22594   8.291  11.598  -0.304 -0.0223 -0.1359  1.5499
  929MOL0     H22595   8.375  11.748  -0.309  0.8777 -0.0605  0.3449
  929MOL0     H22596   8.138  11.743  -0.397  0.0555 -1.3976 -0.5991
  929MOL0     H22597   8.135  11.856  -0.253  1.1551  0.8435 -0.1240
  929MOL0     H22598   8.056  11.654  -0.126  2.6822 -0.0701 -0.4111
  929MOL0     H22599   8.072  11.558  -0.276 -0.5798 -1.4088  1.9683
  929MOL0     H22600   7.921  11.769  -0.360  0.4740 -1.3743 -1.0214
  929MOL0     H22601   7.863  11.602  -0.328  3.2095 -2.7813  1.4603
  929MOL0     H22602   7.825  11.689  -0.078  0.3605  0.0440 -0.3367
  929MOL0     H22603   7.715  11.772  -0.184  0.3146  1.1560  0.6387
  929MOL0     H22604   7.920  11.953  -0.192  1.6183  0.5092  1.1287
  929MOL0     H22605   7.951  11.876  -0.031  1.9259 -0.6965 -0.6754
  929MOL0     H22606   7.669  11.980  -0.101 -0.2915  2.8992  1.8885
  929MOL0     H22607   7.726  11.890   0.048 -0.0318 -0.9036 -1.1729
  929MOL0     H22608   7.858  12.084   0.124 -1.1356 -1.0417  0.3618
  929MOL0     H22609   7.697  12.134   0.095  1.6335  0.1223  1.8574
  929MOL0     H22610   8.550  11.790  -0.041 -0.3086  0.5746 -5.3664
  929MOL0     H22611   8.783  11.688  -0.037  0.7246 -1.8025  1.2053
  929MOL0     H22612   9.025  11.356   0.030 -2.8138  0.5354 -1.7803
  929MOL0     H22613   9.245  11.220   0.048 -2.2863 -0.0588  0.4340
  929MOL0     H22614  10.326  11.339   1.072  0.5619  1.4268  1.8828
  929MOL0     H22615  10.227  11.488   1.239  0.0222  1.6859 -0.3655
  929MOL0     H22616  10.039  11.680   1.457  1.8891  0.8738  0.9935
  929MOL0     H22617   9.919  11.880   1.556 -2.8151  0.9287 -0.4551
  929MOL0     H22618   9.703  11.777   1.875 -2.1140 -0.5401 -0.1677
  929MOL0     H22619   9.621  11.937   1.877  0.8375  1.5405  0.7334
  929MOL0     H22620   9.927  11.927   1.818 -0.7351  1.9989 -0.8381
  929MOL0     H22621   9.819  12.053   1.858  0.7137  0.9852  1.9330
  929MOL0     H22622   9.905  11.833   2.055 -0.6684  0.2103  2.4725
  929MOL0     H22623   9.780  11.964   2.079  0.0789 -0.0650  0.1221
  929MOL0     H22624   9.964  12.134   2.029  1.8910  0.9194  1.3934
  929MOL0     H22625   9.959  12.054   2.186  0.5123  2.0089 -0.4371
  929MOL0     H22626  10.315  11.957   1.959  0.8402 -1.8805  1.4951
  929MOL0     H22627   9.595  11.651   1.690 -1.9215 -2.6226 -2.5015
  929MOL0     H22628   9.685  11.444   1.590 -1.6711  1.2607  0.7999
  930MOL0     O22629   8.582   3.564   5.173 -0.2646  0.1475 -0.6608
  930MOL0     C22630   8.645   3.459   5.149  0.6892 -0.0529 -0.9380
  930MOL0     O22631   8.779   3.445   5.122 -1.1358  0.1464  0.2988
  930MOL0     C22632   8.835   3.556   5.055 -0.5608  0.1826 -0.2525
  930MOL0     C22633   8.766   3.650   4.971 -0.6265  0.3355 -0.6157
  930MOL0     C22634   8.841   3.762   4.918 -0.2102 -0.3072 -0.4695
  930MOL0     C22635   8.984   3.761   4.922 -0.3778  0.1663 -0.1095
  930MOL0     O22636   9.047   3.853   4.848  0.0632 -0.5924 -0.4579
  930MOL0     C22637   8.999   3.889   4.721 -0.3005  0.9008  0.1613
  930MOL0     C22638   9.106   3.855   4.610 -0.1895  0.2159 -1.0561
  930MOL0     C22639   9.211   3.967   4.598  0.7410  0.2160 -0.8305
  930MOL0     C22640   9.328   3.966   4.696  0.9264  0.1672 -0.0933
  930MOL0     C22641   9.419   4.086   4.649 -0.0722 -0.7311  0.1585
  930MOL0     C22642   9.507   4.035   4.529  0.1946 -0.4908  1.1542
  930MOL0     C22643   9.591   4.154   4.485  0.1513 -0.2716  0.6305
  930MOL0     C22644   9.683   4.141   4.369  0.4103 -0.3055 -0.0349
  930MOL0     N22645   9.627   4.098   4.241 -0.0908  0.6946  0.0077
  930MOL0     C22646   9.499   4.090   4.205  0.4330  0.2457  0.3163
  930MOL0     C22647   9.498   4.041   4.083 -0.2740 -0.2194  0.2625
  930MOL0     C22648   9.376   4.030   4.002  0.1866  0.2367  0.1329
  930MOL0     C22649   9.319   3.889   4.031  0.1144  0.2448  0.5762
  930MOL0     C22650   9.392   3.770   3.956 -0.3931 -0.4266 -0.4313
  930MOL0     C22651   9.341   3.643   4.017  0.5837 -0.1467  0.3846
  930MOL0     O22652   9.208   3.620   3.969 -0.3528  0.3530 -0.0058
  930MOL0     C22653   9.113   3.564   4.050 -0.9253  0.2912  0.6433
  930MOL0     C22654   9.133   3.493   4.160 -0.1567  0.3970 -1.0387
  930MOL0     C22655   9.029   3.441   4.230  0.2969  0.7527  0.1524
  930MOL0     C22656   8.899   3.440   4.184  0.2203 -0.5282  0.0305
  930MOL0     C22657   8.784   3.362   4.262  1.6301  0.4874  0.1030
  930MOL0     O22658   8.666   3.370   4.206  0.2813  0.0549 -0.0866
  930MOL0     C22659   8.549   3.313   4.248 -1.0843  0.5942 -0.7406
  930MOL0     C22660   8.438   3.379   4.218  0.0954 -0.3567 -0.1020
  930MOL0     C22661   8.313   3.358   4.283  0.1924 -0.0574  0.5511
  930MOL0     C22662   8.300   3.261   4.374 -0.0509 -0.6560 -1.2431
  930MOL0     O22663   8.175   3.241   4.435  0.5643  0.3686 -0.8082
  930MOL0     C22664   8.122   3.115   4.402  0.8957 -0.0327 -0.4574
  930MOL0     C22665   7.967   3.104   4.423  0.4490  0.1909  0.2121
  930MOL0     C22666   7.917   2.976   4.367  0.4261 -0.3966  0.1503
  930MOL0     C22667   7.930   2.965   4.211  0.4603 -0.6834  0.5093
  930MOL0     C22668   7.813   2.877   4.154 -0.3128  0.6942  0.4151
  930MOL0     C22669   7.848   2.833   4.011 -0.7059 -0.2469  0.0853
  930MOL0     C22670   7.874   2.942   3.897  0.2333  0.3777 -0.4573
  930MOL0     C22671   7.859   2.889   3.751  0.9968 -0.4216  0.4073
  930MOL0    Cl22672   7.981   2.767   3.704  0.1477 -0.2082  0.0885
  930MOL0     C22673   8.413   3.175   4.402 -0.6560 -1.8556  0.6844
  930MOL0     C22674   8.538   3.207   4.337  1.1469 -0.4429 -0.1689
  930MOL0     O22675   8.810   3.301   4.362 -0.3872  0.5964  0.6764
  930MOL0     C22676   8.863   3.520   4.070 -0.6877 -0.2142 -0.2912
  930MOL0     C22677   8.976   3.583   4.011 -0.2035  0.7786  0.7050
  930MOL0     N22678   9.626   4.017   4.039 -0.2024 -0.0013  0.2421
  930MOL0     N22679   9.705   4.050   4.143  0.2386  0.1988 -0.9722
  930MOL0     C22680   9.049   3.674   5.007 -0.5652 -0.1418 -0.0216
  930MOL0     C22681   8.979   3.576   5.077  0.5929 -0.1512 -0.4789
  930MOL0     C22682   8.561   3.339   5.151  0.6775 -0.8634 -0.3802
  930MOL0     C22683   8.422   3.347   5.183 -1.0686 -0.8034 -0.2070
  930MOL0     C22684   8.342   3.227   5.186 -0.0422  0.0144 -0.7238
  930MOL0     C22685   8.409   3.101   5.168  0.0896  0.0789  0.5708
  930MOL0     O22686   8.352   2.978   5.188  1.1755 -0.9111  0.0761
  930MOL0     C22687   8.211   2.969   5.223 -0.4382 -0.0100  0.2572
  930MOL0     C22688   8.164   2.837   5.283 -0.1729  0.3529  0.2412
  930MOL0     C22689   8.015   2.859   5.313 -1.1683  0.8202  0.4346
  930MOL0     C22690   7.940   2.729   5.358  0.5771  0.0793 -0.0166
  930MOL0     C22691   8.039   2.644   5.429 -0.1893  0.0257  1.0493
  930MOL0     C22692   8.127   2.581   5.481  0.2034  0.0867 -1.0732
  930MOL0     C22693   8.544   3.089   5.156 -0.4113  0.4364 -0.1482
  930MOL0     C22694   8.624   3.213   5.156  0.4239  0.1182  0.5700
  930MOL0     H22695   8.661   3.637   4.947 -0.4235 -1.8660 -0.4641
  930MOL0     H22696   8.789   3.832   4.853  4.2280  1.8200 -2.1197
  930MOL0     H22697   8.973   3.995   4.715  3.1540  1.9742  1.4527
  930MOL0     H22698   8.911   3.830   4.697  1.0154 -0.4689 -1.5311
  930MOL0     H22699   9.055   3.850   4.513 -3.1208 -2.3191  0.4269
  930MOL0     H22700   9.141   3.752   4.625 -4.6301 -1.2589  1.2386
  930MOL0     H22701   9.164   4.065   4.600  0.8264  0.2563 -0.7949
  930MOL0     H22702   9.244   3.952   4.495  2.5230 -0.2444 -0.2271
  930MOL0     H22703   9.290   3.990   4.795  2.5608 -1.3840  0.9780
  930MOL0     H22704   9.373   3.866   4.695  1.5054  0.3935  1.4277
  930MOL0     H22705   9.472   4.123   4.737 -1.0763  0.3732  0.3252
  930MOL0     H22706   9.350   4.167   4.624  1.1436  0.4396  0.5099
  930MOL0     H22707   9.442   4.004   4.446 -2.3059  0.0099  2.8165
  930MOL0     H22708   9.570   3.949   4.555 -0.1133 -1.6690 -1.6153
  930MOL0     H22709   9.525   4.237   4.457  0.3345 -0.8027 -1.5354
  930MOL0     H22710   9.660   4.184   4.564  2.0781  1.0979 -1.4392
  930MOL0     H22711   9.765   4.072   4.388  2.4349  1.0240 -3.1313
  930MOL0     H22712   9.729   4.234   4.333  0.4504 -1.0126 -1.9416
  930MOL0     H22713   9.409   4.132   4.249 -1.9954  0.1119 -3.9297
  930MOL0     H22714   9.393   4.048   3.896  5.6049 -0.6991  0.5661
  930MOL0     H22715   9.305   4.103   4.043  1.8900  1.8892  0.2825
  930MOL0     H22716   9.218   3.885   3.989  0.5935 -0.0018 -0.5832
  930MOL0     H22717   9.316   3.863   4.137  0.2859 -1.7268  0.1429
  930MOL0     H22718   9.378   3.768   3.847 -2.8011  0.7310 -0.2238
  930MOL0     H22719   9.498   3.772   3.981 -0.7681 -0.2943  1.2457
  930MOL0     H22720   9.342   3.649   4.127 -3.0301 -0.5814  0.5690
  930MOL0     H22721   9.401   3.558   3.985 -0.7751 -0.2383 -2.1930
  930MOL0     H22722   9.235   3.472   4.192 -0.9169 -1.7462  0.2016
  930MOL0     H22723   9.057   3.406   4.328  2.2050 -0.7793 -0.8608
  930MOL0     H22724   8.449   3.473   4.164  3.5920 -0.1607  0.7379
  930MOL0     H22725   8.232   3.424   4.254 -0.9187 -1.0158  1.3853
  930MOL0     H22726   8.162   3.029   4.456 -0.3789 -1.3791 -1.5783
  930MOL0     H22727   8.136   3.097   4.295  3.5321  1.0387 -0.3613
  930MOL0     H22728   7.930   3.190   4.367  3.5377  0.8286 -1.0681
  930MOL0     H22729   7.929   3.105   4.525  0.8409 -0.4648  0.3677
  930MOL0     H22730   7.817   2.949   4.401  0.2520 -0.3626 -0.3357
  930MOL0     H22731   7.982   2.903   4.416  0.4638 -1.5325 -1.5108
  930MOL0     H22732   7.939   3.065   4.167  1.8908 -0.9386  0.1867
  930MOL0     H22733   8.028   2.920   4.194  1.7363  2.8178 -2.7292
  930MOL0     H22734   7.715   2.926   4.148 -2.4914 -3.3588 -2.4422
  930MOL0     H22735   7.817   2.784   4.211 -0.5331  1.7355  2.2080
  930MOL0     H22736   7.766   2.768   3.979 -1.8161 -1.5854  4.8844
  930MOL0     H22737   7.937   2.769   4.020  0.2740  1.1599  0.9029
  930MOL0     H22738   7.802   3.023   3.910  2.0881  1.7329  2.1113
  930MOL0     H22739   7.970   2.992   3.914  1.5646 -2.0066 -0.4719
  930MOL0     H22740   7.880   2.977   3.689 -2.6152  0.7316  0.5994
  930MOL0     H22741   7.758   2.860   3.722  1.6861 -0.2348 -2.4160
  930MOL0     H22742   8.397   3.096   4.474  1.1762 -0.3675  2.8671
  930MOL0     H22743   8.633   3.157   4.359  2.8736  2.8280  0.3748
  930MOL0     H22744   8.760   3.531   4.040 -0.0537  1.1286 -2.1046
  930MOL0     H22745   8.967   3.642   3.920 -1.2362 -1.9810 -1.1425
  930MOL0     H22746   9.158   3.678   5.011 -0.3232 -3.6644  0.1434
  930MOL0     H22747   9.036   3.517   5.148 -0.0714 -1.6807 -1.1570
  930MOL0     H22748   8.384   3.448   5.200  2.2706  0.0458  3.9659
  930MOL0     H22749   8.235   3.221   5.202 -0.0663 -1.0524 -1.1665
  930MOL0     H22750   8.153   3.011   5.140 -1.0419  2.8689  1.9984
  930MOL0     H22751   8.196   3.031   5.312  0.5317 -2.8044  2.5201
  930MOL0     H22752   8.186   2.746   5.227 -0.6449 -1.6147  3.0677
  930MOL0     H22753   8.215   2.838   5.380 -1.4985  3.4031  1.0279
  930MOL0     H22754   7.961   2.883   5.221 -1.5608 -2.0044 -0.1558
  930MOL0     H22755   8.002   2.938   5.387  0.6733 -0.4004  2.1524
  930MOL0     H22756   7.858   2.755   5.425 -0.2613  1.9990 -1.6797
  930MOL0     H22757   7.902   2.680   5.268  0.1589  0.7220 -0.1999
  930MOL0     H22758   8.188   2.517   5.541 -1.3574  3.4051  4.9260
  930MOL0     H22759   8.579   2.988   5.141  1.0330  0.7775  0.7375
  930MOL0     H22760   8.732   3.211   5.153  0.5190 -1.8469  2.7316
  931MOL0     O22761   6.596  11.141   8.956 -0.3582  0.5462  1.0236
  931MOL0     C22762   6.618  11.225   9.044 -0.6274 -0.2912  0.3607
  931MOL0     O22763   6.570  11.354   9.049  0.1404  0.0680 -1.1337
  931MOL0     C22764   6.488  11.390   8.948  0.5047 -0.8326 -0.1475
  931MOL0     C22765   6.523  11.498   8.870  0.1922 -0.3110  0.4066
  931MOL0     C22766   6.431  11.527   8.757 -0.9654 -0.4671 -1.8213
  931MOL0     C22767   6.301  11.476   8.755  0.5210 -0.7345 -0.4535
  931MOL0     O22768   6.208  11.526   8.660 -0.7583  0.2581 -0.4736
  931MOL0     C22769   6.125  11.619   8.726  0.0926  0.6241 -0.0650
  931MOL0     C22770   6.095  11.743   8.646 -0.0987  0.1421  0.1164
  931MOL0     C22771   5.994  11.827   8.718 -0.6462  0.1111  0.2698
  931MOL0     C22772   5.981  11.958   8.631  0.0594 -0.2073 -0.6217
  931MOL0     C22773   5.874  12.039   8.716  0.3753 -0.9986  0.1850
  931MOL0     C22774   5.849  12.171   8.651  0.6818  0.3547  0.7960
  931MOL0     C22775   5.756  12.269   8.738  0.1791 -0.1217  1.0858
  931MOL0     C22776   5.692  12.376   8.647  1.1088  0.0458  0.4118
  931MOL0     N22777   5.778  12.444   8.551 -0.5917 -0.8062  0.5591
  931MOL0     C22778   5.819  12.411   8.424 -0.0683 -0.0364 -0.0041
  931MOL0     C22779   5.885  12.514   8.373 -0.8925  0.3487 -0.2588
  931MOL0     C22780   5.977  12.511   8.251  0.4600  0.0653  0.9292
  931MOL0     C22781   6.091  12.416   8.284  0.4711 -1.4888 -1.0527
  931MOL0     C22782   6.174  12.391   8.156 -0.9926 -0.4614 -0.3205
  931MOL0     C22783   6.290  12.293   8.186 -0.4251 -0.5463  0.4981
  931MOL0     O22784   6.223  12.175   8.220  0.2875  0.9193 -0.1537
  931MOL0     C22785   6.270  12.114   8.334  0.8833 -0.4895 -0.0176
  931MOL0     C22786   6.335  11.990   8.326 -0.0199 -0.2408  0.6760
  931MOL0     C22787   6.407  11.932   8.429  0.8779  0.3793 -0.0159
  931MOL0     C22788   6.402  11.996   8.557  1.0654 -0.3635  0.6622
  931MOL0     C22789   6.470  11.938   8.666  0.5757 -0.1741  0.2577
  931MOL0     O22790   6.457  12.002   8.786 -0.2785  0.0759 -0.5118
  931MOL0     C22791   6.502  11.935   8.894  0.6159 -0.3824  0.3084
  931MOL0     C22792   6.632  11.928   8.949  0.2694 -1.1869 -0.7226
  931MOL0     C22793   6.663  11.841   9.051  0.0377  0.1700 -0.0898
  931MOL0     C22794   6.571  11.762   9.112 -0.0513 -0.4821 -0.1110
  931MOL0     O22795   6.619  11.672   9.199  0.4893  0.3520  0.0738
  931MOL0     C22796   6.557  11.686   9.330  0.3075 -0.5124 -0.4490
  931MOL0     C22797   6.611  11.594   9.440 -0.3128 -0.8630  0.1896
  931MOL0     C22798   6.756  11.621   9.483 -0.2156  0.3948  0.2874
  931MOL0     C22799   6.792  11.530   9.597 -0.5081  0.3265  0.5103
  931MOL0     C22800   6.941  11.544   9.639  0.4775  0.2633 -0.5078
  931MOL0     C22801   6.981  11.447   9.754  0.4657 -0.2370  0.6021
  931MOL0     C22802   6.953  11.302   9.716  0.4701 -0.6987 -0.0767
  931MOL0     C22803   7.019  11.202   9.813  1.1084 -0.7294 -0.1286
  931MOL0    Cl22804   6.952  11.044   9.783  0.3419 -0.0618  0.0246
  931MOL0     C22805   6.444  11.776   9.061  0.7330 -0.6762 -0.1139
  931MOL0     C22806   6.407  11.858   8.945 -1.0957 -0.2691 -0.2867
  931MOL0     O22807   6.541  11.842   8.645  0.7700 -0.7208  0.0783
  931MOL0     C22808   6.323  12.119   8.566  0.3095 -0.0657  0.2380
  931MOL0     C22809   6.256  12.177   8.462  1.0435 -0.2523  0.0092
  931MOL0     N22810   5.885  12.620   8.459 -0.4408  0.0632 -0.2176
  931MOL0     N22811   5.818  12.581   8.559  0.4914 -0.4363 -0.7471
  931MOL0     C22812   6.273  11.375   8.852  1.1272 -0.2811  0.6783
  931MOL0     C22813   6.366  11.325   8.938 -0.1097  0.2862 -0.1599
  931MOL0     C22814   6.705  11.172   9.158  0.5681 -0.0690 -0.3322
  931MOL0     C22815   6.705  11.243   9.282 -0.3747  0.6294  0.1291
  931MOL0     C22816   6.777  11.184   9.390 -1.0725  0.0341  0.5812
  931MOL0     C22817   6.843  11.063   9.382  0.0271  0.2979  0.0050
  931MOL0     O22818   6.896  11.007   9.497 -1.1508 -0.3328 -0.8454
  931MOL0     C22819   6.995  10.906   9.491  0.1261  1.2513  0.1515
  931MOL0     C22820   7.124  10.956   9.431 -0.6337 -0.2630  0.3264
  931MOL0     C22821   7.186  11.081   9.514  1.2374  0.3301  0.7149
  931MOL0     C22822   7.321  11.105   9.451 -0.2506 -0.5975 -0.1306
  931MOL0     C22823   7.412  11.015   9.509 -0.0405 -0.1089 -0.6639
  931MOL0     C22824   7.490  10.927   9.542  0.1609 -0.1541  0.1231
  931MOL0     C22825   6.838  10.993   9.255  0.1409  0.1832  0.3002
  931MOL0     C22826   6.769  11.049   9.143  0.1308 -0.3323  0.9324
  931MOL0     H22827   6.614  11.558   8.874 -1.0435  1.5915  3.3110
  931MOL0     H22828   6.452  11.597   8.677 -1.2039  0.2749 -1.2427
  931MOL0     H22829   6.154  11.642   8.829 -0.5770 -0.8485  0.4732
  931MOL0     H22830   6.028  11.575   8.749 -0.7664  3.4070  2.1307
  931MOL0     H22831   6.050  11.705   8.553 -3.7638  1.8235  1.0341
  931MOL0     H22832   6.189  11.796   8.629  0.0842  0.4887  2.0160
  931MOL0     H22833   6.026  11.849   8.820 -3.9587 -0.7878  1.6334
  931MOL0     H22834   5.902  11.769   8.720 -0.0061 -0.9997 -0.8599
  931MOL0     H22835   6.082  11.999   8.624  1.0704 -2.2806  0.6821
  931MOL0     H22836   5.945  11.928   8.532  0.4084 -1.0718 -0.4967
  931MOL0     H22837   5.908  12.054   8.818 -0.4407 -1.1492  0.4901
  931MOL0     H22838   5.781  11.982   8.730  1.4437 -2.5914  1.0858
  931MOL0     H22839   5.794  12.151   8.559 -2.2732 -0.7380  2.6704
  931MOL0     H22840   5.942  12.222   8.623  0.4413 -0.8414 -2.6609
  931MOL0     H22841   5.676  12.216   8.791 -0.9785 -1.3487 -1.6594
  931MOL0     H22842   5.827  12.318   8.805  1.9092  0.9015 -1.3403
  931MOL0     H22843   5.643  12.444   8.716 -3.5442 -2.0756 -0.3750
  931MOL0     H22844   5.602  12.345   8.593 -1.8584  3.5035  2.8897
  931MOL0     H22845   5.823  12.314   8.377  5.5389  0.4001 -1.1441
  931MOL0     H22846   6.015  12.612   8.232  4.5297 -1.3342  0.8713
  931MOL0     H22847   5.928  12.479   8.158 -0.4706  0.0747  1.4034
  931MOL0     H22848   6.031  12.330   8.317 -3.7603  2.9961  5.4197
  931MOL0     H22849   6.152  12.444   8.371  0.2748  1.8234 -1.8534
  931MOL0     H22850   6.102  12.351   8.084 -2.4691  0.9983  0.2869
  931MOL0     H22851   6.212  12.482   8.107 -1.4334 -0.0612  0.0781
  931MOL0     H22852   6.348  12.342   8.265  0.9839  1.8254 -1.8373
  931MOL0     H22853   6.341  12.289   8.090 -4.1055 -0.1090 -1.6837
  931MOL0     H22854   6.345  11.930   8.237  0.7827  0.0142  0.5848
  931MOL0     H22855   6.447  11.832   8.430 -0.0222 -0.0257  2.2571
  931MOL0     H22856   6.716  11.985   8.909  2.2325 -2.3384  1.5369
  931MOL0     H22857   6.769  11.828   9.072  1.1003  3.0373 -2.8690
  931MOL0     H22858   6.448  11.677   9.327  0.4631 -2.6230 -1.5846
  931MOL0     H22859   6.563  11.793   9.352 -0.9185  0.4283 -3.9757
  931MOL0     H22860   6.594  11.488   9.419  1.1934 -1.5003  1.9436
  931MOL0     H22861   6.544  11.609   9.525 -3.7342 -1.8276 -2.1136
  931MOL0     H22862   6.776  11.723   9.518  0.9153  0.0234  0.7751
  931MOL0     H22863   6.810  11.605   9.390 -2.4644  1.4877 -1.2824
  931MOL0     H22864   6.731  11.561   9.682  1.1358 -1.8593  2.6308
  931MOL0     H22865   6.773  11.424   9.577  2.2796 -0.2470  0.4952
  931MOL0     H22866   6.959  11.645   9.677 -1.5264  1.0340 -1.4787
  931MOL0     H22867   7.004  11.531   9.551  1.0544  4.2972 -0.8650
  931MOL0     H22868   6.932  11.461   9.851  1.0991  0.1893  0.8739
  931MOL0     H22869   7.091  11.450   9.759  0.5761 -0.6804 -0.9476
  931MOL0     H22870   6.847  11.278   9.729  0.5648  0.0734  2.8029
  931MOL0     H22871   6.985  11.289   9.612  1.4045  0.6747  0.0058
  931MOL0     H22872   6.993  11.225   9.917 -2.8703 -0.5623 -1.0053
  931MOL0     H22873   7.128  11.207   9.809  1.0054  2.0302 -2.9109
  931MOL0     H22874   6.369  11.723   9.119  2.4751 -0.9170  2.0716
  931MOL0     H22875   6.305  11.844   8.912 -0.8667 -0.8115 -0.7789
  931MOL0     H22876   6.313  12.173   8.659 -0.0577 -0.4325  0.4141
  931MOL0     H22877   6.186  12.257   8.484  3.4630  1.4326  2.1985
  931MOL0     H22878   6.176  11.327   8.846  0.4848  1.1660 -1.2763
  931MOL0     H22879   6.342  11.250   9.013 -1.1760 -0.7183 -1.4644
  931MOL0     H22880   6.655  11.338   9.299 -3.6497 -0.9021 -0.1640
  931MOL0     H22881   6.777  11.238   9.484  0.5213  1.8768 -0.4017
  931MOL0     H22882   6.957  10.824   9.429  1.5494  2.7575 -2.8996
  931MOL0     H22883   7.012  10.881   9.596  0.0607  2.5431  0.4831
  931MOL0     H22884   7.203  10.880   9.424  2.3428  2.5930  0.5257
  931MOL0     H22885   7.107  11.001   9.333 -0.0285 -0.2202  0.2340
  931MOL0     H22886   7.191  11.069   9.623 -0.1398 -2.5063  0.5604
  931MOL0     H22887   7.123  11.165   9.485  0.3919 -1.4325 -3.1931
  931MOL0     H22888   7.322  11.098   9.341  3.4834  0.7694 -0.3258
  931MOL0     H22889   7.350  11.206   9.479 -2.0540  0.6236 -2.3502
  931MOL0     H22890   7.564  10.859   9.578  0.4315  1.6346  3.4062
  931MOL0     H22891   6.883  10.894   9.251 -1.1524 -0.5241  1.8955
  931MOL0     H22892   6.762  10.990   9.052  0.6102 -0.8040  1.1952
  932MOL0     O22893   4.057   3.798  10.883  0.0058 -1.0859  0.0221
  932MOL0     C22894   3.970   3.732  10.828 -0.0012  0.9649 -1.1275
  932MOL0     O22895   3.853   3.698  10.878  0.1957 -0.1066 -0.4750
  932MOL0     C22896   3.830   3.704  11.009 -0.5681  0.0844  0.4022
  932MOL0     C22897   3.935   3.689  11.104 -0.0292  0.0452 -0.5982
  932MOL0     C22898   3.897   3.681  11.238  0.2254  0.4697  0.2021
  932MOL0     C22899   3.762   3.700  11.283 -0.7528 -0.5318  0.8690
  932MOL0     O22900   3.717   3.695  11.408  0.3762  0.1831 -0.0680
  932MOL0     C22901   3.802   3.670  11.524  0.1460  0.1735  0.1010
  932MOL0     C22902   3.720   3.659  11.649  0.1680  0.6636  0.7833
  932MOL0     C22903   3.632   3.534  11.639  0.9824 -0.2280  0.1479
  932MOL0     C22904   3.713   3.399  11.658  0.6353 -0.0253  0.6799
  932MOL0     C22905   3.765   3.403  11.801  0.0156 -0.5221 -0.2024
  932MOL0     C22906   3.835   3.281  11.854 -0.8126  0.9454  0.2916
  932MOL0     C22907   3.740   3.161  11.893  0.7337 -0.6303 -0.0415
  932MOL0     C22908   3.748   3.111  12.043  0.6119 -0.2770  0.4283
  932MOL0     N22909   3.883   3.056  12.089  0.4728 -0.8199  0.6004
  932MOL0     C22910   3.957   3.125  12.179 -0.1325 -0.1734  0.6367
  932MOL0     C22911   4.074   3.057  12.174  0.4989 -0.3680 -0.6323
  932MOL0     C22912   4.183   3.082  12.270 -0.3164  0.4263  0.9591
  932MOL0     C22913   4.273   3.185  12.215 -0.1520 -0.2051 -0.1318
  932MOL0     C22914   4.220   3.328  12.232 -0.3648  0.0395 -0.5799
  932MOL0     C22915   4.155   3.391  12.106  0.3934 -0.1444  0.4861
  932MOL0     O22916   4.076   3.498  12.153 -0.4418 -0.6071 -0.6700
  932MOL0     C22917   4.062   3.601  12.069 -0.1090 -0.0231 -0.3348
  932MOL0     C22918   4.173   3.665  12.012 -0.4485 -0.3085 -0.4066
  932MOL0     C22919   4.155   3.774  11.927  0.6984 -0.1389  0.2235
  932MOL0     C22920   4.029   3.828  11.901  0.2147 -0.4783  0.5499
  932MOL0     C22921   4.003   3.922  11.795 -0.0722 -1.3536 -0.1398
  932MOL0     O22922   4.115   3.984  11.739  0.5571  0.1098  0.9464
  932MOL0     C22923   4.105   4.075  11.630  0.0081 -0.5821 -0.1492
  932MOL0     C22924   4.009   4.065  11.521  0.0449  0.4333 -0.4695
  932MOL0     C22925   4.003   4.154  11.406 -0.4671 -0.4057 -0.3155
  932MOL0     C22926   4.092   4.266  11.398  0.1474  0.8429 -0.1154
  932MOL0     O22927   4.092   4.354  11.299  0.1971 -0.4347 -0.2931
  932MOL0     C22928   4.042   4.314  11.173  0.1403 -0.2581 -0.0676
  932MOL0     C22929   4.079   4.420  11.073 -0.7019  0.8450  0.0814
  932MOL0     C22930   4.035   4.559  11.113  0.4417 -1.9576  0.3220
  932MOL0     C22931   3.882   4.574  11.096  0.2688  0.2467  0.5490
  932MOL0     C22932   3.837   4.717  11.079 -0.6188  0.0405 -1.0984
  932MOL0     C22933   3.902   4.815  11.176  0.3543 -0.2163 -0.4426
  932MOL0     C22934   3.787   4.921  11.209 -0.3945  0.9662  0.8603
  932MOL0     C22935   3.847   5.032  11.287 -0.8253  0.2033 -0.2696
  932MOL0    Cl22936   3.727   5.160  11.287 -0.0591 -0.3850 -0.4820
  932MOL0     C22937   4.176   4.282  11.512 -0.9602  0.4910  0.9771
  932MOL0     C22938   4.186   4.184  11.623  0.5178  0.1553  0.5278
  932MOL0     O22939   3.891   3.936  11.750  0.5571  0.1116 -0.8530
  932MOL0     C22940   3.924   3.766  11.975 -0.3851  0.6270 -0.0373
  932MOL0     C22941   3.940   3.662  12.059 -0.4165  0.0211  0.6333
  932MOL0     N22942   4.062   2.950  12.086  0.0941 -0.7153 -0.5257
  932MOL0     N22943   3.949   2.955  12.032  0.1878  0.9565 -0.2864
  932MOL0     C22944   3.665   3.728  11.188  0.4753 -1.2386  0.7621
  932MOL0     C22945   3.702   3.717  11.050  0.0813 -0.1696 -0.2109
  932MOL0     C22946   4.006   3.696  10.693  0.2187  0.7165  0.0371
  932MOL0     C22947   4.135   3.715  10.644  0.2660  0.1591 -0.0047
  932MOL0     C22948   4.183   3.674  10.522  0.2805  0.2605  0.0844
  932MOL0     C22949   4.081   3.618  10.432  0.0639 -0.6646  0.0409
  932MOL0     O22950   4.114   3.567  10.308  0.5597 -0.1815 -0.0007
  932MOL0     C22951   4.247   3.542  10.294 -0.3572 -0.3772 -0.3053
  932MOL0     C22952   4.276   3.427  10.189  0.6831  0.2610  0.3822
  932MOL0     C22953   4.207   3.456  10.056  0.0823 -0.4035  0.0687
  932MOL0     C22954   4.195   3.339   9.963 -1.1831  1.0296  0.6649
  932MOL0     C22955   4.332   3.276   9.936  0.3950 -0.6826 -0.3653
  932MOL0     C22956   4.445   3.241   9.904 -0.2210 -0.3607 -0.5913
  932MOL0     C22957   3.952   3.593  10.481 -0.2016 -0.6796  0.1425
  932MOL0     C22958   3.912   3.645  10.608  0.0973  0.2897  0.4910
  932MOL0     H22959   4.039   3.666  11.082  0.5746  0.3010  1.7014
  932MOL0     H22960   3.965   3.661  11.321 -0.5802  0.7869  0.9630
  932MOL0     H22961   3.882   3.744  11.529  0.9790 -0.7870  3.1096
  932MOL0     H22962   3.852   3.574  11.509  1.5298  1.0329 -1.1328
  932MOL0     H22963   3.666   3.752  11.671  1.7352  1.2943  2.2549
  932MOL0     H22964   3.782   3.660  11.740 -1.7876  0.7741  2.1786
  932MOL0     H22965   3.574   3.540  11.547  1.9509  1.0322 -0.4085
  932MOL0     H22966   3.556   3.538  11.718  0.3126 -0.4737 -0.4691
  932MOL0     H22967   3.639   3.319  11.650  1.4673 -0.7644  0.0909
  932MOL0     H22968   3.787   3.391  11.578  0.2816 -1.0101  0.4334
  932MOL0     H22969   3.687   3.430  11.872 -1.3928 -3.6448 -0.4058
  932MOL0     H22970   3.843   3.479  11.798 -2.3456  2.0278 -0.7514
  932MOL0     H22971   3.902   3.314  11.934 -0.2281 -1.4864  0.8816
  932MOL0     H22972   3.900   3.243  11.775 -1.4006  3.5987 -1.6198
  932MOL0     H22973   3.638   3.198  11.879 -0.0133 -2.2724  0.8220
  932MOL0     H22974   3.741   3.075  11.826 -1.9289  1.3588 -2.9219
  932MOL0     H22975   3.671   3.034  12.050  3.0603 -2.9922 -0.4925
  932MOL0     H22976   3.707   3.185  12.112 -1.8600 -1.7522  0.6704
  932MOL0     H22977   3.928   3.196  12.256 -0.1149 -0.8507  1.2816
  932MOL0     H22978   4.250   2.996  12.272  2.3711  2.3580 -0.0781
  932MOL0     H22979   4.149   3.106  12.372 -1.1216  0.7315  0.6307
  932MOL0     H22980   4.296   3.168  12.109  1.1572  1.5530 -0.1702
  932MOL0     H22981   4.365   3.178  12.274  1.3000  0.7366 -2.1870
  932MOL0     H22982   4.151   3.337  12.316  0.8631 -2.3792  0.7876
  932MOL0     H22983   4.298   3.403  12.249  0.1752  1.2781 -6.3436
  932MOL0     H22984   4.109   3.313  12.046  0.8125  2.9473 -4.4011
  932MOL0     H22985   4.235   3.432  12.043 -3.1197  2.7173 -2.5361
  932MOL0     H22986   4.272   3.629  12.040  1.0960  1.0993 -3.5482
  932MOL0     H22987   4.244   3.808  11.876  1.9477 -2.3577  0.8081
  932MOL0     H22988   3.933   3.987  11.519 -1.3477  1.7709 -1.4336
  932MOL0     H22989   3.924   4.143  11.332 -0.2124  5.3676 -1.8510
  932MOL0     H22990   3.933   4.304  11.178  0.3877 -3.3866  1.4763
  932MOL0     H22991   4.088   4.220  11.141  1.1744 -0.0989  0.8565
  932MOL0     H22992   4.043   4.402  10.971  1.2688  0.1955 -0.5455
  932MOL0     H22993   4.187   4.422  11.057 -0.9582 -1.0237 -2.3551
  932MOL0     H22994   4.090   4.630  11.050  1.5163 -0.5648  2.6830
  932MOL0     H22995   4.065   4.576  11.217  0.4223 -3.5904  0.6126
  932MOL0     H22996   3.841   4.512  11.016 -0.4420 -0.7087  1.6206
  932MOL0     H22997   3.825   4.540  11.184  0.3549  1.8013  1.2380
  932MOL0     H22998   3.731   4.706  11.102 -0.4878  0.2142 -0.4085
  932MOL0     H22999   3.855   4.754  10.977 -0.4203 -2.5907 -2.0982
  932MOL0     H23000   3.998   4.852  11.139  0.4949 -1.8627 -1.8669
  932MOL0     H23001   3.935   4.752  11.259  1.7987 -1.4740 -1.9013
  932MOL0     H23002   3.746   4.975  11.123 -1.8142  0.1765  1.0273
  932MOL0     H23003   3.697   4.876  11.252 -1.5247 -0.3672 -2.5907
  932MOL0     H23004   3.935   5.064  11.230 -0.7723 -1.0793 -0.9418
  932MOL0     H23005   3.875   5.008  11.390  2.7189 -0.0824 -1.1744
  932MOL0     H23006   4.241   4.368  11.501  0.7268 -0.6978  1.2628
  932MOL0     H23007   4.253   4.201  11.707 -0.6520 -1.3796  1.8379
  932MOL0     H23008   3.824   3.807  11.966  0.3392  2.0438 -2.3876
  932MOL0     H23009   3.849   3.639  12.114  0.4176  3.3646  3.7714
  932MOL0     H23010   3.561   3.749  11.212  0.7604 -1.5986  2.4557
  932MOL0     H23011   3.628   3.721  10.970  1.7940  1.0657 -1.8150
  932MOL0     H23012   4.217   3.755  10.703  1.4199 -1.6186 -0.3055
  932MOL0     H23013   4.287   3.692  10.496  1.2892 -1.3652  2.5962
  932MOL0     H23014   4.304   3.509  10.381  1.8980  4.6246  0.4874
  932MOL0     H23015   4.299   3.632  10.257 -0.2600 -0.6830 -0.9284
  932MOL0     H23016   4.383   3.439  10.175  0.5035  0.5290 -0.9219
  932MOL0     H23017   4.245   3.330  10.227 -0.8217  0.3072 -0.6190
  932MOL0     H23018   4.251   3.541  10.004 -1.4955 -0.4459 -1.4402
  932MOL0     H23019   4.103   3.479  10.079 -0.8836 -4.0904  0.1380
  932MOL0     H23020   4.124   3.263   9.996 -1.9797  1.5521  0.1907
  932MOL0     H23021   4.150   3.358   9.865 -0.6567  1.0830  0.4256
  932MOL0     H23022   4.541   3.200   9.880 -0.2980 -0.7940 -0.1767
  932MOL0     H23023   3.887   3.552  10.405 -0.2034 -1.2536  0.4511
  932MOL0     H23024   3.814   3.621  10.649 -1.1378 -0.1876 -2.4196
  933MOL0     O23025   9.935   0.445   7.384 -0.1168 -0.3268 -0.1946
  933MOL0     C23026   9.836   0.491   7.443  0.5680 -0.1050  0.0889
  933MOL0     O23027   9.795   0.441   7.562  0.1880  0.0732  0.0897
  933MOL0     C23028   9.867   0.344   7.633 -0.1693 -0.9453  0.0193
  933MOL0     C23029   9.851   0.361   7.772 -0.2316  1.0187  0.4213
  933MOL0     C23030   9.907   0.258   7.858 -0.6883 -0.4175  0.4745
  933MOL0     C23031   9.968   0.142   7.805 -0.3437 -0.3933  0.2434
  933MOL0     O23032  10.037   0.068   7.901 -0.6512 -0.2555  0.4190
  933MOL0     C23033  10.082  -0.051   7.859  0.2429  0.6864 -0.3634
  933MOL0     C23034  10.092  -0.128   7.986 -0.5811 -0.2176 -0.1807
  933MOL0     C23035  10.162  -0.264   7.972 -0.1481  0.5219 -1.0345
  933MOL0     C23036  10.314  -0.255   7.940  0.0867  0.2143  0.3696
  933MOL0     C23037  10.410  -0.183   8.047  0.0095 -0.2060  0.0463
  933MOL0     C23038  10.385  -0.230   8.184  0.5988 -0.6475 -0.3135
  933MOL0     C23039  10.416  -0.381   8.179  0.4408  0.1032 -0.6447
  933MOL0     C23040  10.425  -0.462   8.308 -0.2034  0.4427  0.0343
  933MOL0     N23041  10.315  -0.412   8.393 -0.9452 -0.0078  0.0238
  933MOL0     C23042  10.328  -0.318   8.498 -0.3914 -0.0980  0.7619
  933MOL0     C23043  10.198  -0.313   8.544  0.0533  0.3762 -0.1531
  933MOL0     C23044  10.146  -0.230   8.664 -0.1991  0.6099 -0.9887
  933MOL0     C23045  10.183  -0.284   8.798 -0.4076 -0.5015 -0.6591
  933MOL0     C23046  10.116  -0.416   8.835  0.0335 -0.1392 -0.4091
  933MOL0     C23047  10.062  -0.415   8.975  0.0722  0.1355 -0.5907
  933MOL0     O23048  10.168  -0.422   9.072  0.1926 -0.9186  1.4298
  933MOL0     C23049  10.134  -0.392   9.194 -0.0763  0.5917  0.1340
  933MOL0     C23050  10.183  -0.285   9.268 -0.2405 -0.3439 -0.0770
  933MOL0     C23051  10.160  -0.271   9.406 -0.4841 -0.8697  0.1384
  933MOL0     C23052  10.073  -0.355   9.478 -0.7407  1.1568  0.5169
  933MOL0     C23053  10.054  -0.343   9.613  1.0026 -0.2737 -0.8765
  933MOL0     O23054  10.109  -0.229   9.669  0.5397  0.8327 -0.3106
  933MOL0     C23055  10.057  -0.184   9.786  0.2995 -0.5544  0.5810
  933MOL0     C23056   9.963  -0.077   9.794  0.1419 -0.2824  0.1533
  933MOL0     C23057   9.911  -0.037   9.916  0.4395 -0.6470  0.9332
  933MOL0     C23058   9.934  -0.118  10.016  0.0739 -0.0893  0.3705
  933MOL0     O23059   9.870  -0.109  10.139  0.2233 -0.5525 -0.9129
  933MOL0     C23060   9.829   0.025  10.178 -0.0196 -0.4801  0.4748
  933MOL0     C23061   9.683   0.024  10.135  0.0142  0.3206 -0.1772
  933MOL0     C23062   9.629   0.166  10.156 -0.6735 -0.5789 -0.3536
  933MOL0     C23063   9.480   0.176  10.115  0.2176 -0.2903 -0.3054
  933MOL0     C23064   9.378   0.206  10.224 -0.7149  0.8976  0.1951
  933MOL0     C23065   9.228   0.178  10.186  0.1105 -0.5043  0.2489
  933MOL0     C23066   9.126   0.260  10.273 -0.7153  0.9351 -0.3065
  933MOL0     C23067   8.987   0.281  10.201 -0.3177  0.0709  0.7619
  933MOL0    Cl23068   9.009   0.374  10.054 -0.2727  0.0269 -0.4245
  933MOL0     C23069  10.029  -0.220  10.007 -0.1962 -0.1897 -0.9128
  933MOL0     C23070  10.099  -0.254   9.895  0.0741  0.2378 -0.8008
  933MOL0     O23071   9.970  -0.413   9.672 -1.1198 -0.0541  0.6014
  933MOL0     C23072  10.009  -0.460   9.398 -0.0682  0.0920 -0.4472
  933MOL0     C23073  10.042  -0.478   9.266  0.1538 -0.3855  0.3103
  933MOL0     N23074  10.120  -0.394   8.473 -0.0196 -0.6349  0.2532
  933MOL0     N23075  10.191  -0.453   8.388  0.2905  0.4951 -0.5099
  933MOL0     C23076   9.973   0.130   7.662 -0.3987  0.3152  0.1824
  933MOL0     C23077   9.923   0.226   7.582 -0.5165 -0.4387  0.5110
  933MOL0     C23078   9.749   0.602   7.373 -0.7158 -0.3559 -0.1155
  933MOL0     C23079   9.612   0.626   7.412 -0.8788  0.5891  0.6736
  933MOL0     C23080   9.540   0.729   7.359  0.3193 -0.0487 -0.4651
  933MOL0     C23081   9.592   0.813   7.258 -0.0253  0.5543  0.5262
  933MOL0     O23082   9.512   0.919   7.214  0.1263  0.0451 -0.5241
  933MOL0     C23083   9.578   1.029   7.165 -0.6186  0.5346  0.3728
  933MOL0     C23084   9.490   1.142   7.160 -0.0471 -0.6332 -0.8724
  933MOL0     C23085   9.557   1.238   7.057  0.1575 -0.1449 -0.4253
  933MOL0     C23086   9.468   1.221   6.923  0.5183 -0.1948  0.2102
  933MOL0     C23087   9.526   1.104   6.853  0.2983  0.7355 -0.0604
  933MOL0     C23088   9.555   1.005   6.793 -0.4585 -0.4437 -0.3510
  933MOL0     C23089   9.722   0.788   7.217 -0.6237  0.5529 -0.0428
  933MOL0     C23090   9.807   0.690   7.274  0.1927 -0.3905 -1.1703
  933MOL0     H23091   9.801   0.447   7.815 -4.1122  0.0226 -1.7179
  933MOL0     H23092   9.910   0.278   7.965 -3.4462  0.4435  0.4547
  933MOL0     H23093  10.182  -0.025   7.822  1.3852  0.9638  2.6110
  933MOL0     H23094  10.020  -0.101   7.785 -2.2080 -0.4089  2.2356
  933MOL0     H23095   9.996  -0.152   8.032  0.5812 -4.7647  0.3150
  933MOL0     H23096  10.146  -0.073   8.064 -1.4007  1.4457 -0.7451
  933MOL0     H23097  10.112  -0.332   7.902  0.9477 -0.9708 -0.4187
  933MOL0     H23098  10.154  -0.316   8.068  3.4379  0.8192 -0.4548
  933MOL0     H23099  10.364  -0.352   7.934  3.8343  1.6140  3.9227
  933MOL0     H23100  10.315  -0.206   7.843 -3.9500 -1.6306 -0.8216
  933MOL0     H23101  10.390  -0.077   8.030  0.6697  0.2023  1.6810
  933MOL0     H23102  10.514  -0.205   8.022 -0.1725  0.0120 -0.9477
  933MOL0     H23103  10.288  -0.204   8.228  0.5085 -4.0938  1.9122
  933MOL0     H23104  10.451  -0.175   8.252  1.9684 -0.5639 -1.6647
  933MOL0     H23105  10.341  -0.427   8.114 -0.1223  0.8923 -0.5803
  933MOL0     H23106  10.520  -0.390   8.146  1.2248  0.9122  1.4316
  933MOL0     H23107  10.522  -0.445   8.358 -0.2962  1.3531 -0.0850
  933MOL0     H23108  10.401  -0.568   8.291 -0.5553  0.0936  2.3430
  933MOL0     H23109  10.411  -0.255   8.532 -2.3263  2.1417  1.6347
  933MOL0     H23110  10.041  -0.201   8.653  0.5478  4.2623  0.3209
  933MOL0     H23111  10.190  -0.133   8.643  0.3228  0.0638 -2.6514
  933MOL0     H23112  10.150  -0.199   8.859  3.9984  0.5082  0.6989
  933MOL0     H23113  10.292  -0.279   8.806 -0.5529  0.8343  1.2852
  933MOL0     H23114  10.033  -0.440   8.768 -0.7412  0.7595  0.2084
  933MOL0     H23115  10.188  -0.497   8.822 -0.4260 -0.7878  0.8950
  933MOL0     H23116   9.993  -0.500   8.973 -0.3606  0.4479  0.6153
  933MOL0     H23117  10.007  -0.322   8.994 -1.2973 -0.6493 -0.6056
  933MOL0     H23118  10.254  -0.223   9.214 -2.9805  0.4827 -3.0264
  933MOL0     H23119  10.211  -0.194   9.463 -1.2616 -1.8859  2.3188
  933MOL0     H23120   9.964  -0.018   9.702  1.1646 -1.3441 -0.5487
  933MOL0     H23121   9.848   0.052   9.926 -0.5493 -1.0255 -1.2794
  933MOL0     H23122   9.897   0.100  10.137  1.4497 -1.0595  1.7273
  933MOL0     H23123   9.847   0.040  10.285 -1.2116  1.3509  0.4547
  933MOL0     H23124   9.624  -0.054  10.184 -4.0328  1.7756 -2.2969
  933MOL0     H23125   9.671   0.004  10.028 -2.3457  0.0105  0.0941
  933MOL0     H23126   9.681   0.241  10.096 -0.8836  2.0870  2.5313
  933MOL0     H23127   9.628   0.201  10.259  0.4081 -0.6274 -0.3229
  933MOL0     H23128   9.474   0.261  10.048 -2.6409 -2.3820 -2.9896
  933MOL0     H23129   9.450   0.087  10.058  1.2396  0.6514 -2.4105
  933MOL0     H23130   9.397   0.309  10.254  3.1454  0.0864  1.1576
  933MOL0     H23131   9.400   0.139  10.308  3.7327 -1.6917 -2.6081
  933MOL0     H23132   9.208   0.073  10.163 -2.2453  0.0566 -0.5905
  933MOL0     H23133   9.215   0.220  10.086 -1.3688 -0.6162  0.3750
  933MOL0     H23134   9.109   0.191  10.356  1.7863 -2.0804 -2.0647
  933MOL0     H23135   9.162   0.357  10.308  0.9922  0.4271 -0.5761
  933MOL0     H23136   8.917   0.331  10.268 -1.5015  2.9940 -2.3730
  933MOL0     H23137   8.930   0.191  10.179 -0.4840  0.3198  0.1523
  933MOL0     H23138  10.060  -0.275  10.096 -0.8517 -1.0315 -1.1988
  933MOL0     H23139  10.160  -0.344   9.904 -2.0260 -1.1097  0.9598
  933MOL0     H23140   9.946  -0.523   9.460  0.0221 -1.3069 -1.7227
  933MOL0     H23141  10.001  -0.562   9.210 -3.3970  1.4198 -0.0532
  933MOL0     H23142  10.039   0.052   7.624  1.2432  0.6925  2.1002
  933MOL0     H23143   9.921   0.214   7.475  0.3311 -0.1716  0.4583
  933MOL0     H23144   9.573   0.569   7.495  0.0663  1.1528  1.5327
  933MOL0     H23145   9.438   0.748   7.394  0.4089  1.5376 -0.9619
  933MOL0     H23146   9.617   0.991   7.070  1.4222 -1.1621  1.7870
  933MOL0     H23147   9.666   1.056   7.223 -1.5731  3.9522  0.4383
  933MOL0     H23148   9.387   1.105   7.151 -0.0400 -0.5977 -1.0882
  933MOL0     H23149   9.504   1.199   7.253  0.7940 -1.6290 -0.3741
  933MOL0     H23150   9.664   1.229   7.037  0.5228  1.6256  0.5225
  933MOL0     H23151   9.535   1.342   7.084 -1.5926 -0.5198 -0.2488
  933MOL0     H23152   9.363   1.194   6.940  1.3484 -3.5152  0.5508
  933MOL0     H23153   9.486   1.295   6.844  1.8049  1.3783  1.9002
  933MOL0     H23154   9.570   0.912   6.742  0.9175  0.0217 -0.8346
  933MOL0     H23155   9.771   0.865   7.158  1.6758 -2.1905 -1.9665
  933MOL0     H23156   9.906   0.662   7.241  0.9527 -0.5274  1.0857
  934MOL0     O23157   9.501   4.699   0.382 -0.5782  0.2478  0.3478
  934MOL0     C23158   9.442   4.662   0.484  0.9130  0.3116  0.5407
  934MOL0     O23159   9.318   4.592   0.488  0.2056  0.6790 -0.1278
  934MOL0     C23160   9.274   4.522   0.383 -0.2194  0.0931  0.9030
  934MOL0     C23161   9.249   4.586   0.258  0.2517  0.5393 -0.8376
  934MOL0     C23162   9.185   4.513   0.158 -0.2749 -0.0211 -0.2361
  934MOL0     C23163   9.169   4.372   0.169 -0.0322 -0.7623  0.1175
  934MOL0     O23164   9.085   4.299   0.083  0.0357 -0.2830  0.4024
  934MOL0     C23165   8.980   4.377   0.021 -0.0266  0.6357 -0.3564
  934MOL0     C23166   8.870   4.272  -0.002  0.2270  0.5532 -0.3782
  934MOL0     C23167   8.816   4.297  -0.148  0.4338  0.3527 -0.4767
  934MOL0     C23168   8.702   4.192  -0.170 -0.6474 -0.8848  0.0143
  934MOL0     C23169   8.655   4.179  -0.317  0.5783 -1.1662  0.2887
  934MOL0     C23170   8.753   4.101  -0.398  0.6766 -0.2940  0.8116
  934MOL0     C23171   8.703   4.066  -0.535 -0.0286 -1.2008 -0.0745
  934MOL0     C23172   8.811   4.006  -0.613  0.2723  0.6097  0.9546
  934MOL0     N23173   8.767   3.970  -0.753 -0.2169 -0.1821 -0.2897
  934MOL0     C23174   8.853   3.959  -0.867 -0.2240  0.5679  0.0521
  934MOL0     C23175   8.783   3.905  -0.970  0.7104 -0.6050 -0.1960
  934MOL0     C23176   8.826   3.894  -1.107  0.6121  0.3435 -0.4246
  934MOL0     C23177   8.742   3.801  -1.187  0.4535 -0.2068 -0.0816
  934MOL0     C23178   8.823   3.747  -1.305  0.8928 -0.5454 -0.1098
  934MOL0     C23179   8.725   3.668  -1.401 -0.0093  0.6197  0.1242
  934MOL0     O23180   8.693   3.536  -1.361 -0.4609  0.8654 -0.1785
  934MOL0     C23181   8.795   3.445  -1.370  0.4302  0.2918  1.0545
  934MOL0     C23182   8.778   3.314  -1.309  0.0005  0.6902  0.8609
  934MOL0     C23183   8.861   3.198  -1.334  0.2811  0.3577 -0.2372
  934MOL0     C23184   8.972   3.215  -1.428  0.5599  0.8337 -0.0343
  934MOL0     C23185   9.065   3.100  -1.463  0.2685  0.7016 -1.0935
  934MOL0     O23186   9.049   2.997  -1.384  0.0184 -0.0217  0.8513
  934MOL0     C23187   9.145   2.898  -1.391  0.9193  0.2953 -0.6668
  934MOL0     C23188   9.107   2.770  -1.447  0.0879  0.4102  0.9128
  934MOL0     C23189   9.196   2.665  -1.449 -0.0297 -0.8504 -0.7244
  934MOL0     C23190   9.326   2.678  -1.393  0.4582 -0.5553 -1.0921
  934MOL0     O23191   9.401   2.566  -1.374 -0.1063 -0.0365 -0.3819
  934MOL0     C23192   9.523   2.562  -1.292 -0.4033 -1.2391  0.0678
  934MOL0     C23193   9.571   2.426  -1.290  0.0504  0.4790  0.8816
  934MOL0     C23194   9.703   2.422  -1.225  0.0051 -0.8204 -0.3339
  934MOL0     C23195   9.750   2.275  -1.224 -0.5483  0.1726 -0.8824
  934MOL0     C23196   9.873   2.246  -1.139  1.1514  1.1335 -0.9184
  934MOL0     C23197   9.986   2.348  -1.158  0.0415 -0.1683 -0.2318
  934MOL0     C23198  10.086   2.302  -1.054  0.0328 -0.0017 -0.2086
  934MOL0     C23199  10.229   2.349  -1.076  0.1257 -0.9451 -0.3682
  934MOL0    Cl23200  10.330   2.289  -0.944  0.2109 -0.1091 -0.6719
  934MOL0     C23201   9.354   2.793  -1.325 -1.0410  1.1321 -0.0094
  934MOL0     C23202   9.266   2.903  -1.325 -0.4526  0.3808  0.2084
  934MOL0     O23203   9.150   3.120  -1.536 -0.9162 -0.1427  0.1604
  934MOL0     C23204   8.992   3.344  -1.488 -0.0973  0.3855 -0.2362
  934MOL0     C23205   8.902   3.452  -1.467  0.1802 -0.1145  0.3619
  934MOL0     N23206   8.661   3.872  -0.913  0.1035 -0.0652 -0.7669
  934MOL0     N23207   8.660   3.903  -0.786  0.5109  0.7209 -0.0680
  934MOL0     C23208   9.217   4.309   0.278 -0.4896 -0.7709 -0.1788
  934MOL0     C23209   9.267   4.382   0.395  0.3605  0.2875 -0.3285
  934MOL0     C23210   9.479   4.712   0.620  0.0637 -0.4790  0.4755
  934MOL0     C23211   9.436   4.653   0.734 -0.5935 -0.0984  0.5178
  934MOL0     C23212   9.493   4.685   0.851 -0.4126  0.3151  0.5301
  934MOL0     C23213   9.595   4.786   0.872 -0.0249 -0.9423  0.3656
  934MOL0     O23214   9.638   4.821   0.994 -0.1028  0.1627  0.1246
  934MOL0     C23215   9.722   4.938   1.020 -0.5349 -0.5904 -0.3446
  934MOL0     C23216   9.729   4.967   1.170  0.5235  0.4284 -1.0162
  934MOL0     C23217   9.794   4.856   1.254 -0.3719  0.4733 -0.1550
  934MOL0     C23218   9.727   4.844   1.391 -0.0059  0.0437  0.4662
  934MOL0     C23219   9.587   4.785   1.398 -0.8154 -0.4085 -0.4172
  934MOL0     C23220   9.467   4.750   1.405 -0.3910  0.4024 -0.3027
  934MOL0     C23221   9.634   4.847   0.755 -0.1041 -0.6544 -0.1133
  934MOL0     C23222   9.585   4.803   0.628 -0.0867  0.1124  0.4640
  934MOL0     H23223   9.261   4.694   0.258  3.0507  0.3918  1.7639
  934MOL0     H23224   9.155   4.567   0.069 -0.4411 -0.8717 -0.7023
  934MOL0     H23225   9.013   4.427  -0.070 -0.5772  0.9045 -0.4101
  934MOL0     H23226   8.932   4.455   0.081 -0.5434  0.5698 -0.6817
  934MOL0     H23227   8.795   4.294   0.075  0.0628 -1.2778  0.0333
  934MOL0     H23228   8.901   4.169   0.019  0.1982  0.6252  0.0195
  934MOL0     H23229   8.896   4.287  -0.222  2.5664  0.6409  1.6964
  934MOL0     H23230   8.772   4.393  -0.176 -2.8778 -1.3915 -1.8403
  934MOL0     H23231   8.728   4.092  -0.134  3.1551 -0.1814 -0.3770
  934MOL0     H23232   8.609   4.226  -0.123  0.0466  0.7498  0.2878
  934MOL0     H23233   8.636   4.280  -0.354  2.5425 -0.8550  0.0058
  934MOL0     H23234   8.564   4.121  -0.332 -1.0485  1.1279  0.7738
  934MOL0     H23235   8.775   4.009  -0.343  1.0963 -0.6293  0.0980
  934MOL0     H23236   8.850   4.152  -0.398  0.7213 -0.3726  0.2446
  934MOL0     H23237   8.611   4.007  -0.532 -2.1700  1.9000 -0.3991
  934MOL0     H23238   8.667   4.160  -0.579  2.5911  2.1129  4.0900
  934MOL0     H23239   8.837   3.910  -0.569 -0.9208 -1.3179 -2.1871
  934MOL0     H23240   8.901   4.067  -0.626 -0.0750  0.9761  0.2029
  934MOL0     H23241   8.957   3.990  -0.868  0.2853 -0.9063 -2.8846
  934MOL0     H23242   8.932   3.869  -1.120  0.1955 -0.5868 -2.5815
  934MOL0     H23243   8.824   3.998  -1.141 -0.8291  0.8028  0.9526
  934MOL0     H23244   8.653   3.859  -1.211  0.6942  1.2907  2.3034
  934MOL0     H23245   8.722   3.712  -1.127  0.1754 -0.8060 -1.0501
  934MOL0     H23246   8.874   3.827  -1.360  0.3605  0.2701  0.5647
  934MOL0     H23247   8.897   3.679  -1.264  0.5534 -1.3753 -0.8360
  934MOL0     H23248   8.753   3.664  -1.506  0.7034 -2.0656  0.3645
  934MOL0     H23249   8.628   3.719  -1.412  0.0090  0.7266  0.4340
  934MOL0     H23250   8.683   3.309  -1.256  0.4008  0.4394  1.5642
  934MOL0     H23251   8.854   3.100  -1.289  0.7758 -0.3805 -1.7243
  934MOL0     H23252   9.015   2.746  -1.498 -0.2987  0.5256  1.5524
  934MOL0     H23253   9.156   2.578  -1.501 -0.2316  0.3259 -2.6493
  934MOL0     H23254   9.503   2.585  -1.187  1.2740 -2.5488  0.7215
  934MOL0     H23255   9.588   2.638  -1.336  0.9626 -3.3474 -1.7430
  934MOL0     H23256   9.574   2.395  -1.395 -0.6419 -0.1463  1.0383
  934MOL0     H23257   9.502   2.351  -1.250  0.3082 -0.2981 -0.0911
  934MOL0     H23258   9.702   2.468  -1.126  0.0522  2.3020 -1.6815
  934MOL0     H23259   9.772   2.484  -1.283  0.8082  0.8158  2.2167
  934MOL0     H23260   9.662   2.213  -1.205 -0.6331  0.8506  1.0954
  934MOL0     H23261   9.786   2.250  -1.325 -0.8064 -0.2336 -0.8766
  934MOL0     H23262   9.909   2.145  -1.158 -0.8214  0.6174 -2.1840
  934MOL0     H23263   9.837   2.264  -1.037 -0.3394  1.8691 -1.5534
  934MOL0     H23264   9.955   2.452  -1.143 -0.6737 -0.4165  0.0339
  934MOL0     H23265  10.026   2.344  -1.260 -0.4893 -3.3005 -0.4296
  934MOL0     H23266  10.065   2.342  -0.955  0.0711 -0.2062 -0.1189
  934MOL0     H23267  10.091   2.193  -1.049 -0.7055 -0.3283 -3.6085
  934MOL0     H23268  10.237   2.458  -1.079  1.2031 -0.9738  0.6884
  934MOL0     H23269  10.265   2.315  -1.174 -3.1349  0.9052 -2.4357
  934MOL0     H23270   9.443   2.805  -1.264  1.8072 -0.4735 -3.4752
  934MOL0     H23271   9.303   2.984  -1.264  3.8316 -1.2228  0.0819
  934MOL0     H23272   9.068   3.349  -1.565  0.3377  1.1353  0.2372
  934MOL0     H23273   8.923   3.545  -1.519  1.1948 -0.2977  0.4340
  934MOL0     H23274   9.191   4.205   0.292 -1.3477 -0.4534  0.6793
  934MOL0     H23275   9.292   4.344   0.494 -0.8800  0.2308 -0.0101
  934MOL0     H23276   9.348   4.589   0.736 -0.3112 -0.4789  1.8478
  934MOL0     H23277   9.459   4.636   0.942  1.4347 -1.2529  0.4150
  934MOL0     H23278   9.690   5.034   0.976  1.8818  0.6740  0.4975
  934MOL0     H23279   9.824   4.914   0.991 -0.5881 -3.0911  1.2631
  934MOL0     H23280   9.798   5.053   1.165 -0.0292  0.9361 -0.1864
  934MOL0     H23281   9.632   5.008   1.199  1.9470  2.7568  0.8454
  934MOL0     H23282   9.899   4.886   1.262  0.1931 -0.6455 -2.4638
  934MOL0     H23283   9.796   4.757   1.207  1.4193  0.2470  0.3350
  934MOL0     H23284   9.800   4.795   1.455  0.6687  0.8779  0.3592
  934MOL0     H23285   9.720   4.948   1.425  2.8772  1.1092 -1.8736
  934MOL0     H23286   9.370   4.707   1.399 -0.3537 -0.0107  1.5599
  934MOL0     H23287   9.718   4.916   0.755  0.8185 -1.6294  3.3872
  934MOL0     H23288   9.642   4.826   0.539 -0.7969 -0.6574 -0.2043
  935MOL0     O23289   1.549   4.972   3.253 -0.2439  0.3386  0.4139
  935MOL0     C23290   1.597   4.881   3.320  0.7468  0.4405  0.1311
  935MOL0     O23291   1.625   4.757   3.279 -0.0849  0.3314  0.5844
  935MOL0     C23292   1.638   4.729   3.147  0.6015  0.0596  0.7728
  935MOL0     C23293   1.600   4.799   3.032  0.1578  0.4768 -0.9401
  935MOL0     C23294   1.607   4.747   2.905  0.4440 -1.1030  0.5773
  935MOL0     C23295   1.656   4.617   2.883  0.2470 -0.2905  0.0827
  935MOL0     O23296   1.655   4.568   2.752 -0.3241 -0.0995 -0.0494
  935MOL0     C23297   1.660   4.424   2.735 -0.6722 -0.2816  0.1827
  935MOL0     C23298   1.660   4.401   2.577  0.0543 -0.2835 -1.2143
  935MOL0     C23299   1.690   4.247   2.553 -0.1056  0.0314 -0.0950
  935MOL0     C23300   1.654   4.205   2.418 -0.1427 -0.1678  0.3742
  935MOL0     C23301   1.736   4.241   2.296 -0.8833 -0.7158  0.1057
  935MOL0     C23302   1.873   4.175   2.305  0.3530 -1.2239  0.6229
  935MOL0     C23303   1.946   4.193   2.179  0.3633  0.9265  0.4823
  935MOL0     C23304   2.100   4.182   2.205 -0.1405  0.0682  0.4888
  935MOL0     N23305   2.149   4.311   2.247  0.0498 -0.2768  0.3775
  935MOL0     C23306   2.164   4.344   2.386  0.0116 -0.2972 -0.2888
  935MOL0     C23307   2.166   4.481   2.378  0.7190  0.5597 -0.0608
  935MOL0     C23308   2.138   4.583   2.493  0.4202  0.2515  0.2295
  935MOL0     C23309   1.997   4.576   2.559 -1.9924  0.4842  0.6798
  935MOL0     C23310   1.961   4.695   2.657 -0.9940 -0.0417  0.7933
  935MOL0     C23311   2.051   4.689   2.777 -0.6958 -0.1556 -0.7559
  935MOL0     O23312   1.995   4.584   2.870 -0.4854 -0.3006  0.1896
  935MOL0     C23313   2.086   4.529   2.962  0.9808  0.5656  0.2115
  935MOL0     C23314   2.223   4.561   2.972  0.8106  1.0196  0.4041
  935MOL0     C23315   2.304   4.495   3.060 -0.0351  1.4811 -0.0519
  935MOL0     C23316   2.251   4.390   3.143 -0.3376  0.3410  0.1574
  935MOL0     C23317   2.336   4.319   3.245  0.2736 -0.1671  0.9206
  935MOL0     O23318   2.358   4.183   3.225 -0.4861 -0.6959 -0.4262
  935MOL0     C23319   2.408   4.105   3.321 -0.5436  0.3822  1.0634
  935MOL0     C23320   2.491   4.139   3.431  0.0222 -1.2527 -0.9379
  935MOL0     C23321   2.559   4.048   3.513  0.3652 -0.1164  0.4595
  935MOL0     C23322   2.543   3.910   3.481 -0.4551 -0.2763 -0.0698
  935MOL0     O23323   2.582   3.807   3.569 -0.2718 -0.3146  0.8082
  935MOL0     C23324   2.634   3.852   3.695  0.4678  0.1194  1.0178
  935MOL0     C23325   2.647   3.728   3.790  0.0873 -0.3021 -1.0529
  935MOL0     C23326   2.703   3.763   3.929 -0.4989  0.3948 -0.0701
  935MOL0     C23327   2.854   3.806   3.911  0.2827 -0.2484  0.1304
  935MOL0     C23328   2.940   3.825   4.037 -0.0145  0.6527 -0.4121
  935MOL0     C23329   3.091   3.855   3.997 -0.7217  0.3410  0.6619
  935MOL0     C23330   3.170   3.881   4.126 -0.1417 -0.1268 -0.2010
  935MOL0     C23331   3.325   3.912   4.095  0.4819 -0.2359  1.2201
  935MOL0    Cl23332   3.329   4.102   4.054 -0.0332 -0.1773 -0.1402
  935MOL0     C23333   2.459   3.874   3.372  0.1754  0.7324  0.4069
  935MOL0     C23334   2.394   3.964   3.296  0.4709 -0.2175  0.1136
  935MOL0     O23335   2.359   4.386   3.342  0.1095 -0.1496 -0.3089
  935MOL0     C23336   2.118   4.343   3.127 -0.2035 -0.3475  0.1886
  935MOL0     C23337   2.043   4.412   3.027 -0.1711  0.1310 -0.6663
  935MOL0     N23338   2.174   4.527   2.243  0.4679  0.2423 -0.8921
  935MOL0     N23339   2.167   4.423   2.168 -0.4417 -0.6870 -0.1172
  935MOL0     C23340   1.694   4.546   2.999 -0.8376  0.8113  0.1952
  935MOL0     C23341   1.696   4.599   3.128 -0.3442 -0.4647  0.0816
  935MOL0     C23342   1.620   4.902   3.464 -0.3656  0.1858 -0.3678
  935MOL0     C23343   1.565   5.016   3.528  0.0837  0.6686 -0.0734
  935MOL0     C23344   1.575   5.038   3.663  0.4807  1.0753 -0.1346
  935MOL0     C23345   1.644   4.949   3.749 -0.2999 -0.4282 -0.1223
  935MOL0     O23346   1.650   4.982   3.881  0.0234  0.2969  0.1762
  935MOL0     C23347   1.713   4.897   3.978  0.1703  0.8696  0.5920
  935MOL0     C23348   1.621   4.897   4.100 -0.1974 -0.4380 -0.0887
  935MOL0     C23349   1.677   5.015   4.183 -0.5657 -1.2046 -0.2220
  935MOL0     C23350   1.617   5.023   4.329 -0.9881  0.0025 -0.3306
  935MOL0     C23351   1.727   4.992   4.422 -0.1585 -0.3354 -0.3825
  935MOL0     C23352   1.815   4.951   4.492 -0.4754 -0.0168 -0.4185
  935MOL0     C23353   1.710   4.840   3.688 -0.9742 -0.3573 -0.3574
  935MOL0     C23354   1.685   4.818   3.554  0.2354  0.7313  0.4640
  935MOL0     H23355   1.559   4.899   3.034 -0.7335  0.1165 -0.4948
  935MOL0     H23356   1.583   4.812   2.821 -0.3048  2.4849  3.3293
  935MOL0     H23357   1.570   4.379   2.779 -0.5919 -0.8664 -0.2346
  935MOL0     H23358   1.740   4.373   2.791  1.5811  4.1248  1.4685
  935MOL0     H23359   1.741   4.463   2.539 -0.5275 -0.0292 -2.0749
  935MOL0     H23360   1.568   4.443   2.533  0.8612  1.6109 -1.1623
  935MOL0     H23361   1.623   4.193   2.620 -0.0994  0.5308  0.3251
  935MOL0     H23362   1.789   4.215   2.584  0.3137 -0.1985 -1.5680
  935MOL0     H23363   1.614   4.104   2.408 -1.4118  0.3302  0.2870
  935MOL0     H23364   1.560   4.258   2.403 -0.3927 -0.0290  2.1933
  935MOL0     H23365   1.732   4.350   2.286  1.6516 -0.4467  1.2803
  935MOL0     H23366   1.693   4.189   2.209 -3.1377 -1.4599  1.5976
  935MOL0     H23367   1.853   4.069   2.319 -2.1469 -1.0162 -0.7584
  935MOL0     H23368   1.928   4.218   2.390  0.6244  3.9753 -1.7638
  935MOL0     H23369   1.930   4.107   2.114  2.1261 -1.1110  2.5707
  935MOL0     H23370   1.923   4.282   2.119  2.1876  1.8211  1.0248
  935MOL0     H23371   2.144   4.149   2.110  0.2044  2.8092 -0.3922
  935MOL0     H23372   2.129   4.105   2.277  0.7834 -0.1763 -0.1211
  935MOL0     H23373   2.144   4.299   2.483 -0.6178  0.3509 -0.1064
  935MOL0     H23374   2.169   4.684   2.463  2.1539  0.3089  2.0098
  935MOL0     H23375   2.218   4.548   2.559  0.8415  2.6780  1.1197
  935MOL0     H23376   1.984   4.481   2.612 -0.0399 -1.7817 -2.5289
  935MOL0     H23377   1.918   4.584   2.484 -3.1043 -2.1179  1.4777
  935MOL0     H23378   1.983   4.785   2.597 -1.6740 -0.7467 -0.5534
  935MOL0     H23379   1.857   4.695   2.690 -1.0441 -0.8560  0.6669
  935MOL0     H23380   2.042   4.788   2.822  2.9157  0.3298 -0.7931
  935MOL0     H23381   2.156   4.674   2.751 -0.2429  0.9475  0.3488
  935MOL0     H23382   2.264   4.647   2.920 -1.4947  1.7000 -0.4012
  935MOL0     H23383   2.398   4.531   3.100  0.1886  2.0668 -1.0659
  935MOL0     H23384   2.512   4.243   3.454 -0.3047 -1.0824 -1.3945
  935MOL0     H23385   2.612   4.098   3.593 -1.2868  1.1505  0.8165
  935MOL0     H23386   2.562   3.924   3.736 -0.0725  0.9854 -1.3099
  935MOL0     H23387   2.732   3.894   3.668  0.2499 -0.1215 -0.1674
  935MOL0     H23388   2.713   3.649   3.754 -0.2957 -0.9973 -0.2648
  935MOL0     H23389   2.549   3.684   3.813 -0.3800 -0.0719 -2.4971
  935MOL0     H23390   2.702   3.680   4.000  0.3456 -1.2547 -1.9035
  935MOL0     H23391   2.645   3.844   3.974 -3.2151  0.6569 -3.6008
  935MOL0     H23392   2.893   3.717   3.859 -1.4434 -2.2050  1.9682
  935MOL0     H23393   2.861   3.890   3.841 -1.1174 -0.5040 -0.3663
  935MOL0     H23394   2.925   3.739   4.103 -3.3524  0.7160 -0.9194
  935MOL0     H23395   2.902   3.909   4.096  4.5540  2.0220  1.0113
  935MOL0     H23396   3.095   3.946   3.937 -0.0985  1.9953  3.0571
  935MOL0     H23397   3.123   3.769   3.938 -0.1659 -0.3546  1.9443
  935MOL0     H23398   3.132   3.968   4.179 -0.5001  0.1670 -0.9308
  935MOL0     H23399   3.174   3.801   4.201  0.4051  2.4527  2.7314
  935MOL0     H23400   3.359   3.857   4.007 -1.9139 -1.2006  0.8042
  935MOL0     H23401   3.386   3.893   4.184  0.5515  2.0361  1.7174
  935MOL0     H23402   2.444   3.767   3.367 -1.4511  0.8863  1.4073
  935MOL0     H23403   2.325   3.941   3.215  3.2878 -1.1203 -2.1767
  935MOL0     H23404   2.075   4.268   3.193 -1.4047  1.1087  1.1468
  935MOL0     H23405   1.954   4.355   3.005  0.3768 -1.3584  0.7219
  935MOL0     H23406   1.721   4.442   2.984  0.0170  1.0252  0.2268
  935MOL0     H23407   1.746   4.557   3.214  1.0255  3.8605  1.6680
  935MOL0     H23408   1.516   5.092   3.467  0.7861 -0.0402 -1.5777
  935MOL0     H23409   1.536   5.123   3.718 -2.9445 -1.0544  1.0581
  935MOL0     H23410   1.817   4.928   3.993  0.6143  0.3790 -1.2477
  935MOL0     H23411   1.721   4.796   3.935  1.4729  1.1308  0.1943
  935MOL0     H23412   1.516   4.906   4.069 -0.2321  0.4082  0.2490
  935MOL0     H23413   1.638   4.811   4.166  0.1555 -0.8512 -0.7088
  935MOL0     H23414   1.652   5.104   4.124  2.6217 -1.7477 -2.6580
  935MOL0     H23415   1.786   5.007   4.187 -0.5711 -0.9237  0.9323
  935MOL0     H23416   1.567   5.118   4.351 -0.9769 -0.4556  1.9905
  935MOL0     H23417   1.532   4.954   4.329  0.8071 -2.3425  0.7934
  935MOL0     H23418   1.893   4.923   4.559 -1.2018 -2.7129 -0.5479
  935MOL0     H23419   1.772   4.770   3.743 -2.5425 -0.8916  0.8076
  935MOL0     H23420   1.693   4.719   3.510 -0.5724  1.5982 -1.8062
  936MOL0     O23421   2.974   2.981   5.453 -0.7800 -0.8332  0.3734
  936MOL0     C23422   2.933   3.072   5.523 -0.1735 -0.1137 -0.6336
  936MOL0     O23423   3.007   3.178   5.559 -0.0198  0.8594 -0.3616
  936MOL0     C23424   3.142   3.176   5.535 -0.3288 -0.4275  0.1899
  936MOL0     C23425   3.229   3.197   5.632 -0.7917  0.5499  0.0926
  936MOL0     C23426   3.369   3.223   5.610  0.1546  0.4854  0.1613
  936MOL0     C23427   3.416   3.237   5.471  0.9774  0.5329 -0.0299
  936MOL0     O23428   3.555   3.249   5.451 -0.2763  0.2665 -0.3224
  936MOL0     C23429   3.593   3.252   5.306 -0.4511  0.0496 -0.8922
  936MOL0     C23430   3.742   3.270   5.282  0.1058  0.3515 -0.2448
  936MOL0     C23431   3.821   3.136   5.284  0.3876  0.4179 -0.1037
  936MOL0     C23432   3.975   3.146   5.251 -0.4980  0.2940 -0.3297
  936MOL0     C23433   4.076   3.032   5.310 -0.0109  0.5976 -0.2455
  936MOL0     C23434   4.026   2.899   5.262 -0.3975  0.0275 -0.8362
  936MOL0     C23435   4.125   2.772   5.268  0.3687 -0.0551  0.5567
  936MOL0     C23436   4.259   2.800   5.194 -0.0654  0.0013 -0.2923
  936MOL0     N23437   4.328   2.678   5.139  0.0904 -0.0582  0.2235
  936MOL0     C23438   4.336   2.553   5.183 -0.3786 -0.1901 -0.4177
  936MOL0     C23439   4.400   2.481   5.088 -0.5878 -0.0274  0.4309
  936MOL0     C23440   4.412   2.331   5.098 -0.1849 -0.6888 -0.0935
  936MOL0     C23441   4.557   2.289   5.089 -0.5638 -0.4146 -0.7713
  936MOL0     C23442   4.630   2.341   5.214 -0.4039  0.7863 -1.0093
  936MOL0     C23443   4.754   2.249   5.256  0.2895 -0.8764  0.1301
  936MOL0     O23444   4.874   2.297   5.192 -0.3862 -1.0690 -0.4208
  936MOL0     C23445   4.982   2.220   5.224 -0.5077 -0.8578 -0.4769
  936MOL0     C23446   5.032   2.236   5.361  0.4853  0.2465  0.3835
  936MOL0     C23447   5.135   2.154   5.399  0.8051  1.1600  0.3306
  936MOL0     C23448   5.190   2.053   5.314 -0.1713 -0.4033  0.0914
  936MOL0     C23449   5.272   1.947   5.360  1.6143 -0.5368  0.6710
  936MOL0     O23450   5.333   1.884   5.263  0.4749  0.4147 -0.3191
  936MOL0     C23451   5.407   1.773   5.292 -0.5525  0.5143  0.3962
  936MOL0     C23452   5.362   1.646   5.260  1.0372  0.4160  0.5411
  936MOL0     C23453   5.449   1.540   5.287  0.5628 -0.5111  0.5105
  936MOL0     C23454   5.574   1.557   5.335 -0.0669 -0.3132 -0.4010
  936MOL0     O23455   5.653   1.442   5.333 -0.0188  0.6009 -0.1265
  936MOL0     C23456   5.767   1.430   5.413  0.9521  0.5684 -0.2967
  936MOL0     C23457   5.847   1.299   5.380 -0.1288 -0.4289  0.3173
  936MOL0     C23458   5.986   1.299   5.450  0.1321 -0.3884 -1.0416
  936MOL0     C23459   6.069   1.178   5.425  0.4774 -0.5024  0.5834
  936MOL0     C23460   6.221   1.188   5.459 -0.5737  0.4989  0.1045
  936MOL0     C23461   6.252   1.251   5.593  0.0479  0.4854 -0.1948
  936MOL0     C23462   6.401   1.241   5.625  0.2541 -0.6365 -0.9907
  936MOL0     C23463   6.434   1.270   5.770  0.4900  0.4082  0.0688
  936MOL0    Cl23464   6.367   1.135   5.879  0.1200 -0.1762  0.0904
  936MOL0     C23465   5.612   1.687   5.370 -0.9073 -0.8010  1.2685
  936MOL0     C23466   5.529   1.792   5.354  0.4303 -0.2245 -0.6827
  936MOL0     O23467   5.283   1.925   5.479  0.0009 -0.1730 -0.7767
  936MOL0     C23468   5.131   2.040   5.183 -0.2197  0.6962 -0.6755
  936MOL0     C23469   5.031   2.121   5.141 -0.4819 -0.1494 -0.0459
  936MOL0     N23470   4.427   2.561   4.979  0.3220 -0.7014 -0.6439
  936MOL0     N23471   4.384   2.679   5.016 -0.7039  0.4070 -0.4379
  936MOL0     C23472   3.325   3.195   5.372 -0.7762 -0.1633  0.5395
  936MOL0     C23473   3.191   3.175   5.397  0.4011 -0.7269 -0.5403
  936MOL0     C23474   2.796   3.060   5.565 -0.2438 -0.9356 -0.2987
  936MOL0     C23475   2.746   3.140   5.672 -0.8685  0.5154 -0.0000
  936MOL0     C23476   2.612   3.153   5.701  0.8341  0.7379  0.5367
  936MOL0     C23477   2.520   3.070   5.629  0.5791 -1.1365 -0.4617
  936MOL0     O23478   2.383   3.070   5.652  0.0700 -0.3447 -0.6715
  936MOL0     C23479   2.341   3.152   5.762 -0.5753 -0.5232  0.6470
  936MOL0     C23480   2.190   3.130   5.765 -0.3361  0.0920  0.3090
  936MOL0     C23481   2.096   3.244   5.732  0.3782  0.2261  0.7373
  936MOL0     C23482   2.105   3.364   5.833 -0.4736  0.4731 -0.0961
  936MOL0     C23483   1.993   3.459   5.815 -0.1961  0.2192  0.9145
  936MOL0     C23484   1.904   3.540   5.792  0.0095 -0.4229  0.1489
  936MOL0     C23485   2.561   2.976   5.535  0.5441 -0.8948 -0.0357
  936MOL0     C23486   2.704   2.976   5.501 -0.0214  0.3630 -0.5190
  936MOL0     H23487   3.205   3.190   5.737  3.6905  1.4019  1.3980
  936MOL0     H23488   3.447   3.233   5.685  0.2821  0.0009  0.0941
  936MOL0     H23489   3.545   3.340   5.263  0.0402  2.2122  2.6152
  936MOL0     H23490   3.556   3.158   5.262  1.1900 -1.3241  0.5314
  936MOL0     H23491   3.782   3.326   5.367 -0.1401  1.1775 -0.6638
  936MOL0     H23492   3.767   3.328   5.193 -0.2194  0.9247  0.0339
  936MOL0     H23493   3.781   3.061   5.216  3.9421 -0.5299 -1.4226
  936MOL0     H23494   3.803   3.110   5.388 -3.5359  0.2362 -0.6800
  936MOL0     H23495   3.998   3.163   5.145  4.3109  4.7551  0.9931
  936MOL0     H23496   4.006   3.243   5.290 -0.9065  0.4337 -0.3557
  936MOL0     H23497   4.082   3.032   5.419 -0.2035  1.2530 -0.2293
  936MOL0     H23498   4.172   3.061   5.267 -0.1664  0.6049 -0.5926
  936MOL0     H23499   4.005   2.917   5.157 -4.3830  1.6733  0.0760
  936MOL0     H23500   3.927   2.868   5.296 -1.0230  1.1302 -1.5966
  936MOL0     H23501   4.133   2.754   5.375  1.7383 -1.3903  0.2585
  936MOL0     H23502   4.071   2.695   5.212 -0.3282 -0.0644  1.2255
  936MOL0     H23503   4.328   2.857   5.257  3.6990 -0.4975 -3.5616
  936MOL0     H23504   4.242   2.855   5.101 -0.3898 -0.3945 -0.4696
  936MOL0     H23505   4.303   2.513   5.279  1.4652  2.6794  1.5914
  936MOL0     H23506   4.350   2.288   5.018 -0.2304  2.9518 -2.2224
  936MOL0     H23507   4.379   2.287   5.192 -1.5821 -1.0748 -0.7267
  936MOL0     H23508   4.596   2.322   4.992 -0.1282 -3.3163 -1.6799
  936MOL0     H23509   4.553   2.181   5.102 -0.1452 -0.2366  1.0629
  936MOL0     H23510   4.679   2.437   5.197  2.5224 -0.3674  0.3098
  936MOL0     H23511   4.567   2.355   5.302  2.3486 -2.2180  1.7011
  936MOL0     H23512   4.726   2.156   5.205 -2.8813  1.3784 -2.6343
  936MOL0     H23513   4.753   2.230   5.364  0.6703 -0.6832  0.1712
  936MOL0     H23514   4.999   2.313   5.430  1.8382 -1.7761  3.5180
  936MOL0     H23515   5.171   2.154   5.501  1.1484  1.1666  0.2126
  936MOL0     H23516   5.269   1.629   5.207  1.5218  0.0536 -0.2207
  936MOL0     H23517   5.420   1.438   5.264  1.3033 -0.3125 -1.5404
  936MOL0     H23518   5.746   1.434   5.521  0.4445  0.7423 -0.3980
  936MOL0     H23519   5.831   1.518   5.399  0.8051  1.5112  3.6432
  936MOL0     H23520   5.869   1.305   5.273  0.5025  3.3342  0.5473
  936MOL0     H23521   5.797   1.205   5.407  0.4124 -1.2402 -1.3983
  936MOL0     H23522   5.947   1.315   5.551 -0.7217 -2.1557 -1.0516
  936MOL0     H23523   6.036   1.389   5.414 -0.2494 -0.1237 -0.9163
  936MOL0     H23524   6.029   1.094   5.482 -1.0004 -1.9431 -2.3995
  936MOL0     H23525   6.061   1.154   5.319  0.7930  2.2936 -0.1609
  936MOL0     H23526   6.268   1.254   5.385 -1.7085  1.5046  0.2537
  936MOL0     H23527   6.274   1.092   5.463 -2.8783 -0.9107 -0.7943
  936MOL0     H23528   6.197   1.218   5.682  0.4694 -0.8556 -0.4201
  936MOL0     H23529   6.225   1.357   5.589 -1.0295  0.2074 -0.4737
  936MOL0     H23530   6.444   1.147   5.592  0.3904 -0.0406 -2.6057
  936MOL0     H23531   6.461   1.318   5.576  4.3694 -0.7346  3.2327
  936MOL0     H23532   6.396   1.370   5.795  2.5699  1.4359 -0.5838
  936MOL0     H23533   6.541   1.286   5.787  0.7291  2.7010 -2.6230
  936MOL0     H23534   5.715   1.707   5.399 -0.3967  3.2101 -2.4447
  936MOL0     H23535   5.535   1.899   5.371 -0.6813  0.7518 -5.1342
  936MOL0     H23536   5.155   1.955   5.120  0.7631  0.8359 -0.5074
  936MOL0     H23537   5.003   2.102   5.038  1.3646 -0.9597 -0.4415
  936MOL0     H23538   3.357   3.190   5.269  3.5989 -0.9780  1.7077
  936MOL0     H23539   3.119   3.168   5.316  0.9055 -1.4386 -0.9407
  936MOL0     H23540   2.801   3.198   5.745 -2.2136  0.4290  1.1222
  936MOL0     H23541   2.582   3.215   5.785  3.1896  1.1437  1.1530
  936MOL0     H23542   2.378   3.254   5.749  0.4256 -0.9097  0.3344
  936MOL0     H23543   2.385   3.117   5.856  0.2284  1.4642  1.0649
  936MOL0     H23544   2.161   3.049   5.698 -2.6238 -1.2282  2.7036
  936MOL0     H23545   2.167   3.089   5.864  2.2717 -0.6059  0.7206
  936MOL0     H23546   1.995   3.204   5.736  0.3618  0.2481  0.5755
  936MOL0     H23547   2.103   3.265   5.625 -1.8938 -0.9596  0.2937
  936MOL0     H23548   2.098   3.336   5.939 -1.1621  1.8724  0.2528
  936MOL0     H23549   2.193   3.418   5.799 -1.6185  2.3595 -0.2131
  936MOL0     H23550   1.821   3.607   5.780 -0.3106 -0.4099  2.0971
  936MOL0     H23551   2.487   2.910   5.490 -0.0051 -0.1361 -0.2717
  936MOL0     H23552   2.732   2.901   5.427 -1.1333 -1.2081  0.5678
  937MOL0     O23553   5.999   2.855   6.877 -0.4080 -0.6276  0.1051
  937MOL0     C23554   5.980   2.873   6.758  0.5408 -0.4022 -0.3350
  937MOL0     O23555   5.911   2.981   6.710  0.2129  0.6824 -0.0532
  937MOL0     C23556   5.936   3.107   6.756 -0.0368  1.0017 -1.0350
  937MOL0     C23557   6.062   3.167   6.766  0.9451  0.3674 -0.4739
  937MOL0     C23558   6.071   3.297   6.819 -0.3733  0.1484 -0.5953
  937MOL0     C23559   5.966   3.369   6.865  0.1192  0.6066 -0.1438
  937MOL0     O23560   5.976   3.491   6.924  0.1878  0.4319  0.1454
  937MOL0     C23561   5.934   3.601   6.842  0.0946  0.2561 -0.1335
  937MOL0     C23562   6.045   3.675   6.782  0.2932 -0.0758  0.7811
  937MOL0     C23563   6.179   3.676   6.863  0.3011  0.6563  0.1540
  937MOL0     C23564   6.298   3.728   6.781 -0.0305  1.0377 -1.1070
  937MOL0     C23565   6.415   3.782   6.863 -0.4835  0.2185  0.9579
  937MOL0     C23566   6.488   3.667   6.935  0.0568 -0.9535 -0.2835
  937MOL0     C23567   6.573   3.572   6.847  0.1782 -0.4738  0.1581
  937MOL0     C23568   6.650   3.480   6.938  0.7938  0.1935  0.3659
  937MOL0     N23569   6.555   3.371   6.972 -0.0736  0.3606 -0.5116
  937MOL0     C23570   6.491   3.349   7.094 -0.9672  0.6475 -0.2522
  937MOL0     C23571   6.409   3.240   7.066 -0.3767  0.0254  0.2707
  937MOL0     C23572   6.310   3.183   7.169 -0.2111  0.8125 -0.3714
  937MOL0     C23573   6.173   3.138   7.118  0.0774  0.2258 -0.4138
  937MOL0     C23574   6.106   3.024   7.175  0.1812  1.3667 -0.8402
  937MOL0     C23575   6.188   2.898   7.155  0.0219  0.8034 -0.6825
  937MOL0     O23576   6.131   2.802   7.259 -0.7171 -0.0166  0.5278
  937MOL0     C23577   6.101   2.683   7.208  0.0714 -0.1485  0.3097
  937MOL0     C23578   5.970   2.657   7.162 -0.7676  0.1819 -0.2620
  937MOL0     C23579   5.931   2.546   7.084 -0.3553 -0.4992 -0.3591
  937MOL0     C23580   6.031   2.449   7.064  1.1326 -0.8130 -0.7369
  937MOL0     C23581   5.991   2.316   7.012 -0.0901  0.4073 -1.0190
  937MOL0     O23582   5.858   2.291   7.013 -0.3969  0.0498  0.4060
  937MOL0     C23583   5.804   2.167   7.000 -0.4818  0.5631 -1.0278
  937MOL0     C23584   5.667   2.171   6.968 -1.0301  0.0198 -0.5621
  937MOL0     C23585   5.592   2.054   6.944 -0.8207  0.1630 -0.1484
  937MOL0     C23586   5.665   1.928   6.958  0.1620  0.2408 -0.2178
  937MOL0     O23587   5.585   1.813   6.946 -0.2786  0.1791 -0.4571
  937MOL0     C23588   5.603   1.745   6.820 -0.2205 -0.4652  0.2699
  937MOL0     C23589   5.500   1.629   6.824 -0.2433  0.0727  0.5864
  937MOL0     C23590   5.522   1.523   6.712  0.3246  0.3185  0.7559
  937MOL0     C23591   5.578   1.566   6.579  0.3594  0.9616  1.5860
  937MOL0     C23592   5.623   1.440   6.503  0.5187 -0.0401 -0.3231
  937MOL0     C23593   5.514   1.340   6.482  0.3655  0.3171  0.1799
  937MOL0     C23594   5.543   1.230   6.382  0.2728  0.9387 -0.3848
  937MOL0     C23595   5.480   1.246   6.249  0.0965 -0.4826 -0.5441
  937MOL0    Cl23596   5.306   1.209   6.244 -0.1369  0.1920  0.1639
  937MOL0     C23597   5.804   1.928   6.987 -0.4163  0.3351  0.4698
  937MOL0     C23598   5.876   2.047   7.017  0.5708 -0.6328  1.1920
  937MOL0     O23599   6.082   2.238   6.977  0.7160 -0.3224  1.7516
  937MOL0     C23600   6.161   2.480   7.104  0.3978  0.8807  0.9601
  937MOL0     C23601   6.200   2.591   7.170  0.2197  0.7556 -0.2286
  937MOL0     N23602   6.436   3.211   6.929  0.4013 -0.0670  0.6632
  937MOL0     N23603   6.533   3.282   6.879  1.3089 -0.3775  0.2906
  937MOL0     C23604   5.838   3.303   6.862  0.2924  0.3857 -0.4229
  937MOL0     C23605   5.824   3.171   6.804 -0.4969  0.6459 -0.0869
  937MOL0     C23606   6.023   2.766   6.670  0.0147 -0.0496 -0.7455
  937MOL0     C23607   5.992   2.777   6.532 -0.0596  0.2419  0.3513
  937MOL0     C23608   6.049   2.690   6.436 -0.5490  0.8140  1.3498
  937MOL0     C23609   6.106   2.567   6.481 -0.3197  0.2291  0.1958
  937MOL0     O23610   6.165   2.482   6.392 -0.6608 -0.2993  0.4362
  937MOL0     C23611   6.100   2.455   6.262  0.7343 -0.1313 -0.2079
  937MOL0     C23612   6.138   2.308   6.221  0.1292  0.1507  1.2700
  937MOL0     C23613   6.278   2.267   6.229 -0.2548  1.2712  1.1450
  937MOL0     C23614   6.306   2.125   6.182 -0.0987 -1.0290 -0.2919
  937MOL0     C23615   6.262   2.025   6.284 -0.4670 -1.2286  0.1833
  937MOL0     C23616   6.263   1.935   6.365 -0.7668 -0.5434 -0.0022
  937MOL0     C23617   6.131   2.556   6.622 -0.0980  0.7935  0.8455
  937MOL0     C23618   6.093   2.657   6.707 -1.2179 -1.3842  0.2374
  937MOL0     H23619   6.144   3.116   6.718 -0.1177  0.1758 -2.1725
  937MOL0     H23620   6.168   3.344   6.814 -0.2593  0.0880  0.6588
  937MOL0     H23621   5.881   3.667   6.911 -0.4743  2.0123 -2.1611
  937MOL0     H23622   5.858   3.585   6.765 -0.9085  4.7630 -0.3000
  937MOL0     H23623   6.008   3.778   6.775 -1.2862 -0.7332 -2.3834
  937MOL0     H23624   6.055   3.646   6.677  1.2283  0.9304  0.5737
  937MOL0     H23625   6.204   3.572   6.889 -0.0575  0.4246 -0.4254
  937MOL0     H23626   6.179   3.738   6.954  1.4775  0.6366  0.1905
  937MOL0     H23627   6.326   3.651   6.709  0.5993 -1.0684  1.2704
  937MOL0     H23628   6.266   3.818   6.728 -1.3964  1.7789  0.8471
  937MOL0     H23629   6.374   3.851   6.936 -6.0571 -1.9890  0.4025
  937MOL0     H23630   6.490   3.835   6.804 -1.8102  0.3721 -0.6685
  937MOL0     H23631   6.419   3.600   6.988 -2.0265  0.7775 -0.6883
  937MOL0     H23632   6.553   3.717   7.008  2.4426  0.0898 -2.9609
  937MOL0     H23633   6.510   3.522   6.774 -0.2981 -0.1368  0.3283
  937MOL0     H23634   6.639   3.634   6.786  0.3019  0.5928  1.3154
  937MOL0     H23635   6.688   3.530   7.028  1.0067  1.7354 -0.5476
  937MOL0     H23636   6.728   3.434   6.876 -3.2079 -1.6099 -3.8440
  937MOL0     H23637   6.491   3.404   7.188 -1.0261 -0.7290  0.5867
  937MOL0     H23638   6.296   3.272   7.231 -3.3081  0.3160 -0.1956
  937MOL0     H23639   6.365   3.108   7.227  1.8296  2.7959  0.4424
  937MOL0     H23640   6.164   3.129   7.009  0.0214 -1.0820 -0.3173
  937MOL0     H23641   6.104   3.221   7.134 -0.5453 -0.2833 -0.4477
  937MOL0     H23642   6.097   3.031   7.284 -0.5240 -1.2204 -0.6554
  937MOL0     H23643   6.006   3.024   7.131 -0.6444  1.0614  0.9448
  937MOL0     H23644   6.294   2.919   7.171  0.3611  0.0184 -1.8092
  937MOL0     H23645   6.170   2.860   7.054 -0.8703 -1.0291  0.1173
  937MOL0     H23646   5.892   2.730   7.178 -0.9284  0.1350 -0.8050
  937MOL0     H23647   5.827   2.524   7.065 -0.5160  0.6560 -0.9223
  937MOL0     H23648   5.614   2.261   6.940  0.3560  1.1081  0.1800
  937MOL0     H23649   5.488   2.072   6.918 -1.1037 -0.0373  0.8097
  937MOL0     H23650   5.705   1.715   6.796 -0.0461  0.8322 -0.7058
  937MOL0     H23651   5.552   1.797   6.738 -1.7734 -1.1931  0.7266
  937MOL0     H23652   5.401   1.672   6.811  0.3125  0.6943 -2.2304
  937MOL0     H23653   5.502   1.588   6.925  1.4079  4.4097  2.5629
  937MOL0     H23654   5.418   1.495   6.692 -1.0787  3.8744  2.3092
  937MOL0     H23655   5.566   1.434   6.760 -4.1268  0.3865  6.0799
  937MOL0     H23656   5.502   1.618   6.520 -1.9500 -3.2315  0.4300
  937MOL0     H23657   5.666   1.630   6.590 -0.5640  2.1902  2.0129
  937MOL0     H23658   5.710   1.397   6.554  1.7848 -0.1955 -2.4884
  937MOL0     H23659   5.662   1.466   6.404 -3.6032  1.6846 -1.7480
  937MOL0     H23660   5.418   1.391   6.469  0.2303 -0.3651 -1.8152
  937MOL0     H23661   5.504   1.284   6.576  1.1909  1.6588  1.1031
  937MOL0     H23662   5.651   1.226   6.366  0.6096  0.5111  1.6717
  937MOL0     H23663   5.505   1.132   6.413  1.6085  0.4052 -0.3822
  937MOL0     H23664   5.531   1.186   6.173  5.3121  1.2671  1.1730
  937MOL0     H23665   5.493   1.353   6.228  0.3779 -0.2110  0.9070
  937MOL0     H23666   5.853   1.832   6.990  1.0009  0.8540 -2.4551
  937MOL0     H23667   5.981   2.051   7.044  1.4619 -0.2671 -1.9342
  937MOL0     H23668   6.231   2.397   7.091 -2.2042 -1.4243  0.7331
  937MOL0     H23669   6.303   2.607   7.200  1.1142 -4.2945  0.1757
  937MOL0     H23670   5.757   3.356   6.911  0.9388  0.2223  0.8620
  937MOL0     H23671   5.733   3.114   6.792  1.3989 -3.2987  2.1780
  937MOL0     H23672   5.929   2.854   6.489 -2.0790 -2.0153 -0.9994
  937MOL0     H23673   6.042   2.714   6.330 -1.5546 -4.3857 -0.0338
  937MOL0     H23674   6.127   2.532   6.190  1.2170 -0.2042 -0.1097
  937MOL0     H23675   5.992   2.459   6.277  0.6793  2.7649 -0.8767
  937MOL0     H23676   6.081   2.234   6.278  0.2648  0.1066  1.3494
  937MOL0     H23677   6.105   2.285   6.119 -3.6338 -0.1923  2.3905
  937MOL0     H23678   6.299   2.267   6.336  3.4244 -3.3856  0.7659
  937MOL0     H23679   6.348   2.335   6.179  2.7055 -0.3671  2.7979
  937MOL0     H23680   6.264   2.118   6.081  0.9924  0.5294 -0.8913
  937MOL0     H23681   6.414   2.113   6.168 -0.1001 -0.4142 -0.8557
  937MOL0     H23682   6.254   1.845   6.424 -2.7831 -1.5174 -1.6731
  937MOL0     H23683   6.185   2.471   6.662 -2.8664 -1.0505  0.8754
  937MOL0     H23684   6.119   2.655   6.813  0.4269 -0.2424 -0.0992
  938MOL0     O23685   4.884   8.845   4.224  0.1100 -0.6304  0.2905
  938MOL0     C23686   4.767   8.854   4.189 -0.6682 -0.7523  0.0387
  938MOL0     O23687   4.668   8.760   4.196 -0.9970 -0.0033 -0.2473
  938MOL0     C23688   4.678   8.633   4.254 -0.8598 -0.6383 -0.4263
  938MOL0     C23689   4.563   8.570   4.247 -0.5474  0.3810  0.0740
  938MOL0     C23690   4.547   8.449   4.319  0.2935  0.2043  0.9202
  938MOL0     C23691   4.650   8.384   4.379  0.0810  0.3514  0.0610
  938MOL0     O23692   4.641   8.259   4.439  0.0588  0.4363  0.0757
  938MOL0     C23693   4.559   8.165   4.372 -0.4092 -0.1510  0.1427
  938MOL0     C23694   4.578   8.034   4.440  0.1726  0.3752  0.5920
  938MOL0     C23695   4.507   8.028   4.568 -0.4010 -0.1932 -0.3285
  938MOL0     C23696   4.553   8.120   4.685  0.2862 -0.5368 -0.2800
  938MOL0     C23697   4.510   8.071   4.824 -0.4170 -1.1133 -0.3797
  938MOL0     C23698   4.356   8.058   4.851  0.0460  0.0323 -0.0859
  938MOL0     C23699   4.323   8.024   4.997 -0.1336 -0.3360  0.8313
  938MOL0     C23700   4.174   8.025   5.019  0.6656  0.5448 -0.2080
  938MOL0     N23701   4.130   8.029   5.162  0.5584 -0.1558  0.4104
  938MOL0     C23702   4.195   7.984   5.273  0.5671 -0.0904  0.2922
  938MOL0     C23703   4.116   8.028   5.372  0.5323  0.3100 -0.3873
  938MOL0     C23704   4.158   8.007   5.517 -1.1363 -0.5478 -0.0079
  938MOL0     C23705   4.297   8.069   5.549  0.9810  0.1189 -1.0048
  938MOL0     C23706   4.315   8.219   5.538 -0.4123 -1.4066  0.2879
  938MOL0     C23707   4.228   8.313   5.629  0.3069 -0.4154  0.5212
  938MOL0     O23708   4.268   8.448   5.624  0.3755  0.5871 -0.2538
  938MOL0     C23709   4.190   8.536   5.696 -0.3547 -0.5248  0.5375
  938MOL0     C23710   4.087   8.502   5.779 -0.3859  0.2480 -1.4554
  938MOL0     C23711   4.011   8.609   5.834  0.5931  1.1718 -0.1974
  938MOL0     C23712   4.036   8.741   5.818  0.1809  0.5793 -1.1149
  938MOL0     C23713   3.957   8.841   5.882  1.1360  0.7986  0.7830
  938MOL0     O23714   3.823   8.822   5.907 -0.6149  0.5399  0.0898
  938MOL0     C23715   3.751   8.930   5.954  0.8683  0.7195 -0.8014
  938MOL0     C23716   3.637   8.903   6.037 -0.3804  0.7338  1.4432
  938MOL0     C23717   3.547   8.998   6.078  0.1671 -0.8186  0.4303
  938MOL0     C23718   3.568   9.133   6.028 -0.1581  1.2093 -0.3524
  938MOL0     O23719   3.489   9.249   6.034 -0.1266 -0.8418  1.0494
  938MOL0     C23720   3.364   9.228   6.098  0.7277 -0.6452 -0.3663
  938MOL0     C23721   3.305   9.368   6.114  0.9350  0.9471  0.7760
  938MOL0     C23722   3.252   9.411   5.970  0.3699  1.9180 -0.7833
  938MOL0     C23723   3.181   9.536   5.967 -0.9590 -0.0567 -0.8660
  938MOL0     C23724   3.082   9.550   5.859  0.8762  0.1907 -0.1047
  938MOL0     C23725   3.114   9.670   5.783  0.3428 -0.1602  0.8314
  938MOL0     C23726   3.083   9.656   5.635 -0.5970 -0.0601  1.0352
  938MOL0     C23727   2.941   9.671   5.582 -0.1486 -0.9579  0.1892
  938MOL0    Cl23728   2.844   9.534   5.621 -0.1554 -0.1036 -0.7196
  938MOL0     C23729   3.684   9.158   5.966  0.3212  1.1652  0.2536
  938MOL0     C23730   3.773   9.064   5.921  0.3429  0.3855  0.3234
  938MOL0     O23731   4.024   8.938   5.909  0.1950 -0.2114 -0.3726
  938MOL0     C23732   4.148   8.778   5.734 -0.1749 -0.0101  0.1757
  938MOL0     C23733   4.216   8.671   5.663  0.0397 -0.7771  0.1566
  938MOL0     N23734   4.003   8.082   5.327 -0.2232  0.6137  0.6010
  938MOL0     N23735   4.011   8.073   5.198  0.9643  0.1322 -0.3191
  938MOL0     C23736   4.774   8.447   4.378  0.6589 -0.0119  0.2959
  938MOL0     C23737   4.789   8.575   4.314  0.8789 -0.9094 -0.8023
  938MOL0     C23738   4.738   8.981   4.123 -0.2339  0.4931 -0.3309
  938MOL0     C23739   4.607   9.017   4.099 -0.4585 -0.2532  0.6746
  938MOL0     C23740   4.584   9.123   4.007 -0.0845 -1.0945  0.5442
  938MOL0     C23741   4.681   9.210   3.962 -0.7802 -0.8221 -1.5152
  938MOL0     O23742   4.630   9.316   3.886  0.2265 -0.6361  0.2477
  938MOL0     C23743   4.718   9.359   3.774  0.9360  1.3583  0.1831
  938MOL0     C23744   4.634   9.411   3.660  0.1167  0.0767 -0.4449
  938MOL0     C23745   4.679   9.544   3.596  0.1242 -0.3159 -0.0507
  938MOL0     C23746   4.600   9.562   3.466 -0.7791 -0.3360  0.1990
  938MOL0     C23747   4.604   9.463   3.362  0.8145  0.1523  0.4877
  938MOL0     C23748   4.586   9.384   3.276 -0.6963  0.7641  0.1830
  938MOL0     C23749   4.816   9.170   3.986 -0.5774 -0.4652 -0.8561
  938MOL0     C23750   4.839   9.064   4.073 -0.7510 -0.3379 -0.1784
  938MOL0     H23751   4.477   8.613   4.197 -0.4355  3.3726  2.1719
  938MOL0     H23752   4.448   8.404   4.309  1.0341 -0.9978 -1.8142
  938MOL0     H23753   4.601   8.152   4.273 -2.2624 -2.5429 -0.4180
  938MOL0     H23754   4.454   8.196   4.380 -1.1125 -2.7027  3.4231
  938MOL0     H23755   4.686   8.021   4.452 -0.1626 -0.0282  4.0431
  938MOL0     H23756   4.549   7.949   4.378  3.3373  0.5689 -1.4209
  938MOL0     H23757   4.520   7.925   4.602 -0.4106  0.6282  2.4925
  938MOL0     H23758   4.399   8.033   4.554 -0.7495 -2.0958  1.2754
  938MOL0     H23759   4.661   8.137   4.692  0.1553  1.1880 -1.7398
  938MOL0     H23760   4.513   8.219   4.658  2.2226  0.3459 -0.0893
  938MOL0     H23761   4.547   8.139   4.901  0.4300 -1.9384 -0.0411
  938MOL0     H23762   4.564   7.980   4.850 -0.7986 -1.1803  0.1992
  938MOL0     H23763   4.312   7.981   4.786  1.7607  1.7567 -3.5640
  938MOL0     H23764   4.293   8.145   4.831 -1.7973 -1.4893 -1.3037
  938MOL0     H23765   4.369   7.926   5.016 -1.5218 -1.3701 -0.8484
  938MOL0     H23766   4.363   8.074   5.086  3.4070  0.7293 -1.2056
  938MOL0     H23767   4.128   7.943   4.964  2.3605 -2.4535  2.4999
  938MOL0     H23768   4.151   8.123   4.975 -1.8188 -0.8425 -2.2337
  938MOL0     H23769   4.296   7.946   5.285  0.0115 -1.3161  1.3695
  938MOL0     H23770   4.150   7.899   5.534  1.9022 -1.2497 -2.0811
  938MOL0     H23771   4.078   8.051   5.576 -1.2167 -1.0985  0.3040
  938MOL0     H23772   4.364   8.036   5.470  3.7826  1.2488  0.7601
  938MOL0     H23773   4.339   8.031   5.643  3.7335  1.1469 -1.7517
  938MOL0     H23774   4.419   8.253   5.540 -0.2450 -1.5196 -2.4070
  938MOL0     H23775   4.290   8.230   5.432  0.9750 -2.0747 -0.1463
  938MOL0     H23776   4.231   8.274   5.731  3.9783 -1.0076  0.3188
  938MOL0     H23777   4.124   8.289   5.605  0.1101  1.4974 -0.7627
  938MOL0     H23778   4.066   8.396   5.793  1.0729  0.2235  1.1870
  938MOL0     H23779   3.917   8.592   5.887 -0.1833 -0.0983 -1.8979
  938MOL0     H23780   3.596   8.810   6.076 -2.1170  0.7245 -0.2486
  938MOL0     H23781   3.468   8.976   6.149 -0.4537  1.0332  0.3748
  938MOL0     H23782   3.396   9.191   6.195 -0.0620 -0.8127 -0.1678
  938MOL0     H23783   3.298   9.157   6.048 -0.0682 -2.0128  2.4649
  938MOL0     H23784   3.387   9.439   6.128 -0.4995  2.0887  4.4362
  938MOL0     H23785   3.229   9.368   6.192  0.7326 -3.5793  0.8864
  938MOL0     H23786   3.180   9.335   5.937  1.9247  0.0763 -0.0921
  938MOL0     H23787   3.340   9.424   5.907  1.6469 -0.0460  0.4983
  938MOL0     H23788   3.123   9.543   6.059 -0.1061  0.1407 -0.3340
  938MOL0     H23789   3.266   9.605   5.970  0.5622 -1.7552  4.0342
  938MOL0     H23790   2.985   9.562   5.909  0.7445  2.2783 -0.7832
  938MOL0     H23791   3.082   9.463   5.793 -3.2294 -1.0036  1.1604
  938MOL0     H23792   3.219   9.699   5.780  0.2868  0.0124 -1.4732
  938MOL0     H23793   3.055   9.750   5.829 -2.1492 -1.8641  0.8102
  938MOL0     H23794   3.158   9.724   5.592  1.3965 -1.0820  2.7407
  938MOL0     H23795   3.117   9.558   5.603 -2.8444  0.4607 -3.9071
  938MOL0     H23796   2.945   9.672   5.472 -2.3605  0.0992  0.0647
  938MOL0     H23797   2.906   9.772   5.602  0.1761 -0.2984 -2.2202
  938MOL0     H23798   3.695   9.261   5.934 -2.9774  1.0636 -1.6918
  938MOL0     H23799   3.849   9.101   5.854 -2.5818  0.2706 -3.3587
  938MOL0     H23800   4.172   8.881   5.708 -0.5586  0.5639  1.9894
  938MOL0     H23801   4.293   8.696   5.590 -0.2643  0.6542  0.2940
  938MOL0     H23802   4.867   8.405   4.412  1.1024 -1.5061 -2.4332
  938MOL0     H23803   4.886   8.618   4.337  0.4288 -2.1482  4.5820
  938MOL0     H23804   4.531   8.956   4.145 -1.0778 -1.9570 -2.3293
  938MOL0     H23805   4.483   9.147   3.977  1.6995  1.0938 -5.0732
  938MOL0     H23806   4.777   9.276   3.736 -3.0388 -1.2662 -0.8696
  938MOL0     H23807   4.782   9.438   3.815  1.6599  3.4580 -4.4303
  938MOL0     H23808   4.634   9.334   3.583 -3.9104  0.2595 -0.8528
  938MOL0     H23809   4.530   9.419   3.692 -1.2384 -1.6794 -3.9034
  938MOL0     H23810   4.787   9.530   3.581  0.0255  1.5189 -3.3783
  938MOL0     H23811   4.648   9.627   3.661  0.1281 -1.3636  1.3412
  938MOL0     H23812   4.498   9.580   3.502 -1.6669  0.9395 -2.6298
  938MOL0     H23813   4.641   9.655   3.425  1.2033 -2.3914 -2.8840
  938MOL0     H23814   4.566   9.315   3.196  2.4860 -1.3353  1.0222
  938MOL0     H23815   4.893   9.233   3.943 -1.6293  1.3372 -0.1837
  938MOL0     H23816   4.940   9.039   4.101 -1.5974 -2.8153  0.9551
  939MOL0     O23817   8.065   3.188   5.503  0.1621 -0.5514 -0.8134
  939MOL0     C23818   8.019   3.249   5.595  0.2430 -1.2289 -0.4467
  939MOL0     O23819   8.023   3.383   5.613 -0.4098 -0.4252  0.0441
  939MOL0     C23820   8.082   3.480   5.527  0.8024  0.2414 -0.3514
  939MOL0     C23821   8.095   3.612   5.577 -1.4607  0.0213  0.3619
  939MOL0     C23822   8.134   3.711   5.484 -0.6624  0.2514  1.2980
  939MOL0     C23823   8.170   3.685   5.347 -0.0596 -0.4888 -0.4469
  939MOL0     O23824   8.212   3.786   5.275  0.5589 -0.5036 -0.1383
  939MOL0     C23825   8.331   3.761   5.207 -0.0731  0.1966  0.0455
  939MOL0     C23826   8.378   3.890   5.142 -0.1941 -0.0994 -0.2891
  939MOL0     C23827   8.497   3.890   5.048  0.3967 -0.9556  0.3864
  939MOL0     C23828   8.535   4.038   5.020 -0.4913 -0.8549 -0.1842
  939MOL0     C23829   8.663   4.055   4.938  0.9907  0.7449  0.6397
  939MOL0     C23830   8.704   4.206   4.920  1.1938  0.1535 -0.5721
  939MOL0     C23831   8.834   4.228   4.849  0.3779 -0.5338  0.5452
  939MOL0     C23832   8.895   4.366   4.869  0.7178  0.9214  0.1125
  939MOL0     N23833   9.037   4.372   4.802  1.0007 -0.3742  0.2158
  939MOL0     C23834   9.090   4.488   4.741  0.0368  0.5940  0.2489
  939MOL0     C23835   9.222   4.470   4.725  0.2109 -0.3705 -0.1654
  939MOL0     C23836   9.322   4.560   4.657 -0.2685  0.4789  0.8724
  939MOL0     C23837   9.399   4.502   4.544 -0.4050  1.2530  0.5937
  939MOL0     C23838   9.478   4.611   4.461 -0.5201  0.3123  1.0983
  939MOL0     C23839   9.586   4.674   4.541 -1.0280 -0.9220 -0.2040
  939MOL0     O23840   9.683   4.580   4.586 -0.7970  1.3556 -0.9166
  939MOL0     C23841   9.781   4.531   4.499 -0.2864  0.4222  1.2989
  939MOL0     C23842   9.810   4.567   4.366  0.6817 -0.6433  0.0003
  939MOL0     C23843   9.918   4.517   4.301  0.1778  0.5369 -0.4386
  939MOL0     C23844   9.985   4.414   4.357 -0.9413  0.3967  0.1274
  939MOL0     C23845  10.067   4.340   4.266 -0.3726 -0.1691 -0.2795
  939MOL0     O23846  10.018   4.323   4.137 -0.3980  0.3971 -0.0076
  939MOL0     C23847  10.094   4.250   4.054 -0.4333  0.7209  0.9281
  939MOL0     C23848  10.178   4.308   3.953 -0.9459  0.3411 -0.0551
  939MOL0     C23849  10.251   4.222   3.870 -0.3713 -0.8913  1.1528
  939MOL0     C23850  10.246   4.087   3.884 -0.1270  0.2962  0.0660
  939MOL0     O23851  10.311   4.012   3.792 -0.2727 -0.1231 -0.5685
  939MOL0     C23852  10.337   3.874   3.816  0.9648  0.6790  0.4101
  939MOL0     C23853  10.469   3.831   3.736  1.0744  0.8377 -0.3691
  939MOL0     C23854  10.449   3.691   3.688  0.1398 -0.1317  0.8838
  939MOL0     C23855  10.564   3.625   3.619 -0.4742 -0.5295  0.4897
  939MOL0     C23856  10.519   3.491   3.585  0.3807  1.0986  0.1061
  939MOL0     C23857  10.624   3.416   3.496  0.1719 -0.3780 -0.1704
  939MOL0     C23858  10.611   3.262   3.471  0.4595  0.0688  0.4643
  939MOL0     C23859  10.688   3.220   3.343 -0.3664 -0.1470 -0.7503
  939MOL0    Cl23860  10.651   3.059   3.304 -0.2712  0.0506 -0.1917
  939MOL0     C23861  10.164   4.031   3.984  0.0243  0.2752  0.5016
  939MOL0     C23862  10.080   4.112   4.059  0.0337  0.5657  0.1062
  939MOL0     O23863  10.168   4.294   4.311  0.1729  0.2491  0.5209
  939MOL0     C23864   9.969   4.373   4.484  0.2032  0.4422  0.2504
  939MOL0     C23865   9.865   4.432   4.559 -0.0845  0.7545  0.2628
  939MOL0     N23866   9.245   4.346   4.776  0.3849 -0.1262  0.0506
  939MOL0     N23867   9.141   4.289   4.822 -0.3528  0.1951  0.1097
  939MOL0     C23868   8.165   3.551   5.306  0.1514  0.2958  0.3308
  939MOL0     C23869   8.114   3.451   5.398  0.7200 -0.3120  0.3354
  939MOL0     C23870   7.942   3.175   5.687 -0.1848  0.0235 -0.4379
  939MOL0     C23871   7.882   3.240   5.797  1.1586 -0.4131 -0.1606
  939MOL0     C23872   7.793   3.185   5.886 -0.9444  0.3277  0.5254
  939MOL0     C23873   7.771   3.049   5.879  0.2489 -0.2124 -0.4321
  939MOL0     O23874   7.680   2.986   5.957 -1.1063 -0.2473 -0.7078
  939MOL0     C23875   7.594   3.047   6.054 -0.3411 -0.1315  0.7122
  939MOL0     C23876   7.520   2.937   6.131 -0.7233 -1.3126  0.0348
  939MOL0     C23877   7.424   3.006   6.225  0.0277 -0.1783  0.6662
  939MOL0     C23878   7.488   3.111   6.329  0.8746 -0.7944  0.2417
  939MOL0     C23879   7.368   3.145   6.419  0.5969  0.3136  0.6182
  939MOL0     C23880   7.278   3.179   6.490 -1.0135  0.3870 -0.0357
  939MOL0     C23881   7.838   2.969   5.780 -0.4311 -0.5467  0.2858
  939MOL0     C23882   7.923   3.034   5.686  0.0580 -0.5603 -0.0884
  939MOL0     H23883   8.075   3.638   5.680  3.6998  0.4372  1.5464
  939MOL0     H23884   8.145   3.811   5.525  0.7106 -1.0121  4.3222
  939MOL0     H23885   8.332   3.681   5.131 -1.1025 -0.8699  1.1099
  939MOL0     H23886   8.396   3.731   5.290 -3.0894 -3.0239  1.5188
  939MOL0     H23887   8.414   3.949   5.227  2.8479  0.8710 -2.0824
  939MOL0     H23888   8.293   3.939   5.095 -0.3793  0.1636  0.3046
  939MOL0     H23889   8.466   3.847   4.952  1.9403  2.1544 -1.6557
  939MOL0     H23890   8.584   3.840   5.092  0.7057 -0.6388  0.1402
  939MOL0     H23891   8.452   4.089   4.970  1.5190  0.1852 -2.7366
  939MOL0     H23892   8.550   4.094   5.113 -0.3012 -0.3857 -0.4907
  939MOL0     H23893   8.653   4.006   4.841  2.4806 -1.5235  1.5503
  939MOL0     H23894   8.739   3.995   4.990  0.7816 -2.4855 -2.4118
  939MOL0     H23895   8.706   4.260   5.015  0.0506  1.0332 -1.0189
  939MOL0     H23896   8.620   4.250   4.866 -3.3615 -1.0329  4.6035
  939MOL0     H23897   8.913   4.159   4.879  0.6246  0.5965  2.7515
  939MOL0     H23898   8.831   4.215   4.741  0.6782 -2.4302  0.7324
  939MOL0     H23899   8.914   4.387   4.975  1.5994  0.3617  0.0752
  939MOL0     H23900   8.829   4.445   4.832  3.4013  2.5827 -1.4638
  939MOL0     H23901   9.039   4.582   4.717  2.1525  1.2297 -2.1664
  939MOL0     H23902   9.399   4.587   4.730 -0.4485  2.2535  0.4630
  939MOL0     H23903   9.272   4.651   4.622 -2.9216 -1.1792  0.1017
  939MOL0     H23904   9.321   4.452   4.486 -1.1288  0.6115  2.0762
  939MOL0     H23905   9.469   4.424   4.576 -3.5545 -1.6173  1.0427
  939MOL0     H23906   9.528   4.554   4.383  1.4154  0.7608  1.9630
  939MOL0     H23907   9.403   4.683   4.425 -0.6058 -0.5588 -0.5747
  939MOL0     H23908   9.527   4.713   4.624 -0.3377 -1.3326  0.4952
  939MOL0     H23909   9.633   4.763   4.497  0.2119 -0.2514  2.2410
  939MOL0     H23910   9.754   4.646   4.316 -1.5700 -2.3273 -0.2823
  939MOL0     H23911   9.941   4.548   4.200 -0.4386  1.9560 -0.1703
  939MOL0     H23912  10.190   4.416   3.955 -0.4863  0.2802  0.9436
  939MOL0     H23913  10.317   4.267   3.796 -1.1466 -3.2202 -1.1189
  939MOL0     H23914  10.259   3.818   3.763 -0.1214  4.6739 -2.6858
  939MOL0     H23915  10.352   3.847   3.921  0.8179 -2.7679 -0.3384
  939MOL0     H23916  10.552   3.858   3.802 -0.2129  1.6217  0.9906
  939MOL0     H23917  10.480   3.893   3.647 -1.1121  0.0569 -1.2612
  939MOL0     H23918  10.363   3.691   3.620  1.6433 -2.7045 -1.2078
  939MOL0     H23919  10.425   3.619   3.767  1.5212 -3.3442 -1.4087
  939MOL0     H23920  10.583   3.670   3.522  0.8333 -0.9927  0.5095
  939MOL0     H23921  10.663   3.620   3.665  1.7204 -1.0983 -3.8296
  939MOL0     H23922  10.428   3.482   3.525  1.8427 -1.8979 -1.9199
  939MOL0     H23923  10.505   3.436   3.678  3.3410 -1.2055 -0.6533
  939MOL0     H23924  10.724   3.435   3.536 -0.9539  2.3888  1.6565
  939MOL0     H23925  10.609   3.464   3.399  0.1849  0.9635  0.4713
  939MOL0     H23926  10.653   3.219   3.562 -0.6171  0.7453  1.3129
  939MOL0     H23927  10.505   3.236   3.467 -0.4445  2.6290  3.4394
  939MOL0     H23928  10.795   3.234   3.364 -0.0655  0.4562 -2.5053
  939MOL0     H23929  10.665   3.294   3.266  1.9128  1.5827  0.1260
  939MOL0     H23930  10.158   3.923   3.992  1.2467  0.1303 -0.2222
  939MOL0     H23931  10.009   4.068   4.129 -3.2640  5.3565  0.2907
  939MOL0     H23932  10.021   4.286   4.525 -0.2436 -1.1981 -2.4144
  939MOL0     H23933   9.848   4.394   4.659  1.0617 -3.2599 -0.8554
  939MOL0     H23934   8.185   3.529   5.201  1.5224  2.0886  0.1554
  939MOL0     H23935   8.090   3.353   5.356  0.3231 -0.0745 -0.0043
  939MOL0     H23936   7.905   3.346   5.809 -3.9836  1.3183 -2.3956
  939MOL0     H23937   7.746   3.237   5.969 -0.9825  0.6973  0.2744
  939MOL0     H23938   7.516   3.102   6.001 -0.3894 -0.5251  0.3699
  939MOL0     H23939   7.657   3.107   6.122 -0.0643 -0.5805  0.8580
  939MOL0     H23940   7.451   2.877   6.070 -1.5379 -0.4063  0.0314
  939MOL0     H23941   7.587   2.879   6.194 -2.8802 -0.7008  3.0937
  939MOL0     H23942   7.359   2.932   6.272 -3.7140  1.8799 -0.8117
  939MOL0     H23943   7.351   3.051   6.158 -0.3090 -0.1505  1.0460
  939MOL0     H23944   7.568   3.058   6.382 -0.7446 -3.2331  0.3547
  939MOL0     H23945   7.521   3.207   6.287  0.8228 -1.7125 -1.9799
  939MOL0     H23946   7.200   3.204   6.560 -2.0975 -2.2956 -0.1680
  939MOL0     H23947   7.821   2.862   5.785 -2.4958 -0.2335  0.8077
  939MOL0     H23948   7.961   2.972   5.606 -1.3643  0.2919 -1.4992
  940MOL0     O23949   3.522   9.833   8.324 -0.0341 -0.7464 -0.6460
  940MOL0     C23950   3.455   9.851   8.224 -0.9128 -0.2604  0.0896
  940MOL0     O23951   3.407   9.974   8.181  0.3102 -0.6849  0.0483
  940MOL0     C23952   3.440  10.091   8.250 -0.6370  0.1939  0.0468
  940MOL0     C23953   3.572  10.143   8.258  0.3465 -0.2374 -0.3834
  940MOL0     C23954   3.586  10.276   8.313 -0.0151  0.8224  0.5143
  940MOL0     C23955   3.480  10.359   8.341  0.2402 -0.0229  0.4851
  940MOL0     O23956   3.512  10.485   8.378  0.3340  0.0197  0.2321
  940MOL0     C23957   3.554  10.580   8.271 -0.5295  0.5226  0.3200
  940MOL0     C23958   3.483  10.719   8.282 -1.6609  0.2979 -0.6899
  940MOL0     C23959   3.577  10.837   8.284 -0.4717 -0.9567 -0.0322
  940MOL0     C23960   3.646  10.844   8.145 -0.2421  0.1987 -0.6087
  940MOL0     C23961   3.540  10.895   8.043 -0.1294 -0.0005 -1.1305
  940MOL0     C23962   3.614  10.995   7.940 -0.0059 -0.1857 -0.0894
  940MOL0     C23963   3.521  11.044   7.833 -0.7470  0.6041  0.1558
  940MOL0     C23964   3.575  11.127   7.724 -0.4921 -0.7527 -0.4841
  940MOL0     N23965   3.659  11.048   7.623  0.5368 -0.0469  0.7487
  940MOL0     C23966   3.791  11.027   7.621 -0.5508  0.6789 -0.3646
  940MOL0     C23967   3.828  10.983   7.498 -0.4203 -0.0845 -0.1725
  940MOL0     C23968   3.972  10.964   7.458  0.0693 -0.2710 -0.3784
  940MOL0     C23969   4.003  11.015   7.319  1.0255  1.2726 -0.6078
  940MOL0     C23970   4.150  11.007   7.312 -0.5063  0.2656  0.1436
  940MOL0     C23971   4.201  11.057   7.173  0.2314  0.0154 -0.6159
  940MOL0     O23972   4.201  11.201   7.158  0.1411 -0.1230  0.6223
  940MOL0     C23973   4.115  11.263   7.062  0.5247  0.2775 -1.1264
  940MOL0     C23974   4.131  11.405   7.053 -0.5971  0.5389 -0.3606
  940MOL0     C23975   4.048  11.480   6.972  0.2672 -0.2098 -0.1651
  940MOL0     C23976   3.952  11.424   6.887  0.2644 -0.3053  0.1949
  940MOL0     C23977   3.882  11.511   6.795 -0.3589  0.1873 -0.2948
  940MOL0     O23978   3.833  11.439   6.686 -0.9715  0.4145 -0.2300
  940MOL0     C23979   3.736  11.498   6.609 -0.1499 -0.6123 -0.7371
  940MOL0     C23980   3.619  11.438   6.573 -0.5187  0.3393  0.7279
  940MOL0     C23981   3.537  11.490   6.470 -0.7477 -0.0505  0.0020
  940MOL0     C23982   3.569  11.614   6.411 -0.5099 -0.0787  0.5182
  940MOL0     O23983   3.494  11.666   6.309 -0.5170  0.7227 -0.1794
  940MOL0     C23984   3.394  11.753   6.348  0.8362  0.4222  0.3231
  940MOL0     C23985   3.260  11.680   6.324 -0.0814 -0.2495  0.8074
  940MOL0     C23986   3.237  11.630   6.180 -0.8950  0.2550  0.2692
  940MOL0     C23987   3.186  11.750   6.099  0.5870 -1.1879 -0.1585
  940MOL0     C23988   3.175  11.728   5.949  1.1815 -0.6409 -0.8240
  940MOL0     C23989   3.188  11.860   5.872 -0.4270  0.7243 -0.5769
  940MOL0     C23990   3.338  11.919   5.902  1.2870 -0.0193  0.3779
  940MOL0     C23991   3.391  11.994   5.778 -0.2471  0.7998 -1.5579
  940MOL0    Cl23992   3.407  11.871   5.648  0.5210 -0.6874 -0.0173
  940MOL0     C23993   3.682  11.683   6.460 -0.0987  0.0554  0.3811
  940MOL0     C23994   3.779  11.622   6.550 -0.6359  0.1612 -1.5340
  940MOL0     O23995   3.847  11.627   6.825 -0.2078  1.1819 -0.5328
  940MOL0     C23996   3.941  11.286   6.886 -0.8831  0.3569  0.2049
  940MOL0     C23997   4.020  11.207   6.976  0.0365 -0.1275 -0.2769
  940MOL0     N23998   3.721  10.974   7.422 -0.0992 -0.7236  0.4640
  940MOL0     N23999   3.623  11.015   7.491 -0.1284  1.0746  0.0067
  940MOL0     C24000   3.348  10.312   8.333  0.9529  0.3500  0.6458
  940MOL0     C24001   3.328  10.174   8.290 -0.3132 -1.1092  0.3181
  940MOL0     C24002   3.429   9.733   8.147  0.1450  0.1426 -0.3715
  940MOL0     C24003   3.318   9.736   8.067  0.3508  1.0360 -0.6300
  940MOL0     C24004   3.276   9.621   7.996 -0.4895 -0.2458 -0.0162
  940MOL0     C24005   3.349   9.497   8.006  0.6530  0.5564  0.2073
  940MOL0     O24006   3.307   9.379   7.945 -0.4397 -0.6682 -0.2402
  940MOL0     C24007   3.189   9.377   7.858  0.0556 -0.1557 -0.1762
  940MOL0     C24008   3.157   9.248   7.779 -0.0339 -0.3748 -0.5106
  940MOL0     C24009   3.279   9.160   7.749  0.6597 -0.3727  0.8936
  940MOL0     C24010   3.250   9.031   7.664 -0.8369  1.4462 -0.5638
  940MOL0     C24011   3.192   8.918   7.741 -0.5329 -0.4518  0.6604
  940MOL0     C24012   3.162   8.829   7.813  0.0422  0.2327  0.2928
  940MOL0     C24013   3.454   9.493   8.089 -0.7635 -0.3003  0.2941
  940MOL0     C24014   3.501   9.611   8.161 -0.6393  1.2789  0.9840
  940MOL0     H24015   3.659  10.086   8.228  1.1763  0.2212  1.0458
  940MOL0     H24016   3.683  10.324   8.318 -0.1432  0.9801  2.0159
  940MOL0     H24017   3.511  10.537   8.180 -1.5805 -2.1808  1.9455
  940MOL0     H24018   3.663  10.581   8.273 -0.3075 -0.1756 -3.3762
  940MOL0     H24019   3.425  10.724   8.374 -2.1429  2.9960 -1.0586
  940MOL0     H24020   3.416  10.736   8.198 -2.9045  1.8056  0.5606
  940MOL0     H24021   3.650  10.827   8.365 -1.1285  0.3615  0.7558
  940MOL0     H24022   3.528  10.930   8.314 -1.4943 -0.8836 -1.7904
  940MOL0     H24023   3.730  10.914   8.150  1.4494 -1.6943 -1.2036
  940MOL0     H24024   3.686  10.751   8.105  0.3366 -0.4457  1.3548
  940MOL0     H24025   3.454  10.947   8.087 -0.0576  2.6182 -3.7671
  940MOL0     H24026   3.498  10.806   7.996 -1.2688  0.7338 -1.5477
  940MOL0     H24027   3.697  10.943   7.892 -0.0148 -1.0423  0.8058
  940MOL0     H24028   3.657  11.083   7.989 -3.6314  0.2163  2.8017
  940MOL0     H24029   3.502  10.947   7.787  2.5297  0.7793 -1.8864
  940MOL0     H24030   3.426  11.073   7.878 -1.3147 -1.5638  0.4475
  940MOL0     H24031   3.642  11.200   7.771 -0.4081 -1.2164  0.1324
  940MOL0     H24032   3.508  11.191   7.667 -0.2363  1.2461  1.3026
  940MOL0     H24033   3.858  11.034   7.706  0.5237 -1.8646 -0.9360
  940MOL0     H24034   3.990  10.856   7.465 -3.3734 -0.9137  0.2655
  940MOL0     H24035   4.036  11.012   7.533  0.0789 -1.2321  0.2432
  940MOL0     H24036   3.956  11.113   7.309  1.4273  2.0082  3.2594
  940MOL0     H24037   3.966  10.945   7.243  1.1534  1.0607 -0.4735
  940MOL0     H24038   4.208  11.049   7.395 -0.8748 -0.8173  0.9709
  940MOL0     H24039   4.183  10.902   7.309  0.0582  0.4076 -3.9008
  940MOL0     H24040   4.132  11.023   7.095 -0.6919  1.3012 -0.3888
  940MOL0     H24041   4.306  11.027   7.171 -0.0815 -1.8994  2.7723
  940MOL0     H24042   4.215  11.446   7.107 -0.7466  2.1704 -1.2957
  940MOL0     H24043   4.060  11.588   6.979 -0.7292 -0.1745  1.4986
  940MOL0     H24044   3.601  11.342   6.619 -2.3929 -0.6260 -1.7477
  940MOL0     H24045   3.460  11.424   6.429  0.9132 -1.1014 -1.6028
  940MOL0     H24046   3.416  11.851   6.305  2.6654 -0.8410 -1.8719
  940MOL0     H24047   3.387  11.778   6.454  3.1896 -1.8710  1.0968
  940MOL0     H24048   3.182  11.752   6.347  0.7171  1.0620 -0.4236
  940MOL0     H24049   3.233  11.603   6.397 -0.7737  1.4470  2.4218
  940MOL0     H24050   3.163  11.550   6.167  0.2071 -0.8369  0.5045
  940MOL0     H24051   3.319  11.581   6.127 -0.0503  1.9420 -0.0319
  940MOL0     H24052   3.087  11.775   6.138  1.2238  2.4187 -0.4837
  940MOL0     H24053   3.254  11.835   6.115  0.2616 -0.4758 -2.2939
  940MOL0     H24054   3.076  11.694   5.916  0.8543 -0.0556 -0.4592
  940MOL0     H24055   3.246  11.652   5.917  0.5493 -1.1509 -1.0428
  940MOL0     H24056   3.112  11.929   5.911 -0.0102  0.1434  1.3482
  940MOL0     H24057   3.178  11.837   5.765 -1.0056 -1.1944 -0.1484
  940MOL0     H24058   3.339  11.992   5.983  0.3770 -1.0106  1.3185
  940MOL0     H24059   3.408  11.839   5.929  0.5611 -1.2691 -1.2315
  940MOL0     H24060   3.493  12.034   5.785  0.4329 -1.0599  0.2305
  940MOL0     H24061   3.319  12.074   5.761 -1.2556  1.0332  2.5767
  940MOL0     H24062   3.690  11.782   6.417  1.2140 -0.7778 -1.4598
  940MOL0     H24063   3.869  11.682   6.560 -2.0881  2.6363 -2.4526
  940MOL0     H24064   3.867  11.229   6.832  0.4317 -2.5222  1.2393
  940MOL0     H24065   3.993  11.102   6.983 -0.2384 -0.1776 -1.7046
  940MOL0     H24066   3.271  10.386   8.353  2.1204  2.5714 -2.1790
  940MOL0     H24067   3.228  10.134   8.306 -0.5387 -1.3728 -1.5545
  940MOL0     H24068   3.249   9.818   8.052 -1.0392 -0.1312 -0.8540
  940MOL0     H24069   3.181   9.625   7.943 -0.5932 -2.5145 -0.1286
  940MOL0     H24070   3.199   9.464   7.792 -1.8981 -0.6731 -1.2258
  940MOL0     H24071   3.100   9.383   7.921  0.6978 -0.2659  0.7546
  940MOL0     H24072   3.095   9.187   7.845 -0.5402 -3.4348 -3.5733
  940MOL0     H24073   3.096   9.262   7.689  2.8192 -0.0913 -2.5463
  940MOL0     H24074   3.319   9.137   7.848 -1.0912 -1.7147  1.3263
  940MOL0     H24075   3.349   9.215   7.684  1.0714 -3.2953 -1.3669
  940MOL0     H24076   3.192   9.049   7.572  0.4816 -2.3760 -2.3455
  940MOL0     H24077   3.350   8.996   7.636 -0.8396 -3.9697  4.2662
  940MOL0     H24078   3.153   8.762   7.896 -2.3401  0.3379  0.1933
  940MOL0     H24079   3.510   9.401   8.101  2.0001  0.6566 -3.3642
  940MOL0     H24080   3.593   9.595   8.217 -2.1828 -4.0889  2.5407
  941MOL0     O24081   9.219   5.185   8.906  0.1365 -0.3807  0.3348
  941MOL0     C24082   9.223   5.137   8.796  0.2855  0.1873 -1.1856
  941MOL0     O24083   9.304   5.179   8.690 -0.0163 -0.6987 -0.4087
  941MOL0     C24084   9.403   5.272   8.708  0.1800 -0.5538  0.0250
  941MOL0     C24085   9.535   5.233   8.680 -0.2742  0.8357 -0.3607
  941MOL0     C24086   9.647   5.318   8.695  0.1658  0.0863 -0.4142
  941MOL0     C24087   9.620   5.448   8.741 -0.5626 -0.6559  0.2548
  941MOL0     O24088   9.727   5.537   8.756  0.0285  0.6435  0.5339
  941MOL0     C24089   9.739   5.601   8.879 -0.3078 -0.2855 -0.7696
  941MOL0     C24090   9.746   5.503   9.006  0.1711 -0.9465  1.1107
  941MOL0     C24091   9.770   5.584   9.127 -0.1040 -0.1777 -0.7567
  941MOL0     C24092   9.765   5.503   9.250  0.4331 -0.1188 -0.2633
  941MOL0     C24093   9.876   5.393   9.258  0.4679  0.7758  0.0954
  941MOL0     C24094   9.894   5.336   9.403  0.7491 -0.0150 -0.3192
  941MOL0     C24095   9.989   5.218   9.414 -0.3040 -0.3833  0.1752
  941MOL0     C24096  10.002   5.170   9.566  0.1921 -0.2928  1.2119
  941MOL0     N24097  10.120   5.076   9.572 -0.2272 -0.0744  0.1025
  941MOL0     C24098  10.134   4.945   9.532 -0.3454  0.6627  0.0581
  941MOL0     C24099  10.263   4.921   9.544  0.0215  0.1699  0.7165
  941MOL0     C24100  10.311   4.790   9.489 -0.3184  0.3005 -0.7821
  941MOL0     C24101  10.442   4.812   9.414 -0.8395 -0.6300  1.2302
  941MOL0     C24102  10.403   4.823   9.269  0.3532 -0.1902 -0.2409
  941MOL0     C24103  10.508   4.881   9.177 -0.4005  0.2530 -0.7065
  941MOL0     O24104  10.469   4.855   9.043  0.2946  0.4222  0.1793
  941MOL0     C24105  10.568   4.864   8.945  0.0763  0.1833  0.0516
  941MOL0     C24106  10.657   4.968   8.935 -0.4585 -1.1343  0.1319
  941MOL0     C24107  10.755   4.971   8.836 -0.6263  0.3329  0.0537
  941MOL0     C24108  10.771   4.868   8.737 -0.8800 -0.4330  0.0968
  941MOL0     C24109  10.864   4.890   8.625 -0.2883  0.5874 -0.7295
  941MOL0     O24110  10.934   5.008   8.624 -1.5012  0.1215  0.1083
  941MOL0     C24111  11.022   5.012   8.517  0.3803  1.3888  0.1923
  941MOL0     C24112  11.160   5.019   8.549 -0.6700  0.1160  0.4203
  941MOL0     C24113  11.249   5.031   8.440 -1.1492  0.0176 -0.5187
  941MOL0     C24114  11.206   5.025   8.304  0.0959 -1.0206  0.3454
  941MOL0     O24115  11.288   5.034   8.196  0.3329 -0.5197 -0.3005
  941MOL0     C24116  11.429   5.007   8.204  0.4736 -0.8581 -0.2951
  941MOL0     C24117  11.472   4.948   8.066 -0.1527 -1.0316  0.0664
  941MOL0     C24118  11.418   4.803   8.051 -0.3084  0.6130 -0.7172
  941MOL0     C24119  11.470   4.744   7.917  0.1345  0.4671  0.8965
  941MOL0     C24120  11.470   4.588   7.909  0.1879 -0.0633  0.0125
  941MOL0     C24121  11.514   4.551   7.768  0.1472  0.7400  0.6638
  941MOL0     C24122  11.483   4.401   7.748 -0.4804 -0.4340 -0.4487
  941MOL0     C24123  11.524   4.369   7.614  0.7522  0.6817 -0.3778
  941MOL0    Cl24124  11.711   4.380   7.617 -0.5370  0.4848 -0.1583
  941MOL0     C24125  11.070   5.012   8.277  0.9868  0.7277 -0.2467
  941MOL0     C24126  10.981   5.001   8.375 -0.1983  0.4139  0.0400
  941MOL0     O24127  10.878   4.793   8.549 -0.8981  0.6847  0.2801
  941MOL0     C24128  10.687   4.759   8.757  0.0549 -0.6254  0.2262
  941MOL0     C24129  10.586   4.756   8.854  1.3007 -0.1051  0.8598
  941MOL0     N24130  10.335   5.030   9.594 -1.1648  0.5529  0.4533
  941MOL0     N24131  10.243   5.118   9.613  0.1216 -0.4053 -0.1355
  941MOL0     C24132   9.487   5.481   8.771  0.1678  0.0960 -0.3203
  941MOL0     C24133   9.382   5.404   8.752  0.7715  0.3517  0.5877
  941MOL0     C24134   9.121   5.037   8.756  0.1320 -0.6898  0.0310
  941MOL0     C24135   9.028   4.985   8.851  0.4303 -0.1836 -0.0141
  941MOL0     C24136   8.921   4.910   8.812 -0.2796 -0.7202 -0.3431
  941MOL0     C24137   8.917   4.853   8.685 -0.4144  0.4527  0.3879
  941MOL0     O24138   8.823   4.753   8.668 -0.1009 -0.2286  0.0058
  941MOL0     C24139   8.845   4.676   8.549 -0.0839  0.7798 -0.0051
  941MOL0     C24140   8.730   4.568   8.536  0.5537 -0.0340  0.0904
  941MOL0     C24141   8.588   4.632   8.563 -0.2469  0.4194  0.4427
  941MOL0     C24142   8.474   4.535   8.560 -0.4882 -0.3277  0.5796
  941MOL0     C24143   8.349   4.596   8.596 -0.3555 -0.7325 -0.5552
  941MOL0     C24144   8.254   4.657   8.628  0.4350 -0.3542 -0.1608
  941MOL0     C24145   9.019   4.895   8.594  0.5383  0.1969  0.6081
  941MOL0     C24146   9.117   4.990   8.626 -0.7362  0.4152  1.1350
  941MOL0     H24147   9.555   5.147   8.616 -1.3758  0.8621 -0.7663
  941MOL0     H24148   9.747   5.285   8.667 -0.8618 -0.8863 -3.2143
  941MOL0     H24149   9.652   5.664   8.899 -0.2101 -0.9677  2.3841
  941MOL0     H24150   9.830   5.661   8.880 -1.4145  1.4455  0.3442
  941MOL0     H24151   9.823   5.428   8.986  4.2672  3.4970 -1.8884
  941MOL0     H24152   9.648   5.454   9.007 -1.0955  0.9687 -3.1750
  941MOL0     H24153   9.692   5.659   9.139 -1.3275 -1.3014 -1.4404
  941MOL0     H24154   9.867   5.633   9.113  0.8018 -1.2027  1.5596
  941MOL0     H24155   9.772   5.573   9.334 -4.4594  1.0875 -0.5379
  941MOL0     H24156   9.666   5.457   9.262 -0.3507  1.3227 -0.9316
  941MOL0     H24157   9.966   5.447   9.226  2.1646 -2.3557 -0.7874
  941MOL0     H24158   9.856   5.314   9.185  2.5970  1.0405 -0.8502
  941MOL0     H24159   9.795   5.306   9.441  0.3780  2.3335  0.7319
  941MOL0     H24160   9.938   5.416   9.463 -0.0321 -0.6108  1.1051
  941MOL0     H24161   9.967   5.135   9.346 -2.6735  1.5451 -1.5328
  941MOL0     H24162  10.081   5.267   9.379  0.3221 -2.9947 -2.2653
  941MOL0     H24163   9.903   5.125   9.578 -1.4729  2.2148 -1.8289
  941MOL0     H24164  10.002   5.248   9.642  0.0046 -0.7751  1.7164
  941MOL0     H24165  10.058   4.869   9.513 -0.9089  0.1821  3.5801
  941MOL0     H24166  10.243   4.746   9.415 -0.4581 -1.8608  0.5496
  941MOL0     H24167  10.325   4.715   9.568  2.0815  3.0554  1.6660
  941MOL0     H24168  10.509   4.726   9.415  1.1568  0.7041 -1.6526
  941MOL0     H24169  10.493   4.906   9.437  1.2371 -1.1417 -0.8717
  941MOL0     H24170  10.388   4.720   9.234 -2.5820  0.1831 -0.2659
  941MOL0     H24171  10.315   4.887   9.258  0.5618  0.6121  2.2820
  941MOL0     H24172  10.603   4.828   9.190 -0.8010 -1.0281 -2.6335
  941MOL0     H24173  10.519   4.989   9.187  0.6136  0.1147 -0.1379
  941MOL0     H24174  10.642   5.057   8.995  0.7592  2.1241 -3.9069
  941MOL0     H24175  10.810   5.064   8.841 -0.9114  0.4719  0.6914
  941MOL0     H24176  11.194   5.016   8.652  2.1164  2.7719 -0.2640
  941MOL0     H24177  11.357   5.035   8.450 -1.0403 -0.0865 -1.5736
  941MOL0     H24178  11.467   4.938   8.280  1.7512  1.1939  1.0325
  941MOL0     H24179  11.486   5.100   8.210  0.4613 -0.7346 -1.6556
  941MOL0     H24180  11.580   4.947   8.054  0.4170  0.5507  3.7904
  941MOL0     H24181  11.444   5.020   7.989 -0.5283 -0.2583  0.9167
  941MOL0     H24182  11.310   4.786   8.048 -0.4420  1.1895  0.4787
  941MOL0     H24183  11.452   4.744   8.136 -0.7450  1.4760  0.0639
  941MOL0     H24184  11.403   4.786   7.841  0.5117 -2.2352 -1.0587
  941MOL0     H24185  11.568   4.787   7.892  0.8986 -1.3547  0.6520
  941MOL0     H24186  11.373   4.547   7.937  1.0550 -1.9664  0.3849
  941MOL0     H24187  11.541   4.542   7.978  0.4992 -1.3458 -1.1234
  941MOL0     H24188  11.618   4.578   7.753  0.5200  0.2219  2.1348
  941MOL0     H24189  11.456   4.610   7.696 -2.4538 -1.3054  0.8982
  941MOL0     H24190  11.534   4.354   7.832 -2.2202  1.8673  2.0586
  941MOL0     H24191  11.375   4.387   7.760 -0.4304 -4.2075 -2.8050
  941MOL0     H24192  11.486   4.434   7.535  1.0087  1.5841  0.2238
  941MOL0     H24193  11.486   4.273   7.579 -1.4087  2.2657 -2.7193
  941MOL0     H24194  11.042   5.009   8.172  3.0286 -1.8197 -0.8346
  941MOL0     H24195  10.875   4.989   8.355 -0.8347  1.0374  2.6338
  941MOL0     H24196  10.691   4.669   8.697  0.4677 -2.1646  2.4380
  941MOL0     H24197  10.526   4.666   8.857  0.0583  0.6961  0.4776
  941MOL0     H24198   9.474   5.583   8.805 -0.4996 -0.1004  0.0302
  941MOL0     H24199   9.289   5.455   8.772  0.0050  0.4921 -2.7014
  941MOL0     H24200   9.032   5.022   8.952 -0.9742  1.5758 -0.5515
  941MOL0     H24201   8.838   4.900   8.881  0.0506 -1.1641 -0.0082
  941MOL0     H24202   8.933   4.612   8.559 -0.6101  0.3057  2.1734
  941MOL0     H24203   8.837   4.741   8.461 -1.8529  1.0611  0.3094
  941MOL0     H24204   8.744   4.522   8.437  0.9944  0.2715  0.0067
  941MOL0     H24205   8.754   4.504   8.621 -1.3975  0.0836  0.7854
  941MOL0     H24206   8.563   4.694   8.476  2.0023 -2.6882 -2.6894
  941MOL0     H24207   8.582   4.691   8.655 -1.4399  0.0559  0.6141
  941MOL0     H24208   8.443   4.502   8.460 -0.5276  1.4402 -0.0376
  941MOL0     H24209   8.495   4.453   8.628  1.2541 -1.5307 -1.2770
  941MOL0     H24210   8.160   4.708   8.639 -0.4126 -1.8068 -0.4270
  941MOL0     H24211   9.015   4.861   8.492 -1.8025 -1.9594  1.3027
  941MOL0     H24212   9.203   5.012   8.563 -0.3722 -1.4193  0.9552
  942MOL0     O24213   7.477   9.297   9.925 -0.1680  0.1679 -0.2711
  942MOL0     C24214   7.570   9.210   9.907  0.3748 -0.5379  1.2832
  942MOL0     O24215   7.583   9.124   9.800  0.0200 -0.4571 -0.0073
  942MOL0     C24216   7.485   9.098   9.701 -0.8022  0.6384  0.0940
  942MOL0     C24217   7.524   8.987   9.620  0.7444  0.8686 -0.1472
  942MOL0     C24218   7.448   8.935   9.516  0.0061 -0.1544 -0.3301
  942MOL0     C24219   7.330   9.002   9.485 -0.1020  0.4401 -0.5346
  942MOL0     O24220   7.243   8.937   9.398 -0.5015 -0.5847 -0.3339
  942MOL0     C24221   7.112   8.990   9.391 -0.1410  0.3845  0.6679
  942MOL0     C24222   7.028   8.897   9.289 -0.3777  0.0568 -0.9934
  942MOL0     C24223   6.968   8.769   9.361 -0.0272  0.8325 -0.0477
  942MOL0     C24224   6.929   8.663   9.259 -0.2716 -0.3604  0.3708
  942MOL0     C24225   6.862   8.535   9.317 -0.7526 -0.8840  0.7962
  942MOL0     C24226   6.824   8.447   9.202 -0.9084 -0.3407 -0.1896
  942MOL0     C24227   6.733   8.326   9.252 -0.1198 -1.1984  0.0074
  942MOL0     C24228   6.819   8.230   9.341 -0.2420 -0.3509  0.3112
  942MOL0     N24229   6.752   8.115   9.397 -0.1294 -0.1345 -0.5649
  942MOL0     C24230   6.668   8.028   9.335  0.1111  0.3125 -0.3960
  942MOL0     C24231   6.639   7.928   9.419 -0.3714 -0.3507 -0.2622
  942MOL0     C24232   6.573   7.793   9.392  1.1720 -0.0363  0.9154
  942MOL0     C24233   6.658   7.711   9.298  0.0751 -0.7259 -0.0505
  942MOL0     C24234   6.577   7.577   9.259  0.4548 -0.2435  0.1704
  942MOL0     C24235   6.674   7.458   9.277  0.9404 -0.8032  0.1545
  942MOL0     O24236   6.715   7.449   9.411 -1.0159  0.0254 -0.3050
  942MOL0     C24237   6.791   7.345   9.465  0.2700  0.3856  0.5964
  942MOL0     C24238   6.796   7.223   9.388 -0.0163 -0.5768  1.2543
  942MOL0     C24239   6.859   7.112   9.449 -0.1990  0.3354  0.1964
  942MOL0     C24240   6.917   7.116   9.580  0.1881 -1.2015 -0.1704
  942MOL0     C24241   7.003   7.005   9.633  0.6475  0.3294  0.4683
  942MOL0     O24242   7.023   6.895   9.559  0.5117  0.1714 -0.0461
  942MOL0     C24243   7.114   6.790   9.589 -0.5633  0.0072 -0.3299
  942MOL0     C24244   7.243   6.823   9.625  0.5339 -1.2887  1.0142
  942MOL0     C24245   7.330   6.716   9.645 -0.2943  0.1685 -0.3030
  942MOL0     C24246   7.292   6.585   9.631 -0.1335  1.2399  0.3876
  942MOL0     O24247   7.391   6.495   9.669  0.0567 -0.0044  0.2415
  942MOL0     C24248   7.441   6.396   9.577  0.3844  0.1643 -0.7670
  942MOL0     C24249   7.526   6.302   9.670  1.0277  0.1102  0.4897
  942MOL0     C24250   7.605   6.210   9.579  0.5584 -0.6684 -0.4516
  942MOL0     C24251   7.670   6.098   9.668 -0.5251 -0.9002 -1.3703
  942MOL0     C24252   7.758   5.993   9.612  0.1621 -0.1633 -0.4638
  942MOL0     C24253   7.759   5.873   9.700 -0.0338  0.5781  0.1412
  942MOL0     C24254   7.845   5.763   9.633  0.9705 -0.0271  0.4066
  942MOL0     C24255   7.899   5.637   9.708 -0.7862 -0.7066  0.5171
  942MOL0    Cl24256   7.785   5.534   9.789 -0.1320  0.3614 -0.5676
  942MOL0     C24257   7.167   6.557   9.583  0.6442  0.0553 -0.2161
  942MOL0     C24258   7.080   6.659   9.557  0.2773  0.1680 -0.1941
  942MOL0     O24259   7.050   7.027   9.743 -0.1544  0.6217 -0.3814
  942MOL0     C24260   6.911   7.244   9.643 -0.1182  0.3576  0.7948
  942MOL0     C24261   6.842   7.351   9.592 -0.4643 -0.2488 -0.5126
  942MOL0     N24262   6.711   7.955   9.543  0.6942 -0.7912 -0.2107
  942MOL0     N24263   6.776   8.065   9.518 -0.5391 -0.6072 -0.2638
  942MOL0     C24264   7.307   9.123   9.550  0.2522  0.1077  0.1216
  942MOL0     C24265   7.379   9.179   9.658 -0.0922  0.5071  0.7620
  942MOL0     C24266   7.681   9.206  10.002  0.9554  0.5311 -0.3891
  942MOL0     C24267   7.808   9.145   9.978  1.0782  0.5154  0.1024
  942MOL0     C24268   7.909   9.149  10.075 -0.4440  0.3558 -0.5129
  942MOL0     C24269   7.883   9.206  10.199  0.6544 -0.5220  0.6645
  942MOL0     O24270   7.969   9.213  10.304 -0.7868  0.8435 -0.1104
  942MOL0     C24271   8.093   9.267  10.269  0.1176 -0.3018  0.5062
  942MOL0     C24272   8.185   9.261  10.385  0.2434 -0.1387 -0.3505
  942MOL0     C24273   8.249   9.122  10.400 -0.8185 -0.2965 -0.8248
  942MOL0     C24274   8.181   9.015  10.477 -0.2844 -0.2879  0.3670
  942MOL0     C24275   8.222   8.884  10.451 -1.2247  0.0825 -0.7720
  942MOL0     C24276   8.262   8.769  10.442 -0.3637  0.4810  0.4504
  942MOL0     C24277   7.759   9.262  10.226 -0.2325  0.2127  0.3833
  942MOL0     C24278   7.658   9.257  10.137  0.6558  0.8006 -0.7720
  942MOL0     H24279   7.615   8.939   9.654 -1.9702 -2.2919  3.6059
  942MOL0     H24280   7.473   8.847   9.457  1.1791  0.4405 -0.7620
  942MOL0     H24281   7.116   9.094   9.358 -0.6038  1.1011  2.7635
  942MOL0     H24282   7.059   8.980   9.486 -0.5900 -0.3636  0.3491
  942MOL0     H24283   7.077   8.857   9.200 -0.4672  0.1607 -1.0913
  942MOL0     H24284   6.947   8.960   9.251 -3.1550 -0.6568  3.1056
  942MOL0     H24285   6.886   8.802   9.425 -1.0855  1.2528 -1.5651
  942MOL0     H24286   7.047   8.731   9.427 -0.3902  1.7927  0.9767
  942MOL0     H24287   6.864   8.702   9.180  0.7925 -0.0785 -0.3858
  942MOL0     H24288   7.022   8.630   9.212 -0.8392 -0.9429 -0.3797
  942MOL0     H24289   6.768   8.552   9.370 -2.4773 -1.3738 -1.9246
  942MOL0     H24290   6.939   8.483   9.376 -0.6115  0.2044  1.5937
  942MOL0     H24291   6.915   8.408   9.156  1.0892  4.6757 -1.0224
  942MOL0     H24292   6.772   8.505   9.125 -1.9539 -0.2133  0.5920
  942MOL0     H24293   6.647   8.364   9.309 -0.2512 -3.6871  1.6450
  942MOL0     H24294   6.694   8.280   9.161  0.7355 -1.2232 -0.3559
  942MOL0     H24295   6.857   8.283   9.429 -2.3822  0.6129  0.7176
  942MOL0     H24296   6.906   8.198   9.283  1.1841  2.8271  0.4474
  942MOL0     H24297   6.643   8.040   9.231  0.6031 -2.4932 -0.9250
  942MOL0     H24298   6.475   7.809   9.347  2.5264  2.5758 -1.4602
  942MOL0     H24299   6.563   7.742   9.488 -0.1576  0.6385  1.1560
  942MOL0     H24300   6.754   7.691   9.347 -0.0436  1.7032  1.2969
  942MOL0     H24301   6.685   7.773   9.212  0.2398  1.2629  1.3585
  942MOL0     H24302   6.491   7.568   9.327  0.3819  5.5238  1.3405
  942MOL0     H24303   6.551   7.582   9.153 -0.5233  1.0180  0.4451
  942MOL0     H24304   6.766   7.461   9.217  0.5011  2.2396 -0.5271
  942MOL0     H24305   6.609   7.377   9.242 -0.8387  0.4132  0.5293
  942MOL0     H24306   6.757   7.202   9.289  2.6813  1.3714 -0.3461
  942MOL0     H24307   6.856   7.021   9.390  3.2070 -1.3205  2.2568
  942MOL0     H24308   7.281   6.924   9.624 -3.0405  0.2582  2.5986
  942MOL0     H24309   7.432   6.751   9.649  0.0492 -0.5901 -1.5975
  942MOL0     H24310   7.514   6.440   9.509 -0.6357 -1.1139 -2.7826
  942MOL0     H24311   7.356   6.351   9.525 -1.6151  2.8558 -0.0295
  942MOL0     H24312   7.452   6.241   9.721  0.4246  1.1877  0.9476
  942MOL0     H24313   7.594   6.359   9.735  0.2692 -1.0319  2.3435
  942MOL0     H24314   7.676   6.276   9.529  1.2642 -0.6414  0.5422
  942MOL0     H24315   7.554   6.143   9.508  2.2799 -2.6031  0.0198
  942MOL0     H24316   7.730   6.146   9.745  0.2404 -2.0980 -1.1861
  942MOL0     H24317   7.591   6.045   9.721 -0.3202 -1.0596 -1.2236
  942MOL0     H24318   7.863   6.023   9.607  0.1329 -0.2840 -2.7571
  942MOL0     H24319   7.725   5.961   9.513 -0.5188  0.2708 -0.3821
  942MOL0     H24320   7.656   5.836   9.701 -0.7255  2.4428  0.2841
  942MOL0     H24321   7.796   5.901   9.799 -4.0302  0.1103  1.9582
  942MOL0     H24322   7.786   5.727   9.548 -0.0315  2.0073  0.1674
  942MOL0     H24323   7.933   5.804   9.584  2.4296 -0.9917  2.1283
  942MOL0     H24324   7.963   5.672   9.791  0.5231 -2.2485  0.2046
  942MOL0     H24325   7.959   5.580   9.637 -1.7751 -2.7780  1.2624
  942MOL0     H24326   7.125   6.458   9.568 -2.9490  0.9450  2.4633
  942MOL0     H24327   6.976   6.647   9.529 -1.1612  0.4726  4.2289
  942MOL0     H24328   6.950   7.246   9.745 -1.0949 -2.4767  1.3182
  942MOL0     H24329   6.836   7.449   9.640  2.0516  0.6212 -1.7563
  942MOL0     H24330   7.217   9.170   9.510  0.1825 -1.5481 -1.8714
  942MOL0     H24331   7.346   9.272   9.704 -1.0687  1.7255 -2.1564
  942MOL0     H24332   7.840   9.100   9.885 -1.9208 -0.3081 -0.6379
  942MOL0     H24333   8.001   9.094  10.057  1.3034  2.5575  1.0895
  942MOL0     H24334   8.099   9.375  10.248  1.8535 -0.4354  0.1305
  942MOL0     H24335   8.143   9.212  10.189 -0.5563 -0.4668  0.2018
  942MOL0     H24336   8.252   9.347  10.377  1.9806 -1.4654 -0.9102
  942MOL0     H24337   8.127   9.272  10.476  2.5462 -2.3233  1.5200
  942MOL0     H24338   8.352   9.129  10.435 -0.6979  0.5597 -1.3250
  942MOL0     H24339   8.246   9.069  10.304 -2.0055 -0.5299 -0.6744
  942MOL0     H24340   8.182   9.030  10.585  1.2414 -0.8107  0.4496
  942MOL0     H24341   8.077   9.017  10.442 -0.1671  0.5440  0.0441
  942MOL0     H24342   8.305   8.674  10.417  0.9654  1.0829  0.3573
  942MOL0     H24343   7.728   9.312  10.316  3.0957  0.0074  1.7829
  942MOL0     H24344   7.564   9.302  10.167 -0.4183 -0.4802 -2.0597
  943MOL0     O24345   8.558   8.338   2.192 -0.1402  0.1318 -0.2448
  943MOL0     C24346   8.522   8.378   2.080 -0.0300 -0.4882 -0.1863
  943MOL0     O24347   8.517   8.296   1.967 -0.2870  0.1597  0.5907
  943MOL0     C24348   8.564   8.170   1.977  0.1756 -0.0326 -0.2220
  943MOL0     C24349   8.693   8.121   2.013 -0.0398 -0.3013 -0.2898
  943MOL0     C24350   8.736   7.990   2.002 -0.6228 -1.0800 -0.7117
  943MOL0     C24351   8.651   7.901   1.938  0.1087  0.5687 -0.3840
  943MOL0     O24352   8.693   7.777   1.897 -0.6869  0.1817 -0.5768
  943MOL0     C24353   8.814   7.787   1.813 -0.2283 -0.7300 -0.8736
  943MOL0     C24354   8.814   7.662   1.721 -1.0296  0.8804  0.1635
  943MOL0     C24355   8.831   7.523   1.792  0.7624 -0.1633  0.8833
  943MOL0     C24356   8.814   7.415   1.684 -0.7911 -0.4621 -0.4505
  943MOL0     C24357   8.846   7.276   1.745 -0.3023 -0.0018  0.0055
  943MOL0     C24358   8.809   7.169   1.640 -0.4359  0.1386 -0.4290
  943MOL0     C24359   8.901   7.179   1.514  0.2951 -0.1555 -0.2900
  943MOL0     C24360   8.893   7.046   1.428 -0.1040  0.1253  0.0527
  943MOL0     N24361   8.999   7.039   1.333 -1.0793  0.3325 -0.3315
  943MOL0     C24362   9.045   7.137   1.249  0.0220  0.2411  0.4205
  943MOL0     C24363   9.166   7.100   1.208 -0.0113  0.0967 -0.3654
  943MOL0     C24364   9.258   7.172   1.109 -0.5185  1.3266 -1.0119
  943MOL0     C24365   9.325   7.293   1.170  0.1900  0.0014  0.0122
  943MOL0     C24366   9.382   7.397   1.079 -0.2834 -0.4601 -0.3715
  943MOL0     C24367   9.517   7.361   1.008  0.6203 -0.5368  0.1818
  943MOL0     O24368   9.516   7.433   0.883  0.0447  0.4041  1.0332
  943MOL0     C24369   9.639   7.481   0.850 -0.2019  0.1139  0.6457
  943MOL0     C24370   9.768   7.493   0.922  0.2793  0.0912  0.0597
  943MOL0     C24371   9.890   7.536   0.862 -0.1236 -1.1352 -0.1279
  943MOL0     C24372   9.884   7.585   0.726  0.2562 -1.4105 -0.5006
  943MOL0     C24373   9.997   7.655   0.661  0.1636  0.3091  0.1826
  943MOL0     O24374  10.113   7.657   0.737 -0.1755  0.8278  0.4974
  943MOL0     C24375  10.217   7.744   0.720 -1.2122 -0.5885 -0.2898
  943MOL0     C24376  10.304   7.752   0.612  0.6637  0.0115  0.3113
  943MOL0     C24377  10.419   7.825   0.603 -0.8493  0.7175 -0.4031
  943MOL0     C24378  10.458   7.890   0.722 -0.4369  0.7059  1.1428
  943MOL0     O24379  10.571   7.961   0.746 -0.3976  0.2026  0.9543
  943MOL0     C24380  10.692   7.950   0.668  0.6095  0.3618 -0.0326
  943MOL0     C24381  10.689   8.030   0.534 -0.6412 -0.1328 -0.1401
  943MOL0     C24382  10.827   8.061   0.469 -0.0062 -0.2619 -0.1871
  943MOL0     C24383  10.823   8.140   0.342  0.7813  0.5702 -0.1349
  943MOL0     C24384  10.963   8.158   0.274 -0.2609 -0.1152  0.1833
  943MOL0     C24385  10.959   8.246   0.153 -0.4390 -0.0269  0.4006
  943MOL0     C24386  11.087   8.251   0.071  0.4155  0.1682  0.2573
  943MOL0     C24387  11.090   8.359  -0.047 -0.3518 -0.0399 -0.7249
  943MOL0    Cl24388  11.088   8.526   0.013  0.8213  0.1458 -0.0752
  943MOL0     C24389  10.385   7.876   0.832 -0.1271  0.0630 -0.5088
  943MOL0     C24390  10.266   7.809   0.832 -0.1835 -0.5219 -1.5314
  943MOL0     O24391   9.983   7.720   0.562 -0.1071  0.9182  0.1157
  943MOL0     C24392   9.771   7.553   0.656  0.0578  0.4023 -0.3624
  943MOL0     C24393   9.654   7.510   0.712 -0.9861 -0.3393  0.2133
  943MOL0     N24394   9.193   6.973   1.262 -0.4261 -0.9579 -0.1461
  943MOL0     N24395   9.091   6.937   1.336 -0.8629  0.0855 -0.1192
  943MOL0     C24396   8.520   7.942   1.913  0.0824  0.1263 -0.8307
  943MOL0     C24397   8.472   8.068   1.931 -0.0415 -0.4899  0.1726
  943MOL0     C24398   8.495   8.532   2.066  1.0268  0.2675 -0.5221
  943MOL0     C24399   8.527   8.614   2.171 -0.0222  0.4428 -0.3047
  943MOL0     C24400   8.520   8.751   2.158 -0.1781 -0.3160  1.0622
  943MOL0     C24401   8.476   8.816   2.038  0.2344  0.0210 -0.6179
  943MOL0     O24402   8.500   8.953   2.030 -0.3815  0.6729  1.0989
  943MOL0     C24403   8.509   9.011   1.891 -1.1183  0.6627 -0.4611
  943MOL0     C24404   8.380   9.078   1.852  0.2863 -0.5493  0.1636
  943MOL0     C24405   8.290   9.132   1.965 -0.0450  0.8054  0.5300
  943MOL0     C24406   8.182   9.236   1.925  0.8918 -0.0520 -1.1137
  943MOL0     C24407   8.097   9.196   1.818 -0.2468  0.3304 -0.1730
  943MOL0     C24408   8.044   9.148   1.721  0.3319 -0.7376  0.1996
  943MOL0     C24409   8.419   8.730   1.943 -0.3595 -0.4368 -0.7632
  943MOL0     C24410   8.434   8.594   1.953 -1.1471  0.6354  1.3118
  943MOL0     H24411   8.757   8.201   2.050  1.8367 -2.3216  1.0765
  943MOL0     H24412   8.840   7.967   2.024 -0.5961  0.5823  1.1618
  943MOL0     H24413   8.897   7.782   1.884  1.1049  1.2439 -2.1977
  943MOL0     H24414   8.808   7.872   1.744  0.8609 -0.3003 -0.4592
  943MOL0     H24415   8.889   7.664   1.643 -2.3103  2.0978 -1.0985
  943MOL0     H24416   8.719   7.658   1.667 -0.8724  0.1723 -0.0702
  943MOL0     H24417   8.753   7.518   1.869  0.0423  5.2543  0.9166
  943MOL0     H24418   8.926   7.516   1.845  1.3198  1.6282  0.1983
  943MOL0     H24419   8.710   7.422   1.652 -0.9698  3.6432  0.4764
  943MOL0     H24420   8.881   7.435   1.601 -0.7265  0.1109 -0.2636
  943MOL0     H24421   8.790   7.260   1.838  1.1525 -0.6778  0.7993
  943MOL0     H24422   8.955   7.272   1.754 -0.4961 -2.8032  3.0138
  943MOL0     H24423   8.710   7.158   1.595 -0.2836  0.9049 -0.9610
  943MOL0     H24424   8.830   7.072   1.685  1.0844  1.0218  0.8405
  943MOL0     H24425   8.850   7.261   1.464 -0.6806 -1.8022 -2.0940
  943MOL0     H24426   9.006   7.190   1.545  1.0675 -2.8081 -1.6745
  943MOL0     H24427   8.795   7.054   1.380  0.0198  0.6633 -0.1232
  943MOL0     H24428   8.890   6.962   1.498 -3.5245 -0.2727 -0.3921
  943MOL0     H24429   8.990   7.231   1.240 -4.6292 -1.8579  3.1966
  943MOL0     H24430   9.202   7.191   1.018  0.4980 -0.1801 -2.0019
  943MOL0     H24431   9.346   7.110   1.089 -1.4681 -0.4515  0.0218
  943MOL0     H24432   9.399   7.264   1.245  1.7706  0.7335 -1.2171
  943MOL0     H24433   9.250   7.341   1.234  0.6483  1.2131 -0.3312
  943MOL0     H24434   9.310   7.442   1.011  0.8296  1.8384 -0.1315
  943MOL0     H24435   9.406   7.476   1.151  3.9227 -1.8456  0.0641
  943MOL0     H24436   9.523   7.253   0.998 -0.0307 -0.4505 -1.6541
  943MOL0     H24437   9.600   7.408   1.061  1.1675  0.1774 -1.2378
  943MOL0     H24438   9.776   7.454   1.023  1.4728  0.6381  0.1989
  943MOL0     H24439   9.974   7.573   0.919  0.5296  2.7366 -3.1810
  943MOL0     H24440  10.257   7.711   0.524 -0.9924 -1.9708  2.0097
  943MOL0     H24441  10.482   7.823   0.514 -0.1770  0.4630  0.0781
  943MOL0     H24442  10.702   7.844   0.640 -0.6407  0.0685  0.5811
  943MOL0     H24443  10.781   7.985   0.723  1.7394 -2.3329  0.0222
  943MOL0     H24444  10.643   8.126   0.561 -1.0185 -0.7176  1.4186
  943MOL0     H24445  10.634   7.974   0.458  1.8414 -2.0269 -0.6790
  943MOL0     H24446  10.861   7.958   0.451 -1.6423 -1.1837  1.5297
  943MOL0     H24447  10.891   8.116   0.539  1.8669 -0.7778 -1.4191
  943MOL0     H24448  10.753   8.101   0.268 -0.9283  0.9358  1.2320
  943MOL0     H24449  10.776   8.236   0.364 -0.8905  0.3429 -2.3674
  943MOL0     H24450  11.008   8.060   0.256  1.8331  0.6902  0.6302
  943MOL0     H24451  11.025   8.201   0.353  0.3057 -2.3245  1.0065
  943MOL0     H24452  10.923   8.344   0.187 -2.7743  1.1030 -4.4581
  943MOL0     H24453  10.868   8.223   0.097 -2.3335  1.2079  2.8076
  943MOL0     H24454  11.176   8.258   0.134 -0.2192 -3.5685  1.8463
  943MOL0     H24455  11.096   8.150   0.028  0.0875 -0.3350  1.3299
  943MOL0     H24456  11.013   8.335  -0.120 -1.7604 -0.4635  0.8279
  943MOL0     H24457  11.184   8.348  -0.101 -1.8339  1.5800 -3.8928
  943MOL0     H24458  10.407   7.929   0.924 -0.7920  0.5532 -0.6218
  943MOL0     H24459  10.205   7.809   0.922 -1.8460 -2.5502 -2.5852
  943MOL0     H24460   9.768   7.586   0.553 -0.8049  2.2680  0.2061
  943MOL0     H24461   9.570   7.497   0.644 -1.2027  1.2028  0.1599
  943MOL0     H24462   8.457   7.864   1.871 -1.1403 -0.2988  1.6196
  943MOL0     H24463   8.369   8.094   1.908  0.7694  0.9760 -2.0889
  943MOL0     H24464   8.578   8.571   2.256  0.1484  1.1670 -0.0273
  943MOL0     H24465   8.572   8.815   2.230  0.4662  0.4583 -0.0604
  943MOL0     H24466   8.523   8.932   1.816 -4.3577  1.8364 -2.4981
  943MOL0     H24467   8.596   9.077   1.884 -1.0850  0.9306  1.7843
  943MOL0     H24468   8.388   9.160   1.780 -0.7349 -1.5948 -1.1960
  943MOL0     H24469   8.318   8.998   1.810  0.6359 -0.3551 -0.7404
  943MOL0     H24470   8.365   9.174   2.032  1.3397 -0.7742  0.0375
  943MOL0     H24471   8.235   9.044   1.999 -3.2493  2.5082  0.1471
  943MOL0     H24472   8.125   9.249   2.017 -0.0342 -1.7074 -1.4083
  943MOL0     H24473   8.229   9.332   1.902 -1.7390  0.7134 -4.2025
  943MOL0     H24474   7.999   9.108   1.632 -0.1399  2.0707 -0.9492
  943MOL0     H24475   8.386   8.772   1.848  3.0264  1.5940 -1.1857
  943MOL0     H24476   8.402   8.536   1.867  1.1350  2.0003 -0.6166
  944MOL0     O24477   1.948   3.708   7.150 -0.4242  0.2532 -0.3100
  944MOL0     C24478   1.943   3.826   7.187  1.3262 -0.0958 -0.7950
  944MOL0     O24479   1.906   3.927   7.106  0.6250  0.0341 -0.1081
  944MOL0     C24480   1.929   3.913   6.974 -0.2650 -0.2686 -0.1485
  944MOL0     C24481   1.816   3.944   6.894  0.0098  0.4785  0.0830
  944MOL0     C24482   1.837   3.942   6.756 -0.9445 -0.7294  0.0309
  944MOL0     C24483   1.962   3.916   6.699 -0.6559 -0.7606  0.9005
  944MOL0     O24484   1.980   3.891   6.566 -0.2113  0.5256 -0.0657
  944MOL0     C24485   1.875   3.898   6.473 -0.0211 -0.7224 -0.9631
  944MOL0     C24486   1.866   4.035   6.428  0.5199 -0.7767 -0.2698
  944MOL0     C24487   1.996   4.067   6.351 -0.8099  0.8884  0.1805
  944MOL0     C24488   1.982   4.183   6.248 -0.0627 -0.9561  0.8436
  944MOL0     C24489   2.118   4.258   6.219  0.6299  0.5468  0.5470
  944MOL0     C24490   2.212   4.156   6.153  0.2164  0.1933  0.5389
  944MOL0     C24491   2.360   4.187   6.189 -1.1458 -0.2586 -0.1674
  944MOL0     C24492   2.399   4.324   6.142  0.8610 -0.5623  0.8645
  944MOL0     N24493   2.538   4.340   6.173 -1.1010  0.0933 -0.2862
  944MOL0     C24494   2.598   4.312   6.292  0.0618  0.2555  0.5715
  944MOL0     C24495   2.735   4.325   6.269 -0.6949 -0.2202  0.7796
  944MOL0     C24496   2.842   4.346   6.366 -0.8693  0.3345  0.7209
  944MOL0     C24497   2.969   4.258   6.338 -0.4166  0.0602 -0.1526
  944MOL0     C24498   2.956   4.120   6.404  0.4080  0.4278  1.0669
  944MOL0     C24499   3.087   4.038   6.385  0.3372 -0.4166 -0.3009
  944MOL0     O24500   3.055   3.900   6.422  0.2055  0.5357 -0.8624
  944MOL0     C24501   3.125   3.789   6.377  0.5730 -0.2280 -0.4618
  944MOL0     C24502   3.211   3.778   6.260  0.2385 -0.8320 -0.0974
  944MOL0     C24503   3.255   3.653   6.226 -1.4284  0.0238  0.1010
  944MOL0     C24504   3.234   3.533   6.300  0.4112 -0.5038  0.4153
  944MOL0     C24505   3.300   3.404   6.274  0.4304  0.2014 -0.2456
  944MOL0     O24506   3.420   3.400   6.209  0.6842 -0.0616 -0.3508
  944MOL0     C24507   3.465   3.281   6.168 -0.2265  0.6810 -0.3138
  944MOL0     C24508   3.497   3.181   6.260 -1.1717  0.6619 -0.0143
  944MOL0     C24509   3.547   3.053   6.213 -0.3103 -0.2880  0.1487
  944MOL0     C24510   3.552   3.027   6.072 -0.5493  1.1537 -0.0286
  944MOL0     O24511   3.590   2.901   6.036 -0.5561  0.7731  0.3962
  944MOL0     C24512   3.552   2.787   6.114 -0.0166  0.6249 -0.6550
  944MOL0     C24513   3.557   2.654   6.029  0.0771  0.1064  0.1246
  944MOL0     C24514   3.475   2.675   5.896 -0.2973  0.5211  0.0085
  944MOL0     C24515   3.320   2.668   5.916  0.6419 -0.8177 -0.2901
  944MOL0     C24516   3.244   2.667   5.790 -0.2937  0.0425  0.7521
  944MOL0     C24517   3.098   2.645   5.842 -1.0422  0.4253  0.7106
  944MOL0     C24518   3.018   2.700   5.721  0.9581  0.0470  0.7644
  944MOL0     C24519   2.866   2.688   5.733 -0.2002 -0.5270  0.5341
  944MOL0    Cl24520   2.804   2.773   5.879 -0.5306  0.2606  0.3700
  944MOL0     C24521   3.509   3.123   5.987 -1.1753 -1.0430 -0.4191
  944MOL0     C24522   3.464   3.246   6.034  0.2558 -0.4415  0.4657
  944MOL0     O24523   3.234   3.305   6.302  0.5846 -0.1646  0.1949
  944MOL0     C24524   3.151   3.542   6.410  0.8701  0.8243  1.1523
  944MOL0     C24525   3.095   3.667   6.443  0.4251 -0.0940 -0.0405
  944MOL0     N24526   2.754   4.341   6.128 -0.1654  0.0556  0.5360
  944MOL0     N24527   2.634   4.348   6.081  0.7421 -0.4938  0.9727
  944MOL0     C24528   2.062   3.882   6.783 -0.8742 -0.3112  0.8225
  944MOL0     C24529   2.055   3.895   6.922  0.5779  0.4239 -0.8256
  944MOL0     C24530   1.944   3.864   7.330 -0.0159  0.9350 -0.7281
  944MOL0     C24531   1.925   3.754   7.424  0.1297  0.9863 -0.6985
  944MOL0     C24532   1.917   3.782   7.563  0.7203 -0.7364 -0.1543
  944MOL0     C24533   1.931   3.921   7.605  0.2987  0.0199  0.4813
  944MOL0     O24534   1.937   3.962   7.736  0.1926  0.1023  0.2447
  944MOL0     C24535   2.054   3.920   7.804  0.0049  0.1525 -0.7326
  944MOL0     C24536   2.065   3.962   7.945  0.7272  0.4500 -0.5146
  944MOL0     C24537   2.116   4.107   7.962 -0.7204 -0.1639 -0.2041
  944MOL0     C24538   2.160   4.130   8.107 -1.7494 -0.7973  0.5449
  944MOL0     C24539   2.268   4.045   8.153  0.2434  0.3754  0.7980
  944MOL0     C24540   2.337   3.946   8.186 -0.6698 -0.1203  0.2215
  944MOL0     C24541   1.968   4.012   7.516  0.3608  0.4515  0.0955
  944MOL0     C24542   1.973   3.989   7.379  0.5166 -0.0174 -0.5107
  944MOL0     H24543   1.715   3.962   6.929 -0.4077  1.6407 -1.6156
  944MOL0     H24544   1.751   3.965   6.693  0.1690 -0.2300 -1.3763
  944MOL0     H24545   1.777   3.866   6.511 -0.2421  1.9773  1.0924
  944MOL0     H24546   1.899   3.828   6.393 -2.8169 -1.5787 -1.1823
  944MOL0     H24547   1.831   4.103   6.506  0.9598 -1.3292  0.4348
  944MOL0     H24548   1.786   4.032   6.354 -1.6834 -1.6830  1.9891
  944MOL0     H24549   2.029   3.973   6.305 -4.8271 -0.0119 -1.3265
  944MOL0     H24550   2.078   4.092   6.419 -0.5527 -1.9759  1.0646
  944MOL0     H24551   1.925   4.157   6.158  0.2922 -1.6749  0.8210
  944MOL0     H24552   1.924   4.256   6.306 -0.2747 -2.2655  2.3227
  944MOL0     H24553   2.160   4.291   6.314  0.4287 -0.2044  0.9009
  944MOL0     H24554   2.100   4.340   6.149 -0.7248 -0.3102 -0.1583
  944MOL0     H24555   2.195   4.163   6.045 -2.8909  1.1268  0.9968
  944MOL0     H24556   2.198   4.053   6.186 -2.3228 -0.3536 -1.9198
  944MOL0     H24557   2.372   4.176   6.297 -1.5353 -2.0042 -0.2714
  944MOL0     H24558   2.413   4.106   6.138 -2.0154 -1.4673  0.8125
  944MOL0     H24559   2.334   4.398   6.189  1.9064  0.3395  0.9264
  944MOL0     H24560   2.384   4.330   6.033  1.2146 -1.0208  0.7913
  944MOL0     H24561   2.563   4.290   6.392  2.9598  0.7893  1.8241
  944MOL0     H24562   2.806   4.336   6.468  0.6103  2.4753  1.5347
  944MOL0     H24563   2.865   4.452   6.358  0.0651  0.0590 -0.9293
  944MOL0     H24564   3.054   4.313   6.381 -0.4815  0.5706 -0.6752
  944MOL0     H24565   2.998   4.246   6.233  1.4263  1.4026  0.1531
  944MOL0     H24566   2.928   4.128   6.509 -0.0577 -0.7160  1.0456
  944MOL0     H24567   2.873   4.075   6.349  1.0999 -0.0300  0.3732
  944MOL0     H24568   3.174   4.070   6.444  2.0170 -2.7665 -1.3272
  944MOL0     H24569   3.126   4.047   6.284  0.3867 -2.2539 -0.4803
  944MOL0     H24570   3.244   3.859   6.195 -1.6235  3.0830  3.3844
  944MOL0     H24571   3.319   3.641   6.139 -0.9561 -1.5281  0.6229
  944MOL0     H24572   3.502   3.206   6.365  2.1688 -3.8993  1.2521
  944MOL0     H24573   3.573   2.978   6.287 -4.3225 -2.2317 -0.1165
  944MOL0     H24574   3.448   2.800   6.145  0.1241  3.5506 -1.1184
  944MOL0     H24575   3.610   2.759   6.203 -1.7396 -1.6261 -0.1774
  944MOL0     H24576   3.514   2.574   6.090  1.6093  0.7106  2.1194
  944MOL0     H24577   3.661   2.628   6.005  1.1001  3.1397  0.7252
  944MOL0     H24578   3.502   2.609   5.813 -2.5367  2.9810 -2.9068
  944MOL0     H24579   3.506   2.767   5.847 -4.2096  1.0309 -1.8153
  944MOL0     H24580   3.292   2.577   5.969  0.2057 -2.9192 -3.8387
  944MOL0     H24581   3.292   2.755   5.977  0.9737  0.1331 -1.4424
  944MOL0     H24582   3.281   2.590   5.722 -2.2711  0.0300 -0.3795
  944MOL0     H24583   3.258   2.764   5.742 -0.3336  0.5661  1.7607
  944MOL0     H24584   3.073   2.699   5.933  0.6744  1.2577  0.7280
  944MOL0     H24585   3.070   2.540   5.853  1.0912 -0.2579  0.1152
  944MOL0     H24586   3.035   2.804   5.692 -2.0809  0.1063 -1.2444
  944MOL0     H24587   3.038   2.644   5.629 -3.3294 -0.5718 -0.0100
  944MOL0     H24588   2.848   2.580   5.738 -1.6438 -0.7045 -3.7201
  944MOL0     H24589   2.819   2.734   5.645 -0.2972  0.6532  1.1928
  944MOL0     H24590   3.513   3.079   5.888  0.3182  2.4689 -2.1167
  944MOL0     H24591   3.419   3.322   5.971  2.1820 -2.2082 -3.3988
  944MOL0     H24592   3.124   3.451   6.461 -1.2253  0.3809 -0.5922
  944MOL0     H24593   3.023   3.670   6.524  2.5203 -0.6393  1.9286
  944MOL0     H24594   2.150   3.837   6.738 -0.5670  1.1221 -0.0845
  944MOL0     H24595   2.138   3.872   6.988  0.7800  0.3887 -1.0893
  944MOL0     H24596   1.902   3.653   7.392 -3.1554  1.4062 -0.0802
  944MOL0     H24597   1.894   3.709   7.640 -4.7200 -0.1151 -0.8099
  944MOL0     H24598   2.147   3.941   7.748  0.2432  4.3974  0.8866
  944MOL0     H24599   2.041   3.811   7.808  2.8049 -0.4261 -3.1538
  944MOL0     H24600   1.962   3.961   7.981  0.1246 -4.7393 -1.5866
  944MOL0     H24601   2.127   3.887   7.995 -1.3618 -0.6809  0.5276
  944MOL0     H24602   2.044   4.180   7.923 -2.1350 -1.4145 -0.0116
  944MOL0     H24603   2.209   4.109   7.905  0.2036  2.6452  1.2554
  944MOL0     H24604   2.198   4.232   8.120 -1.9777 -0.5081 -0.8683
  944MOL0     H24605   2.067   4.112   8.162 -3.8660  2.5860 -1.5677
  944MOL0     H24606   2.404   3.871   8.223  1.6980  2.8671  2.5293
  944MOL0     H24607   2.003   4.098   7.571  2.0321 -0.6140  0.7611
  944MOL0     H24608   2.009   4.068   7.314  1.0077 -1.9557 -2.7321
  945MOL0     O24609  11.440  11.134   8.478 -0.0072 -0.2211 -0.2062
  945MOL0     C24610  11.386  11.138   8.373  0.1373  0.6319  0.2627
  945MOL0     O24611  11.390  11.039   8.279  0.0335 -1.3311  0.4611
  945MOL0     C24612  11.444  10.916   8.297  1.0365 -0.1624 -0.2324
  945MOL0     C24613  11.582  10.911   8.284 -0.1977 -0.2166  0.2461
  945MOL0     C24614  11.645  10.790   8.278 -1.0253  1.1974 -0.3992
  945MOL0     C24615  11.574  10.661   8.286 -0.5707 -0.5518 -0.3249
  945MOL0     O24616  11.645  10.544   8.281  0.3866 -1.0324 -0.4369
  945MOL0     C24617  11.572  10.429   8.275  0.1276 -0.4601  0.4531
  945MOL0     C24618  11.660  10.330   8.196 -0.0163  0.2886 -0.3591
  945MOL0     C24619  11.790  10.301   8.272  0.1767  0.9350  0.2624
  945MOL0     C24620  11.866  10.186   8.199  0.2287 -0.1386  0.8016
  945MOL0     C24621  11.835  10.038   8.242 -0.0948  0.0724  0.6122
  945MOL0     C24622  11.702   9.978   8.189  0.1922  0.9354  0.9481
  945MOL0     C24623  11.703   9.827   8.179  0.3350 -0.7970 -0.5597
  945MOL0     C24624  11.556   9.783   8.141  0.4286 -0.2436  0.5390
  945MOL0     N24625  11.504   9.836   8.013 -0.3205  0.9677  0.0644
  945MOL0     C24626  11.377   9.889   7.988  0.1762 -0.2467  0.9606
  945MOL0     C24627  11.357   9.883   7.858  0.1644 -0.2942 -0.3189
  945MOL0     C24628  11.238   9.933   7.774  0.1703 -0.4336  0.1547
  945MOL0     C24629  11.187  10.073   7.814  0.6493  0.9159 -0.4383
  945MOL0     C24630  11.296  10.175   7.820 -0.7450 -0.4570  0.2354
  945MOL0     C24631  11.245  10.324   7.821 -0.3169 -0.0641  0.1624
  945MOL0     O24632  11.215  10.364   7.956  0.4863  0.7929  0.1791
  945MOL0     C24633  11.191  10.492   7.989  0.2617  0.3458  0.3284
  945MOL0     C24634  11.174  10.603   7.902 -0.1903 -0.0710  1.5973
  945MOL0     C24635  11.114  10.716   7.943 -0.3744  0.0265  1.0254
  945MOL0     C24636  11.069  10.739   8.066 -0.6179 -0.0006 -0.0227
  945MOL0     C24637  11.002  10.860   8.104 -0.1330  0.0391 -0.2764
  945MOL0     O24638  10.952  10.873   8.233 -0.4460  0.1376  0.5286
  945MOL0     C24639  10.876  10.976   8.280 -0.9312 -1.3871  0.2982
  945MOL0     C24640  10.853  10.975   8.416 -0.4289  0.8513 -0.5589
  945MOL0     C24641  10.784  11.078   8.482 -1.2951  0.5767 -0.5391
  945MOL0     C24642  10.741  11.189   8.409 -0.6451 -0.7546  0.2019
  945MOL0     O24643  10.666  11.290   8.467  0.0878 -0.4141  0.6974
  945MOL0     C24644  10.689  11.333   8.595 -0.6935 -0.1312  0.4118
  945MOL0     C24645  10.632  11.469   8.614 -0.5169 -0.3076  0.2564
  945MOL0     C24646  10.490  11.468   8.664  0.9656 -0.6885 -0.8519
  945MOL0     C24647  10.487  11.411   8.806  0.3343 -0.7892 -0.1396
  945MOL0     C24648  10.381  11.490   8.877  0.1692  0.3484 -0.6281
  945MOL0     C24649  10.420  11.625   8.934 -0.3832 -0.3706 -0.4134
  945MOL0     C24650  10.304  11.707   8.998 -0.0100  0.9075  0.7248
  945MOL0     C24651  10.233  11.626   9.104  0.2222  1.0151  0.4536
  945MOL0    Cl24652  10.094  11.520   9.069 -0.1591 -0.1873  0.1881
  945MOL0     C24653  10.761  11.197   8.272 -0.5899 -0.0431 -0.4051
  945MOL0     C24654  10.821  11.085   8.207  1.0596 -0.6791 -0.2429
  945MOL0     O24655  10.989  10.950   8.018  0.7290 -0.1133 -0.1811
  945MOL0     C24656  11.094  10.638   8.168 -0.5044 -0.2429  0.3592
  945MOL0     C24657  11.151  10.516   8.129 -0.2373 -0.9707  0.7744
  945MOL0     N24658  11.465   9.827   7.805 -0.1403  0.0561 -0.0210
  945MOL0     N24659  11.548   9.788   7.891  0.3444  0.2190  0.1606
  945MOL0     C24660  11.437  10.669   8.316 -0.4157 -0.7169 -0.0110
  945MOL0     C24661  11.371  10.797   8.319 -0.0154 -0.3000 -0.0862
  945MOL0     C24662  11.316  11.251   8.334  0.5184  0.6563  0.3586
  945MOL0     C24663  11.346  11.381   8.372 -0.6626  0.0124  0.0840
  945MOL0     C24664  11.269  11.490   8.345  0.6444 -0.5959  0.3080
  945MOL0     C24665  11.146  11.462   8.280 -0.7854 -0.6116  0.3158
  945MOL0     O24666  11.066  11.572   8.246  0.3537 -0.1740 -0.9656
  945MOL0     C24667  10.921  11.571   8.277  0.2224  0.2999  0.5083
  945MOL0     C24668  10.861  11.703   8.228 -0.8190 -0.1491 -0.0964
  945MOL0     C24669  10.714  11.708   8.252  0.2845  0.0462  1.0166
  945MOL0     C24670  10.628  11.613   8.151 -0.3099  0.1467 -0.0243
  945MOL0     C24671  10.502  11.580   8.216 -0.6557 -0.1471 -0.1648
  945MOL0     C24672  10.388  11.553   8.267  0.5935  0.3891 -0.1803
  945MOL0     C24673  11.106  11.326   8.245 -0.0581  0.2579 -0.8529
  945MOL0     C24674  11.197  11.222   8.267  0.5719 -0.2140  0.2922
  945MOL0     H24675  11.644  11.000   8.280 -0.0107 -0.4129 -2.1946
  945MOL0     H24676  11.751  10.778   8.261 -0.8235  0.4464  1.2209
  945MOL0     H24677  11.479  10.440   8.219  0.8822  1.2662 -0.5513
  945MOL0     H24678  11.564  10.386   8.375 -1.0997 -0.4454  0.3681
  945MOL0     H24679  11.680  10.368   8.095  0.2277  1.3697  0.0771
  945MOL0     H24680  11.604  10.238   8.183  1.6164 -1.4394  3.4982
  945MOL0     H24681  11.770  10.273   8.376 -2.0707  0.7991 -0.1560
  945MOL0     H24682  11.854  10.389   8.285 -1.0101  1.7812  0.5514
  945MOL0     H24683  11.845  10.195   8.092  2.2977  2.1280  0.5190
  945MOL0     H24684  11.972  10.207   8.216  0.8796 -1.2930 -1.4569
  945MOL0     H24685  11.826  10.028   8.351 -2.6736  0.4223  0.5008
  945MOL0     H24686  11.908   9.966   8.205 -3.0981 -2.1625 -1.4107
  945MOL0     H24687  11.688  10.012   8.086 -1.2151 -0.8543  0.5119
  945MOL0     H24688  11.619  10.014   8.251 -0.4164 -0.7037  1.1152
  945MOL0     H24689  11.776   9.795   8.104 -1.8588 -0.9365 -2.7408
  945MOL0     H24690  11.734   9.798   8.280 -1.5519  0.2839  0.3874
  945MOL0     H24691  11.475   9.804   8.212 -2.1202 -1.6081 -1.7769
  945MOL0     H24692  11.546   9.674   8.139 -2.3766 -0.0341 -0.7529
  945MOL0     H24693  11.309   9.926   8.064  2.3875  0.3619  2.7577
  945MOL0     H24694  11.174   9.851   7.805  1.1956 -0.0967  3.6574
  945MOL0     H24695  11.261   9.922   7.668 -0.6386  0.3682 -0.1142
  945MOL0     H24696  11.137  10.078   7.911  2.4881 -0.0539  0.6090
  945MOL0     H24697  11.125  10.092   7.726  0.2565 -2.0925 -0.9261
  945MOL0     H24698  11.363  10.180   7.906 -2.4050  1.0448  1.5135
  945MOL0     H24699  11.367  10.156   7.739  0.6713 -0.9637  1.5383
  945MOL0     H24700  11.149  10.331   7.770 -0.6583 -4.6099 -0.2139
  945MOL0     H24701  11.318  10.394   7.778  0.8339 -0.9628  0.5990
  945MOL0     H24702  11.209  10.600   7.799  1.4974  2.4565  2.0151
  945MOL0     H24703  11.091  10.789   7.867 -2.6826 -1.2509  0.4034
  945MOL0     H24704  10.902  10.901   8.477  1.9998 -0.0337 -3.3456
  945MOL0     H24705  10.758  11.070   8.587  0.5497 -2.6303 -0.2132
  945MOL0     H24706  10.797  11.343   8.609 -0.2575 -1.3475 -1.6450
  945MOL0     H24707  10.653  11.262   8.670 -0.5772  0.9557  1.5341
  945MOL0     H24708  10.642  11.526   8.521 -0.2070 -0.6258  0.0917
  945MOL0     H24709  10.694  11.524   8.686 -0.7246 -0.6505  0.6965
  945MOL0     H24710  10.410  11.423   8.604 -1.0262  0.1504  1.0250
  945MOL0     H24711  10.473  11.576   8.670  1.8945 -0.6026  1.3199
  945MOL0     H24712  10.462  11.305   8.796  1.9768 -1.1496 -0.7083
  945MOL0     H24713  10.586  11.425   8.851  0.0410  3.2423 -0.3939
  945MOL0     H24714  10.350  11.418   8.953  0.9186  1.0395  0.3711
  945MOL0     H24715  10.299  11.507   8.807  2.1664  1.2472 -2.8946
  945MOL0     H24716  10.475  11.680   8.857  3.4503 -1.4000  1.3871
  945MOL0     H24717  10.491  11.598   9.013  0.7943 -3.5502 -2.3977
  945MOL0     H24718  10.342  11.801   9.038  1.0497  0.7944  0.0405
  945MOL0     H24719  10.231  11.727   8.919  0.0607 -1.6859 -0.0882
  945MOL0     H24720  10.195  11.699   9.176 -0.7570 -0.1820  1.1952
  945MOL0     H24721  10.300  11.556   9.155  1.0549  1.6206  0.2027
  945MOL0     H24722  10.727  11.279   8.209  2.2459  1.3380 -0.2771
  945MOL0     H24723  10.819  11.094   8.099  0.2413 -2.4201 -0.4112
  945MOL0     H24724  11.081  10.663   8.272 -1.0474  4.3986 -0.6089
  945MOL0     H24725  11.167  10.435   8.199  2.4717 -1.6864 -0.5390
  945MOL0     H24726  11.372  10.582   8.317 -0.7045 -0.5037 -0.0406
  945MOL0     H24727  11.263  10.806   8.325 -0.1133  1.4489 -2.9566
  945MOL0     H24728  11.438  11.403   8.425  1.2793 -1.7957 -2.2547
  945MOL0     H24729  11.311  11.589   8.359  0.4975 -0.7022  1.6504
  945MOL0     H24730  10.918  11.576   8.386  1.1881 -0.2843  0.5745
  945MOL0     H24731  10.870  11.481   8.244  0.1523  0.3042  0.6053
  945MOL0     H24732  10.918  11.789   8.264  2.1327 -1.2653 -1.7107
  945MOL0     H24733  10.881  11.693   8.121  0.6402  1.6771 -0.0474
  945MOL0     H24734  10.681  11.812   8.247  0.8070  0.2164  1.1433
  945MOL0     H24735  10.687  11.670   8.351 -3.5746  2.6488  1.1963
  945MOL0     H24736  10.608  11.667   8.058 -2.3463 -1.5759 -0.6655
  945MOL0     H24737  10.685  11.526   8.117  0.8982  1.7666 -2.3952
  945MOL0     H24738  10.310  11.506   8.322  3.5960 -2.8306  1.7535
  945MOL0     H24739  11.008  11.327   8.198  0.0370  1.0670 -1.0650
  945MOL0     H24740  11.168  11.122   8.237 -1.0980  1.0147 -2.6077
  946MOL0     O24741   9.991   5.237   5.689  0.1183  0.3997 -0.8119
  946MOL0     C24742   9.981   5.361   5.692 -1.5268  0.7367  0.7148
  946MOL0     O24743  10.090   5.438   5.712  0.0824  0.3257  0.3179
  946MOL0     C24744  10.222   5.387   5.718  0.4268 -0.3630 -0.7379
  946MOL0     C24745  10.310   5.456   5.806  1.1610 -0.0526  0.5139
  946MOL0     C24746  10.444   5.423   5.829  0.9883  1.1437 -0.0734
  946MOL0     C24747  10.497   5.312   5.762 -0.2152 -0.4490  1.7143
  946MOL0     O24748  10.628   5.294   5.776  0.2818  0.3193 -0.0590
  946MOL0     C24749  10.679   5.161   5.750  0.3688  0.5059 -0.2188
  946MOL0     C24750  10.823   5.144   5.809  0.1612 -0.8887 -0.3939
  946MOL0     C24751  10.858   4.999   5.794  0.8069 -0.0306 -1.1802
  946MOL0     C24752  10.960   4.948   5.903 -0.3779 -0.1068  0.2706
  946MOL0     C24753  11.017   4.815   5.840 -0.0855 -0.5163 -0.3296
  946MOL0     C24754  11.132   4.756   5.932 -0.8204  0.2545  0.6747
  946MOL0     C24755  11.259   4.853   5.955 -0.0353  0.1919 -0.0054
  946MOL0     C24756  11.364   4.765   6.022 -0.2953 -0.2151  0.4192
  946MOL0     N24757  11.492   4.825   6.039 -0.7186 -0.2417 -0.2739
  946MOL0     C24758  11.554   4.892   5.941 -1.0453  1.3759  0.7841
  946MOL0     C24759  11.671   4.939   5.997  0.3449  0.8136 -0.2943
  946MOL0     C24760  11.769   5.021   5.931 -0.7037 -0.6438  0.1538
  946MOL0     C24761  11.900   4.946   5.906 -0.6499 -0.8630  0.3367
  946MOL0     C24762  11.904   4.873   5.770  0.3969  0.1811  0.4804
  946MOL0     C24763  12.043   4.818   5.736  0.6495 -0.7393  0.2685
  946MOL0     O24764  12.121   4.752   5.841  0.3439  0.2043 -0.2667
  946MOL0     C24765  12.264   4.754   5.832  0.4553 -0.3067 -0.8427
  946MOL0     C24766  12.339   4.769   5.710 -0.7752  0.5029  0.7176
  946MOL0     C24767  12.482   4.755   5.707  0.0558 -0.3357 -1.4465
  946MOL0     C24768  12.554   4.702   5.817 -0.1721 -0.0374  0.9616
  946MOL0     C24769  12.703   4.674   5.809  0.0794 -0.1925  0.1579
  946MOL0     O24770  12.750   4.589   5.895 -0.3506  0.4116 -0.5961
  946MOL0     C24771  12.882   4.551   5.887  0.7248  0.7403  0.1758
  946MOL0     C24772  12.971   4.623   5.957  0.1706 -1.6197  0.4375
  946MOL0     C24773  13.110   4.607   5.923  0.1057 -0.5304 -0.9590
  946MOL0     C24774  13.156   4.492   5.858 -1.0534 -0.0873 -0.9718
  946MOL0     O24775  13.288   4.466   5.840 -0.3201  0.3769  0.2421
  946MOL0     C24776  13.348   4.531   5.734  0.3537 -0.0183 -0.2449
  946MOL0     C24777  13.503   4.514   5.726  1.2530 -0.4463  0.3314
  946MOL0     C24778  13.539   4.370   5.703  0.0694 -0.5575  0.1364
  946MOL0     C24779  13.688   4.360   5.647 -0.4936  0.2586 -0.8234
  946MOL0     C24780  13.773   4.248   5.696 -1.0298  1.4593  0.5424
  946MOL0     C24781  13.918   4.254   5.655  0.5764  0.1823  0.6142
  946MOL0     C24782  13.997   4.138   5.709 -0.2789 -0.0830  0.2148
  946MOL0     C24783  13.968   4.012   5.633  0.7784  0.2134 -0.0554
  946MOL0    Cl24784  14.071   4.010   5.478 -0.6508  0.0112  0.1180
  946MOL0     C24785  13.061   4.408   5.800 -0.9145 -0.0749  0.1502
  946MOL0     C24786  12.928   4.445   5.807  0.4267  0.5088  0.6450
  946MOL0     O24787  12.769   4.723   5.713  0.2661 -0.5206 -0.9774
  946MOL0     C24788  12.472   4.666   5.934 -0.0638 -0.4196  0.0813
  946MOL0     C24789  12.333   4.710   5.947  0.6991  0.4251 -0.5546
  946MOL0     N24790  11.670   4.890   6.124  0.2212 -0.5910 -0.4017
  946MOL0     N24791  11.564   4.823   6.157 -0.5316  0.2677 -0.6008
  946MOL0     C24792  10.412   5.236   5.677  0.3588  0.8641  0.0780
  946MOL0     C24793  10.277   5.279   5.654  0.6249  0.6752  0.3676
  946MOL0     C24794   9.842   5.408   5.679  0.1350 -0.3868  0.0543
  946MOL0     C24795   9.742   5.320   5.643 -0.2318  1.0824  0.6669
  946MOL0     C24796   9.605   5.361   5.657  0.0818 -0.1632 -0.6270
  946MOL0     C24797   9.572   5.494   5.688 -0.0542 -0.0645  0.2136
  946MOL0     O24798   9.441   5.540   5.697 -0.2601 -0.0529 -0.4815
  946MOL0     C24799   9.328   5.451   5.698 -0.1799  0.1663 -0.0542
  946MOL0     C24800   9.196   5.537   5.709 -1.3261  0.4561  0.4186
  946MOL0     C24801   9.188   5.660   5.610  0.9474  0.0642  0.6662
  946MOL0     C24802   9.078   5.758   5.645 -0.3721  0.7184 -0.2935
  946MOL0     C24803   9.033   5.857   5.541  0.0964  0.6639 -0.3967
  946MOL0     C24804   8.992   5.922   5.444 -0.5732  0.1988  0.1935
  946MOL0     C24805   9.676   5.588   5.710 -0.2532 -0.6429  0.0232
  946MOL0     C24806   9.808   5.537   5.722 -0.2698 -0.4627 -0.1690
  946MOL0     H24807  10.279   5.548   5.855 -0.9229  0.4243 -1.5418
  946MOL0     H24808  10.515   5.481   5.888  0.6233  1.6722 -0.1532
  946MOL0     H24809  10.670   5.152   5.641 -3.8024  0.4418 -0.0232
  946MOL0     H24810  10.604   5.094   5.793  0.7185  0.1675 -0.1271
  946MOL0     H24811  10.820   5.159   5.917  1.5750  2.4618 -0.6932
  946MOL0     H24812  10.902   5.212   5.775 -0.3955  0.5215  1.0591
  946MOL0     H24813  10.897   4.992   5.692  1.5466 -0.0780 -0.8987
  946MOL0     H24814  10.773   4.934   5.818  2.2675 -2.0739 -1.2511
  946MOL0     H24815  11.037   5.025   5.905 -2.2374  1.8517  0.2747
  946MOL0     H24816  10.914   4.953   6.002 -2.1569  5.4576 -0.4862
  946MOL0     H24817  11.044   4.839   5.737 -1.0350  3.0906  0.1270
  946MOL0     H24818  10.930   4.749   5.850 -1.6434  1.5873  0.7058
  946MOL0     H24819  11.175   4.670   5.880  3.7597  2.9479 -0.6008
  946MOL0     H24820  11.089   4.725   6.028 -2.0860 -0.2281 -0.0352
  946MOL0     H24821  11.295   4.897   5.862  0.5231 -2.1963 -1.0015
  946MOL0     H24822  11.237   4.942   6.014  0.1181 -0.6050  1.3147
  946MOL0     H24823  11.382   4.683   5.953 -1.1408 -1.7182  1.9242
  946MOL0     H24824  11.317   4.731   6.114  0.0640 -0.6644  0.4395
  946MOL0     H24825  11.511   4.907   5.842 -1.0148  0.7165  0.6726
  946MOL0     H24826  11.778   5.096   6.010  0.8362 -1.1757  0.5198
  946MOL0     H24827  11.728   5.066   5.840  0.9478  3.2213  1.1190
  946MOL0     H24828  11.925   4.877   5.987  2.0798 -2.2926 -1.5466
  946MOL0     H24829  11.974   5.027   5.907  0.0078 -1.4478  0.4262
  946MOL0     H24830  11.837   4.787   5.780  1.5464 -0.8546 -0.4188
  946MOL0     H24831  11.860   4.933   5.691 -2.5088  0.7811  2.3721
  946MOL0     H24832  12.098   4.910   5.713  0.1347  0.3094  2.8776
  946MOL0     H24833  12.040   4.758   5.645 -0.0293  0.1954 -0.3476
  946MOL0     H24834  12.291   4.807   5.620 -0.6332 -0.5630  0.1714
  946MOL0     H24835  12.540   4.770   5.617 -0.2347  2.4466 -1.2339
  946MOL0     H24836  12.928   4.697   6.023 -1.1347  0.1489 -2.2026
  946MOL0     H24837  13.178   4.683   5.961 -1.3578  1.3763 -1.9868
  946MOL0     H24838  13.322   4.636   5.749  4.3802  1.0904 -0.0506
  946MOL0     H24839  13.311   4.491   5.640 -0.0674 -1.7454  0.6168
  946MOL0     H24840  13.549   4.560   5.814 -0.0799  2.4732 -0.3745
  946MOL0     H24841  13.528   4.563   5.632 -0.1158  1.0741  0.7314
  946MOL0     H24842  13.463   4.323   5.641  0.0759 -0.2301 -0.1221
  946MOL0     H24843  13.531   4.319   5.800 -0.6918 -1.1991 -0.2519
  946MOL0     H24844  13.676   4.333   5.542 -0.6315  1.1391 -1.0417
  946MOL0     H24845  13.744   4.454   5.657 -2.2749  1.1418  1.8811
  946MOL0     H24846  13.731   4.161   5.646  2.1896 -0.1231  0.3425
  946MOL0     H24847  13.757   4.222   5.801 -0.2793 -1.8041 -0.0479
  946MOL0     H24848  13.972   4.335   5.704  0.1883  1.6023 -1.2162
  946MOL0     H24849  13.919   4.267   5.546 -6.2270 -0.1474  0.1035
  946MOL0     H24850  14.104   4.153   5.691 -0.0040 -4.0653 -3.0217
  946MOL0     H24851  13.982   4.115   5.815 -0.5607 -1.2175 -0.0483
  946MOL0     H24852  13.860   3.995   5.626  0.2051  3.6315 -1.9511
  946MOL0     H24853  14.013   3.928   5.686  0.6895 -2.5023 -3.9148
  946MOL0     H24854  13.096   4.321   5.746 -1.2283 -1.4953  2.1029
  946MOL0     H24855  12.871   4.395   5.730  3.8044  0.3974 -1.9931
  946MOL0     H24856  12.536   4.621   6.010 -0.1605 -0.9124 -0.1232
  946MOL0     H24857  12.280   4.694   6.041  1.5382 -2.6547 -0.5045
  946MOL0     H24858  10.448   5.145   5.632 -0.5858  0.2593  0.5128
  946MOL0     H24859  10.221   5.223   5.580  3.5626 -0.1610 -1.3787
  946MOL0     H24860   9.760   5.214   5.627  0.7629  1.1062  1.4897
  946MOL0     H24861   9.525   5.290   5.643 -1.6741  1.2096  1.7034
  946MOL0     H24862   9.334   5.391   5.789  0.0725 -1.0938 -0.8846
  946MOL0     H24863   9.318   5.395   5.604 -4.5237  0.9948 -0.3038
  946MOL0     H24864   9.116   5.472   5.671 -0.2538  0.2060 -1.5721
  946MOL0     H24865   9.177   5.581   5.807  0.2595  1.2560  0.3901
  946MOL0     H24866   9.165   5.617   5.512 -1.0795  1.6392  0.3827
  946MOL0     H24867   9.279   5.719   5.596 -0.4998  2.2403 -0.0903
  946MOL0     H24868   8.983   5.712   5.671 -0.9392 -1.4513 -5.1808
  946MOL0     H24869   9.116   5.800   5.739 -1.9692  2.9913 -0.5900
  946MOL0     H24870   8.949   5.985   5.369 -1.1146  3.1489  2.7361
  946MOL0     H24871   9.657   5.694   5.720  2.0216  0.5273 -4.7674
  946MOL0     H24872   9.892   5.596   5.757 -0.3561  0.1760 -1.0072
  947MOL0     O24873   2.049  11.339   0.786  0.0704 -0.2235 -0.1844
  947MOL0     C24874   2.010  11.245   0.717  0.6349 -0.3758  1.3729
  947MOL0     O24875   1.934  11.258   0.589 -0.1058  0.2946  0.2066
  947MOL0     C24876   1.901  11.382   0.548  0.4567 -0.3188  0.7034
  947MOL0     C24877   1.987  11.493   0.545 -0.0881  1.1174  0.1820
  947MOL0     C24878   1.950  11.600   0.471  0.1970  0.0825  0.5151
  947MOL0     C24879   1.826  11.616   0.408 -0.5060  0.4830  0.2099
  947MOL0     O24880   1.793  11.718   0.320 -0.4693 -0.1178 -0.1321
  947MOL0     C24881   1.838  11.851   0.356 -0.5155 -0.3342  0.3118
  947MOL0     C24882   1.768  11.959   0.276 -0.2071 -0.2212  0.0070
  947MOL0     C24883   1.619  11.965   0.331 -1.5579 -0.1787 -0.2792
  947MOL0     C24884   1.541  12.043   0.233  0.6727  0.6698  0.0539
  947MOL0     C24885   1.385  12.030   0.248 -0.7108 -0.1482  0.1753
  947MOL0     C24886   1.322  11.891   0.241 -0.4177 -0.9022  0.0865
  947MOL0     C24887   1.372  11.813   0.115 -0.7563 -0.4388  0.2009
  947MOL0     C24888   1.274  11.708   0.063 -0.4284 -1.2494 -0.9714
  947MOL0     N24889   1.245  11.611   0.174  0.4644 -0.4192 -1.0503
  947MOL0     C24890   1.329  11.526   0.228 -0.4068  0.5646  0.7845
  947MOL0     C24891   1.258  11.459   0.316  0.2949  0.6701  0.2075
  947MOL0     C24892   1.294  11.328   0.379 -0.3217  0.3483 -0.3256
  947MOL0     C24893   1.355  11.339   0.523  0.3213  0.0713  0.4863
  947MOL0     C24894   1.412  11.199   0.556  0.7497 -0.2611  0.2320
  947MOL0     C24895   1.473  11.185   0.689 -0.6822 -0.0977 -0.8485
  947MOL0     O24896   1.532  11.051   0.704  0.2938  0.7853 -0.1686
  947MOL0     C24897   1.597  11.025   0.818 -0.4734  0.9142  0.1749
  947MOL0     C24898   1.591  10.896   0.862  1.7324  0.2357 -0.2417
  947MOL0     C24899   1.663  10.861   0.978 -0.1469  0.1664 -0.7521
  947MOL0     C24900   1.756  10.957   1.041 -0.3443 -0.1705  1.1336
  947MOL0     C24901   1.839  10.919   1.159 -0.0153 -0.6043  0.3601
  947MOL0     O24902   1.936  11.003   1.197  0.0652 -0.8412  0.1517
  947MOL0     C24903   2.000  10.984   1.312 -0.3596 -0.4382 -0.1671
  947MOL0     C24904   1.964  11.054   1.432 -0.6876  0.0910  0.3374
  947MOL0     C24905   2.033  11.034   1.555  0.4295  0.2660 -0.6137
  947MOL0     C24906   2.138  10.939   1.558  0.2532  0.5474  0.3401
  947MOL0     O24907   2.193  10.923   1.685  0.8782 -0.0133  0.0049
  947MOL0     C24908   2.320  10.858   1.704  1.0042  0.5202  0.4371
  947MOL0     C24909   2.370  10.879   1.845  0.4828  0.3952  0.2893
  947MOL0     C24910   2.502  10.818   1.878 -0.2715  0.1172  0.2593
  947MOL0     C24911   2.566  10.856   2.012 -0.7260 -0.5855 -0.2245
  947MOL0     C24912   2.613  11.006   2.014 -0.2659 -0.1622 -0.5219
  947MOL0     C24913   2.696  11.062   1.897  0.3618 -0.1083  0.5393
  947MOL0     C24914   2.809  10.959   1.874 -0.4155 -0.2642  1.1985
  947MOL0     C24915   2.923  11.020   1.788 -0.7895  0.2646  0.4678
  947MOL0    Cl24916   3.013  11.158   1.873 -0.0159 -0.2904  0.8024
  947MOL0     C24917   2.175  10.872   1.445  0.2670  0.7195  0.0397
  947MOL0     C24918   2.115  10.908   1.321  0.4673 -0.5831 -0.4499
  947MOL0     O24919   1.824  10.809   1.209 -0.1209  0.5172  0.0083
  947MOL0     C24920   1.763  11.089   0.991  1.0824  0.4072  0.2706
  947MOL0     C24921   1.681  11.119   0.880 -1.0251  1.2082  0.0421
  947MOL0     N24922   1.129  11.511   0.322  0.1072  0.7056 -0.1508
  947MOL0     N24923   1.133  11.608   0.246 -0.5107 -0.3472  0.5137
  947MOL0     C24924   1.732  11.509   0.428 -1.2109  0.1870  0.9700
  947MOL0     C24925   1.776  11.394   0.494  0.6745 -0.1439 -0.4307
  947MOL0     C24926   2.018  11.104   0.775 -0.6054 -0.4878  0.3488
  947MOL0     C24927   1.951  11.000   0.717  0.8552 -0.3800 -0.8108
  947MOL0     C24928   1.986  10.864   0.745  0.4428 -0.9977  0.9237
  947MOL0     C24929   2.076  10.842   0.846  0.0176 -0.0254 -0.2220
  947MOL0     O24930   2.098  10.710   0.888 -0.4922  0.0588 -0.8376
  947MOL0     C24931   1.997  10.637   0.957  0.5920 -0.3843 -1.0757
  947MOL0     C24932   2.019  10.483   0.963  0.9292 -0.3922 -0.1807
  947MOL0     C24933   2.010  10.434   0.819 -0.1474  0.1601 -0.8474
  947MOL0     C24934   2.060  10.285   0.801 -0.5929  0.0811 -0.4381
  947MOL0     C24935   1.962  10.190   0.855 -0.2385 -0.3358 -0.6029
  947MOL0     C24936   1.887  10.105   0.898  1.1463 -0.3401 -0.0501
  947MOL0     C24937   2.133  10.941   0.917 -1.1100  0.6519  0.4099
  947MOL0     C24938   2.113  11.077   0.880  0.4304  0.5895  0.6439
  947MOL0     H24939   2.088  11.473   0.581  1.2247  2.0354 -2.6629
  947MOL0     H24940   2.020  11.683   0.465 -0.1672  0.3888  0.4579
  947MOL0     H24941   1.939  11.856   0.316 -1.3864  1.2161 -1.8978
  947MOL0     H24942   1.834  11.867   0.464 -0.7211 -1.8540  0.5532
  947MOL0     H24943   1.763  11.933   0.170 -0.2247  1.5370 -0.4525
  947MOL0     H24944   1.809  12.060   0.279 -3.0901  1.0745 -0.7266
  947MOL0     H24945   1.610  12.010   0.431 -0.5788  0.7455 -0.5794
  947MOL0     H24946   1.578  11.864   0.331 -3.0225  0.3080  2.5893
  947MOL0     H24947   1.584  12.143   0.243  0.2097  1.3640 -3.4882
  947MOL0     H24948   1.569  12.001   0.136  2.3181  3.1943 -0.6534
  947MOL0     H24949   1.351  12.087   0.161  1.8051  0.8115 -0.2782
  947MOL0     H24950   1.351  12.080   0.339 -0.5230  0.4229 -0.0642
  947MOL0     H24951   1.214  11.904   0.229 -0.0789  2.2083 -0.5010
  947MOL0     H24952   1.351  11.837   0.331 -1.3892 -0.2934  0.7835
  947MOL0     H24953   1.383  11.892   0.039 -3.0637 -0.2651 -0.0379
  947MOL0     H24954   1.473  11.777   0.137 -0.2348 -0.1887 -1.6048
  947MOL0     H24955   1.331  11.650  -0.010  0.5297 -0.0377 -1.2297
  947MOL0     H24956   1.191  11.764   0.019 -1.2899 -0.5123  1.4511
  947MOL0     H24957   1.429  11.507   0.190 -1.3555  0.7335 -2.0519
  947MOL0     H24958   1.352  11.266   0.311 -2.8566 -3.0057  0.3170
  947MOL0     H24959   1.198  11.277   0.394 -0.5207 -0.3446 -3.3140
  947MOL0     H24960   1.281  11.378   0.594  1.1395 -0.0645  1.4385
  947MOL0     H24961   1.440  11.408   0.522 -0.1928  0.7258 -0.4416
  947MOL0     H24962   1.328  11.130   0.552  0.6114 -0.0274 -2.9557
  947MOL0     H24963   1.477  11.162   0.476  0.3960 -0.4130  0.0138
  947MOL0     H24964   1.400  11.196   0.771 -0.4270  1.2504 -0.7809
  947MOL0     H24965   1.552  11.260   0.694 -1.1045  0.3001  0.5985
  947MOL0     H24966   1.542  10.828   0.792  0.1877  1.0740 -0.0103
  947MOL0     H24967   1.664  10.762   1.023  1.6982 -0.0069 -1.0852
  947MOL0     H24968   1.892  11.134   1.433  0.3397  1.1919 -2.5087
  947MOL0     H24969   2.008  11.082   1.650  2.0182 -1.0001  0.5008
  947MOL0     H24970   2.391  10.898   1.631  0.2157  0.1528 -0.5553
  947MOL0     H24971   2.317  10.752   1.675 -6.0470  0.4896 -0.5532
  947MOL0     H24972   2.286  10.849   1.908 -1.8505  3.1126 -1.2731
  947MOL0     H24973   2.380  10.988   1.851 -0.0194  0.6232 -1.9915
  947MOL0     H24974   2.569  10.821   1.792  1.2922  1.8047  1.4616
  947MOL0     H24975   2.496  10.709   1.878  0.8254  0.0429 -0.4607
  947MOL0     H24976   2.483  10.832   2.080 -1.5242  0.0085 -0.9687
  947MOL0     H24977   2.642  10.783   2.040 -1.4683 -0.6655  1.7585
  947MOL0     H24978   2.677  10.994   2.102 -1.8470 -0.3257  0.6493
  947MOL0     H24979   2.527  11.073   2.022  1.2449  1.9388 -1.2821
  947MOL0     H24980   2.743  11.158   1.919  0.5493  0.4232 -1.8569
  947MOL0     H24981   2.635  11.091   1.811  0.0676  0.7245  1.0234
  947MOL0     H24982   2.850  10.919   1.967 -2.3117 -1.3275  1.6296
  947MOL0     H24983   2.775  10.869   1.822  1.6056 -0.7487  0.6449
  947MOL0     H24984   2.874  11.056   1.696 -0.2477 -2.3630 -0.9511
  947MOL0     H24985   2.994  10.943   1.758 -1.3832 -1.2436  2.7561
  947MOL0     H24986   2.265  10.810   1.449  0.1518  0.3578 -2.0859
  947MOL0     H24987   2.149  10.874   1.223  0.8572 -1.5548  0.0061
  947MOL0     H24988   1.813  11.174   1.035 -2.0754  1.8586  1.3873
  947MOL0     H24989   1.687  11.218   0.835  3.1707 -0.6881 -4.4489
  947MOL0     H24990   1.632  11.516   0.385 -0.7897  0.4327  0.0011
  947MOL0     H24991   1.709  11.309   0.498  1.5360 -0.8191 -0.2719
  947MOL0     H24992   1.884  11.009   0.632 -1.6648  0.0226  1.1059
  947MOL0     H24993   1.941  10.774   0.704 -2.2521  0.3084  0.7790
  947MOL0     H24994   1.903  10.660   0.906  1.0034  2.1744 -0.8163
  947MOL0     H24995   1.988  10.681   1.057 -1.7956 -2.2768 -0.3592
  947MOL0     H24996   2.108  10.459   1.022  0.0524 -0.6571  1.0771
  947MOL0     H24997   1.935  10.443   1.020  0.5341 -0.8969 -1.1041
  947MOL0     H24998   2.080  10.500   0.767  0.4570  2.1903  2.2605
  947MOL0     H24999   1.913  10.445   0.770 -0.6207 -0.3263 -0.0434
  947MOL0     H25000   2.086  10.268   0.696  1.3036  1.6691 -0.2780
  947MOL0     H25001   2.148  10.275   0.864 -2.2510 -2.6580  1.6758
  947MOL0     H25002   1.827  10.025   0.935  0.2204 -0.5543 -1.9012
  947MOL0     H25003   2.201  10.909   0.995 -1.2472 -1.3593 -0.2382
  947MOL0     H25004   2.158  11.161   0.932 -1.9869  2.1307  0.3717
  948MOL0     O25005   8.855   1.540   8.225 -0.2306  0.6523 -0.0344
  948MOL0     C25006   8.925   1.616   8.291  0.3005  0.3859  0.4191
  948MOL0     O25007   8.918   1.633   8.427 -0.5338  0.1109 -0.1934
  948MOL0     C25008   8.827   1.562   8.496  0.4375  0.7908  0.3128
  948MOL0     C25009   8.704   1.611   8.527 -0.4773  0.9265  0.2312
  948MOL0     C25010   8.615   1.537   8.602  0.3465  0.6663  0.7661
  948MOL0     C25011   8.634   1.410   8.650  0.6726 -0.0784  0.1426
  948MOL0     O25012   8.556   1.342   8.742 -0.3458  0.6505  0.6756
  948MOL0     C25013   8.537   1.408   8.872 -0.0516 -0.1305 -0.8040
  948MOL0     C25014   8.522   1.292   8.969  0.2676 -0.1158 -0.1390
  948MOL0     C25015   8.514   1.347   9.113  0.6835 -0.5604  0.9784
  948MOL0     C25016   8.482   1.245   9.214  0.0487  0.5235  0.5621
  948MOL0     C25017   8.431   1.301   9.351  0.4307 -0.5395  0.3119
  948MOL0     C25018   8.546   1.386   9.390  0.1957 -0.4897 -0.8788
  948MOL0     C25019   8.540   1.425   9.541  0.5973  0.0480  0.1755
  948MOL0     C25020   8.458   1.556   9.549 -0.0827  1.0014  0.4155
  948MOL0     N25021   8.314   1.535   9.576 -0.0597  0.9186 -0.3014
  948MOL0     C25022   8.260   1.457   9.678  0.6690 -0.2197 -0.0162
  948MOL0     C25023   8.126   1.455   9.663  0.1220  0.2937  1.0640
  948MOL0     C25024   8.026   1.382   9.744 -0.3328 -0.5353  0.1837
  948MOL0     C25025   8.004   1.457   9.877 -0.1357 -0.1334 -0.4086
  948MOL0     C25026   7.915   1.581   9.849 -0.2459 -0.5844 -0.8532
  948MOL0     C25027   7.855   1.649   9.979 -0.1305  0.2861 -0.5682
  948MOL0     O25028   7.719   1.594   9.989  0.4208 -0.5927 -0.3621
  948MOL0     C25029   7.651   1.602  10.110 -0.2259  0.0311  0.2735
  948MOL0     C25030   7.637   1.716  10.180  0.0608 -0.1897  1.0410
  948MOL0     C25031   7.565   1.730  10.300 -0.3219  0.2816 -0.0070
  948MOL0     C25032   7.500   1.613  10.352 -0.1701  0.0201  0.1262
  948MOL0     C25033   7.428   1.626  10.481  0.0493  0.8687  0.4122
  948MOL0     O25034   7.370   1.515  10.532  0.1666 -0.3484 -0.2940
  948MOL0     C25035   7.265   1.519  10.622  0.1286  0.4359 -0.3420
  948MOL0     C25036   7.271   1.589  10.754 -0.3219  0.9592 -0.2283
  948MOL0     C25037   7.172   1.558  10.855 -0.1533 -0.8661  0.3132
  948MOL0     C25038   7.070   1.466  10.829  0.4421 -0.0250  1.0054
  948MOL0     O25039   6.974   1.461  10.923 -0.4455 -0.1827  1.0343
  948MOL0     C25040   6.894   1.342  10.935 -0.1465 -0.6531  0.6464
  948MOL0     C25041   6.885   1.285  11.078 -0.3796 -0.5774  0.1691
  948MOL0     C25042   6.775   1.187  11.088 -0.7060 -1.0717  0.3176
  948MOL0     C25043   6.793   1.118  11.222 -0.1810  0.3129 -0.7147
  948MOL0     C25044   6.716   0.992  11.223  0.6630  0.0102  0.0741
  948MOL0     C25045   6.737   0.918  11.355  0.0218 -1.6735  0.2555
  948MOL0     C25046   6.648   0.795  11.380  0.0394 -0.7009 -0.6780
  948MOL0     C25047   6.511   0.830  11.431 -0.4914 -0.3586  0.2785
  948MOL0    Cl25048   6.400   0.875  11.307 -0.3607 -0.0962 -0.1040
  948MOL0     C25049   7.061   1.408  10.702  0.7401  0.3670 -0.3488
  948MOL0     C25050   7.162   1.425  10.610 -0.4636 -0.2101  0.6341
  948MOL0     O25051   7.413   1.737  10.529 -0.1899  0.1511 -0.4153
  948MOL0     C25052   7.524   1.482  10.283  0.7951 -0.1753 -0.8815
  948MOL0     C25053   7.590   1.486  10.161  0.2241 -0.4162  0.9977
  948MOL0     N25054   8.102   1.533   9.556  0.0986 -0.2361  0.2338
  948MOL0     N25055   8.205   1.576   9.499 -0.0493 -0.6347  0.0553
  948MOL0     C25056   8.758   1.354   8.606  0.5104 -0.8414  0.1832
  948MOL0     C25057   8.860   1.431   8.536  0.2917 -0.3027 -0.2906
  948MOL0     C25058   9.026   1.699   8.222 -0.0618  0.7585 -0.6241
  948MOL0     C25059   9.068   1.656   8.091 -0.9028 -0.2581 -0.1790
  948MOL0     C25060   9.169   1.719   8.025  0.3723 -0.6868  0.5611
  948MOL0     C25061   9.241   1.835   8.079  1.2495 -0.0175  0.1015
  948MOL0     O25062   9.355   1.875   8.018 -0.0435  0.3065  0.6054
  948MOL0     C25063   9.408   2.000   8.066  0.1589 -0.1648  0.0994
  948MOL0     C25064   9.487   2.059   7.949  0.1937 -0.3812  0.6510
  948MOL0     C25065   9.409   2.072   7.821 -0.5502  0.6646 -0.6045
  948MOL0     C25066   9.418   2.220   7.771 -0.5238  0.3232 -0.2802
  948MOL0     C25067   9.551   2.245   7.717 -0.4873  0.0537  0.4585
  948MOL0     C25068   9.669   2.270   7.674  0.2616  0.6669 -0.2311
  948MOL0     C25069   9.190   1.884   8.209 -0.2013 -0.8845  0.0632
  948MOL0     C25070   9.092   1.809   8.278 -0.2950  0.7229 -0.2222
  948MOL0     H25071   8.680   1.709   8.485  1.1559 -0.0819 -3.4845
  948MOL0     H25072   8.519   1.584   8.621  0.1744  0.1184  1.2843
  948MOL0     H25073   8.448   1.471   8.884  0.0959 -0.2345  1.1042
  948MOL0     H25074   8.630   1.466   8.878  0.0628 -0.1929 -1.8076
  948MOL0     H25075   8.602   1.218   8.968  0.1701 -0.2588  1.1947
  948MOL0     H25076   8.426   1.246   8.944 -0.9533  0.4919  3.0070
  948MOL0     H25077   8.439   1.425   9.126  1.0623 -0.3152  1.7569
  948MOL0     H25078   8.609   1.396   9.137 -0.0860 -0.2411  3.6756
  948MOL0     H25079   8.405   1.179   9.172 -1.2468  2.9939 -1.2391
  948MOL0     H25080   8.566   1.177   9.228 -0.6292 -0.2228  1.1060
  948MOL0     H25081   8.419   1.213   9.415 -2.5876  0.3491  1.1001
  948MOL0     H25082   8.333   1.349   9.355 -0.4305 -2.3200  1.7173
  948MOL0     H25083   8.544   1.468   9.317  0.1008 -2.6269 -3.4032
  948MOL0     H25084   8.643   1.337   9.376  0.9882  1.2472 -1.8485
  948MOL0     H25085   8.512   1.343   9.607 -1.5251 -1.6760 -2.6467
  948MOL0     H25086   8.642   1.455   9.566  0.2545  0.7548  0.7990
  948MOL0     H25087   8.482   1.624   9.467 -0.3587 -2.2018 -2.5191
  948MOL0     H25088   8.495   1.621   9.630 -0.1536  1.1839  0.3007
  948MOL0     H25089   8.314   1.407   9.758 -0.5177  2.1317  2.4135
  948MOL0     H25090   8.058   1.280   9.769 -1.2692 -0.8327  0.1966
  948MOL0     H25091   7.933   1.372   9.687 -0.1567  0.1463 -0.2293
  948MOL0     H25092   8.091   1.489   9.934 -1.8899  0.7828  1.9349
  948MOL0     H25093   7.950   1.385   9.940  0.6107  0.1958  0.6415
  948MOL0     H25094   7.963   1.665   9.800  1.1184  0.8699  2.6535
  948MOL0     H25095   7.827   1.560   9.787 -0.6623  0.2157 -0.5483
  948MOL0     H25096   7.837   1.751   9.943 -1.9673 -0.7993 -3.0710
  948MOL0     H25097   7.923   1.651  10.064 -0.0474  3.0083 -0.6233
  948MOL0     H25098   7.678   1.806  10.136  0.3397 -0.3588  0.9552
  948MOL0     H25099   7.557   1.828  10.345 -3.9842  2.3228 -4.2965
  948MOL0     H25100   7.359   1.644  10.787  0.2366 -0.1350  0.1792
  948MOL0     H25101   7.162   1.607  10.951  2.1278  0.2129  0.0590
  948MOL0     H25102   6.907   1.258  10.867 -1.1372  0.4739 -1.0319
  948MOL0     H25103   6.791   1.379  10.924 -0.4351 -1.5258  0.3481
  948MOL0     H25104   6.875   1.353  11.163 -1.5438 -0.8888  0.2982
  948MOL0     H25105   6.978   1.229  11.088 -1.0187 -1.2764  3.0115
  948MOL0     H25106   6.787   1.105  11.017  3.0496  0.2854 -0.8642
  948MOL0     H25107   6.678   1.237  11.082 -0.6438 -0.5691  2.4231
  948MOL0     H25108   6.895   1.094  11.252 -0.4350  0.1111  0.0225
  948MOL0     H25109   6.741   1.186  11.290 -1.1693 -1.0644 -0.0245
  948MOL0     H25110   6.743   0.922  11.144 -0.6213  2.6716 -2.9146
  948MOL0     H25111   6.609   1.005  11.203  0.9527  1.6439 -0.5398
  948MOL0     H25112   6.724   0.993  11.434 -0.1202 -0.7796 -0.5937
  948MOL0     H25113   6.841   0.884  11.357 -0.1761 -2.2705  1.6573
  948MOL0     H25114   6.638   0.738  11.287 -3.3770 -2.0341  0.3383
  948MOL0     H25115   6.684   0.736  11.464  1.9076  1.1837 -0.0637
  948MOL0     H25116   6.514   0.911  11.504  1.7325  0.8461 -1.0219
  948MOL0     H25117   6.467   0.746  11.485  1.0372  1.0032  3.9962
  948MOL0     H25118   6.989   1.336  10.664  1.5274 -1.3007  1.1474
  948MOL0     H25119   7.156   1.379  10.512 -0.2443  0.7471  0.1536
  948MOL0     H25120   7.512   1.383  10.324 -1.3407  0.2796 -0.3080
  948MOL0     H25121   7.607   1.397  10.103  1.7801  0.2071  0.4392
  948MOL0     H25122   8.782   1.256   8.646 -1.1152 -0.4469  2.2872
  948MOL0     H25123   8.959   1.395   8.510  0.7678 -0.7551  1.9296
  948MOL0     H25124   9.037   1.572   8.030  3.2935 -0.3926 -2.5392
  948MOL0     H25125   9.206   1.685   7.929  1.7584 -0.9978  1.1825
  948MOL0     H25126   9.477   1.977   8.147 -0.8963 -3.7136  0.1604
  948MOL0     H25127   9.333   2.070   8.104  0.3483  0.0473  0.0866
  948MOL0     H25128   9.530   2.153   7.985  2.7658 -1.4123  0.4530
  948MOL0     H25129   9.561   1.980   7.933 -1.6377 -1.6893 -2.3300
  948MOL0     H25130   9.307   2.050   7.852  0.6250 -3.6975  0.8071
  948MOL0     H25131   9.440   2.004   7.741 -0.7917 -4.4580  3.2024
  948MOL0     H25132   9.342   2.237   7.694  1.6128  2.3590 -2.1361
  948MOL0     H25133   9.398   2.288   7.854 -1.2693  2.6716 -2.2240
  948MOL0     H25134   9.769   2.287   7.640  2.0049 -0.3734  3.7701
  948MOL0     H25135   9.232   1.972   8.256  0.0139 -1.8009  1.6475
  948MOL0     H25136   9.054   1.829   8.378 -1.8758 -2.6612  0.0085
  949MOL0     O25137   7.042   5.878   7.416 -0.4583  0.4234 -0.3830
  949MOL0     C25138   7.026   5.843   7.535  0.6308 -0.1166 -0.5867
  949MOL0     O25139   7.126   5.824   7.620 -0.4890  0.6032  0.7237
  949MOL0     C25140   7.249   5.857   7.572 -0.0881  0.3907  0.0471
  949MOL0     C25141   7.275   5.983   7.519 -0.1048  0.3685  0.0060
  949MOL0     C25142   7.403   6.016   7.481 -0.5620 -0.1003  1.1134
  949MOL0     C25143   7.508   5.920   7.503  0.7816  0.2367  0.1963
  949MOL0     O25144   7.642   5.935   7.472 -0.3245  0.7981  0.0831
  949MOL0     C25145   7.679   6.058   7.406  0.2593 -0.2618  0.4971
  949MOL0     C25146   7.830   6.060   7.390 -0.2140 -0.4278  0.1885
  949MOL0     C25147   7.858   6.174   7.290 -0.4520 -0.0190  0.4083
  949MOL0     C25148   8.007   6.195   7.264  0.1054 -0.0154 -1.2109
  949MOL0     C25149   8.043   6.335   7.212 -1.0937 -0.5013 -0.1029
  949MOL0     C25150   8.204   6.346   7.204 -0.2572  0.1880 -0.9466
  949MOL0     C25151   8.258   6.482   7.156 -0.0512  0.0246  0.3053
  949MOL0     C25152   8.243   6.517   7.004 -0.3444  0.0231  0.5524
  949MOL0     N25153   8.319   6.438   6.906 -0.0566 -0.4147  0.3507
  949MOL0     C25154   8.290   6.417   6.771  0.6617  0.3917 -0.3528
  949MOL0     C25155   8.385   6.330   6.725 -0.3186 -0.2776  0.6173
  949MOL0     C25156   8.358   6.277   6.579 -0.8110  0.6867  0.6888
  949MOL0     C25157   8.480   6.210   6.510 -0.5568  0.6124  0.2110
  949MOL0     C25158   8.468   6.172   6.360  0.9168  0.1328 -0.2393
  949MOL0     C25159   8.593   6.126   6.293  0.3802  0.9694 -0.3277
  949MOL0     O25160   8.662   6.031   6.389 -0.4980  0.3477  0.1423
  949MOL0     C25161   8.753   5.942   6.328  0.4052 -0.3927  0.1459
  949MOL0     C25162   8.715   5.840   6.236  0.4262  0.0938 -0.0621
  949MOL0     C25163   8.809   5.758   6.172 -0.5577  0.1005  0.2454
  949MOL0     C25164   8.943   5.785   6.192 -0.4179  0.9622  0.1255
  949MOL0     C25165   9.042   5.685   6.136  0.3726 -0.4296  0.5385
  949MOL0     O25166   9.172   5.682   6.166  0.2996 -0.5571  0.6875
  949MOL0     C25167   9.247   5.588   6.121  0.0957 -0.0726 -0.2455
  949MOL0     C25168   9.360   5.628   6.051  0.3024  0.7746  0.0991
  949MOL0     C25169   9.452   5.529   6.008 -0.4927 -0.9377  0.2812
  949MOL0     C25170   9.426   5.394   6.030 -0.3002 -0.5095  0.3168
  949MOL0     O25171   9.518   5.291   5.990 -0.4017  0.2389 -0.3022
  949MOL0     C25172   9.624   5.291   6.097  1.8583  0.5114  0.5838
  949MOL0     C25173   9.741   5.191   6.062  0.2188  0.8399  0.3715
  949MOL0     C25174   9.872   5.243   6.129 -0.3762 -0.1384  0.3955
  949MOL0     C25175   9.979   5.154   6.092 -0.6477 -0.1067 -0.5531
  949MOL0     C25176  10.094   5.209   6.173  0.1829  0.1469  0.0291
  949MOL0     C25177  10.227   5.168   6.108 -1.0755  0.4078  0.6037
  949MOL0     C25178  10.347   5.211   6.190  0.5913  0.1889  0.0736
  949MOL0     C25179  10.482   5.179   6.116 -0.1969  0.8956  0.1374
  949MOL0    Cl25180  10.631   5.178   6.220  0.1829  0.2011  0.0588
  949MOL0     C25181   9.305   5.361   6.093  0.1126  1.1782  0.8662
  949MOL0     C25182   9.216   5.451   6.145  0.2720 -0.1605  0.6123
  949MOL0     O25183   8.991   5.604   6.067  0.1563  0.6134 -0.1066
  949MOL0     C25184   8.982   5.876   6.290  0.5027  0.0035 -0.1384
  949MOL0     C25185   8.885   5.955   6.352  0.4131  0.0888  1.0500
  949MOL0     N25186   8.467   6.294   6.830  0.1242  0.1138  0.6364
  949MOL0     N25187   8.425   6.360   6.938 -0.2024 -0.1473  0.6802
  949MOL0     C25188   7.466   5.793   7.536  0.0496 -0.5989 -0.1671
  949MOL0     C25189   7.344   5.766   7.583  0.2342 -0.1252 -0.4298
  949MOL0     C25190   6.891   5.810   7.581  1.3960  0.3319  0.6384
  949MOL0     C25191   6.778   5.864   7.528 -0.0544  0.6529 -0.5894
  949MOL0     C25192   6.653   5.847   7.601 -0.0679 -0.1896 -0.2584
  949MOL0     C25193   6.632   5.766   7.716 -1.0955 -0.8106 -0.3398
  949MOL0     O25194   6.513   5.759   7.785  0.5089  0.2702 -0.8459
  949MOL0     C25195   6.471   5.869   7.862  0.3994  0.6959 -0.5250
  949MOL0     C25196   6.372   5.819   7.972 -1.2225  0.6840  0.4718
  949MOL0     C25197   6.330   5.931   8.069  0.7821 -0.2514 -0.5573
  949MOL0     C25198   6.227   6.030   7.999 -0.7629  0.7409  0.1677
  949MOL0     C25199   6.092   5.977   8.000  0.7747  1.7754  1.6228
  949MOL0     C25200   5.979   5.941   8.015 -0.0810  1.0563 -0.1692
  949MOL0     C25201   6.752   5.708   7.768  0.5675 -1.1533 -0.2627
  949MOL0     C25202   6.878   5.730   7.702  0.1929  0.0341  0.3020
  949MOL0     H25203   7.194   6.054   7.508  1.3986  1.7990 -3.3509
  949MOL0     H25204   7.427   6.115   7.444  0.4446 -0.1180  1.6933
  949MOL0     H25205   7.642   6.135   7.475 -2.4459 -2.0941  1.2820
  949MOL0     H25206   7.624   6.070   7.313  2.2835  1.8885 -0.5330
  949MOL0     H25207   7.865   5.965   7.348 -1.6073 -0.4093 -1.0900
  949MOL0     H25208   7.877   6.079   7.487  0.4944 -1.4465  0.0623
  949MOL0     H25209   7.806   6.263   7.325 -1.7928  0.1645 -1.8640
  949MOL0     H25210   7.810   6.158   7.193 -0.3065  0.2996  0.2845
  949MOL0     H25211   8.061   6.202   7.359  0.1226 -0.7118 -1.1622
  949MOL0     H25212   8.050   6.118   7.199  1.1640 -0.1798 -0.3576
  949MOL0     H25213   8.009   6.418   7.274 -0.3543  0.7599 -1.3203
  949MOL0     H25214   8.001   6.352   7.112  0.4998 -0.0869 -0.7494
  949MOL0     H25215   8.247   6.258   7.155  0.8326 -3.7542  5.8169
  949MOL0     H25216   8.242   6.325   7.304  0.1614  1.3992 -0.8332
  949MOL0     H25217   8.209   6.565   7.208  2.0446  1.1696  0.5713
  949MOL0     H25218   8.363   6.485   7.188 -0.4273  0.2007  1.5827
  949MOL0     H25219   8.265   6.624   6.993 -0.5435 -0.0554 -0.7415
  949MOL0     H25220   8.136   6.508   6.980 -0.1291 -0.3132 -0.2982
  949MOL0     H25221   8.205   6.460   6.721 -1.4287 -1.3387  1.5122
  949MOL0     H25222   8.325   6.356   6.510 -2.8835 -0.0030  0.8336
  949MOL0     H25223   8.274   6.208   6.590 -2.7565  2.6165 -1.0871
  949MOL0     H25224   8.499   6.109   6.547  0.6623  0.0905 -1.6766
  949MOL0     H25225   8.569   6.265   6.541  0.1002 -1.0457  1.4224
  949MOL0     H25226   8.392   6.096   6.341 -0.7857  1.8761 -0.6595
  949MOL0     H25227   8.428   6.263   6.313  2.1067  1.4329  1.1608
  949MOL0     H25228   8.666   6.205   6.275 -0.1532  0.8882 -3.4071
  949MOL0     H25229   8.574   6.088   6.192 -0.7739  1.9988 -0.5138
  949MOL0     H25230   8.616   5.808   6.206  0.9128 -1.4627 -0.0745
  949MOL0     H25231   8.781   5.674   6.109  1.3415 -0.3274 -0.0872
  949MOL0     H25232   9.390   5.732   6.037 -0.8276  1.8687  4.3315
  949MOL0     H25233   9.534   5.573   5.952 -0.7397 -2.8797 -1.7332
  949MOL0     H25234   9.583   5.254   6.192  1.4482  1.1181  0.6477
  949MOL0     H25235   9.670   5.390   6.092  0.5933  1.0733 -1.3921
  949MOL0     H25236   9.756   5.200   5.954 -2.2416 -0.7394 -0.1842
  949MOL0     H25237   9.702   5.090   6.079 -0.7376  0.8980 -1.1807
  949MOL0     H25238   9.847   5.248   6.236  0.6955  1.8093  0.5953
  949MOL0     H25239   9.889   5.343   6.090 -1.4457  0.9617  2.5522
  949MOL0     H25240   9.972   5.047   6.117 -0.7122  0.1228  0.4577
  949MOL0     H25241   9.993   5.157   5.984 -2.3612  0.0301 -0.8073
  949MOL0     H25242  10.080   5.187   6.280 -1.9441  1.8801  0.1879
  949MOL0     H25243  10.101   5.318   6.173  0.5011  0.1263 -0.1160
  949MOL0     H25244  10.242   5.217   6.012 -1.2969  1.6822  1.1981
  949MOL0     H25245  10.219   5.059   6.099 -0.4194  0.4454 -0.7047
  949MOL0     H25246  10.328   5.317   6.209  1.1235 -0.0987  2.6354
  949MOL0     H25247  10.349   5.159   6.286  1.4633 -1.3096 -0.7258
  949MOL0     H25248  10.488   5.248   6.031 -1.0100  0.6247 -0.1498
  949MOL0     H25249  10.474   5.080   6.070 -2.2035  0.6460  0.9399
  949MOL0     H25250   9.298   5.254   6.113 -0.4360  1.3636  1.7205
  949MOL0     H25251   9.132   5.415   6.204  1.8985 -3.5987  1.1046
  949MOL0     H25252   9.081   5.886   6.332 -0.0355  1.4103  0.8762
  949MOL0     H25253   8.915   6.037   6.417 -0.6119  0.7190  0.7515
  949MOL0     H25254   7.545   5.719   7.532  0.8136  0.0936  1.2244
  949MOL0     H25255   7.321   5.663   7.610 -0.2631  0.2577  0.6343
  949MOL0     H25256   6.778   5.931   7.442 -0.8760  2.2072  0.5671
  949MOL0     H25257   6.562   5.888   7.560 -1.3201 -0.7027  1.8564
  949MOL0     H25258   6.424   5.943   7.796 -1.2857 -1.2948 -1.6584
  949MOL0     H25259   6.554   5.919   7.913  0.6219  1.2949 -1.4404
  949MOL0     H25260   6.281   5.774   7.930 -2.4314  1.6239  1.9571
  949MOL0     H25261   6.418   5.732   8.020  0.3485  0.6165 -1.0657
  949MOL0     H25262   6.417   5.990   8.102  3.5934 -4.9677  1.4927
  949MOL0     H25263   6.284   5.905   8.164 -1.2229  0.5382 -1.2676
  949MOL0     H25264   6.236   6.123   8.055 -0.7693  1.1234 -0.4619
  949MOL0     H25265   6.271   6.055   7.902  0.7819  1.1582  0.9467
  949MOL0     H25266   5.880   5.902   8.030 -0.5579  2.4590  0.5036
  949MOL0     H25267   6.751   5.651   7.860  0.5486 -2.2858 -0.9342
  949MOL0     H25268   6.961   5.674   7.744  2.0597  2.2312 -0.2817
  950MOL0     O25269   9.787   1.081   0.694  0.3107  1.0673  0.2854
  950MOL0     C25270   9.668   1.049   0.696 -0.1032 -0.0954  0.1813
  950MOL0     O25271   9.613   0.959   0.626  0.9971 -0.1759  0.0923
  950MOL0     C25272   9.689   0.876   0.546 -0.1696 -0.9928 -0.4871
  950MOL0     C25273   9.793   0.803   0.595  0.2000 -0.1270 -0.4885
  950MOL0     C25274   9.859   0.702   0.526  1.0057 -0.7186 -0.3279
  950MOL0     C25275   9.816   0.691   0.390 -0.6484 -0.1446 -0.1339
  950MOL0     O25276   9.874   0.601   0.303 -0.2673 -0.1222  0.1685
  950MOL0     C25277   9.958   0.496   0.350 -0.5151 -0.0374 -0.2004
  950MOL0     C25278   9.871   0.392   0.428 -0.1159 -0.7054 -0.2446
  950MOL0     C25279   9.760   0.334   0.352  0.1652 -0.5642  0.7779
  950MOL0     C25280   9.709   0.209   0.421  0.2700 -0.8110  0.3718
  950MOL0     C25281   9.567   0.176   0.375  0.2677 -0.2402  0.4188
  950MOL0     C25282   9.486   0.081   0.460 -0.4168  0.2252 -0.3730
  950MOL0     C25283   9.331   0.076   0.417 -0.6504 -0.5061 -0.4138
  950MOL0     C25284   9.334  -0.009   0.284  0.0970 -1.3220  0.8062
  950MOL0     N25285   9.362  -0.152   0.310 -0.1811 -0.2075  0.2331
  950MOL0     C25286   9.477  -0.222   0.269 -0.5337 -0.2169  0.7400
  950MOL0     C25287   9.458  -0.351   0.311 -0.6607  0.2414  0.2530
  950MOL0     C25288   9.539  -0.470   0.286 -0.3808  0.8558 -0.0609
  950MOL0     C25289   9.577  -0.556   0.407 -0.8291 -0.5813  0.2578
  950MOL0     C25290   9.728  -0.535   0.453 -0.8486 -0.7012  0.2300
  950MOL0     C25291   9.752  -0.545   0.602 -0.3923  0.7663 -0.7770
  950MOL0     O25292   9.722  -0.425   0.672  0.6988  0.1936  0.5032
  950MOL0     C25293   9.818  -0.326   0.659 -0.6665  0.2620  0.3056
  950MOL0     C25294   9.794  -0.207   0.591 -1.2344 -1.0805 -0.0014
  950MOL0     C25295   9.882  -0.091   0.580  0.2188  0.5564 -0.2859
  950MOL0     C25296   9.999  -0.101   0.660  0.9950  0.2750 -0.4170
  950MOL0     C25297  10.089   0.019   0.690  0.4317 -0.1344 -0.4794
  950MOL0     O25298  10.207   0.003   0.749  0.2761  0.2460 -0.1134
  950MOL0     C25299  10.306   0.106   0.749  0.3678 -0.6308  0.8777
  950MOL0     C25300  10.394   0.096   0.853  0.7901 -0.2640 -0.2194
  950MOL0     C25301  10.477   0.199   0.896 -0.0754 -0.9711 -0.7134
  950MOL0     C25302  10.487   0.309   0.808  1.3976 -0.2889 -0.0219
  950MOL0     O25303  10.572   0.416   0.843  0.2253 -0.3842 -0.1421
  950MOL0     C25304  10.667   0.459   0.745  0.2191 -0.2986  0.1774
  950MOL0     C25305  10.804   0.477   0.810 -0.4587 -0.0055  0.1866
  950MOL0     C25306  10.876   0.350   0.782 -0.4767  0.1938  0.3314
  950MOL0     C25307  11.016   0.350   0.850  0.4340  1.0623 -0.3009
  950MOL0     C25308  11.007   0.279   0.983  0.3543  0.0166  0.5045
  950MOL0     C25309  11.139   0.299   1.050 -0.1753 -0.7758 -0.1612
  950MOL0     C25310  11.147   0.231   1.188  0.1093  0.1588 -0.5049
  950MOL0     C25311  11.180   0.323   1.310  0.1291 -0.1995  0.4261
  950MOL0    Cl25312  11.158   0.238   1.477  0.4491  0.4093  0.0112
  950MOL0     C25313  10.405   0.318   0.693  0.7164 -0.1637  0.5874
  950MOL0     C25314  10.322   0.216   0.662 -0.0816  0.0630 -0.1547
  950MOL0     O25315  10.043   0.126   0.655 -0.6817  0.3507  0.0976
  950MOL0     C25316  10.036  -0.231   0.703 -0.1482 -0.4404  0.6854
  950MOL0     C25317   9.950  -0.336   0.713  0.9802 -0.2184  0.2170
  950MOL0     N25318   9.345  -0.352   0.391  0.5575 -0.8357  0.5396
  950MOL0     N25319   9.295  -0.224   0.396  0.0790  0.3183 -0.3745
  950MOL0     C25320   9.707   0.756   0.341 -0.7264 -0.4839 -0.6854
  950MOL0     C25321   9.640   0.846   0.417  0.7024 -0.6434 -0.4425
  950MOL0     C25322   9.587   1.116   0.794  0.5986 -1.0913 -0.0312
  950MOL0     C25323   9.452   1.114   0.783 -0.3355  0.1005  0.1223
  950MOL0     C25324   9.377   1.188   0.868  0.2388  0.6739  0.7894
  950MOL0     C25325   9.440   1.267   0.965  0.2184 -0.2872  0.2641
  950MOL0     O25326   9.354   1.336   1.043 -0.0334  0.5352 -0.4713
  950MOL0     C25327   9.380   1.364   1.178 -0.0267  0.0784  0.0927
  950MOL0     C25328   9.268   1.458   1.230 -0.7111  0.4127  0.1920
  950MOL0     C25329   9.267   1.456   1.384 -0.4243  0.9574  0.1712
  950MOL0     C25330   9.170   1.553   1.455 -0.0604 -0.3183 -0.0310
  950MOL0     C25331   9.172   1.691   1.408 -0.4483 -0.2737 -0.1496
  950MOL0     C25332   9.157   1.798   1.363 -0.2774 -0.6741  0.6969
  950MOL0     C25333   9.576   1.265   0.982  0.2759  0.5565 -0.3153
  950MOL0     C25334   9.648   1.179   0.898  0.1808 -0.9872  0.7630
  950MOL0     H25335   9.819   0.827   0.698 -2.0549 -0.1291  0.1385
  950MOL0     H25336   9.947   0.651   0.564  2.6328 -0.8732 -3.9180
  950MOL0     H25337  10.041   0.541   0.405  0.3062 -0.3568 -1.1289
  950MOL0     H25338   9.992   0.439   0.263 -0.0518 -2.0809  1.2494
  950MOL0     H25339   9.834   0.451   0.511  0.3987  0.8310 -1.0716
  950MOL0     H25340   9.935   0.308   0.458  0.3284 -1.7307 -3.6365
  950MOL0     H25341   9.794   0.313   0.251 -0.8949  2.2115 -0.2606
  950MOL0     H25342   9.680   0.404   0.327  1.4470 -0.1566 -2.7021
  950MOL0     H25343   9.775   0.126   0.395  2.7155  1.4863 -1.3348
  950MOL0     H25344   9.705   0.222   0.530  1.3096 -1.2835  0.4846
  950MOL0     H25345   9.597   0.125   0.283 -1.9738 -1.0116  0.0321
  950MOL0     H25346   9.512   0.265   0.343  1.1905  0.5074  0.8923
  950MOL0     H25347   9.495   0.130   0.557 -0.8886 -0.9124  0.2577
  950MOL0     H25348   9.524  -0.021   0.465 -4.4577 -1.7050 -3.1324
  950MOL0     H25349   9.266   0.028   0.491 -1.5185 -0.8938 -1.4048
  950MOL0     H25350   9.309   0.182   0.408  1.6364  0.2249  1.3665
  950MOL0     H25351   9.412   0.035   0.220 -1.9867  0.6258 -0.5301
  950MOL0     H25352   9.235  -0.005   0.238  0.3996 -1.0180  0.1543
  950MOL0     H25353   9.568  -0.185   0.223 -1.4273  0.3785 -0.6074
  950MOL0     H25354   9.629  -0.454   0.226  1.2228 -4.1164  0.5822
  950MOL0     H25355   9.479  -0.541   0.229 -0.4561 -0.1827  1.2617
  950MOL0     H25356   9.559  -0.661   0.381  1.8158 -0.7420 -1.2340
  950MOL0     H25357   9.505  -0.535   0.487  1.6087  2.1392  1.9455
  950MOL0     H25358   9.796  -0.606   0.405 -0.1429 -1.4876  2.2613
  950MOL0     H25359   9.756  -0.434   0.422  1.6390 -0.9101  1.4644
  950MOL0     H25360   9.852  -0.587   0.614 -2.3832 -4.2897  1.3754
  950MOL0     H25361   9.684  -0.619   0.647  0.5811  1.6578  2.3790
  950MOL0     H25362   9.702  -0.198   0.534 -2.8830  2.1555  2.8779
  950MOL0     H25363   9.842   0.005   0.550 -0.1279  0.4749 -0.0855
  950MOL0     H25364  10.389   0.008   0.916  2.7339 -0.5159 -0.3584
  950MOL0     H25365  10.539   0.190   0.984  0.5386 -0.1542 -1.0493
  950MOL0     H25366  10.634   0.556   0.706 -2.6978 -2.1127 -2.2580
  950MOL0     H25367  10.667   0.391   0.660  0.5339 -1.4394  1.0610
  950MOL0     H25368  10.800   0.483   0.919  4.7341  0.2510  0.6342
  950MOL0     H25369  10.866   0.561   0.776  1.7918 -1.6316 -0.0273
  950MOL0     H25370  10.886   0.340   0.674 -1.2377  0.1195  0.2601
  950MOL0     H25371  10.814   0.266   0.814  0.4992 -0.7169 -0.1197
  950MOL0     H25372  11.087   0.296   0.786  1.2980  0.1869  1.3317
  950MOL0     H25373  11.043   0.450   0.884 -3.8539  2.0002  0.9345
  950MOL0     H25374  10.989   0.174   0.959 -3.1456  0.8122 -0.9863
  950MOL0     H25375  10.920   0.314   1.038 -0.8815  0.8954 -1.8575
  950MOL0     H25376  11.165   0.405   1.056 -2.4251 -0.1106 -1.3998
  950MOL0     H25377  11.222   0.260   0.989  0.4648  0.6104 -0.2067
  950MOL0     H25378  11.046   0.196   1.212  0.8847 -2.0284 -0.2150
  950MOL0     H25379  11.224   0.153   1.195  0.3524  0.4730  0.4201
  950MOL0     H25380  11.105   0.400   1.291  1.1501  0.7610  0.2054
  950MOL0     H25381  11.275   0.376   1.307 -0.4526  0.8064 -1.1470
  950MOL0     H25382  10.413   0.395   0.617  1.5830 -1.3680 -0.5683
  950MOL0     H25383  10.265   0.226   0.570  1.8127  1.7342 -1.2162
  950MOL0     H25384  10.137  -0.245   0.741  0.4515  0.2140 -0.6264
  950MOL0     H25385   9.972  -0.431   0.761  1.8378  0.3895  1.0488
  950MOL0     H25386   9.681   0.717   0.243 -0.5609 -0.4985 -0.7249
  950MOL0     H25387   9.576   0.920   0.370  0.2933 -0.7781 -0.1061
  950MOL0     H25388   9.402   1.071   0.697 -2.8497  0.5308  1.2542
  950MOL0     H25389   9.274   1.206   0.841  0.4051  3.4649  1.7098
  950MOL0     H25390   9.478   1.412   1.189 -0.2263  0.5515 -0.1659
  950MOL0     H25391   9.384   1.276   1.242 -1.6709  0.0675  0.2253
  950MOL0     H25392   9.286   1.558   1.187  2.7256  0.3632  1.2635
  950MOL0     H25393   9.168   1.426   1.197 -0.1932 -1.8761  0.7355
  950MOL0     H25394   9.373   1.469   1.409 -0.9517  1.3527  2.3924
  950MOL0     H25395   9.244   1.353   1.415  2.8764  0.3135  0.8302
  950MOL0     H25396   9.072   1.509   1.437  1.6140 -4.8026  0.4601
  950MOL0     H25397   9.197   1.558   1.561  2.1577  1.7854 -0.6094
  950MOL0     H25398   9.151   1.893   1.316 -0.5546 -0.9536  0.1623
  950MOL0     H25399   9.618   1.324   1.062 -3.2437  1.3185  1.1489
  950MOL0     H25400   9.757   1.182   0.895  0.1546  0.6820  0.1603
  951MOL0     O25401   9.422  11.302   1.612  0.4957 -0.7296 -0.5440
  951MOL0     C25402   9.322  11.330   1.553 -0.2494  0.5216 -0.2937
  951MOL0     O25403   9.212  11.369   1.605  0.7940 -0.0303 -0.2744
  951MOL0     C25404   9.179  11.370   1.737 -0.2173  0.0117  0.4845
  951MOL0     C25405   9.265  11.384   1.843 -0.5645 -0.0139 -0.2472
  951MOL0     C25406   9.215  11.363   1.977  0.1327  0.6912 -0.3256
  951MOL0     C25407   9.074  11.343   2.013 -0.1155  0.0313  0.4296
  951MOL0     O25408   9.024  11.327   2.138 -0.6669  0.6607  0.1823
  951MOL0     C25409   9.074  11.424   2.232 -0.9213  0.8253  0.3904
  951MOL0     C25410   9.050  11.563   2.177  0.1709 -0.3651 -0.4882
  951MOL0     C25411   9.079  11.669   2.286 -0.0436 -0.0233 -1.2307
  951MOL0     C25412   8.973  11.780   2.278  0.9909  0.4803 -0.3830
  951MOL0     C25413   9.014  11.886   2.391  1.0811 -0.6434  0.0790
  951MOL0     C25414   8.906  12.006   2.389 -0.1449 -0.1595  0.6530
  951MOL0     C25415   8.947  12.102   2.496  1.1582 -0.4117  0.8648
  951MOL0     C25416   8.830  12.208   2.499  0.6302 -0.2755  0.1778
  951MOL0     N25417   8.819  12.255   2.640 -0.4767 -0.2596 -0.5309
  951MOL0     C25418   8.896  12.352   2.688  0.6567 -0.5295 -0.1239
  951MOL0     C25419   8.862  12.361   2.815 -0.3286  0.5020 -0.8878
  951MOL0     C25420   8.903  12.487   2.904 -0.2427  0.9878  1.0453
  951MOL0     C25421   9.051  12.481   2.941  0.5024  0.0133 -0.5652
  951MOL0     C25422   9.115  12.622   2.982  0.4761  0.5896  1.8235
  951MOL0     C25423   9.257  12.616   3.021 -0.6246  0.0843  0.4083
  951MOL0     O25424   9.297  12.752   3.047  0.2067 -0.2111 -0.2590
  951MOL0     C25425   9.431  12.785   3.059  0.4245  0.5239  0.2932
  951MOL0     C25426   9.461  12.920   3.064  0.2175  0.2289  0.4042
  951MOL0     C25427   9.600  12.966   3.089  0.3728 -0.2749 -0.2934
  951MOL0     C25428   9.705  12.865   3.103  0.1719  0.4013  0.1842
  951MOL0     C25429   9.846  12.898   3.138  0.0970  0.5512  0.2607
  951MOL0     O25430   9.881  12.997   3.228 -0.1663 -0.9330  0.0613
  951MOL0     C25431  10.020  13.009   3.240 -0.0656 -0.2983  0.5354
  951MOL0     C25432  10.099  13.084   3.148  0.3792 -1.2765  0.3857
  951MOL0     C25433  10.238  13.090   3.159  0.4808  0.0754  0.8199
  951MOL0     C25434  10.296  13.026   3.267  0.2831  1.3931  0.2068
  951MOL0     O25435  10.436  13.023   3.275 -0.4430 -0.5788 -0.4796
  951MOL0     C25436  10.514  12.958   3.389  0.3901  0.4392  0.7688
  951MOL0     C25437  10.663  12.979   3.373 -0.1892  0.2634 -0.1113
  951MOL0     C25438  10.726  12.947   3.506  0.1220  0.0742  0.8077
  951MOL0     C25439  10.882  12.947   3.514  0.2145  0.2023 -0.8833
  951MOL0     C25440  10.935  13.088   3.492 -0.2583  0.1346 -0.0436
  951MOL0     C25441  11.076  13.121   3.547  1.1091  0.2604  0.9791
  951MOL0     C25442  11.157  13.000   3.604  0.0441 -1.0962 -0.4854
  951MOL0     C25443  11.305  13.032   3.638  0.3050  0.3515 -0.5155
  951MOL0    Cl25444  11.383  12.876   3.679  0.1261 -0.4438  0.0351
  951MOL0     C25445  10.219  12.961   3.359 -0.0938  0.2386  0.2008
  951MOL0     C25446  10.083  12.944   3.353 -0.4504 -0.3821  0.3750
  951MOL0     O25447   9.918  12.844   3.055  0.1245 -0.8180 -0.1430
  951MOL0     C25448   9.669  12.736   3.064 -0.3305  0.2736 -0.3550
  951MOL0     C25449   9.542  12.700   3.054 -0.2300 -0.3948 -0.0229
  951MOL0     N25450   8.775  12.261   2.839  0.9625  0.3470 -0.5376
  951MOL0     N25451   8.758  12.185   2.740 -0.4930  0.5838  0.2907
  951MOL0     C25452   8.989  11.349   1.903 -0.2535  0.9472  0.2115
  951MOL0     C25453   9.042  11.367   1.769 -0.3249  0.4609 -0.7540
  951MOL0     C25454   9.314  11.301   1.415  0.2118 -0.4089  0.0046
  951MOL0     C25455   9.192  11.323   1.348 -0.6219 -0.3433  0.5565
  951MOL0     C25456   9.192  11.311   1.208  0.2410 -0.6506 -0.7723
  951MOL0     C25457   9.302  11.272   1.129 -0.3899 -0.1745 -0.8886
  951MOL0     O25458   9.284  11.269   0.992  0.3378 -0.1290  0.1763
  951MOL0     C25459   9.389  11.258   0.900  0.3054 -0.6694  0.9140
  951MOL0     C25460   9.437  11.111   0.889 -0.3599 -0.1191 -0.4724
  951MOL0     C25461   9.337  11.008   0.836  0.7601 -0.0636  0.5383
  951MOL0     C25462   9.394  10.867   0.810  0.5416 -0.0014  0.6312
  951MOL0     C25463   9.334  10.794   0.690 -0.5288 -0.6786  0.2935
  951MOL0     C25464   9.291  10.736   0.590  0.2737 -0.7742  0.2827
  951MOL0     C25465   9.420  11.256   1.198  1.1573  0.4893 -1.3271
  951MOL0     C25466   9.429  11.268   1.341 -0.1796  0.0492 -0.5114
  951MOL0     H25467   9.371  11.386   1.819 -0.9022 -3.7574 -2.9196
  951MOL0     H25468   9.279  11.356   2.064 -2.1831 -0.0505  1.4304
  951MOL0     H25469   9.181  11.401   2.243 -1.1734 -1.7401 -1.5941
  951MOL0     H25470   9.026  11.415   2.330  1.9265 -0.0584  1.8041
  951MOL0     H25471   8.944  11.566   2.149  0.6853 -2.1286 -2.8738
  951MOL0     H25472   9.109  11.591   2.090 -0.0505  0.3751 -0.4080
  951MOL0     H25473   9.180  11.707   2.271 -0.2503  0.1910 -2.0902
  951MOL0     H25474   9.075  11.627   2.387  1.0402 -2.9082 -2.2789
  951MOL0     H25475   8.986  11.825   2.179 -3.0284  0.1254 -1.2280
  951MOL0     H25476   8.872  11.743   2.298  0.5711  1.3872 -0.7732
  951MOL0     H25477   9.113  11.933   2.383  2.0433 -2.8667 -2.8076
  951MOL0     H25478   9.001  11.832   2.485 -0.2348  1.0053  0.8931
  951MOL0     H25479   8.808  11.958   2.395  0.5764 -2.0185 -1.2124
  951MOL0     H25480   8.905  12.063   2.296 -1.7469  0.0232  0.7446
  951MOL0     H25481   8.955  12.056   2.595  3.1822  0.7322  1.2833
  951MOL0     H25482   9.047  12.139   2.473  1.0517 -0.1526  0.8164
  951MOL0     H25483   8.734  12.167   2.468  0.4003  0.9602 -0.8368
  951MOL0     H25484   8.849  12.294   2.434  1.2461 -1.5597 -1.4205
  951MOL0     H25485   8.965  12.418   2.637 -0.5708 -0.4933 -1.8047
  951MOL0     H25486   8.851  12.476   2.999  0.7769 -0.3433  1.4764
  951MOL0     H25487   8.881  12.578   2.847  0.4643  0.2631 -0.4403
  951MOL0     H25488   9.102  12.420   2.865  0.2673  0.5087 -1.1330
  951MOL0     H25489   9.071  12.416   3.027  3.8429  1.6914  0.1076
  951MOL0     H25490   9.119  12.688   2.894  1.7990  0.0923  1.4943
  951MOL0     H25491   9.056  12.660   3.065 -0.9647  1.5996  0.4053
  951MOL0     H25492   9.314  12.584   2.933 -1.4765  1.2128 -0.5856
  951MOL0     H25493   9.279  12.558   3.112  0.8630  0.1954  0.1468
  951MOL0     H25494   9.377  12.988   3.054 -0.4386 -0.4095  1.4023
  951MOL0     H25495   9.608  13.068   3.126  0.0726 -0.8155  1.3506
  951MOL0     H25496  10.054  13.140   3.067  0.8678  0.0567  0.9922
  951MOL0     H25497  10.308  13.143   3.096 -0.7458 -0.9688 -1.5521
  951MOL0     H25498  10.488  12.854   3.409 -0.8079  0.8300  1.3608
  951MOL0     H25499  10.482  13.009   3.480 -0.2171 -2.9411  2.5943
  951MOL0     H25500  10.679  13.085   3.348  1.1370 -0.6285 -3.7060
  951MOL0     H25501  10.703  12.919   3.291  1.4595  2.3827 -0.9672
  951MOL0     H25502  10.698  12.845   3.534 -2.1999  1.5646  4.6575
  951MOL0     H25503  10.687  13.020   3.577  2.5667  0.1070  2.2326
  951MOL0     H25504  10.919  12.910   3.610 -2.4478  0.3253  0.2486
  951MOL0     H25505  10.926  12.881   3.438  2.2372  0.5314 -0.0627
  951MOL0     H25506  10.863  13.168   3.513 -1.4645 -0.3755 -1.9113
  951MOL0     H25507  10.945  13.084   3.383 -1.1316 -3.0465 -0.1013
  951MOL0     H25508  11.062  13.189   3.631  0.0432 -1.6223  2.4350
  951MOL0     H25509  11.127  13.177   3.468  0.5993  1.5251  1.5211
  951MOL0     H25510  11.115  12.956   3.696 -1.1823  1.1542  0.1077
  951MOL0     H25511  11.165  12.911   3.541  1.3945 -0.1783 -1.6607
  951MOL0     H25512  11.316  13.098   3.725  0.4284  1.6930 -1.5141
  951MOL0     H25513  11.344  13.074   3.545 -1.7276  2.4936 -0.4983
  951MOL0     H25514  10.263  12.914   3.446 -1.5859 -0.1212  0.7916
  951MOL0     H25515  10.013  12.897   3.422 -1.9099 -0.8640 -1.3629
  951MOL0     H25516   9.753  12.667   3.062 -1.2556 -1.1004  2.6667
  951MOL0     H25517   9.533  12.592   3.048  1.5297 -0.4787 -3.0037
  951MOL0     H25518   8.884  11.344   1.927  0.2195  0.3209  2.3351
  951MOL0     H25519   8.977  11.372   1.682 -0.0862 -2.0224 -1.1485
  951MOL0     H25520   9.099  11.344   1.400 -0.1946 -1.4385  1.8346
  951MOL0     H25521   9.105  11.349   1.155 -1.0866  0.2216  1.8266
  951MOL0     H25522   9.470  11.330   0.917 -0.6203  0.5112  0.4935
  951MOL0     H25523   9.340  11.283   0.805  0.6997 -2.6664  0.1418
  951MOL0     H25524   9.528  11.122   0.829  0.3956  0.6700  0.7641
  951MOL0     H25525   9.474  11.076   0.986 -0.9616  1.4588  0.3672
  951MOL0     H25526   9.285  11.046   0.747  0.7574  0.9965  0.9743
  951MOL0     H25527   9.256  10.997   0.908 -0.8930 -0.7274 -1.3328
  951MOL0     H25528   9.503  10.875   0.811  0.7334 -2.0530  1.7086
  951MOL0     H25529   9.376  10.804   0.898  0.6605  1.1772  1.5175
  951MOL0     H25530   9.265  10.693   0.496 -0.4804  1.3245 -0.5266
  951MOL0     H25531   9.518  11.253   1.152  1.2490  0.6555 -1.1438
  951MOL0     H25532   9.531  11.261   1.378  0.2304  0.2688 -1.5882
  952MOL0     O25533   1.735   6.030   2.235 -0.4230 -0.0503 -0.9073
  952MOL0     C25534   1.812   6.126   2.265  0.7109  0.7150  0.1656
  952MOL0     O25535   1.916   6.161   2.197  0.1543  0.1914 -0.3507
  952MOL0     C25536   1.939   6.093   2.076  0.9032 -0.6485  1.1564
  952MOL0     C25537   1.847   6.104   1.968  0.0161 -0.6334  0.3122
  952MOL0     C25538   1.878   6.035   1.850 -0.5749 -0.9580 -0.0294
  952MOL0     C25539   2.001   5.953   1.839  0.7586 -0.6904  0.0680
  952MOL0     O25540   2.046   5.930   1.714  0.1291 -0.7248 -0.4551
  952MOL0     C25541   2.182   5.976   1.686  0.0932 -0.6941  1.0177
  952MOL0     C25542   2.185   6.025   1.538  0.1639  0.0292  1.0542
  952MOL0     C25543   2.317   6.052   1.471 -0.1316  0.2474  0.1724
  952MOL0     C25544   2.416   5.933   1.444  0.6497  0.2647  0.4335
  952MOL0     C25545   2.545   5.998   1.387 -1.0610  0.2301  0.1557
  952MOL0     C25546   2.664   5.905   1.408 -0.2650  0.1150  0.5170
  952MOL0     C25547   2.701   5.861   1.553  0.4487 -0.1669 -0.5239
  952MOL0     C25548   2.657   5.725   1.576 -0.9495  0.2456  1.1080
  952MOL0     N25549   2.659   5.691   1.717  0.5753  0.7010 -0.1679
  952MOL0     C25550   2.761   5.713   1.810 -1.1192 -0.1932 -0.3739
  952MOL0     C25551   2.712   5.686   1.929  0.1094  0.1854  0.6836
  952MOL0     C25552   2.792   5.686   2.062 -0.5641 -0.4935  0.5050
  952MOL0     C25553   2.830   5.832   2.112  0.8480 -0.3630 -0.4844
  952MOL0     C25554   2.915   5.825   2.237 -0.6469  0.1629 -0.2255
  952MOL0     C25555   2.954   5.964   2.275  0.0427 -0.0097 -0.5801
  952MOL0     O25556   3.064   5.977   2.374  0.7812  0.0125 -0.1106
  952MOL0     C25557   3.033   5.959   2.510 -0.6540  0.9407 -0.2336
  952MOL0     C25558   3.141   5.974   2.594  0.1728  0.2000  0.0026
  952MOL0     C25559   3.130   5.959   2.733 -0.7384 -0.1839  0.9329
  952MOL0     C25560   3.004   5.940   2.787  0.4306 -0.3850  0.2809
  952MOL0     C25561   2.981   5.934   2.940  1.3741  0.1881  1.1357
  952MOL0     O25562   2.849   5.933   2.977  0.3492  0.1127 -0.0032
  952MOL0     C25563   2.818   5.914   3.110 -0.1924 -1.4351  0.2609
  952MOL0     C25564   2.774   5.784   3.143  0.2571 -0.4753 -0.3685
  952MOL0     C25565   2.732   5.765   3.282 -0.7643 -0.0488  0.5070
  952MOL0     C25566   2.721   5.869   3.376 -0.2762 -0.9747 -0.4662
  952MOL0     O25567   2.678   5.848   3.501 -0.3266 -0.0471 -0.0598
  952MOL0     C25568   2.689   5.951   3.602  0.9813  0.5688 -0.0024
  952MOL0     C25569   2.837   5.997   3.626 -0.3400  0.0865  1.0010
  952MOL0     C25570   2.921   5.885   3.682  0.5055 -0.3010 -0.0323
  952MOL0     C25571   2.887   5.863   3.830  0.3171 -0.2432 -0.2759
  952MOL0     C25572   3.009   5.794   3.914  0.0631  0.6418  0.0033
  952MOL0     C25573   2.967   5.778   4.062  0.4178 -0.2897 -0.2104
  952MOL0     C25574   3.084   5.706   4.134  0.0571  0.1271 -0.4401
  952MOL0     C25575   3.047   5.721   4.278 -1.1531 -0.5358  0.6518
  952MOL0    Cl25576   2.916   5.613   4.318 -0.1597  0.1242  0.2218
  952MOL0     C25577   2.748   6.002   3.333 -0.9558 -1.0825 -0.3532
  952MOL0     C25578   2.792   6.024   3.201 -0.4207 -0.5006  0.1519
  952MOL0     O25579   3.070   5.944   3.023 -0.4709  0.2326  0.5454
  952MOL0     C25580   2.896   5.924   2.705 -0.6086 -0.9925  0.3752
  952MOL0     C25581   2.910   5.941   2.566  0.2729  0.2045  0.5212
  952MOL0     N25582   2.577   5.650   1.912  0.7065  0.0966 -0.4080
  952MOL0     N25583   2.545   5.674   1.785 -0.1809  0.2262 -0.4761
  952MOL0     C25584   2.080   5.944   1.952 -0.0404  0.1950  0.0158
  952MOL0     C25585   2.048   6.017   2.061 -0.7411  0.5286 -0.5461
  952MOL0     C25586   1.782   6.189   2.403 -0.0294 -0.6692 -1.0067
  952MOL0     C25587   1.693   6.130   2.497 -0.2096 -0.9824 -0.2430
  952MOL0     C25588   1.673   6.183   2.621  0.4892  0.6350  0.1066
  952MOL0     C25589   1.744   6.296   2.671 -0.7193  0.0199  0.0296
  952MOL0     O25590   1.749   6.362   2.793  0.3710 -0.0310  0.0979
  952MOL0     C25591   1.646   6.333   2.892  0.2439 -0.0493  0.1966
  952MOL0     C25592   1.504   6.372   2.859  0.8420 -0.6758  0.5331
  952MOL0     C25593   1.508   6.539   2.843  0.5741  0.4335 -0.3722
  952MOL0     C25594   1.359   6.589   2.834 -0.3946 -0.2200 -1.0413
  952MOL0     C25595   1.279   6.549   2.941  0.6573  0.2186 -0.5160
  952MOL0     C25596   1.196   6.525   3.028  0.0932  0.7418  0.3444
  952MOL0     C25597   1.826   6.352   2.576  0.6647 -0.9757 -0.2005
  952MOL0     C25598   1.841   6.314   2.440 -0.0930 -0.1829 -0.1215
  952MOL0     H25599   1.749   6.150   1.969 -1.6139 -3.8410  0.1152
  952MOL0     H25600   1.813   6.053   1.765  0.2329  0.3449 -0.3978
  952MOL0     H25601   2.251   5.896   1.714  0.0720 -1.8901 -1.9884
  952MOL0     H25602   2.204   6.064   1.746  0.9826 -0.3427  0.1994
  952MOL0     H25603   2.126   6.116   1.529  2.2879  1.2098 -3.1237
  952MOL0     H25604   2.149   5.939   1.480  1.1938  0.1554  0.2141
  952MOL0     H25605   2.353   6.144   1.518 -1.0379 -0.6342  2.8223
  952MOL0     H25606   2.285   6.076   1.369 -3.1589 -1.6472  0.5391
  952MOL0     H25607   2.444   5.875   1.532  3.4216  1.4351  0.4131
  952MOL0     H25608   2.383   5.858   1.371  1.3581 -1.7338  2.0777
  952MOL0     H25609   2.565   6.090   1.443  1.9751  0.2941 -0.8531
  952MOL0     H25610   2.530   6.028   1.283 -0.9070  2.0547  0.6268
  952MOL0     H25611   2.759   5.937   1.362 -0.9405 -1.4990 -2.2315
  952MOL0     H25612   2.630   5.818   1.351 -0.0190  0.9256 -0.8996
  952MOL0     H25613   2.808   5.857   1.575  0.3992 -0.0908 -0.2686
  952MOL0     H25614   2.653   5.936   1.617  0.7326  0.9566 -1.5707
  952MOL0     H25615   2.724   5.654   1.527 -1.3165 -0.7950  2.0761
  952MOL0     H25616   2.556   5.697   1.542 -0.3323 -0.8368  0.0813
  952MOL0     H25617   2.866   5.736   1.795 -0.9050 -2.4413 -3.1938
  952MOL0     H25618   2.888   5.645   2.030 -1.4761 -1.6014 -0.9480
  952MOL0     H25619   2.747   5.622   2.139 -3.6176  0.7178 -0.0973
  952MOL0     H25620   2.740   5.888   2.141  0.6056  0.3079 -2.4006
  952MOL0     H25621   2.867   5.892   2.028 -0.3008 -2.6145 -2.7545
  952MOL0     H25622   2.864   5.779   2.322 -0.2395 -1.3072 -0.7356
  952MOL0     H25623   3.011   5.777   2.216 -0.2761  1.2729 -1.1665
  952MOL0     H25624   2.863   6.026   2.278  0.7229  1.1549 -2.2376
  952MOL0     H25625   2.998   6.013   2.187 -2.2538  0.8836 -1.3084
  952MOL0     H25626   3.241   6.010   2.572  0.5747  1.2564  3.0500
  952MOL0     H25627   3.223   5.974   2.788  0.9877 -2.8217 -1.0556
  952MOL0     H25628   2.790   5.706   3.070  1.1283  1.6245 -2.5655
  952MOL0     H25629   2.705   5.667   3.321  0.1099  0.5553  2.7682
  952MOL0     H25630   2.651   5.919   3.700 -1.1436  0.6390 -0.7623
  952MOL0     H25631   2.624   6.036   3.579 -1.4258 -1.4590 -1.1415
  952MOL0     H25632   2.842   6.078   3.700  1.3274  1.0936 -0.1355
  952MOL0     H25633   2.888   6.034   3.537  1.1663 -1.3448  1.2325
  952MOL0     H25634   3.029   5.904   3.674  0.6315 -1.4070 -1.2687
  952MOL0     H25635   2.902   5.787   3.638 -2.8085 -0.5212  1.5515
  952MOL0     H25636   2.864   5.956   3.882  0.9485  0.3658 -1.0584
  952MOL0     H25637   2.795   5.804   3.831 -0.8078  1.4395  0.6338
  952MOL0     H25638   3.102   5.852   3.915 -0.0960  0.9011  0.3157
  952MOL0     H25639   3.022   5.697   3.866  0.2957  0.1218  1.0795
  952MOL0     H25640   2.885   5.705   4.063  0.1301 -0.0542 -2.2985
  952MOL0     H25641   2.924   5.863   4.115  0.7341 -0.3345  0.1220
  952MOL0     H25642   3.092   5.600   4.110  0.6480 -0.7534  3.0253
  952MOL0     H25643   3.175   5.766   4.131  1.1278 -1.3018  1.2448
  952MOL0     H25644   3.011   5.822   4.304  2.3924  0.6782  1.5165
  952MOL0     H25645   3.136   5.704   4.340  0.9405  0.9418 -1.7495
  952MOL0     H25646   2.734   6.083   3.404 -0.9205  0.3429 -1.9011
  952MOL0     H25647   2.805   6.122   3.157  1.4916 -2.6715 -4.7486
  952MOL0     H25648   2.795   5.905   2.741 -0.7512 -1.8624 -0.4236
  952MOL0     H25649   2.815   5.960   2.518  0.2328  0.7067  0.7973
  952MOL0     H25650   2.163   5.874   1.956  1.1312  1.5939  2.0018
  952MOL0     H25651   2.116   6.009   2.145 -2.0851  1.8857  0.7211
  952MOL0     H25652   1.637   6.041   2.473 -0.7375 -1.4681  2.4758
  952MOL0     H25653   1.631   6.117   2.697  0.6649 -3.2700 -2.8992
  952MOL0     H25654   1.679   6.390   2.979  3.3720 -1.5745  0.1335
  952MOL0     H25655   1.636   6.227   2.919  1.7408 -0.6118 -1.2844
  952MOL0     H25656   1.480   6.326   2.763 -1.9792  0.1404  0.7525
  952MOL0     H25657   1.443   6.337   2.943  0.5966 -0.5399  0.4118
  952MOL0     H25658   1.565   6.560   2.752 -0.0030  0.8678 -0.6393
  952MOL0     H25659   1.571   6.590   2.916  1.5538 -0.3135 -0.6832
  952MOL0     H25660   1.357   6.698   2.837 -1.3763 -0.2024  2.7899
  952MOL0     H25661   1.317   6.556   2.739 -0.4388 -3.0238 -0.1553
  952MOL0     H25662   1.124   6.504   3.105  1.7666  0.7683  1.9839
  952MOL0     H25663   1.891   6.432   2.610  0.0815 -1.0417  1.1586
  952MOL0     H25664   1.895   6.370   2.364  1.5818  0.2501  1.3208
  953MOL0     O25665   7.788   4.451   3.558  0.6553  0.7014 -0.0859
  953MOL0     C25666   7.881   4.471   3.632 -0.3325  0.4808  0.2636
  953MOL0     O25667   7.997   4.398   3.632 -0.5206 -0.1970 -0.0165
  953MOL0     C25668   8.065   4.375   3.506  0.0101  0.6786 -0.2003
  953MOL0     C25669   8.122   4.244   3.493  0.9031  0.3545 -0.4684
  953MOL0     C25670   8.175   4.215   3.367  0.4298  0.5118 -0.2244
  953MOL0     C25671   8.157   4.296   3.252 -0.1382 -0.0634  0.8064
  953MOL0     O25672   8.195   4.249   3.131 -0.5180  0.5393  0.5557
  953MOL0     C25673   8.337   4.219   3.124  0.6319 -0.2582 -0.8210
  953MOL0     C25674   8.366   4.234   2.978  0.3796  0.5385  0.2388
  953MOL0     C25675   8.499   4.306   2.949  0.1224  0.3722 -0.1133
  953MOL0     C25676   8.488   4.366   2.813 -0.1143 -0.6948 -1.2653
  953MOL0     C25677   8.624   4.406   2.762 -0.4398  0.4808 -0.3559
  953MOL0     C25678   8.624   4.471   2.620  0.4509  0.0555 -0.4227
  953MOL0     C25679   8.502   4.561   2.581 -1.2132  0.2981 -0.4448
  953MOL0     C25680   8.524   4.644   2.457  0.1785  0.0777  0.5641
  953MOL0     N25681   8.430   4.749   2.442  0.3639 -1.0858 -0.1035
  953MOL0     C25682   8.294   4.735   2.449  0.7346 -0.2610  0.3134
  953MOL0     C25683   8.257   4.862   2.409  0.3037 -0.1213  0.0269
  953MOL0     C25684   8.111   4.902   2.397  0.6952 -0.1677  0.3742
  953MOL0     C25685   8.028   4.872   2.522 -1.1746  0.0942 -0.4116
  953MOL0     C25686   8.068   4.945   2.652 -1.2664 -0.0660 -0.0870
  953MOL0     C25687   8.169   4.855   2.739  0.2552  0.1191 -0.1227
  953MOL0     O25688   8.108   4.736   2.799  0.1857 -0.3043  0.0575
  953MOL0     C25689   7.979   4.732   2.829  0.8680 -0.6928 -1.5900
  953MOL0     C25690   7.916   4.814   2.927 -0.3399  0.3965  0.5409
  953MOL0     C25691   7.773   4.800   2.946 -0.4138  0.3316  0.8338
  953MOL0     C25692   7.694   4.707   2.872  0.0871 -0.0441 -0.5421
  953MOL0     C25693   7.549   4.705   2.885  0.5008 -0.5524 -0.4860
  953MOL0     O25694   7.496   4.750   3.009 -0.0042 -0.2016 -0.1613
  953MOL0     C25695   7.358   4.753   3.025  0.1137 -0.4899  0.0940
  953MOL0     C25696   7.293   4.881   3.058 -0.4685  0.7038  0.5165
  953MOL0     C25697   7.150   4.895   3.070 -0.5185 -0.5799  0.3771
  953MOL0     C25698   7.065   4.783   3.055 -0.8404 -0.5064 -0.6897
  953MOL0     O25699   6.922   4.789   3.035 -1.2230 -0.0994 -0.0614
  953MOL0     C25700   6.861   4.879   3.125  1.3135  0.4157  0.3301
  953MOL0     C25701   6.702   4.854   3.119  0.5308  0.7817 -0.3438
  953MOL0     C25702   6.636   4.879   3.256 -0.0701 -0.6596 -0.5002
  953MOL0     C25703   6.480   4.905   3.258 -0.0042 -0.2961  0.0574
  953MOL0     C25704   6.421   4.897   3.399  0.4119  0.5526 -1.0079
  953MOL0     C25705   6.267   4.868   3.404  0.0702 -0.4647  0.3324
  953MOL0     C25706   6.237   4.865   3.562 -0.4699  0.1612 -0.2864
  953MOL0     C25707   6.107   4.798   3.590 -0.0595  0.1885  0.5379
  953MOL0    Cl25708   5.970   4.914   3.550 -0.6895 -0.2019 -0.3912
  953MOL0     C25709   7.127   4.664   3.012  0.6535 -0.0020 -0.4217
  953MOL0     C25710   7.266   4.647   2.991 -0.0818 -0.3785  0.0872
  953MOL0     O25711   7.481   4.657   2.787 -0.0327 -0.0002 -0.9093
  953MOL0     C25712   7.761   4.630   2.781  0.8360  0.6198 -0.7203
  953MOL0     C25713   7.895   4.640   2.759  0.3421 -0.0676 -0.2969
  953MOL0     N25714   8.365   4.950   2.414 -0.2692 -0.1257 -0.5368
  953MOL0     N25715   8.467   4.876   2.439  0.7870  0.4124 -0.4101
  953MOL0     C25716   8.084   4.414   3.272 -0.0752 -0.5122  0.1548
  953MOL0     C25717   8.039   4.454   3.397 -2.0407  0.7599 -0.4715
  953MOL0     C25718   7.876   4.590   3.725  0.0774 -0.5025 -0.1265
  953MOL0     C25719   7.988   4.611   3.801  1.3208 -0.8376  0.8754
  953MOL0     C25720   8.008   4.735   3.871  0.2344  0.8314  0.2252
  953MOL0     C25721   7.909   4.824   3.878  0.5508  0.1390 -0.4492
  953MOL0     O25722   7.914   4.926   3.965 -0.3216  0.5255 -0.1626
  953MOL0     C25723   7.917   5.054   3.904  0.0171  0.0680  0.5667
  953MOL0     C25724   8.055   5.105   3.879 -0.2087 -0.0196 -0.7537
  953MOL0     C25725   8.065   5.229   3.784 -0.3166 -1.1953 -0.1375
  953MOL0     C25726   8.014   5.355   3.859 -0.8259  0.7194 -1.2008
  953MOL0     C25727   8.054   5.464   3.782  0.5977 -0.1096  0.5189
  953MOL0     C25728   8.103   5.558   3.721  0.2595  0.1174  0.5986
  953MOL0     C25729   7.781   4.795   3.834 -0.1657  0.0258  0.1346
  953MOL0     C25730   7.771   4.694   3.739 -0.1289 -0.3096 -1.1375
  953MOL0     H25731   8.125   4.166   3.568  1.5706  1.9209  1.2417
  953MOL0     H25732   8.238   4.127   3.364 -1.4494 -1.0543  2.2088
  953MOL0     H25733   8.373   4.120   3.154  3.6507  0.2445 -2.4186
  953MOL0     H25734   8.395   4.289   3.184 -4.6010  1.1711  3.4093
  953MOL0     H25735   8.292   4.295   2.925  1.9476  0.6512 -1.9496
  953MOL0     H25736   8.358   4.135   2.933  1.8935  1.3143 -1.8918
  953MOL0     H25737   8.593   4.251   2.959 -0.9288 -1.1062  2.8614
  953MOL0     H25738   8.508   4.390   3.020 -0.8839  0.8007 -0.4709
  953MOL0     H25739   8.452   4.280   2.756 -4.9762 -0.1186  0.4533
  953MOL0     H25740   8.408   4.440   2.807  0.9206  0.4772 -1.0603
  953MOL0     H25741   8.693   4.321   2.760 -1.1652 -0.1029 -1.1258
  953MOL0     H25742   8.653   4.486   2.831  0.3891  0.7346 -0.9834
  953MOL0     H25743   8.628   4.390   2.548  0.1266 -2.1322  1.8756
  953MOL0     H25744   8.721   4.521   2.613 -0.8268  2.9102  0.6353
  953MOL0     H25745   8.410   4.505   2.560 -2.0346  0.1386  3.0230
  953MOL0     H25746   8.486   4.627   2.667  0.1739  0.2246 -0.1147
  953MOL0     H25747   8.533   4.575   2.372 -1.7574  0.3618  0.0827
  953MOL0     H25748   8.613   4.708   2.463 -1.1957  2.3423 -1.4497
  953MOL0     H25749   8.221   4.655   2.451 -0.6848  0.9423 -0.4834
  953MOL0     H25750   8.061   4.835   2.326  1.5996  1.0398 -1.5062
  953MOL0     H25751   8.090   5.005   2.365 -0.0061  0.7307  3.4534
  953MOL0     H25752   8.040   4.766   2.545 -1.4757  0.6259  2.6618
  953MOL0     H25753   7.924   4.894   2.495 -1.2997  0.1463  0.0848
  953MOL0     H25754   8.119   5.036   2.619  5.0434 -3.2756 -0.6651
  953MOL0     H25755   7.984   4.980   2.712 -1.1675 -0.0506  0.0427
  953MOL0     H25756   8.201   4.919   2.822 -0.0513 -0.6563  0.6056
  953MOL0     H25757   8.260   4.831   2.684 -0.3657 -2.7604 -0.0769
  953MOL0     H25758   7.968   4.896   2.976 -2.2891  2.9531 -1.4259
  953MOL0     H25759   7.746   4.869   3.026  0.5434  1.4879  0.2080
  953MOL0     H25760   7.368   4.952   3.090  0.6500 -0.0358 -0.3764
  953MOL0     H25761   7.104   4.991   3.089  1.9513 -0.0053  4.7347
  953MOL0     H25762   6.887   4.978   3.088  0.4980 -0.2946 -2.4071
  953MOL0     H25763   6.882   4.870   3.232  0.5538 -1.3298  0.3777
  953MOL0     H25764   6.671   4.760   3.073 -0.5051  2.2060 -2.7805
  953MOL0     H25765   6.657   4.934   3.059 -0.3949  0.0386 -0.6539
  953MOL0     H25766   6.684   4.969   3.296 -1.3163  1.5473 -3.5317
  953MOL0     H25767   6.658   4.792   3.319 -1.3114  2.1510  4.3653
  953MOL0     H25768   6.452   5.004   3.221  1.9772  0.1999 -0.1906
  953MOL0     H25769   6.429   4.831   3.194  1.4823 -1.0574 -0.2791
  953MOL0     H25770   6.440   4.992   3.449  3.9028 -0.5023 -0.0558
  953MOL0     H25771   6.474   4.825   3.462 -2.0744  1.1159  1.9655
  953MOL0     H25772   6.235   4.770   3.367 -0.4710 -1.7565  3.8761
  953MOL0     H25773   6.218   4.947   3.347 -2.5052 -2.3628 -0.2964
  953MOL0     H25774   6.307   4.794   3.607 -1.5796  1.2868  3.6582
  953MOL0     H25775   6.246   4.966   3.603  0.8727  0.2636 -0.8004
  953MOL0     H25776   6.109   4.775   3.697  2.5267  0.7234  0.6727
  953MOL0     H25777   6.097   4.706   3.533  3.2790  2.2325 -3.9604
  953MOL0     H25778   7.061   4.585   2.976 -0.5258  0.2492  1.0859
  953MOL0     H25779   7.308   4.557   2.948 -0.1587 -0.0841 -0.6121
  953MOL0     H25780   7.720   4.551   2.718  1.3459  1.5012 -2.1867
  953MOL0     H25781   7.935   4.572   2.685 -1.6585 -0.7151 -0.8455
  953MOL0     H25782   8.055   4.481   3.192 -0.3917  3.6432  3.4113
  953MOL0     H25783   7.982   4.546   3.400 -3.1815  0.0932 -0.9673
  953MOL0     H25784   8.071   4.542   3.810 -0.2976 -2.6204  3.4260
  953MOL0     H25785   8.094   4.748   3.936  1.3501  1.8347 -1.3803
  953MOL0     H25786   7.861   5.122   3.969 -1.7055  0.0582 -0.8598
  953MOL0     H25787   7.865   5.060   3.808 -0.2649  1.8257  0.8114
  953MOL0     H25788   8.106   5.127   3.974 -1.8594 -3.2511  1.0579
  953MOL0     H25789   8.116   5.034   3.823  2.1250  0.5744  0.8550
  953MOL0     H25790   8.021   5.208   3.686  3.6470 -3.1031 -1.7633
  953MOL0     H25791   8.173   5.242   3.771  0.2396  0.9585  4.4958
  953MOL0     H25792   7.905   5.350   3.855 -0.8165  1.5751 -3.7643
  953MOL0     H25793   8.056   5.359   3.961 -2.6789 -1.6909 -0.2513
  953MOL0     H25794   8.140   5.643   3.668  1.0588 -1.8329 -2.2591
  953MOL0     H25795   7.708   4.871   3.861  1.4830  1.2702  1.3665
  953MOL0     H25796   7.678   4.678   3.687 -2.8165  3.7161  1.7855
  954MOL0     O25797   3.247   0.293  10.007  0.0344 -0.3252  0.1600
  954MOL0     C25798   3.144   0.267   9.953  1.5099 -0.3056  0.1899
  954MOL0     O25799   3.110   0.297   9.827 -0.2742 -0.0802  1.2191
  954MOL0     C25800   3.135   0.416   9.771  0.6977 -0.4674 -0.0051
  954MOL0     C25801   3.131   0.409   9.628 -0.5117 -0.7461  0.3392
  954MOL0     C25802   3.176   0.521   9.548  0.0933  0.5475  0.5685
  954MOL0     C25803   3.225   0.637   9.613 -0.4287 -0.2173 -0.1729
  954MOL0     O25804   3.283   0.737   9.544  0.3945  0.2110 -0.1278
  954MOL0     C25805   3.187   0.815   9.472  0.4966 -1.0930 -0.1591
  954MOL0     C25806   3.245   0.950   9.434 -0.2824  0.0044 -0.2827
  954MOL0     C25807   3.146   1.036   9.352 -0.0300  0.3549  0.9152
  954MOL0     C25808   3.110   0.993   9.208 -0.0606  0.4602  0.8407
  954MOL0     C25809   3.230   0.986   9.119 -0.0211 -1.1008  0.5071
  954MOL0     C25810   3.198   0.945   8.975  0.7041  0.3418 -0.6039
  954MOL0     C25811   3.298   0.849   8.912  0.5348 -0.0030 -0.6269
  954MOL0     C25812   3.315   0.713   8.986  0.4663  0.1930  0.3257
  954MOL0     N25813   3.202   0.651   9.049 -0.3563  0.1410 -0.1775
  954MOL0     C25814   3.071   0.637   8.999  0.6206 -0.3103 -0.7377
  954MOL0     C25815   3.009   0.559   9.096  0.0636 -1.8219  0.6002
  954MOL0     C25816   2.868   0.516   9.075 -0.2317  0.0215  0.3482
  954MOL0     C25817   2.788   0.513   9.209 -0.3960  1.4428  0.0130
  954MOL0     C25818   2.643   0.457   9.208 -0.3887 -0.1568 -0.8251
  954MOL0     C25819   2.562   0.494   9.082 -0.4884  0.8543 -0.9940
  954MOL0     O25820   2.429   0.443   9.111 -0.5424 -0.3185 -0.5963
  954MOL0     C25821   2.333   0.472   9.020 -0.5199  0.4156 -0.1886
  954MOL0     C25822   2.339   0.581   8.930 -0.0984 -0.0007  0.6549
  954MOL0     C25823   2.244   0.593   8.824 -0.2749  0.5710 -0.5008
  954MOL0     C25824   2.139   0.496   8.813  0.0396  0.5338 -0.0742
  954MOL0     C25825   2.031   0.484   8.704 -0.8693 -1.0668 -1.2343
  954MOL0     O25826   1.969   0.361   8.671 -0.4244  0.6756 -0.1720
  954MOL0     C25827   1.872   0.362   8.577 -0.0186 -0.2860 -0.0809
  954MOL0     C25828   1.782   0.473   8.557  0.1936 -0.3041  0.2655
  954MOL0     C25829   1.676   0.473   8.456 -0.2438 -0.4997 -0.1895
  954MOL0     C25830   1.669   0.360   8.379 -0.7630 -0.4243  1.0223
  954MOL0     O25831   1.582   0.342   8.276  0.4497 -0.3387 -0.4772
  954MOL0     C25832   1.530   0.458   8.213  0.2024 -0.5787  1.0979
  954MOL0     C25833   1.435   0.418   8.100  0.6998 -0.6995 -0.2473
  954MOL0     C25834   1.367   0.549   8.036  0.3223  0.2810 -0.2453
  954MOL0     C25835   1.249   0.526   7.941 -0.0863 -0.6680  1.4061
  954MOL0     C25836   1.221   0.636   7.843  0.2441 -0.2240  0.0711
  954MOL0     C25837   1.104   0.604   7.747 -0.6729  0.5748 -0.2272
  954MOL0     C25838   1.087   0.705   7.635  0.1071  0.7362  0.1169
  954MOL0     C25839   1.211   0.706   7.538  0.3719 -0.8011 -0.5908
  954MOL0    Cl25840   1.212   0.839   7.418  0.1703 -0.2627  0.1116
  954MOL0     C25841   1.747   0.248   8.392 -0.4252 -0.0430 -0.6371
  954MOL0     C25842   1.851   0.251   8.494  0.7010 -0.8747 -0.3166
  954MOL0     O25843   2.016   0.595   8.652  0.0241  0.5437  0.1712
  954MOL0     C25844   2.133   0.387   8.911  0.4385 -0.5004 -0.6442
  954MOL0     C25845   2.236   0.376   9.005  0.4610  0.1581 -0.3226
  954MOL0     N25846   3.100   0.535   9.199 -0.6944 -0.3395  0.2028
  954MOL0     N25847   3.213   0.583   9.167  0.0139 -0.1244 -0.1512
  954MOL0     C25848   3.228   0.633   9.753 -0.1583  0.5337 -0.8294
  954MOL0     C25849   3.190   0.524   9.831  0.0299  0.4505 -0.5340
  954MOL0     C25850   3.044   0.205  10.029  0.5764 -0.6131  0.7273
  954MOL0     C25851   3.041   0.205  10.176  0.3273  0.6103 -0.0543
  954MOL0     C25852   2.943   0.137  10.247 -0.1866  0.2097  0.4724
  954MOL0     C25853   2.839   0.061  10.183 -0.4805 -1.0860 -0.5483
  954MOL0     O25854   2.744  -0.010  10.242  0.3161  0.9175 -0.3167
  954MOL0     C25855   2.778  -0.138  10.298  0.1736  0.0602 -0.8908
  954MOL0     C25856   2.766  -0.116  10.446 -0.0016 -0.6491 -0.6097
  954MOL0     C25857   2.768  -0.253  10.527  0.2573 -1.1351 -0.0594
  954MOL0     C25858   2.787  -0.237  10.683 -0.0680  0.1477 -0.1450
  954MOL0     C25859   2.769  -0.366  10.751 -0.2564  0.4165 -0.4733
  954MOL0     C25860   2.760  -0.470  10.802 -0.4854 -0.0986 -0.2102
  954MOL0     C25861   2.840   0.072  10.046  0.5533  0.5977 -0.0654
  954MOL0     C25862   2.936   0.136   9.968  0.0511 -0.7484 -0.4515
  954MOL0     H25863   3.083   0.325   9.577 -2.4024  0.7346 -0.4367
  954MOL0     H25864   3.178   0.518   9.440  0.3498 -1.8337  0.5836
  954MOL0     H25865   3.109   0.843   9.544  1.6873  3.6963 -0.3298
  954MOL0     H25866   3.159   0.757   9.385  1.9302 -0.3530 -1.1538
  954MOL0     H25867   3.337   0.940   9.377 -0.5000  2.0795 -1.0780
  954MOL0     H25868   3.266   1.006   9.526 -2.1180  0.5511 -0.1392
  954MOL0     H25869   3.196   1.133   9.344 -0.8827  0.6658 -1.4220
  954MOL0     H25870   3.054   1.049   9.409 -1.3212  0.3230 -1.0554
  954MOL0     H25871   3.062   0.895   9.219  0.2639  0.1704 -0.2539
  954MOL0     H25872   3.039   1.061   9.162  0.3015 -0.7244 -1.6485
  954MOL0     H25873   3.308   0.920   9.157 -1.8806 -3.1111  1.0130
  954MOL0     H25874   3.278   1.084   9.121  3.0628 -2.5291  1.0604
  954MOL0     H25875   3.202   1.039   8.920 -2.6725  1.3272  0.6362
  954MOL0     H25876   3.094   0.913   8.977  0.1120  2.1201  2.2714
  954MOL0     H25877   3.254   0.821   8.816 -0.7765 -2.4787  0.6187
  954MOL0     H25878   3.395   0.898   8.897  2.5547 -2.5658  2.6501
  954MOL0     H25879   3.386   0.732   9.067 -0.0186 -0.4127  0.8953
  954MOL0     H25880   3.369   0.645   8.920  1.1985  0.7043  0.3765
  954MOL0     H25881   3.027   0.670   8.906 -4.1948 -1.1327  0.9880
  954MOL0     H25882   2.877   0.416   9.031 -2.7310 -0.1336  0.0717
  954MOL0     H25883   2.818   0.578   9.001  1.7896 -1.7631 -2.7239
  954MOL0     H25884   2.780   0.616   9.246  0.1151  1.8285 -0.8912
  954MOL0     H25885   2.850   0.453   9.276 -0.4530  0.0907 -1.1091
  954MOL0     H25886   2.643   0.347   9.213  0.5811 -0.1257 -0.0120
  954MOL0     H25887   2.600   0.487   9.304  4.0932  1.5928  0.8945
  954MOL0     H25888   2.601   0.466   8.984 -0.1118 -1.1453 -0.3298
  954MOL0     H25889   2.552   0.602   9.075  1.2052  0.9627 -2.3640
  954MOL0     H25890   2.423   0.649   8.935  0.5095 -0.5660 -1.1132
  954MOL0     H25891   2.264   0.656   8.738  1.1667 -0.7623 -1.1869
  954MOL0     H25892   1.775   0.558   8.624 -2.0887 -0.0222 -0.2428
  954MOL0     H25893   1.610   0.559   8.465  0.0625 -0.2103 -0.7012
  954MOL0     H25894   1.609   0.512   8.160 -0.5535 -0.3692  0.1466
  954MOL0     H25895   1.488   0.537   8.276  0.5517 -0.2461  0.9211
  954MOL0     H25896   1.353   0.351   8.127 -1.4222  2.1261  0.9453
  954MOL0     H25897   1.491   0.368   8.020  2.3755  1.3876 -0.4808
  954MOL0     H25898   1.443   0.612   7.991  1.5035  1.3694  2.9711
  954MOL0     H25899   1.320   0.599   8.121 -0.0458 -1.3067  0.5273
  954MOL0     H25900   1.269   0.437   7.880 -1.4924 -0.2706  0.3084
  954MOL0     H25901   1.167   0.508   8.011 -1.3782  1.0582  0.4223
  954MOL0     H25902   1.315   0.659   7.792  0.9241 -0.4665  1.1742
  954MOL0     H25903   1.201   0.723   7.906  1.0505  0.9493 -1.2118
  954MOL0     H25904   1.013   0.607   7.808 -1.6195  0.7479 -1.6135
  954MOL0     H25905   1.116   0.503   7.707  0.9127  1.0336 -0.9573
  954MOL0     H25906   0.991   0.678   7.589 -1.5267  1.3192  2.9309
  954MOL0     H25907   1.081   0.808   7.669  2.6404  0.7115  0.8367
  954MOL0     H25908   1.231   0.610   7.489  1.8240 -0.9211  0.1716
  954MOL0     H25909   1.304   0.734   7.588 -0.8800  2.3211  0.2249
  954MOL0     H25910   1.738   0.162   8.326  1.7024 -2.7485  2.3169
  954MOL0     H25911   1.929   0.176   8.505 -0.4957 -1.9933  0.9537
  954MOL0     H25912   2.068   0.301   8.899  0.1297 -0.7736  2.3745
  954MOL0     H25913   2.232   0.279   9.052  1.5199  0.2458 -0.0293
  954MOL0     H25914   3.266   0.722   9.802  2.4770 -0.4413 -0.9267
  954MOL0     H25915   3.203   0.524   9.939 -0.3965 -3.2097 -0.3834
  954MOL0     H25916   3.119   0.251  10.236  0.6915 -2.4604  2.0113
  954MOL0     H25917   2.955   0.120  10.354 -0.6133  1.1726  0.6790
  954MOL0     H25918   2.880  -0.171  10.278  0.5167 -1.2714  2.5376
  954MOL0     H25919   2.712  -0.223  10.281 -0.0965 -1.0455  4.1474
  954MOL0     H25920   2.858  -0.070  10.484 -1.6325  0.9489  1.5723
  954MOL0     H25921   2.677  -0.059  10.474  0.4362  0.9424 -2.2345
  954MOL0     H25922   2.848  -0.311  10.480  0.1067  1.4143 -3.9962
  954MOL0     H25923   2.675  -0.308  10.515  1.5547 -2.9640 -2.8236
  954MOL0     H25924   2.890  -0.205  10.703  1.0344 -2.4994 -1.2525
  954MOL0     H25925   2.712  -0.163  10.716 -0.9705 -1.9099  2.8581
  954MOL0     H25926   2.741  -0.567  10.844  1.1975  0.2594  1.5321
  954MOL0     H25927   2.760   0.016   9.998  1.3763 -1.0836  0.4543
  954MOL0     H25928   2.924   0.134   9.860 -3.2829  0.2266 -0.2399
  955MOL0     O25929  10.052   4.819   0.967  0.5972  0.3969  0.2511
  955MOL0     C25930  10.017   4.836   0.852 -0.8157 -1.1286 -0.0084
  955MOL0     O25931   9.972   4.738   0.758 -0.7765 -0.1352  0.0173
  955MOL0     C25932   9.983   4.609   0.797 -0.4830  0.0259 -0.4080
  955MOL0     C25933  10.099   4.535   0.767  0.8076  0.5082  0.4458
  955MOL0     C25934  10.098   4.402   0.813  0.3426  0.2199 -0.1326
  955MOL0     C25935   9.989   4.335   0.876 -0.1174 -0.0694  1.0723
  955MOL0     O25936   9.983   4.197   0.899 -0.0485 -0.6807  0.8757
  955MOL0     C25937  10.092   4.117   0.857  1.0655 -0.5230  0.7408
  955MOL0     C25938  10.057   3.971   0.895 -0.2808 -0.9318 -1.3063
  955MOL0     C25939  10.089   3.926   1.040 -0.6478 -0.1267 -0.8288
  955MOL0     C25940  10.074   3.770   1.052  0.3282 -0.2564 -0.4424
  955MOL0     C25941  10.185   3.701   1.128 -0.4382 -1.0380  0.2331
  955MOL0     C25942  10.195   3.562   1.101 -0.9024  0.7308  0.2609
  955MOL0     C25943  10.072   3.480   1.147  1.0211  0.2820 -1.1582
  955MOL0     C25944  10.076   3.321   1.123 -0.4100  0.1807  0.7047
  955MOL0     N25945  10.123   3.294   0.988  0.8654  0.6386 -0.6991
  955MOL0     C25946  10.050   3.254   0.877  0.0506  0.2530 -0.8068
  955MOL0     C25947  10.145   3.216   0.787 -0.1300 -0.7751 -0.4164
  955MOL0     C25948  10.109   3.192   0.645 -0.8569  0.7170 -0.4384
  955MOL0     C25949  10.140   3.066   0.578 -0.9317  1.5670 -0.1237
  955MOL0     C25950  10.067   3.050   0.449  0.4317  0.4296  0.0804
  955MOL0     C25951  10.113   2.940   0.350 -0.6533 -0.1187  0.0016
  955MOL0     O25952  10.010   2.845   0.327 -0.2272 -0.2670 -0.9470
  955MOL0     C25953  10.021   2.734   0.246  0.3388 -0.9493 -0.6479
  955MOL0     C25954  10.126   2.708   0.157 -0.3775 -0.9948 -1.0643
  955MOL0     C25955  10.132   2.583   0.099 -0.5137  0.9457  0.5504
  955MOL0     C25956  10.029   2.480   0.106  0.7854  0.0973 -0.1979
  955MOL0     C25957  10.047   2.360   0.035  1.0152  0.5073  0.2749
  955MOL0     O25958   9.935   2.280   0.017 -0.0009 -0.4402  0.1317
  955MOL0     C25959   9.964   2.158  -0.046  0.1427 -1.0223 -0.2723
  955MOL0     C25960   9.950   2.167  -0.183  0.2737 -0.0268 -0.2923
  955MOL0     C25961   9.972   2.056  -0.262  0.2975  0.4661  0.4723
  955MOL0     C25962   9.987   1.931  -0.211  0.4254 -0.3396  0.1248
  955MOL0     O25963   9.985   1.823  -0.286 -0.5111  0.4304  0.4542
  955MOL0     C25964   9.863   1.742  -0.285  0.3586  0.2872  0.4542
  955MOL0     C25965   9.853   1.637  -0.168 -0.4601  0.5169 -0.8985
  955MOL0     C25966   9.973   1.544  -0.166 -0.0542 -0.2957  0.5155
  955MOL0     C25967   9.934   1.399  -0.226 -0.7913 -0.4902  0.3978
  955MOL0     C25968  10.061   1.323  -0.249  0.6817 -0.6298 -0.4969
  955MOL0     C25969  10.024   1.180  -0.298  0.9245 -0.9084  0.2329
  955MOL0     C25970  10.145   1.094  -0.297  0.7859 -0.6801  0.0478
  955MOL0     C25971  10.147   0.981  -0.396 -0.0083 -0.6078  1.3329
  955MOL0    Cl25972  10.193   1.032  -0.562 -0.0179 -0.0942 -0.2020
  955MOL0     C25973   9.999   1.921  -0.071 -0.0540 -0.1178 -0.7902
  955MOL0     C25974   9.992   2.037   0.014  0.2451  0.9795 -0.4440
  955MOL0     O25975  10.156   2.335  -0.005 -0.3729 -0.5176  0.0446
  955MOL0     C25976   9.923   2.509   0.201 -0.4535 -0.7932 -0.7970
  955MOL0     C25977   9.930   2.629   0.273 -0.2286 -0.1632  0.3008
  955MOL0     N25978  10.268   3.212   0.848  0.8590  0.1051  0.8121
  955MOL0     N25979  10.252   3.260   0.973  0.0926  0.0773 -0.4913
  955MOL0     C25980   9.884   4.417   0.903 -0.5172 -1.4080  0.6257
  955MOL0     C25981   9.880   4.553   0.872  1.0441 -0.4620 -0.3804
  955MOL0     C25982  10.030   4.976   0.795  0.5588 -1.2222  1.1071
  955MOL0     C25983  10.044   5.099   0.863  0.3057  0.0560 -0.1698
  955MOL0     C25984  10.033   5.221   0.804  0.3277 -0.1729 -0.1276
  955MOL0     C25985  10.005   5.228   0.666 -0.9822  0.3261  0.0938
  955MOL0     O25986  10.000   5.351   0.612  0.0488  0.0340  0.5774
  955MOL0     C25987   9.964   5.357   0.474 -0.1947 -0.4255 -0.0450
  955MOL0     C25988   9.816   5.314   0.465  0.0316 -0.8332  1.0489
  955MOL0     C25989   9.748   5.320   0.319 -0.0319 -0.6877 -0.7960
  955MOL0     C25990   9.608   5.257   0.320 -0.8407  0.4629  0.6636
  955MOL0     C25991   9.624   5.111   0.318  0.5378 -0.3054 -0.6167
  955MOL0     C25992   9.619   4.994   0.308  0.9104 -0.3466 -0.2457
  955MOL0     C25993  10.002   5.108   0.592  0.2836 -0.7273  0.2117
  955MOL0     C25994  10.011   4.993   0.657  1.0118 -0.0366 -0.2921
  955MOL0     H25995  10.181   4.574   0.707  1.6122 -3.5896 -1.4512
  955MOL0     H25996  10.180   4.341   0.777  0.2927  0.9602 -1.5763
  955MOL0     H25997  10.183   4.145   0.911  0.6114  0.4485  1.0220
  955MOL0     H25998  10.100   4.116   0.748  1.5731 -2.8727  0.7422
  955MOL0     H25999  10.127   3.914   0.834  1.2540  0.4589 -0.9262
  955MOL0     H26000   9.958   3.941   0.859  0.9731 -3.9962 -2.5258
  955MOL0     H26001  10.032   3.978   1.118  1.0405  1.0636 -0.3206
  955MOL0     H26002  10.190   3.960   1.067 -0.9368  1.6865 -1.8477
  955MOL0     H26003   9.977   3.750   1.097  1.2362 -1.5923  1.0251
  955MOL0     H26004  10.068   3.716   0.957  0.8146 -2.2046  0.5983
  955MOL0     H26005  10.161   3.697   1.235 -3.2599 -1.2359 -0.3325
  955MOL0     H26006  10.275   3.757   1.101 -1.6247  1.1511  0.5540
  955MOL0     H26007  10.275   3.517   1.160  0.3203  3.1769  0.5767
  955MOL0     H26008  10.214   3.544   0.994  1.2724  1.9195  0.4087
  955MOL0     H26009  10.020   3.498   1.242 -0.9930  3.0650 -2.6243
  955MOL0     H26010   9.995   3.508   1.075 -0.1867 -1.3635 -0.5924
  955MOL0     H26011   9.982   3.268   1.143 -1.1982  0.3160 -2.1884
  955MOL0     H26012  10.147   3.283   1.198  1.4716 -4.2996 -2.8693
  955MOL0     H26013   9.942   3.261   0.863 -0.4732 -0.6225  2.2431
  955MOL0     H26014  10.175   3.267   0.601  0.7231 -0.6607 -0.4978
  955MOL0     H26015  10.006   3.220   0.619 -0.3058  0.0069 -3.7911
  955MOL0     H26016  10.107   2.982   0.639 -1.5487 -0.2169 -2.7300
  955MOL0     H26017  10.248   3.050   0.567 -1.1265 -0.0600  0.0475
  955MOL0     H26018   9.960   3.034   0.466  0.5374  0.3167  0.6674
  955MOL0     H26019  10.083   3.148   0.403  1.3428 -0.5083 -1.6833
  955MOL0     H26020  10.198   2.886   0.395 -0.4128  0.8526  0.7583
  955MOL0     H26021  10.144   2.975   0.251  2.3986  2.6048  1.7254
  955MOL0     H26022  10.204   2.782   0.148 -1.3362  0.0590 -0.9801
  955MOL0     H26023  10.220   2.560   0.039 -0.5875  1.9070  0.0396
  955MOL0     H26024   9.933   2.268  -0.221  0.3048  0.0210 -0.1789
  955MOL0     H26025   9.963   2.054  -0.370  2.7305  3.7115  0.0794
  955MOL0     H26026   9.843   1.692  -0.380 -0.3388  0.5902  0.4365
  955MOL0     H26027   9.780   1.813  -0.283 -0.2271 -0.3347 -0.9405
  955MOL0     H26028   9.761   1.577  -0.166  0.3062 -0.7519  2.0378
  955MOL0     H26029   9.853   1.688  -0.071 -6.1235  0.5229 -0.5782
  955MOL0     H26030  10.004   1.524  -0.063  0.5678 -1.2410  0.1597
  955MOL0     H26031  10.062   1.586  -0.213 -0.0314 -1.2153 -0.3193
  955MOL0     H26032   9.884   1.340  -0.148  1.3694 -2.8031  0.1680
  955MOL0     H26033   9.881   1.419  -0.319  0.4522  1.3585  0.0423
  955MOL0     H26034  10.119   1.312  -0.157 -0.0702 -0.6689 -0.0226
  955MOL0     H26035  10.124   1.362  -0.329  2.2118 -0.6702  0.6500
  955MOL0     H26036   9.993   1.186  -0.403  3.3777 -2.7057 -0.7093
  955MOL0     H26037   9.954   1.123  -0.236  3.4147 -0.0383  4.1484
  955MOL0     H26038  10.235   1.153  -0.315 -0.2790  0.4018 -2.0714
  955MOL0     H26039  10.140   1.053  -0.196 -0.6679 -0.7275 -0.0320
  955MOL0     H26040  10.051   0.930  -0.409  1.3609 -2.7287 -1.7421
  955MOL0     H26041  10.223   0.907  -0.369  0.4029  0.1848  2.4006
  955MOL0     H26042  10.034   1.830  -0.025 -1.0182 -0.1394 -0.0757
  955MOL0     H26043  10.000   2.035   0.122 -2.9848 -0.3429 -0.1499
  955MOL0     H26044   9.843   2.442   0.231  0.5493 -0.3243  3.6244
  955MOL0     H26045   9.848   2.642   0.343  0.2148 -0.1598  0.8323
  955MOL0     H26046   9.792   4.387   0.953 -1.5339 -0.2730 -0.5055
  955MOL0     H26047   9.794   4.610   0.905  1.5730 -0.5854  1.2991
  955MOL0     H26048  10.049   5.108   0.971 -1.1127 -2.4509  0.1887
  955MOL0     H26049  10.048   5.309   0.866  1.8420  2.2572 -3.6464
  955MOL0     H26050  10.013   5.289   0.405  1.8971  0.9681 -0.0161
  955MOL0     H26051   9.980   5.461   0.444  0.7955  0.0651  1.9840
  955MOL0     H26052   9.802   5.207   0.485 -1.6016 -0.3999  2.5134
  955MOL0     H26053   9.756   5.368   0.539  2.5929 -1.6882  3.9629
  955MOL0     H26054   9.825   5.283   0.251 -0.1262 -1.0991 -0.6811
  955MOL0     H26055   9.735   5.425   0.294 -2.6205 -0.5291  0.8209
  955MOL0     H26056   9.559   5.289   0.413 -3.5569 -1.4750  0.0292
  955MOL0     H26057   9.539   5.284   0.240 -0.3132 -1.8078 -0.6604
  955MOL0     H26058   9.603   4.888   0.303  4.9169 -1.0865 -0.7321
  955MOL0     H26059   9.994   5.101   0.484  0.0028 -0.6991  0.2298
  955MOL0     H26060  10.008   4.903   0.597  3.9398  1.5422 -3.1820
  956MOL0     O26061   6.676   7.468   4.144 -0.5783 -0.5251  0.0861
  956MOL0     C26062   6.563   7.441   4.193 -0.5255 -0.7164 -0.7458
  956MOL0     O26063   6.440   7.499   4.169 -0.2102  0.5045 -0.2448
  956MOL0     C26064   6.446   7.610   4.089  0.9555 -0.9938 -1.6879
  956MOL0     C26065   6.345   7.616   3.990 -0.7971  1.0059  0.1686
  956MOL0     C26066   6.337   7.712   3.899 -0.1209 -0.5683  0.0672
  956MOL0     C26067   6.419   7.818   3.899 -0.0445 -0.1882  0.3829
  956MOL0     O26068   6.416   7.923   3.808  0.1371  0.1875  0.1087
  956MOL0     C26069   6.336   7.914   3.688  0.7497  0.4820  0.3741
  956MOL0     C26070   6.342   8.049   3.622  1.3551  0.1460 -0.0293
  956MOL0     C26071   6.239   8.043   3.493 -0.0379 -0.1176 -0.7454
  956MOL0     C26072   6.247   8.169   3.412 -0.3362 -0.3932 -1.0713
  956MOL0     C26073   6.141   8.198   3.312 -0.4465  0.9007  0.3926
  956MOL0     C26074   6.159   8.115   3.184  0.4975 -0.5207 -0.3429
  956MOL0     C26075   6.094   8.185   3.070 -0.6566 -0.8818 -0.0449
  956MOL0     C26076   6.121   8.114   2.941 -0.8606 -0.3248  0.4138
  956MOL0     N26077   6.054   8.160   2.814  0.3370 -0.8119 -0.3844
  956MOL0     C26078   6.028   8.289   2.786 -0.1310 -0.6729  0.3599
  956MOL0     C26079   5.949   8.297   2.675 -0.8797  0.4809 -0.2746
  956MOL0     C26080   5.875   8.414   2.624  0.2114 -0.4378  0.2522
  956MOL0     C26081   5.871   8.414   2.463 -0.9136  1.0972 -0.1504
  956MOL0     C26082   5.804   8.542   2.398 -1.1755  1.0863 -0.5887
  956MOL0     C26083   5.826   8.551   2.246  0.2760  0.1771 -0.6560
  956MOL0     O26084   5.956   8.518   2.188  0.0747  0.3006  0.6495
  956MOL0     C26085   6.048   8.619   2.175  0.0132  0.4838 -0.2795
  956MOL0     C26086   6.150   8.627   2.273  0.3125 -0.2346  0.3433
  956MOL0     C26087   6.233   8.742   2.274  0.5417  0.6482  0.5531
  956MOL0     C26088   6.231   8.839   2.171  0.2907 -0.9046  0.1679
  956MOL0     C26089   6.327   8.956   2.169 -0.3613  0.6600 -1.1186
  956MOL0     O26090   6.315   9.040   2.068 -0.4479 -0.9453 -0.0414
  956MOL0     C26091   6.435   9.113   2.026  0.1084 -0.2403  0.3599
  956MOL0     C26092   6.405   9.235   1.965 -0.5732  0.2841  0.1138
  956MOL0     C26093   6.489   9.326   1.914  0.6895  1.1107 -0.2091
  956MOL0     C26094   6.625   9.294   1.927 -0.0567  0.0321 -0.1026
  956MOL0     O26095   6.715   9.388   1.892  0.5462 -0.3905  0.2399
  956MOL0     C26096   6.806   9.360   1.785 -0.0099  0.3215 -0.3884
  956MOL0     C26097   6.950   9.329   1.820  0.2475  0.1350 -0.4739
  956MOL0     C26098   7.034   9.301   1.682 -0.3461  0.0425 -0.7969
  956MOL0     C26099   7.185   9.299   1.706 -0.1603  0.6400 -0.8608
  956MOL0     C26100   7.238   9.437   1.675 -0.0782 -0.9617 -0.5146
  956MOL0     C26101   7.390   9.449   1.714 -0.7557 -0.2061 -0.4352
  956MOL0     C26102   7.488   9.344   1.647  1.2389  0.4556 -0.0864
  956MOL0     C26103   7.635   9.334   1.669 -0.5037  0.8994 -0.7322
  956MOL0    Cl26104   7.706   9.436   1.537 -0.2682 -0.3175 -0.3639
  956MOL0     C26105   6.663   9.174   1.997 -0.5032  0.5075  0.9094
  956MOL0     C26106   6.569   9.085   2.040  0.2067 -0.5549 -0.5295
  956MOL0     O26107   6.415   8.946   2.251 -0.9596  0.3260 -0.5055
  956MOL0     C26108   6.133   8.827   2.071 -0.0319  0.3943  0.3275
  956MOL0     C26109   6.039   8.718   2.074 -0.0334  0.3489  0.3744
  956MOL0     N26110   5.939   8.164   2.633 -0.4020 -0.4556  0.1043
  956MOL0     N26111   6.008   8.085   2.715  0.3169 -0.7375 -0.0725
  956MOL0     C26112   6.520   7.827   4.008  0.2615  0.1421  0.0860
  956MOL0     C26113   6.527   7.725   4.108 -0.2347  0.1111  0.0845
  956MOL0     C26114   6.562   7.346   4.307  0.0192 -0.0042 -0.5668
  956MOL0     C26115   6.447   7.273   4.344  1.5382 -0.8303  0.9006
  956MOL0     C26116   6.443   7.186   4.457  0.6534 -0.2304 -0.9756
  956MOL0     C26117   6.559   7.164   4.543 -0.9292 -0.7215  0.3584
  956MOL0     O26118   6.545   7.084   4.656  0.1788  0.3048  0.0133
  956MOL0     C26119   6.649   7.100   4.749 -0.3219  0.1307 -1.2945
  956MOL0     C26120   6.632   7.025   4.889 -0.5658  0.0052  0.6297
  956MOL0     C26121   6.490   7.050   4.948  0.1108  0.0906  0.3723
  956MOL0     C26122   6.467   7.197   4.994 -0.4123 -1.2811  0.6436
  956MOL0     C26123   6.353   7.201   5.080  0.5890  0.0330 -0.4381
  956MOL0     C26124   6.245   7.181   5.146 -0.6952 -0.4699  0.3710
  956MOL0     C26125   6.673   7.233   4.506 -0.2779  0.4916  0.2117
  956MOL0     C26126   6.676   7.328   4.398 -0.2653 -0.1919  0.1722
  956MOL0     H26127   6.271   7.536   3.986  0.2209  0.0599 -0.0317
  956MOL0     H26128   6.272   7.703   3.812  1.0684  0.4209 -0.9709
  956MOL0     H26129   6.233   7.887   3.713  0.7665 -1.1780 -1.1374
  956MOL0     H26130   6.374   7.839   3.618  1.5239 -1.0365  2.3398
  956MOL0     H26131   6.446   8.065   3.593  1.7268  1.5863  1.8704
  956MOL0     H26132   6.308   8.132   3.685 -1.6871 -0.6230 -0.4715
  956MOL0     H26133   6.135   8.031   3.522  0.5698 -0.3610  1.5237
  956MOL0     H26134   6.283   7.961   3.435 -0.2655 -0.7464 -0.0430
  956MOL0     H26135   6.245   8.257   3.476  5.9677 -1.0638  0.7021
  956MOL0     H26136   6.346   8.184   3.368  1.5045  1.8676  3.2592
  956MOL0     H26137   6.142   8.306   3.290 -1.3804  1.1499  1.4853
  956MOL0     H26138   6.042   8.182   3.355 -0.3343 -1.0158  0.0171
  956MOL0     H26139   6.124   8.012   3.195 -1.2086  0.1508  0.8677
  956MOL0     H26140   6.267   8.120   3.166  0.3616  2.5831 -0.7900
  956MOL0     H26141   5.985   8.192   3.081 -0.7342  0.6488 -1.4744
  956MOL0     H26142   6.126   8.289   3.062 -1.7374 -0.5958 -0.9427
  956MOL0     H26143   6.098   8.008   2.957  1.1373 -1.1231 -1.4252
  956MOL0     H26144   6.226   8.112   2.910 -1.1357  0.9441 -0.6994
  956MOL0     H26145   6.062   8.374   2.845 -0.3879 -1.3746  1.5422
  956MOL0     H26146   5.936   8.499   2.656  3.6227 -3.0727  1.3700
  956MOL0     H26147   5.771   8.422   2.655 -0.2895 -1.1609 -1.1549
  956MOL0     H26148   5.809   8.328   2.437  0.5001 -0.5347  1.5538
  956MOL0     H26149   5.970   8.390   2.425 -2.0159 -2.9318 -0.8600
  956MOL0     H26150   5.703   8.558   2.435 -1.3092 -0.3503 -0.2611
  956MOL0     H26151   5.848   8.627   2.451 -0.1432 -0.5566  1.3774
  956MOL0     H26152   5.788   8.649   2.215  0.1554 -0.0802 -1.3225
  956MOL0     H26153   5.764   8.470   2.207  0.8456 -0.7175  0.2500
  956MOL0     H26154   6.160   8.547   2.346 -0.5191 -0.0694  0.6429
  956MOL0     H26155   6.296   8.750   2.363 -1.3392  1.9802  1.8626
  956MOL0     H26156   6.300   9.257   1.950 -0.0885  2.1044 -0.9102
  956MOL0     H26157   6.463   9.422   1.871 -0.4977  0.4021 -1.1533
  956MOL0     H26158   6.804   9.457   1.736  0.7701  2.2376  3.0559
  956MOL0     H26159   6.771   9.274   1.727 -0.7237  1.2072 -1.2846
  956MOL0     H26160   6.944   9.233   1.873 -0.7342 -1.7914 -3.7461
  956MOL0     H26161   6.991   9.409   1.882 -0.6713  1.8200 -1.9492
  956MOL0     H26162   6.997   9.368   1.604  1.0244  1.0651 -0.5996
  956MOL0     H26163   7.020   9.201   1.640  2.0563 -0.3349 -0.8183
  956MOL0     H26164   7.200   9.271   1.811 -0.4533 -1.0472 -1.2368
  956MOL0     H26165   7.237   9.225   1.645 -1.6451 -1.4132  0.2427
  956MOL0     H26166   7.183   9.515   1.730  1.2508  0.0321 -0.5284
  956MOL0     H26167   7.216   9.447   1.568  0.4833 -3.6704 -0.9457
  956MOL0     H26168   7.403   9.438   1.822  1.6113 -2.6018 -0.8671
  956MOL0     H26169   7.423   9.537   1.658 -1.2802 -1.1078 -2.2362
  956MOL0     H26170   7.441   9.255   1.689  2.3005 -0.7211 -1.2859
  956MOL0     H26171   7.468   9.346   1.539  0.8561  0.8828 -0.0108
  956MOL0     H26172   7.686   9.239   1.652 -0.4737  1.3786 -3.9072
  956MOL0     H26173   7.662   9.372   1.768 -1.4970 -1.7628  0.6222
  956MOL0     H26174   6.765   9.138   1.994 -0.6440 -0.0170  1.9036
  956MOL0     H26175   6.597   8.994   2.093  1.3462  0.4355  0.6489
  956MOL0     H26176   6.132   8.894   1.986  0.3207  0.3031  0.2473
  956MOL0     H26177   5.961   8.711   1.999  0.8772 -1.9162 -0.4479
  956MOL0     H26178   6.582   7.916   4.013  2.3158 -1.1266 -1.2716
  956MOL0     H26179   6.595   7.729   4.193  2.5331  2.1711 -2.0151
  956MOL0     H26180   6.356   7.280   4.285  1.5030 -1.9993  0.7990
  956MOL0     H26181   6.356   7.122   4.461 -0.1003  0.7624  3.3314
  956MOL0     H26182   6.670   7.206   4.769  3.7265 -0.7067 -0.3282
  956MOL0     H26183   6.741   7.059   4.709  0.0350 -0.6192  0.2063
  956MOL0     H26184   6.652   6.918   4.885  2.7769  0.4189  2.4510
  956MOL0     H26185   6.712   7.067   4.951 -0.9657  1.8342 -0.0327
  956MOL0     H26186   6.486   6.981   5.033 -2.0068 -1.4484 -0.8803
  956MOL0     H26187   6.409   7.017   4.883  0.9421 -2.1594  0.3850
  956MOL0     H26188   6.560   7.225   5.044 -0.2149  0.6184 -0.6862
  956MOL0     H26189   6.456   7.262   4.907 -1.4218 -2.7158 -0.3366
  956MOL0     H26190   6.151   7.178   5.198 -1.0730  1.3896 -0.1397
  956MOL0     H26191   6.766   7.211   4.558 -0.2447 -0.8658 -0.3837
  956MOL0     H26192   6.770   7.383   4.395  0.6929 -1.7960 -2.0907
  957MOL0     O26193   6.335   4.308   4.973  0.9763  0.1964  0.1890
  957MOL0     C26194   6.457   4.302   4.985 -0.4692 -0.0544  0.3517
  957MOL0     O26195   6.530   4.336   5.091  0.1473 -0.7513 -0.4654
  957MOL0     C26196   6.465   4.369   5.210  0.6342  0.6233 -0.3879
  957MOL0     C26197   6.474   4.500   5.262  0.0759 -0.2217  0.3508
  957MOL0     C26198   6.425   4.530   5.391  0.4870  0.8486 -0.7376
  957MOL0     C26199   6.366   4.433   5.473 -0.7106 -0.2075 -0.1016
  957MOL0     O26200   6.313   4.477   5.586  0.1265 -0.8464 -0.4531
  957MOL0     C26201   6.246   4.392   5.677  0.5731 -0.2447  0.0507
  957MOL0     C26202   6.204   4.470   5.800  0.3302 -1.1469  1.0236
  957MOL0     C26203   6.071   4.530   5.779  0.4309 -0.0719  1.1813
  957MOL0     C26204   6.074   4.661   5.706 -0.0588 -0.7040  0.2122
  957MOL0     C26205   5.971   4.674   5.598 -0.6827  0.7782  0.1346
  957MOL0     C26206   5.951   4.814   5.535  0.0453  0.2549 -0.7083
  957MOL0     C26207   5.808   4.837   5.478 -0.2501  0.7452  0.1076
  957MOL0     C26208   5.743   4.724   5.401 -0.8521 -0.5622  0.2489
  957MOL0     N26209   5.630   4.783   5.339  0.1678 -0.2281  0.6615
  957MOL0     C26210   5.507   4.789   5.403  0.2020 -0.0319 -0.1016
  957MOL0     C26211   5.429   4.852   5.316  0.1467 -0.7729  0.5623
  957MOL0     C26212   5.281   4.870   5.325 -0.1596 -0.4214 -0.1959
  957MOL0     C26213   5.240   4.957   5.439  0.1463  0.2655  0.5724
  957MOL0     C26214   5.304   5.099   5.426 -0.0935 -0.3647 -0.2231
  957MOL0     C26215   5.236   5.203   5.338  0.8902  0.0457  0.2560
  957MOL0     O26216   5.318   5.315   5.324 -0.6554  0.0095 -0.5264
  957MOL0     C26217   5.283   5.402   5.223  1.1694  0.4492  0.6411
  957MOL0     C26218   5.164   5.397   5.153  0.7339  0.6873 -0.2821
  957MOL0     C26219   5.129   5.491   5.069  0.3494  0.1990 -0.0866
  957MOL0     C26220   5.215   5.600   5.037  0.8368  0.9241  0.4609
  957MOL0     C26221   5.183   5.713   4.946  0.4261  0.4070  0.2497
  957MOL0     O26222   5.060   5.690   4.885  0.5479  0.1781 -0.3113
  957MOL0     C26223   4.998   5.787   4.818  1.1147  0.2858 -0.1417
  957MOL0     C26224   4.987   5.778   4.685  0.0708  0.2589 -0.2244
  957MOL0     C26225   4.943   5.884   4.612  0.4052 -0.6672  0.9367
  957MOL0     C26226   4.892   6.002   4.676 -0.3321  0.2508  0.2620
  957MOL0     O26227   4.832   6.102   4.604  0.7004  0.6363  0.6614
  957MOL0     C26228   4.879   6.120   4.467 -0.5618  0.0408  0.1242
  957MOL0     C26229   4.822   6.247   4.401  0.3307 -0.5763 -0.6698
  957MOL0     C26230   4.897   6.297   4.275 -0.0362  0.3377 -0.7005
  957MOL0     C26231   4.857   6.237   4.139  0.3930 -0.0677  0.5843
  957MOL0     C26232   4.973   6.257   4.044  0.7982  0.4051 -0.2350
  957MOL0     C26233   4.918   6.252   3.905 -0.2904  0.5663  0.7621
  957MOL0     C26234   4.852   6.124   3.854  0.1201  0.6087  0.4198
  957MOL0     C26235   4.701   6.117   3.892 -0.9372  1.0252 -0.2543
  957MOL0    Cl26236   4.628   5.970   3.810  0.2608 -0.1353 -0.2982
  957MOL0     C26237   4.877   6.004   4.816  0.2101 -0.0350  0.2362
  957MOL0     C26238   4.934   5.895   4.888  0.0103  0.6289  0.4463
  957MOL0     O26239   5.262   5.802   4.924  0.4420  0.2583 -1.1609
  957MOL0     C26240   5.331   5.610   5.108 -1.0659  0.7288 -0.4253
  957MOL0     C26241   5.374   5.509   5.199  0.3468  0.2593  0.5991
  957MOL0     N26242   5.506   4.898   5.210 -0.2230  0.4059  0.4473
  957MOL0     N26243   5.626   4.865   5.229 -0.5564 -0.0720 -0.1157
  957MOL0     C26244   6.350   4.306   5.418 -0.3611  0.8417 -0.3507
  957MOL0     C26245   6.405   4.275   5.288 -0.4808  0.3279  0.9014
  957MOL0     C26246   6.520   4.266   4.852 -0.7161  0.0988 -0.4541
  957MOL0     C26247   6.473   4.176   4.760  0.3403  0.8916  0.8316
  957MOL0     C26248   6.550   4.147   4.643  0.0898 -1.0431  1.6678
  957MOL0     C26249   6.675   4.197   4.622  0.1655  0.6441 -0.3242
  957MOL0     O26250   6.743   4.158   4.513 -0.5413 -0.0191  0.4539
  957MOL0     C26251   6.812   4.263   4.430  0.0368  0.6586  0.6254
  957MOL0     C26252   6.740   4.311   4.302 -0.8181 -1.2281  0.6026
  957MOL0     C26253   6.625   4.217   4.269 -0.5661 -0.3049  0.4133
  957MOL0     C26254   6.686   4.091   4.194  0.4601 -0.2202  0.3916
  957MOL0     C26255   6.722   4.136   4.048  0.1325  0.3273  0.0013
  957MOL0     C26256   6.746   4.166   3.935 -0.2230  1.1232 -0.1703
  957MOL0     C26257   6.715   4.292   4.714  0.0855  0.1815 -0.6775
  957MOL0     C26258   6.644   4.324   4.831 -0.2260 -0.1060  0.5874
  957MOL0     H26259   6.498   4.583   5.196 -1.7307  0.5880  0.6618
  957MOL0     H26260   6.436   4.636   5.415  1.7422  1.2174 -2.6754
  957MOL0     H26261   6.323   4.318   5.704  1.9428  0.7012 -1.0823
  957MOL0     H26262   6.155   4.340   5.646 -0.4370  1.4772  0.0266
  957MOL0     H26263   6.280   4.545   5.824  0.5989 -1.3859  0.9273
  957MOL0     H26264   6.208   4.400   5.884  1.4546 -0.7241  1.3516
  957MOL0     H26265   6.026   4.569   5.871 -0.1238  2.3706 -0.0539
  957MOL0     H26266   5.998   4.458   5.740 -1.3260  2.7595 -1.1677
  957MOL0     H26267   6.069   4.749   5.771  2.0589  2.3649 -3.3312
  957MOL0     H26268   6.165   4.685   5.650 -2.2881 -0.4359 -3.6485
  957MOL0     H26269   5.875   4.642   5.639 -0.9657  2.1503  0.5769
  957MOL0     H26270   5.993   4.595   5.526 -0.3038  1.7906 -0.8984
  957MOL0     H26271   6.018   4.823   5.449 -2.4576  0.3613 -2.7897
  957MOL0     H26272   5.966   4.893   5.609  3.1475 -1.3990  0.6154
  957MOL0     H26273   5.744   4.841   5.567 -1.5222  1.3500 -0.8074
  957MOL0     H26274   5.800   4.930   5.421 -3.1678  0.5390  0.0600
  957MOL0     H26275   5.719   4.640   5.467  1.5982 -1.1544  0.5079
  957MOL0     H26276   5.811   4.694   5.320  3.2741  4.2976  1.3765
  957MOL0     H26277   5.460   4.738   5.487 -1.6116 -1.4868 -1.8849
  957MOL0     H26278   5.237   4.770   5.321 -4.1932  1.1632 -0.0091
  957MOL0     H26279   5.248   4.930   5.240 -0.8169  0.0327  0.3658
  957MOL0     H26280   5.290   4.928   5.531 -3.0061  2.2501  3.1342
  957MOL0     H26281   5.133   4.960   5.463  0.2462 -1.3313  1.3085
  957MOL0     H26282   5.300   5.134   5.529  1.2947 -1.0281  0.0681
  957MOL0     H26283   5.410   5.101   5.400 -0.0540 -1.6160 -0.1735
  957MOL0     H26284   5.146   5.246   5.381  1.6228  0.5537  1.3283
  957MOL0     H26285   5.200   5.153   5.248 -2.5045  1.9566  0.4012
  957MOL0     H26286   5.104   5.308   5.160 -0.7295  1.4573 -2.1671
  957MOL0     H26287   5.031   5.477   5.024  1.8981 -1.6264 -3.2841
  957MOL0     H26288   5.020   5.688   4.634  1.1463  0.7665 -0.4342
  957MOL0     H26289   4.936   5.871   4.504  0.0574  0.6794  0.7737
  957MOL0     H26290   4.856   6.032   4.407  0.8526 -1.7680  2.1109
  957MOL0     H26291   4.987   6.124   4.481 -0.3661  2.7821 -1.4558
  957MOL0     H26292   4.808   6.329   4.472 -1.1901 -0.6995 -0.7922
  957MOL0     H26293   4.720   6.230   4.364  0.6170  0.7362 -2.1130
  957MOL0     H26294   5.003   6.285   4.301 -0.0440  1.9388  0.2457
  957MOL0     H26295   4.884   6.406   4.269  1.6718  0.7078  1.0776
  957MOL0     H26296   4.847   6.129   4.148  1.7450 -0.3167 -0.4537
  957MOL0     H26297   4.764   6.279   4.100  1.5824  0.8938 -1.4049
  957MOL0     H26298   5.053   6.184   4.055 -0.9292 -1.4955  0.2676
  957MOL0     H26299   5.022   6.355   4.051  1.9780 -0.1733 -0.1391
  957MOL0     H26300   5.005   6.258   3.839 -1.9477  0.0845 -1.5592
  957MOL0     H26301   4.852   6.339   3.894  1.4827  2.0840  1.4745
  957MOL0     H26302   4.864   6.129   3.745  2.9202  1.8797  0.7138
  957MOL0     H26303   4.906   6.036   3.891 -0.0818  1.0711  1.8342
  957MOL0     H26304   4.644   6.206   3.866  0.5391  0.7410 -5.6969
  957MOL0     H26305   4.686   6.105   4.000 -1.3748  2.2151 -0.1653
  957MOL0     H26306   4.845   6.088   4.876 -3.1894 -0.5372 -0.6730
  957MOL0     H26307   4.939   5.901   4.997 -1.3312  2.2704  0.4576
  957MOL0     H26308   5.399   5.692   5.087 -1.5880  1.4345  0.5957
  957MOL0     H26309   5.467   5.509   5.256  0.7306 -3.4404  0.2279
  957MOL0     H26310   6.303   4.227   5.477  1.4769  0.4454  0.6662
  957MOL0     H26311   6.398   4.174   5.250  0.1243  1.3312 -2.1221
  957MOL0     H26312   6.377   4.126   4.769  1.1430 -1.0655 -0.6314
  957MOL0     H26313   6.508   4.083   4.566  1.2955 -0.4255  0.4542
  957MOL0     H26314   6.911   4.231   4.396  0.1690 -0.7839  2.2132
  957MOL0     H26315   6.833   4.352   4.489 -0.5946  1.9596 -1.0508
  957MOL0     H26316   6.688   4.405   4.322 -1.1175 -1.4476  0.8666
  957MOL0     H26317   6.808   4.324   4.217 -0.2292 -0.1935  1.2110
  957MOL0     H26318   6.560   4.277   4.205 -1.5329 -0.1245  1.5482
  957MOL0     H26319   6.566   4.185   4.355 -1.0859  3.2246  1.5259
  957MOL0     H26320   6.771   4.047   4.246 -0.9323 -0.5106  2.5483
  957MOL0     H26321   6.611   4.012   4.188  0.0821  0.2291 -2.4573
  957MOL0     H26322   6.778   4.191   3.836  3.1779  0.4446  0.6354
  957MOL0     H26323   6.803   4.351   4.689  0.8035 -1.1835 -1.5056
  957MOL0     H26324   6.693   4.401   4.890 -1.4360  0.9292  0.2768
  958MOL0     O26325   8.608   3.848   3.876  0.4013 -0.8667  0.5735
  958MOL0     C26326   8.503   3.803   3.917  0.7068  1.4901  0.0567
  958MOL0     O26327   8.422   3.864   4.003  0.6347 -0.0678  0.5038
  958MOL0     C26328   8.438   4.000   4.020  0.1051  0.3382 -0.0933
  958MOL0     C26329   8.467   4.028   4.150 -0.1449 -0.2603 -0.8155
  958MOL0     C26330   8.475   4.160   4.190 -0.4306  0.2060  1.1427
  958MOL0     C26331   8.434   4.266   4.102 -0.1350  1.1592  0.1967
  958MOL0     O26332   8.433   4.395   4.140 -0.0371  0.2825 -0.7662
  958MOL0     C26333   8.343   4.422   4.260  0.1777  0.0745  0.6575
  958MOL0     C26334   8.281   4.566   4.247 -0.5807  0.1712 -0.3361
  958MOL0     C26335   8.192   4.598   4.365  0.1480 -0.8257  0.2115
  958MOL0     C26336   8.125   4.743   4.355 -0.1037 -0.9594  0.3389
  958MOL0     C26337   8.017   4.755   4.244  0.4359  0.7240  0.1218
  958MOL0     C26338   7.883   4.697   4.292  0.2790 -0.1412 -0.7022
  958MOL0     C26339   7.785   4.676   4.182  0.4628 -0.5347  0.4545
  958MOL0     C26340   7.650   4.612   4.222 -0.2403  0.4347 -0.5024
  958MOL0     N26341   7.579   4.714   4.305 -0.3182 -0.8446  0.5803
  958MOL0     C26342   7.531   4.832   4.250 -0.5307 -0.3642  0.4988
  958MOL0     C26343   7.457   4.886   4.350 -0.5243 -0.9483  0.3513
  958MOL0     C26344   7.369   5.003   4.346  0.2603 -1.0889 -0.5484
  958MOL0     C26345   7.225   4.955   4.342 -0.3415  0.9386 -0.6603
  958MOL0     C26346   7.163   4.937   4.490  0.0771 -0.1932 -0.2123
  958MOL0     C26347   7.026   4.868   4.490  1.3820 -0.7227 -0.4036
  958MOL0     O26348   7.037   4.726   4.495  0.2806  1.2614 -0.6427
  958MOL0     C26349   7.051   4.675   4.364  0.2710  1.3774  0.0642
  958MOL0     C26350   7.165   4.592   4.348 -0.4335  0.4060 -0.1086
  958MOL0     C26351   7.187   4.543   4.219  0.2406 -0.7458  0.0736
  958MOL0     C26352   7.093   4.556   4.115  0.3014  0.0519  0.0447
  958MOL0     C26353   7.125   4.502   3.988 -0.3747 -0.5871  1.3573
  958MOL0     O26354   7.242   4.427   3.968  0.3110 -0.1718 -0.1911
  958MOL0     C26355   7.272   4.375   3.848  0.0470  1.0360  0.5231
  958MOL0     C26356   7.395   4.405   3.800  0.7926  0.3610  0.0753
  958MOL0     C26357   7.434   4.361   3.674  0.8498 -0.9134  0.1035
  958MOL0     C26358   7.338   4.297   3.584 -0.6343  0.3649 -0.1600
  958MOL0     O26359   7.379   4.254   3.462 -0.8006 -0.7835 -0.2234
  958MOL0     C26360   7.514   4.289   3.406 -0.1296 -0.9244 -0.3364
  958MOL0     C26361   7.539   4.246   3.261  0.1041 -0.0409 -0.3471
  958MOL0     C26362   7.688   4.258   3.221  1.0321  0.7690 -0.2913
  958MOL0     C26363   7.717   4.210   3.078 -0.6828  0.1278  0.1051
  958MOL0     C26364   7.823   4.297   3.010  0.0742 -0.7721 -0.1935
  958MOL0     C26365   7.881   4.236   2.880  0.0521 -0.0182  0.9824
  958MOL0     C26366   8.013   4.289   2.831  0.4801 -0.1200  1.0857
  958MOL0     C26367   7.999   4.290   2.682 -0.3422 -0.7514  0.3047
  958MOL0    Cl26368   8.145   4.388   2.619  0.4010  0.0251 -0.3093
  958MOL0     C26369   7.203   4.270   3.630  0.2171  0.0101 -0.3163
  958MOL0     C26370   7.179   4.303   3.766  0.0392 -0.2082  0.0203
  958MOL0     O26371   7.046   4.533   3.897  0.2997 -0.2250 -0.1947
  958MOL0     C26372   6.978   4.632   4.141 -0.0763 -0.8262  0.2357
  958MOL0     C26373   6.956   4.696   4.267 -0.0635  0.5651  0.1893
  958MOL0     N26374   7.474   4.800   4.456  0.0811 -0.3033 -0.6043
  958MOL0     N26375   7.536   4.690   4.428 -0.2949 -0.6105  0.8873
  958MOL0     C26376   8.393   4.225   3.972 -0.1618 -0.0500 -0.4161
  958MOL0     C26377   8.404   4.096   3.928  0.3075  0.1476  0.4846
  958MOL0     C26378   8.453   3.662   3.880  0.1003  0.1717  0.7067
  958MOL0     C26379   8.545   3.574   3.807 -0.2935  0.0829  0.0787
  958MOL0     C26380   8.510   3.446   3.772 -0.2782  0.2130 -0.1895
  958MOL0     C26381   8.396   3.382   3.826  0.4954 -1.6293 -0.3158
  958MOL0     O26382   8.362   3.246   3.835  0.3934 -0.7700  0.6323
  958MOL0     C26383   8.465   3.158   3.780 -0.4187 -0.6541  0.7983
  958MOL0     C26384   8.445   3.011   3.819  0.1171 -0.5582 -0.2627
  958MOL0     C26385   8.471   2.992   3.963 -0.1306  0.0614 -0.4933
  958MOL0     C26386   8.351   2.995   4.068  0.3879 -0.4346 -0.0524
  958MOL0     C26387   8.260   2.881   4.039  0.0290 -0.9357 -0.3463
  958MOL0     C26388   8.189   2.789   4.018  0.1372  0.1194  0.7842
  958MOL0     C26389   8.307   3.472   3.895 -0.1073 -0.1050 -0.4267
  958MOL0     C26390   8.333   3.607   3.925 -0.0410  0.3531  0.1844
  958MOL0     H26391   8.486   3.939   4.208  0.0449 -1.4142 -2.5581
  958MOL0     H26392   8.524   4.193   4.281  1.1101  1.0271  0.0680
  958MOL0     H26393   8.406   4.398   4.346  3.2270  0.6160 -1.2717
  958MOL0     H26394   8.250   4.363   4.255 -0.1323  0.2746  2.8810
  958MOL0     H26395   8.233   4.563   4.149 -0.6688 -1.4298 -0.2708
  958MOL0     H26396   8.356   4.646   4.246 -1.3819  0.9352 -0.3527
  958MOL0     H26397   8.241   4.595   4.464 -0.7027  3.4476  0.9662
  958MOL0     H26398   8.107   4.532   4.349 -1.5053  1.0441  0.9553
  958MOL0     H26399   8.063   4.762   4.443  0.4624 -1.5237  0.8666
  958MOL0     H26400   8.198   4.823   4.342  1.4093 -1.5374  4.0350
  958MOL0     H26401   8.054   4.705   4.153 -0.6155 -0.4014  0.2912
  958MOL0     H26402   7.995   4.858   4.214 -1.0887  0.8276  1.4922
  958MOL0     H26403   7.834   4.760   4.366 -1.2865 -3.5050  1.3763
  958MOL0     H26404   7.902   4.602   4.343  0.7672 -0.0671 -0.7453
  958MOL0     H26405   7.767   4.777   4.144 -0.3726 -1.4443 -1.7433
  958MOL0     H26406   7.826   4.612   4.104  2.1935 -0.3910  1.1953
  958MOL0     H26407   7.679   4.520   4.274  3.1028 -0.7006 -3.8844
  958MOL0     H26408   7.584   4.602   4.134 -2.2797  3.7868  0.4612
  958MOL0     H26409   7.533   4.864   4.146  1.4264 -0.3363  0.5068
  958MOL0     H26410   7.378   5.057   4.251  3.0155 -0.1827  0.1235
  958MOL0     H26411   7.391   5.068   4.431 -2.3228 -1.0920  0.1946
  958MOL0     H26412   7.211   4.870   4.275  1.0947  2.4055 -2.9398
  958MOL0     H26413   7.181   5.039   4.288 -1.5692  2.2897  2.2325
  958MOL0     H26414   7.235   4.889   4.558  0.0794  2.1985  1.5807
  958MOL0     H26415   7.144   5.037   4.530 -0.5662 -0.2073 -0.4739
  958MOL0     H26416   6.946   4.905   4.426  0.3813  0.0797  1.2247
  958MOL0     H26417   6.987   4.881   4.592 -1.4797  0.2898 -1.5358
  958MOL0     H26418   7.234   4.584   4.432 -1.2311 -1.3031  0.4267
  958MOL0     H26419   7.280   4.493   4.196 -1.0249 -3.5259  0.5518
  958MOL0     H26420   7.453   4.463   3.871 -0.8133  0.2218  1.5845
  958MOL0     H26421   7.532   4.390   3.638  0.1497  0.8540 -0.5188
  958MOL0     H26422   7.591   4.244   3.469  1.4789  0.3020 -1.3598
  958MOL0     H26423   7.522   4.398   3.415 -2.0254 -0.7431 -0.3189
  958MOL0     H26424   7.475   4.297   3.188  1.6854 -0.9119 -2.4804
  958MOL0     H26425   7.503   4.143   3.262  0.1495 -0.0628  1.2632
  958MOL0     H26426   7.756   4.214   3.295 -1.7212 -0.4713  1.7050
  958MOL0     H26427   7.703   4.366   3.213  3.9141  0.4497 -0.2554
  958MOL0     H26428   7.746   4.107   3.097 -3.7649 -0.4515  2.4225
  958MOL0     H26429   7.622   4.203   3.024 -0.3632  0.4944 -0.5163
  958MOL0     H26430   7.905   4.317   3.079 -0.9707  2.0168  0.4017
  958MOL0     H26431   7.765   4.389   2.993  0.5291  0.2059  2.8835
  958MOL0     H26432   7.799   4.239   2.807  0.3460  2.5007  0.6702
  958MOL0     H26433   7.890   4.129   2.897  0.1478 -0.6421 -2.3070
  958MOL0     H26434   8.048   4.387   2.865  0.8628 -0.2236  0.9868
  958MOL0     H26435   8.085   4.215   2.867 -2.4886 -1.8957  4.0377
  958MOL0     H26436   7.911   4.348   2.654 -2.6797 -4.2023 -0.1042
  958MOL0     H26437   7.995   4.193   2.631  2.0180  0.6600 -2.8928
  958MOL0     H26438   7.133   4.218   3.565 -0.9316  0.2958  0.6365
  958MOL0     H26439   7.081   4.286   3.810 -1.1671 -3.0680 -3.3643
  958MOL0     H26440   6.899   4.653   4.070  1.4524  1.5842 -0.8726
  958MOL0     H26441   6.866   4.756   4.270  1.1956  2.6726 -1.3201
  958MOL0     H26442   8.350   4.311   3.921  0.8905 -0.6291 -2.3704
  958MOL0     H26443   8.361   4.077   3.830  1.4933  1.6427 -0.3709
  958MOL0     H26444   8.648   3.596   3.779 -0.1602  2.7702  2.1849
  958MOL0     H26445   8.573   3.390   3.704  1.1477  0.1324  1.1505
  958MOL0     H26446   8.561   3.196   3.817 -0.9344  2.2165 -0.4623
  958MOL0     H26447   8.474   3.169   3.672 -2.1716 -1.8071  0.4970
  958MOL0     H26448   8.347   2.978   3.783  0.0442 -1.1029  0.4246
  958MOL0     H26449   8.527   2.955   3.773  0.5673  0.8383 -1.2373
  958MOL0     H26450   8.542   3.064   4.004  0.4375 -1.6897  1.7955
  958MOL0     H26451   8.522   2.895   3.966 -2.1253 -1.0651 -1.2145
  958MOL0     H26452   8.391   2.976   4.168  1.0701 -7.2127 -1.1050
  958MOL0     H26453   8.302   3.093   4.064  2.2599  0.6648  2.0828
  958MOL0     H26454   8.135   2.698   4.004  1.5332 -0.8866  1.6709
  958MOL0     H26455   8.211   3.432   3.926  1.1981 -3.0577  0.1747
  958MOL0     H26456   8.257   3.666   3.976  0.0662 -0.6951  1.6314
  959MOL0     O26457  11.195  10.897   4.431  0.8453 -0.2698  0.2622
  959MOL0     C26458  11.234  10.874   4.544  0.2950  0.1000 -0.0685
  959MOL0     O26459  11.160  10.823   4.646 -0.4004 -1.0256  0.4669
  959MOL0     C26460  11.029  10.775   4.619 -0.3903 -0.1552 -0.5007
  959MOL0     C26461  11.011  10.647   4.578  0.2528  0.0632  0.1931
  959MOL0     C26462  10.882  10.595   4.540  0.4513  0.5823 -1.4905
  959MOL0     C26463  10.774  10.687   4.542  0.6081  0.1353  0.7787
  959MOL0     O26464  10.647  10.666   4.507  0.7040  0.3375  0.2035
  959MOL0     C26465  10.609  10.523   4.499  0.2999 -0.3714 -0.6587
  959MOL0     C26466  10.627  10.469   4.360 -0.3311 -0.7441  1.2044
  959MOL0     C26467  10.500  10.483   4.270 -0.1009  1.3602 -0.7106
  959MOL0     C26468  10.525  10.457   4.122  0.2623  0.6191  1.1248
  959MOL0     C26469  10.406  10.434   4.029  0.9889 -0.3344 -0.3368
  959MOL0     C26470  10.322  10.305   4.050 -1.1752 -0.6171  0.9496
  959MOL0     C26471  10.190  10.316   3.963 -0.2719  0.0501 -0.8421
  959MOL0     C26472  10.094  10.210   4.004 -0.5349 -0.0962  0.5030
  959MOL0     N26473   9.996  10.189   3.894  0.4749 -0.4309  0.8792
  959MOL0     C26474  10.011  10.115   3.774 -0.2484  0.1395  0.4684
  959MOL0     C26475   9.896  10.129   3.715 -0.0617 -0.6102  0.9290
  959MOL0     C26476   9.864  10.054   3.587 -0.1859  0.5083 -0.0252
  959MOL0     C26477   9.824   9.910   3.608  0.0576 -0.0689  0.8141
  959MOL0     C26478   9.708   9.885   3.709  0.5502  0.0130 -0.1739
  959MOL0     C26479   9.655   9.740   3.706 -0.1065  0.0524 -0.0964
  959MOL0     O26480   9.751   9.661   3.777 -0.0216  0.6279  0.1051
  959MOL0     C26481   9.709   9.599   3.887 -1.0091  0.9251 -0.3390
  959MOL0     C26482   9.577   9.569   3.933  0.1352 -0.0764 -0.8873
  959MOL0     C26483   9.561   9.479   4.036 -0.4864  0.6292 -0.5667
  959MOL0     C26484   9.670   9.425   4.110  0.5220  0.2372  0.0143
  959MOL0     C26485   9.641   9.320   4.227 -0.9762  0.3194 -0.0674
  959MOL0     O26486   9.517   9.336   4.279 -0.7761  0.8539 -0.2074
  959MOL0     C26487   9.488   9.315   4.409 -0.3205  1.0517 -0.2884
  959MOL0     C26488   9.586   9.319   4.512  0.0669  0.1547  0.0360
  959MOL0     C26489   9.547   9.298   4.652 -0.0101 -0.9775  0.3284
  959MOL0     C26490   9.404   9.302   4.679  0.7047  0.3635  0.2146
  959MOL0     O26491   9.369   9.311   4.814  0.4659 -0.4996 -0.3697
  959MOL0     C26492   9.332   9.446   4.855  0.5995 -0.6288  0.2943
  959MOL0     C26493   9.184   9.502   4.845 -0.4747  0.2255 -0.1033
  959MOL0     C26494   9.092   9.397   4.910 -0.0308  0.2727 -0.4398
  959MOL0     C26495   8.945   9.457   4.907  0.1785 -0.0741  0.4354
  959MOL0     C26496   8.843   9.380   4.990 -0.8065  0.6344  0.2854
  959MOL0     C26497   8.697   9.434   4.962 -0.1535 -0.6057 -0.2826
  959MOL0     C26498   8.584   9.368   5.047 -0.1850  0.3027  0.3246
  959MOL0     C26499   8.447   9.421   4.988 -0.1288  0.1190  0.3959
  959MOL0    Cl26500   8.435   9.605   4.983  0.8153 -0.1183  0.1169
  959MOL0     C26501   9.310   9.300   4.572 -0.1728  0.0508  1.2918
  959MOL0     C26502   9.352   9.295   4.444  0.1632  0.2319  0.7975
  959MOL0     O26503   9.725   9.228   4.254  0.5313 -0.9795 -0.3179
  959MOL0     C26504   9.796   9.462   4.070  0.1645 -0.3742  0.1834
  959MOL0     C26505   9.809   9.552   3.968 -1.2042  0.3232  0.9988
  959MOL0     N26506   9.808  10.204   3.784  0.5691  0.0256  0.4134
  959MOL0     N26507   9.871  10.241   3.897 -0.0262 -0.2448  0.7201
  959MOL0     C26508  10.795  10.819   4.583  0.2382 -0.4312 -0.0910
  959MOL0     C26509  10.917  10.864   4.630  0.3893 -0.0075 -0.2495
  959MOL0     C26510  11.380  10.904   4.569  0.4877  0.6933  0.1261
  959MOL0     C26511  11.431  10.909   4.702  0.4296 -0.1353 -0.1604
  959MOL0     C26512  11.566  10.931   4.728 -0.3495  0.3567  0.1106
  959MOL0     C26513  11.650  10.960   4.627 -0.4704  0.0671 -0.2013
  959MOL0     O26514  11.780  10.981   4.659 -0.3863  0.1282  0.3059
  959MOL0     C26515  11.884  10.974   4.555 -0.4833  0.5744 -1.2207
  959MOL0     C26516  12.020  10.952   4.645  0.6431 -0.1240 -0.0317
  959MOL0     C26517  12.140  10.973   4.552 -0.4600  0.1469 -0.1696
  959MOL0     C26518  12.272  10.943   4.623  0.0894 -0.1217 -0.6009
  959MOL0     C26519  12.287  11.001   4.764  0.2082 -0.2900  0.7026
  959MOL0     C26520  12.308  11.030   4.883  0.0106 -0.8951 -0.4635
  959MOL0     C26521  11.605  10.958   4.494 -0.5467 -0.7910 -0.1773
  959MOL0     C26522  11.470  10.923   4.462  0.4624 -0.0147 -0.3754
  959MOL0     H26523  11.097  10.582   4.586 -1.1263 -1.9520 -0.6072
  959MOL0     H26524  10.864  10.490   4.520 -0.5562  0.0392  1.6186
  959MOL0     H26525  10.506  10.510   4.532  0.0395  2.5269 -0.0905
  959MOL0     H26526  10.663  10.461   4.571 -0.3342 -0.9550 -0.6798
  959MOL0     H26527  10.632  10.360   4.362 -3.5334 -1.0551 -0.7179
  959MOL0     H26528  10.702  10.517   4.297 -1.3416  0.1301  0.6456
  959MOL0     H26529  10.446  10.578   4.278 -2.7481 -0.2241  2.3650
  959MOL0     H26530  10.430  10.404   4.297 -0.0231  1.2716 -0.7687
  959MOL0     H26531  10.573  10.547   4.082  2.0373  0.3571  2.5303
  959MOL0     H26532  10.593  10.373   4.102 -2.5599 -2.5274  3.6075
  959MOL0     H26533  10.433  10.440   3.923  1.9466 -0.2814 -0.0909
  959MOL0     H26534  10.336  10.518   4.038  0.3983 -0.8103 -0.3575
  959MOL0     H26535  10.275  10.305   4.149 -2.1677  0.3698  0.4917
  959MOL0     H26536  10.382  10.216   4.033 -0.0893  0.5752 -2.1615
  959MOL0     H26537  10.145  10.410   3.996  1.5273  0.5325  0.3988
  959MOL0     H26538  10.212  10.321   3.856 -1.9829  2.9045 -1.1524
  959MOL0     H26539  10.048  10.230   4.101  1.5963  0.2473  1.5160
  959MOL0     H26540  10.146  10.114   4.015 -0.2114 -0.0234 -0.3010
  959MOL0     H26541  10.093  10.052   3.741  0.3049  1.5722 -1.0427
  959MOL0     H26542   9.955  10.042   3.528 -0.0446 -2.3366  0.6210
  959MOL0     H26543   9.783  10.109   3.538 -0.5629  2.3904  2.5094
  959MOL0     H26544   9.902   9.840   3.638 -1.7722 -1.0155  3.8170
  959MOL0     H26545   9.781   9.885   3.511 -1.9541  0.5630  1.4736
  959MOL0     H26546   9.744   9.916   3.808  4.8518  1.6166 -1.9676
  959MOL0     H26547   9.630   9.952   3.671  0.4641  0.1027  0.1577
  959MOL0     H26548   9.648   9.715   3.600 -1.5204  0.7690 -0.2075
  959MOL0     H26549   9.562   9.740   3.764  0.0807  0.4734  0.2112
  959MOL0     H26550   9.487   9.608   3.888  1.3028  0.9590 -2.4540
  959MOL0     H26551   9.458   9.464   4.069  0.1819  1.2309  2.0656
  959MOL0     H26552   9.691   9.337   4.488  0.7701 -0.4695  2.3775
  959MOL0     H26553   9.619   9.290   4.733  1.8256 -3.7476 -1.3859
  959MOL0     H26554   9.389   9.523   4.800 -0.6850  0.7043  0.7698
  959MOL0     H26555   9.355   9.477   4.957 -0.2745  3.0375 -0.4599
  959MOL0     H26556   9.153   9.526   4.743 -0.8538  1.4290  0.2800
  959MOL0     H26557   9.184   9.598   4.897 -0.9537 -0.6788  1.6119
  959MOL0     H26558   9.124   9.383   5.014  1.4994 -1.3699 -1.0781
  959MOL0     H26559   9.093   9.301   4.857  0.4626  0.9423 -1.6885
  959MOL0     H26560   8.946   9.560   4.942  1.8497  0.6857 -1.6173
  959MOL0     H26561   8.915   9.458   4.801  3.8668  3.7218 -0.8362
  959MOL0     H26562   8.883   9.383   5.092 -0.2594 -2.8593  0.2990
  959MOL0     H26563   8.841   9.273   4.964 -1.3427  1.2201 -2.3425
  959MOL0     H26564   8.670   9.450   4.857 -0.3903  0.4084 -0.0819
  959MOL0     H26565   8.689   9.539   4.993 -0.8968 -0.6671 -0.2444
  959MOL0     H26566   8.585   9.259   5.056 -2.2253  0.3856  2.6976
  959MOL0     H26567   8.603   9.407   5.148  2.1148  4.5174 -1.4748
  959MOL0     H26568   8.360   9.379   5.040  1.1460 -3.3186 -0.0005
  959MOL0     H26569   8.435   9.376   4.889 -2.8059 -1.2700  1.2525
  959MOL0     H26570   9.207   9.309   4.607 -0.7779 -1.4071  0.0142
  959MOL0     H26571   9.270   9.283   4.374 -1.3772  0.5338  2.4791
  959MOL0     H26572   9.887   9.420   4.112  2.0143  2.7264 -0.3295
  959MOL0     H26573   9.906   9.582   3.931 -1.2220  0.4459  1.0520
  959MOL0     H26574  10.722  10.899   4.582 -0.4807 -1.0728 -0.1666
  959MOL0     H26575  10.928  10.969   4.658  2.8037 -0.2519 -0.0308
  959MOL0     H26576  11.367  10.898   4.789 -1.6387  0.8076 -1.4884
  959MOL0     H26577  11.583  10.944   4.834 -1.3794 -2.4649  0.7291
  959MOL0     H26578  11.899  11.061   4.491  1.5924 -1.5209 -3.8292
  959MOL0     H26579  11.874  10.879   4.501  1.7059 -0.7147  0.4423
  959MOL0     H26580  12.003  11.030   4.720 -2.5042 -0.3907 -0.3602
  959MOL0     H26581  12.010  10.857   4.698 -3.2839  0.4495  0.5715
  959MOL0     H26582  12.150  11.080   4.529  0.5553  0.2679  0.7915
  959MOL0     H26583  12.144  10.904   4.467  0.8452 -1.3169  1.0165
  959MOL0     H26584  12.297  10.837   4.632  0.5629 -0.0869 -1.4286
  959MOL0     H26585  12.348  10.987   4.558 -3.1211  1.4143 -3.6645
  959MOL0     H26586  12.333  11.050   4.986  2.5271 -0.7740 -1.0314
  959MOL0     H26587  11.667  10.993   4.413 -2.1681 -1.6794 -1.8896
  959MOL0     H26588  11.452  10.926   4.356  1.2736 -1.5468 -0.5818
  960MOL0     O26589   0.427   7.524   6.451  0.2483 -0.0850  0.1520
  960MOL0     C26590   0.378   7.466   6.351 -0.3960  0.3018  0.7727
  960MOL0     O26591   0.400   7.490   6.220  0.2606  0.3595  0.8878
  960MOL0     C26592   0.487   7.585   6.182  0.0194 -0.6516 -0.3892
  960MOL0     C26593   0.632   7.561   6.187  0.6205  0.5671  0.4989
  960MOL0     C26594   0.722   7.654   6.143  1.1679 -0.0044 -0.9259
  960MOL0     C26595   0.674   7.778   6.091  0.5066  0.1864 -0.6885
  960MOL0     O26596   0.756   7.874   6.046 -0.5925 -0.1333  0.2185
  960MOL0     C26597   0.869   7.903   6.141 -0.1816  0.1166  0.4537
  960MOL0     C26598   0.914   8.044   6.114  0.6219  0.6064 -0.1102
  960MOL0     C26599   1.024   8.040   6.010  0.3982 -0.4487  0.0151
  960MOL0     C26600   0.993   7.985   5.867  0.1238  0.0455 -0.0440
  960MOL0     C26601   1.105   7.958   5.769 -0.3848 -0.4586  0.4951
  960MOL0     C26602   1.064   7.950   5.621 -0.5224 -0.0738  0.5562
  960MOL0     C26603   0.964   7.853   5.581  0.9005  0.4976 -0.2592
  960MOL0     C26604   0.921   7.849   5.428 -0.4532 -0.0809 -0.2549
  960MOL0     N26605   0.778   7.892   5.416 -0.3976  0.1804  0.1234
  960MOL0     C26606   0.719   7.998   5.482 -0.5970  0.0797 -0.2298
  960MOL0     C26607   0.583   7.992   5.454 -1.6486 -0.2227 -0.1690
  960MOL0     C26608   0.468   8.073   5.514 -0.7256  0.2606  0.5504
  960MOL0     C26609   0.517   8.216   5.517 -0.4012 -0.0862  0.1303
  960MOL0     C26610   0.555   8.270   5.382 -0.0406  0.9060 -0.0324
  960MOL0     C26611   0.575   8.423   5.388  0.1398 -0.5659  0.8720
  960MOL0     O26612   0.667   8.468   5.284  0.7650 -0.0407 -0.2907
  960MOL0     C26613   0.631   8.580   5.220 -0.0926 -0.5167 -0.3456
  960MOL0     C26614   0.661   8.712   5.271  0.8793 -0.4179 -0.7890
  960MOL0     C26615   0.619   8.825   5.202  0.9680  0.0061 -0.2391
  960MOL0     C26616   0.541   8.804   5.084 -0.2522 -0.4837  0.1454
  960MOL0     C26617   0.496   8.927   5.018 -0.0143 -0.1459  1.4172
  960MOL0     O26618   0.398   8.904   4.934  0.4180 -0.0997 -0.0520
  960MOL0     C26619   0.361   8.995   4.837  0.9766  0.2091 -0.0767
  960MOL0     C26620   0.222   9.025   4.823  0.1904  0.4898 -0.3636
  960MOL0     C26621   0.168   9.082   4.708  1.5108 -0.7021  0.6830
  960MOL0     C26622   0.259   9.133   4.608  0.3338 -0.5018 -0.2734
  960MOL0     O26623   0.212   9.200   4.499 -0.1834 -0.0800  0.2047
  960MOL0     C26624   0.253   9.157   4.368 -1.1354  0.8226 -0.5514
  960MOL0     C26625   0.129   9.104   4.301  0.4769 -0.4409 -0.1933
  960MOL0     C26626   0.145   9.035   4.168  0.0131 -0.6675  0.9798
  960MOL0     C26627   0.013   8.970   4.118 -0.8639  0.2805 -0.6637
  960MOL0     C26628   0.034   8.900   3.990 -0.5211  0.4033  0.5871
  960MOL0     C26629  -0.068   8.777   3.963  1.0270 -0.5155 -0.7314
  960MOL0     C26630  -0.054   8.715   3.823 -0.1170  0.4813 -0.4294
  960MOL0     C26631   0.091   8.673   3.779 -0.4106  0.1804  0.3831
  960MOL0    Cl26632   0.085   8.561   3.644  0.0508  0.3029 -0.0596
  960MOL0     C26633   0.397   9.101   4.625  0.2300 -0.1260 -0.9462
  960MOL0     C26634   0.448   9.039   4.735  0.7601  0.2725  0.4430
  960MOL0     O26635   0.577   9.022   5.015 -0.1728 -0.2208  0.0076
  960MOL0     C26636   0.508   8.675   5.040 -0.2805 -0.1752  0.5374
  960MOL0     C26637   0.562   8.566   5.107  0.3266 -1.0693  0.8093
  960MOL0     N26638   0.556   7.890   5.366  0.7373 -0.1813  1.3102
  960MOL0     N26639   0.670   7.824   5.352 -0.1354 -0.2976 -0.0852
  960MOL0     C26640   0.537   7.804   6.086  0.5134  1.2617 -0.5478
  960MOL0     C26641   0.445   7.710   6.133 -0.5804 -0.5000  0.1283
  960MOL0     C26642   0.289   7.357   6.379  0.2308  0.3644 -0.1235
  960MOL0     C26643   0.290   7.280   6.500 -0.6403  0.9842 -0.5459
  960MOL0     C26644   0.207   7.160   6.511 -0.3720  1.2461 -0.3306
  960MOL0     C26645   0.126   7.128   6.412  0.2694  0.1145 -0.1949
  960MOL0     O26646   0.055   7.014   6.416 -0.6213 -0.6232  0.5838
  960MOL0     C26647   0.118   6.894   6.448 -0.0507  0.4949 -0.4635
  960MOL0     C26648   0.238   6.868   6.359 -0.2915  0.5580 -0.1223
  960MOL0     C26649   0.301   6.731   6.406  0.1016 -0.1457 -0.7432
  960MOL0     C26650   0.407   6.677   6.303 -0.4542  0.5213 -0.3782
  960MOL0     C26651   0.431   6.535   6.337  0.0136 -0.0415  0.6778
  960MOL0     C26652   0.454   6.419   6.344 -0.2022  0.3796 -0.6861
  960MOL0     C26653   0.105   7.215   6.308 -0.7132  0.0409  0.1590
  960MOL0     C26654   0.182   7.329   6.285 -0.7834 -0.4505 -0.4508
  960MOL0     H26655   0.668   7.463   6.216  1.9048  0.4311 -1.3994
  960MOL0     H26656   0.829   7.642   6.152  1.2263  1.8674  3.2917
  960MOL0     H26657   0.945   7.827   6.121  2.2131  2.0216  1.7512
  960MOL0     H26658   0.828   7.895   6.242  0.5432  4.2770  1.2480
  960MOL0     H26659   0.950   8.081   6.210  0.1577 -4.3050  2.2632
  960MOL0     H26660   0.834   8.110   6.078  0.4886  0.1950 -0.5872
  960MOL0     H26661   1.103   7.970   6.039 -0.7281 -2.5948 -1.7659
  960MOL0     H26662   1.065   8.141   6.003  1.6173 -1.0627 -2.7910
  960MOL0     H26663   0.925   7.899   5.871  0.1673 -0.0515 -1.0027
  960MOL0     H26664   0.930   8.061   5.821 -0.7356 -0.7020 -0.1285
  960MOL0     H26665   1.149   7.861   5.792 -3.7262 -1.8747  1.3526
  960MOL0     H26666   1.181   8.037   5.775 -0.0694 -0.7615  0.4810
  960MOL0     H26667   1.156   7.938   5.563  2.6642 -0.9412  5.1803
  960MOL0     H26668   1.021   8.050   5.609  2.7595  1.5548  1.1344
  960MOL0     H26669   1.009   7.757   5.609  3.2192  1.8803  1.1716
  960MOL0     H26670   0.875   7.856   5.645  0.9987  0.2251 -0.1082
  960MOL0     H26671   0.929   7.749   5.385 -1.8043  0.2001 -1.2472
  960MOL0     H26672   0.984   7.919   5.372 -0.9571 -0.4900 -1.3627
  960MOL0     H26673   0.770   8.065   5.550 -0.3987  4.1196 -3.8860
  960MOL0     H26674   0.446   8.034   5.613  0.9066  0.3142  0.9697
  960MOL0     H26675   0.390   8.059   5.439  0.2501 -0.2991 -0.4017
  960MOL0     H26676   0.589   8.228   5.598  0.6139  5.8343 -1.1762
  960MOL0     H26677   0.425   8.273   5.535  0.8035  2.0978 -0.3226
  960MOL0     H26678   0.640   8.225   5.330  0.4754  0.2612  1.3144
  960MOL0     H26679   0.473   8.256   5.310  0.9192 -1.1455 -0.8184
  960MOL0     H26680   0.623   8.437   5.486  2.5839 -0.1249 -0.3079
  960MOL0     H26681   0.476   8.468   5.384 -0.0638 -1.0129 -3.0419
  960MOL0     H26682   0.726   8.728   5.356  4.2437  0.5636 -3.3370
  960MOL0     H26683   0.653   8.925   5.225  3.5633 -0.2344 -2.5084
  960MOL0     H26684   0.166   8.985   4.907  0.8477  1.7311  0.7051
  960MOL0     H26685   0.064   9.109   4.695  2.1447  1.7453  0.3017
  960MOL0     H26686   0.340   9.091   4.359 -1.5125  0.5333 -2.4049
  960MOL0     H26687   0.293   9.241   4.310  0.2206  1.3684  1.0673
  960MOL0     H26688   0.057   9.186   4.301  2.7979  1.7820 -2.0290
  960MOL0     H26689   0.088   9.025   4.364 -2.5199 -2.0926 -3.8143
  960MOL0     H26690   0.225   8.962   4.185 -0.3773 -0.6849  2.9565
  960MOL0     H26691   0.155   9.107   4.087 -6.1655  3.2987  3.0437
  960MOL0     H26692  -0.019   8.902   4.197  0.7835  0.2694  0.0309
  960MOL0     H26693  -0.062   9.049   4.115 -4.7179 -3.0925 -1.1268
  960MOL0     H26694   0.134   8.856   4.001 -1.1321 -0.4100  4.3246
  960MOL0     H26695   0.044   8.973   3.909 -1.8300  0.5057  0.5023
  960MOL0     H26696  -0.166   8.824   3.977  3.0518  3.9167  0.3377
  960MOL0     H26697  -0.050   8.694   4.032 -1.1601 -0.4383  0.0190
  960MOL0     H26698  -0.117   8.625   3.818  3.4760 -2.2956 -0.0692
  960MOL0     H26699  -0.084   8.793   3.753 -0.4718  2.9754  2.3049
  960MOL0     H26700   0.134   8.622   3.866  0.4821 -0.5682 -0.4835
  960MOL0     H26701   0.147   8.763   3.754  0.8350 -0.3462  1.2136
  960MOL0     H26702   0.457   9.120   4.537 -2.5291 -0.1709 -2.9418
  960MOL0     H26703   0.556   9.024   4.732  0.7608  0.3793 -0.4908
  960MOL0     H26704   0.442   8.668   4.954 -0.7824  3.7274  0.4097
  960MOL0     H26705   0.543   8.472   5.057 -1.3762  0.3110 -1.3574
  960MOL0     H26706   0.504   7.897   6.040  1.3260  0.7031 -2.3623
  960MOL0     H26707   0.338   7.726   6.132 -0.2795  1.9589  0.2373
  960MOL0     H26708   0.371   7.291   6.572 -0.4011  2.2214 -0.9806
  960MOL0     H26709   0.217   7.093   6.595 -1.0787  0.1965 -1.0538
  960MOL0     H26710   0.049   6.809   6.444 -0.8274  1.0788  0.2316
  960MOL0     H26711   0.154   6.895   6.551  1.9378 -1.1751 -1.0779
  960MOL0     H26712   0.204   6.869   6.255  0.0800  3.3260 -0.2882
  960MOL0     H26713   0.321   6.940   6.358  0.7863 -0.6339 -0.2370
  960MOL0     H26714   0.221   6.660   6.432 -0.6346  1.6529  2.4075
  960MOL0     H26715   0.362   6.744   6.496  1.5565  0.4330 -1.7850
  960MOL0     H26716   0.371   6.682   6.200  0.9794 -0.8022 -0.9882
  960MOL0     H26717   0.496   6.742   6.298 -0.3690  0.3562 -1.2017
  960MOL0     H26718   0.474   6.314   6.350 -0.3053  0.4343  0.8482
  960MOL0     H26719   0.024   7.200   6.238  0.0082  1.9232 -1.1595
  960MOL0     H26720   0.159   7.399   6.205  1.4863 -0.0503 -0.8003
  961MOL0     O26721   3.418   2.553   2.356 -0.6764 -0.4769 -0.6723
  961MOL0     C26722   3.402   2.453   2.293  0.3439  0.9907 -0.2701
  961MOL0     O26723   3.469   2.419   2.187 -0.2022 -0.4568  0.3170
  961MOL0     C26724   3.552   2.510   2.126  1.0612  0.6351 -0.9611
  961MOL0     C26725   3.660   2.561   2.197 -0.1493 -0.1248 -0.3596
  961MOL0     C26726   3.749   2.658   2.134  0.3270  0.4786  0.9097
  961MOL0     C26727   3.714   2.684   1.998 -0.7537 -0.4104 -0.4574
  961MOL0     O26728   3.802   2.743   1.911 -0.0374  0.4421  0.9435
  961MOL0     C26729   3.904   2.832   1.964  0.3319 -0.9013 -0.6890
  961MOL0     C26730   3.992   2.883   1.862 -0.8365 -0.0238  0.9364
  961MOL0     C26731   3.921   3.007   1.803 -0.3894 -0.1869  0.4238
  961MOL0     C26732   3.769   3.005   1.769 -0.7505  0.1311 -0.4333
  961MOL0     C26733   3.734   3.076   1.635  0.4724 -0.7949 -0.0293
  961MOL0     C26734   3.787   3.000   1.505 -1.0335 -0.4166  0.2686
  961MOL0     C26735   3.736   3.056   1.370 -0.1374 -0.0462 -0.4098
  961MOL0     C26736   3.785   2.981   1.249 -0.1145  0.2319  0.5051
  961MOL0     N26737   3.730   3.026   1.121  1.2291 -0.3329  0.4330
  961MOL0     C26738   3.601   3.005   1.076  0.5095  0.0951  0.3114
  961MOL0     C26739   3.589   3.092   0.976  0.2542 -1.3113  0.0289
  961MOL0     C26740   3.466   3.136   0.897 -0.2116  0.2843 -0.0966
  961MOL0     C26741   3.399   3.274   0.939  0.2835  0.3441 -0.3904
  961MOL0     C26742   3.308   3.274   1.056  0.6955 -0.8408  0.4458
  961MOL0     C26743   3.384   3.294   1.191  0.2285  0.1961 -0.7390
  961MOL0     O26744   3.294   3.231   1.276  0.7906 -0.0962 -0.4357
  961MOL0     C26745   3.296   3.260   1.409  0.1541 -0.5202  0.4226
  961MOL0     C26746   3.174   3.240   1.483  0.2135  0.8070  0.2672
  961MOL0     C26747   3.175   3.280   1.617 -0.3652  1.0714 -0.4428
  961MOL0     C26748   3.292   3.333   1.683 -0.7835 -0.4221 -0.9249
  961MOL0     C26749   3.285   3.384   1.824 -0.0750 -0.0474 -0.7095
  961MOL0     O26750   3.391   3.464   1.862  0.4777 -0.2703 -0.8642
  961MOL0     C26751   3.409   3.499   1.993 -0.0206 -0.0019 -0.0780
  961MOL0     C26752   3.478   3.617   2.018 -0.7885  0.5547  0.7044
  961MOL0     C26753   3.488   3.663   2.148 -0.5985 -0.5128 -0.1575
  961MOL0     C26754   3.452   3.584   2.257 -0.1503 -0.6636 -1.2100
  961MOL0     O26755   3.496   3.634   2.378 -1.1321  0.4881 -0.5920
  961MOL0     C26756   3.516   3.544   2.493 -0.2436  1.1253 -0.5225
  961MOL0     C26757   3.598   3.596   2.610 -0.0871 -0.3095 -0.4255
  961MOL0     C26758   3.537   3.729   2.657 -0.9349 -0.4078  0.0548
  961MOL0     C26759   3.597   3.765   2.791  0.7711 -0.8800  0.6760
  961MOL0     C26760   3.503   3.886   2.827  0.3134 -0.3475  1.2578
  961MOL0     C26761   3.520   3.916   2.984 -0.2815  0.4854 -0.2292
  961MOL0     C26762   3.460   4.053   3.009  0.1072 -0.1655 -0.1016
  961MOL0     C26763   3.410   4.079   3.149 -0.4923  0.2728 -0.3472
  961MOL0    Cl26764   3.551   4.091   3.259 -0.1351 -0.3993  0.0057
  961MOL0     C26765   3.388   3.464   2.233  1.2145  0.1650 -0.1976
  961MOL0     C26766   3.367   3.419   2.105 -0.1977  0.5548  0.6184
  961MOL0     O26767   3.180   3.380   1.882 -0.2173 -0.1719 -0.0302
  961MOL0     C26768   3.417   3.337   1.606  0.2366  0.3350  0.2225
  961MOL0     C26769   3.412   3.309   1.469 -0.4293 -0.6956  1.3485
  961MOL0     N26770   3.704   3.171   0.968  0.3139 -0.1495 -0.4189
  961MOL0     N26771   3.795   3.116   1.037 -0.1641  0.6443  0.0386
  961MOL0     C26772   3.597   2.644   1.939 -0.3763  0.6847  0.0957
  961MOL0     C26773   3.515   2.556   2.008 -0.1446  0.4762  0.1611
  961MOL0     C26774   3.305   2.351   2.350  0.0628 -0.3998  0.9259
  961MOL0     C26775   3.242   2.251   2.264 -0.7388  0.0001 -0.1916
  961MOL0     C26776   3.144   2.161   2.319 -0.1018  0.0527  1.0845
  961MOL0     C26777   3.098   2.174   2.450  0.4178 -0.7262  0.8286
  961MOL0     O26778   2.999   2.097   2.509 -0.1813  0.2633 -0.1096
  961MOL0     C26779   3.011   1.952   2.509  0.1554  0.9715  0.0308
  961MOL0     C26780   2.986   1.907   2.653 -0.1856  0.2189 -0.1692
  961MOL0     C26781   2.847   1.928   2.708 -0.3999  1.1512  0.5001
  961MOL0     C26782   2.730   1.868   2.629  0.3852  0.0463  0.3766
  961MOL0     C26783   2.729   1.725   2.626  0.0860  0.5751 -0.3794
  961MOL0     C26784   2.734   1.605   2.620  0.5565  0.0509  0.1057
  961MOL0     C26785   3.164   2.270   2.528  0.7625 -0.2800 -0.2990
  961MOL0     C26786   3.260   2.354   2.485 -1.1133 -0.2331 -1.0378
  961MOL0     H26787   3.661   2.543   2.305  0.0504  0.9205 -0.1771
  961MOL0     H26788   3.831   2.713   2.178  2.5953 -1.2911 -0.8314
  961MOL0     H26789   3.974   2.770   2.022  1.9685  0.4259 -1.1640
  961MOL0     H26790   3.858   2.910   2.025  1.1835 -1.2893  0.4954
  961MOL0     H26791   4.014   2.813   1.781  2.0790  3.8006 -1.9779
  961MOL0     H26792   4.083   2.898   1.920 -0.7361 -1.6769  1.2451
  961MOL0     H26793   3.983   3.040   1.719  1.9996 -0.5670  1.9416
  961MOL0     H26794   3.951   3.080   1.878 -0.3489 -2.9327  3.2529
  961MOL0     H26795   3.722   2.906   1.773 -0.5655  0.0670  0.3533
  961MOL0     H26796   3.712   3.062   1.843  1.9070  0.6707  1.3194
  961MOL0     H26797   3.768   3.179   1.633 -4.8806  1.3058 -2.3925
  961MOL0     H26798   3.628   3.100   1.624  0.6247 -0.0172  0.1720
  961MOL0     H26799   3.755   2.896   1.515  0.5301 -1.1255 -1.4434
  961MOL0     H26800   3.896   3.003   1.507 -0.8533 -3.8943  1.3309
  961MOL0     H26801   3.627   3.060   1.369 -0.3614 -3.2025 -0.1064
  961MOL0     H26802   3.769   3.160   1.363 -0.6344  0.0455 -1.6117
  961MOL0     H26803   3.762   2.875   1.262  1.0293  0.0716  1.3679
  961MOL0     H26804   3.894   2.978   1.249  0.0046 -1.7018 -3.1802
  961MOL0     H26805   3.517   2.941   1.102 -0.1091 -0.0955 -1.9209
  961MOL0     H26806   3.394   3.056   0.916  2.4864 -2.2680  0.1816
  961MOL0     H26807   3.491   3.135   0.790 -3.8742 -0.6698 -1.0691
  961MOL0     H26808   3.323   3.301   0.865  0.5062  2.2981  0.0344
  961MOL0     H26809   3.471   3.356   0.938  0.8486  0.1120  3.5080
  961MOL0     H26810   3.235   3.355   1.055  0.7968 -0.7192 -1.6288
  961MOL0     H26811   3.248   3.182   1.057  0.3987 -0.6632 -0.3526
  961MOL0     H26812   3.398   3.398   1.219 -0.2503 -0.8988  4.6308
  961MOL0     H26813   3.480   3.242   1.193  0.2921  0.3324  0.2808
  961MOL0     H26814   3.078   3.210   1.441  1.0125 -0.4271 -0.7293
  961MOL0     H26815   3.079   3.281   1.666  0.0710  0.2609  0.4878
  961MOL0     H26816   3.494   3.684   1.934 -0.4696  0.0086  0.3234
  961MOL0     H26817   3.542   3.752   2.179  0.1743 -0.9100 -0.3466
  961MOL0     H26818   3.565   3.462   2.440  0.4428  1.9383 -1.1845
  961MOL0     H26819   3.420   3.513   2.533 -1.8749  0.7912 -4.2717
  961MOL0     H26820   3.704   3.603   2.583 -0.1153  2.9109  0.0050
  961MOL0     H26821   3.597   3.520   2.689  3.2734 -1.2623 -1.0979
  961MOL0     H26822   3.429   3.710   2.663 -1.0639 -1.8669 -3.7607
  961MOL0     H26823   3.560   3.809   2.586 -1.7986 -0.0072  0.2155
  961MOL0     H26824   3.576   3.683   2.860 -0.0716  1.2349  3.1174
  961MOL0     H26825   3.702   3.795   2.791  0.1099  1.7783 -0.1652
  961MOL0     H26826   3.397   3.867   2.808  0.6671 -3.8378  2.0520
  961MOL0     H26827   3.536   3.968   2.762  2.0939 -2.1299 -0.2092
  961MOL0     H26828   3.627   3.921   3.005  0.0478  4.7746 -2.0037
  961MOL0     H26829   3.472   3.837   3.043  2.8971  0.3715  2.4681
  961MOL0     H26830   3.525   4.139   2.987 -1.4092  1.8824  2.7006
  961MOL0     H26831   3.379   4.060   2.936  1.0348  1.9201 -1.0277
  961MOL0     H26832   3.345   3.995   3.179 -0.8308  0.6265 -0.0798
  961MOL0     H26833   3.350   4.170   3.156 -2.5284 -0.6745 -3.6239
  961MOL0     H26834   3.363   3.398   2.316 -1.5325  3.1185  1.5543
  961MOL0     H26835   3.332   3.319   2.080  1.1565  0.2491 -0.1145
  961MOL0     H26836   3.507   3.386   1.642  1.4300 -0.6128 -1.3362
  961MOL0     H26837   3.507   3.325   1.420 -0.4697 -1.1994  1.1010
  961MOL0     H26838   3.574   2.686   1.841  4.3528 -1.6717 -2.3133
  961MOL0     H26839   3.426   2.521   1.955 -0.3806  2.3676 -0.7670
  961MOL0     H26840   3.283   2.238   2.164 -2.9934  1.5773 -1.4249
  961MOL0     H26841   3.097   2.090   2.251  1.0773  0.7938 -0.5731
  961MOL0     H26842   3.110   1.918   2.477  0.2581  1.0928  0.2210
  961MOL0     H26843   2.931   1.910   2.446  0.1354  2.2095 -0.8003
  961MOL0     H26844   3.014   1.801   2.657  1.1959  0.4249 -2.3950
  961MOL0     H26845   3.059   1.965   2.710  0.2714 -2.0233  1.6508
  961MOL0     H26846   2.823   2.035   2.711  0.1639  1.4773 -2.8862
  961MOL0     H26847   2.835   1.879   2.805  0.1220 -4.3874 -1.8579
  961MOL0     H26848   2.631   1.894   2.668 -1.7885 -0.6079 -3.9998
  961MOL0     H26849   2.730   1.911   2.528 -2.3535 -0.1243  0.2229
  961MOL0     H26850   2.738   1.498   2.614  1.1219  0.1272 -1.8693
  961MOL0     H26851   3.132   2.273   2.632  1.7603  1.3919 -0.0048
  961MOL0     H26852   3.320   2.416   2.551 -0.0635 -1.5692 -0.6733
  962MOL0     O26853   8.462   1.255  10.958 -0.6243 -0.2545 -0.1469
  962MOL0     C26854   8.416   1.355  10.896 -0.1589 -0.5408 -0.4601
  962MOL0     O26855   8.464   1.407  10.783 -0.2879 -0.0650  0.3399
  962MOL0     C26856   8.561   1.348  10.711 -0.1413 -0.8031 -0.1329
  962MOL0     C26857   8.590   1.213  10.710  0.4095 -0.4155  0.6039
  962MOL0     C26858   8.684   1.163  10.613 -0.0263 -0.1308  0.4151
  962MOL0     C26859   8.738   1.251  10.512 -0.3929 -0.7279  0.1363
  962MOL0     O26860   8.840   1.201  10.415  0.4196  0.3485 -0.6757
  962MOL0     C26861   8.894   1.292  10.313  0.0417 -0.8301 -0.4918
  962MOL0     C26862   8.807   1.363  10.207  0.1560 -0.0785  0.4252
  962MOL0     C26863   8.886   1.402  10.080 -0.9397 -0.2599 -0.2689
  962MOL0     C26864   8.946   1.546  10.087  0.9472 -0.0201  0.2233
  962MOL0     C26865   8.984   1.605   9.953  0.1597  0.4989 -0.8308
  962MOL0     C26866   9.079   1.514   9.873  0.4365 -0.6109  0.5176
  962MOL0     C26867   9.076   1.545   9.722 -0.2245  0.4622  0.0259
  962MOL0     C26868   9.091   1.686   9.664 -0.1057 -0.6377 -0.0693
  962MOL0     N26869   9.224   1.705   9.606  0.1073 -0.2494 -0.6515
  962MOL0     C26870   9.341   1.697   9.677 -0.7661 -1.4002 -0.4035
  962MOL0     C26871   9.437   1.675   9.581 -0.0925 -0.1308  0.4806
  962MOL0     C26872   9.570   1.619   9.600 -0.1144  0.1201 -0.4561
  962MOL0     C26873   9.567   1.509   9.709  0.1053 -0.3291  0.5715
  962MOL0     C26874   9.476   1.389   9.677  0.3960 -0.0714 -0.2441
  962MOL0     C26875   9.534   1.306   9.560  0.0631  0.5250  0.7970
  962MOL0     O26876   9.671   1.268   9.576  0.4973  0.1548 -0.3833
  962MOL0     C26877   9.733   1.192   9.492 -0.3180  0.8986  0.5264
  962MOL0     C26878   9.870   1.192   9.512  0.1080 -0.4275 -0.3556
  962MOL0     C26879   9.954   1.110   9.438  0.3715 -0.0992  0.1145
  962MOL0     C26880   9.904   1.021   9.349 -0.4509 -0.1307  0.7370
  962MOL0     C26881   9.991   0.926   9.280  1.0517  0.2892  0.3378
  962MOL0     O26882   9.924   0.831   9.202  0.4519 -0.4182  0.2960
  962MOL0     C26883   9.987   0.759   9.103  0.0726 -0.1128  0.8030
  962MOL0     C26884   9.982   0.618   9.103  0.3843 -0.4846 -0.1572
  962MOL0     C26885  10.042   0.537   9.003  0.7932 -0.6368 -1.4802
  962MOL0     C26886  10.116   0.607   8.904  0.1282  0.2794  0.8243
  962MOL0     O26887  10.172   0.533   8.803  0.2121  0.5945 -0.0673
  962MOL0     C26888  10.101   0.533   8.677  1.4910  0.0356 -0.2696
  962MOL0     C26889  10.133   0.406   8.597  0.4597 -0.6379 -0.6836
  962MOL0     C26890  10.016   0.299   8.596 -1.2342  0.2988  0.4822
  962MOL0     C26891  10.045   0.206   8.479 -0.2812  0.2669 -0.6395
  962MOL0     C26892   9.951   0.081   8.495 -0.3125  0.6032  0.2497
  962MOL0     C26893   9.958  -0.032   8.389  0.3515 -0.3489 -0.0169
  962MOL0     C26894   9.856  -0.139   8.390  0.5208  0.5307  0.0355
  962MOL0     C26895   9.705  -0.101   8.348  1.0051 -0.4820  0.0444
  962MOL0    Cl26896   9.709  -0.080   8.180 -0.4466 -0.0323  0.0892
  962MOL0     C26897  10.125   0.747   8.901 -0.3032  0.1549  0.5358
  962MOL0     C26898  10.059   0.826   9.003  0.4598 -0.0271  0.7542
  962MOL0     O26899  10.113   0.939   9.292  0.3396 -0.9431  0.1131
  962MOL0     C26900   9.767   1.021   9.327 -0.9716 -0.0811  0.1175
  962MOL0     C26901   9.678   1.096   9.406 -0.1536  0.6872 -0.0530
  962MOL0     N26902   9.379   1.697   9.455  1.1461  0.2112 -0.0346
  962MOL0     N26903   9.253   1.700   9.476  0.6678 -0.4949 -0.9466
  962MOL0     C26904   8.713   1.383  10.532  0.3394 -0.6145 -0.0136
  962MOL0     C26905   8.632   1.434  10.632  0.3975 -0.0754  0.2862
  962MOL0     C26906   8.326   1.457  10.970 -0.0110 -0.1618 -0.1231
  962MOL0     C26907   8.324   1.442  11.113  0.6008 -0.1315  0.4110
  962MOL0     C26908   8.256   1.535  11.191  0.0177 -0.0474  0.5513
  962MOL0     C26909   8.189   1.640  11.118  0.2697 -0.3494 -1.0101
  962MOL0     O26910   8.121   1.742  11.177 -0.0078 -0.9477 -0.5112
  962MOL0     C26911   8.101   1.758  11.317  0.4458  0.2087 -0.3309
  962MOL0     C26912   8.043   1.892  11.336  0.0845  0.6442  0.2630
  962MOL0     C26913   7.889   1.908  11.336 -0.0084  0.5872  0.5531
  962MOL0     C26914   7.853   2.049  11.352 -0.6212  1.1729 -0.3824
  962MOL0     C26915   7.830   2.116  11.221 -0.1819 -0.4464  0.1341
  962MOL0     C26916   7.814   2.173  11.112  0.5341 -0.2295  0.3851
  962MOL0     C26917   8.196   1.652  10.975  0.2619  0.7089  0.0776
  962MOL0     C26918   8.261   1.552  10.902 -0.4423 -0.7297 -0.5467
  962MOL0     H26919   8.549   1.143  10.781  1.6689 -1.0972  0.6784
  962MOL0     H26920   8.717   1.059  10.620  0.7210  0.0168 -0.6556
  962MOL0     H26921   8.980   1.241  10.269 -1.0797 -1.4073 -2.1236
  962MOL0     H26922   8.941   1.375  10.367  0.3554 -1.5855  0.4276
  962MOL0     H26923   8.760   1.451  10.250  0.7224  0.1845  0.5187
  962MOL0     H26924   8.731   1.289  10.181 -1.5575  2.2131 -1.4353
  962MOL0     H26925   8.820   1.407   9.993  0.9570 -1.4325 -1.8828
  962MOL0     H26926   8.967   1.329  10.069 -2.3912 -1.8084 -1.1285
  962MOL0     H26927   8.866   1.607  10.130  1.2664  1.1225 -0.7343
  962MOL0     H26928   9.027   1.556  10.160 -0.3871 -1.1114  1.9241
  962MOL0     H26929   9.029   1.704   9.967 -0.6874  1.0930 -2.1280
  962MOL0     H26930   8.895   1.627   9.893 -0.2750  4.3102  0.8734
  962MOL0     H26931   9.050   1.410   9.885  1.6206 -1.3572 -2.2769
  962MOL0     H26932   9.175   1.502   9.925 -0.3493 -2.0917  1.6928
  962MOL0     H26933   9.162   1.485   9.692 -0.9556 -0.3433 -0.5398
  962MOL0     H26934   8.981   1.503   9.686 -1.2297  3.0957 -0.6013
  962MOL0     H26935   9.066   1.754   9.746 -5.6264 -4.9795  2.5544
  962MOL0     H26936   9.013   1.691   9.587 -0.7233  1.2108  0.6339
  962MOL0     H26937   9.340   1.672   9.783  1.2324  2.5948  0.7636
  962MOL0     H26938   9.636   1.696   9.639  1.9678 -1.0295 -1.5149
  962MOL0     H26939   9.612   1.581   9.506 -0.1930 -2.0752  0.3212
  962MOL0     H26940   9.534   1.546   9.806 -1.8011 -3.6126  1.3126
  962MOL0     H26941   9.670   1.483   9.736  0.6704  1.8717  0.7558
  962MOL0     H26942   9.472   1.320   9.762  6.4555 -0.1990  0.3191
  962MOL0     H26943   9.373   1.415   9.650 -0.4510 -2.8103 -0.0099
  962MOL0     H26944   9.512   1.356   9.465 -2.5068  0.9795  1.5455
  962MOL0     H26945   9.459   1.227   9.552 -0.2813  0.9345 -0.0719
  962MOL0     H26946   9.916   1.246   9.593 -2.3120 -0.8246  1.3883
  962MOL0     H26947  10.058   1.100   9.468  0.1326 -2.5373  0.3720
  962MOL0     H26948   9.928   0.573   9.186 -2.9990 -0.9828 -2.4008
  962MOL0     H26949  10.026   0.430   9.014 -2.7346  0.0860  4.2993
  962MOL0     H26950  10.139   0.612   8.611 -0.1799  0.6110 -0.5772
  962MOL0     H26951   9.994   0.548   8.692  0.8623  1.7296 -4.8808
  962MOL0     H26952  10.214   0.360   8.654 -0.9425  0.6137  2.6132
  962MOL0     H26953  10.162   0.430   8.495  1.5074  1.7518  0.1025
  962MOL0     H26954   9.929   0.361   8.571  0.2488  1.7393 -1.4508
  962MOL0     H26955  10.000   0.248   8.691  1.5022 -1.8304 -0.0596
  962MOL0     H26956  10.024   0.255   8.384 -3.4569 -0.4877 -0.4267
  962MOL0     H26957  10.149   0.171   8.483 -0.4310 -0.1036  0.1412
  962MOL0     H26958   9.848   0.118   8.493 -0.5067  0.0768 -1.8568
  962MOL0     H26959   9.960   0.031   8.591  1.0708 -2.2910 -1.2787
  962MOL0     H26960  10.053  -0.085   8.378  1.6499  1.1450  2.9153
  962MOL0     H26961   9.941   0.015   8.291 -4.0635  0.8042  1.0973
  962MOL0     H26962   9.880  -0.212   8.312 -0.1734  0.5731 -0.2206
  962MOL0     H26963   9.849  -0.182   8.490 -2.0965  1.5330  0.3724
  962MOL0     H26964   9.674  -0.009   8.398  0.6836 -2.5373  4.0095
  962MOL0     H26965   9.619  -0.168   8.363 -1.9021  2.0960 -3.3204
  962MOL0     H26966  10.181   0.781   8.814 -0.7647 -1.7625 -0.5806
  962MOL0     H26967  10.069   0.933   8.992  0.5490 -0.0567  0.5340
  962MOL0     H26968   9.714   0.954   9.261  0.3186  1.7155 -2.9172
  962MOL0     H26969   9.572   1.074   9.400  0.0906 -0.1997 -1.5140
  962MOL0     H26970   8.745   1.457  10.460  0.8738 -0.9604 -0.1388
  962MOL0     H26971   8.620   1.542  10.638  3.4433  0.4922 -1.5627
  962MOL0     H26972   8.377   1.363  11.166  1.3559  1.4948  2.2107
  962MOL0     H26973   8.244   1.533  11.298  0.2667 -0.2193  0.5784
  962MOL0     H26974   8.197   1.755  11.368 -0.2112  1.4693  1.0688
  962MOL0     H26975   8.034   1.680  11.354  0.5848  0.4721  0.4856
  962MOL0     H26976   8.080   1.938  11.429  1.3810  4.8345 -2.0472
  962MOL0     H26977   8.083   1.955  11.256  1.3959  0.0942  0.4576
  962MOL0     H26978   7.842   1.842  11.409  0.6102  1.8490  2.1461
  962MOL0     H26979   7.835   1.877  11.246 -1.1144  0.0433  1.3757
  962MOL0     H26980   7.762   2.045  11.414 -1.3642 -5.4908 -1.1352
  962MOL0     H26981   7.930   2.098  11.412  0.7658 -0.2545 -0.9235
  962MOL0     H26982   7.799   2.216  11.015 -0.8541 -0.1319  0.6194
  962MOL0     H26983   8.141   1.734  10.929 -3.0723 -1.6193 -0.4589
  962MOL0     H26984   8.291   1.569  10.799  0.0667 -0.1010 -0.3029
  963MOL0     O26985   2.083   2.782   5.002  0.1421 -0.1235 -0.9794
  963MOL0     C26986   1.976   2.832   4.982  0.1003  0.5869 -0.0911
  963MOL0     O26987   1.953   2.960   4.927 -0.0252  0.4897  0.5749
  963MOL0     C26988   2.053   3.043   4.883  0.1077  0.0098 -0.1010
  963MOL0     C26989   2.016   3.171   4.850 -0.3061 -0.7251  1.1093
  963MOL0     C26990   2.104   3.268   4.793  0.4213 -0.4239 -0.2356
  963MOL0     C26991   2.238   3.238   4.764  0.5421  0.4708  0.1851
  963MOL0     O26992   2.333   3.325   4.711 -0.1515  0.2155  1.1370
  963MOL0     C26993   2.306   3.453   4.666  0.6658  1.2501 -0.9330
  963MOL0     C26994   2.305   3.553   4.780  1.0024  0.0078  0.6084
  963MOL0     C26995   2.188   3.644   4.779 -0.0700  0.5952  0.7957
  963MOL0     C26996   2.220   3.774   4.848  0.2757 -0.8742 -0.0108
  963MOL0     C26997   2.222   3.758   5.004  0.1706  0.1550  0.4893
  963MOL0     C26998   2.239   3.894   5.066  0.1283 -0.1685  0.2785
  963MOL0     C26999   2.223   3.879   5.230 -0.4933  0.3695  0.8466
  963MOL0     C27000   2.221   4.013   5.307 -0.3044 -0.3809  0.4611
  963MOL0     N27001   2.082   4.072   5.319  0.0582  0.7879  0.4616
  963MOL0     C27002   1.980   4.001   5.380 -0.3178  0.4624  0.7305
  963MOL0     C27003   1.884   4.094   5.398 -0.1170 -0.2998 -0.3728
  963MOL0     C27004   1.748   4.053   5.434  0.8853  0.5138 -0.0509
  963MOL0     C27005   1.653   4.140   5.348  0.6373  0.3579  0.2310
  963MOL0     C27006   1.516   4.082   5.346 -0.1824  0.2377 -0.3871
  963MOL0     C27007   1.486   3.968   5.243  0.2988 -1.1805 -0.5840
  963MOL0     O27008   1.351   3.923   5.265 -0.0159 -0.5584 -0.5158
  963MOL0     C27009   1.230   3.988   5.243  0.2947  0.2030 -0.4264
  963MOL0     C27010   1.212   4.081   5.137 -0.5950  0.7713 -0.2004
  963MOL0     C27011   1.096   4.157   5.129  0.0658 -0.1677  0.0746
  963MOL0     C27012   0.986   4.130   5.218  0.2244 -0.5765 -0.6021
  963MOL0     C27013   0.858   4.205   5.208 -0.0676 -0.0963 -0.0739
  963MOL0     O27014   0.755   4.162   5.290  0.5571 -0.4552 -0.9805
  963MOL0     C27015   0.628   4.209   5.292 -0.1000  0.3223  0.2443
  963MOL0     C27016   0.538   4.158   5.387 -0.4240  0.5029  0.2265
  963MOL0     C27017   0.404   4.194   5.372  0.1428 -0.3999 -0.5256
  963MOL0     C27018   0.349   4.269   5.264  0.1819  0.5242  0.8672
  963MOL0     O27019   0.215   4.273   5.242 -0.9185  0.5006  0.0203
  963MOL0     C27020   0.156   4.180   5.153  0.0203 -0.8351  0.3072
  963MOL0     C27021   0.074   4.070   5.218  0.2329 -0.2077 -0.0533
  963MOL0     C27022   0.026   3.968   5.113 -0.2356 -1.2150  0.6662
  963MOL0     C27023   0.120   3.839   5.106  1.3213  0.1054  1.4083
  963MOL0     C27024   0.048   3.733   5.012  0.6894 -0.2964  0.5217
  963MOL0     C27025   0.127   3.607   4.984 -0.4117 -1.2475 -0.3716
  963MOL0     C27026   0.049   3.529   4.885 -0.2679 -0.2062 -0.1297
  963MOL0     C27027   0.108   3.396   4.857  1.3626 -0.4748 -0.2027
  963MOL0    Cl27028   0.273   3.396   4.795 -0.8876  0.5080  0.2371
  963MOL0     C27029   0.439   4.313   5.174 -1.4156 -0.0458  0.7432
  963MOL0     C27030   0.583   4.299   5.190 -0.5675  0.5464 -1.4215
  963MOL0     O27031   0.863   4.296   5.127 -0.2510 -0.1989  0.4825
  963MOL0     C27032   1.002   4.032   5.316  0.3294 -0.6407  0.3434
  963MOL0     C27033   1.120   3.961   5.329  1.1592  0.8938  0.9829
  963MOL0     N27034   1.930   4.226   5.371 -0.4145 -0.4534  0.2772
  963MOL0     N27035   2.046   4.206   5.323 -0.7533  0.3669 -0.3653
  963MOL0     C27036   2.280   3.107   4.788 -0.1939  0.0623 -0.5213
  963MOL0     C27037   2.184   3.015   4.838  0.5950  0.2229 -0.4833
  963MOL0     C27038   1.846   2.769   5.020  0.3256  0.4120 -0.5287
  963MOL0     C27039   1.844   2.629   5.057 -0.4507  0.2156 -1.2027
  963MOL0     C27040   1.722   2.571   5.108  0.2089  0.9772 -0.2625
  963MOL0     C27041   1.597   2.637   5.097  0.0086  0.5617  1.0615
  963MOL0     O27042   1.476   2.573   5.123 -0.2602 -0.3373 -0.0801
  963MOL0     C27043   1.468   2.452   5.202  0.1548 -1.1043 -0.4664
  963MOL0     C27044   1.323   2.428   5.250  0.3294 -0.6008  1.0597
  963MOL0     C27045   1.234   2.334   5.159  0.3678 -0.0343 -0.5419
  963MOL0     C27046   1.111   2.278   5.238 -0.2343  0.2208 -0.3317
  963MOL0     C27047   1.016   2.388   5.278  0.7253 -1.2766 -1.0504
  963MOL0     C27048   0.942   2.479   5.295 -0.0992 -1.5986  0.0090
  963MOL0     C27049   1.594   2.769   5.050 -0.4134 -0.5169  0.2531
  963MOL0     C27050   1.720   2.828   5.021  0.5519 -0.4970  0.1454
  963MOL0     H27051   1.913   3.184   4.883 -0.2113 -0.7039  1.4000
  963MOL0     H27052   2.083   3.374   4.780  1.2917 -0.1843  0.2150
  963MOL0     H27053   2.222   3.444   4.597  0.2730  1.1213 -0.4359
  963MOL0     H27054   2.387   3.482   4.597  0.3493  0.7184 -1.5383
  963MOL0     H27055   2.394   3.612   4.758 -0.4940  1.6812 -1.3418
  963MOL0     H27056   2.326   3.507   4.877  2.7446 -0.6865 -0.0705
  963MOL0     H27057   2.099   3.593   4.818 -0.5947  1.2059  0.4123
  963MOL0     H27058   2.176   3.668   4.673  1.7847  2.5661  0.9574
  963MOL0     H27059   2.308   3.821   4.803 -2.0187  2.0918 -1.8255
  963MOL0     H27060   2.141   3.846   4.823 -0.3859 -1.5505  0.0997
  963MOL0     H27061   2.312   3.703   5.034  1.0586  1.1739 -0.2130
  963MOL0     H27062   2.130   3.717   5.046 -0.4679  1.8540  0.7978
  963MOL0     H27063   2.173   3.972   5.028  2.9414  2.8875  1.1568
  963MOL0     H27064   2.339   3.927   5.038  0.2360 -1.2265 -0.6559
  963MOL0     H27065   2.149   3.805   5.261 -1.0907  0.4140 -0.4313
  963MOL0     H27066   2.315   3.833   5.268  0.6904  0.7114 -1.4295
  963MOL0     H27067   2.294   4.086   5.271  0.5614 -1.8728 -0.9461
  963MOL0     H27068   2.246   3.988   5.411 -2.0128 -2.7389  0.3941
  963MOL0     H27069   1.975   3.893   5.389 -0.1673  0.4252  0.4053
  963MOL0     H27070   1.729   4.072   5.540 -1.9229  0.1220 -0.3926
  963MOL0     H27071   1.740   3.944   5.425  1.3464  0.5486 -0.9556
  963MOL0     H27072   1.681   4.160   5.244 -1.7136  1.8875 -0.1861
  963MOL0     H27073   1.667   4.236   5.398  1.5079  0.9975 -1.1766
  963MOL0     H27074   1.495   4.043   5.446 -0.4569  0.0399 -0.5185
  963MOL0     H27075   1.452   4.170   5.337  1.1179  1.2539 -0.0718
  963MOL0     H27076   1.548   3.880   5.261 -0.5398 -1.2483  2.3994
  963MOL0     H27077   1.509   4.010   5.144 -1.4514 -1.3090 -1.0693
  963MOL0     H27078   1.297   4.099   5.073 -0.9456 -2.8958 -1.9956
  963MOL0     H27079   1.100   4.225   5.045  1.9776 -0.1458  0.1438
  963MOL0     H27080   0.581   4.088   5.458 -1.2611  0.8745  1.1256
  963MOL0     H27081   0.324   4.158   5.437 -0.8122  0.9232 -0.9248
  963MOL0     H27082   0.234   4.133   5.093  2.8899  0.7287  2.5478
  963MOL0     H27083   0.098   4.232   5.076 -1.1573 -2.6096 -0.0734
  963MOL0     H27084   0.001   4.120   5.283  1.2441 -0.3020  1.1893
  963MOL0     H27085   0.146   4.032   5.290  0.2668 -0.3162 -0.1441
  963MOL0     H27086   0.025   4.009   5.012  1.0158  0.4683  1.2792
  963MOL0     H27087  -0.071   3.939   5.154 -0.9468  2.4305  1.9276
  963MOL0     H27088   0.218   3.865   5.066  1.4275  2.7638  3.1992
  963MOL0     H27089   0.138   3.807   5.209 -0.2911  4.6708  3.4022
  963MOL0     H27090   0.027   3.789   4.921  1.3908  0.4659  0.8211
  963MOL0     H27091  -0.049   3.710   5.059 -0.8213  1.4938 -1.5190
  963MOL0     H27092   0.149   3.556   5.078 -0.2828  1.1215  0.9640
  963MOL0     H27093   0.224   3.635   4.942 -0.2879 -3.8832 -2.0092
  963MOL0     H27094  -0.054   3.531   4.919 -0.8709  1.9013 -1.8379
  963MOL0     H27095   0.063   3.587   4.794 -2.2521 -0.2786 -0.5177
  963MOL0     H27096   0.038   3.347   4.790 -0.5298  2.3409 -0.4838
  963MOL0     H27097   0.105   3.338   4.950  3.6860 -1.1829 -0.5136
  963MOL0     H27098   0.409   4.346   5.076  0.5731 -0.4547 -0.0504
  963MOL0     H27099   0.640   4.321   5.100  1.4066 -1.2861 -0.7232
  963MOL0     H27100   0.918   4.017   5.384 -0.3840  2.8749  0.4217
  963MOL0     H27101   1.129   3.883   5.404 -0.0647  0.7487  0.9926
  963MOL0     H27102   2.383   3.083   4.761  0.5682  0.4288  1.8557
  963MOL0     H27103   2.213   2.912   4.855 -0.3608 -0.4218 -2.4958
  963MOL0     H27104   1.930   2.563   5.061 -1.8508 -1.7953 -2.6354
  963MOL0     H27105   1.713   2.465   5.128  1.1892  0.4106 -2.4505
  963MOL0     H27106   1.531   2.454   5.291 -0.0429 -3.7046 -0.2044
  963MOL0     H27107   1.503   2.369   5.140  1.6420 -0.5838 -0.3649
  963MOL0     H27108   1.329   2.377   5.347  1.5393  1.6776  2.2768
  963MOL0     H27109   1.266   2.520   5.264  0.3181 -0.1171 -1.6059
  963MOL0     H27110   1.293   2.245   5.138  2.1112  1.4563 -2.4172
  963MOL0     H27111   1.205   2.381   5.064  1.8219 -3.0656 -2.6246
  963MOL0     H27112   1.070   2.200   5.173  1.2426 -1.6539  0.8674
  963MOL0     H27113   1.148   2.224   5.326 -0.4808  1.8851  0.8323
  963MOL0     H27114   0.873   2.559   5.311 -1.4136 -2.2966 -1.7321
  963MOL0     H27115   1.503   2.819   5.018 -1.4353 -1.3857  1.6935
  963MOL0     H27116   1.716   2.929   4.982 -0.3151  0.1397  1.7894
  964MOL0     O27117   0.038   0.969   8.663  0.4452  0.3173  0.5903
  964MOL0     C27118   0.105   0.891   8.587  0.8036  0.1288 -0.4390
  964MOL0     O27119   0.135   0.758   8.611 -0.0410 -0.2915  0.1616
  964MOL0     C27120   0.125   0.685   8.726  0.3925 -0.3677 -1.0187
  964MOL0     C27121   0.097   0.740   8.853 -0.8162  0.2438  1.5671
  964MOL0     C27122   0.097   0.662   8.968  0.0872 -0.1679 -0.0113
  964MOL0     C27123   0.130   0.531   8.954  0.1913 -0.1473 -0.4841
  964MOL0     O27124   0.139   0.449   9.066  0.5051  0.5263  0.8338
  964MOL0     C27125   0.010   0.440   9.134 -0.3576  0.5120 -0.4948
  964MOL0     C27126   0.004   0.319   9.232  0.2439 -0.2010  0.5845
  964MOL0     C27127   0.043   0.189   9.162  0.4454 -0.4642 -0.2240
  964MOL0     C27128  -0.014   0.170   9.014  0.8181  0.3391 -0.6636
  964MOL0     C27129   0.060   0.057   8.942  0.3133 -0.3335  0.0669
  964MOL0     C27130   0.031   0.044   8.798 -1.2667 -0.0893 -0.3257
  964MOL0     C27131   0.052  -0.104   8.758 -1.6624 -1.1035 -0.3094
  964MOL0     C27132   0.175  -0.111   8.664 -0.3040 -0.0822  0.8811
  964MOL0     N27133   0.315  -0.125   8.723  0.3388 -0.2529  0.1334
  964MOL0     C27134   0.354  -0.226   8.805  0.2071  0.6438 -0.2870
  964MOL0     C27135   0.474  -0.196   8.850 -0.6850 -1.1138  0.1295
  964MOL0     C27136   0.565  -0.288   8.936 -0.3931  0.0761  0.3404
  964MOL0     C27137   0.682  -0.215   9.003 -0.0351  0.3317  0.7288
  964MOL0     C27138   0.738  -0.296   9.128 -0.2387  0.7584  0.2458
  964MOL0     C27139   0.834  -0.219   9.220 -0.4202  0.4286 -0.3399
  964MOL0     O27140   0.779  -0.223   9.353  0.5359 -0.4080 -0.9340
  964MOL0     C27141   0.871  -0.191   9.448 -0.7194 -0.8003  0.3749
  964MOL0     C27142   0.845  -0.238   9.574 -0.5472 -0.7257 -1.1761
  964MOL0     C27143   0.934  -0.223   9.681  0.1642  0.6849  0.4611
  964MOL0     C27144   1.054  -0.149   9.661  0.5622 -0.4007  0.4720
  964MOL0     C27145   1.152  -0.115   9.769  0.1577 -1.5466  0.1166
  964MOL0     O27146   1.117  -0.182   9.877 -0.1922  0.4666  0.1372
  964MOL0     C27147   1.204  -0.192   9.986 -0.2033  0.3912  0.8977
  964MOL0     C27148   1.330  -0.252   9.970  0.2498 -0.5379 -0.1905
  964MOL0     C27149   1.422  -0.248  10.080  0.0431  1.1169 -0.3255
  964MOL0     C27150   1.385  -0.193  10.203 -0.7377 -0.2669 -0.3381
  964MOL0     O27151   1.482  -0.177  10.297 -0.1767 -0.5645 -0.5954
  964MOL0     C27152   1.458  -0.126  10.428  0.4256 -0.2028  0.6807
  964MOL0     C27153   1.587  -0.115  10.502 -0.2375  0.4601  0.5469
  964MOL0     C27154   1.696  -0.046  10.422 -0.7445  0.0548  1.1815
  964MOL0     C27155   1.813  -0.009  10.516  0.0973 -0.4000  0.2375
  964MOL0     C27156   1.931   0.056  10.434  0.4368  0.6949 -0.2216
  964MOL0     C27157   1.926   0.204  10.409  0.2292  0.6676  0.0104
  964MOL0     C27158   1.935   0.282  10.548  0.8997  1.1255 -0.0836
  964MOL0     C27159   1.937   0.433  10.545 -0.1493  0.0824  0.2252
  964MOL0    Cl27160   1.943   0.513  10.696 -0.1761 -0.2405  0.4085
  964MOL0     C27161   1.256  -0.135  10.223 -0.0544 -0.7724  0.3878
  964MOL0     C27162   1.170  -0.131  10.102 -0.2840 -0.4575 -0.5080
  964MOL0     O27163   1.240  -0.030   9.761 -0.3458 -0.0700 -0.1359
  964MOL0     C27164   1.080  -0.091   9.532  0.0458 -0.1610  0.1590
  964MOL0     C27165   0.989  -0.116   9.432 -0.0590 -0.7391 -0.3010
  964MOL0     N27166   0.510  -0.070   8.788 -0.4030  0.5272 -0.7460
  964MOL0     N27167   0.416  -0.029   8.721  0.1861 -0.6686 -0.1116
  964MOL0     C27168   0.146   0.472   8.836 -0.2978 -0.1590  0.1256
  964MOL0     C27169   0.164   0.550   8.718 -0.2107  0.3193  0.0265
  964MOL0     C27170   0.149   0.930   8.447  1.4769  0.4666 -0.2193
  964MOL0     C27171   0.241   0.857   8.375  0.2139  0.3518  0.1506
  964MOL0     C27172   0.282   0.891   8.247 -0.7962 -0.5365 -0.8917
  964MOL0     C27173   0.242   1.002   8.190  0.5294  0.9272  0.5462
  964MOL0     O27174   0.295   1.048   8.069  0.3729 -0.8366 -0.7225
  964MOL0     C27175   0.269   1.182   8.024 -0.4346  0.0424 -0.3402
  964MOL0     C27176   0.357   1.204   7.900  1.0164  0.4697  0.8655
  964MOL0     C27177   0.353   1.094   7.790  0.5755 -0.3115  0.5723
  964MOL0     C27178   0.207   1.092   7.738 -0.2017  0.4720 -0.2447
  964MOL0     C27179   0.191   1.002   7.627 -0.3443 -1.1106  0.2436
  964MOL0     C27180   0.207   0.924   7.534  0.4710  0.1472 -0.6176
  964MOL0     C27181   0.145   1.078   8.261 -0.4783 -0.0936  0.2999
  964MOL0     C27182   0.104   1.045   8.397 -0.6250 -0.6931  0.2967
  964MOL0     H27183   0.077   0.846   8.865 -3.6686 -0.1964  1.2829
  964MOL0     H27184   0.069   0.722   9.053 -0.9266  2.6435 -2.1754
  964MOL0     H27185  -0.070   0.424   9.061 -0.8685  1.0132 -0.0554
  964MOL0     H27186  -0.020   0.537   9.173  0.3923  0.1396  1.0673
  964MOL0     H27187  -0.093   0.319   9.283  0.9892  3.2276  2.2185
  964MOL0     H27188   0.071   0.347   9.313  0.9008  0.1210 -0.0572
  964MOL0     H27189   0.012   0.096   9.209  1.2550 -1.6256 -1.9050
  964MOL0     H27190   0.151   0.193   9.144  0.6389  2.2418  0.9463
  964MOL0     H27191  -0.122   0.155   9.011  1.1460 -2.7053 -0.0719
  964MOL0     H27192   0.013   0.265   8.966  2.5607 -0.6213 -1.6653
  964MOL0     H27193   0.026  -0.037   8.985 -0.6917 -1.6489 -3.3473
  964MOL0     H27194   0.168   0.060   8.961 -0.0967  0.1415  2.7259
  964MOL0     H27195   0.105   0.106   8.747 -0.0719 -0.6969  0.6236
  964MOL0     H27196  -0.071   0.072   8.770 -0.3128  3.2447 -0.8300
  964MOL0     H27197   0.059  -0.178   8.839 -5.7760 -2.8064 -1.2379
  964MOL0     H27198  -0.029  -0.143   8.696 -0.3100  0.3807 -3.2149
  964MOL0     H27199   0.168  -0.020   8.603  1.9113  0.9525  2.0700
  964MOL0     H27200   0.168  -0.194   8.593 -2.9602  0.8471 -0.0835
  964MOL0     H27201   0.286  -0.304   8.836  1.4479  0.5147  2.4977
  964MOL0     H27202   0.611  -0.360   8.867  3.1743 -1.4105  3.8955
  964MOL0     H27203   0.501  -0.346   9.003 -1.3941  0.1595 -0.5128
  964MOL0     H27204   0.654  -0.113   9.033  0.7276  0.7938 -0.1183
  964MOL0     H27205   0.770  -0.212   8.939 -0.8825 -3.5761 -0.8605
  964MOL0     H27206   0.651  -0.341   9.178  0.8869 -2.1395 -0.1848
  964MOL0     H27207   0.788  -0.384   9.088  0.1764  1.2447 -0.3079
  964MOL0     H27208   0.828  -0.117   9.181 -1.8637 -0.3028 -2.1747
  964MOL0     H27209   0.934  -0.262   9.213 -0.6076 -0.2720  0.9088
  964MOL0     H27210   0.752  -0.290   9.593 -0.6593  0.1776  1.0573
  964MOL0     H27211   0.917  -0.284   9.769  1.1181  1.5019  1.2269
  964MOL0     H27212   1.351  -0.292   9.871 -0.6941 -2.5086  0.3474
  964MOL0     H27213   1.521  -0.290  10.066 -0.5409 -0.0844 -1.0586
  964MOL0     H27214   1.386  -0.194  10.473  0.5759 -0.0150  1.2143
  964MOL0     H27215   1.407  -0.029  10.424  0.6840 -0.1031 -0.5242
  964MOL0     H27216   1.628  -0.214  10.527  1.0798  1.6171  3.4567
  964MOL0     H27217   1.568  -0.053  10.590 -1.4644  0.4275  0.3192
  964MOL0     H27218   1.672   0.041  10.360 -1.8931 -1.4984 -0.6851
  964MOL0     H27219   1.733  -0.117  10.346  3.2439  3.4281 -0.4340
  964MOL0     H27220   1.768   0.056  10.591 -1.2845 -1.4583  0.3756
  964MOL0     H27221   1.859  -0.102  10.551  1.8982  0.0303 -0.8628
  964MOL0     H27222   1.935   0.004  10.338 -1.0812  0.9262 -0.4317
  964MOL0     H27223   2.031   0.035  10.475  0.4811  0.0821 -0.6209
  964MOL0     H27224   1.844   0.236  10.344  1.5622 -3.2908 -4.1444
  964MOL0     H27225   2.020   0.218  10.355  0.1073 -1.8457 -0.9735
  964MOL0     H27226   1.860   0.246  10.619  1.5580 -1.6957 -0.7086
  964MOL0     H27227   2.032   0.251  10.586 -0.4229 -0.0916  2.5535
  964MOL0     H27228   1.852   0.470  10.486  0.6093  2.1449  0.3704
  964MOL0     H27229   2.026   0.455  10.486 -0.7946 -1.0479 -1.2537
  964MOL0     H27230   1.219  -0.096  10.317 -2.3793  1.0270 -1.1161
  964MOL0     H27231   1.071  -0.089  10.114 -0.0338  0.0654 -0.2222
  964MOL0     H27232   1.181  -0.053   9.517  0.7848 -0.7801  2.9958
  964MOL0     H27233   1.005  -0.087   9.329  0.8502 -0.5571 -0.1217
  964MOL0     H27234   0.175   0.368   8.829 -0.3290 -0.0770 -1.7684
  964MOL0     H27235   0.189   0.499   8.626 -2.1684 -2.1997  0.7611
  964MOL0     H27236   0.267   0.765   8.428 -0.7384  0.2400  0.4315
  964MOL0     H27237   0.354   0.828   8.197  0.2018  0.2166 -0.4458
  964MOL0     H27238   0.304   1.248   8.104 -1.3140 -0.9701  0.9286
  964MOL0     H27239   0.162   1.191   8.005  0.0135  0.7745 -2.8262
  964MOL0     H27240   0.346   1.308   7.870  0.1435  0.3929  0.8665
  964MOL0     H27241   0.464   1.205   7.920  0.9906 -2.9170  1.9486
  964MOL0     H27242   0.366   0.997   7.839  4.5753 -0.7356 -1.0237
  964MOL0     H27243   0.426   1.101   7.709 -1.0315 -0.2612 -0.9498
  964MOL0     H27244   0.142   1.056   7.818  0.1719 -0.4071 -0.3211
  964MOL0     H27245   0.167   1.188   7.706 -0.5438  0.2159 -0.6001
  964MOL0     H27246   0.251   0.867   7.455  0.6247  2.4945 -2.3240
  964MOL0     H27247   0.095   1.166   8.221  0.5585 -0.0991 -1.0998
  964MOL0     H27248   0.025   1.094   8.453  0.3059 -1.7872  2.6618
  965MOL0     O27249   9.243   2.413   8.834  0.8679 -0.4684 -0.1920
  965MOL0     C27250   9.168   2.336   8.773  0.5650  0.4492  0.0989
  965MOL0     O27251   9.165   2.311   8.639 -0.1206 -0.3063 -0.6896
  965MOL0     C27252   9.267   2.387   8.576  0.6437  0.9748  0.8562
  965MOL0     C27253   9.298   2.526   8.584 -0.5619 -0.0248  0.0375
  965MOL0     C27254   9.402   2.582   8.508  0.2764 -0.1317 -0.1095
  965MOL0     C27255   9.479   2.502   8.430  0.4476  0.7288  0.0592
  965MOL0     O27256   9.571   2.575   8.373 -0.5919 -0.1750  0.2390
  965MOL0     C27257   9.679   2.514   8.300 -0.0645  0.1745 -0.0463
  965MOL0     C27258   9.748   2.620   8.229 -0.2524 -0.3834  0.1165
  965MOL0     C27259   9.821   2.708   8.336 -0.0749  1.0993 -0.1665
  965MOL0     C27260   9.928   2.793   8.271 -0.1673 -1.0869 -0.0116
  965MOL0     C27261   9.944   2.935   8.329  0.4101  0.5671  0.2516
  965MOL0     C27262  10.001   3.033   8.224 -0.5006  1.4221 -0.4939
  965MOL0     C27263   9.903   3.091   8.119  0.6202  0.8903 -0.2864
  965MOL0     C27264   9.788   3.183   8.183 -0.0465 -0.6459  0.3499
  965MOL0     N27265   9.680   3.190   8.081  0.8493 -0.3789 -0.1194
  965MOL0     C27266   9.595   3.086   8.053  0.3185  0.1554  1.0466
  965MOL0     C27267   9.497   3.138   7.961  0.9494 -0.2276 -0.4626
  965MOL0     C27268   9.373   3.065   7.915 -0.0522  0.2929  0.5881
  965MOL0     C27269   9.288   3.167   7.834  0.6185 -0.0364 -1.0527
  965MOL0     C27270   9.247   3.103   7.704  0.2582 -0.7752 -0.4341
  965MOL0     C27271   9.190   3.203   7.607 -0.0164 -0.2173  0.0533
  965MOL0     O27272   9.067   3.141   7.546  0.2484  0.2452 -0.2330
  965MOL0     C27273   9.016   3.183   7.426 -0.3847  0.0375 -0.4108
  965MOL0     C27274   9.051   3.310   7.375  1.3001 -1.0570  0.1347
  965MOL0     C27275   9.010   3.345   7.242  0.1600  0.1654 -0.1491
  965MOL0     C27276   8.924   3.258   7.168 -0.5298 -0.4709 -0.5761
  965MOL0     C27277   8.884   3.295   7.033  0.2656 -1.1323 -0.4211
  965MOL0     O27278   8.948   3.403   6.977 -0.2458  0.1373  0.5540
  965MOL0     C27279   8.890   3.481   6.875 -0.2906  0.4252 -0.4894
  965MOL0     C27280   8.851   3.440   6.752  0.5558  0.2501 -0.6574
  965MOL0     C27281   8.800   3.530   6.651  0.7649  1.1331  0.4892
  965MOL0     C27282   8.770   3.659   6.686  0.8199  0.1391 -0.2581
  965MOL0     O27283   8.694   3.740   6.608  0.0945  0.0684  0.2344
  965MOL0     C27284   8.706   3.734   6.467 -0.7603  0.2030  0.3912
  965MOL0     C27285   8.605   3.820   6.383  0.5465  0.0685 -0.3149
  965MOL0     C27286   8.656   3.966   6.387 -0.1803 -0.0487  0.8244
  965MOL0     C27287   8.562   4.050   6.296 -0.4546 -0.2048  0.3593
  965MOL0     C27288   8.593   4.202   6.294  0.2179  0.4388 -0.2497
  965MOL0     C27289   8.529   4.272   6.177 -0.2694 -0.1778 -0.3513
  965MOL0     C27290   8.522   4.425   6.168  0.2074 -0.3194  0.0201
  965MOL0     C27291   8.475   4.468   6.031  0.3258 -0.0648  0.8687
  965MOL0    Cl27292   8.607   4.430   5.911  0.3475  0.0113  0.2479
  965MOL0     C27293   8.798   3.700   6.821 -0.4493  0.9531  0.5625
  965MOL0     C27294   8.862   3.613   6.914  0.6495  0.2455 -0.3127
  965MOL0     O27295   8.789   3.238   6.980 -0.7725 -0.6765  0.7784
  965MOL0     C27296   8.886   3.128   7.220 -0.7539  0.5850  0.7103
  965MOL0     C27297   8.936   3.095   7.346  0.4417  0.0838  0.8885
  965MOL0     N27298   9.533   3.272   7.941 -0.4675 -0.5317  0.1397
  965MOL0     N27299   9.644   3.303   8.007 -0.8022  0.2212 -0.1142
  965MOL0     C27300   9.438   2.368   8.407 -0.3450 -0.1190  0.4041
  965MOL0     C27301   9.344   2.314   8.481  0.4163 -0.0729  0.2551
  965MOL0     C27302   9.077   2.241   8.850  0.7953 -0.0897 -0.5758
  965MOL0     C27303   8.993   2.148   8.788 -0.1888  0.8971 -0.1758
  965MOL0     C27304   8.902   2.068   8.855  0.3131 -0.2353  0.8963
  965MOL0     C27305   8.916   2.059   8.993  0.1191  0.5377  0.0442
  965MOL0     O27306   8.840   1.972   9.071 -0.1468  0.0203  0.4567
  965MOL0     C27307   8.743   2.029   9.151 -0.0009 -0.1462  0.8603
  965MOL0     C27308   8.612   2.018   9.074 -0.7905 -0.5227  0.0423
  965MOL0     C27309   8.486   2.058   9.153 -0.0382 -0.4777  0.3763
  965MOL0     C27310   8.444   1.969   9.279  0.2586  0.6160  0.0069
  965MOL0     C27311   8.400   1.830   9.245  0.8942  0.1937  0.7842
  965MOL0     C27312   8.359   1.725   9.184 -0.3286 -0.3365 -0.4532
  965MOL0     C27313   9.000   2.146   9.061 -0.3346  0.5444  0.6275
  965MOL0     C27314   9.072   2.239   8.986 -0.7748 -1.0328 -0.4432
  965MOL0     H27315   9.236   2.596   8.640 -1.2680  0.0955 -0.8476
  965MOL0     H27316   9.424   2.684   8.540  1.3130 -0.8667  1.6757
  965MOL0     H27317   9.628   2.458   8.220 -0.3768  4.1211 -2.8942
  965MOL0     H27318   9.741   2.450   8.364  0.6979 -0.3127 -1.2312
  965MOL0     H27319   9.679   2.680   8.169  0.7198  0.0626 -0.5713
  965MOL0     H27320   9.824   2.577   8.164  0.9586 -1.1024  1.9033
  965MOL0     H27321   9.865   2.640   8.410 -1.5020 -0.8322 -0.9750
  965MOL0     H27322   9.749   2.782   8.372  1.6230  2.6635  0.1045
  965MOL0     H27323  10.031   2.759   8.284  1.5507  3.0252 -1.2789
  965MOL0     H27324   9.901   2.798   8.166  2.8730 -0.5022 -0.8731
  965MOL0     H27325  10.014   2.924   8.413 -0.7482  1.0206  1.3162
  965MOL0     H27326   9.847   2.974   8.360 -0.9175 -2.0943 -0.3266
  965MOL0     H27327  10.076   2.963   8.186 -0.5679  0.6234  0.7800
  965MOL0     H27328  10.057   3.105   8.284  0.0515  2.2510 -1.9605
  965MOL0     H27329   9.959   3.154   8.049  1.3824  1.0338  0.4443
  965MOL0     H27330   9.855   3.011   8.062  2.1609  0.3841 -0.9229
  965MOL0     H27331   9.835   3.281   8.199 -0.2159 -0.8327  2.1102
  965MOL0     H27332   9.746   3.152   8.279 -2.4278  2.4626  0.4880
  965MOL0     H27333   9.591   2.989   8.102  2.0482  0.3928  1.7246
  965MOL0     H27334   9.315   3.026   7.999 -1.1546 -1.2250 -0.8086
  965MOL0     H27335   9.404   2.979   7.854  0.0246  0.0419  0.9803
  965MOL0     H27336   9.335   3.256   7.792 -2.2474  2.3722  0.4908
  965MOL0     H27337   9.208   3.204   7.898  0.9990 -1.7982  0.5193
  965MOL0     H27338   9.335   3.052   7.662  0.9633  1.4952 -1.9394
  965MOL0     H27339   9.171   3.028   7.726 -0.8536  0.9367  1.9887
  965MOL0     H27340   9.265   3.218   7.529  0.5312  1.7931  0.9242
  965MOL0     H27341   9.171   3.303   7.645 -1.0771 -0.8919  1.3921
  965MOL0     H27342   9.115   3.382   7.425  0.7167  0.0398 -0.6591
  965MOL0     H27343   9.046   3.441   7.208  1.0314 -0.0801  0.0468
  965MOL0     H27344   8.873   3.339   6.720  0.2041 -0.1328  0.2731
  965MOL0     H27345   8.781   3.481   6.556  1.1986  2.3306 -0.2398
  965MOL0     H27346   8.690   3.629   6.438  2.4805  0.2737 -2.1363
  965MOL0     H27347   8.808   3.770   6.456 -0.8726  2.1550  4.1463
  965MOL0     H27348   8.500   3.816   6.413  0.4794 -2.4952 -0.6934
  965MOL0     H27349   8.611   3.805   6.275  0.7328  2.7075 -0.7443
  965MOL0     H27350   8.757   3.968   6.345 -1.7006 -1.9645 -3.5016
  965MOL0     H27351   8.665   3.998   6.492 -1.1794 -0.4889  1.0553
  965MOL0     H27352   8.568   4.007   6.196 -2.3747  2.0996 -0.8451
  965MOL0     H27353   8.457   4.032   6.322 -1.0309  0.9413 -1.0449
  965MOL0     H27354   8.699   4.209   6.267  0.3242  0.8563  0.2652
  965MOL0     H27355   8.574   4.248   6.391 -1.3083  3.4013 -1.8245
  965MOL0     H27356   8.428   4.231   6.173 -0.3591 -0.0294  0.2962
  965MOL0     H27357   8.588   4.234   6.093  0.8239  1.4352 -0.3370
  965MOL0     H27358   8.445   4.465   6.234  1.6759  2.1689  0.3645
  965MOL0     H27359   8.620   4.471   6.189  0.6441 -0.4459 -1.6525
  965MOL0     H27360   8.449   4.574   6.030 -0.3822 -0.1928  2.5247
  965MOL0     H27361   8.379   4.418   6.012 -0.1316  0.8156  0.7764
  965MOL0     H27362   8.765   3.794   6.865 -1.6027  2.3768 -2.9818
  965MOL0     H27363   8.864   3.646   7.017 -4.5547 -1.0105  0.4939
  965MOL0     H27364   8.831   3.061   7.154  0.0508  0.1921  0.4345
  965MOL0     H27365   8.896   2.998   7.374 -1.6540  1.0021  1.2565
  965MOL0     H27366   9.491   2.307   8.334  1.2298  2.0133 -0.3430
  965MOL0     H27367   9.328   2.209   8.455  2.6246 -0.6323  0.9919
  965MOL0     H27368   8.988   2.130   8.681  1.6656  0.6069 -0.2482
  965MOL0     H27369   8.835   2.003   8.799  3.7836 -3.1255 -0.2229
  965MOL0     H27370   8.763   2.135   9.174 -0.2589  0.3244 -0.9088
  965MOL0     H27371   8.734   1.984   9.250 -3.0364  2.9431  2.1820
  965MOL0     H27372   8.609   2.077   8.982  0.5920 -1.3092 -0.5416
  965MOL0     H27373   8.596   1.919   9.031 -1.1344  0.4392 -2.1638
  965MOL0     H27374   8.405   2.066   9.081  0.3055 -0.6350 -0.0320
  965MOL0     H27375   8.501   2.152   9.207  1.5861 -1.9949  2.7520
  965MOL0     H27376   8.525   1.954   9.352  0.8387 -0.8087 -0.8964
  965MOL0     H27377   8.370   2.023   9.339  2.6110  2.7266  1.2259
  965MOL0     H27378   8.328   1.641   9.125  1.6985 -0.8008 -0.9627
  965MOL0     H27379   9.005   2.166   9.167 -1.0798 -1.5115  1.0889
  965MOL0     H27380   9.148   2.300   9.035 -2.0057  0.2367 -0.0640
  966MOL0     O27381   8.592   8.550   5.865 -0.4443 -0.3513  0.1826
  966MOL0     C27382   8.688   8.550   5.781  0.2487  0.6795 -0.5624
  966MOL0     O27383   8.676   8.541   5.648  0.2331  1.1701  0.1515
  966MOL0     C27384   8.552   8.547   5.596 -0.0722  0.2161  0.2446
  966MOL0     C27385   8.513   8.670   5.535 -0.3352 -0.2610 -0.3524
  966MOL0     C27386   8.377   8.689   5.493 -0.4656  0.2886  0.6080
  966MOL0     C27387   8.279   8.595   5.510 -0.6103 -0.6506 -0.1074
  966MOL0     O27388   8.156   8.607   5.468 -0.4543 -0.1418  0.9686
  966MOL0     C27389   8.069   8.712   5.532  0.2986 -0.7499  0.4083
  966MOL0     C27390   7.924   8.703   5.486 -0.1968 -0.0452  0.3797
  966MOL0     C27391   7.841   8.812   5.538  0.4970  0.0269 -0.2065
  966MOL0     C27392   7.874   8.955   5.486  0.1826 -0.2624  0.0722
  966MOL0     C27393   7.762   9.029   5.411  0.2515 -0.0256  0.2984
  966MOL0     C27394   7.653   9.075   5.511 -0.0878 -0.7466  0.2261
  966MOL0     C27395   7.518   9.108   5.429 -0.8524  0.4601 -0.3924
  966MOL0     C27396   7.454   8.985   5.357 -0.3091 -0.2899 -0.7232
  966MOL0     N27397   7.339   9.025   5.271  0.7450  0.0459 -1.3075
  966MOL0     C27398   7.348   9.083   5.151  0.3785 -0.4636 -0.4473
  966MOL0     C27399   7.231   9.072   5.084 -0.2190  0.4811 -0.3213
  966MOL0     C27400   7.218   9.109   4.943 -0.1751  0.8309 -0.4477
  966MOL0     C27401   7.087   9.073   4.888  0.2987  0.0792  0.7568
  966MOL0     C27402   7.089   9.072   4.732  0.2110  0.1478  0.5391
  966MOL0     C27403   6.971   8.996   4.670  0.4707 -0.4613 -0.2949
  966MOL0     O27404   6.971   8.969   4.532  0.3461 -0.0826  0.1809
  966MOL0     C27405   6.990   9.082   4.454  0.0516  0.3495  0.0459
  966MOL0     C27406   7.121   9.098   4.398 -0.6507 -0.0919 -0.2823
  966MOL0     C27407   7.162   9.204   4.318  0.1275 -0.2889  0.2200
  966MOL0     C27408   7.067   9.312   4.297 -0.3313 -0.4235  0.0443
  966MOL0     C27409   7.100   9.435   4.238 -0.6142 -0.1598  1.2903
  966MOL0     O27410   7.210   9.428   4.165 -0.8998 -0.5231  0.2635
  966MOL0     C27411   7.273   9.540   4.113  1.2607  0.9731 -0.2895
  966MOL0     C27412   7.206   9.630   4.025 -1.5155  0.1189  0.9517
  966MOL0     C27413   7.273   9.747   3.986  0.4706  0.1834  0.2334
  966MOL0     C27414   7.409   9.769   4.031  0.4952 -0.7287 -0.2935
  966MOL0     O27415   7.457   9.891   3.999  0.0966  0.3620 -0.2432
  966MOL0     C27416   7.585   9.925   4.043 -0.3952 -0.8588 -0.0669
  966MOL0     C27417   7.611  10.071   3.991 -0.0207 -0.4571 -0.1857
  966MOL0     C27418   7.537  10.185   4.069 -0.0263 -0.6825 -0.4562
  966MOL0     C27419   7.536  10.310   3.989  0.7938  0.9753 -0.0313
  966MOL0     C27420   7.533  10.442   4.070 -0.5410 -0.2112 -0.6697
  966MOL0     C27421   7.684  10.478   4.106 -0.3352 -0.1519  0.6267
  966MOL0     C27422   7.769  10.517   3.979  0.3569  0.7349 -0.2260
  966MOL0     C27423   7.858  10.635   4.004  0.2593  0.0663 -0.9864
  966MOL0    Cl27424   7.774  10.803   3.992  0.3592 -0.0135 -0.6280
  966MOL0     C27425   7.473   9.670   4.111  0.5986  0.3765 -0.4295
  966MOL0     C27426   7.405   9.557   4.153 -0.1430 -0.3092 -0.4236
  966MOL0     O27427   7.035   9.537   4.257  0.1467 -0.1271  0.3314
  966MOL0     C27428   6.936   9.289   4.344  0.5891 -0.2844  0.4809
  966MOL0     C27429   6.894   9.180   4.418  0.1016 -0.0145 -1.2132
  966MOL0     N27430   7.142   9.007   5.168 -1.0627 -0.4123 -0.2716
  966MOL0     N27431   7.209   8.978   5.278 -0.1285 -0.4437 -0.1386
  966MOL0     C27432   8.337   8.470   5.554  0.5792 -0.8834  0.0991
  966MOL0     C27433   8.465   8.444   5.593  0.6746  0.4273 -0.4849
  966MOL0     C27434   8.817   8.588   5.836 -0.3114 -0.2267  0.6393
  966MOL0     C27435   8.869   8.549   5.955  0.1397  0.0786 -0.9410
  966MOL0     C27436   8.979   8.619   5.998 -0.1971 -0.4027  0.2110
  966MOL0     C27437   9.058   8.705   5.922 -0.9329 -0.3160 -0.4230
  966MOL0     O27438   9.178   8.744   5.985 -0.0009 -0.5605 -0.2352
  966MOL0     C27439   9.226   8.875   5.955  0.2208 -0.2671  0.7069
  966MOL0     C27440   9.343   8.922   6.047  1.1745  0.4003  0.8141
  966MOL0     C27441   9.322   8.952   6.199  0.2106 -0.4745  0.5789
  966MOL0     C27442   9.240   9.081   6.227 -0.3309 -0.6440  0.3626
  966MOL0     C27443   9.288   9.151   6.352  0.1640  0.9931  0.3298
  966MOL0     C27444   9.313   9.208   6.457  0.2577 -0.5312 -0.2324
  966MOL0     C27445   9.006   8.746   5.803  0.8316 -0.2944  0.5320
  966MOL0     C27446   8.883   8.686   5.761  0.1391 -0.4737 -0.0642
  966MOL0     H27447   8.569   8.763   5.533 -0.4143 -0.1835  0.6761
  966MOL0     H27448   8.343   8.778   5.440 -0.3796 -1.5641 -2.7881
  966MOL0     H27449   8.112   8.810   5.509  0.3670 -1.1134 -1.1663
  966MOL0     H27450   8.067   8.700   5.641 -2.2475  0.3561  0.5522
  966MOL0     H27451   7.876   8.611   5.521 -1.7014  1.0436  1.3109
  966MOL0     H27452   7.928   8.708   5.376 -0.7535 -1.1587  0.2899
  966MOL0     H27453   7.852   8.813   5.647 -1.2947 -1.7795  0.0485
  966MOL0     H27454   7.739   8.776   5.521  0.6768 -1.7633  2.0433
  966MOL0     H27455   7.910   9.022   5.565  1.9567  3.3367 -3.4166
  966MOL0     H27456   7.964   8.957   5.424  1.6041 -1.4103  1.9847
  966MOL0     H27457   7.714   8.974   5.329 -1.8951 -0.5793  1.8334
  966MOL0     H27458   7.804   9.118   5.364  3.2575 -0.4670  1.8962
  966MOL0     H27459   7.682   9.164   5.569  1.1850 -0.1540 -1.2590
  966MOL0     H27460   7.633   8.993   5.581 -4.0370 -2.2685 -2.3981
  966MOL0     H27461   7.443   9.129   5.505 -0.3874  1.3263 -0.1615
  966MOL0     H27462   7.519   9.190   5.356 -2.1715 -1.2559 -2.4485
  966MOL0     H27463   7.415   8.923   5.438  1.5170 -2.5528 -1.4822
  966MOL0     H27464   7.512   8.927   5.285  1.1535  1.3254 -0.9228
  966MOL0     H27465   7.432   9.129   5.099 -1.8813  2.1604 -2.0505
  966MOL0     H27466   7.297   9.052   4.894 -0.4692  1.1240 -1.2836
  966MOL0     H27467   7.250   9.211   4.917  0.8030  0.7035  0.2109
  966MOL0     H27468   7.027   9.161   4.915  1.6408  1.7547 -1.3391
  966MOL0     H27469   7.059   8.971   4.916  2.9921 -1.4365 -1.5863
  966MOL0     H27470   7.089   9.173   4.690 -2.7941 -0.4895 -1.2812
  966MOL0     H27471   7.180   9.021   4.699 -0.0790  1.5493 -2.8266
  966MOL0     H27472   6.881   9.047   4.704  2.5947  0.7610  4.2340
  966MOL0     H27473   6.971   8.901   4.724 -2.2817  0.0087  0.7010
  966MOL0     H27474   7.193   9.019   4.414 -0.6917  0.2101  1.6570
  966MOL0     H27475   7.267   9.205   4.289  0.1661  0.0733  0.3602
  966MOL0     H27476   7.102   9.606   4.002 -0.5600 -1.7274 -1.8484
  966MOL0     H27477   7.216   9.811   3.919 -0.4913 -2.0323 -1.1803
  966MOL0     H27478   7.658   9.860   3.994 -0.0961  1.0756 -2.3671
  966MOL0     H27479   7.582   9.925   4.152 -2.6277 -0.0405 -0.0780
  966MOL0     H27480   7.577  10.093   3.890 -0.1086  3.5226  0.5152
  966MOL0     H27481   7.719  10.092   3.995 -0.2791  0.9255  0.1731
  966MOL0     H27482   7.575  10.198   4.171  0.3705 -1.4648 -0.4936
  966MOL0     H27483   7.430  10.166   4.079 -0.6036  1.8689 -1.2090
  966MOL0     H27484   7.616  10.316   3.915  0.3268  0.0168 -0.6294
  966MOL0     H27485   7.445  10.309   3.927 -1.1631 -2.5710  2.4878
  966MOL0     H27486   7.464  10.434   4.155 -0.3751  0.2636 -0.4884
  966MOL0     H27487   7.492  10.516   4.000  2.2170  2.0364 -0.1020
  966MOL0     H27488   7.733  10.404   4.171  0.6281  0.9354  1.1838
  966MOL0     H27489   7.684  10.562   4.177  2.4470 -1.8518  2.8369
  966MOL0     H27490   7.833  10.432   3.951  2.1841  2.5386 -1.8993
  966MOL0     H27491   7.708  10.538   3.891  1.4373 -0.9797 -1.4760
  966MOL0     H27492   7.941  10.642   3.933 -0.8411  2.6315 -2.1360
  966MOL0     H27493   7.883  10.623   4.110  0.1254  1.4156 -0.7824
  966MOL0     H27494   7.574   9.687   4.146  1.4402  4.0310 -3.8729
  966MOL0     H27495   7.445   9.470   4.204 -0.5527  0.4598  1.2479
  966MOL0     H27496   6.869   9.374   4.333 -1.9228 -1.8164  2.7265
  966MOL0     H27497   6.790   9.173   4.449  0.2486  1.9648 -0.0671
  966MOL0     H27498   8.275   8.381   5.560 -0.8303  0.1807  3.3539
  966MOL0     H27499   8.506   8.349   5.627  0.3783 -0.8825 -3.4404
  966MOL0     H27500   8.821   8.466   6.007 -2.5728  2.0520 -0.0554
  966MOL0     H27501   9.037   8.592   6.085  2.2434  2.4182 -0.3696
  966MOL0     H27502   9.149   8.953   5.959  0.1470 -0.3462  0.8291
  966MOL0     H27503   9.270   8.872   5.855  1.2953  2.8219  0.9742
  966MOL0     H27504   9.416   8.842   6.033  3.3434  2.7187 -2.6055
  966MOL0     H27505   9.382   9.010   5.994  0.5610 -0.9291 -2.0540
  966MOL0     H27506   9.415   8.975   6.252 -0.2053  1.7036  0.4395
  966MOL0     H27507   9.269   8.871   6.251 -1.4559  0.0933 -0.1567
  966MOL0     H27508   9.253   9.153   6.145 -2.2781 -0.1521  0.4447
  966MOL0     H27509   9.135   9.056   6.243 -0.2700 -0.3552  1.2588
  966MOL0     H27510   9.327   9.249   6.555  4.1624 -0.9442 -0.4529
  966MOL0     H27511   9.052   8.825   5.744 -2.2266 -0.8210 -2.9746
  966MOL0     H27512   8.849   8.707   5.660  1.4821  0.0761 -0.4297
  967MOL0     O27513  10.486   6.970   5.188  0.1088 -0.3964  0.4452
  967MOL0     C27514  10.568   7.020   5.269 -0.0771 -0.5162  0.2907
  967MOL0     O27515  10.599   7.156   5.287 -0.2548  0.6698  0.8893
  967MOL0     C27516  10.513   7.245   5.241  0.1463  0.5994 -0.4901
  967MOL0     C27517  10.381   7.235   5.292  0.5646 -0.1935  0.0484
  967MOL0     C27518  10.290   7.345   5.277  0.1822 -0.1753  0.2647
  967MOL0     C27519  10.336   7.452   5.211 -0.3582 -1.2295  1.1075
  967MOL0     O27520  10.252   7.557   5.186  0.6074  0.8097  0.9520
  967MOL0     C27521  10.221   7.574   5.044  0.1577 -0.1060  0.0663
  967MOL0     C27522  10.072   7.571   5.007  0.8249 -1.1314 -0.1290
  967MOL0     C27523   9.992   7.661   5.107  1.8594  0.5074  0.4827
  967MOL0     C27524   9.843   7.639   5.100  0.3954  0.3097  0.4836
  967MOL0     C27525   9.755   7.737   5.187 -0.3796 -0.2590  0.5326
  967MOL0     C27526   9.620   7.748   5.118  1.1467  0.2236 -0.0281
  967MOL0     C27527   9.510   7.787   5.221 -0.9115 -0.2886  0.2279
  967MOL0     C27528   9.442   7.684   5.295 -0.5656  0.8190  0.4407
  967MOL0     N27529   9.523   7.598   5.385  0.1768  0.8975 -0.6505
  967MOL0     C27530   9.561   7.640   5.512  0.3683  0.2956  0.5001
  967MOL0     C27531   9.575   7.523   5.578  0.1859  0.1197  0.0297
  967MOL0     C27532   9.611   7.518   5.724 -1.3065  0.0764 -0.9816
  967MOL0     C27533   9.484   7.473   5.798  0.4601  0.8022 -0.4854
  967MOL0     C27534   9.497   7.505   5.948 -0.2683  0.7178 -0.4287
  967MOL0     C27535   9.587   7.402   6.028 -0.1549  0.7664  0.3075
  967MOL0     O27536   9.625   7.438   6.158 -0.6766  0.0111 -0.5122
  967MOL0     C27537   9.712   7.359   6.212 -0.9513 -0.1036 -0.3341
  967MOL0     C27538   9.703   7.221   6.223 -0.0274  0.6228 -0.3702
  967MOL0     C27539   9.808   7.149   6.287  0.4618 -0.7276 -0.1606
  967MOL0     C27540   9.913   7.219   6.362  1.3431  0.4787  1.1514
  967MOL0     C27541  10.021   7.144   6.426 -0.2043 -0.3993 -0.3226
  967MOL0     O27542  10.115   7.220   6.493  0.0150  0.9763 -0.0994
  967MOL0     C27543  10.231   7.170   6.531 -0.0987 -0.5035 -0.3568
  967MOL0     C27544  10.346   7.234   6.516 -0.1293 -1.0660 -0.0206
  967MOL0     C27545  10.478   7.181   6.547 -0.6987  0.3125  0.6249
  967MOL0     C27546  10.482   7.045   6.598 -0.7520 -0.5356  0.2647
  967MOL0     O27547  10.606   6.987   6.627 -0.1822 -0.3250  0.1060
  967MOL0     C27548  10.630   6.861   6.564 -0.4044  0.3067  0.1499
  967MOL0     C27549  10.779   6.823   6.599  0.1081 -0.4051  0.3001
  967MOL0     C27550  10.876   6.918   6.524 -0.3155 -0.4738  0.6659
  967MOL0     C27551  10.983   6.843   6.435 -0.3243  0.1546 -1.2431
  967MOL0     C27552  11.076   6.946   6.371  0.8099 -0.7849  0.4328
  967MOL0     C27553  11.189   6.895   6.283 -0.4543 -0.1538 -0.3388
  967MOL0     C27554  11.144   6.791   6.182 -0.0298  0.3733  0.6106
  967MOL0     C27555  11.062   6.858   6.079  1.9108  0.6539 -0.1445
  967MOL0    Cl27556  11.047   6.756   5.929  0.2255  0.3127  0.4869
  967MOL0     C27557  10.364   6.983   6.629  0.3701  0.3094 -0.7515
  967MOL0     C27558  10.242   7.045   6.597  0.7344 -0.3062  0.7342
  967MOL0     O27559  10.021   7.026   6.414 -0.1368 -0.1124  0.1117
  967MOL0     C27560   9.908   7.358   6.372 -0.6624  0.5333  0.6503
  967MOL0     C27561   9.808   7.427   6.296 -0.6000 -0.7358 -0.2753
  967MOL0     N27562   9.541   7.418   5.499 -0.3425  0.5323  0.4383
  967MOL0     N27563   9.506   7.457   5.388 -0.2118 -0.0341 -0.0665
  967MOL0     C27564  10.469   7.466   5.168 -0.3087  0.4424 -0.1605
  967MOL0     C27565  10.564   7.369   5.198  0.0155 -0.1616  0.4774
  967MOL0     C27566  10.652   6.919   5.339 -0.1745  0.4929 -0.1717
  967MOL0     C27567  10.763   6.965   5.412  0.7957  0.0562 -0.0467
  967MOL0     C27568  10.866   6.870   5.444 -0.3527 -0.5975 -0.0709
  967MOL0     C27569  10.849   6.734   5.427 -0.0054 -0.1056 -0.6666
  967MOL0     O27570  10.940   6.638   5.464 -0.0432  0.5287  0.1250
  967MOL0     C27571  11.066   6.679   5.524 -0.4288  0.4246  1.4094
  967MOL0     C27572  11.148   6.544   5.528 -0.9904 -0.0487  0.3261
  967MOL0     C27573  11.276   6.553   5.602  0.1123 -0.1141 -0.2132
  967MOL0     C27574  11.387   6.647   5.536  0.2653 -0.2261 -0.3050
  967MOL0     C27575  11.490   6.662   5.642 -0.9290  1.0048 -0.1858
  967MOL0     C27576  11.590   6.677   5.711  0.0603 -0.1352 -1.0302
  967MOL0     C27577  10.729   6.690   5.374 -0.1639  0.9057 -0.9488
  967MOL0     C27578  10.632   6.777   5.345  0.5514  0.7966 -0.1962
  967MOL0     H27579  10.352   7.134   5.321 -0.2279 -0.1076 -0.4055
  967MOL0     H27580  10.186   7.346   5.307  0.5004 -0.1822  1.4377
  967MOL0     H27581  10.273   7.507   4.975  0.6126  0.8619 -0.5418
  967MOL0     H27582  10.246   7.678   5.026  1.6132 -0.2592  1.0521
  967MOL0     H27583  10.036   7.471   4.983  0.7367 -0.3080 -4.1365
  967MOL0     H27584  10.057   7.620   4.910  2.4189 -3.1275 -1.4495
  967MOL0     H27585  10.008   7.766   5.080  0.5548  0.6276  0.0903
  967MOL0     H27586  10.024   7.642   5.210  5.5926 -0.3328 -0.6778
  967MOL0     H27587   9.816   7.658   4.996  1.6061 -0.7085 -0.0364
  967MOL0     H27588   9.827   7.537   5.138  2.4827  0.0305  0.7138
  967MOL0     H27589   9.807   7.833   5.197  2.2973 -0.9902 -3.8905
  967MOL0     H27590   9.758   7.701   5.290 -0.6065  1.7840  1.3070
  967MOL0     H27591   9.593   7.645   5.092  0.8555 -0.8374  3.8680
  967MOL0     H27592   9.624   7.818   5.034 -0.7102 -1.0496 -1.2460
  967MOL0     H27593   9.542   7.860   5.296 -1.8786  0.5273 -0.1183
  967MOL0     H27594   9.442   7.847   5.159  0.4258  0.7198 -0.2924
  967MOL0     H27595   9.405   7.615   5.219  0.8331 -0.5045  0.9371
  967MOL0     H27596   9.353   7.704   5.355 -1.1312 -2.5991  0.9278
  967MOL0     H27597   9.542   7.740   5.551 -0.3278  0.1437  0.5564
  967MOL0     H27598   9.644   7.615   5.762  1.9818 -1.4385  0.4548
  967MOL0     H27599   9.699   7.454   5.739  0.0484  1.6317 -1.9287
  967MOL0     H27600   9.452   7.368   5.797 -0.6165  0.9058  3.6136
  967MOL0     H27601   9.394   7.521   5.757 -1.2157 -0.4297  1.5410
  967MOL0     H27602   9.545   7.601   5.969 -0.8537  0.9414 -0.1015
  967MOL0     H27603   9.397   7.516   5.991 -0.9625 -2.1459 -1.1164
  967MOL0     H27604   9.669   7.383   5.958  0.4546 -2.0844  1.6385
  967MOL0     H27605   9.532   7.309   6.040  4.1275 -2.7529 -3.4788
  967MOL0     H27606   9.612   7.171   6.191  1.3204 -0.6071 -2.5913
  967MOL0     H27607   9.815   7.043   6.267  1.9966 -0.4121 -1.5850
  967MOL0     H27608  10.333   7.338   6.490 -2.2392 -1.2699  0.0658
  967MOL0     H27609  10.571   7.235   6.539 -1.0169  1.2303  2.5362
  967MOL0     H27610  10.619   6.856   6.455  1.3878  0.1760 -0.0618
  967MOL0     H27611  10.563   6.791   6.615 -1.6907  0.9048 -0.6891
  967MOL0     H27612  10.810   6.720   6.583  1.0655 -0.6288  3.0662
  967MOL0     H27613  10.794   6.816   6.708  0.0360 -0.8877  0.2816
  967MOL0     H27614  10.922   6.975   6.605  0.7414  0.5109 -0.5792
  967MOL0     H27615  10.824   6.994   6.464  1.4213 -0.9842 -1.6444
  967MOL0     H27616  11.048   6.785   6.501 -1.9495  1.0429  1.3064
  967MOL0     H27617  10.934   6.771   6.370 -1.9242 -1.0321  1.1424
  967MOL0     H27618  11.127   7.003   6.449  0.3203 -1.3005  1.1479
  967MOL0     H27619  11.012   7.012   6.312  2.0413 -0.4328 -0.5525
  967MOL0     H27620  11.252   6.842   6.355 -1.3037  1.9458  2.1051
  967MOL0     H27621  11.233   6.978   6.228 -0.1121  0.6907  1.1500
  967MOL0     H27622  11.236   6.748   6.142 -1.6884 -1.0928 -1.9051
  967MOL0     H27623  11.090   6.699   6.209 -0.8155  0.4052 -0.7553
  967MOL0     H27624  11.106   6.957   6.066  5.2369 -0.4330  1.8600
  967MOL0     H27625  10.963   6.877   6.122  2.5766 -0.1643  1.8916
  967MOL0     H27626  10.374   6.883   6.670 -0.4590  0.7039  0.4698
  967MOL0     H27627  10.149   6.996   6.627 -1.8643  2.5487 -1.8743
  967MOL0     H27628   9.976   7.415   6.434 -0.9556  0.6099  0.9004
  967MOL0     H27629   9.800   7.534   6.310 -0.9314 -0.8719  0.6027
  967MOL0     H27630  10.496   7.556   5.113 -1.0608 -0.8700 -2.8283
  967MOL0     H27631  10.666   7.382   5.164 -0.5335  0.3877 -1.0694
  967MOL0     H27632  10.791   7.069   5.426 -0.3175  0.1218  2.1057
  967MOL0     H27633  10.955   6.916   5.486 -0.9612 -0.8271  1.5485
  967MOL0     H27634  11.053   6.718   5.625 -2.9446 -0.3844  1.4636
  967MOL0     H27635  11.123   6.750   5.463 -1.6688  1.3145  1.2446
  967MOL0     H27636  11.089   6.460   5.565  0.8741 -1.4646  0.2707
  967MOL0     H27637  11.162   6.526   5.421 -1.6533  1.7856 -0.1035
  967MOL0     H27638  11.326   6.456   5.601 -0.5245 -0.5164  1.9461
  967MOL0     H27639  11.257   6.596   5.701  1.3393  1.0885 -0.4694
  967MOL0     H27640  11.434   6.590   5.456  1.0060  2.0028 -1.5239
  967MOL0     H27641  11.353   6.745   5.501 -1.3639 -1.1312 -1.4291
  967MOL0     H27642  11.674   6.686   5.776  0.7860 -1.9308 -1.6490
  967MOL0     H27643  10.703   6.588   5.352 -1.1057  1.0517 -0.5488
  967MOL0     H27644  10.543   6.746   5.291 -0.3053  3.2509 -0.3150
  968MOL0     O27645   8.460   4.054   3.588  0.4934 -0.2271  0.4254
  968MOL0     C27646   8.548   4.073   3.502  0.6511  0.2656 -0.0049
  968MOL0     O27647   8.584   4.191   3.448 -0.5852  0.0606  0.1501
  968MOL0     C27648   8.561   4.304   3.528  0.3873  1.4887 -0.0784
  968MOL0     C27649   8.483   4.404   3.474 -1.0613 -0.6479 -0.6995
  968MOL0     C27650   8.470   4.528   3.542 -0.0255  0.3451 -0.0225
  968MOL0     C27651   8.502   4.542   3.676  0.2968  1.8109 -0.0458
  968MOL0     O27652   8.467   4.654   3.749  0.1482  0.9739  0.4991
  968MOL0     C27653   8.448   4.648   3.890 -0.6270  0.8755  0.4217
  968MOL0     C27654   8.374   4.781   3.928 -0.4254  0.4754 -0.6874
  968MOL0     C27655   8.474   4.899   3.961 -1.7677  0.4901  0.6345
  968MOL0     C27656   8.393   5.026   3.987  0.1496 -0.5349  0.5619
  968MOL0     C27657   8.478   5.120   4.079 -0.2380 -0.0889  0.3393
  968MOL0     C27658   8.402   5.253   4.095 -0.6033 -0.5233 -0.4108
  968MOL0     C27659   8.477   5.337   4.200 -0.0222 -0.1128  1.1250
  968MOL0     C27660   8.388   5.450   4.256  0.1085 -0.0050  1.8640
  968MOL0     N27661   8.352   5.530   4.148 -0.8871  0.4641  0.3047
  968MOL0     C27662   8.420   5.639   4.105 -0.0175 -0.0366  0.5124
  968MOL0     C27663   8.338   5.686   4.002 -0.1248  0.0184 -0.4696
  968MOL0     C27664   8.395   5.790   3.907 -0.6707 -0.6075  0.0026
  968MOL0     C27665   8.465   5.710   3.791 -1.4338  0.4613  0.2812
  968MOL0     C27666   8.524   5.816   3.687  0.0673  0.1406 -1.0623
  968MOL0     C27667   8.556   5.751   3.547 -0.0568  0.7474  0.1248
  968MOL0     O27668   8.595   5.848   3.455  0.2675 -0.4679  0.7472
  968MOL0     C27669   8.722   5.902   3.480 -0.1669 -0.5082  0.6877
  968MOL0     C27670   8.818   5.869   3.576  0.3220 -0.5514 -0.2682
  968MOL0     C27671   8.945   5.934   3.587  1.1865  0.3747 -0.1172
  968MOL0     C27672   8.976   6.033   3.498 -0.1752 -0.0053  0.6973
  968MOL0     C27673   9.124   6.085   3.490  0.6256 -0.4245  0.0622
  968MOL0     O27674   9.156   6.146   3.378 -0.2741 -0.2940  0.4001
  968MOL0     C27675   9.279   6.213   3.353 -0.1925 -0.4813  0.3465
  968MOL0     C27676   9.397   6.192   3.418  0.4329  0.1290 -0.5046
  968MOL0     C27677   9.511   6.263   3.381 -0.2030 -0.1467 -0.3227
  968MOL0     C27678   9.502   6.374   3.282 -0.0685 -0.4220  0.0281
  968MOL0     O27679   9.604   6.457   3.255  0.0938 -0.4010 -0.0956
  968MOL0     C27680   9.668   6.414   3.141  0.0109 -0.7384  0.6012
  968MOL0     C27681   9.789   6.500   3.117 -0.2242 -0.1656 -0.1310
  968MOL0     C27682   9.887   6.511   3.239  1.3779  0.3149 -0.3949
  968MOL0     C27683   9.999   6.599   3.202 -0.0560  0.3166  0.2663
  968MOL0     C27684  10.085   6.639   3.321  0.5210  0.9918 -0.0876
  968MOL0     C27685  10.231   6.686   3.278 -0.7059  0.7387  0.6289
  968MOL0     C27686  10.215   6.809   3.182  0.8961  1.0133  0.2249
  968MOL0     C27687  10.342   6.874   3.133 -0.4343  0.2109 -0.6332
  968MOL0    Cl27688  10.399   6.984   3.264  0.2008 -0.0219  0.4016
  968MOL0     C27689   9.376   6.377   3.213  0.7813  0.0629  0.5998
  968MOL0     C27690   9.266   6.310   3.256  0.8176 -0.8386  0.6054
  968MOL0     O27691   9.190   6.081   3.592 -0.0069 -0.1260  0.1559
  968MOL0     C27692   8.880   6.071   3.414 -1.1299 -0.0540 -0.0834
  968MOL0     C27693   8.757   6.020   3.407 -0.1675  1.2080  1.4059
  968MOL0     N27694   8.219   5.615   3.995  0.5973 -0.8032 -0.6781
  968MOL0     N27695   8.234   5.520   4.082 -0.3337  0.1368  0.5194
  968MOL0     C27696   8.571   4.441   3.739  0.1650  0.0436 -0.2142
  968MOL0     C27697   8.603   4.327   3.665  0.4461 -0.5463  0.1007
  968MOL0     C27698   8.590   3.946   3.442 -0.2639  0.2489 -0.4073
  968MOL0     C27699   8.572   3.820   3.505 -0.5736  0.4545 -0.3277
  968MOL0     C27700   8.619   3.701   3.441 -0.3655 -0.6077  0.5470
  968MOL0     C27701   8.683   3.709   3.312 -0.1498 -0.3562 -0.1306
  968MOL0     O27702   8.713   3.599   3.238 -0.6459 -0.0802 -0.0529
  968MOL0     C27703   8.726   3.474   3.310 -0.0500 -1.0118 -0.1292
  968MOL0     C27704   8.730   3.359   3.215  0.0643  0.4648  0.2453
  968MOL0     C27705   8.602   3.345   3.118 -0.4068  0.0192 -0.8901
  968MOL0     C27706   8.582   3.195   3.086 -0.1191 -0.2576 -0.1215
  968MOL0     C27707   8.535   3.124   3.194  0.0423 -0.5443  0.1856
  968MOL0     C27708   8.486   3.058   3.280 -0.9480 -0.5159  1.0171
  968MOL0     C27709   8.700   3.839   3.251 -0.9320 -0.5036  0.6573
  968MOL0     C27710   8.650   3.951   3.317 -0.6728  0.3132  0.2754
  968MOL0     H27711   8.434   4.392   3.377 -2.5337 -0.4823 -0.0091
  968MOL0     H27712   8.420   4.611   3.493 -0.2576 -1.4091 -3.0040
  968MOL0     H27713   8.531   4.619   3.954 -0.4877 -0.7124 -0.4536
  968MOL0     H27714   8.362   4.584   3.912 -0.0118 -0.2346 -0.3238
  968MOL0     H27715   8.306   4.763   4.011  3.0975 -0.7216  2.1877
  968MOL0     H27716   8.311   4.823   3.849 -0.4855  0.6410 -0.5536
  968MOL0     H27717   8.546   4.923   3.882  1.0305  0.9302  3.1310
  968MOL0     H27718   8.548   4.880   4.039  2.8925 -1.5815 -3.7445
  968MOL0     H27719   8.377   5.064   3.886  1.6820  1.2971  0.9560
  968MOL0     H27720   8.299   4.986   4.026  0.5793 -1.9844  0.1949
  968MOL0     H27721   8.570   5.137   4.023 -1.5054 -0.7646 -2.1148
  968MOL0     H27722   8.497   5.079   4.179 -1.4699 -0.4231  0.4578
  968MOL0     H27723   8.298   5.237   4.124 -0.8130  0.1655 -0.7651
  968MOL0     H27724   8.397   5.310   4.002  0.0546  0.3318  0.0623
  968MOL0     H27725   8.503   5.277   4.288 -0.0777 -1.1306  0.4615
  968MOL0     H27726   8.566   5.374   4.149 -2.6112  5.8463  0.1967
  968MOL0     H27727   8.453   5.505   4.326  0.5642 -0.4679  1.8047
  968MOL0     H27728   8.298   5.409   4.304  1.1849  0.2096  4.2180
  968MOL0     H27729   8.519   5.677   4.131 -0.3769  1.1671  0.2051
  968MOL0     H27730   8.463   5.863   3.951 -2.1186  1.2956 -0.7907
  968MOL0     H27731   8.309   5.848   3.871 -1.1273 -0.5261  1.1910
  968MOL0     H27732   8.393   5.640   3.747 -1.3328  0.0526  0.7572
  968MOL0     H27733   8.554   5.655   3.824 -1.0053  1.4245  0.7631
  968MOL0     H27734   8.447   5.891   3.666 -1.5520 -1.1293  0.1218
  968MOL0     H27735   8.609   5.866   3.735 -1.2183 -0.5888  2.2256
  968MOL0     H27736   8.456   5.711   3.527 -0.2221  0.3499  1.6056
  968MOL0     H27737   8.620   5.663   3.537  0.7181  1.4089 -0.8684
  968MOL0     H27738   8.808   5.784   3.642  1.2814  1.5449  2.7952
  968MOL0     H27739   9.013   5.909   3.667  0.5379 -1.2583 -0.0365
  968MOL0     H27740   9.411   6.115   3.493  5.6049 -0.1359 -1.4202
  968MOL0     H27741   9.607   6.245   3.427 -0.2713  1.7567  0.6610
  968MOL0     H27742   9.604   6.431   3.054  0.4511  2.0565  0.7461
  968MOL0     H27743   9.691   6.308   3.153  1.4157 -0.2735  2.4392
  968MOL0     H27744   9.758   6.602   3.090 -1.2061  0.2246  2.2543
  968MOL0     H27745   9.831   6.448   3.030 -0.6972 -1.6104  0.4763
  968MOL0     H27746   9.923   6.413   3.269  3.9688  0.9613 -1.1961
  968MOL0     H27747   9.828   6.558   3.319 -2.0524 -0.5860 -2.1611
  968MOL0     H27748  10.068   6.560   3.126  1.0059  0.6709  1.0311
  968MOL0     H27749   9.966   6.691   3.153 -1.4220  0.0691  0.6875
  968MOL0     H27750  10.078   6.555   3.391  0.9929  1.6688  0.7972
  968MOL0     H27751  10.039   6.724   3.371 -2.8088 -2.2296  2.8721
  968MOL0     H27752  10.288   6.608   3.226  1.4922  0.0389  3.8135
  968MOL0     H27753  10.283   6.724   3.366 -1.3102  1.8900  0.5171
  968MOL0     H27754  10.157   6.778   3.094  0.1741  0.5903  0.8378
  968MOL0     H27755  10.160   6.888   3.234  0.9323  1.6335 -0.6405
  968MOL0     H27756  10.297   6.934   3.053 -1.4542  0.0957 -0.1581
  968MOL0     H27757  10.432   6.816   3.111 -0.2674  0.2448 -0.0599
  968MOL0     H27758   9.375   6.453   3.135  2.3281 -1.4662 -0.9993
  968MOL0     H27759   9.168   6.327   3.213 -0.4419 -1.5114  3.0476
  968MOL0     H27760   8.894   6.140   3.331 -3.7772 -0.0573 -0.6072
  968MOL0     H27761   8.698   6.052   3.322  0.2622 -4.9638 -1.8133
  968MOL0     H27762   8.592   4.428   3.845  0.0564  0.7371 -0.1079
  968MOL0     H27763   8.673   4.251   3.697  2.0225  0.1563 -1.4628
  968MOL0     H27764   8.529   3.814   3.605  2.0886 -3.3998  0.8421
  968MOL0     H27765   8.603   3.607   3.494 -2.3568 -1.0069 -0.6594
  968MOL0     H27766   8.648   3.443   3.380  0.2498 -2.8100 -0.5310
  968MOL0     H27767   8.819   3.468   3.367  0.7347  1.6689 -0.9732
  968MOL0     H27768   8.817   3.381   3.153 -0.2402  1.3968  0.1283
  968MOL0     H27769   8.750   3.263   3.264 -3.5433 -2.4637 -3.2790
  968MOL0     H27770   8.617   3.409   3.030 -1.2610  1.7121  0.1522
  968MOL0     H27771   8.510   3.374   3.170 -0.3510 -1.0805 -0.1580
  968MOL0     H27772   8.524   3.187   2.994  1.9295 -0.0622 -1.4962
  968MOL0     H27773   8.685   3.163   3.068  0.4860  0.0443  2.3845
  968MOL0     H27774   8.448   3.003   3.364 -1.8515 -1.6187 -0.0706
  968MOL0     H27775   8.734   3.848   3.148 -3.2148  0.4723 -0.0730
  968MOL0     H27776   8.657   4.042   3.259  1.6255 -0.2087 -0.3472
  969MOL0     O27777   5.411   8.803  11.051  0.4475  0.6621 -1.7131
  969MOL0     C27778   5.525   8.828  11.070 -0.2479 -1.2513 -0.5831
  969MOL0     O27779   5.569   8.948  11.127 -0.6111 -0.1477  0.0685
  969MOL0     C27780   5.478   9.046  11.142  0.8850  0.3226  0.3996
  969MOL0     C27781   5.412   9.048  11.268 -0.7948 -0.2941 -0.0696
  969MOL0     C27782   5.293   9.109  11.285  0.6195 -0.0047  0.0690
  969MOL0     C27783   5.251   9.212  11.185 -0.7686  0.3530  0.4792
  969MOL0     O27784   5.135   9.293  11.203 -0.1046  0.4243 -0.0897
  969MOL0     C27785   5.020   9.256  11.114 -0.3287  0.4843  0.2391
  969MOL0     C27786   4.935   9.138  11.170  0.3615  1.1176  0.6338
  969MOL0     C27787   4.851   9.186  11.283 -0.6770  0.0314  0.2787
  969MOL0     C27788   4.777   9.062  11.340  0.1939  0.6060 -0.2816
  969MOL0     C27789   4.646   9.100  11.423 -0.5232 -0.0448  0.0641
  969MOL0     C27790   4.685   9.218  11.516  0.4106  0.3277 -0.4292
  969MOL0     C27791   4.568   9.252  11.608  0.6967 -0.7747 -0.9825
  969MOL0     C27792   4.544   9.403  11.612  0.7402  0.5581  0.0515
  969MOL0     N27793   4.431   9.420  11.712  0.4035 -0.0907  1.0237
  969MOL0     C27794   4.432   9.414  11.847 -0.5810  0.1473 -0.2009
  969MOL0     C27795   4.321   9.475  11.879  0.0507  0.6459  0.0856
  969MOL0     C27796   4.276   9.488  12.021  0.8541  0.3962  0.6017
  969MOL0     C27797   4.250   9.349  12.096  0.4548 -1.6490  0.3594
  969MOL0     C27798   4.189   9.368  12.230 -0.2248  0.5108  0.1871
  969MOL0     C27799   4.132   9.234  12.273  0.0198  0.8310 -0.1404
  969MOL0     O27800   3.998   9.213  12.217  0.5006 -0.1294  0.2721
  969MOL0     C27801   3.974   9.121  12.118 -0.6631  0.6298 -1.2060
  969MOL0     C27802   4.037   8.995  12.113  0.5914  0.0412 -0.5310
  969MOL0     C27803   3.991   8.888  12.030 -0.5209 -0.2705 -0.2483
  969MOL0     C27804   3.884   8.916  11.933 -1.1642  0.4151 -0.9893
  969MOL0     C27805   3.818   8.814  11.859 -0.2962 -0.1569  0.7579
  969MOL0     O27806   3.692   8.839  11.827  0.3692  0.5303  0.0150
  969MOL0     C27807   3.614   8.738  11.768 -0.2156 -0.2638  0.0330
  969MOL0     C27808   3.563   8.627  11.832 -0.9705 -0.3402  1.5178
  969MOL0     C27809   3.457   8.551  11.791  0.5849 -0.2844 -0.1057
  969MOL0     C27810   3.413   8.567  11.656 -0.4351  0.0144  1.0010
  969MOL0     O27811   3.311   8.505  11.595  0.1562  0.5266  0.9016
  969MOL0     C27812   3.272   8.368  11.626 -0.5578 -0.4822  0.2141
  969MOL0     C27813   3.305   8.261  11.517  0.5534  1.2127 -0.1011
  969MOL0     C27814   3.198   8.139  11.497 -1.3890  0.7562  0.3302
  969MOL0     C27815   3.247   8.035  11.406 -0.1489  0.0661 -0.4870
  969MOL0     C27816   3.156   7.907  11.433  0.5218 -0.1953 -0.3620
  969MOL0     C27817   3.231   7.797  11.512 -0.1256 -1.6609  0.3391
  969MOL0     C27818   3.175   7.648  11.499  0.8528  0.7500  0.3319
  969MOL0     C27819   3.292   7.553  11.544  0.2522 -0.5821  1.5076
  969MOL0    Cl27820   3.404   7.520  11.404  0.0405  0.2160  0.1102
  969MOL0     C27821   3.466   8.678  11.583 -1.1357 -0.4959  0.7750
  969MOL0     C27822   3.556   8.763  11.641 -0.1422 -0.3897  0.5386
  969MOL0     O27823   3.884   8.717  11.821 -0.1967  0.4160  0.2564
  969MOL0     C27824   3.837   9.053  11.938  0.8903 -0.2573 -1.1968
  969MOL0     C27825   3.870   9.147  12.035  0.4423  0.4821  0.4377
  969MOL0     N27826   4.248   9.514  11.765  0.0929 -0.2679 -1.1298
  969MOL0     N27827   4.317   9.486  11.668  0.7459  0.2778  0.9234
  969MOL0     C27828   5.325   9.220  11.066  0.1810  0.3195 -0.6359
  969MOL0     C27829   5.428   9.124  11.035 -0.3136 -0.8883 -0.9907
  969MOL0     C27830   5.626   8.725  11.066 -0.0609  0.0609 -0.1040
  969MOL0     C27831   5.587   8.598  11.029  0.6156  0.0244  0.4258
  969MOL0     C27832   5.684   8.498  11.015  0.2254  1.1292 -0.0060
  969MOL0     C27833   5.822   8.513  11.041  0.3321 -1.1332  0.7630
  969MOL0     O27834   5.899   8.402  11.023 -0.2589 -0.1955 -0.7039
  969MOL0     C27835   6.041   8.418  11.053  1.1263 -0.4495  1.0415
  969MOL0     C27836   6.118   8.479  10.937 -0.3631  0.3949 -0.0043
  969MOL0     C27837   6.194   8.365  10.863 -0.6370 -0.0645  0.0108
  969MOL0     C27838   6.092   8.257  10.822 -0.2581  0.4800  0.3590
  969MOL0     C27839   6.152   8.173  10.705  0.3305  0.3961 -0.1015
  969MOL0     C27840   6.204   8.094  10.628  0.8958 -0.1734  0.3552
  969MOL0     C27841   5.861   8.646  11.082  0.1240  0.5232  0.1437
  969MOL0     C27842   5.765   8.748  11.092 -0.3022  0.1318  0.2910
  969MOL0     H27843   5.464   9.001  11.351  4.4210  2.1822 -1.5809
  969MOL0     H27844   5.239   9.109  11.380  2.5812  2.6653  1.3134
  969MOL0     H27845   5.062   9.235  11.015 -1.3929  1.8462 -0.5325
  969MOL0     H27846   4.953   9.341  11.102  0.1862  0.8249 -0.3034
  969MOL0     H27847   5.005   9.056  11.191  0.1267  1.0775  1.2797
  969MOL0     H27848   4.870   9.097  11.091  0.6148 -0.9854  1.4508
  969MOL0     H27849   4.765   9.238  11.239 -1.7788 -3.2094 -1.7710
  969MOL0     H27850   4.914   9.252  11.344 -0.3249 -0.2357  0.2099
  969MOL0     H27851   4.728   9.005  11.260 -0.9292  0.6692  0.3361
  969MOL0     H27852   4.852   8.997  11.385 -1.6705 -1.5464 -0.1055
  969MOL0     H27853   4.611   9.009  11.473  1.2329 -0.9383 -0.2630
  969MOL0     H27854   4.557   9.127  11.366  1.2274  4.0530 -1.1002
  969MOL0     H27855   4.708   9.311  11.464  1.9754 -1.1824 -2.5962
  969MOL0     H27856   4.768   9.188  11.581 -1.9021  2.5736  4.0484
  969MOL0     H27857   4.479   9.194  11.580  0.5195 -1.1837  0.3611
  969MOL0     H27858   4.585   9.224  11.712  5.1946  3.5342 -0.2233
  969MOL0     H27859   4.518   9.434  11.511 -4.6630 -0.6026  0.8114
  969MOL0     H27860   4.633   9.456  11.648 -0.4122  1.7202  1.3049
  969MOL0     H27861   4.509   9.374  11.913  1.7089  4.6975  0.2699
  969MOL0     H27862   4.183   9.547  12.023  0.3482 -0.3604  2.5408
  969MOL0     H27863   4.346   9.550  12.077  0.4875  0.9990  0.4071
  969MOL0     H27864   4.350   9.307  12.111  0.1187 -1.8991  2.1867
  969MOL0     H27865   4.187   9.282  12.036 -0.6755 -0.1805 -0.1315
  969MOL0     H27866   4.270   9.382  12.302  2.0441 -2.2147 -1.5960
  969MOL0     H27867   4.110   9.443  12.237  0.9898  2.0881 -1.9947
  969MOL0     H27868   4.124   9.235  12.382  0.2761 -0.3363 -0.0938
  969MOL0     H27869   4.207   9.155  12.262 -1.7152 -1.2980  2.2202
  969MOL0     H27870   4.100   8.963  12.195  1.6179  1.1473 -0.8588
  969MOL0     H27871   4.035   8.789  12.032  1.2051  0.4483  0.2374
  969MOL0     H27872   3.601   8.607  11.932  0.2203  0.0487  1.1499
  969MOL0     H27873   3.418   8.466  11.846  1.2040  0.7362  1.9763
  969MOL0     H27874   3.165   8.378  11.642 -0.0182  1.1139  3.4993
  969MOL0     H27875   3.315   8.329  11.718  1.9027 -0.1099 -0.6914
  969MOL0     H27876   3.411   8.232  11.524  0.4322  0.0988 -2.0776
  969MOL0     H27877   3.297   8.316  11.423 -0.0965  2.3553  0.5990
  969MOL0     H27878   3.092   8.164  11.483 -1.9664  0.3344  3.2022
  969MOL0     H27879   3.203   8.088  11.594 -0.2160  2.0361  0.9776
  969MOL0     H27880   3.235   8.076  11.305 -1.9670 -2.3954 -1.3720
  969MOL0     H27881   3.354   8.013  11.414 -0.6594 -3.0335 -0.8153
  969MOL0     H27882   3.126   7.859  11.340  0.0438 -1.5429  0.4654
  969MOL0     H27883   3.062   7.930  11.485  0.0822 -2.6018  0.0390
  969MOL0     H27884   3.219   7.822  11.618 -2.2616 -2.2174  0.2619
  969MOL0     H27885   3.339   7.794  11.490 -0.1181  0.1053 -0.0120
  969MOL0     H27886   3.086   7.635  11.562 -0.7668 -0.9001 -2.1292
  969MOL0     H27887   3.130   7.629  11.401 -1.5398  1.0002  1.3057
  969MOL0     H27888   3.244   7.458  11.572 -2.6883 -0.3893 -2.0541
  969MOL0     H27889   3.348   7.599  11.626  0.7395 -0.1897  0.9599
  969MOL0     H27890   3.428   8.696  11.483 -1.3155  1.9582  1.2119
  969MOL0     H27891   3.573   8.857  11.590 -5.5396 -0.3030 -1.6946
  969MOL0     H27892   3.758   9.091  11.876 -0.4428  0.8211  1.0425
  969MOL0     H27893   3.812   9.238  12.024 -0.4469  0.0348  1.2638
  969MOL0     H27894   5.282   9.294  10.998  0.0743  1.0740  0.2288
  969MOL0     H27895   5.482   9.123  10.940  1.2037 -1.3994 -0.1678
  969MOL0     H27896   5.481   8.579  11.019  0.8464 -2.2786  1.6302
  969MOL0     H27897   5.642   8.401  10.991  2.3160  0.1962 -0.1743
  969MOL0     H27898   6.089   8.323  11.076  1.6540 -0.0077  1.8210
  969MOL0     H27899   6.060   8.455  11.155  1.4435 -1.5500  1.3929
  969MOL0     H27900   6.047   8.526  10.868 -0.0107  1.7052  0.4964
  969MOL0     H27901   6.191   8.556  10.960  1.9149 -1.0044 -2.1221
  969MOL0     H27902   6.265   8.323  10.936 -0.5390  0.4237  0.2001
  969MOL0     H27903   6.256   8.406  10.782  0.6778 -1.7865  0.0978
  969MOL0     H27904   6.082   8.196  10.912  2.8735  0.1720  0.6354
  969MOL0     H27905   5.997   8.295  10.785  1.3523  4.0576 -0.5400
  969MOL0     H27906   6.251   8.041  10.548  0.7655  2.0813 -1.3344
  969MOL0     H27907   5.967   8.661  11.097  0.6522 -0.4611 -2.1848
  969MOL0     H27908   5.788   8.852  11.114  0.6095  0.4340 -1.8414
  970MOL0     O27909   4.812   9.119   9.254  0.3885 -0.0307 -0.0363
  970MOL0     C27910   4.913   9.177   9.215 -0.8682 -0.1874  0.1348
  970MOL0     O27911   5.042   9.144   9.240 -0.2788 -0.0165 -1.1409
  970MOL0     C27912   5.075   9.024   9.308  0.0242  1.1252  0.0909
  970MOL0     C27913   5.007   8.902   9.298 -0.0068 -0.0240  0.0806
  970MOL0     C27914   5.059   8.792   9.369 -0.1143 -1.1468  0.2798
  970MOL0     C27915   5.175   8.804   9.447  0.7813 -0.0308 -0.1518
  970MOL0     O27916   5.207   8.700   9.530  0.2663 -0.2323  0.1876
  970MOL0     C27917   5.115   8.611   9.578  0.1475  0.1584  0.0692
  970MOL0     C27918   5.159   8.544   9.703  0.5138  1.0698 -0.9135
  970MOL0     C27919   5.276   8.443   9.679 -0.0713 -0.2396  0.0676
  970MOL0     C27920   5.341   8.408   9.819  0.2500 -0.3190  0.2216
  970MOL0     C27921   5.466   8.331   9.811 -0.1506 -0.3315 -0.2640
  970MOL0     C27922   5.587   8.434   9.789 -0.2243  0.7118 -0.6660
  970MOL0     C27923   5.656   8.482   9.923  0.4344  0.2835  0.3952
  970MOL0     C27924   5.800   8.535   9.912  0.3917 -0.2331 -0.2976
  970MOL0     N27925   5.834   8.643   9.818 -0.8200  0.5001  0.8060
  970MOL0     C27926   5.889   8.636   9.684 -0.1657 -0.4924  0.0122
  970MOL0     C27927   5.885   8.771   9.649  0.1768 -0.0230  0.1224
  970MOL0     C27928   5.970   8.850   9.546  0.0366 -0.8589 -0.1001
  970MOL0     C27929   6.107   8.890   9.588  0.3904 -0.5790  0.7537
  970MOL0     C27930   6.155   9.020   9.513  0.2069 -0.5743  0.4006
  970MOL0     C27931   6.294   9.045   9.537 -1.1198  0.8192 -0.5529
  970MOL0     O27932   6.381   8.934   9.556 -0.1134  1.0625  1.0535
  970MOL0     C27933   6.501   8.956   9.624 -1.0098 -0.2524  0.5194
  970MOL0     C27934   6.552   9.070   9.695  1.0548  0.4177  1.4021
  970MOL0     C27935   6.682   9.076   9.733 -0.1882  0.0221  0.3044
  970MOL0     C27936   6.768   8.960   9.715 -0.3818 -0.2908 -0.0812
  970MOL0     C27937   6.907   8.957   9.776  0.6767 -0.0321  0.2051
  970MOL0     O27938   6.991   8.841   9.749  0.3871 -0.7719  0.2993
  970MOL0     C27939   7.103   8.825   9.819  0.3678 -0.1467 -0.0809
  970MOL0     C27940   7.110   8.844   9.965  0.6369  0.1109 -0.4911
  970MOL0     C27941   7.233   8.836  10.030  0.6246 -1.0305 -0.2594
  970MOL0     C27942   7.344   8.789   9.960 -0.4845  0.2991 -0.1884
  970MOL0     O27943   7.461   8.764  10.024  0.5384  0.1706 -0.9870
  970MOL0     C27944   7.565   8.860  10.019  0.2403  0.1215  0.6776
  970MOL0     C27945   7.659   8.833  10.132 -0.0398  0.5627  0.8265
  970MOL0     C27946   7.675   8.680  10.156 -0.0579  1.0498  1.0098
  970MOL0     C27947   7.798   8.655  10.246  0.2557  0.4148  0.0216
  970MOL0     C27948   7.826   8.508  10.244  0.1212 -0.4602  0.2174
  970MOL0     C27949   7.952   8.475  10.291  0.1009  0.3393 -0.3263
  970MOL0     C27950   7.980   8.322  10.278 -0.4304  0.5566  0.0274
  970MOL0     C27951   8.111   8.278  10.345  0.5781  0.0679 -0.0000
  970MOL0    Cl27952   8.246   8.349  10.263 -0.4130 -0.2196 -0.2392
  970MOL0     C27953   7.334   8.766   9.826 -0.2996  0.2866  0.1790
  970MOL0     C27954   7.217   8.781   9.750  0.6133  0.0228 -0.3350
  970MOL0     O27955   6.944   9.060   9.831 -1.5753  0.2654 -0.3600
  970MOL0     C27956   6.705   8.843   9.660 -0.7571 -0.1701 -1.1389
  970MOL0     C27957   6.584   8.844   9.609 -0.1151 -0.6740  0.3203
  970MOL0     N27958   5.821   8.847   9.751 -0.0076  0.3248  0.8597
  970MOL0     N27959   5.786   8.769   9.846  0.0622 -0.1215 -0.2522
  970MOL0     C27960   5.246   8.921   9.456  1.2772  0.3914 -0.4894
  970MOL0     C27961   5.186   9.032   9.389  0.5223 -0.8511 -0.5123
  970MOL0     C27962   4.895   9.310   9.150 -0.3901 -0.7881 -0.4879
  970MOL0     C27963   5.001   9.360   9.073  0.0337 -0.3183  0.0161
  970MOL0     C27964   4.975   9.480   9.004 -0.1492  0.5667  0.7082
  970MOL0     C27965   4.862   9.552   9.009 -1.3316  0.4036 -0.9091
  970MOL0     O27966   4.836   9.668   8.938 -0.6192 -0.3083 -0.2411
  970MOL0     C27967   4.886   9.670   8.806  0.2863 -0.2848  0.7481
  970MOL0     C27968   4.792   9.744   8.716  0.5890  0.6336  0.5083
  970MOL0     C27969   4.798   9.698   8.565  0.3252 -0.2252  0.2091
  970MOL0     C27970   4.686   9.740   8.476  0.1544  0.1821  0.1593
  970MOL0     C27971   4.675   9.884   8.448  0.1335  0.5399 -0.6345
  970MOL0     C27972   4.688  10.003   8.433  0.2329 -0.5829  0.0445
  970MOL0     C27973   4.764   9.501   9.094 -0.2309  0.9910 -0.4217
  970MOL0     C27974   4.774   9.377   9.165  1.2178 -1.1378  0.4862
  970MOL0     H27975   4.929   8.867   9.232 -0.0227  2.6105 -1.4581
  970MOL0     H27976   5.001   8.700   9.366  1.1641 -1.9606 -0.4965
  970MOL0     H27977   5.111   8.537   9.498 -0.0505 -0.2735  0.4697
  970MOL0     H27978   5.013   8.651   9.586 -0.5016 -1.3750 -0.1739
  970MOL0     H27979   5.074   8.484   9.738 -0.2832  2.9224  0.4894
  970MOL0     H27980   5.186   8.626   9.770 -3.6998  1.9605 -0.0185
  970MOL0     H27981   5.343   8.486   9.602  0.2135  0.3506  0.6325
  970MOL0     H27982   5.236   8.358   9.623  0.7760  0.0165 -0.9783
  970MOL0     H27983   5.348   8.502   9.875 -1.0732 -0.1156  0.0724
  970MOL0     H27984   5.265   8.341   9.860 -0.0619 -1.2776 -1.8223
  970MOL0     H27985   5.456   8.257   9.731 -2.8853 -1.0368  0.5911
  970MOL0     H27986   5.481   8.283   9.908 -2.2664 -1.7191 -0.5511
  970MOL0     H27987   5.554   8.525   9.738  0.4501  1.1039 -0.4084
  970MOL0     H27988   5.656   8.378   9.725  2.4152 -0.4845  2.8951
  970MOL0     H27989   5.584   8.552   9.966 -0.1736 -0.0270 -0.0953
  970MOL0     H27990   5.655   8.392   9.984 -2.2306 -0.4509 -0.5918
  970MOL0     H27991   5.865   8.447   9.913  0.2332 -0.5944  4.7055
  970MOL0     H27992   5.817   8.581  10.010  1.4032  1.1458 -1.0863
  970MOL0     H27993   5.936   8.553   9.633 -2.7517 -2.8230  1.1777
  970MOL0     H27994   5.918   8.942   9.518  1.3464  0.3227  1.2078
  970MOL0     H27995   5.985   8.782   9.461  2.1208 -3.4260  2.1513
  970MOL0     H27996   6.184   8.812   9.584  1.6672  0.6934 -0.7996
  970MOL0     H27997   6.097   8.917   9.694  4.7961 -0.9316  1.4575
  970MOL0     H27998   6.154   8.998   9.406 -0.8889 -4.6440  1.0671
  970MOL0     H27999   6.085   9.102   9.533 -1.3440 -1.7928  0.2489
  970MOL0     H28000   6.306   9.108   9.626 -3.1548  1.5420 -0.7320
  970MOL0     H28001   6.323   9.102   9.449  0.4131 -0.6178 -1.0222
  970MOL0     H28002   6.490   9.157   9.716 -1.3732 -0.8984  0.1909
  970MOL0     H28003   6.721   9.168   9.774  2.5978 -0.1032 -1.7207
  970MOL0     H28004   7.038   8.884  10.036  0.5027 -0.4886 -0.2829
  970MOL0     H28005   7.240   8.860  10.136  5.0697  1.9133 -0.9226
  970MOL0     H28006   7.521   8.960  10.020 -3.3878 -1.3224  0.5299
  970MOL0     H28007   7.615   8.855   9.922 -1.4085  0.2396 -0.2114
  970MOL0     H28008   7.611   8.884  10.215 -0.9542  3.0122 -1.0865
  970MOL0     H28009   7.758   8.872  10.107 -0.1821  1.1875  1.2288
  970MOL0     H28010   7.691   8.634  10.057  2.3077 -0.5448  2.0334
  970MOL0     H28011   7.591   8.628  10.203 -1.8864 -0.7385 -3.6263
  970MOL0     H28012   7.888   8.714  10.222  1.1693  0.3615  2.9328
  970MOL0     H28013   7.777   8.692  10.347  1.5615  0.2478  0.3797
  970MOL0     H28014   7.804   8.460  10.148 -0.0964 -3.3307  1.5725
  970MOL0     H28015   7.753   8.452  10.304  1.6347 -3.2491 -0.3577
  970MOL0     H28016   7.959   8.502  10.397 -0.3207  0.2815 -0.2805
  970MOL0     H28017   8.029   8.532  10.239  1.2816 -0.3400  0.6205
  970MOL0     H28018   7.899   8.272  10.333 -1.6024  2.4111  0.0899
  970MOL0     H28019   7.976   8.296  10.172  0.6889 -0.4422  0.2043
  970MOL0     H28020   8.132   8.172  10.332  1.0422 -0.6334  4.6452
  970MOL0     H28021   8.125   8.292  10.453  0.2892  1.1185 -0.0825
  970MOL0     H28022   7.424   8.720   9.787 -1.9988 -4.0680  0.8105
  970MOL0     H28023   7.215   8.755   9.645  3.9210  0.1826 -0.5260
  970MOL0     H28024   6.757   8.748   9.647 -0.1832  0.4054 -3.5488
  970MOL0     H28025   6.531   8.765   9.557 -0.6950  1.6479 -2.9762
  970MOL0     H28026   5.336   8.906   9.514  0.8972  2.9782  0.9044
  970MOL0     H28027   5.234   9.129   9.387  1.6029 -1.3677 -0.6597
  970MOL0     H28028   5.102   9.321   9.077  0.9973  1.2553 -4.0461
  970MOL0     H28029   5.055   9.505   8.935 -0.3968  2.0414  0.9320
  970MOL0     H28030   4.875   9.565   8.776  0.6809 -0.7420  2.1633
  970MOL0     H28031   4.988   9.706   8.794 -0.4165  2.3916  2.1251
  970MOL0     H28032   4.688   9.726   8.746  1.1342  0.8612  2.7029
  970MOL0     H28033   4.800   9.853   8.715  1.8294  0.5954 -2.3453
  970MOL0     H28034   4.811   9.589   8.564  1.6619 -0.0903  0.1509
  970MOL0     H28035   4.884   9.750   8.522  0.4486 -0.7877 -0.2371
  970MOL0     H28036   4.716   9.697   8.380 -1.7044 -0.4210 -0.2030
  970MOL0     H28037   4.590   9.704   8.514 -0.7929  0.9853 -1.3541
  970MOL0     H28038   4.705  10.109   8.436 -0.6492 -0.3991 -0.8650
  970MOL0     H28039   4.671   9.557   9.086 -0.8647 -0.1931 -7.0019
  970MOL0     H28040   4.699   9.332   9.229  1.2727 -2.5342 -0.3902
  971MOL0     O28041   9.457  11.148   9.526  0.0416  0.7914 -0.6643
  971MOL0     C28042   9.572  11.177   9.540 -0.2933 -1.0521 -0.0752
  971MOL0     O28043   9.659  11.109   9.619  0.4450  0.7553 -0.0058
  971MOL0     C28044   9.612  11.009   9.699  0.8157 -0.9522 -0.1007
  971MOL0     C28045   9.500  11.027   9.786  0.8627  0.7915  0.3211
  971MOL0     C28046   9.443  10.927   9.862 -0.1935 -0.8256 -0.1555
  971MOL0     C28047   9.504  10.802   9.864  0.1983 -0.0522  1.0617
  971MOL0     O28048   9.439  10.701   9.938  0.0154  0.3483  0.6702
  971MOL0     C28049   9.521  10.591   9.973 -0.3429  0.0287  0.0801
  971MOL0     C28050   9.457  10.511  10.092  0.2207 -0.1836  0.2997
  971MOL0     C28051   9.468  10.580  10.236 -0.6755 -0.1405  0.7364
  971MOL0     C28052   9.413  10.484  10.339  0.2128 -0.6300 -0.8500
  971MOL0     C28053   9.409  10.546  10.478 -0.8249  0.1776  0.1136
  971MOL0     C28054   9.279  10.623  10.493 -0.1006  0.2701  0.8808
  971MOL0     C28055   9.303  10.707  10.616 -0.0132 -0.2004 -0.9512
  971MOL0     C28056   9.175  10.695  10.697  0.3361  0.1808 -0.1395
  971MOL0     N28057   9.193  10.775  10.815 -0.5099  0.1530 -0.9766
  971MOL0     C28058   9.304  10.768  10.898  0.4974  1.1162  0.6662
  971MOL0     C28059   9.278  10.852  10.997 -0.2328  0.4736  0.4077
  971MOL0     C28060   9.372  10.880  11.114 -0.6203 -0.6483  0.5080
  971MOL0     C28061   9.414  10.746  11.182 -0.7486 -0.0488 -0.0354
  971MOL0     C28062   9.527  10.757  11.274  0.0522  0.2591 -0.2017
  971MOL0     C28063   9.570  10.619  11.331 -0.6870 -0.3516  0.1416
  971MOL0     O28064   9.635  10.543  11.223 -0.2952 -0.1606 -0.5428
  971MOL0     C28065   9.713  10.431  11.259 -0.1493 -0.4755  0.5021
  971MOL0     C28066   9.840  10.432  11.205 -1.3748 -0.3830  0.3187
  971MOL0     C28067   9.931  10.334  11.242  0.9769 -0.0666 -0.1278
  971MOL0     C28068   9.886  10.217  11.307  0.7143  0.2512 -1.0037
  971MOL0     C28069   9.974  10.104  11.328  1.6897  0.6307  0.5810
  971MOL0     O28070  10.109  10.124  11.309 -0.7361  0.7252 -0.1726
  971MOL0     C28071  10.189  10.014  11.341  0.1246 -0.7822 -0.4301
  971MOL0     C28072  10.224   9.986  11.478  0.1225 -0.9205  1.2301
  971MOL0     C28073  10.301   9.878  11.514 -0.3740  0.0116 -0.9744
  971MOL0     C28074  10.331   9.776  11.424 -0.9276  0.0942  0.0680
  971MOL0     O28075  10.378   9.654  11.469  0.0605  0.7281  0.2964
  971MOL0     C28076  10.415   9.550  11.378 -0.2867 -0.0960  0.3997
  971MOL0     C28077  10.445   9.415  11.429 -1.1952  0.0502  1.0938
  971MOL0     C28078  10.537   9.349  11.327 -0.1886  0.6776  0.3394
  971MOL0     C28079  10.569   9.202  11.363  0.0280 -1.3483 -0.0236
  971MOL0     C28080  10.712   9.194  11.423  0.7044 -0.0347  0.1823
  971MOL0     C28081  10.747   9.054  11.455 -0.3533  0.5754  0.3643
  971MOL0     C28082  10.898   9.009  11.479 -0.2201 -0.0880 -0.3014
  971MOL0     C28083  10.909   8.855  11.485  0.2821  0.7008  0.9553
  971MOL0    Cl28084  10.816   8.789  11.618  0.2772  0.3578  0.1478
  971MOL0     C28085  10.289   9.798  11.289 -0.1537 -1.0063 -0.6206
  971MOL0     C28086  10.232   9.926  11.248 -0.2936  0.4209  0.3251
  971MOL0     O28087   9.918  10.002  11.358 -0.4646  0.8498 -0.5465
  971MOL0     C28088   9.757  10.231  11.368 -0.3897  1.1804  1.2346
  971MOL0     C28089   9.679  10.326  11.339  1.6571  0.4750  0.4221
  971MOL0     N28090   9.157  10.906  10.968  0.2043  0.3453 -0.9205
  971MOL0     N28091   9.102  10.860  10.864 -0.2595  0.0695  0.2815
  971MOL0     C28092   9.625  10.779   9.787 -0.1866  0.5288 -0.0668
  971MOL0     C28093   9.680  10.883   9.703 -0.5298  0.3088  0.7045
  971MOL0     C28094   9.628  11.295   9.456  0.2761 -0.4338 -0.1221
  971MOL0     C28095   9.530  11.377   9.389  0.3660  0.7775  0.2204
  971MOL0     C28096   9.569  11.494   9.321 -0.0008 -0.5996  0.2713
  971MOL0     C28097   9.701  11.511   9.299 -0.6771  0.2354  0.1069
  971MOL0     O28098   9.758  11.612   9.216  0.1795 -0.3555  0.3660
  971MOL0     C28099   9.693  11.657   9.093  0.5246  0.1307 -0.3925
  971MOL0     C28100   9.713  11.550   8.983  0.3007  0.2717 -0.1178
  971MOL0     C28101   9.624  11.579   8.863 -0.2563  0.1023 -0.1752
  971MOL0     C28102   9.703  11.584   8.731  0.0466  0.4826 -0.0774
  971MOL0     C28103   9.609  11.593   8.616 -0.1870  0.4627 -0.6416
  971MOL0     C28104   9.528  11.611   8.539  0.8213  0.5503 -0.6852
  971MOL0     C28105   9.795  11.439   9.373 -0.4325  0.1466 -1.0063
  971MOL0     C28106   9.761  11.325   9.439  0.0819  0.4897 -0.4395
  971MOL0     H28107   9.451  11.123   9.796 -2.2127 -0.5822 -0.4261
  971MOL0     H28108   9.372  10.936   9.944  0.1963  0.2852  0.0891
  971MOL0     H28109   9.617  10.633  10.005  0.6040  1.3242 -3.8818
  971MOL0     H28110   9.543  10.521   9.893  1.4131 -1.0930  1.4786
  971MOL0     H28111   9.517  10.419  10.091  0.4458 -0.1440 -3.6275
  971MOL0     H28112   9.358  10.479  10.059  1.2828 -3.6200  0.0449
  971MOL0     H28113   9.415  10.675  10.237  1.1990  0.9993 -0.7566
  971MOL0     H28114   9.573  10.589  10.266 -0.7180 -3.1823  2.1585
  971MOL0     H28115   9.313  10.450  10.310  1.0170 -2.2337 -1.8768
  971MOL0     H28116   9.487  10.405  10.353  1.6361  0.9973  1.3638
  971MOL0     H28117   9.493  10.605  10.516 -2.2153  1.1778  1.7881
  971MOL0     H28118   9.396  10.462  10.548  2.3200  0.8879  1.7278
  971MOL0     H28119   9.198  10.552  10.510  0.5937 -0.2140  2.2944
  971MOL0     H28120   9.260  10.696  10.414 -1.3538 -1.1965 -0.2281
  971MOL0     H28121   9.379  10.663  10.682 -0.0687 -0.5718 -1.1335
  971MOL0     H28122   9.337  10.808  10.591 -0.3571 -0.2486 -1.6463
  971MOL0     H28123   9.163  10.588  10.720  1.8465  0.1264  0.4802
  971MOL0     H28124   9.079  10.716  10.647 -1.3111 -3.1529  1.2749
  971MOL0     H28125   9.398  10.715  10.897  0.5474  1.1274  2.4410
  971MOL0     H28126   9.312  10.947  11.175 -2.1413 -1.8191  0.3700
  971MOL0     H28127   9.460  10.939  11.088  1.0164 -1.3549  3.9388
  971MOL0     H28128   9.446  10.665  11.115  2.9265 -1.0440  2.6156
  971MOL0     H28129   9.336  10.703  11.245  1.7389 -1.6139  2.2281
  971MOL0     H28130   9.607  10.793  11.209  0.2474 -1.3962 -0.9386
  971MOL0     H28131   9.508  10.828  11.355  0.8281  0.3533 -0.0973
  971MOL0     H28132   9.480  10.565  11.361 -2.2597  2.1900  0.2379
  971MOL0     H28133   9.639  10.629  11.414  1.4791 -1.6660 -1.3968
  971MOL0     H28134   9.869  10.516  11.143 -1.0114 -0.9299 -0.2737
  971MOL0     H28135  10.036  10.330  11.218  1.0184 -2.5177  0.2138
  971MOL0     H28136  10.185  10.058  11.549  1.7043 -0.0309  1.2448
  971MOL0     H28137  10.327   9.855  11.617  1.1667 -0.3047 -1.4040
  971MOL0     H28138  10.499   9.594  11.324  0.5945 -0.8831  1.1029
  971MOL0     H28139  10.326   9.543  11.315  0.0747 -0.6046 -0.0603
  971MOL0     H28140  10.347   9.366  11.437 -1.0486 -1.1410 -2.4973
  971MOL0     H28141  10.500   9.424  11.523  0.5207  0.9555  0.0503
  971MOL0     H28142  10.628   9.408  11.312  0.7030 -0.8068 -0.3307
  971MOL0     H28143  10.485   9.347  11.230  1.1373 -1.8076 -0.4043
  971MOL0     H28144  10.487   9.186  11.434 -0.2409  0.5640  0.1271
  971MOL0     H28145  10.555   9.139  11.274 -1.1812  0.8932 -1.5021
  971MOL0     H28146  10.725   9.262  11.508  1.5968  1.9058 -1.4387
  971MOL0     H28147  10.778   9.230  11.344 -0.0378 -1.1505 -0.9844
  971MOL0     H28148  10.710   8.980  11.384 -0.8543  1.6747 -0.5418
  971MOL0     H28149  10.693   9.034  11.548 -0.0376 -0.3610  0.3541
  971MOL0     H28150  10.964   9.044  11.399  1.2590 -2.5596 -0.2765
  971MOL0     H28151  10.931   9.061  11.569  1.2343  2.3243 -2.0751
  971MOL0     H28152  11.006   8.807  11.495  0.6440  1.7592  3.3461
  971MOL0     H28153  10.859   8.810  11.399  0.7433  1.5098  0.2482
  971MOL0     H28154  10.308   9.728  11.208  4.4447 -0.8640  0.0942
  971MOL0     H28155  10.196   9.954  11.149 -2.9528  1.4844  1.5210
  971MOL0     H28156   9.724  10.157  11.441 -2.8743  0.8506 -0.1085
  971MOL0     H28157   9.578  10.331  11.379  1.9028  0.5089  1.0593
  971MOL0     H28158   9.674  10.683   9.773 -0.0117  0.4234  1.1680
  971MOL0     H28159   9.766  10.862   9.641 -0.5280 -0.8637  1.0750
  971MOL0     H28160   9.424  11.359   9.396  0.4596 -0.0509 -0.2947
  971MOL0     H28161   9.489  11.548   9.271 -0.2039 -2.9714 -2.2041
  971MOL0     H28162   9.722  11.760   9.068  0.2007  0.5044  0.7087
  971MOL0     H28163   9.585  11.671   9.101  0.7387  2.1649 -0.4658
  971MOL0     H28164   9.820  11.548   8.961  0.0563  0.2009 -1.3819
  971MOL0     H28165   9.685  11.454   9.027  0.6979  1.0108  1.8461
  971MOL0     H28166   9.569  11.673   8.877  0.0354  0.1841  0.4468
  971MOL0     H28167   9.546  11.502   8.859  0.2839 -0.5088  0.7004
  971MOL0     H28168   9.786  11.656   8.722 -0.2255  0.6832 -1.1067
  971MOL0     H28169   9.751  11.489   8.706 -2.7105 -0.4870 -2.0764
  971MOL0     H28170   9.444  11.630   8.476  2.8540  0.8715 -3.4699
  971MOL0     H28171   9.903  11.449   9.369 -0.3992  0.4257  0.2233
  971MOL0     H28172   9.832  11.264   9.495  0.5561  0.7326 -0.7714
  972MOL0     O28173   5.233   2.931   3.219  0.6475 -0.2907 -0.5512
  972MOL0     C28174   5.295   2.997   3.302  0.4246 -0.0671  0.2333
  972MOL0     O28175   5.248   3.030   3.424  0.3403  0.1123 -0.8274
  972MOL0     C28176   5.112   3.008   3.460  0.4497 -0.2023  0.3547
  972MOL0     C28177   5.038   2.892   3.449  0.0217 -0.0408  0.5182
  972MOL0     C28178   4.914   2.869   3.507  1.0441  0.1592 -0.5418
  972MOL0     C28179   4.861   2.971   3.589  0.5709 -0.0721 -0.0513
  972MOL0     O28180   4.746   2.965   3.655  0.8732  1.0080  0.3621
  972MOL0     C28181   4.645   2.867   3.612  0.1272  0.1508  0.7960
  972MOL0     C28182   4.520   2.890   3.687  0.4167  0.1226 -0.9630
  972MOL0     C28183   4.421   2.780   3.675  0.2485 -0.7992  0.1203
  972MOL0     C28184   4.473   2.634   3.705  0.4069  0.0946  0.2846
  972MOL0     C28185   4.357   2.555   3.732 -0.0177  0.1909 -0.1624
  972MOL0     C28186   4.273   2.507   3.605 -0.1126  0.0321 -0.6703
  972MOL0     C28187   4.149   2.429   3.651 -0.0595  0.0716 -0.1376
  972MOL0     C28188   4.033   2.439   3.548  0.1746 -0.1053  0.0554
  972MOL0     N28189   3.933   2.541   3.580 -0.3864 -0.2937 -0.1587
  972MOL0     C28190   3.843   2.562   3.690 -0.3003  0.4432  0.0766
  972MOL0     C28191   3.771   2.677   3.653 -0.6462  0.2129  0.4010
  972MOL0     C28192   3.675   2.735   3.746  1.1572  0.1668  0.1382
  972MOL0     C28193   3.545   2.654   3.712  0.2782 -0.5486  0.2401
  972MOL0     C28194   3.491   2.680   3.569  0.4421 -0.7408  0.6721
  972MOL0     C28195   3.440   2.822   3.552 -0.6221  1.2556 -0.4531
  972MOL0     O28196   3.333   2.862   3.640  0.4073 -0.8140  0.0915
  972MOL0     C28197   3.209   2.856   3.586 -0.5318  0.2698  0.2263
  972MOL0     C28198   3.131   2.956   3.625  0.7069  0.6630 -0.4786
  972MOL0     C28199   3.009   2.976   3.559  0.1183  0.0211 -0.1997
  972MOL0     C28200   2.954   2.883   3.470 -0.1367 -1.2578  0.2472
  972MOL0     C28201   2.809   2.904   3.440  0.8349  0.1205 -0.6306
  972MOL0     O28202   2.760   3.036   3.438 -0.2936  0.6982  0.2912
  972MOL0     C28203   2.627   3.067   3.439  0.0548  0.3343  0.3711
  972MOL0     C28204   2.527   2.997   3.367 -1.0117  0.0086 -0.4063
  972MOL0     C28205   2.396   3.035   3.375  0.3908  0.3568  0.7019
  972MOL0     C28206   2.363   3.145   3.447 -0.3141  0.4480 -0.8188
  972MOL0     O28207   2.228   3.181   3.436 -0.2551  0.0217 -0.0700
  972MOL0     C28208   2.132   3.104   3.511  0.8854 -0.9462 -0.2030
  972MOL0     C28209   2.010   3.203   3.512 -0.3866 -0.3821  0.2127
  972MOL0     C28210   1.914   3.170   3.627  1.0025  0.7572 -0.2301
  972MOL0     C28211   1.779   3.239   3.609 -0.5489 -1.2818  0.1444
  972MOL0     C28212   1.669   3.164   3.687  0.0501  0.7748  0.5547
  972MOL0     C28213   1.534   3.189   3.624  0.8307 -0.1941 -0.6383
  972MOL0     C28214   1.485   3.334   3.615  0.3356  0.3531 -1.0707
  972MOL0     C28215   1.434   3.394   3.754 -0.2029  0.8113 -0.4903
  972MOL0    Cl28216   1.296   3.304   3.821  0.1887 -0.0313  0.0337
  972MOL0     C28217   2.454   3.209   3.530 -0.3412  0.3018 -0.3376
  972MOL0     C28218   2.595   3.181   3.520  0.3232  0.8515 -0.8416
  972MOL0     O28219   2.745   2.812   3.396 -0.3759  0.2855  0.1985
  972MOL0     C28220   3.037   2.783   3.430  0.1373 -0.1951  0.4161
  972MOL0     C28221   3.170   2.776   3.479  0.2222  0.0939  0.1924
  972MOL0     N28222   3.813   2.714   3.517 -0.0803  0.2760 -0.4815
  972MOL0     N28223   3.903   2.639   3.484 -0.6510 -1.1127 -0.4265
  972MOL0     C28224   4.933   3.086   3.608  0.2715 -0.8562  0.0220
  972MOL0     C28225   5.059   3.111   3.543 -0.0733 -0.2858  0.1146
  972MOL0     C28226   5.444   3.004   3.303 -0.6374  0.6796  0.3677
  972MOL0     C28227   5.517   3.079   3.393 -0.3688  0.1266  0.4737
  972MOL0     C28228   5.658   3.080   3.373  0.1264  0.6509 -0.2086
  972MOL0     C28229   5.726   3.004   3.277  0.5576  0.2365  0.9520
  972MOL0     O28230   5.855   3.001   3.274 -0.5457  0.5825  0.1897
  972MOL0     C28231   5.917   3.121   3.242 -0.0331 -0.5741 -0.1179
  972MOL0     C28232   6.066   3.112   3.284 -0.5927 -0.4655  0.1326
  972MOL0     C28233   6.083   3.132   3.438  0.0924 -0.6845  0.0849
  972MOL0     C28234   6.111   3.273   3.487 -0.1170 -0.7066 -0.7451
  972MOL0     C28235   6.229   3.328   3.430 -0.4468 -0.5066 -0.8644
  972MOL0     C28236   6.330   3.379   3.392  0.1631 -0.8100  0.8550
  972MOL0     C28237   5.648   2.933   3.189 -0.4215 -0.0536 -0.7316
  972MOL0     C28238   5.514   2.938   3.194 -0.1959 -1.6349  0.7394
  972MOL0     H28239   5.092   2.809   3.405  0.4875  1.2497 -1.4627
  972MOL0     H28240   4.859   2.775   3.503 -0.4901  0.8757  1.8277
  972MOL0     H28241   4.681   2.769   3.643  2.3123  1.2089  1.8577
  972MOL0     H28242   4.636   2.871   3.503 -0.0814 -1.3688  0.7338
  972MOL0     H28243   4.473   2.987   3.664  0.3092  0.3868  0.3150
  972MOL0     H28244   4.547   2.893   3.793 -0.5674  1.6426 -0.7174
  972MOL0     H28245   4.380   2.780   3.573  1.7266 -2.2469 -0.5231
  972MOL0     H28246   4.334   2.801   3.737  0.3360  0.3654 -0.1365
  972MOL0     H28247   4.515   2.582   3.619  1.6843 -0.4866  1.2195
  972MOL0     H28248   4.553   2.634   3.780 -1.3748 -3.8633  2.4899
  972MOL0     H28249   4.300   2.605   3.810  2.8110  0.5711  1.7888
  972MOL0     H28250   4.394   2.461   3.775  1.2582  1.2748  1.1819
  972MOL0     H28251   4.325   2.429   3.549  1.4171  2.3774 -2.7276
  972MOL0     H28252   4.250   2.591   3.539  1.3722  0.3723 -0.7747
  972MOL0     H28253   4.169   2.322   3.660  2.3685  0.1737 -3.0392
  972MOL0     H28254   4.118   2.463   3.750 -2.6606 -0.7364 -0.6078
  972MOL0     H28255   3.979   2.346   3.529  1.4413 -1.4121  2.3909
  972MOL0     H28256   4.083   2.460   3.452 -0.3479  2.9800  0.3531
  972MOL0     H28257   3.833   2.505   3.782  0.6147  0.0042 -0.0729
  972MOL0     H28258   3.657   2.840   3.722 -1.9623 -0.6845 -1.9773
  972MOL0     H28259   3.705   2.718   3.850 -0.3121 -2.8977  0.1867
  972MOL0     H28260   3.462   2.678   3.779  0.0931 -2.3246  0.6857
  972MOL0     H28261   3.562   2.548   3.731  2.0380 -0.6695 -1.7484
  972MOL0     H28262   3.552   2.664   3.480 -1.5265  0.9980 -1.1055
  972MOL0     H28263   3.406   2.611   3.563  1.3084 -1.7014 -1.0049
  972MOL0     H28264   3.420   2.828   3.445 -0.2583  2.5956 -0.4648
  972MOL0     H28265   3.525   2.888   3.572  0.6994 -0.9805  2.0286
  972MOL0     H28266   3.170   3.028   3.696  1.3285  0.4203 -0.5679
  972MOL0     H28267   2.961   3.070   3.585 -0.4442  0.2580 -1.9176
  972MOL0     H28268   2.543   2.904   3.314  2.3931 -1.8611  3.3991
  972MOL0     H28269   2.322   2.985   3.314 -1.1608  4.2571 -0.8864
  972MOL0     H28270   2.171   3.090   3.612  2.1567 -1.0787 -0.6882
  972MOL0     H28271   2.113   3.005   3.469 -1.2846 -1.8334  2.5950
  972MOL0     H28272   1.958   3.186   3.417  1.3534 -0.2339 -0.8020
  972MOL0     H28273   2.033   3.309   3.513 -0.9840 -0.2084 -1.5620
  972MOL0     H28274   1.953   3.217   3.718  2.8449  2.4094 -1.7767
  972MOL0     H28275   1.900   3.065   3.654 -1.9363  1.5059  1.6240
  972MOL0     H28276   1.794   3.335   3.660  2.7520 -1.9360  0.6256
  972MOL0     H28277   1.764   3.261   3.503  2.4744 -2.1248 -0.5329
  972MOL0     H28278   1.668   3.189   3.794  0.2313  1.1285  0.4743
  972MOL0     H28279   1.675   3.056   3.676  1.5646  0.9354 -0.5965
  972MOL0     H28280   1.459   3.126   3.673  1.5951  1.0786  2.4372
  972MOL0     H28281   1.544   3.158   3.520 -2.3995  0.5595 -1.2725
  972MOL0     H28282   1.570   3.398   3.590 -0.6939  1.6530 -1.3490
  972MOL0     H28283   1.397   3.346   3.552 -1.6349  1.0734  1.6157
  972MOL0     H28284   1.390   3.492   3.735 -2.3091 -0.1582 -1.0329
  972MOL0     H28285   1.512   3.399   3.830  0.9661 -3.2568 -1.1392
  972MOL0     H28286   2.415   3.285   3.595  0.1583  0.6522 -0.4400
  972MOL0     H28287   2.674   3.238   3.568 -0.9329  1.5945  0.4352
  972MOL0     H28288   2.995   2.713   3.358 -2.2577 -0.6996  2.1797
  972MOL0     H28289   3.230   2.698   3.433  1.6411  1.5723 -0.5564
  972MOL0     H28290   4.878   3.147   3.679 -2.1295 -1.7541 -1.0036
  972MOL0     H28291   5.120   3.199   3.561  1.5057 -1.0856 -1.0671
  972MOL0     H28292   5.466   3.136   3.470  0.4073  0.0366  1.0685
  972MOL0     H28293   5.720   3.129   3.448 -1.1425  0.8895  0.7191
  972MOL0     H28294   5.873   3.214   3.281  1.8059  0.7148 -0.9849
  972MOL0     H28295   5.900   3.143   3.136 -2.9174 -1.1527  0.1385
  972MOL0     H28296   6.104   3.019   3.240  0.0229  0.3944 -1.2421
  972MOL0     H28297   6.120   3.191   3.231  1.3053 -1.1680  0.9439
  972MOL0     H28298   6.169   3.073   3.472 -0.6645 -1.9329 -0.1011
  972MOL0     H28299   5.995   3.094   3.490 -0.4004 -0.7245 -0.7611
  972MOL0     H28300   6.028   3.343   3.490  1.2183  0.9750 -1.5372
  972MOL0     H28301   6.150   3.269   3.589  0.1664  2.3415 -0.6585
  972MOL0     H28302   6.424   3.416   3.357 -0.7202 -1.3892 -2.5324
  972MOL0     H28303   5.712   2.893   3.111  1.1158 -0.3197  0.6211
  972MOL0     H28304   5.471   2.896   3.103 -0.1311  0.7093 -0.4525
  973MOL0     O28305   2.866   2.147   3.734  0.0683  0.3289  0.1187
  973MOL0     C28306   2.828   2.072   3.640  0.0637 -0.4879 -0.2103
  973MOL0     O28307   2.870   1.945   3.622 -0.5765  0.8257  0.3381
  973MOL0     C28308   2.962   1.914   3.725 -0.5148 -0.2303  0.1238
  973MOL0     C28309   3.096   1.950   3.730 -0.0776  0.5355 -0.3192
  973MOL0     C28310   3.179   1.904   3.834 -0.0587 -0.2102 -0.4221
  973MOL0     C28311   3.134   1.815   3.933 -0.6565  0.4940 -0.3540
  973MOL0     O28312   3.210   1.754   4.037  0.5228  0.4202  0.3554
  973MOL0     C28313   3.328   1.812   4.090  0.5053 -0.5037 -0.8766
  973MOL0     C28314   3.366   1.729   4.220 -0.7130 -0.4367 -1.0743
  973MOL0     C28315   3.256   1.726   4.329  0.1538 -0.7162 -0.6902
  973MOL0     C28316   3.302   1.735   4.471  0.2589 -0.8392  0.4531
  973MOL0     C28317   3.193   1.802   4.554  0.1603 -0.3689 -0.8856
  973MOL0     C28318   3.243   1.931   4.643 -0.6719  0.4623  0.4187
  973MOL0     C28319   3.305   2.043   4.559 -0.7158  0.4073  0.3393
  973MOL0     C28320   3.196   2.127   4.491  0.4366  0.5978 -0.6872
  973MOL0     N28321   3.247   2.250   4.445 -0.4476  1.8425  0.8323
  973MOL0     C28322   3.226   2.375   4.506  0.7976  0.4574 -0.0283
  973MOL0     C28323   3.291   2.466   4.433  0.2573  0.4183  0.2423
  973MOL0     C28324   3.284   2.616   4.457 -1.2505  0.2307  0.0027
  973MOL0     C28325   3.262   2.641   4.606  0.3682 -1.3517  0.1585
  973MOL0     C28326   3.233   2.793   4.616  0.0442 -0.9158  0.5408
  973MOL0     C28327   3.091   2.825   4.559 -0.4632 -0.7919 -1.1897
  973MOL0     O28328   3.057   2.958   4.611 -0.4006  0.5176  0.3653
  973MOL0     C28329   2.950   3.016   4.554  0.7887 -1.2957 -0.1421
  973MOL0     C28330   2.810   3.003   4.594 -0.7524 -0.1615  0.4194
  973MOL0     C28331   2.713   3.083   4.547  0.1023 -0.5346  0.0724
  973MOL0     C28332   2.735   3.185   4.452 -0.5942  0.1441  0.5948
  973MOL0     C28333   2.635   3.288   4.409 -0.0667 -0.1393 -0.3053
  973MOL0     O28334   2.683   3.416   4.384 -0.3842  0.5355  0.2853
  973MOL0     C28335   2.592   3.505   4.331  0.8103  0.1764 -0.4991
  973MOL0     C28336   2.530   3.494   4.205 -0.0756 -0.1238 -0.4156
  973MOL0     C28337   2.436   3.592   4.154 -0.4348  0.1261 -0.5425
  973MOL0     C28338   2.395   3.696   4.241  0.9132  0.0915 -0.6912
  973MOL0     O28339   2.304   3.796   4.207  0.2815 -0.1724  0.3157
  973MOL0     C28340   2.202   3.765   4.107 -0.0084 -0.5721 -0.8889
  973MOL0     C28341   2.131   3.894   4.101 -0.1567 -0.2301 -0.1305
  973MOL0     C28342   2.018   3.886   4.003  0.8391 -0.8931 -0.1586
  973MOL0     C28343   1.929   4.018   4.026 -0.0933 -0.7950  0.3523
  973MOL0     C28344   1.986   4.132   3.952 -0.4540 -0.8237  0.3393
  973MOL0     C28345   1.918   4.255   3.988 -0.0783 -0.9895  0.5339
  973MOL0     C28346   1.973   4.376   3.909 -0.9866  0.9390 -0.0640
  973MOL0     C28347   1.927   4.514   3.967  0.8819 -0.2915  0.6672
  973MOL0    Cl28348   1.755   4.524   3.958  0.4560 -0.1281 -0.3115
  973MOL0     C28349   2.454   3.704   4.365  0.5405 -0.4504 -0.0046
  973MOL0     C28350   2.550   3.615   4.407  0.7291  0.2648 -0.7548
  973MOL0     O28351   2.519   3.256   4.398 -0.2878  0.2062  0.1390
  973MOL0     C28352   2.866   3.193   4.406  0.2359  0.3814 -0.0357
  973MOL0     C28353   2.975   3.114   4.450  0.5673 -0.0647  0.3659
  973MOL0     N28354   3.369   2.398   4.341 -0.6650 -0.2253  0.5983
  973MOL0     N28355   3.330   2.276   4.337  0.1301  0.6501  0.2104
  973MOL0     C28356   2.999   1.778   3.924 -0.0112  0.1433 -0.0297
  973MOL0     C28357   2.917   1.825   3.822  0.4309  0.1934 -1.1202
  973MOL0     C28358   2.729   2.114   3.545 -0.2729 -0.8292  0.1113
  973MOL0     C28359   2.676   2.020   3.451 -0.2847  0.5401  0.4652
  973MOL0     C28360   2.571   2.054   3.366 -0.9112  1.0838 -0.1238
  973MOL0     C28361   2.522   2.190   3.372 -0.5085  0.1322  0.0456
  973MOL0     O28362   2.435   2.239   3.279 -0.2995  0.2560 -0.3248
  973MOL0     C28363   2.397   2.380   3.282  0.3205 -0.6209  0.3858
  973MOL0     C28364   2.296   2.398   3.168  0.1345 -0.6357  0.7649
  973MOL0     C28365   2.157   2.344   3.197  0.0437 -0.2688 -0.9007
  973MOL0     C28366   2.060   2.390   3.084 -0.5261 -0.2838 -0.9734
  973MOL0     C28367   2.106   2.349   2.948  1.1651 -1.0485  0.2622
  973MOL0     C28368   2.148   2.324   2.834 -0.4634  0.6200 -0.0816
  973MOL0     C28369   2.593   2.279   3.449 -0.8956 -0.2624 -0.4121
  973MOL0     C28370   2.690   2.243   3.533  0.1055  0.5592  1.0408
  973MOL0     H28371   3.138   2.010   3.650 -0.8004 -2.6477 -3.3266
  973MOL0     H28372   3.286   1.917   3.844 -0.0245  0.5354 -1.6257
  973MOL0     H28373   3.316   1.916   4.122  3.2591 -1.4818  4.3718
  973MOL0     H28374   3.402   1.802   4.010 -0.5690 -0.7738 -1.8566
  973MOL0     H28375   3.459   1.754   4.272 -1.1979 -1.5834  0.3970
  973MOL0     H28376   3.387   1.629   4.182 -0.0500 -0.9280  0.5075
  973MOL0     H28377   3.188   1.641   4.332  0.2458 -0.7532  1.5183
  973MOL0     H28378   3.195   1.816   4.316  0.4778  0.0730  2.5526
  973MOL0     H28379   3.319   1.633   4.508 -1.9349 -1.0488  1.0301
  973MOL0     H28380   3.396   1.791   4.473  1.4175 -2.6272 -0.4308
  973MOL0     H28381   3.140   1.728   4.614 -0.4732  1.7046  1.2732
  973MOL0     H28382   3.120   1.853   4.490 -1.6897 -0.1142  1.3058
  973MOL0     H28383   3.325   1.896   4.707  2.1745  0.9526 -2.6894
  973MOL0     H28384   3.169   1.976   4.710 -0.0230  2.7757 -0.3535
  973MOL0     H28385   3.365   2.098   4.632 -0.1972 -2.6516  2.3938
  973MOL0     H28386   3.378   2.008   4.486 -3.2860 -0.1356 -2.1288
  973MOL0     H28387   3.120   2.150   4.566  0.7800  0.8626 -0.4164
  973MOL0     H28388   3.152   2.070   4.409  0.0606  1.4255 -1.0750
  973MOL0     H28389   3.154   2.397   4.584  0.4533  2.0804 -0.7812
  973MOL0     H28390   3.209   2.664   4.394 -2.2631  1.6171  2.1476
  973MOL0     H28391   3.381   2.662   4.440 -2.0648  2.1183  0.2899
  973MOL0     H28392   3.348   2.607   4.664  2.5500  0.8221 -1.6144
  973MOL0     H28393   3.168   2.592   4.634 -0.2364 -0.6778 -0.6240
  973MOL0     H28394   3.244   2.813   4.723  3.5448 -1.4110  0.3809
  973MOL0     H28395   3.293   2.863   4.557 -2.9182 -1.2735 -3.3318
  973MOL0     H28396   3.007   2.761   4.588  0.0264 -0.5291  0.9667
  973MOL0     H28397   3.099   2.838   4.451  5.8414  1.6414 -0.8720
  973MOL0     H28398   2.790   2.932   4.674  1.5334 -0.5413  0.7465
  973MOL0     H28399   2.613   3.076   4.588  0.3448  0.4119  0.8271
  973MOL0     H28400   2.553   3.413   4.136 -0.6197 -0.6724  0.0304
  973MOL0     H28401   2.389   3.571   4.059 -2.2597  2.9308 -0.3804
  973MOL0     H28402   2.141   3.682   4.146 -1.4082  0.7003 -0.2465
  973MOL0     H28403   2.237   3.734   4.009 -1.1990 -1.5127 -1.0470
  973MOL0     H28404   2.202   3.974   4.077 -1.7412  1.1894 -0.3100
  973MOL0     H28405   2.087   3.918   4.198  0.6811 -0.5779  0.3417
  973MOL0     H28406   1.956   3.802   4.036  0.4062 -0.6729 -0.3961
  973MOL0     H28407   2.049   3.885   3.898  2.6501 -3.0693  0.3364
  973MOL0     H28408   1.833   4.004   3.976  0.4408 -0.6793 -0.7265
  973MOL0     H28409   1.921   4.046   4.132 -1.0290  2.9456 -0.5734
  973MOL0     H28410   1.990   4.123   3.844 -1.3408  1.6945  0.0253
  973MOL0     H28411   2.088   4.144   3.992 -1.6099 -2.3150  4.2008
  973MOL0     H28412   1.924   4.275   4.096  1.3363  0.6399  0.1892
  973MOL0     H28413   1.812   4.249   3.961 -0.1213 -1.4375  0.7896
  973MOL0     H28414   2.081   4.390   3.921 -1.0864  1.8186 -0.1675
  973MOL0     H28415   1.956   4.349   3.805  0.9429  0.6467 -0.3499
  973MOL0     H28416   1.965   4.600   3.911 -0.2624 -2.2429 -3.5392
  973MOL0     H28417   1.947   4.520   4.074  2.0940 -0.6650  0.4685
  973MOL0     H28418   2.426   3.795   4.416 -0.1991 -0.0594 -1.0762
  973MOL0     H28419   2.577   3.639   4.509  1.3717  3.5403 -1.5733
  973MOL0     H28420   2.885   3.277   4.340 -1.0032 -0.8783 -2.0974
  973MOL0     H28421   3.074   3.118   4.406  0.6750 -1.8025  0.3769
  973MOL0     H28422   2.963   1.701   3.992 -0.0246 -3.3938 -3.6218
  973MOL0     H28423   2.810   1.808   3.820  0.0869  0.6840  3.3935
  973MOL0     H28424   2.693   1.913   3.446 -1.0091  0.4588 -0.4885
  973MOL0     H28425   2.533   1.985   3.291 -1.4846  0.6763  0.5301
  973MOL0     H28426   2.484   2.444   3.267  2.5971 -2.9323  2.6136
  973MOL0     H28427   2.346   2.408   3.375  1.6274 -0.4627  1.0794
  973MOL0     H28428   2.291   2.506   3.153 -0.4509 -0.4849  1.8984
  973MOL0     H28429   2.324   2.342   3.078 -1.3054  1.1457 -0.8797
  973MOL0     H28430   2.124   2.391   3.290  0.3760 -1.0988 -0.3527
  973MOL0     H28431   2.160   2.236   3.214  0.4080  0.1328  2.1308
  973MOL0     H28432   1.966   2.336   3.101 -0.0922 -0.7661 -0.0581
  973MOL0     H28433   2.047   2.499   3.082  4.4569  0.5218 -2.0062
  973MOL0     H28434   2.194   2.321   2.737 -0.0778  2.1132  0.0218
  973MOL0     H28435   2.570   2.384   3.458  1.8776  0.3581  0.4292
  973MOL0     H28436   2.735   2.314   3.602 -0.0739 -0.9656  2.7943
  974MOL0     O28437  10.908   7.381   6.451 -0.4473 -0.7230 -0.6238
  974MOL0     C28438  10.980   7.315   6.382 -0.4672  1.0113 -0.4435
  974MOL0     O28439  11.105   7.283   6.415  0.1953  0.5692  0.0454
  974MOL0     C28440  11.154   7.329   6.535  0.8351 -0.1779 -0.2000
  974MOL0     C28441  11.080   7.304   6.652  0.2653 -0.5428  0.4381
  974MOL0     C28442  11.118   7.368   6.766  0.3132  0.1671  0.8009
  974MOL0     C28443  11.236   7.432   6.775 -0.7516  1.2926  0.1984
  974MOL0     O28444  11.261   7.482   6.898 -0.1771 -0.8198  0.4776
  974MOL0     C28445  11.363   7.576   6.930  0.9849  0.4382  0.1413
  974MOL0     C28446  11.471   7.512   7.024  0.1706  0.8828  0.3729
  974MOL0     C28447  11.573   7.600   7.095  0.3557  0.4534 -0.5941
  974MOL0     C28448  11.683   7.669   7.014 -0.0176 -0.1767  0.0108
  974MOL0     C28449  11.805   7.707   7.097 -0.0275 -0.0342  0.0583
  974MOL0     C28450  11.911   7.775   7.011 -0.0221 -0.0433 -0.1264
  974MOL0     C28451  12.019   7.836   7.092  0.4477 -0.1238 -0.0799
  974MOL0     C28452  12.105   7.742   7.180 -0.9135  0.0990 -0.0764
  974MOL0     N28453  12.211   7.811   7.248 -0.5987  0.0814  0.0085
  974MOL0     C28454  12.349   7.795   7.227 -0.1304 -0.7435  0.9480
  974MOL0     C28455  12.407   7.850   7.339  0.3242 -0.0480 -0.5585
  974MOL0     C28456  12.552   7.851   7.384 -0.0568 -0.5937  0.6709
  974MOL0     C28457  12.636   7.915   7.274 -0.8955 -1.1999  0.0135
  974MOL0     C28458  12.780   7.944   7.329 -0.8463 -0.6767  0.0547
  974MOL0     C28459  12.861   7.818   7.348  0.3616 -0.4852 -0.0963
  974MOL0     O28460  12.996   7.862   7.368 -0.1850  0.2169 -0.4343
  974MOL0     C28461  13.062   7.886   7.253 -0.0768  0.2804  0.3349
  974MOL0     C28462  13.176   7.968   7.263 -1.2516 -0.6894  0.5900
  974MOL0     C28463  13.261   7.989   7.147  0.0519 -0.7135 -0.6961
  974MOL0     C28464  13.232   7.936   7.020  0.0090  0.9158 -0.4254
  974MOL0     C28465  13.312   7.979   6.900 -0.7036 -0.2229  0.2103
  974MOL0     O28466  13.425   8.044   6.924 -0.1449  0.2811  0.6695
  974MOL0     C28467  13.505   8.099   6.830  0.3711 -0.5343 -0.1791
  974MOL0     C28468  13.454   8.165   6.712  0.6407 -0.2998 -0.2968
  974MOL0     C28469  13.536   8.233   6.625 -0.0012 -1.2024  0.4355
  974MOL0     C28470  13.673   8.242   6.654  0.2833 -0.1796  0.2436
  974MOL0     O28471  13.754   8.321   6.566  0.1500  0.1869 -0.1143
  974MOL0     C28472  13.734   8.302   6.415  0.0096  0.0341 -0.3492
  974MOL0     C28473  13.866   8.337   6.341  0.0473 -0.0853 -0.2781
  974MOL0     C28474  13.863   8.298   6.196  0.3097  0.1851 -0.1478
  974MOL0     C28475  14.001   8.326   6.134 -0.0032  0.0611 -0.4926
  974MOL0     C28476  14.017   8.320   5.984 -0.0430  0.5509 -0.5006
  974MOL0     C28477  14.163   8.283   5.927 -0.6310  0.2877 -1.0290
  974MOL0     C28478  14.260   8.386   5.961 -0.9805 -1.4524  0.0682
  974MOL0     C28479  14.382   8.349   5.877  0.7027  0.5960 -0.8542
  974MOL0    Cl28480  14.536   8.397   5.963  0.2430 -0.4433  0.2970
  974MOL0     C28481  13.723   8.179   6.767  0.3972  0.7895 -0.1074
  974MOL0     C28482  13.635   8.105   6.856 -0.4212 -0.0936 -0.7188
  974MOL0     O28483  13.266   7.951   6.791  0.5330 -0.4067  0.0535
  974MOL0     C28484  13.125   7.846   7.013 -0.2747 -0.0376  0.0622
  974MOL0     C28485  13.039   7.826   7.134 -0.5271  0.0184  0.2945
  974MOL0     N28486  12.299   7.913   7.415  0.0739 -0.6744 -0.3487
  974MOL0     N28487  12.188   7.897   7.355 -0.4966 -0.1786 -1.0175
  974MOL0     C28488  11.315   7.449   6.659  0.0358 -0.5119 -1.2519
  974MOL0     C28489  11.274   7.390   6.542 -0.7291 -0.4632  0.3566
  974MOL0     C28490  10.939   7.273   6.244 -1.2020 -0.2798 -0.0653
  974MOL0     C28491  11.036   7.251   6.144 -0.4226 -0.4578 -1.1716
  974MOL0     C28492  10.992   7.226   6.016  0.9334 -0.2375  0.5092
  974MOL0     C28493  10.852   7.223   5.990  0.9586  0.1871  0.5284
  974MOL0     O28494  10.807   7.185   5.864 -0.1399 -0.6692 -0.0763
  974MOL0     C28495  10.683   7.110   5.838 -0.5073 -0.1810 -0.2034
  974MOL0     C28496  10.732   6.965   5.853  0.1425 -0.3810 -0.4333
  974MOL0     C28497  10.661   6.881   5.742  0.3353  1.0746  0.1410
  974MOL0     C28498  10.712   6.735   5.757  0.3913  0.2020 -0.2775
  974MOL0     C28499  10.670   6.671   5.892  0.5436  0.2864 -0.1509
  974MOL0     C28500  10.631   6.619   5.994  0.6586 -0.0192 -0.7455
  974MOL0     C28501  10.760   7.243   6.091  0.6692  0.0796 -0.1801
  974MOL0     C28502  10.804   7.275   6.220  0.9933  0.1256  0.0382
  974MOL0     H28503  10.978   7.266   6.646  0.6561 -1.7067  0.9303
  974MOL0     H28504  11.069   7.349   6.861  1.4560 -2.9258  0.9035
  974MOL0     H28505  11.305   7.650   6.986 -1.7102 -1.0931 -0.4343
  974MOL0     H28506  11.399   7.628   6.841  1.0695  0.6948  0.3243
  974MOL0     H28507  11.529   7.439   6.966 -2.7829 -0.6618 -0.8812
  974MOL0     H28508  11.422   7.439   7.090 -3.3172 -0.3550 -3.1945
  974MOL0     H28509  11.608   7.532   7.173 -1.8521  3.0407  2.9837
  974MOL0     H28510  11.516   7.672   7.155  1.3780 -0.0590  1.0869
  974MOL0     H28511  11.716   7.589   6.947 -3.1888 -0.9470 -0.8251
  974MOL0     H28512  11.640   7.756   6.962  0.9821  2.6290  3.4779
  974MOL0     H28513  11.851   7.620   7.145  3.5671  0.5641 -1.9522
  974MOL0     H28514  11.769   7.787   7.162  0.3432 -0.8940  1.3662
  974MOL0     H28515  11.856   7.856   6.961 -0.2003  1.6155  2.5263
  974MOL0     H28516  11.953   7.710   6.934 -0.4755 -0.1222 -0.3080
  974MOL0     H28517  12.077   7.892   7.018 -0.0099  0.5873  0.0941
  974MOL0     H28518  11.977   7.915   7.155  2.6298 -0.3617  1.8113
  974MOL0     H28519  12.155   7.664   7.122  0.8553  2.6130 -2.1642
  974MOL0     H28520  12.043   7.691   7.255  1.7389 -0.9615  1.5696
  974MOL0     H28521  12.393   7.735   7.148 -2.9097  1.7788 -2.8338
  974MOL0     H28522  12.578   7.750   7.416  0.3093 -0.3292  1.2195
  974MOL0     H28523  12.560   7.909   7.476 -2.8323  1.4336 -0.2232
  974MOL0     H28524  12.589   8.008   7.240  0.5234 -0.0959  0.9464
  974MOL0     H28525  12.652   7.848   7.189  0.9047 -0.6003 -0.1647
  974MOL0     H28526  12.838   8.022   7.279  0.3847  1.5776  4.4293
  974MOL0     H28527  12.778   7.985   7.431 -0.9004 -0.5285 -0.0062
  974MOL0     H28528  12.829   7.746   7.272  0.5513 -0.9989  0.3048
  974MOL0     H28529  12.826   7.772   7.441  0.9071 -1.0667 -0.1723
  974MOL0     H28530  13.207   8.013   7.357  0.6300  0.3951 -0.4761
  974MOL0     H28531  13.338   8.066   7.155  0.6921 -1.2764 -1.4377
  974MOL0     H28532  13.346   8.168   6.704  0.2368  2.0343  3.5162
  974MOL0     H28533  13.485   8.282   6.544 -2.2419  2.3550  3.6354
  974MOL0     H28534  13.653   8.359   6.369  2.5307  3.7620 -0.6116
  974MOL0     H28535  13.704   8.199   6.394  1.7582 -0.0703 -2.9575
  974MOL0     H28536  13.944   8.279   6.390  0.8036  1.5476  0.5159
  974MOL0     H28537  13.892   8.443   6.341  0.3516 -0.1573 -0.4046
  974MOL0     H28538  13.783   8.360   6.154  0.2654  0.3092  0.1176
  974MOL0     H28539  13.820   8.198   6.182  0.0276  0.7463 -4.9100
  974MOL0     H28540  14.022   8.431   6.157  0.5506 -0.3778  1.1175
  974MOL0     H28541  14.078   8.264   6.182  1.5128  1.7359 -0.6636
  974MOL0     H28542  13.993   8.423   5.956  1.6223  1.4846  1.3193
  974MOL0     H28543  13.949   8.250   5.934  0.2719 -0.4601  0.4505
  974MOL0     H28544  14.157   8.289   5.818  1.8977 -0.5847 -1.2667
  974MOL0     H28545  14.192   8.188   5.971  2.1439  1.1839 -0.7693
  974MOL0     H28546  14.230   8.490   5.949  1.3313 -0.3381  2.8702
  974MOL0     H28547  14.290   8.381   6.066 -3.5962  2.3117  1.1929
  974MOL0     H28548  14.373   8.375   5.771 -0.6300 -0.1884 -0.9577
  974MOL0     H28549  14.391   8.240   5.878 -0.2025  0.4925  1.5597
  974MOL0     H28550  13.827   8.195   6.793  0.4689 -1.8299  1.6088
  974MOL0     H28551  13.678   8.064   6.946 -1.5701  1.8187  0.7671
  974MOL0     H28552  13.107   7.798   6.917 -1.3564  1.3045 -0.4432
  974MOL0     H28553  12.964   7.747   7.131 -1.0156  0.1122  4.3499
  974MOL0     H28554  11.414   7.493   6.660  0.5353 -1.5977 -0.2420
  974MOL0     H28555  11.343   7.400   6.459  1.1062 -2.2250  1.5912
  974MOL0     H28556  11.142   7.256   6.165 -0.5577 -1.6958 -0.0266
  974MOL0     H28557  11.059   7.201   5.935  0.2626 -1.6701  0.3715
  974MOL0     H28558  10.641   7.131   5.740 -2.0357 -0.8271  0.2912
  974MOL0     H28559  10.599   7.141   5.900 -0.2343 -0.7695  0.4823
  974MOL0     H28560  10.838   6.957   5.830 -0.1503 -0.9883 -1.6583
  974MOL0     H28561  10.706   6.936   5.956 -1.8556  3.6457  0.4326
  974MOL0     H28562  10.714   6.905   5.650 -0.2828  1.7675 -0.0382
  974MOL0     H28563  10.551   6.886   5.742  0.1997 -0.8787  0.2185
  974MOL0     H28564  10.678   6.656   5.689 -1.2879 -1.9235  2.7809
  974MOL0     H28565  10.820   6.735   5.742  1.0115 -0.8774  3.2782
  974MOL0     H28566  10.600   6.577   6.088  2.3816  0.0935 -0.1020
  974MOL0     H28567  10.653   7.248   6.073  0.4271  1.0818  1.3499
  974MOL0     H28568  10.733   7.297   6.298 -0.7201 -0.2402 -1.3393
  975MOL0     O28569  10.982   3.696   1.415  0.5701  0.3481  0.7849
  975MOL0     C28570  11.038   3.608   1.347 -0.2396 -0.7469  0.5548
  975MOL0     O28571  11.077   3.485   1.382  0.2219  0.6464  0.2463
  975MOL0     C28572  11.038   3.417   1.500 -0.4455  0.0302 -0.2814
  975MOL0     C28573  10.908   3.419   1.561  0.5232 -0.0582 -0.7065
  975MOL0     C28574  10.870   3.328   1.666  0.3401  0.2017 -0.0104
  975MOL0     C28575  10.965   3.238   1.721 -1.8277  0.1483  0.7754
  975MOL0     O28576  10.939   3.149   1.823 -0.2887  0.1130  0.6007
  975MOL0     C28577  11.041   3.063   1.872  0.2761 -0.5942  0.4829
  975MOL0     C28578  10.973   2.955   1.951 -0.1443  0.8269 -0.2971
  975MOL0     C28579  11.039   2.822   1.938 -0.4973 -0.1007 -0.0446
  975MOL0     C28580  10.960   2.718   2.023  0.6734 -0.0245  0.6609
  975MOL0     C28581  10.974   2.567   1.988 -0.3418  0.2515 -0.1588
  975MOL0     C28582  11.124   2.517   2.007 -0.2619 -0.2023 -0.0910
  975MOL0     C28583  11.132   2.370   2.043 -0.1999  0.9823  0.0913
  975MOL0     C28584  11.124   2.277   1.918 -0.1564 -0.2375  0.2679
  975MOL0     N28585  10.991   2.248   1.877  0.3070 -0.3698 -0.1696
  975MOL0     C28586  10.903   2.157   1.935  0.1800 -0.5730  0.3246
  975MOL0     C28587  10.812   2.139   1.836  0.3249  0.2511  0.2228
  975MOL0     C28588  10.707   2.036   1.843  1.3342 -0.1319 -0.0046
  975MOL0     C28589  10.767   1.894   1.818  0.0791  0.5794  0.2724
  975MOL0     C28590  10.664   1.781   1.825 -1.0143  0.6203  0.2548
  975MOL0     C28591  10.558   1.824   1.727  0.3750 -0.7213  0.1522
  975MOL0     O28592  10.474   1.714   1.688  0.1960  0.8345 -0.6550
  975MOL0     C28593  10.505   1.635   1.578  0.2254 -0.4258 -0.2765
  975MOL0     C28594  10.627   1.640   1.510  0.2606  1.1247 -0.4854
  975MOL0     C28595  10.653   1.557   1.401  0.3665  0.6540  0.2419
  975MOL0     C28596  10.557   1.472   1.353  0.2042  0.2156  0.8134
  975MOL0     C28597  10.582   1.391   1.231 -0.1896  0.0353  0.1817
  975MOL0     O28598  10.500   1.393   1.124 -0.3098 -0.3270  0.1417
  975MOL0     C28599  10.539   1.337   1.003  0.6237 -0.2028 -0.5825
  975MOL0     C28600  10.505   1.415   0.893 -0.2281  0.2697 -0.2952
  975MOL0     C28601  10.544   1.367   0.765  0.5346 -0.3694 -1.0807
  975MOL0     C28602  10.592   1.238   0.745 -0.6517  0.5958 -0.0740
  975MOL0     O28603  10.605   1.169   0.621  0.0411 -0.2087 -0.1403
  975MOL0     C28604  10.729   1.101   0.617  0.8966  0.3149  0.9058
  975MOL0     C28605  10.776   1.094   0.467  0.4839 -0.1523 -1.1705
  975MOL0     C28606  10.770   1.245   0.401 -0.0211  0.1868 -0.1986
  975MOL0     C28607  10.888   1.325   0.449 -0.5996 -0.1567  0.2513
  975MOL0     C28608  10.894   1.450   0.363  0.1243 -0.3908 -0.5915
  975MOL0     C28609  10.945   1.417   0.223 -0.5209 -0.2488  0.6123
  975MOL0     C28610  10.968   1.546   0.142  0.1396 -0.8231  0.1906
  975MOL0     C28611  10.863   1.560   0.034 -0.5729 -0.2597 -0.0677
  975MOL0    Cl28612  10.890   1.707  -0.064  0.1770  0.0292  0.6298
  975MOL0     C28613  10.623   1.161   0.859  0.5169 -0.2052 -0.4850
  975MOL0     C28614  10.598   1.207   0.986 -0.4038 -0.3593  0.6109
  975MOL0     O28615  10.690   1.337   1.237 -0.0813 -0.4871 -0.0513
  975MOL0     C28616  10.433   1.477   1.417 -0.0202  0.1520  0.0530
  975MOL0     C28617  10.399   1.564   1.520  0.0803 -1.2639  0.3227
  975MOL0     N28618  10.824   2.233   1.739  0.0301 -0.4904  1.1125
  975MOL0     N28619  10.934   2.296   1.761 -0.6807  0.1415 -0.7985
  975MOL0     C28620  11.094   3.235   1.653 -0.3915 -0.1774 -0.2809
  975MOL0     C28621  11.122   3.312   1.540 -0.2720 -0.3887 -0.0067
  975MOL0     C28622  11.098   3.660   1.218  0.2691  0.3296 -0.1898
  975MOL0     C28623  11.193   3.584   1.143 -0.0103  0.3967  0.7261
  975MOL0     C28624  11.244   3.637   1.028 -0.0086  0.6797  0.7085
  975MOL0     C28625  11.202   3.751   0.975 -0.6986 -0.0061  0.1460
  975MOL0     O28626  11.256   3.796   0.855 -0.6100 -0.6940 -0.6054
  975MOL0     C28627  11.213   3.916   0.787  0.0235  0.1949  0.7472
  975MOL0     C28628  11.286   3.946   0.652 -0.2703  0.4510 -0.3897
  975MOL0     C28629  11.431   3.982   0.673  0.1638  0.2001 -0.4346
  975MOL0     C28630  11.482   4.035   0.537 -1.0475 -0.1956  0.6939
  975MOL0     C28631  11.628   4.046   0.549 -0.7745  0.3103  0.0166
  975MOL0     C28632  11.750   4.051   0.542 -0.8739 -0.4518 -0.1258
  975MOL0     C28633  11.095   3.818   1.038  0.1342  0.0937  0.3522
  975MOL0     C28634  11.052   3.780   1.159 -0.3158 -0.3494  0.4002
  975MOL0     H28635  10.841   3.500   1.534 -0.2238  0.4106  2.2127
  975MOL0     H28636  10.770   3.325   1.710  1.1699 -0.7445  1.9471
  975MOL0     H28637  11.118   3.107   1.936  0.6512  0.5188 -0.6812
  975MOL0     H28638  11.104   3.027   1.790  0.6583  3.1200 -1.0819
  975MOL0     H28639  10.870   2.941   1.916 -0.1617 -4.6507  1.1391
  975MOL0     H28640  10.965   2.991   2.054 -2.0629  2.3574 -0.9057
  975MOL0     H28641  11.146   2.814   1.959 -0.4344  1.0465  0.1126
  975MOL0     H28642  11.038   2.776   1.839 -2.3024  1.4919 -0.8087
  975MOL0     H28643  10.985   2.731   2.129 -1.5154 -2.4716  1.5886
  975MOL0     H28644  10.852   2.732   2.021  0.7519  0.6851 -1.4460
  975MOL0     H28645  10.941   2.532   1.890 -0.0948 -3.2971  0.8778
  975MOL0     H28646  10.915   2.509   2.059 -1.9940  1.4863 -0.4813
  975MOL0     H28647  11.169   2.581   2.084 -0.7117  0.3259 -0.2589
  975MOL0     H28648  11.185   2.533   1.918 -0.0467 -2.8953 -0.5039
  975MOL0     H28649  11.230   2.356   2.090 -1.1681 -0.9037  1.6582
  975MOL0     H28650  11.052   2.342   2.112  0.4507 -2.0098 -0.2641
  975MOL0     H28651  11.174   2.185   1.948 -0.8626 -0.4826  0.7038
  975MOL0     H28652  11.176   2.327   1.835 -0.7851  1.0412  0.6266
  975MOL0     H28653  10.909   2.101   2.027  0.4319 -0.2919  0.4813
  975MOL0     H28654  10.632   2.069   1.771  3.1320  5.4336  0.1873
  975MOL0     H28655  10.663   2.045   1.943  1.2454 -0.7953  0.0246
  975MOL0     H28656  10.853   1.866   1.879 -0.0375  0.2895  0.3055
  975MOL0     H28657  10.804   1.890   1.715 -0.8972 -2.1570 -0.0467
  975MOL0     H28658  10.710   1.690   1.786 -0.3124  1.8023 -1.8201
  975MOL0     H28659  10.615   1.764   1.921 -1.9271 -0.7474 -0.4297
  975MOL0     H28660  10.588   1.864   1.630 -1.0067 -4.2502 -1.9426
  975MOL0     H28661  10.498   1.897   1.781  0.3718 -0.5128 -0.1320
  975MOL0     H28662  10.703   1.713   1.538 -0.6714  1.4325  1.3882
  975MOL0     H28663  10.751   1.556   1.355  0.3486  0.5122  0.2072
  975MOL0     H28664  10.472   1.515   0.917 -0.0794  0.1451  0.4534
  975MOL0     H28665  10.521   1.440   0.688  1.4623  1.0294 -0.0944
  975MOL0     H28666  10.700   1.001   0.649 -2.9081  0.3596 -1.7134
  975MOL0     H28667  10.804   1.149   0.681 -0.9797  3.7972  0.7462
  975MOL0     H28668  10.711   1.021   0.418  2.3354 -2.8667  0.1370
  975MOL0     H28669  10.875   1.049   0.455  0.0568 -1.8456  1.0139
  975MOL0     H28670  10.675   1.295   0.422  0.0534  0.5375 -0.7069
  975MOL0     H28671  10.769   1.216   0.296 -2.1355 -0.7557  0.0264
  975MOL0     H28672  10.892   1.356   0.554  0.7215 -0.8105  0.4244
  975MOL0     H28673  10.980   1.266   0.442  0.1513  0.2913  4.2020
  975MOL0     H28674  10.976   1.503   0.412 -1.9164 -0.3139  3.1509
  975MOL0     H28675  10.796   1.499   0.368 -0.4112 -1.5204  0.3169
  975MOL0     H28676  10.869   1.357   0.174 -0.2302 -0.9473  1.0039
  975MOL0     H28677  11.037   1.359   0.233 -0.2670  0.2492  1.2429
  975MOL0     H28678  10.969   1.634   0.208 -1.9726 -1.0593  0.5926
  975MOL0     H28679  11.065   1.532   0.094  1.5366 -0.5969  2.7563
  975MOL0     H28680  10.770   1.560   0.091 -0.4243 -3.4720  0.3259
  975MOL0     H28681  10.861   1.473  -0.033  1.8611 -1.2751  1.0442
  975MOL0     H28682  10.659   1.059   0.853 -0.1121 -0.4093 -0.9909
  975MOL0     H28683  10.611   1.142   1.071  3.5048 -0.2509  0.2918
  975MOL0     H28684  10.360   1.411   1.371 -1.0808  2.1869 -1.3215
  975MOL0     H28685  10.299   1.560   1.561  0.5745 -0.7581  1.6380
  975MOL0     H28686  11.174   3.182   1.705  0.3436  1.7510  0.6428
  975MOL0     H28687  11.214   3.285   1.489  1.3438 -0.3941  2.7449
  975MOL0     H28688  11.224   3.488   1.182 -0.2427 -1.6937 -3.6494
  975MOL0     H28689  11.318   3.587   0.966 -1.7554  2.1897 -2.8505
  975MOL0     H28690  11.237   3.994   0.860  0.9285 -2.3081  3.2999
  975MOL0     H28691  11.105   3.916   0.770 -0.0051  2.7394  0.5741
  975MOL0     H28692  11.271   3.860   0.585 -2.9767 -1.8086  2.7918
  975MOL0     H28693  11.249   4.030   0.592  0.8582 -0.0912 -1.9272
  975MOL0     H28694  11.471   3.883   0.699 -0.2355  1.0667  4.3359
  975MOL0     H28695  11.458   4.042   0.760  0.9396 -1.0156  0.2066
  975MOL0     H28696  11.449   3.973   0.454  2.0537 -0.7622 -0.2315
  975MOL0     H28697  11.436   4.134   0.527  0.3475  0.5099  0.9892
  975MOL0     H28698  11.856   4.048   0.528 -0.5401  1.4568  1.5733
  975MOL0     H28699  11.045   3.901   0.990 -0.0230  0.2506  0.7796
  975MOL0     H28700  10.980   3.845   1.207 -0.5741 -1.9687  2.3686
  976MOL0     O28701   9.676   2.969   5.709 -0.2831 -0.4735 -0.6527
  976MOL0     C28702   9.556   2.936   5.729 -0.1240 -0.2254 -1.2514
  976MOL0     O28703   9.471   2.874   5.639  0.8806 -0.4856  0.1532
  976MOL0     C28704   9.528   2.851   5.515  0.2619 -1.0470  0.6840
  976MOL0     C28705   9.519   2.719   5.475 -0.2880 -0.5167  1.2134
  976MOL0     C28706   9.559   2.678   5.343 -0.3995 -0.1738 -0.7765
  976MOL0     C28707   9.613   2.775   5.258 -0.0347 -0.9351  0.1325
  976MOL0     O28708   9.663   2.754   5.130  0.0720  0.5022  0.2035
  976MOL0     C28709   9.601   2.651   5.049 -0.0397  0.0040  0.4326
  976MOL0     C28710   9.653   2.648   4.903  0.1582 -0.1488 -0.3712
  976MOL0     C28711   9.810   2.622   4.902 -0.0272  1.1212  0.4920
  976MOL0     C28712   9.852   2.584   4.763 -0.2204 -0.5400  0.5162
  976MOL0     C28713   9.993   2.622   4.706  0.0183  0.5077  0.7365
  976MOL0     C28714  10.109   2.559   4.791  0.2459 -0.0116  0.1622
  976MOL0     C28715  10.252   2.579   4.725  0.0801 -0.3927 -1.2155
  976MOL0     C28716  10.357   2.513   4.812 -0.0151  0.2139  0.1180
  976MOL0     N28717  10.494   2.537   4.779  0.3321  0.3566  0.6635
  976MOL0     C28718  10.573   2.625   4.851  0.8160 -0.0773 -0.0262
  976MOL0     C28719  10.690   2.614   4.788  0.0385 -0.6946 -0.1486
  976MOL0     C28720  10.822   2.698   4.806 -0.8580  0.4723  0.3664
  976MOL0     C28721  10.833   2.790   4.679 -0.2428 -0.4811  0.5454
  976MOL0     C28722  10.962   2.882   4.670  0.2561  0.5313 -0.2545
  976MOL0     C28723  11.090   2.794   4.657 -0.1854  0.4159  0.6004
  976MOL0     O28724  11.193   2.868   4.602 -0.1803 -0.0073  0.8885
  976MOL0     C28725  11.275   2.804   4.513  0.4581 -0.6057 -0.2605
  976MOL0     C28726  11.412   2.836   4.527  0.2636  0.7208 -0.0192
  976MOL0     C28727  11.503   2.789   4.438  0.0030 -0.0937  0.5818
  976MOL0     C28728  11.459   2.706   4.334  0.2532 -0.6853 -0.1583
  976MOL0     C28729  11.557   2.658   4.236  0.5451 -0.2487  0.2842
  976MOL0     O28730  11.508   2.601   4.122 -0.5765  0.6365 -0.1091
  976MOL0     C28731  11.585   2.523   4.039  0.0114  0.2787 -0.6179
  976MOL0     C28732  11.685   2.431   4.087 -0.4672 -0.6666  0.5435
  976MOL0     C28733  11.760   2.356   3.995  0.3593  0.5992 -0.0631
  976MOL0     C28734  11.729   2.349   3.858  0.8600  0.2664 -0.8630
  976MOL0     O28735  11.810   2.267   3.782  0.0962  0.2164  0.1530
  976MOL0     C28736  11.833   2.290   3.644  0.0032 -0.3254  0.2783
  976MOL0     C28737  11.949   2.202   3.612  0.2862 -0.4561  0.2140
  976MOL0     C28738  12.079   2.267   3.638 -0.3319  0.8321  0.3432
  976MOL0     C28739  12.195   2.178   3.610  0.0224 -0.0994 -0.8190
  976MOL0     C28740  12.321   2.229   3.673 -0.6050 -0.9213  0.6799
  976MOL0     C28741  12.421   2.116   3.663  0.7758 -0.7138 -0.4113
  976MOL0     C28742  12.564   2.161   3.674 -0.5251 -0.6442  0.4539
  976MOL0     C28743  12.659   2.042   3.678 -0.9485 -0.3222 -0.6420
  976MOL0    Cl28744  12.824   2.081   3.730  0.4828  0.4257  0.3638
  976MOL0     C28745  11.624   2.435   3.814 -0.4136 -0.0087  0.9019
  976MOL0     C28746  11.557   2.516   3.905 -0.5077  0.2903 -0.2981
  976MOL0     O28747  11.673   2.674   4.265  0.4318 -0.5163  0.1038
  976MOL0     C28748  11.322   2.687   4.316 -0.3367 -0.7746 -0.6353
  976MOL0     C28749  11.233   2.731   4.406  0.7141 -0.1053 -0.0883
  976MOL0     N28750  10.680   2.521   4.686  0.0723  0.1808  0.2482
  976MOL0     N28751  10.565   2.465   4.695 -0.3403 -0.1760 -0.1098
  976MOL0     C28752   9.634   2.907   5.304 -0.1396 -1.0878  0.2228
  976MOL0     C28753   9.588   2.942   5.433 -0.1261  0.6339  0.6045
  976MOL0     C28754   9.495   2.985   5.862  0.8983  0.2272  1.0075
  976MOL0     C28755   9.564   3.052   5.950  0.2457 -0.2057 -0.5561
  976MOL0     C28756   9.513   3.081   6.084 -0.5243  0.8379 -0.6007
  976MOL0     C28757   9.388   3.031   6.115  0.8738 -0.3131 -0.3035
  976MOL0     O28758   9.321   3.047   6.235 -0.2543  0.3967 -0.2139
  976MOL0     C28759   9.366   3.158   6.317  0.9295  0.3874  0.0449
  976MOL0     C28760   9.263   3.205   6.420 -0.5042 -0.7222 -0.5593
  976MOL0     C28761   9.271   3.129   6.555  0.3511 -0.0282  0.0240
  976MOL0     C28762   9.144   3.147   6.628 -0.4637 -0.0150  0.1259
  976MOL0     C28763   9.156   3.124   6.772  0.2696 -0.9927  0.5429
  976MOL0     C28764   9.151   3.103   6.885 -1.0234  0.0195 -0.4216
  976MOL0     C28765   9.318   2.946   6.021 -0.2029 -0.0235 -0.9934
  976MOL0     C28766   9.375   2.924   5.901 -0.3036 -1.0661 -0.2141
  976MOL0     H28767   9.466   2.645   5.534  1.9720  0.3004  4.5354
  976MOL0     H28768   9.535   2.579   5.305 -0.5188  0.7037 -3.0989
  976MOL0     H28769   9.497   2.681   5.033  0.3206  1.5637  0.8294
  976MOL0     H28770   9.609   2.552   5.095 -1.2795 -0.7262 -0.8619
  976MOL0     H28771   9.620   2.735   4.845 -1.6826  0.3771  1.3655
  976MOL0     H28772   9.610   2.562   4.851 -1.5970  0.7183 -0.4054
  976MOL0     H28773   9.838   2.550   4.979  2.0259  1.3648  0.0264
  976MOL0     H28774   9.860   2.716   4.928 -2.0823  1.3561  4.3112
  976MOL0     H28775   9.847   2.475   4.760 -0.7303 -0.5395  1.1973
  976MOL0     H28776   9.783   2.623   4.688  1.1745 -0.0244 -0.5482
  976MOL0     H28777  10.004   2.729   4.689  1.9586  0.1072 -0.7277
  976MOL0     H28778   9.993   2.592   4.601 -1.0378 -3.0877  1.5928
  976MOL0     H28779  10.097   2.450   4.788 -1.3538  0.1554 -0.3077
  976MOL0     H28780  10.111   2.600   4.893 -2.8148 -0.1984  0.3920
  976MOL0     H28781  10.239   2.533   4.627  1.2204  0.0794 -1.6008
  976MOL0     H28782  10.270   2.687   4.721 -1.7059  0.4731  4.4273
  976MOL0     H28783  10.351   2.404   4.816 -0.0141  0.2574  1.5681
  976MOL0     H28784  10.357   2.559   4.911  3.4827 -2.2341  1.4349
  976MOL0     H28785  10.538   2.696   4.926  1.0903  0.3540 -0.2965
  976MOL0     H28786  10.907   2.630   4.801 -0.4055  1.0421  0.2648
  976MOL0     H28787  10.818   2.756   4.899 -0.2420  1.4505 -0.1976
  976MOL0     H28788  10.752   2.863   4.678  1.0318  0.9666 -0.1573
  976MOL0     H28789  10.824   2.733   4.585 -0.4447  0.3808  0.0336
  976MOL0     H28790  10.957   2.951   4.585  1.7504 -0.7664 -1.4376
  976MOL0     H28791  10.950   2.936   4.765 -0.7638 -0.0829 -0.0147
  976MOL0     H28792  11.065   2.707   4.596  0.9984  1.4346 -1.4265
  976MOL0     H28793  11.126   2.753   4.753  0.6745  1.0436  0.5525
  976MOL0     H28794  11.443   2.899   4.609 -0.5723  0.9092  0.1668
  976MOL0     H28795  11.603   2.830   4.447 -0.4404  0.9971  0.6497
  976MOL0     H28796  11.710   2.434   4.193  5.9162  1.8602 -0.6187
  976MOL0     H28797  11.843   2.291   4.020  0.2116 -0.2523 -1.6834
  976MOL0     H28798  11.850   2.395   3.620  0.8533 -0.3894  0.5755
  976MOL0     H28799  11.733   2.268   3.605  0.6427 -0.8271 -1.1326
  976MOL0     H28800  11.934   2.159   3.512  2.0763  1.1516 -0.8112
  976MOL0     H28801  11.935   2.118   3.680  0.8361  2.0307  3.6431
  976MOL0     H28802  12.076   2.315   3.736 -2.5939  2.6894 -0.5429
  976MOL0     H28803  12.077   2.346   3.561 -2.0643 -0.1470 -0.6744
  976MOL0     H28804  12.186   2.075   3.645 -0.1073  0.2728  0.2606
  976MOL0     H28805  12.211   2.163   3.503  1.5441 -0.9496 -0.5003
  976MOL0     H28806  12.310   2.269   3.774  0.5022 -1.7793  1.1603
  976MOL0     H28807  12.358   2.312   3.611 -2.6126 -0.0312  0.5896
  976MOL0     H28808  12.409   2.070   3.565  0.0594 -2.6745  0.5455
  976MOL0     H28809  12.399   2.035   3.733 -2.5614 -0.0822 -0.5925
  976MOL0     H28810  12.598   2.222   3.591 -0.6545 -0.6685  0.3820
  976MOL0     H28811  12.582   2.228   3.759  0.5118  0.5461 -0.6762
  976MOL0     H28812  12.658   2.003   3.576 -1.7460  1.4434 -1.3372
  976MOL0     H28813  12.625   1.960   3.742  1.9023 -3.9476 -3.2960
  976MOL0     H28814  11.605   2.440   3.707 -3.6153 -4.4368  1.0125
  976MOL0     H28815  11.480   2.576   3.858  0.2874  0.7170 -1.0935
  976MOL0     H28816  11.268   2.635   4.238 -0.6337 -1.8832  0.2835
  976MOL0     H28817  11.127   2.707   4.398  1.2176 -2.6271  0.0216
  976MOL0     H28818   9.680   2.986   5.245  0.3838 -1.6514 -0.1422
  976MOL0     H28819   9.592   3.046   5.464  0.3533  1.1832 -1.1558
  976MOL0     H28820   9.649   3.108   5.912 -1.4914  2.7045 -0.3802
  976MOL0     H28821   9.564   3.147   6.153 -0.3725  1.1887 -1.0482
  976MOL0     H28822   9.405   3.244   6.261 -0.1830  0.1065 -1.1987
  976MOL0     H28823   9.448   3.117   6.378 -2.2938 -4.2180  1.8305
  976MOL0     H28824   9.272   3.312   6.440 -0.4263 -0.8529  0.1219
  976MOL0     H28825   9.165   3.182   6.376 -2.4084  0.3069  2.7626
  976MOL0     H28826   9.353   3.172   6.612 -0.5927  0.1966  1.2581
  976MOL0     H28827   9.285   3.024   6.528 -0.4377  0.1942 -1.4059
  976MOL0     H28828   9.105   3.248   6.614  1.6538  0.5464 -2.8822
  976MOL0     H28829   9.074   3.077   6.582 -1.4535  1.2748 -0.3799
  976MOL0     H28830   9.159   3.074   6.988  0.0002  1.7799  0.0434
  976MOL0     H28831   9.224   2.897   6.045 -2.0013  2.4790 -2.4353
  976MOL0     H28832   9.316   2.855   5.841  1.0142 -2.4193 -0.0183
  977MOL0     O28833   1.266   6.361  11.342 -0.4153  0.1036  0.1828
  977MOL0     C28834   1.257   6.246  11.305  0.3811  0.4094  0.1334
  977MOL0     O28835   1.358   6.149  11.299 -0.1648  0.5440  0.6766
  977MOL0     C28836   1.490   6.181  11.330  0.0802 -0.1738  0.2490
  977MOL0     C28837   1.511   6.199  11.463  0.4501 -0.7547 -1.0602
  977MOL0     C28838   1.642   6.216  11.507 -0.9716  0.1447 -0.4199
  977MOL0     C28839   1.748   6.206  11.415  0.7095  0.7832  0.3369
  977MOL0     O28840   1.879   6.233  11.440  0.2824 -1.0118  0.3776
  977MOL0     C28841   1.920   6.263  11.571  0.6086 -0.3367  0.3929
  977MOL0     C28842   2.061   6.315  11.579 -0.0620  0.4334 -0.2183
  977MOL0     C28843   2.162   6.199  11.557 -0.5239  0.4102 -1.2001
  977MOL0     C28844   2.303   6.257  11.527 -0.1272  1.0776  0.7425
  977MOL0     C28845   2.417   6.178  11.595  0.2447  0.7442  0.7861
  977MOL0     C28846   2.552   6.223  11.541 -0.3656  0.2330 -0.4214
  977MOL0     C28847   2.668   6.137  11.579  0.2831  0.2774 -0.2775
  977MOL0     C28848   2.705   6.036  11.472  0.2544 -0.5052 -0.3504
  977MOL0     N28849   2.606   5.941  11.424 -0.7628  1.1650  0.8925
  977MOL0     C28850   2.559   5.940  11.293  0.2118  0.3078 -0.0273
  977MOL0     C28851   2.492   5.829  11.284 -0.3034  0.2890 -0.2712
  977MOL0     C28852   2.419   5.782  11.163  0.2358 -0.4493 -0.2285
  977MOL0     C28853   2.410   5.629  11.165 -0.4441  0.3485 -0.0809
  977MOL0     C28854   2.340   5.585  11.037  0.6774  1.0521 -0.7551
  977MOL0     C28855   2.233   5.482  11.068 -0.2037  1.0064  0.5830
  977MOL0     O28856   2.115   5.533  11.144  1.0386  0.5682  0.1194
  977MOL0     C28857   2.025   5.433  11.177 -0.4946 -0.5195  0.1240
  977MOL0     C28858   2.019   5.308  11.119 -0.1633  0.8119 -0.7484
  977MOL0     C28859   1.926   5.214  11.164  0.6323  0.4687  0.4117
  977MOL0     C28860   1.846   5.237  11.272  0.9183 -0.6520  0.0334
  977MOL0     C28861   1.747   5.141  11.337 -0.1086  0.5406 -0.5093
  977MOL0     O28862   1.713   5.157  11.475 -0.4916  0.0491  0.4683
  977MOL0     C28863   1.633   5.070  11.540  0.1260 -0.2527 -0.2364
  977MOL0     C28864   1.626   4.927  11.513  0.0740 -0.2434 -0.0675
  977MOL0     C28865   1.532   4.850  11.591 -0.5503  0.2629  0.1069
  977MOL0     C28866   1.429   4.918  11.670  0.9620 -0.4075  0.3055
  977MOL0     O28867   1.325   4.850  11.730  0.0212  1.4703 -0.4194
  977MOL0     C28868   1.357   4.721  11.793 -0.2252 -0.6225 -0.3415
  977MOL0     C28869   1.228   4.678  11.858  0.1999 -0.1622  0.6399
  977MOL0     C28870   1.246   4.550  11.939 -0.4839  0.5983 -1.0328
  977MOL0     C28871   1.110   4.514  12.001 -0.1551  0.2545 -0.8557
  977MOL0     C28872   1.118   4.404  12.104  0.3458  0.1288 -0.2677
  977MOL0     C28873   1.112   4.265  12.039 -0.4080  0.4074 -0.7344
  977MOL0     C28874   1.140   4.161  12.142  0.1675  0.1552 -0.5295
  977MOL0     C28875   1.027   4.145  12.258  0.1897  0.1325 -0.3790
  977MOL0    Cl28876   1.063   3.995  12.350 -0.2222  0.3829  0.2277
  977MOL0     C28877   1.436   5.057  11.683  0.2719  0.2702  0.0721
  977MOL0     C28878   1.542   5.132  11.625  0.1999 -0.4714 -0.0702
  977MOL0     O28879   1.711   5.048  11.264  0.7045 -0.3439 -0.1817
  977MOL0     C28880   1.847   5.365  11.320  0.4712  0.1126 -0.3639
  977MOL0     C28881   1.940   5.455  11.287 -0.7341  0.0496  0.2028
  977MOL0     N28882   2.504   5.757  11.410  0.3198  0.5740  1.1847
  977MOL0     N28883   2.568   5.830  11.495  0.8565 -0.3123 -0.7075
  977MOL0     C28884   1.719   6.196  11.280  0.0600  0.8734  0.2025
  977MOL0     C28885   1.588   6.182  11.237  0.6134  1.0082 -0.6248
  977MOL0     C28886   1.123   6.190  11.266  0.4677 -0.9261 -0.1476
  977MOL0     C28887   1.103   6.047  11.269  0.0665 -0.2379  0.5406
  977MOL0     C28888   0.975   5.993  11.235 -0.1851 -0.9708 -0.1369
  977MOL0     C28889   0.875   6.076  11.185  0.4197 -0.3519  0.9677
  977MOL0     O28890   0.745   6.036  11.167 -0.0003  0.1167  0.5977
  977MOL0     C28891   0.715   5.903  11.209  1.1657 -0.6442  0.3759
  977MOL0     C28892   0.559   5.885  11.200  0.4255 -0.2204 -0.1146
  977MOL0     C28893   0.518   5.734  11.249 -0.3384  0.7452 -0.2393
  977MOL0     C28894   0.547   5.701  11.398  0.7506 -0.0127 -0.3910
  977MOL0     C28895   0.448   5.775  11.485 -0.8558  0.1057  0.2596
  977MOL0     C28896   0.361   5.846  11.532 -0.6851 -0.6400  0.0777
  977MOL0     C28897   0.896   6.216  11.193 -0.6959  0.2956  0.2209
  977MOL0     C28898   1.016   6.282  11.232 -0.5580 -0.5577  0.5483
  977MOL0     H28899   1.435   6.227  11.535  0.8940 -3.3271  0.5416
  977MOL0     H28900   1.664   6.224  11.613  1.3503  1.3987 -0.9506
  977MOL0     H28901   1.903   6.173  11.631  0.3246 -2.2160 -2.3737
  977MOL0     H28902   1.850   6.333  11.618  0.1604 -2.0477  2.4575
  977MOL0     H28903   2.071   6.363  11.677 -1.5701 -0.7407  0.5555
  977MOL0     H28904   2.071   6.401  11.512 -1.5422  2.7891  2.3383
  977MOL0     H28905   2.141   6.129  11.476  1.4961 -0.2252 -1.2270
  977MOL0     H28906   2.168   6.145  11.652 -0.1984 -0.1035 -1.5111
  977MOL0     H28907   2.306   6.248  11.418 -1.1565 -1.4844  0.8524
  977MOL0     H28908   2.301   6.366  11.541  1.3074  1.2984 -0.5036
  977MOL0     H28909   2.410   6.073  11.565 -0.0191  1.3629 -1.4867
  977MOL0     H28910   2.423   6.187  11.704  3.2230 -0.0672  0.7612
  977MOL0     H28911   2.556   6.323  11.585  3.9710 -0.2970  0.8582
  977MOL0     H28912   2.554   6.235  11.432  1.0854 -0.1323 -0.4608
  977MOL0     H28913   2.756   6.189  11.619 -0.5588 -0.7421  3.2368
  977MOL0     H28914   2.646   6.080  11.670  2.6665 -1.2721 -0.5799
  977MOL0     H28915   2.785   5.973  11.512  2.1295  1.3433 -1.0373
  977MOL0     H28916   2.754   6.078  11.384  1.5608  1.9999  1.4474
  977MOL0     H28917   2.568   6.015  11.215 -0.5444 -2.1657 -2.6610
  977MOL0     H28918   2.464   5.823  11.071 -1.7907  0.9423 -0.6628
  977MOL0     H28919   2.321   5.830  11.174  0.7028  0.8292 -1.3241
  977MOL0     H28920   2.352   5.596  11.251 -1.7291  2.1126 -0.2102
  977MOL0     H28921   2.506   5.576  11.166  0.4006  1.7592 -1.4543
  977MOL0     H28922   2.284   5.676  11.009 -1.8187 -0.1266  0.1171
  977MOL0     H28923   2.409   5.534  10.970  0.5577  0.2632 -0.2763
  977MOL0     H28924   2.275   5.407  11.136  2.1516  1.1792 -0.5633
  977MOL0     H28925   2.214   5.433  10.973 -0.3004  1.7970  0.1865
  977MOL0     H28926   2.089   5.282  11.041  1.6164 -1.6411  1.4851
  977MOL0     H28927   1.941   5.111  11.131  2.0081  0.2724  1.5424
  977MOL0     H28928   1.691   4.883  11.438 -0.2539 -0.8268 -0.0134
  977MOL0     H28929   1.543   4.742  11.586 -0.0089  0.2590  1.1664
  977MOL0     H28930   1.426   4.740  11.876  0.8874 -1.8083 -0.9704
  977MOL0     H28931   1.412   4.650  11.731  1.6021 -1.5136  2.1453
  977MOL0     H28932   1.148   4.665  11.785  1.7581  1.4294 -1.5038
  977MOL0     H28933   1.201   4.763  11.921 -1.2243  0.4983 -0.7760
  977MOL0     H28934   1.330   4.554  12.009  0.6291  3.3412 -2.3753
  977MOL0     H28935   1.273   4.478  11.861  0.0914  3.0089 -3.2109
  977MOL0     H28936   1.071   4.602  12.053 -0.8094  0.5354 -1.8019
  977MOL0     H28937   1.044   4.479  11.922  2.3343  0.4724 -3.1928
  977MOL0     H28938   1.035   4.412  12.174  0.7089 -1.2807  0.3677
  977MOL0     H28939   1.213   4.403  12.160  0.9357 -3.5844 -1.0537
  977MOL0     H28940   1.187   4.249  11.961  1.1208 -0.7055  0.8968
  977MOL0     H28941   1.007   4.261  12.006 -1.3641 -1.0809  2.1143
  977MOL0     H28942   1.123   4.067  12.089 -1.8287  1.4491 -2.3485
  977MOL0     H28943   1.240   4.162  12.187 -0.1885 -1.3696  0.3847
  977MOL0     H28944   0.921   4.141  12.229 -0.2544  1.2870  1.0101
  977MOL0     H28945   1.029   4.232  12.324  0.4224  0.1509 -0.4094
  977MOL0     H28946   1.367   5.114  11.744 -1.6572 -1.4037 -0.4452
  977MOL0     H28947   1.542   5.238  11.651  0.3786 -0.5156  0.1127
  977MOL0     H28948   1.767   5.391  11.389 -0.8641 -2.2016 -0.9445
  977MOL0     H28949   1.947   5.550  11.338  1.7801 -0.3647  0.7908
  977MOL0     H28950   1.802   6.190  11.210  1.3389  2.5152  1.4735
  977MOL0     H28951   1.574   6.161  11.131  0.6318  0.7465 -0.5735
  977MOL0     H28952   1.174   5.968  11.293  0.7906  0.7093  1.5993
  977MOL0     H28953   0.964   5.886  11.250  0.9047 -1.1380 -0.3992
  977MOL0     H28954   0.759   5.881  11.307  1.7646  3.5164  1.2559
  977MOL0     H28955   0.769   5.823  11.158  1.3623 -0.0461 -0.3721
  977MOL0     H28956   0.506   5.963  11.254 -1.9074 -2.0004  0.3464
  977MOL0     H28957   0.516   5.899  11.100 -0.2728 -5.1956 -0.7915
  977MOL0     H28958   0.565   5.653  11.191 -0.2265  1.6978 -1.5201
  977MOL0     H28959   0.411   5.729  11.227 -0.4972  0.1191  0.6333
  977MOL0     H28960   0.533   5.594  11.416 -1.6076  0.2772 -0.1882
  977MOL0     H28961   0.648   5.736  11.421  1.1005  1.8394 -4.0731
  977MOL0     H28962   0.309   5.928  11.575  2.2395  1.1406  0.5239
  977MOL0     H28963   0.820   6.285  11.158 -0.9428 -1.3380 -2.9052
  977MOL0     H28964   1.043   6.387  11.228  3.1274 -1.3927  0.4855
  978MOL0     O28965   2.711   3.422  10.387 -0.8162  0.7537  0.1633
  978MOL0     C28966   2.613   3.369  10.445 -0.7199  0.1029 -0.5002
  978MOL0     O28967   2.614   3.279  10.553 -0.6936  0.5953  0.3542
  978MOL0     C28968   2.737   3.250  10.610 -0.0193 -0.8324  0.0536
  978MOL0     C28969   2.827   3.344  10.659  0.2735 -0.4491 -0.2035
  978MOL0     C28970   2.949   3.314  10.725 -0.6446  0.6902  1.3523
  978MOL0     C28971   2.975   3.183  10.758 -0.4184  0.1719  0.1119
  978MOL0     O28972   3.099   3.161  10.818 -0.3495  0.2307  0.8373
  978MOL0     C28973   3.132   3.031  10.885 -0.5562 -0.4336  0.8330
  978MOL0     C28974   3.264   3.049  10.958  0.8820 -0.1889 -0.3053
  978MOL0     C28975   3.389   3.035  10.863 -0.4438 -0.0800  0.3526
  978MOL0     C28976   3.527   3.026  10.942  1.0176 -1.1611  0.1404
  978MOL0     C28977   3.656   3.081  10.879  0.1006  0.5083  0.4214
  978MOL0     C28978   3.680   3.062  10.726  0.6219  0.9005 -0.3181
  978MOL0     C28979   3.818   3.102  10.682  0.0936 -0.0697  0.7534
  978MOL0     C28980   3.843   3.260  10.677  0.1955  0.2813  0.9087
  978MOL0     N28981   3.984   3.291  10.662  0.5321  0.0501  0.0863
  978MOL0     C28982   4.062   3.326  10.762 -0.1870 -0.9022 -0.4313
  978MOL0     C28983   4.189   3.335  10.713 -0.7651  0.4089  0.9735
  978MOL0     C28984   4.320   3.379  10.779  0.7162 -0.1496  0.4523
  978MOL0     C28985   4.450   3.314  10.720  0.6345 -0.6703 -0.8535
  978MOL0     C28986   4.483   3.371  10.580 -0.6447 -0.2804  0.2858
  978MOL0     C28987   4.617   3.362  10.540 -0.7238 -0.1995 -0.1580
  978MOL0     O28988   4.635   3.327  10.401 -0.0687 -0.0899 -0.3566
  978MOL0     C28989   4.765   3.311  10.358  0.0263  0.2262  0.0775
  978MOL0     C28990   4.792   3.203  10.276 -0.3075 -0.0800  0.8571
  978MOL0     C28991   4.924   3.188  10.231 -1.0430  1.1309  1.1295
  978MOL0     C28992   5.033   3.276  10.265  1.1383 -0.2455 -0.8141
  978MOL0     C28993   5.175   3.252  10.222  0.0283  0.2908 -0.9327
  978MOL0     O28994   5.196   3.121  10.207  0.3534  0.2426 -0.2735
  978MOL0     C28995   5.324   3.070  10.210 -0.0110 -0.1226 -0.2422
  978MOL0     C28996   5.391   3.086  10.337  0.7932  0.9475  0.1237
  978MOL0     C28997   5.525   3.049  10.341  0.5847 -0.3397  0.9282
  978MOL0     C28998   5.592   2.996  10.232  0.2293 -0.1051 -0.0431
  978MOL0     O28999   5.727   2.964  10.225 -0.0537 -0.2570 -0.3072
  978MOL0     C29000   5.820   2.966  10.338  0.3133  1.3622 -0.3488
  978MOL0     C29001   5.962   2.930  10.287 -0.1904  0.2834 -0.3785
  978MOL0     C29002   6.035   3.063  10.260  0.1234 -0.1070  0.1169
  978MOL0     C29003   6.125   3.111  10.375 -0.4404  0.2218  0.2075
  978MOL0     C29004   6.224   3.217  10.346 -0.0813  0.6750  0.3406
  978MOL0     C29005   6.164   3.357  10.310  0.4224 -0.0950 -0.0148
  978MOL0     C29006   6.282   3.453  10.279 -0.1876 -1.0197  0.7447
  978MOL0     C29007   6.235   3.585  10.222 -0.2070  0.7895  0.8550
  978MOL0    Cl29008   6.172   3.673  10.357 -0.4193 -0.0698  0.4717
  978MOL0     C29009   5.525   2.967  10.116  0.7620 -0.6280  0.0277
  978MOL0     C29010   5.392   3.010  10.105  0.8054  0.9949 -0.6646
  978MOL0     O29011   5.261   3.334  10.238  0.2252 -0.4666 -0.0003
  978MOL0     C29012   4.999   3.381  10.347  0.3351  1.6722  0.0166
  978MOL0     C29013   4.874   3.399  10.398  0.2416  0.3019 -0.0219
  978MOL0     N29014   4.183   3.299  10.572 -0.5573 -0.5919 -0.2143
  978MOL0     N29015   4.066   3.263  10.556  0.3699  0.7456  0.3776
  978MOL0     C29016   2.882   3.086  10.726 -0.5788 -0.5519  0.4697
  978MOL0     C29017   2.771   3.121  10.649  0.2315 -0.3090 -0.9338
  978MOL0     C29018   2.477   3.417  10.398 -0.8565  1.3129  0.3916
  978MOL0     C29019   2.461   3.496  10.282  0.1008  0.4616 -0.1126
  978MOL0     C29020   2.340   3.549  10.256  0.3115 -1.4510 -1.1796
  978MOL0     C29021   2.234   3.532  10.344  0.4066  0.2230 -0.7953
  978MOL0     O29022   2.104   3.575  10.302 -0.0744  0.7458  0.1110
  978MOL0     C29023   1.982   3.570  10.383  0.5486 -0.6930 -0.0765
  978MOL0     C29024   1.981   3.630  10.532 -0.2011  0.3012  0.8429
  978MOL0     C29025   2.059   3.762  10.549  0.3517  0.0120  0.1164
  978MOL0     C29026   2.011   3.844  10.682 -0.5624  1.0269 -0.8984
  978MOL0     C29027   2.060   3.782  10.805 -1.1633  0.8297 -0.8864
  978MOL0     C29028   2.113   3.711  10.894  0.6927 -1.1369  1.2295
  978MOL0     C29029   2.252   3.459  10.461 -0.2141 -0.2596  0.5429
  978MOL0     C29030   2.379   3.406  10.498 -0.2731 -0.1224  0.3667
  978MOL0     H29031   2.787   3.445  10.649  1.4005 -0.2125 -3.5312
  978MOL0     H29032   3.028   3.386  10.745  0.3474  0.2932 -0.8639
  978MOL0     H29033   3.143   2.951  10.812  3.6177 -0.0354  0.7709
  978MOL0     H29034   3.051   3.006  10.955 -0.0019 -2.7715  0.7317
  978MOL0     H29035   3.265   2.970  11.034 -1.7221  1.7784  1.9834
  978MOL0     H29036   3.264   3.144  11.011 -2.2662 -0.3852  0.2203
  978MOL0     H29037   3.398   3.122  10.799 -0.6303 -2.2682 -2.8811
  978MOL0     H29038   3.378   2.950  10.795 -3.2113  1.6102 -1.5199
  978MOL0     H29039   3.515   3.064  11.044 -0.4424 -1.7366  0.2011
  978MOL0     H29040   3.542   2.918  10.955  1.0462 -1.1690  0.0418
  978MOL0     H29041   3.741   3.023  10.917  0.7806 -1.0218 -3.0143
  978MOL0     H29042   3.669   3.185  10.912  1.5348  0.5804 -0.2736
  978MOL0     H29043   3.605   3.124  10.676  0.9814  1.9714  0.4479
  978MOL0     H29044   3.680   2.955  10.704  2.4853  1.0877 -1.5221
  978MOL0     H29045   3.888   3.071  10.760  1.9886  1.0891 -0.3994
  978MOL0     H29046   3.836   3.069  10.579 -2.1139  1.9945 -0.4024
  978MOL0     H29047   3.813   3.298  10.775  0.9301  1.3194  0.7430
  978MOL0     H29048   3.794   3.303  10.589  4.3296  0.1863 -1.6760
  978MOL0     H29049   4.046   3.350  10.866  3.9246  0.3898  0.0890
  978MOL0     H29050   4.303   3.327  10.874 -0.0782 -1.3773 -0.3395
  978MOL0     H29051   4.327   3.485  10.803  0.4952 -0.3835  1.6345
  978MOL0     H29052   4.451   3.204  10.717 -1.4013 -0.6993 -2.4479
  978MOL0     H29053   4.525   3.349  10.792 -1.9620  2.4232  0.5977
  978MOL0     H29054   4.425   3.328  10.498 -1.7915  4.9162 -2.0585
  978MOL0     H29055   4.455   3.477  10.578 -1.5976 -0.5332 -1.4418
  978MOL0     H29056   4.672   3.284  10.594 -0.7495 -1.1710 -1.4896
  978MOL0     H29057   4.662   3.460  10.561  0.2397 -0.0724 -2.5049
  978MOL0     H29058   4.715   3.132  10.251  0.0660 -0.1523 -0.1298
  978MOL0     H29059   4.951   3.090  10.193  2.3790  1.2097  2.9513
  978MOL0     H29060   5.341   3.124  10.426 -4.7056  2.8114 -3.2296
  978MOL0     H29061   5.576   3.061  10.436  2.7072  1.0527 -0.3109
  978MOL0     H29062   5.783   2.887  10.404  1.5034 -0.4538 -1.7907
  978MOL0     H29063   5.811   3.062  10.390 -2.0324  1.2174 -0.3653
  978MOL0     H29064   5.958   2.867  10.197  1.2646 -1.0667  0.4647
  978MOL0     H29065   6.015   2.879  10.367  1.7742  3.1189  0.2775
  978MOL0     H29066   5.958   3.135  10.232  0.2594 -0.3501 -0.9647
  978MOL0     H29067   6.102   3.053  10.173  1.3986  0.6902  0.9713
  978MOL0     H29068   6.062   3.146  10.457  1.4199  4.0959  0.1760
  978MOL0     H29069   6.187   3.026  10.407  1.5073  1.1055 -1.0611
  978MOL0     H29070   6.286   3.181  10.263 -2.0763  2.8582 -2.2747
  978MOL0     H29071   6.295   3.229  10.429  1.0896 -0.7714 -0.3998
  978MOL0     H29072   6.119   3.392  10.403  0.0362  0.0458 -0.2534
  978MOL0     H29073   6.086   3.368  10.235  1.9852  2.1509 -1.4423
  978MOL0     H29074   6.352   3.472  10.361  2.4806 -3.6569 -0.7047
  978MOL0     H29075   6.354   3.406  10.211  0.1876 -0.9594  1.0911
  978MOL0     H29076   6.148   3.562  10.159  1.0929 -0.2054 -0.6783
  978MOL0     H29077   6.308   3.649  10.171 -0.4183  2.6359  2.7082
  978MOL0     H29078   5.553   2.921  10.022 -2.1680 -0.9690 -0.8007
  978MOL0     H29079   5.338   2.988  10.013  0.6854 -4.1438  0.3547
  978MOL0     H29080   5.071   3.455  10.379  0.3932  1.0283  1.4575
  978MOL0     H29081   4.849   3.483  10.462  1.2854  0.0004  0.8143
  978MOL0     H29082   2.895   2.981  10.749  3.8977 -0.0708  0.9312
  978MOL0     H29083   2.710   3.041  10.607 -2.0409  0.3227  0.9480
  978MOL0     H29084   2.542   3.531  10.218 -2.6961  3.9064 -2.1945
  978MOL0     H29085   2.315   3.586  10.157  2.4126  0.9344 -0.9139
  978MOL0     H29086   1.936   3.471  10.385 -0.1049 -0.4436  2.9984
  978MOL0     H29087   1.903   3.614  10.321 -1.6362 -2.5137  1.2921
  978MOL0     H29088   1.876   3.641  10.561 -0.7199  0.3755 -0.9336
  978MOL0     H29089   2.009   3.551  10.602 -0.7863 -2.8186 -2.1929
  978MOL0     H29090   2.042   3.817  10.456  0.6554 -0.5989 -0.3081
  978MOL0     H29091   2.168   3.746  10.544  0.4667  0.7567  0.0587
  978MOL0     H29092   2.024   3.953  10.674  1.1658  0.7782 -1.8474
  978MOL0     H29093   1.902   3.836  10.696 -0.0499 -1.0084  3.3579
  978MOL0     H29094   2.137   3.660  10.985  1.0949 -0.7091  1.3685
  978MOL0     H29095   2.167   3.444  10.527  0.4394  2.0158  2.0414
  978MOL0     H29096   2.405   3.359  10.592  0.8395  1.2127  0.7724
  979MOL0     O29097   0.399   7.746   2.670  0.2039 -0.0911  0.1763
  979MOL0     C29098   0.497   7.668   2.653  0.7306  0.2115  0.6830
  979MOL0     O29099   0.627   7.706   2.597 -0.4018  0.6503 -0.4682
  979MOL0     C29100   0.632   7.832   2.539 -0.5036 -0.3646 -0.3949
  979MOL0     C29101   0.655   7.833   2.399 -0.1961 -0.3449 -0.1026
  979MOL0     C29102   0.651   7.957   2.327  0.2566 -0.2376  0.7891
  979MOL0     C29103   0.637   8.080   2.398 -0.5785  0.6710  0.7530
  979MOL0     O29104   0.638   8.202   2.325 -0.3901 -0.1812  0.4857
  979MOL0     C29105   0.526   8.213   2.235 -0.2639 -0.0798  0.2668
  979MOL0     C29106   0.455   8.338   2.281  1.0359  0.8213 -0.6410
  979MOL0     C29107   0.375   8.408   2.165 -0.9786 -0.0216  0.1723
  979MOL0     C29108   0.318   8.550   2.210 -0.3680  0.6399 -0.0860
  979MOL0     C29109   0.224   8.626   2.123  0.2711 -0.4137 -0.4621
  979MOL0     C29110   0.146   8.731   2.202 -1.4623 -0.0613  1.2227
  979MOL0     C29111   0.228   8.829   2.288 -0.3275  0.2040 -0.3145
  979MOL0     C29112   0.276   8.958   2.215  0.1205 -0.1858 -0.6685
  979MOL0     N29113   0.172   9.050   2.176 -0.6342 -0.2044  0.2698
  979MOL0     C29114   0.084   9.040   2.071 -0.0348  0.7701 -1.2451
  979MOL0     C29115   0.003   9.142   2.080 -0.4254 -0.1646  1.5196
  979MOL0     C29116  -0.101   9.170   1.967 -0.7685  0.0084  0.5338
  979MOL0     C29117  -0.240   9.111   1.983  0.5522 -0.2729  0.8995
  979MOL0     C29118  -0.323   9.132   2.116 -0.3236  0.1408  0.2154
  979MOL0     C29119  -0.308   9.282   2.177 -0.1081 -1.2605 -0.1763
  979MOL0     O29120  -0.414   9.309   2.269 -0.0319 -0.8093 -0.8322
  979MOL0     C29121  -0.381   9.295   2.407 -0.9487 -1.0500  0.0674
  979MOL0     C29122  -0.273   9.231   2.466 -0.4940 -0.6630  1.1285
  979MOL0     C29123  -0.268   9.224   2.602 -0.1430  0.7119 -0.3379
  979MOL0     C29124  -0.381   9.252   2.679  0.5447  0.7661  0.1748
  979MOL0     C29125  -0.391   9.205   2.820 -0.0389  0.3985 -0.4010
  979MOL0     O29126  -0.285   9.138   2.871 -0.6625 -0.1150 -0.0964
  979MOL0     C29127  -0.267   9.102   2.999  0.0837 -0.6792 -0.8522
  979MOL0     C29128  -0.132   9.096   3.043  1.0100  0.0327  0.4855
  979MOL0     C29129  -0.091   9.048   3.169 -0.6372 -0.3308  0.1511
  979MOL0     C29130  -0.191   8.995   3.252  0.3557  0.6821 -1.2293
  979MOL0     O29131  -0.160   8.934   3.374 -0.8667 -0.1719  0.2559
  979MOL0     C29132  -0.025   8.903   3.410 -0.7256  0.6467  0.2412
  979MOL0     C29133   0.036   9.025   3.494  0.2214 -0.5679  0.3486
  979MOL0     C29134   0.180   8.990   3.539  0.7766 -0.1326  0.2357
  979MOL0     C29135   0.244   9.114   3.603 -0.3380  0.6019 -0.2134
  979MOL0     C29136   0.384   9.077   3.654  0.0319 -0.0830 -0.3712
  979MOL0     C29137   0.394   9.019   3.803 -1.0609 -0.6734 -0.4663
  979MOL0     C29138   0.538   8.979   3.840  0.7668 -0.5069 -0.7179
  979MOL0     C29139   0.555   8.922   3.976  1.2552  0.8269 -0.2057
  979MOL0    Cl29140   0.534   9.044   4.109  0.3714 -0.7449 -0.1863
  979MOL0     C29141  -0.327   9.001   3.214 -0.1987  0.4404  0.0150
  979MOL0     C29142  -0.364   9.051   3.093  0.7015 -1.0708  1.2614
  979MOL0     O29143  -0.489   9.239   2.885 -0.4505 -0.1666 -1.3470
  979MOL0     C29144  -0.497   9.305   2.612 -0.0766 -0.6191  0.0463
  979MOL0     C29145  -0.493   9.340   2.480 -1.3982  0.5787 -0.0161
  979MOL0     N29146   0.037   9.212   2.185 -0.1078 -0.2978 -0.4833
  979MOL0     N29147   0.136   9.161   2.244  0.2931  0.1023 -0.7502
  979MOL0     C29148   0.629   8.077   2.539  0.0563  0.0406 -0.0923
  979MOL0     C29149   0.630   7.955   2.613  0.3525 -0.1494 -0.4356
  979MOL0     C29150   0.470   7.532   2.689  1.1347  0.8739  0.3509
  979MOL0     C29151   0.369   7.488   2.779  1.2376 -0.0230  0.8955
  979MOL0     C29152   0.343   7.350   2.812 -0.3317 -0.1262 -0.0980
  979MOL0     C29153   0.418   7.250   2.753 -0.6434  0.5529  0.2202
  979MOL0     O29154   0.403   7.120   2.773  0.1371  0.2192  0.2746
  979MOL0     C29155   0.434   7.069   2.904 -0.1533  0.0225 -0.7841
  979MOL0     C29156   0.564   6.991   2.919 -0.2957  0.7941 -0.1043
  979MOL0     C29157   0.577   6.872   2.833  0.1975 -0.2614 -0.1840
  979MOL0     C29158   0.497   6.746   2.882 -0.2731 -0.1006 -0.1523
  979MOL0     C29159   0.494   6.633   2.790  0.9322 -0.1651 -0.6704
  979MOL0     C29160   0.484   6.531   2.730  0.2124  1.0280  0.7936
  979MOL0     C29161   0.521   7.289   2.664 -0.0759 -0.3856  0.0102
  979MOL0     C29162   0.551   7.426   2.641 -0.0368  0.2653  1.0838
  979MOL0     H29163   0.702   7.741   2.367  2.2395  1.4721 -2.1796
  979MOL0     H29164   0.676   7.957   2.221 -0.8585 -6.0180  0.1855
  979MOL0     H29165   0.458   8.128   2.234 -0.3281 -0.0367  0.7700
  979MOL0     H29166   0.566   8.234   2.135 -2.2072 -0.4060 -0.6290
  979MOL0     H29167   0.534   8.404   2.319  2.2164 -0.0455 -1.4812
  979MOL0     H29168   0.390   8.316   2.366  2.1404 -0.7704 -0.1660
  979MOL0     H29169   0.302   8.334   2.131  0.7771 -0.9355 -1.9104
  979MOL0     H29170   0.446   8.429   2.084  0.9416  1.1468  2.0464
  979MOL0     H29171   0.279   8.526   2.310  1.3436 -1.4648  0.1509
  979MOL0     H29172   0.404   8.613   2.235 -0.3515  0.0798  1.3463
  979MOL0     H29173   0.162   8.556   2.068  1.2828 -0.7313 -1.2370
  979MOL0     H29174   0.289   8.678   2.052  0.5360 -3.6519 -2.7847
  979MOL0     H29175   0.082   8.674   2.271 -1.6275 -0.3385  0.8415
  979MOL0     H29176   0.075   8.782   2.136 -0.3074 -0.5689 -0.4802
  979MOL0     H29177   0.162   8.860   2.369  0.0931  3.9840 -1.2365
  979MOL0     H29178   0.312   8.774   2.333 -0.1078 -1.6034 -2.7209
  979MOL0     H29179   0.325   8.916   2.127 -2.7871 -3.1902 -1.0297
  979MOL0     H29180   0.350   9.012   2.275  0.3403  1.0913 -2.0421
  979MOL0     H29181   0.077   8.966   1.991  1.0122 -0.9313  0.1728
  979MOL0     H29182  -0.055   9.126   1.879  2.2980  0.5938  1.7322
  979MOL0     H29183  -0.108   9.279   1.972 -0.9855 -0.0231  0.9966
  979MOL0     H29184  -0.226   9.005   1.961 -1.0498 -0.7952  2.1413
  979MOL0     H29185  -0.305   9.153   1.906  1.8596 -0.0256 -0.0857
  979MOL0     H29186  -0.427   9.129   2.084 -0.1153  0.5484 -0.5269
  979MOL0     H29187  -0.302   9.056   2.192 -1.5717 -2.3162 -1.7881
  979MOL0     H29188  -0.302   9.359   2.100  0.7563  0.6493  1.7160
  979MOL0     H29189  -0.205   9.281   2.214 -0.6787 -1.0994  1.4553
  979MOL0     H29190  -0.189   9.201   2.404 -0.8479  0.4639  0.0645
  979MOL0     H29191  -0.176   9.180   2.639  2.0683  1.3468 -4.4685
  979MOL0     H29192  -0.071   9.126   2.958 -2.9866  1.5995 -2.1296
  979MOL0     H29193   0.011   9.057   3.205  0.0529 -3.1871 -0.8410
  979MOL0     H29194   0.036   8.863   3.328 -2.5737  0.5251 -1.1488
  979MOL0     H29195  -0.029   8.819   3.480 -0.5395  1.8794  1.7972
  979MOL0     H29196  -0.025   9.036   3.584 -1.8901 -3.0764 -0.6220
  979MOL0     H29197   0.039   9.118   3.437  1.6376  0.9055  2.6716
  979MOL0     H29198   0.232   8.951   3.451 -0.1055 -0.7239 -0.0447
  979MOL0     H29199   0.170   8.908   3.611 -1.1323  0.6804  0.9628
  979MOL0     H29200   0.249   9.192   3.526  3.2932  0.7552  0.0149
  979MOL0     H29201   0.189   9.158   3.687  1.3845 -2.3436  2.6769
  979MOL0     H29202   0.438   9.173   3.651 -1.1014  0.6541  1.3999
  979MOL0     H29203   0.428   9.011   3.579  1.1856  0.1744  0.0665
  979MOL0     H29204   0.327   8.934   3.804 -0.7192 -1.0257 -2.6182
  979MOL0     H29205   0.361   9.096   3.874 -1.4060 -2.1183  0.9935
  979MOL0     H29206   0.565   8.900   3.769  0.1672 -0.7213 -0.7149
  979MOL0     H29207   0.608   9.063   3.839  0.7453 -0.1927  3.8684
  979MOL0     H29208   0.651   8.871   3.991  0.4537 -0.4867  0.7184
  979MOL0     H29209   0.475   8.847   3.982  0.0667  2.1027  0.2864
  979MOL0     H29210  -0.390   8.949   3.285  2.0068 -1.1935  0.9093
  979MOL0     H29211  -0.471   9.046   3.075  0.2002 -1.5885  3.8725
  979MOL0     H29212  -0.585   9.336   2.667  0.2916  1.2714 -0.3670
  979MOL0     H29213  -0.584   9.382   2.440 -1.2618  2.2713  1.3486
  979MOL0     H29214   0.629   8.171   2.595 -0.1621  0.1309 -0.2460
  979MOL0     H29215   0.619   7.958   2.721  1.2340 -2.2651 -0.2383
  979MOL0     H29216   0.311   7.572   2.816  1.2143 -0.1048  1.0439
  979MOL0     H29217   0.261   7.316   2.874 -1.0198  0.1351 -0.8476
  979MOL0     H29218   0.357   7.009   2.953  2.2532 -1.6341  1.2064
  979MOL0     H29219   0.453   7.159   2.965 -0.6662 -0.1508 -0.3573
  979MOL0     H29220   0.638   7.059   2.876  0.8772  1.9919  3.4221
  979MOL0     H29221   0.586   6.965   3.023  0.6779  1.0733 -0.2315
  979MOL0     H29222   0.684   6.850   2.839  0.3507  0.7757  1.9302
  979MOL0     H29223   0.536   6.885   2.732 -2.2446 -3.6397  0.1832
  979MOL0     H29224   0.545   6.711   2.974  0.9370 -2.9810 -1.7443
  979MOL0     H29225   0.392   6.773   2.890 -0.7709 -0.5471 -3.6984
  979MOL0     H29226   0.467   6.445   2.668 -0.3385  0.1057  2.1922
  979MOL0     H29227   0.569   7.208   2.610  1.5976  0.1010  0.6985
  979MOL0     H29228   0.635   7.434   2.573 -1.6894 -0.6210 -1.1701
  980MOL0     O29229   3.182   7.954   5.003  0.1984 -0.3494 -0.3749
  980MOL0     C29230   3.086   7.949   4.934 -0.3663  1.4062  0.3799
  980MOL0     O29231   3.085   7.875   4.820  0.7433 -0.2283  0.0667
  980MOL0     C29232   3.193   7.795   4.794  1.2505 -0.1239 -0.0859
  980MOL0     C29233   3.265   7.706   4.875  0.2987 -1.1970  0.2567
  980MOL0     C29234   3.367   7.621   4.824 -0.1704 -1.0624 -0.7794
  980MOL0     C29235   3.367   7.601   4.688  0.4022 -0.3061  0.5462
  980MOL0     O29236   3.424   7.484   4.651 -0.1937  0.4040 -0.0861
  980MOL0     C29237   3.472   7.482   4.521  0.4646  0.3301  0.7375
  980MOL0     C29238   3.548   7.357   4.490  0.1900  0.8523  0.1886
  980MOL0     C29239   3.449   7.255   4.434 -0.3630  0.6082  0.1321
  980MOL0     C29240   3.519   7.132   4.400  0.2398  0.5605  0.0754
  980MOL0     C29241   3.426   7.034   4.344  0.7022  0.0469  0.9068
  980MOL0     C29242   3.488   6.896   4.318  0.0759  0.7480  0.1331
  980MOL0     C29243   3.388   6.798   4.260 -0.0098  0.4274  0.6218
  980MOL0     C29244   3.326   6.840   4.120  0.1548 -0.0527  0.0999
  980MOL0     N29245   3.406   6.808   4.000 -0.0946 -0.9490  0.0166
  980MOL0     C29246   3.532   6.844   3.978  0.3860  0.1374 -0.3728
  980MOL0     C29247   3.565   6.790   3.854 -0.2388 -0.0025  0.0943
  980MOL0     C29248   3.689   6.809   3.775  0.2155 -0.1031  0.6012
  980MOL0     C29249   3.721   6.961   3.751  0.0312  0.2477 -0.2940
  980MOL0     C29250   3.850   6.974   3.653 -0.6461 -0.3702 -0.1164
  980MOL0     C29251   3.855   7.127   3.615 -0.3335 -0.1762  0.7231
  980MOL0     O29252   3.877   7.206   3.730 -0.5402 -0.5940  0.4322
  980MOL0     C29253   3.857   7.342   3.712  0.1391  0.7146  0.2922
  980MOL0     C29254   3.890   7.412   3.597 -0.1529  0.2429  0.0827
  980MOL0     C29255   3.884   7.551   3.603  0.0529  0.3578 -0.1830
  980MOL0     C29256   3.857   7.623   3.716  0.2488 -1.0179 -0.5479
  980MOL0     C29257   3.879   7.771   3.719 -0.2053 -0.2109 -0.0003
  980MOL0     O29258   3.818   7.846   3.813 -0.4293  0.5669 -0.1479
  980MOL0     C29259   3.849   7.979   3.817 -0.1493  0.3758 -0.8142
  980MOL0     C29260   3.949   8.033   3.897  0.1579  0.2642 -0.4512
  980MOL0     C29261   3.979   8.173   3.888  0.2972  0.1453  0.3700
  980MOL0     C29262   3.908   8.254   3.798  0.3448  0.6748  0.6511
  980MOL0     O29263   3.907   8.387   3.789 -0.5813 -0.6443 -0.4443
  980MOL0     C29264   4.041   8.448   3.795  0.2102  0.7245 -0.1803
  980MOL0     C29265   4.037   8.582   3.732  0.3254 -0.2033 -0.1773
  980MOL0     C29266   3.997   8.579   3.580  0.0479 -0.4362 -0.6000
  980MOL0     C29267   4.041   8.720   3.525  0.7263  0.7734  0.4592
  980MOL0     C29268   3.991   8.736   3.383 -0.2256  0.7205 -0.2267
  980MOL0     C29269   4.023   8.867   3.309 -1.1512 -0.7311  0.1574
  980MOL0     C29270   4.177   8.878   3.284  0.2139  0.7475 -0.2421
  980MOL0     C29271   4.207   9.012   3.209  0.5427 -0.5960  0.0896
  980MOL0    Cl29272   4.376   9.010   3.155  0.2829 -0.0452 -0.0604
  980MOL0     C29273   3.813   8.190   3.721  0.9089 -0.1667 -0.0034
  980MOL0     C29274   3.774   8.060   3.735 -0.6338  0.9372  0.2971
  980MOL0     O29275   3.954   7.809   3.631  0.3499 -0.9653  0.4535
  980MOL0     C29276   3.809   7.554   3.829 -0.2904  0.2847 -0.6115
  980MOL0     C29277   3.805   7.408   3.824 -0.6403 -0.6290  0.6742
  980MOL0     N29278   3.443   6.747   3.805  0.1974 -0.7536  1.3898
  980MOL0     N29279   3.352   6.750   3.887 -0.3176 -0.0006  0.5162
  980MOL0     C29280   3.301   7.687   4.604  0.1721 -0.0322 -0.5725
  980MOL0     C29281   3.215   7.790   4.654  0.2214  0.4088 -0.0559
  980MOL0     C29282   2.959   8.026   4.973 -0.4768  0.5623  0.2352
  980MOL0     C29283   2.941   8.093   5.090 -0.1005  0.6529  0.9687
  980MOL0     C29284   2.837   8.182   5.116  0.0787 -0.6359  0.3551
  980MOL0     C29285   2.745   8.203   5.011  1.1035 -0.0543  0.1017
  980MOL0     O29286   2.614   8.267   5.017 -0.8264  0.3075  0.8171
  980MOL0     C29287   2.569   8.328   5.140  0.3031 -1.1898 -0.1964
  980MOL0     C29288   2.423   8.360   5.161  1.0155 -0.2741  0.3543
  980MOL0     C29289   2.414   8.499   5.232 -0.2875 -0.4153 -0.2915
  980MOL0     C29290   2.256   8.533   5.240 -0.3028 -0.2361  0.0726
  980MOL0     C29291   2.195   8.496   5.370 -0.3333 -0.3231  0.3096
  980MOL0     C29292   2.126   8.466   5.470  0.4044  0.0967  0.0792
  980MOL0     C29293   2.768   8.139   4.896  0.4882  0.0568 -1.0966
  980MOL0     C29294   2.869   8.044   4.877  0.0344 -0.2128  0.1236
  980MOL0     H29295   3.243   7.705   4.981  3.3999  2.0946  1.1010
  980MOL0     H29296   3.415   7.544   4.883  0.8898 -1.1255 -1.6770
  980MOL0     H29297   3.536   7.569   4.508  1.3641 -0.4548 -0.2523
  980MOL0     H29298   3.387   7.498   4.454 -1.6467  3.2739  3.8034
  980MOL0     H29299   3.605   7.323   4.577  0.4017  2.0076  0.5166
  980MOL0     H29300   3.625   7.368   4.413  2.0288 -2.1431  1.3962
  980MOL0     H29301   3.389   7.293   4.351 -0.3254  0.3239 -0.0259
  980MOL0     H29302   3.382   7.236   4.519  0.8696 -1.1289  0.7824
  980MOL0     H29303   3.603   7.132   4.331  0.1869  1.5630 -0.0043
  980MOL0     H29304   3.547   7.076   4.490 -1.1872 -0.6199 -0.1636
  980MOL0     H29305   3.390   7.084   4.254 -1.3312  0.8097  2.0524
  980MOL0     H29306   3.339   7.018   4.409  1.0299  1.6106  1.7706
  980MOL0     H29307   3.509   6.843   4.411 -0.8475  0.0829 -0.0245
  980MOL0     H29308   3.584   6.918   4.270  0.7562 -0.4702  0.8684
  980MOL0     H29309   3.437   6.706   4.226  0.3289  1.5490 -2.2263
  980MOL0     H29310   3.308   6.773   4.330  0.4298 -0.4350  0.8288
  980MOL0     H29311   3.301   6.946   4.125 -0.1679  0.0793 -2.7750
  980MOL0     H29312   3.232   6.789   4.100 -0.9506  1.9145  0.0885
  980MOL0     H29313   3.592   6.914   4.035  3.5263 -2.0085 -0.7830
  980MOL0     H29314   3.660   6.760   3.681 -1.7670  0.8962  0.6382
  980MOL0     H29315   3.772   6.748   3.812  0.1388 -0.6326 -0.0819
  980MOL0     H29316   3.733   7.019   3.843 -0.0046 -0.0165 -0.1240
  980MOL0     H29317   3.635   7.008   3.704  0.1549  0.0459 -0.7241
  980MOL0     H29318   3.939   6.950   3.713  0.8283 -1.8220 -2.7068
  980MOL0     H29319   3.853   6.925   3.555 -0.4334  3.5838 -2.2561
  980MOL0     H29320   3.756   7.154   3.577 -1.2191 -1.4612  1.9500
  980MOL0     H29321   3.936   7.143   3.545  0.1381  0.2199  1.3478
  980MOL0     H29322   3.920   7.360   3.507 -1.8031 -3.5442  1.5032
  980MOL0     H29323   3.909   7.612   3.517  2.9092  0.6533  0.7267
  980MOL0     H29324   4.004   7.958   3.953 -1.0044 -1.0414 -0.9980
  980MOL0     H29325   4.037   8.215   3.970 -0.6139  1.0486  0.5839
  980MOL0     H29326   4.112   8.390   3.736 -0.1449  0.0321  0.0611
  980MOL0     H29327   4.089   8.450   3.893 -1.0499 -3.8861  0.7803
  980MOL0     H29328   4.138   8.624   3.727 -0.9272  3.2043  0.3399
  980MOL0     H29329   3.983   8.661   3.785 -0.5115  0.3292 -1.7335
  980MOL0     H29330   3.889   8.563   3.581  0.0686 -0.7045  1.4953
  980MOL0     H29331   4.046   8.500   3.522  1.0814  0.5784 -1.1445
  980MOL0     H29332   3.997   8.798   3.588 -0.1008 -0.1787  1.0960
  980MOL0     H29333   4.150   8.721   3.534  0.9505  1.8967 -1.6977
  980MOL0     H29334   3.886   8.704   3.382 -0.3540  0.7648  2.8447
  980MOL0     H29335   4.031   8.670   3.306 -0.8180  1.0101 -0.7949
  980MOL0     H29336   3.993   8.950   3.372  0.7645 -0.8455  1.3225
  980MOL0     H29337   3.977   8.862   3.210  1.2573 -1.8256 -1.0149
  980MOL0     H29338   4.238   8.867   3.374  1.7311  0.0128 -1.3118
  980MOL0     H29339   4.205   8.790   3.226 -0.9163 -0.3755  0.8571
  980MOL0     H29340   4.198   9.087   3.287  0.3267 -0.4784 -0.0483
  980MOL0     H29341   4.149   9.033   3.119 -0.5533 -2.5815  0.2808
  980MOL0     H29342   3.757   8.252   3.651 -0.0440 -1.8227 -0.7734
  980MOL0     H29343   3.701   8.015   3.668  1.3582 -2.1798 -0.0095
  980MOL0     H29344   3.794   7.592   3.929  0.6599  2.5988 -1.2661
  980MOL0     H29345   3.776   7.347   3.909  0.9960 -0.1248  1.6405
  980MOL0     H29346   3.289   7.675   4.497 -3.4304  3.1569 -0.7425
  980MOL0     H29347   3.168   7.858   4.584 -1.4780  0.0807  0.7318
  980MOL0     H29348   3.020   8.078   5.163 -0.3257 -3.1938  0.6309
  980MOL0     H29349   2.822   8.234   5.210  1.5664 -2.7060  1.8337
  980MOL0     H29350   2.619   8.425   5.128 -0.6443 -0.7859 -1.0368
  980MOL0     H29351   2.624   8.286   5.225  0.5549  1.5311  1.1303
  980MOL0     H29352   2.375   8.368   5.063 -1.1723 -1.6570  1.2241
  980MOL0     H29353   2.372   8.279   5.214  2.1936 -1.4472 -0.2697
  980MOL0     H29354   2.457   8.581   5.174  1.9638 -0.2829  1.4366
  980MOL0     H29355   2.466   8.499   5.328  2.9571  1.6383 -1.8866
  980MOL0     H29356   2.247   8.642   5.250  1.0300 -0.2974  3.3575
  980MOL0     H29357   2.199   8.505   5.151  2.6959  1.5894 -2.6331
  980MOL0     H29358   2.057   8.425   5.541  0.2939  2.3243  1.3608
  980MOL0     H29359   2.707   8.174   4.813 -0.9274  1.8041  0.5803
  980MOL0     H29360   2.878   8.013   4.774 -1.3523  1.7894 -0.6813
  981MOL0     O29361   0.344   2.378   7.994  0.5996  0.4401  0.5641
  981MOL0     C29362   0.223   2.357   8.028  0.5707 -0.3157 -0.1385
  981MOL0     O29363   0.171   2.366   8.158 -0.3056 -0.2195 -0.0626
  981MOL0     C29364   0.239   2.408   8.273 -0.3796  0.7181 -0.1673
  981MOL0     C29365   0.372   2.423   8.302 -0.1496  0.1671  0.5133
  981MOL0     C29366   0.420   2.436   8.424 -1.2888 -0.3013  0.1602
  981MOL0     C29367   0.329   2.454   8.531 -0.7751 -0.0593 -0.4706
  981MOL0     O29368   0.378   2.504   8.651 -0.1766 -0.1854  0.1341
  981MOL0     C29369   0.520   2.524   8.682  0.4300  0.3479  0.3490
  981MOL0     C29370   0.528   2.551   8.836 -0.2223 -0.1722  0.0052
  981MOL0     C29371   0.460   2.686   8.879 -0.9550  1.3259  0.9240
  981MOL0     C29372   0.467   2.710   9.031  0.0660 -0.3353 -0.0750
  981MOL0     C29373   0.369   2.811   9.078 -0.6778 -0.1005 -0.1566
  981MOL0     C29374   0.386   2.956   9.018  0.7995  0.5374 -0.4737
  981MOL0     C29375   0.498   3.021   9.088  0.1614 -1.0362  0.1151
  981MOL0     C29376   0.478   3.069   9.236 -0.1118 -0.9319 -1.0248
  981MOL0     N29377   0.583   3.157   9.288  0.8300  1.1505  0.7032
  981MOL0     C29378   0.598   3.288   9.241  0.0321 -0.0924 -0.7894
  981MOL0     C29379   0.699   3.339   9.319  0.8889  0.3924  0.0294
  981MOL0     C29380   0.735   3.488   9.322  0.5018 -0.7314  0.3995
  981MOL0     C29381   0.859   3.514   9.245  0.4331  0.8569  0.5430
  981MOL0     C29382   0.912   3.654   9.254 -0.2948  0.6917  0.0333
  981MOL0     C29383   0.816   3.747   9.179 -0.0577 -0.3252 -0.8049
  981MOL0     O29384   0.793   3.872   9.258 -0.3113 -0.5771 -0.3304
  981MOL0     C29385   0.868   3.981   9.214  0.3661  0.3480 -0.7007
  981MOL0     C29386   0.814   4.070   9.118 -0.4098  0.4395  0.5766
  981MOL0     C29387   0.898   4.170   9.066 -0.3040 -0.5125 -0.4094
  981MOL0     C29388   1.025   4.197   9.114 -0.4334  0.2624  0.4451
  981MOL0     C29389   1.110   4.295   9.046 -0.1494 -0.2646  1.1165
  981MOL0     O29390   1.070   4.334   8.917 -0.1080  0.5520  0.8196
  981MOL0     C29391   1.141   4.410   8.836 -1.3249  0.1088  0.4163
  981MOL0     C29392   1.173   4.372   8.710 -1.1549  0.6096 -0.4395
  981MOL0     C29393   1.246   4.461   8.625  0.8423  0.0466  0.5501
  981MOL0     C29394   1.276   4.596   8.657 -0.4739 -0.0963  0.3885
  981MOL0     O29395   1.331   4.684   8.572  0.9614 -0.3009 -0.7599
  981MOL0     C29396   1.391   4.805   8.621  0.8639 -0.2885  0.9925
  981MOL0     C29397   1.466   4.887   8.522 -0.6332  0.4601  0.2751
  981MOL0     C29398   1.600   4.821   8.462 -0.5073 -0.6138  0.2735
  981MOL0     C29399   1.681   4.921   8.375 -0.2235  0.4471  0.2322
  981MOL0     C29400   1.749   5.030   8.448  0.9478 -0.6766 -0.1692
  981MOL0     C29401   1.832   5.112   8.355 -0.2291 -0.8078  0.1035
  981MOL0     C29402   1.895   5.239   8.408 -0.4440  0.0868 -0.2342
  981MOL0     C29403   1.981   5.217   8.533 -0.2880 -0.0336 -0.5810
  981MOL0    Cl29404   2.039   5.378   8.580 -0.1070  0.5719  0.2086
  981MOL0     C29405   1.253   4.629   8.788 -0.2273  0.1416 -0.8053
  981MOL0     C29406   1.179   4.539   8.871 -0.1620 -1.1268 -1.3831
  981MOL0     O29407   1.208   4.337   9.106  0.7059  0.2738 -0.7159
  981MOL0     C29408   1.075   4.118   9.223  0.1902  0.5080 -1.0920
  981MOL0     C29409   1.001   4.003   9.262  1.0127 -0.5659 -0.7730
  981MOL0     N29410   0.753   3.231   9.396 -0.1018 -0.2446 -0.4075
  981MOL0     N29411   0.682   3.124   9.367 -0.2445  0.7388 -0.0690
  981MOL0     C29412   0.192   2.444   8.515  0.4699  0.0377  0.4238
  981MOL0     C29413   0.152   2.418   8.382  0.1294  0.4254  1.2544
  981MOL0     C29414   0.133   2.309   7.921  0.0500  0.2808 -1.0539
  981MOL0     C29415   0.178   2.310   7.788 -0.8891 -0.4805 -0.3451
  981MOL0     C29416   0.110   2.255   7.686  0.0644 -0.3263  0.6472
  981MOL0     C29417  -0.018   2.202   7.713  0.6890 -0.6658 -0.0921
  981MOL0     O29418  -0.102   2.165   7.614 -0.0930  0.8371  0.2373
  981MOL0     C29419  -0.068   2.160   7.470  0.4994  0.1089 -0.5975
  981MOL0     C29420  -0.132   2.030   7.413 -0.3446  0.0405  0.2033
  981MOL0     C29421  -0.109   1.896   7.484 -0.3148 -0.0012 -0.0252
  981MOL0     C29422   0.038   1.863   7.515 -0.9175  1.3013  1.2182
  981MOL0     C29423   0.063   1.723   7.541  0.9286 -1.1528 -0.2017
  981MOL0     C29424   0.081   1.605   7.562  0.6066 -0.2246  0.9638
  981MOL0     C29425  -0.077   2.214   7.844 -0.4273 -0.6839  0.0835
  981MOL0     C29426   0.003   2.267   7.952  0.1247  0.0155 -0.6117
  981MOL0     H29427   0.445   2.427   8.221  1.3931  2.0607  1.8780
  981MOL0     H29428   0.529   2.438   8.423 -1.2782  2.4623 -0.0470
  981MOL0     H29429   0.580   2.598   8.629  2.6254 -1.5422  0.0087
  981MOL0     H29430   0.575   2.430   8.672  0.9529  0.7853 -1.2351
  981MOL0     H29431   0.634   2.539   8.858 -0.2330 -0.3678 -0.0496
  981MOL0     H29432   0.472   2.470   8.885 -0.4371  0.6740  1.2011
  981MOL0     H29433   0.353   2.678   8.856 -0.7064  1.7165 -0.4715
  981MOL0     H29434   0.497   2.770   8.821  0.8072 -0.4102 -0.6012
  981MOL0     H29435   0.440   2.614   9.077 -0.5715  0.2217  0.7373
  981MOL0     H29436   0.572   2.739   9.046  1.0463 -0.8488 -4.5719
  981MOL0     H29437   0.375   2.814   9.187  0.6591  4.6376 -0.1370
  981MOL0     H29438   0.267   2.781   9.054 -0.5130  0.1976 -1.3009
  981MOL0     H29439   0.293   3.007   9.045  1.5202  0.8020  1.7062
  981MOL0     H29440   0.393   2.965   8.909 -0.8598 -0.6383 -0.7267
  981MOL0     H29441   0.584   2.954   9.081 -0.8852 -2.3106 -1.1124
  981MOL0     H29442   0.516   3.109   9.025 -3.3964 -0.3446 -0.1984
  981MOL0     H29443   0.475   2.982   9.302  1.3199 -1.2695 -1.3851
  981MOL0     H29444   0.381   3.118   9.247 -0.0136 -1.3065  2.7540
  981MOL0     H29445   0.538   3.340   9.167 -2.9141 -2.3747 -0.1927
  981MOL0     H29446   0.749   3.510   9.428 -0.6593 -1.0027  0.6266
  981MOL0     H29447   0.652   3.556   9.298  1.8888  1.8179  2.3045
  981MOL0     H29448   0.833   3.503   9.139  1.3780  1.5041  0.2336
  981MOL0     H29449   0.928   3.441   9.287  0.4353  0.8239  0.4821
  981MOL0     H29450   0.932   3.674   9.360  0.7340  1.5213 -0.2985
  981MOL0     H29451   1.007   3.667   9.201  0.8284  0.8547  1.9885
  981MOL0     H29452   0.716   3.705   9.162 -0.7957  1.1213 -0.2293
  981MOL0     H29453   0.847   3.763   9.075 -1.3010  1.3454 -0.9564
  981MOL0     H29454   0.719   4.072   9.065  0.2244 -0.3741 -0.6150
  981MOL0     H29455   0.854   4.220   8.981  0.0878  0.6000  0.0255
  981MOL0     H29456   1.155   4.270   8.677  0.1417 -0.3781  1.7135
  981MOL0     H29457   1.267   4.431   8.523 -0.0623 -0.5320  0.5278
  981MOL0     H29458   1.455   4.787   8.708 -0.8345  0.0568  2.3518
  981MOL0     H29459   1.319   4.880   8.652 -0.3486  0.0025 -2.1757
  981MOL0     H29460   1.479   4.981   8.576 -4.3316 -0.1805  2.6192
  981MOL0     H29461   1.411   4.915   8.432 -0.7388  2.0730  0.8143
  981MOL0     H29462   1.565   4.744   8.394  2.6576 -1.5910 -0.4210
  981MOL0     H29463   1.659   4.769   8.539  2.3429  0.0825 -1.2791
  981MOL0     H29464   1.754   4.851   8.334 -1.2959 -1.9785  2.1664
  981MOL0     H29465   1.615   4.968   8.301 -0.3791  0.7168  0.5403
  981MOL0     H29466   1.815   4.984   8.523  0.5705  2.7567  2.5107
  981MOL0     H29467   1.680   5.080   8.517 -0.3356 -4.5709  1.6856
  981MOL0     H29468   1.766   5.147   8.275 -3.6742 -1.6397  2.3524
  981MOL0     H29469   1.903   5.045   8.307  0.2791  1.2884 -2.2619
  981MOL0     H29470   1.952   5.290   8.330 -3.7599  4.4750 -0.1582
  981MOL0     H29471   1.815   5.311   8.430  1.6391  2.8318 -1.0679
  981MOL0     H29472   2.060   5.144   8.514 -1.1078 -0.6889 -1.5844
  981MOL0     H29473   1.925   5.168   8.612  1.8790 -1.1776  0.3404
  981MOL0     H29474   1.290   4.725   8.822 -2.6795  1.2507 -1.0483
  981MOL0     H29475   1.164   4.572   8.974  2.0822 -0.8712 -1.0919
  981MOL0     H29476   1.169   4.140   9.274 -0.6130  0.2867  0.5711
  981MOL0     H29477   1.044   3.927   9.325  2.4479  1.5561  0.9835
  981MOL0     H29478   0.123   2.448   8.598 -0.9634 -1.2250 -0.6515
  981MOL0     H29479   0.049   2.404   8.350 -0.1607  1.1190  1.8747
  981MOL0     H29480   0.275   2.356   7.776 -0.1622 -1.7712  0.3044
  981MOL0     H29481   0.155   2.249   7.587  2.1178 -2.5564  1.6248
  981MOL0     H29482   0.036   2.128   7.460  0.3951 -1.5083  2.4328
  981MOL0     H29483  -0.101   2.247   7.412 -2.0660 -0.9322 -0.8661
  981MOL0     H29484  -0.232   2.072   7.399  0.0636  2.2511  3.0417
  981MOL0     H29485  -0.093   2.011   7.312  1.4583  2.2474  0.3899
  981MOL0     H29486  -0.153   1.824   7.415  0.8549  2.7507 -4.0277
  981MOL0     H29487  -0.163   1.905   7.579  0.0446  1.5029  0.0589
  981MOL0     H29488   0.094   1.887   7.424 -1.5777  0.5905  0.6181
  981MOL0     H29489   0.080   1.924   7.596  1.0935  0.5795  0.7880
  981MOL0     H29490   0.086   1.502   7.590 -0.9843 -0.2801  1.1665
  981MOL0     H29491  -0.181   2.182   7.841 -0.2310 -1.3450 -3.6498
  981MOL0     H29492  -0.035   2.258   8.053 -0.9885  0.3946 -0.9912
  982MOL0     O29493   2.818   1.244   5.549 -0.1304  0.1884 -0.1507
  982MOL0     C29494   2.797   1.127   5.562 -1.1108  0.1182  0.3840
  982MOL0     O29495   2.883   1.032   5.625  0.0472  0.0852  0.5108
  982MOL0     C29496   3.016   1.035   5.608 -0.5997  1.1126 -0.2224
  982MOL0     C29497   3.090   0.987   5.711  0.3344  0.2040 -0.2388
  982MOL0     C29498   3.233   0.960   5.690 -0.1091 -0.5645 -0.2272
  982MOL0     C29499   3.290   1.008   5.575  0.5391  0.3978  0.4831
  982MOL0     O29500   3.428   1.015   5.547  0.0479 -0.2638 -0.1462
  982MOL0     C29501   3.518   0.958   5.644 -0.7650 -0.5087 -0.1822
  982MOL0     C29502   3.659   0.961   5.592  0.4981  0.8900  0.4650
  982MOL0     C29503   3.682   0.851   5.480  0.0577  0.3127 -0.3550
  982MOL0     C29504   3.832   0.847   5.457  0.1617  0.3498  0.8355
  982MOL0     C29505   3.866   0.759   5.334 -0.7601  0.7694  0.4291
  982MOL0     C29506   3.859   0.608   5.357 -0.1756 -0.1031 -0.2009
  982MOL0     C29507   3.809   0.515   5.247 -0.1723 -0.8645  0.0656
  982MOL0     C29508   3.921   0.449   5.160 -0.2979  0.0705 -1.1856
  982MOL0     N29509   3.868   0.379   5.039  0.3284 -0.2139 -0.3823
  982MOL0     C29510   3.828   0.449   4.928  0.6268  0.8233  0.8461
  982MOL0     C29511   3.778   0.351   4.844 -0.1164 -0.3535  0.1755
  982MOL0     C29512   3.747   0.357   4.699  0.2233  0.4731 -0.5443
  982MOL0     C29513   3.607   0.312   4.688  0.4356 -0.2926 -0.0437
  982MOL0     C29514   3.550   0.346   4.540 -0.4717 -0.3585  0.0675
  982MOL0     C29515   3.520   0.493   4.527 -0.2629 -0.0892  0.3022
  982MOL0     O29516   3.632   0.575   4.490  0.2015 -0.1592 -0.5308
  982MOL0     C29517   3.645   0.701   4.530 -0.5092  0.1703  0.3782
  982MOL0     C29518   3.533   0.792   4.550 -0.9715  0.5867 -0.3388
  982MOL0     C29519   3.554   0.927   4.567 -0.9493  0.2132  0.3623
  982MOL0     C29520   3.685   0.974   4.584 -0.8281  0.3271  0.1250
  982MOL0     C29521   3.719   1.116   4.618  0.1031  0.3438  0.3036
  982MOL0     O29522   3.626   1.178   4.692  0.1464 -0.5326 -1.0778
  982MOL0     C29523   3.621   1.314   4.678 -0.2931  0.1090 -0.4088
  982MOL0     C29524   3.608   1.377   4.550  0.3047  1.0892  0.7925
  982MOL0     C29525   3.608   1.517   4.531 -0.1694  0.6181  0.4038
  982MOL0     C29526   3.617   1.589   4.647  0.0143  0.4320 -0.0160
  982MOL0     O29527   3.618   1.726   4.644 -0.2737  0.3723  0.2909
  982MOL0     C29528   3.742   1.777   4.601  0.2966 -0.3757 -0.1627
  982MOL0     C29529   3.767   1.902   4.671  0.3186 -1.2096  0.0188
  982MOL0     C29530   3.777   1.890   4.822  0.2725  1.2093  0.4379
  982MOL0     C29531   3.811   2.022   4.883 -0.5540  1.0087  0.0662
  982MOL0     C29532   3.815   2.016   5.033  0.1765 -0.1056  0.0714
  982MOL0     C29533   3.863   2.150   5.081  0.5318 -0.4783  0.2332
  982MOL0     C29534   3.865   2.165   5.230 -0.0325  0.4603 -0.2832
  982MOL0     C29535   3.732   2.150   5.299 -0.4467  0.2227  0.0324
  982MOL0    Cl29536   3.609   2.245   5.208  0.5449  0.1170  0.2118
  982MOL0     C29537   3.639   1.522   4.770  0.3684  0.0672  0.2749
  982MOL0     C29538   3.637   1.391   4.789 -0.5834  1.1917  0.9317
  982MOL0     O29539   3.828   1.158   4.591  0.1446 -0.6674 -0.7645
  982MOL0     C29540   3.796   0.892   4.558 -0.5241 -0.2692 -0.3678
  982MOL0     C29541   3.771   0.757   4.536  0.1037 -0.5320  0.4734
  982MOL0     N29542   3.787   0.230   4.911 -0.0022 -0.0896 -0.5808
  982MOL0     N29543   3.826   0.252   5.032 -0.4359 -0.3852 -0.3885
  982MOL0     C29544   3.209   1.049   5.470  0.1701  0.5703  0.3044
  982MOL0     C29545   3.070   1.066   5.486  0.4448 -0.5186 -1.1857
  982MOL0     C29546   2.662   1.088   5.511  0.2896 -0.2459 -1.2876
  982MOL0     C29547   2.637   0.960   5.486 -0.3142 -0.1487 -0.0458
  982MOL0     C29548   2.521   0.901   5.443 -1.1044 -0.0604 -0.0166
  982MOL0     C29549   2.407   0.981   5.415  0.1518  1.2280 -0.5712
  982MOL0     O29550   2.288   0.917   5.378 -0.4108 -0.4516  0.8827
  982MOL0     C29551   2.220   1.001   5.282  0.1358  1.4372 -0.3156
  982MOL0     C29552   2.119   0.916   5.195  0.3437 -0.0914 -0.1174
  982MOL0     C29553   1.973   0.885   5.245 -0.0681 -0.1201  0.5821
  982MOL0     C29554   1.868   0.836   5.143 -1.0572 -0.2445  0.2506
  982MOL0     C29555   1.870   0.937   5.042 -0.9584 -0.4073  0.5103
  982MOL0     C29556   1.858   1.020   4.960 -0.8360 -0.5163  0.4606
  982MOL0     C29557   2.433   1.119   5.432 -0.3484 -0.5896  0.0948
  982MOL0     C29558   2.550   1.172   5.469  0.3700  0.6470  0.2602
  982MOL0     H29559   3.037   0.955   5.800 -2.0942  2.4255 -0.7476
  982MOL0     H29560   3.299   0.920   5.766 -0.2470  1.2452  0.9050
  982MOL0     H29561   3.487   0.854   5.663 -3.4658 -0.0104 -1.3513
  982MOL0     H29562   3.517   1.012   5.739  0.4096  0.0087 -0.4531
  982MOL0     H29563   3.721   0.930   5.676 -0.2041  2.8578  1.7906
  982MOL0     H29564   3.680   1.058   5.545 -0.3866  1.2006  0.6990
  982MOL0     H29565   3.623   0.872   5.391 -1.1550  0.1870  0.3931
  982MOL0     H29566   3.646   0.757   5.523  0.7280 -0.0102 -0.4892
  982MOL0     H29567   3.854   0.950   5.430  1.5810 -0.2617 -0.4975
  982MOL0     H29568   3.877   0.810   5.549 -4.2126 -0.0845  3.0885
  982MOL0     H29569   3.969   0.778   5.304 -0.9681  2.1508  0.5553
  982MOL0     H29570   3.809   0.785   5.244 -3.9391 -3.3421  0.8897
  982MOL0     H29571   3.793   0.584   5.441 -0.6373 -0.5022 -0.6674
  982MOL0     H29572   3.960   0.590   5.395  0.3597 -1.4275 -2.1255
  982MOL0     H29573   3.753   0.434   5.294  1.1541 -1.5725  0.4694
  982MOL0     H29574   3.731   0.570   5.193  0.6862  0.3754  0.0458
  982MOL0     H29575   3.973   0.383   5.230 -1.6455  0.4911  0.2762
  982MOL0     H29576   3.998   0.523   5.134  0.5660 -0.1341  0.6157
  982MOL0     H29577   3.842   0.554   4.902 -1.5619  0.6551 -1.3126
  982MOL0     H29578   3.823   0.296   4.649 -0.2237 -1.4938  1.0353
  982MOL0     H29579   3.765   0.462   4.672 -4.0790  1.7121  0.6201
  982MOL0     H29580   3.550   0.359   4.768 -0.3182 -4.5981  2.2764
  982MOL0     H29581   3.591   0.205   4.703  0.1101 -0.2816 -0.3092
  982MOL0     H29582   3.606   0.300   4.458 -1.4939  3.1916 -2.8619
  982MOL0     H29583   3.448   0.306   4.540 -0.2966 -0.8187  0.7451
  982MOL0     H29584   3.476   0.531   4.620  2.1933  0.2954  1.3859
  982MOL0     H29585   3.446   0.482   4.448 -0.8858 -1.8548  1.0744
  982MOL0     H29586   3.431   0.764   4.526 -1.0045 -0.4939  0.9457
  982MOL0     H29587   3.468   0.992   4.578 -3.1377 -2.4101  0.1194
  982MOL0     H29588   3.592   1.311   4.465  2.3207 -0.7293  1.7456
  982MOL0     H29589   3.590   1.559   4.433 -1.1240  1.4506  0.9060
  982MOL0     H29590   3.732   1.790   4.493  1.3828 -0.4462 -0.2800
  982MOL0     H29591   3.828   1.710   4.612 -0.0719 -1.0839 -1.4181
  982MOL0     H29592   3.690   1.976   4.648  2.6662  1.1646 -0.7481
  982MOL0     H29593   3.866   1.930   4.633 -0.7610 -0.7960 -2.7448
  982MOL0     H29594   3.862   1.828   4.850 -0.1646  0.6578  0.5713
  982MOL0     H29595   3.688   1.836   4.859 -0.0014  1.0390 -0.4475
  982MOL0     H29596   3.911   2.052   4.848 -1.2588  3.1914 -0.2311
  982MOL0     H29597   3.736   2.097   4.858  1.1161  2.8312  0.2337
  982MOL0     H29598   3.892   1.944   5.062 -0.1673  0.0505  1.3999
  982MOL0     H29599   3.721   1.985   5.080  0.6729  1.2397  2.0481
  982MOL0     H29600   3.814   2.233   5.029  2.1139 -0.8225 -1.9646
  982MOL0     H29601   3.963   2.153   5.038  1.6194  2.0187  2.6476
  982MOL0     H29602   3.927   2.084   5.271 -0.3154  1.1683  1.6402
  982MOL0     H29603   3.924   2.254   5.255 -3.2410  2.8027 -0.4374
  982MOL0     H29604   3.743   2.178   5.404 -0.7124  0.4517  0.0015
  982MOL0     H29605   3.709   2.043   5.293  0.8615 -0.1491  1.2054
  982MOL0     H29606   3.664   1.578   4.860 -1.8685  0.7960  0.5112
  982MOL0     H29607   3.649   1.337   4.883  3.3785  1.7467  0.9239
  982MOL0     H29608   3.895   0.924   4.587 -0.3046 -2.0363  1.0680
  982MOL0     H29609   3.844   0.677   4.539 -1.4602 -1.9839  1.2271
  982MOL0     H29610   3.256   1.073   5.375 -0.5079  0.4219 -0.0785
  982MOL0     H29611   3.004   1.093   5.403 -0.6642 -4.1424 -1.6864
  982MOL0     H29612   2.707   0.892   5.533 -0.8829  0.8358  2.3537
  982MOL0     H29613   2.511   0.793   5.439  4.3414 -0.9109  0.4701
  982MOL0     H29614   2.292   1.048   5.216  1.6685  0.6843  0.7488
  982MOL0     H29615   2.161   1.074   5.339 -1.5036  0.1290 -0.2317
  982MOL0     H29616   2.111   0.970   5.100  2.4887  0.5813  0.0135
  982MOL0     H29617   2.160   0.816   5.177 -1.2876 -0.7593 -0.2829
  982MOL0     H29618   1.939   0.972   5.303 -0.0157 -1.9961  3.7003
  982MOL0     H29619   1.993   0.804   5.315 -1.9410 -0.9781  0.1847
  982MOL0     H29620   1.917   0.753   5.092  2.0512  1.3944  0.2994
  982MOL0     H29621   1.765   0.818   5.177 -0.8332 -1.4073  0.3402
  982MOL0     H29622   1.849   1.099   4.889 -0.2650 -0.6507  0.2355
  982MOL0     H29623   2.367   1.204   5.419  1.6982  1.0362 -0.2186
  982MOL0     H29624   2.559   1.280   5.477  2.5393  0.6023 -0.8015
  983MOL0     O29625  11.092   4.598  10.782 -0.4251 -0.0061 -0.6058
  983MOL0     C29626  11.153   4.705  10.802  0.0626  0.6157  0.1515
  983MOL0     O29627  11.225   4.735  10.917  0.2685 -0.7044  0.2750
  983MOL0     C29628  11.227   4.643  11.018  0.3727  0.3073 -0.1518
  983MOL0     C29629  11.177   4.692  11.137  0.3337 -0.4048  0.5055
  983MOL0     C29630  11.168   4.619  11.253 -0.3825  0.9219  0.4692
  983MOL0     C29631  11.235   4.491  11.259 -0.4678 -0.4262  0.3492
  983MOL0     O29632  11.235   4.432  11.382 -0.2326  0.9571  0.6809
  983MOL0     C29633  11.274   4.294  11.387  0.8649 -0.3849 -0.1798
  983MOL0     C29634  11.311   4.258  11.537 -0.5082  0.6951 -0.3324
  983MOL0     C29635  11.401   4.366  11.623 -0.2949  0.1371  0.5387
  983MOL0     C29636  11.431   4.310  11.763  0.3321 -0.3704 -0.5909
  983MOL0     C29637  11.497   4.411  11.858  0.0479 -0.4317  0.0598
  983MOL0     C29638  11.646   4.390  11.872 -0.0263  0.0507  0.3539
  983MOL0     C29639  11.698   4.487  11.983 -0.5037  0.5995  0.3319
  983MOL0     C29640  11.859   4.504  11.984  0.4975 -0.8341 -0.0036
  983MOL0     N29641  11.928   4.384  12.035  0.9303  0.4095 -0.8022
  983MOL0     C29642  11.914   4.354  12.169 -0.3722  0.1063 -1.6787
  983MOL0     C29643  12.004   4.260  12.192  0.5949  0.7454 -0.2880
  983MOL0     C29644  12.041   4.168  12.308  0.1824  0.8549 -0.6213
  983MOL0     C29645  11.948   4.037  12.312 -0.0204  0.3872  0.6373
  983MOL0     C29646  11.805   4.087  12.356  0.3878 -0.1079 -0.2488
  983MOL0     C29647  11.775   4.103  12.510 -0.8739  0.1873  0.1110
  983MOL0     O29648  11.900   4.093  12.577  0.4637  0.2861 -0.1224
  983MOL0     C29649  11.917   4.040  12.713  1.1849  0.2134 -0.6510
  983MOL0     C29650  12.048   4.020  12.764  0.5094  0.2223  0.6802
  983MOL0     C29651  12.057   4.009  12.903  0.0533  1.0198  0.1954
  983MOL0     C29652  11.952   4.001  12.991 -1.2116 -0.2109 -0.1685
  983MOL0     C29653  11.963   3.987  13.147  1.1909 -0.3455 -0.2771
  983MOL0     O29654  11.851   4.001  13.223  0.7903  0.8954 -0.4004
  983MOL0     C29655  11.863   4.012  13.358 -0.3316  0.7567 -0.9886
  983MOL0     C29656  11.796   3.928  13.445  0.2169  0.0265  0.2083
  983MOL0     C29657  11.820   3.929  13.575 -1.4281  0.5731 -0.5134
  983MOL0     C29658  11.932   4.004  13.632  0.3854 -0.3793 -0.2070
  983MOL0     O29659  11.956   4.005  13.764  0.2818 -0.0162 -1.1403
  983MOL0     C29660  11.970   4.126  13.843  0.5809  0.3629 -0.1823
  983MOL0     C29661  11.831   4.165  13.890  0.1844  0.9303  1.2696
  983MOL0     C29662  11.827   4.287  13.975 -0.0921 -0.3797 -0.7126
  983MOL0     C29663  11.677   4.315  14.014 -0.3657  0.5002  0.1382
  983MOL0     C29664  11.680   4.419  14.126  0.1996 -0.1177  0.0267
  983MOL0     C29665  11.545   4.420  14.203  0.4092  0.5304  0.9625
  983MOL0     C29666  11.554   4.475  14.345  0.8810  0.0971 -0.3044
  983MOL0     C29667  11.461   4.409  14.446  0.8186  0.0949 -0.3942
  983MOL0    Cl29668  11.520   4.245  14.474 -0.3332 -0.0787 -0.0305
  983MOL0     C29669  11.998   4.095  13.549 -0.4550 -0.8710  0.4314
  983MOL0     C29670  11.954   4.102  13.412  0.2370  0.0719 -0.4030
  983MOL0     O29671  12.068   3.944  13.189  0.8350 -0.2782  0.8514
  983MOL0     C29672  11.828   4.013  12.945 -0.1713  1.0396  0.8858
  983MOL0     C29673  11.806   4.041  12.803  0.2733  0.0432 -1.2885
  983MOL0     N29674  12.066   4.227  12.074  0.3066 -0.4457 -0.4121
  983MOL0     N29675  12.027   4.306  11.977  0.8076 -0.1716  0.3749
  983MOL0     C29676  11.298   4.455  11.135 -0.8876  0.9898 -0.2395
  983MOL0     C29677  11.300   4.533  11.021  0.9278 -0.8363  1.0185
  983MOL0     C29678  11.147   4.806  10.690 -0.6645  0.2345  0.6143
  983MOL0     C29679  11.081   4.780  10.564 -0.4543  0.3131  0.4382
  983MOL0     C29680  11.085   4.868  10.457  0.5801 -0.3468  0.2436
  983MOL0     C29681  11.156   4.986  10.470 -0.1519 -1.4139 -0.4493
  983MOL0     O29682  11.146   5.077  10.363 -0.4305  0.3476 -0.9156
  983MOL0     C29683  11.246   5.182  10.350 -0.1366 -0.2507 -0.2350
  983MOL0     C29684  11.231   5.236  10.218 -0.3270  0.6801  0.3286
  983MOL0     C29685  11.321   5.155  10.132  0.8115  0.5728 -0.3113
  983MOL0     C29686  11.312   5.202   9.990  0.1444  0.4397 -0.5182
  983MOL0     C29687  11.406   5.122   9.904  0.9939  0.9262 -0.0988
  983MOL0     C29688  11.471   5.076   9.814  0.2377  0.5202  0.7895
  983MOL0     C29689  11.200   5.025  10.603 -0.4966  0.0697  0.4811
  983MOL0     C29690  11.206   4.932  10.710 -0.4862  0.1523 -0.8332
  983MOL0     H29691  11.146   4.795  11.146 -0.5225 -0.2890 -2.4727
  983MOL0     H29692  11.122   4.657  11.343 -0.7700  0.5973  0.4073
  983MOL0     H29693  11.359   4.275  11.320  1.2857  0.6495  0.0433
  983MOL0     H29694  11.185   4.252  11.338  1.2886  1.8563 -3.1936
  983MOL0     H29695  11.364   4.163  11.540 -1.1712  0.3187 -0.4796
  983MOL0     H29696  11.218   4.233  11.590 -0.3024  2.1162  0.7684
  983MOL0     H29697  11.335   4.453  11.630 -1.3707 -0.5496 -0.6148
  983MOL0     H29698  11.493   4.404  11.579  0.0006  0.7764  1.6778
  983MOL0     H29699  11.336   4.273  11.803  1.6345 -1.4787  1.6668
  983MOL0     H29700  11.491   4.218  11.763 -0.1674 -0.7202  1.0674
  983MOL0     H29701  11.464   4.395  11.961  1.9469 -1.4560  0.5689
  983MOL0     H29702  11.479   4.513  11.825 -2.7648 -0.8520  0.0380
  983MOL0     H29703  11.694   4.411  11.776 -2.6366  0.9754 -0.8539
  983MOL0     H29704  11.673   4.288  11.898  0.4312 -0.3929 -1.6985
  983MOL0     H29705  11.649   4.584  11.969  2.6893  2.1374 -1.2483
  983MOL0     H29706  11.665   4.456  12.083 -1.0156 -2.2016 -0.6306
  983MOL0     H29707  11.899   4.575  12.057  3.4361 -0.9462 -1.3704
  983MOL0     H29708  11.903   4.531  11.888 -1.0994 -2.2187 -1.1840
  983MOL0     H29709  11.859   4.403  12.248  1.7559 -0.1412  0.0703
  983MOL0     H29710  12.034   4.217  12.405 -1.1534  1.3437 -0.9443
  983MOL0     H29711  12.142   4.129  12.293  0.9273  2.5274 -0.1067
  983MOL0     H29712  11.989   3.957  12.375  2.7507  0.6057 -0.7154
  983MOL0     H29713  11.918   4.000  12.213 -3.5556 -0.3434  1.8575
  983MOL0     H29714  11.783   4.181  12.305  2.5736  0.7081  0.2202
  983MOL0     H29715  11.734   4.021  12.306  0.0976 -0.1042  0.1510
  983MOL0     H29716  11.706   4.022  12.535 -1.0105 -0.1179 -1.1871
  983MOL0     H29717  11.728   4.200  12.529  0.9060  1.0316  0.4190
  983MOL0     H29718  12.136   4.027  12.701 -1.1505 -2.0578 -2.1419
  983MOL0     H29719  12.157   3.984  12.935  0.3089 -1.1392 -2.0207
  983MOL0     H29720  11.721   3.864  13.400  0.6816  0.5002 -1.2983
  983MOL0     H29721  11.768   3.855  13.636  2.9113 -2.4979 -0.0257
  983MOL0     H29722  12.015   4.204  13.782 -1.5940  2.1111  0.3357
  983MOL0     H29723  12.034   4.096  13.926 -1.5939 -3.3663  0.3884
  983MOL0     H29724  11.786   4.075  13.934  0.0007  0.1761 -0.3901
  983MOL0     H29725  11.783   4.185  13.794  3.8616 -3.6434 -1.9540
  983MOL0     H29726  11.876   4.370  13.923 -1.3926  1.0056  0.1848
  983MOL0     H29727  11.892   4.273  14.062 -0.6734  0.6114 -0.0924
  983MOL0     H29728  11.637   4.354  13.920 -0.5192  0.5856  0.2378
  983MOL0     H29729  11.634   4.216  14.036  0.5093 -0.7755 -3.2139
  983MOL0     H29730  11.710   4.518  14.089  3.3292 -0.8773  0.3133
  983MOL0     H29731  11.762   4.395  14.194  1.9446  2.0612 -1.1693
  983MOL0     H29732  11.505   4.318  14.207 -0.3477  0.5952 -2.0881
  983MOL0     H29733  11.471   4.483  14.153 -0.4737 -0.6963  0.6826
  983MOL0     H29734  11.657   4.475  14.381  0.0480 -5.9660  3.4840
  983MOL0     H29735  11.522   4.579  14.329  0.8738 -0.0728 -1.4360
  983MOL0     H29736  11.357   4.404  14.414  1.3779 -1.6395 -2.1916
  983MOL0     H29737  11.457   4.458  14.543 -2.4413  1.2573 -1.0134
  983MOL0     H29738  12.082   4.159  13.575  0.8665 -2.8049  1.1348
  983MOL0     H29739  11.998   4.175  13.346 -0.0962  1.8995  1.2774
  983MOL0     H29740  11.744   4.027  13.012  0.9441  1.5913  2.1987
  983MOL0     H29741  11.706   4.039  12.762 -0.7087  0.4079  0.9499
  983MOL0     H29742  11.341   4.357  11.114  1.0959  1.6879  0.4024
  983MOL0     H29743  11.347   4.505  10.928  2.5400  3.1008  0.4304
  983MOL0     H29744  11.039   4.680  10.562  1.9925 -0.8212  1.6394
  983MOL0     H29745  11.053   4.847  10.355 -0.4538 -1.6271  0.8047
  983MOL0     H29746  11.350   5.153  10.369  0.9282  1.1106 -3.2005
  983MOL0     H29747  11.231   5.265  10.420  2.1828  0.6509 -0.6926
  983MOL0     H29748  11.124   5.239  10.194 -0.4546  4.3039  0.8414
  983MOL0     H29749  11.259   5.341  10.206  2.1183 -0.1733 -2.7691
  983MOL0     H29750  11.308   5.046  10.131  4.2170 -0.0095  1.3913
  983MOL0     H29751  11.427   5.169  10.158  1.6015  0.8356 -3.3046
  983MOL0     H29752  11.215   5.201   9.939 -1.0066 -1.1488  1.5330
  983MOL0     H29753  11.321   5.310  10.004  0.9845  0.0802  2.1186
  983MOL0     H29754  11.521   5.042   9.726 -2.3421  2.4969 -1.6054
  983MOL0     H29755  11.254   5.119  10.615  3.0672 -1.6094 -0.8945
  983MOL0     H29756  11.245   4.950  10.810 -1.5578 -4.8538  0.8111
  984MOL0     O29757   4.214   8.579   3.023 -0.6742  0.5615 -0.4670
  984MOL0     C29758   4.302   8.493   3.033  0.0747  0.1786 -0.4519
  984MOL0     O29759   4.417   8.474   2.951  0.6683 -0.0821 -0.2536
  984MOL0     C29760   4.442   8.568   2.856  0.3520  0.4993  0.5919
  984MOL0     C29761   4.443   8.701   2.872 -0.2626 -0.7953 -0.2507
  984MOL0     C29762   4.471   8.798   2.773  0.5333  0.1788 -0.5215
  984MOL0     C29763   4.509   8.752   2.648 -0.6762 -0.0027  1.0069
  984MOL0     O29764   4.545   8.845   2.553  0.2555  0.2425  0.4294
  984MOL0     C29765   4.553   8.813   2.417  0.0802  0.0685  0.0423
  984MOL0     C29766   4.585   8.925   2.329 -0.6363 -0.0236  0.4521
  984MOL0     C29767   4.494   9.052   2.352  0.1785  0.2442 -0.4101
  984MOL0     C29768   4.346   9.023   2.323  0.6734 -0.9045 -0.4934
  984MOL0     C29769   4.288   9.155   2.264 -0.7425  0.3710 -0.0650
  984MOL0     C29770   4.142   9.137   2.215  0.1237 -0.6402  0.3946
  984MOL0     C29771   4.075   9.272   2.199 -0.3826  0.8410  0.0851
  984MOL0     C29772   3.978   9.295   2.087  0.3150  0.2996  0.4606
  984MOL0     N29773   4.038   9.273   1.960  0.0336  0.4500  0.7365
  984MOL0     C29774   4.037   9.160   1.873 -0.8772 -0.3747  0.2933
  984MOL0     C29775   4.069   9.220   1.757  0.3805 -0.8332 -0.4653
  984MOL0     C29776   4.086   9.161   1.619  0.2063  0.3482 -0.0320
  984MOL0     C29777   3.957   9.154   1.547  0.4401  0.7806  0.1033
  984MOL0     C29778   3.869   9.272   1.554  0.1973  1.5950  0.0882
  984MOL0     C29779   3.776   9.259   1.439  0.4142  0.3223 -0.1251
  984MOL0     O29780   3.841   9.314   1.321  0.8930  0.1880  1.1028
  984MOL0     C29781   3.757   9.332   1.209 -0.6615 -0.0971 -0.1430
  984MOL0     C29782   3.617   9.352   1.212  0.0755  0.0735 -1.0280
  984MOL0     C29783   3.550   9.388   1.089 -0.7892  0.1432  0.0209
  984MOL0     C29784   3.620   9.395   0.973 -0.0651  0.9304  0.7223
  984MOL0     C29785   3.542   9.419   0.855 -0.8105  0.4539  0.5510
  984MOL0     O29786   3.411   9.470   0.868 -0.4686 -0.3218 -0.4861
  984MOL0     C29787   3.322   9.503   0.770  0.2169 -1.0343  0.5961
  984MOL0     C29788   3.205   9.571   0.810 -0.3069  0.0632  0.1841
  984MOL0     C29789   3.114   9.633   0.722 -0.3752  1.1534  2.0061
  984MOL0     C29790   3.148   9.636   0.585  0.7644  0.6637  0.3806
  984MOL0     O29791   3.073   9.697   0.495  0.0540 -0.2569  0.2894
  984MOL0     C29792   2.931   9.655   0.485  0.2437 -0.2507 -0.5871
  984MOL0     C29793   2.883   9.677   0.343  0.3763  0.3877  0.0425
  984MOL0     C29794   2.967   9.594   0.250  0.9821  0.3497 -0.0789
  984MOL0     C29795   2.917   9.611   0.102 -0.0253 -0.6210 -0.3120
  984MOL0     C29796   3.015   9.549  -0.000 -0.3080 -0.3738 -0.3029
  984MOL0     C29797   3.145   9.626  -0.003 -0.5070  0.1384 -0.4124
  984MOL0     C29798   3.238   9.598  -0.116  0.4434 -0.5238 -0.1820
  984MOL0     C29799   3.370   9.683  -0.102  0.0726 -0.3992 -0.4580
  984MOL0    Cl29800   3.478   9.625   0.025 -0.0679 -0.2057  0.1889
  984MOL0     C29801   3.252   9.556   0.544  0.6826 -0.2860  0.4250
  984MOL0     C29802   3.340   9.490   0.629  0.8104  0.1319  0.5965
  984MOL0     O29803   3.594   9.399   0.748  0.0668  0.3792  0.5996
  984MOL0     C29804   3.756   9.381   0.974  0.2755 -0.1027 -0.1004
  984MOL0     C29805   3.821   9.345   1.088 -0.1544  0.8708  0.2025
  984MOL0     N29806   4.109   9.349   1.780 -0.0167  0.4747  0.1451
  984MOL0     N29807   4.100   9.380   1.902  0.2903  0.9333 -0.1439
  984MOL0     C29808   4.520   8.612   2.627  1.6226  0.7050  0.2985
  984MOL0     C29809   4.477   8.519   2.726 -0.2735  0.0499 -0.0102
  984MOL0     C29810   4.287   8.401   3.145  0.1402 -0.3851 -1.2672
  984MOL0     C29811   4.373   8.292   3.154 -1.0305  0.2913  0.5615
  984MOL0     C29812   4.342   8.178   3.236 -0.0883 -0.1450 -0.3149
  984MOL0     C29813   4.231   8.184   3.313 -0.5167  0.9192 -0.7001
  984MOL0     O29814   4.225   8.084   3.409 -0.5173 -0.7347  0.5572
  984MOL0     C29815   4.133   7.976   3.374 -0.6715  0.7939 -0.2271
  984MOL0     C29816   4.181   7.882   3.266 -0.0073 -0.1720 -0.6641
  984MOL0     C29817   4.096   7.767   3.250 -0.0618  0.6759  0.4731
  984MOL0     C29818   4.163   7.639   3.302  0.9338  0.0314 -0.1644
  984MOL0     C29819   4.086   7.524   3.258  0.7062  0.1903 -0.2032
  984MOL0     C29820   4.032   7.422   3.233  0.6177  0.0503  0.3124
  984MOL0     C29821   4.141   8.288   3.303 -0.2844 -0.3963  0.8064
  984MOL0     C29822   4.167   8.398   3.216 -0.4537 -0.4248 -0.9781
  984MOL0     H29823   4.412   8.742   2.968  3.2603  2.0823 -0.1134
  984MOL0     H29824   4.455   8.904   2.783  0.5239  0.1862 -0.6123
  984MOL0     H29825   4.457   8.775   2.381  0.1207 -2.3120  2.2352
  984MOL0     H29826   4.638   8.746   2.404 -0.7812 -1.1027  0.2812
  984MOL0     H29827   4.571   8.897   2.224 -0.8961  0.0460  0.4678
  984MOL0     H29828   4.691   8.948   2.345 -1.1122  2.4820  0.3682
  984MOL0     H29829   4.518   9.129   2.277 -1.6196 -0.6039 -1.9257
  984MOL0     H29830   4.503   9.106   2.447  4.5967  2.5370 -1.7873
  984MOL0     H29831   4.334   8.945   2.248  4.9743 -1.1293 -1.2341
  984MOL0     H29832   4.295   9.002   2.417  0.2120  3.1792  0.3590
  984MOL0     H29833   4.361   9.195   2.192  2.9206 -0.0665  3.0440
  984MOL0     H29834   4.279   9.220   2.351  0.8407  0.4153  0.1107
  984MOL0     H29835   4.104   9.078   2.299  0.7703 -1.1198  0.3617
  984MOL0     H29836   4.146   9.069   2.129  0.9561  1.6303 -1.4540
  984MOL0     H29837   4.021   9.292   2.293  0.1842 -1.5388  0.9981
  984MOL0     H29838   4.155   9.347   2.193 -0.7877  1.4817  1.8421
  984MOL0     H29839   3.947   9.400   2.090 -0.9330 -0.0363  3.3818
  984MOL0     H29840   3.882   9.244   2.100  0.0957  0.7833  0.7631
  984MOL0     H29841   4.004   9.057   1.888  2.1034 -1.6015 -0.8754
  984MOL0     H29842   4.142   9.067   1.627  0.6632  0.6527  0.4134
  984MOL0     H29843   4.150   9.235   1.570  1.0546  0.4217  1.1457
  984MOL0     H29844   3.907   9.063   1.582  0.1455  1.4980  1.6238
  984MOL0     H29845   3.987   9.143   1.442  2.3694 -1.8238  0.8340
  984MOL0     H29846   3.815   9.286   1.647 -1.3170  1.2476 -0.7048
  984MOL0     H29847   3.923   9.365   1.534 -3.0372  3.2980 -1.4944
  984MOL0     H29848   3.686   9.307   1.479  0.2506 -0.8449  0.9821
  984MOL0     H29849   3.751   9.153   1.428  0.1949  0.4210 -0.6042
  984MOL0     H29850   3.572   9.355   1.311 -0.2567 -2.0472 -1.0619
  984MOL0     H29851   3.443   9.402   1.096 -0.6429  3.0300 -1.8787
  984MOL0     H29852   3.183   9.580   0.916 -0.8564  0.8030  0.0117
  984MOL0     H29853   3.024   9.678   0.764 -0.8707 -0.3047  2.5604
  984MOL0     H29854   2.868   9.711   0.554  0.0612 -0.5711 -0.4905
  984MOL0     H29855   2.918   9.549   0.509  0.7704 -0.3177 -0.5742
  984MOL0     H29856   2.900   9.785   0.333  3.7885 -0.2378 -3.0768
  984MOL0     H29857   2.781   9.639   0.332  0.4746  0.4126 -1.0833
  984MOL0     H29858   2.953   9.490   0.282 -0.7194  0.4114 -0.4895
  984MOL0     H29859   3.075   9.609   0.251  1.2313 -1.1778 -0.5303
  984MOL0     H29860   2.822   9.559   0.090 -0.0932 -0.0732 -2.3422
  984MOL0     H29861   2.897   9.718   0.090  1.5624  0.3479  3.8773
  984MOL0     H29862   2.967   9.572  -0.096 -1.1863  2.0036  0.6398
  984MOL0     H29863   3.024   9.440   0.007  1.9164 -0.2931 -1.2340
  984MOL0     H29864   3.200   9.595   0.086  0.0826  1.6736 -0.2174
  984MOL0     H29865   3.120   9.730   0.021 -2.4907  0.0282 -1.7852
  984MOL0     H29866   3.266   9.492  -0.114  0.1356 -0.6165 -0.5655
  984MOL0     H29867   3.206   9.626  -0.217 -0.8410 -2.5492 -0.3908
  984MOL0     H29868   3.356   9.790  -0.089  1.7887  0.1892 -2.8094
  984MOL0     H29869   3.420   9.670  -0.198  0.6009 -0.0924 -0.2295
  984MOL0     H29870   3.268   9.549   0.437 -1.1744 -3.2912  0.2263
  984MOL0     H29871   3.426   9.432   0.594  0.9031 -1.1421  2.7595
  984MOL0     H29872   3.823   9.393   0.890 -1.1524 -1.3044 -1.4712
  984MOL0     H29873   3.928   9.329   1.094 -0.5681 -2.0657  2.5528
  984MOL0     H29874   4.550   8.568   2.533  0.6800 -1.8902  1.1452
  984MOL0     H29875   4.476   8.417   2.690  1.7818 -0.2743  0.7179
  984MOL0     H29876   4.463   8.277   3.096 -0.9940 -0.6630  0.8381
  984MOL0     H29877   4.415   8.099   3.252 -0.9806 -0.9846 -0.2797
  984MOL0     H29878   4.048   8.028   3.329 -0.3334  2.3484  0.8456
  984MOL0     H29879   4.120   7.923   3.469  1.3338  0.8592  0.1286
  984MOL0     H29880   4.182   7.930   3.168  1.8374 -0.2350 -0.7102
  984MOL0     H29881   4.284   7.853   3.292 -0.4310 -0.9755  0.1880
  984MOL0     H29882   4.085   7.765   3.141  1.4551  1.1539  0.2891
  984MOL0     H29883   4.002   7.792   3.299 -1.5697 -0.3509 -1.7588
  984MOL0     H29884   4.267   7.639   3.269  2.1929  3.3741  3.0894
  984MOL0     H29885   4.163   7.640   3.412  0.9439  1.1800 -0.1599
  984MOL0     H29886   3.978   7.333   3.205 -0.5695  0.1631  2.1141
  984MOL0     H29887   4.045   8.274   3.352  0.0293 -1.4767  1.1434
  984MOL0     H29888   4.088   8.467   3.189 -0.2170  1.1276  1.9593
  985MOL0     O29889   6.240  11.076  11.330 -0.0033 -0.0795  0.5900
  985MOL0     C29890   6.341  11.015  11.364  1.3965 -0.5294  1.2722
  985MOL0     O29891   6.430  10.958  11.276 -0.3973 -0.2585  0.6359
  985MOL0     C29892   6.433  10.997  11.141  0.5354 -0.4266 -0.8537
  985MOL0     C29893   6.321  10.982  11.054 -0.5187 -0.3448 -0.3530
  985MOL0     C29894   6.331  11.018  10.918 -0.0299  0.0534 -0.0108
  985MOL0     C29895   6.438  11.087  10.869 -0.6281 -0.5232 -0.8736
  985MOL0     O29896   6.443  11.129  10.742 -0.7359  1.0629 -0.3424
  985MOL0     C29897   6.510  11.039  10.655 -1.5500 -0.3001 -0.0821
  985MOL0     C29898   6.523  11.095  10.516 -0.2804  0.1737 -0.2897
  985MOL0     C29899   6.635  11.019  10.440  0.0487  0.3846  0.9075
  985MOL0     C29900   6.665  11.084  10.306 -0.1825 -0.4061  0.6734
  985MOL0     C29901   6.772  11.026  10.216 -1.1292  0.6082  0.1874
  985MOL0     C29902   6.920  11.046  10.250 -0.4290  0.9792 -0.5908
  985MOL0     C29903   7.009  10.975  10.140  0.0475  0.3156  0.1053
  985MOL0     C29904   6.995  10.822  10.151  0.7863  0.3686  0.6531
  985MOL0     N29905   7.070  10.735  10.064 -0.2469 -0.7893 -0.5542
  985MOL0     C29906   7.076  10.744   9.923 -0.0002 -0.1779  0.7371
  985MOL0     C29907   7.161  10.652   9.892 -0.0253  0.6960 -0.1114
  985MOL0     C29908   7.211  10.622   9.754  0.6421  0.4428  0.6291
  985MOL0     C29909   7.251  10.478   9.742  0.6948  1.0313  0.5042
  985MOL0     C29910   7.309  10.436   9.600 -0.7952  0.0735 -0.2201
  985MOL0     C29911   7.197  10.401   9.514  0.0587  0.9890 -0.3583
  985MOL0     O29912   7.155  10.277   9.558 -0.0400  0.0708  0.0053
  985MOL0     C29913   7.019  10.253   9.531  0.2921 -0.2477  1.2056
  985MOL0     C29914   6.963  10.164   9.619 -0.7637 -0.0992 -1.0855
  985MOL0     C29915   6.844  10.096   9.602 -0.5942  0.4708  0.5392
  985MOL0     C29916   6.773  10.132   9.489  0.2892  0.0917  0.2097
  985MOL0     C29917   6.653  10.050   9.463 -0.2604  0.4054 -0.4674
  985MOL0     O29918   6.674   9.917   9.460 -0.5972  0.7287 -0.9096
  985MOL0     C29919   6.571   9.828   9.435  0.1216 -0.0014  0.6744
  985MOL0     C29920   6.442   9.852   9.383 -0.8461 -0.3227  0.2908
  985MOL0     C29921   6.351   9.751   9.381  0.5727 -0.6079 -1.1477
  985MOL0     C29922   6.377   9.616   9.427 -0.1612 -0.0612  0.4427
  985MOL0     O29923   6.293   9.511   9.415  0.6501  0.9574  0.4607
  985MOL0     C29924   6.315   9.449   9.282  0.0622 -0.2605  0.0377
  985MOL0     C29925   6.206   9.344   9.235 -0.6589 -0.5594  0.3259
  985MOL0     C29926   6.074   9.414   9.258  0.1125 -0.0040  0.2838
  985MOL0     C29927   5.964   9.338   9.185  0.6547 -0.2214 -1.3122
  985MOL0     C29928   5.933   9.211   9.253 -0.1650 -0.1166 -0.4593
  985MOL0     C29929   5.821   9.148   9.177 -0.7004  0.4550  0.1956
  985MOL0     C29930   5.774   9.021   9.245  0.3987  0.5269 -0.7528
  985MOL0     C29931   5.686   9.060   9.363  0.3076  0.4538  0.3037
  985MOL0    Cl29932   5.608   8.920   9.426  0.4222  0.3313 -0.1544
  985MOL0     C29933   6.508   9.593   9.468  0.0146  0.3544  0.0400
  985MOL0     C29934   6.611   9.687   9.465  1.8526 -0.4963  0.7900
  985MOL0     O29935   6.550  10.111   9.441  0.2336  0.1300 -0.6358
  985MOL0     C29936   6.812  10.239   9.401 -0.0404  0.0889 -0.4592
  985MOL0     C29937   6.944  10.289   9.418 -0.0844 -0.6076  0.7546
  985MOL0     N29938   7.215  10.587  10.010 -0.2853 -0.1029  0.3181
  985MOL0     N29939   7.161  10.644  10.107 -1.0764 -1.4758 -0.9115
  985MOL0     C29940   6.549  11.091  10.951  0.2267  0.2566 -0.0159
  985MOL0     C29941   6.549  11.052  11.085 -0.9047  0.3547  0.5026
  985MOL0     C29942   6.372  10.977  11.499 -0.0928 -0.4955  0.0674
  985MOL0     C29943   6.494  10.923  11.539  0.8280  0.6993 -0.0717
  985MOL0     C29944   6.515  10.911  11.679  0.5471 -0.5097  0.7344
  985MOL0     C29945   6.418  10.943  11.777 -0.9300  0.6301  1.3803
  985MOL0     O29946   6.425  10.912  11.902  0.1237 -0.2620  0.1990
  985MOL0     C29947   6.540  10.853  11.960  0.2405 -0.6182  0.5775
  985MOL0     C29948   6.550  10.840  12.112 -0.1611 -1.2817 -0.2903
  985MOL0     C29949   6.524  10.693  12.147 -0.5886  0.5558  0.2346
  985MOL0     C29950   6.513  10.672  12.300  0.0189 -0.9506 -0.6726
  985MOL0     C29951   6.636  10.677  12.379  1.0137  0.3558 -0.4241
  985MOL0     C29952   6.744  10.665  12.438 -0.3787  0.2697  0.9956
  985MOL0     C29953   6.297  10.997  11.732 -1.1638  0.0123  0.2334
  985MOL0     C29954   6.274  11.006  11.597  0.3490 -0.2672  0.8968
  985MOL0     H29955   6.227  10.948  11.096  0.3493 -1.8194  0.4698
  985MOL0     H29956   6.252  10.979  10.853  0.7738 -2.2731  0.3315
  985MOL0     H29957   6.449  10.948  10.660 -1.8337 -0.2100 -1.6614
  985MOL0     H29958   6.615  11.032  10.687  0.4003  1.6630 -5.1544
  985MOL0     H29959   6.551  11.201  10.525 -1.0933  0.2750  1.4837
  985MOL0     H29960   6.422  11.089  10.475 -0.2348 -0.8224 -0.2693
  985MOL0     H29961   6.614  10.913  10.430  1.6593  0.1721 -0.7119
  985MOL0     H29962   6.733  11.027  10.489  0.5601  3.5339 -0.3417
  985MOL0     H29963   6.578  11.087  10.240  1.2883 -2.4572 -1.5963
  985MOL0     H29964   6.704  11.185  10.323 -1.9011  0.4934 -0.4286
  985MOL0     H29965   6.768  11.080  10.121 -0.5110 -0.6689 -0.5990
  985MOL0     H29966   6.754  10.918  10.208  1.4193  0.1533 -0.1245
  985MOL0     H29967   6.950  11.010  10.349 -0.4888 -1.2873 -1.3616
  985MOL0     H29968   6.949  11.152  10.244  2.0465  0.2464 -3.6312
  985MOL0     H29969   6.972  11.028  10.052  3.2207  1.1793 -0.8473
  985MOL0     H29970   7.113  11.006  10.147  0.5975 -0.9308 -1.7307
  985MOL0     H29971   6.891  10.793  10.131 -0.9578  5.5676  0.6357
  985MOL0     H29972   7.019  10.791  10.253  0.3231  0.0374  0.6628
  985MOL0     H29973   7.021  10.816   9.864  3.0815  0.9397 -0.9877
  985MOL0     H29974   7.294  10.690   9.735 -0.1870  1.1603 -0.5484
  985MOL0     H29975   7.132  10.645   9.683  0.5502  2.5036  1.3431
  985MOL0     H29976   7.168  10.413   9.771 -1.2481  2.5349 -1.3620
  985MOL0     H29977   7.324  10.457   9.821  0.4810 -2.9706 -0.1632
  985MOL0     H29978   7.380  10.508   9.558  2.2092 -2.0160  0.8912
  985MOL0     H29979   7.363  10.341   9.608  0.7523  1.0554  1.7060
  985MOL0     H29980   7.239  10.389   9.414 -0.0478  0.7921 -0.3792
  985MOL0     H29981   7.114  10.472   9.509 -2.6152 -1.9038  0.3744
  985MOL0     H29982   7.023  10.153   9.709 -1.3460 -3.9238 -0.9982
  985MOL0     H29983   6.810  10.015   9.666 -0.7029 -2.6915 -3.1416
  985MOL0     H29984   6.414   9.955   9.363  3.5857  1.0762  0.3923
  985MOL0     H29985   6.249   9.778   9.355 -1.1285 -0.3833  4.4471
  985MOL0     H29986   6.412   9.399   9.294  0.5317  0.8524  1.0940
  985MOL0     H29987   6.308   9.521   9.201 -4.2931 -0.4766 -0.0003
  985MOL0     H29988   6.222   9.252   9.291  0.9352  0.5163  1.7397
  985MOL0     H29989   6.220   9.319   9.129  2.7826 -0.6257  0.7050
  985MOL0     H29990   6.080   9.516   9.219  1.4725 -1.0990 -2.7242
  985MOL0     H29991   6.058   9.416   9.366 -2.2898  2.0679 -0.0293
  985MOL0     H29992   5.873   9.399   9.193 -1.5996 -3.5559  0.8048
  985MOL0     H29993   5.978   9.320   9.078 -1.2724 -0.1100 -1.6167
  985MOL0     H29994   5.894   9.245   9.350 -1.2468 -0.5100 -0.7570
  985MOL0     H29995   6.017   9.140   9.252 -0.9254 -1.2456  2.7560
  985MOL0     H29996   5.859   9.118   9.078 -0.5389 -0.7678  0.6172
  985MOL0     H29997   5.736   9.214   9.157 -0.6080  0.0017 -1.9475
  985MOL0     H29998   5.713   8.970   9.169 -0.0109  1.8164 -1.3163
  985MOL0     H29999   5.854   8.957   9.285 -0.3974  0.3251  0.5947
  985MOL0     H30000   5.607   9.127   9.330  1.6114  2.6123  1.3217
  985MOL0     H30001   5.739   9.121   9.437 -4.3566  1.5250  3.1635
  985MOL0     H30002   6.516   9.492   9.507 -0.7885  0.5768  0.8123
  985MOL0     H30003   6.711   9.658   9.496  2.1961  0.1026  0.2584
  985MOL0     H30004   6.755  10.256   9.311  2.0206 -2.0651 -2.2931
  985MOL0     H30005   6.983  10.348   9.336  2.4773 -2.9667  0.1358
  985MOL0     H30006   6.627  11.146  10.899 -1.5571  1.5838 -1.4368
  985MOL0     H30007   6.637  11.075  11.144  0.0005 -1.2340 -0.1480
  985MOL0     H30008   6.565  10.911  11.458  1.4152  1.5724  0.2992
  985MOL0     H30009   6.614  10.881  11.713  2.2835  2.2666 -1.3398
  985MOL0     H30010   6.617  10.919  11.919 -2.3219  1.6190 -0.9760
  985MOL0     H30011   6.555  10.756  11.911 -1.7012 -1.2243  1.1090
  985MOL0     H30012   6.651  10.866  12.145  0.1670  0.5539 -2.4905
  985MOL0     H30013   6.488  10.913  12.165  1.8234 -0.0558  0.4619
  985MOL0     H30014   6.608  10.634  12.110 -1.4039  0.5767 -1.7456
  985MOL0     H30015   6.437  10.644  12.105 -1.0646  1.9474 -0.4695
  985MOL0     H30016   6.450  10.751  12.343  1.1394 -1.1815  1.5250
  985MOL0     H30017   6.469  10.577  12.329 -1.6955  0.6784  2.6145
  985MOL0     H30018   6.846  10.663  12.470  0.4283 -1.7737 -1.3525
  985MOL0     H30019   6.216  11.039  11.790 -0.2443 -0.5095  1.9964
  985MOL0     H30020   6.174  11.036  11.566 -0.7091 -3.2464  1.0379
  986MOL0     O30021  10.343  11.404   0.089 -0.4819 -1.0763 -0.5894
  986MOL0     C30022  10.309  11.398   0.206  0.0228 -0.1163 -0.2901
  986MOL0     O30023  10.183  11.393   0.248 -0.3098  0.1049  0.3641
  986MOL0     C30024  10.074  11.420   0.169 -0.0473  0.4254 -0.2098
  986MOL0     C30025  10.065  11.485   0.046 -0.0491 -0.3679 -1.0779
  986MOL0     C30026   9.948  11.515  -0.016  0.2152 -0.7884  0.7161
  986MOL0     C30027   9.826  11.486   0.045 -0.0797  0.1817  0.9932
  986MOL0     O30028   9.704  11.506  -0.013 -0.2740  0.2932 -0.2723
  986MOL0     C30029   9.690  11.598  -0.117 -0.0108  0.1126  0.7432
  986MOL0     C30030   9.545  11.608  -0.153  0.5045 -0.1138 -0.8301
  986MOL0     C30031   9.463  11.674  -0.034  0.3887 -0.1224  0.1103
  986MOL0     C30032   9.320  11.689  -0.079 -0.2778 -0.0758 -0.4636
  986MOL0     C30033   9.256  11.793   0.016  0.8261 -0.5894 -0.0673
  986MOL0     C30034   9.111  11.808  -0.005 -0.0313  0.2178 -0.0852
  986MOL0     C30035   9.061  11.935   0.069 -0.3230  0.6016  0.6447
  986MOL0     C30036   9.073  11.919   0.219  0.1313  0.5365 -0.9228
  986MOL0     N30037   9.197  11.972   0.286 -0.5648  0.2016  0.9956
  986MOL0     C30038   9.214  11.978   0.422  0.0800 -0.3434  0.3561
  986MOL0     C30039   9.335  12.035   0.446  0.8827 -0.0056 -0.4241
  986MOL0     C30040   9.392  12.083   0.589  0.4205  0.0395  1.4022
  986MOL0     C30041   9.494  11.978   0.644 -0.1862  1.2114  0.3649
  986MOL0     C30042   9.563  12.033   0.759 -0.6200 -0.6643 -0.6531
  986MOL0     C30043   9.475  12.021   0.888  0.4398 -0.1856 -0.0618
  986MOL0     O30044   9.543  12.028   1.012  0.1531  0.5587  0.8887
  986MOL0     C30045   9.538  12.145   1.076 -0.9748  0.4257  0.3122
  986MOL0     C30046   9.498  12.136   1.210  1.2235 -0.4375 -0.7890
  986MOL0     C30047   9.508  12.248   1.293  0.5224 -0.4810  0.4068
  986MOL0     C30048   9.550  12.368   1.246  1.3073 -0.8962 -0.1170
  986MOL0     C30049   9.564  12.489   1.330  0.4552  0.3712  0.0282
  986MOL0     O30050   9.461  12.529   1.406  0.2407  0.3216 -0.2814
  986MOL0     C30051   9.473  12.592   1.526 -1.0916  0.1640  0.3592
  986MOL0     C30052   9.593  12.613   1.599  0.5720 -0.1254  0.1907
  986MOL0     C30053   9.587  12.666   1.727 -0.0231  0.0236 -0.4147
  986MOL0     C30054   9.477  12.725   1.779  0.3689 -0.4817  0.0400
  986MOL0     O30055   9.466  12.786   1.902  0.1132 -0.2781  0.3870
  986MOL0     C30056   9.568  12.890   1.927 -0.6102 -0.3218 -0.9880
  986MOL0     C30057   9.678  12.829   2.024  0.6671  0.0977  0.2241
  986MOL0     C30058   9.622  12.769   2.160  0.6977  0.2363  0.6908
  986MOL0     C30059   9.735  12.716   2.253  1.0402  0.1717  0.8021
  986MOL0     C30060   9.860  12.797   2.264  0.9749  0.2906 -0.8242
  986MOL0     C30061   9.829  12.934   2.326  0.6938 -0.0442  0.3245
  986MOL0     C30062   9.962  13.019   2.321 -0.0783  0.2013  0.0492
  986MOL0     C30063   9.944  13.162   2.381 -1.0769  0.1035 -0.1477
  986MOL0    Cl30064   9.984  13.144   2.558 -0.3253 -0.0591  0.0252
  986MOL0     C30065   9.348  12.714   1.711  0.1915 -0.9687  0.2737
  986MOL0     C30066   9.352  12.637   1.588 -0.6237  0.6177 -0.0443
  986MOL0     O30067   9.667  12.556   1.313  0.2278  0.5753  1.0402
  986MOL0     C30068   9.577  12.379   1.107 -0.0449 -0.6448 -0.6139
  986MOL0     C30069   9.555  12.273   1.022 -0.9056 -0.6642  0.1448
  986MOL0     N30070   9.385  12.070   0.322 -0.0424  0.0565  0.4560
  986MOL0     N30071   9.309  12.027   0.234 -0.4575  0.5588  0.4763
  986MOL0     C30072   9.835  11.412   0.159 -0.3931  0.6071  0.9001
  986MOL0     C30073   9.953  11.384   0.222 -0.7630  0.3780 -0.6132
  986MOL0     C30074  10.425  11.382   0.305  0.3112  1.1684 -0.1003
  986MOL0     C30075  10.407  11.355   0.442  0.8393 -1.0281 -0.2804
  986MOL0     C30076  10.519  11.341   0.528 -0.4403  0.5189  0.7636
  986MOL0     C30077  10.647  11.369   0.480 -0.5437 -1.0000  0.5376
  986MOL0     O30078  10.769  11.381   0.551 -0.4139 -0.0948  0.4281
  986MOL0     C30079  10.771  11.326   0.689 -0.4097 -0.1992  0.0917
  986MOL0     C30080  10.792  11.174   0.659 -1.0830 -0.6172  0.2898
  986MOL0     C30081  10.761  11.092   0.786  0.3991 -0.5769  0.3192
  986MOL0     C30082  10.793  10.945   0.766  0.4035  0.1845  0.3906
  986MOL0     C30083  10.748  10.879   0.893 -0.7783  0.3065 -0.5119
  986MOL0     C30084  10.690  10.831   0.987 -0.3133  0.2803  0.8397
  986MOL0     C30085  10.666  11.405   0.345 -0.1047 -0.5549 -0.4599
  986MOL0     C30086  10.553  11.409   0.259 -0.2210  0.7631 -0.4428
  986MOL0     H30087  10.159  11.510  -0.001 -0.3780 -0.3831 -1.7552
  986MOL0     H30088   9.960  11.557  -0.116  0.7654  1.0398  1.4918
  986MOL0     H30089   9.747  11.562  -0.203 -0.2117  1.4292  0.0360
  986MOL0     H30090   9.722  11.699  -0.087 -0.6943  1.0905 -1.5922
  986MOL0     H30091   9.504  11.509  -0.175  0.9271 -0.3972 -0.3653
  986MOL0     H30092   9.530  11.674  -0.239  0.5270  1.3663  0.2663
  986MOL0     H30093   9.496  11.776  -0.015  0.1534  0.2753 -1.5091
  986MOL0     H30094   9.479  11.612   0.055  4.7162  1.7442  0.8596
  986MOL0     H30095   9.313  11.713  -0.186 -3.3135  0.9964 -0.1184
  986MOL0     H30096   9.265  11.595  -0.077 -1.2160  0.4393 -1.2096
  986MOL0     H30097   9.312  11.887   0.010 -2.1647  1.2626 -1.0476
  986MOL0     H30098   9.266  11.755   0.118 -0.0948 -0.0615  0.2314
  986MOL0     H30099   9.054  11.724   0.037 -2.2997  1.3959 -0.6406
  986MOL0     H30100   9.075  11.818  -0.108  0.3186  0.2156 -0.2073
  986MOL0     H30101   9.116  12.023   0.033  0.6330  0.1852  1.0573
  986MOL0     H30102   8.957  11.934   0.038 -0.2376 -0.3790  0.3793
  986MOL0     H30103   9.060  11.814   0.247  0.1339  1.0997  1.4237
  986MOL0     H30104   8.989  11.978   0.256  0.6054  0.7482 -0.1662
  986MOL0     H30105   9.137  11.967   0.498 -2.9063  2.2985 -2.0415
  986MOL0     H30106   9.311  12.093   0.661 -0.4112 -0.5266  0.5644
  986MOL0     H30107   9.433  12.184   0.578  0.4489  0.1920  2.7287
  986MOL0     H30108   9.569  11.954   0.568 -1.1484 -3.2216  0.5831
  986MOL0     H30109   9.439  11.887   0.666  1.6232 -0.3444 -1.2221
  986MOL0     H30110   9.655  11.978   0.779 -0.4442  0.7958  3.5390
  986MOL0     H30111   9.578  12.140   0.741 -1.9259 -0.6394 -1.8118
  986MOL0     H30112   9.429  11.921   0.886 -1.3488  0.5728  1.2149
  986MOL0     H30113   9.395  12.095   0.881  2.6727  2.4061  0.3528
  986MOL0     H30114   9.482  12.039   1.256 -0.6406  0.2188  0.0412
  986MOL0     H30115   9.482  12.240   1.398 -0.4843  0.0015  0.2128
  986MOL0     H30116   9.687  12.580   1.556  0.3823  0.0965 -0.4125
  986MOL0     H30117   9.686  12.666   1.773 -1.7399  0.7512  3.6535
  986MOL0     H30118   9.521  12.977   1.975  2.1330 -0.3261  2.0407
  986MOL0     H30119   9.629  12.915   1.840  0.2590 -3.3818 -1.3685
  986MOL0     H30120   9.749  12.910   2.044  2.9004 -2.2633  2.7006
  986MOL0     H30121   9.727  12.743   1.978 -3.5078 -2.4521  0.0008
  986MOL0     H30122   9.554  12.685   2.149  1.6844 -0.2415 -3.2744
  986MOL0     H30123   9.576  12.856   2.208  1.1348  0.8733 -0.0180
  986MOL0     H30124   9.693  12.714   2.354  1.1176 -0.4139  0.8226
  986MOL0     H30125   9.767  12.618   2.216  0.9423  0.6803 -0.6887
  986MOL0     H30126   9.912  12.803   2.168 -1.4682 -0.6417 -2.3268
  986MOL0     H30127   9.926  12.742   2.331  0.4466  1.0140  0.3214
  986MOL0     H30128   9.781  12.932   2.424  0.6610 -1.7530  0.3068
  986MOL0     H30129   9.758  12.989   2.264 -0.6447  2.6121  3.9140
  986MOL0     H30130  10.029  12.959   2.384  0.9036 -1.3905 -2.3711
  986MOL0     H30131  10.017  13.027   2.227  0.8758  5.3615  0.7569
  986MOL0     H30132   9.845  13.202   2.356 -0.5002  0.2875 -2.3342
  986MOL0     H30133  10.020  13.228   2.341 -1.1346  1.1471  1.3845
  986MOL0     H30134   9.261  12.740   1.769  1.0774  0.7628  0.8861
  986MOL0     H30135   9.262  12.617   1.530  1.4108 -1.6296 -2.6713
  986MOL0     H30136   9.628  12.465   1.063 -1.3792 -0.4085 -1.7905
  986MOL0     H30137   9.562  12.281   0.914  0.9870 -0.4370  0.2415
  986MOL0     H30138   9.741  11.377   0.199 -2.5463  4.3222 -0.4611
  986MOL0     H30139   9.943  11.339   0.320 -1.0662  3.3369  0.8272
  986MOL0     H30140  10.315  11.343   0.497  1.9873 -1.8217  1.5709
  986MOL0     H30141  10.485  11.327   0.630  0.6362  3.5779  1.6577
  986MOL0     H30142  10.681  11.348   0.746 -0.9110 -1.8182 -0.0167
  986MOL0     H30143  10.854  11.367   0.747  0.0896 -3.0120  1.5647
  986MOL0     H30144  10.727  11.144   0.576  0.4923  1.1148 -1.6844
  986MOL0     H30145  10.895  11.153   0.630 -1.7346 -1.6272 -1.4695
  986MOL0     H30146  10.652  11.099   0.794  0.1582 -2.4548 -0.7912
  986MOL0     H30147  10.805  11.139   0.875 -0.9431 -4.1348  3.1275
  986MOL0     H30148  10.740  10.898   0.683  4.7354  0.5732 -2.9856
  986MOL0     H30149  10.897  10.926   0.736  1.0151  1.4214  1.6252
  986MOL0     H30150  10.645  10.785   1.072 -0.2428 -1.8031 -0.1703
  986MOL0     H30151  10.762  11.445   0.313  0.4061 -1.5061 -0.1312
  986MOL0     H30152  10.576  11.430   0.155 -1.9145  2.9073 -0.4460
  987MOL0     O30153   1.262   4.730  10.177  0.7722  0.5855 -0.1667
  987MOL0     C30154   1.216   4.678  10.077 -0.3469  0.3490  0.1757
  987MOL0     O30155   1.244   4.739   9.947  0.4372  0.4900  0.1650
  987MOL0     C30156   1.303   4.868   9.947 -0.3873  0.3822  0.2246
  987MOL0     C30157   1.268   4.972  10.035 -0.3631  0.3433 -0.2307
  987MOL0     C30158   1.319   5.102  10.013  0.8843 -0.2905 -0.3570
  987MOL0     C30159   1.414   5.135   9.920 -0.2297 -0.0182  0.4091
  987MOL0     O30160   1.482   5.252   9.907 -0.4892  0.0615  0.5017
  987MOL0     C30161   1.438   5.356   9.997  0.2105  0.9099  0.1362
  987MOL0     C30162   1.299   5.406   9.967 -0.8946 -0.2827 -0.3821
  987MOL0     C30163   1.265   5.422   9.815 -0.6791  0.3902  0.5287
  987MOL0     C30164   1.130   5.484   9.778  1.0560  0.1883 -0.7335
  987MOL0     C30165   1.121   5.511   9.632  0.4894 -0.9612 -0.6250
  987MOL0     C30166   0.999   5.609   9.611  0.3824  0.2023  0.4718
  987MOL0     C30167   0.977   5.639   9.459 -0.3994  1.3088 -0.1140
  987MOL0     C30168   0.861   5.747   9.436 -0.1933  0.0131 -0.7982
  987MOL0     N30169   0.739   5.734   9.514 -0.0165  0.3464  0.2431
  987MOL0     C30170   0.668   5.618   9.524  0.2791 -0.2082  0.6086
  987MOL0     C30171   0.553   5.649   9.591 -0.2612  1.8741  0.2911
  987MOL0     C30172   0.432   5.557   9.614 -0.2066  0.3049 -1.1192
  987MOL0     C30173   0.332   5.579   9.499 -0.1319 -0.5475 -0.3106
  987MOL0     C30174   0.198   5.514   9.511  0.1007  0.9087 -0.6979
  987MOL0     C30175   0.128   5.515   9.646  0.1390 -0.2834 -0.1153
  987MOL0     O30176   0.181   5.434   9.754  0.3023 -0.3907 -0.3736
  987MOL0     C30177   0.136   5.462   9.880  0.5122  0.3008 -0.4032
  987MOL0     C30178   0.191   5.373   9.974 -0.0784 -0.3847  0.1455
  987MOL0     C30179   0.157   5.389  10.108  0.5448 -0.0213  0.2973
  987MOL0     C30180   0.078   5.496  10.157 -0.3536 -0.6923 -0.1416
  987MOL0     C30181   0.064   5.530  10.298 -0.5064  0.4854  0.7555
  987MOL0     O30182   0.134   5.457  10.375  0.1462  0.2981 -0.3989
  987MOL0     C30183   0.147   5.477  10.517  0.4650  0.1445 -1.0982
  987MOL0     C30184   0.136   5.603  10.575 -0.2374 -0.3419 -1.1535
  987MOL0     C30185   0.140   5.626  10.716  0.0599  0.4997  1.0534
  987MOL0     C30186   0.150   5.511  10.800  0.6153  0.7957  0.1082
  987MOL0     O30187   0.166   5.526  10.938 -0.5340 -0.0553  0.0369
  987MOL0     C30188   0.047   5.569  11.006 -1.0603  0.7437  0.5459
  987MOL0     C30189   0.095   5.612  11.144  0.5639 -0.6458  0.3742
  987MOL0     C30190  -0.019   5.636  11.234  0.1745 -0.0146  0.0307
  987MOL0     C30191   0.028   5.661  11.369 -0.0273 -0.8707 -1.5145
  987MOL0     C30192  -0.079   5.691  11.480 -0.2071 -0.1131 -1.1619
  987MOL0     C30193  -0.020   5.753  11.616 -0.2169 -0.1417  0.6464
  987MOL0     C30194   0.065   5.660  11.701  0.1786 -0.0689  0.0742
  987MOL0     C30195   0.115   5.728  11.825 -0.3579  0.4802 -1.1400
  987MOL0    Cl30196   0.235   5.644  11.921 -0.2415  0.4852 -0.0557
  987MOL0     C30197   0.156   5.386  10.747 -0.1540  0.3624 -0.2521
  987MOL0     C30198   0.164   5.359  10.607  0.1178  0.0652 -1.0451
  987MOL0     O30199   0.009   5.628  10.330 -0.1849  0.0644 -0.8698
  987MOL0     C30200   0.014   5.578  10.058  0.3640  0.8943  0.4077
  987MOL0     C30201   0.041   5.555   9.919  0.0309  0.3745  0.7225
  987MOL0     N30202   0.563   5.780   9.624  0.4585  0.6960  0.2267
  987MOL0     N30203   0.675   5.830   9.572 -0.0316 -0.2631  0.0571
  987MOL0     C30204   1.463   5.025   9.841  0.3711 -0.2386 -0.0995
  987MOL0     C30205   1.405   4.898   9.854  0.1684 -0.0623 -0.7174
  987MOL0     C30206   1.143   4.555  10.086  0.6175 -0.8728 -0.5095
  987MOL0     C30207   1.110   4.509  10.208 -0.2324  0.1834  0.1071
  987MOL0     C30208   1.048   4.384  10.220  0.7768 -0.3588 -0.4261
  987MOL0     C30209   1.015   4.307  10.110 -0.0843 -0.0028  0.3218
  987MOL0     O30210   0.972   4.175  10.136  0.0912 -0.3427  0.1398
  987MOL0     C30211   0.973   4.086  10.020  0.2807  0.4147 -0.0667
  987MOL0     C30212   0.952   3.944  10.083 -1.0545  0.6089 -0.2973
  987MOL0     C30213   1.003   3.825  10.003 -0.3150 -0.0159  0.2212
  987MOL0     C30214   1.002   3.684  10.070 -0.5818 -0.1398  0.2023
  987MOL0     C30215   0.877   3.611  10.044  0.3444 -0.1126  0.8640
  987MOL0     C30216   0.783   3.545  10.008 -0.4595  0.5488 -0.1286
  987MOL0     C30217   1.054   4.350   9.983 -0.3946 -0.3856 -1.4619
  987MOL0     C30218   1.112   4.478   9.972  0.2645  0.2165  0.6407
  987MOL0     H30219   1.190   4.957  10.109  0.3314  4.5842  1.6666
  987MOL0     H30220   1.287   5.174  10.087 -1.4077 -2.1013  0.5367
  987MOL0     H30221   1.520   5.427   9.988  2.0625 -1.2014 -0.7585
  987MOL0     H30222   1.438   5.323  10.102 -0.3639  2.7159  0.7372
  987MOL0     H30223   1.291   5.504  10.015  2.4546  0.5745 -1.3181
  987MOL0     H30224   1.221   5.344  10.012 -0.0107  1.5247  4.2010
  987MOL0     H30225   1.268   5.321   9.774 -1.9191 -0.4215  2.3086
  987MOL0     H30226   1.346   5.482   9.771  0.0780 -0.9063  0.1218
  987MOL0     H30227   1.046   5.420   9.808  0.0093  2.5744  1.8896
  987MOL0     H30228   1.113   5.576   9.836  1.5301 -1.2490  1.8579
  987MOL0     H30229   1.109   5.413   9.585  1.1297 -2.7211  2.5935
  987MOL0     H30230   1.216   5.564   9.618  0.7278 -0.3648  2.5338
  987MOL0     H30231   1.003   5.705   9.663  2.3260  0.2701  0.2976
  987MOL0     H30232   0.903   5.579   9.653 -0.6507  1.5596 -0.8494
  987MOL0     H30233   1.070   5.679   9.417  0.2426 -2.9891 -3.3912
  987MOL0     H30234   0.944   5.552   9.401 -3.7837  0.8165  2.2026
  987MOL0     H30235   0.830   5.758   9.331  2.9197 -0.8273 -1.9076
  987MOL0     H30236   0.902   5.843   9.469 -3.3966  1.1783  0.1795
  987MOL0     H30237   0.706   5.528   9.478 -2.2435 -2.8988  3.3434
  987MOL0     H30238   0.380   5.581   9.708  0.2760 -1.6633 -0.2871
  987MOL0     H30239   0.461   5.452   9.617  2.4208  0.9670 -1.5987
  987MOL0     H30240   0.365   5.532   9.405 -3.0813 -2.1453 -0.6655
  987MOL0     H30241   0.319   5.685   9.475 -0.0579 -0.4056  0.2783
  987MOL0     H30242   0.128   5.561   9.441 -0.1595  2.2763  0.4428
  987MOL0     H30243   0.216   5.413   9.473  3.4706  1.5216 -0.9950
  987MOL0     H30244   0.023   5.487   9.632 -0.8523  2.0846  1.8490
  987MOL0     H30245   0.130   5.618   9.681 -2.4864 -0.9082  2.2541
  987MOL0     H30246   0.255   5.292   9.942  1.9324  1.3541 -0.4953
  987MOL0     H30247   0.222   5.328  10.170  1.5902  0.2817 -0.4629
  987MOL0     H30248   0.138   5.686  10.504  1.2284 -1.2920 -2.2741
  987MOL0     H30249   0.159   5.726  10.754 -1.2854  1.1795  0.0354
  987MOL0     H30250  -0.011   5.479  11.026 -1.6319  1.1014  0.5333
  987MOL0     H30251  -0.012   5.642  10.950  1.8096  2.9815  0.1871
  987MOL0     H30252   0.138   5.713  11.136  0.4382 -0.6573 -0.5215
  987MOL0     H30253   0.174   5.549  11.185  0.8502 -2.1609 -2.2717
  987MOL0     H30254  -0.077   5.544  11.245  2.0352 -1.2775 -0.2339
  987MOL0     H30255  -0.085   5.714  11.195  1.3327 -0.2280 -2.5436
  987MOL0     H30256   0.087   5.575  11.404  2.0540  1.0177 -0.1122
  987MOL0     H30257   0.093   5.749  11.373  1.3277 -1.8251 -1.9214
  987MOL0     H30258  -0.126   5.599  11.513  0.4438  0.4327  1.4949
  987MOL0     H30259  -0.153   5.761  11.441  1.1990  2.6827  0.8186
  987MOL0     H30260  -0.102   5.795  11.675  0.1167  0.9287  0.3709
  987MOL0     H30261   0.044   5.838  11.589 -2.8166  1.1935 -1.7835
  987MOL0     H30262   0.011   5.568  11.725  2.8943 -2.2134 -1.5179
  987MOL0     H30263   0.152   5.610  11.658  0.5345  0.9801 -0.4691
  987MOL0     H30264   0.040   5.758  11.899  0.9339  1.7767 -0.3033
  987MOL0     H30265   0.165   5.821  11.799  2.0864 -0.3315  0.3495
  987MOL0     H30266   0.154   5.305  10.820  0.4857  1.1956  0.7313
  987MOL0     H30267   0.168   5.253  10.585  1.2542 -0.9210  3.0153
  987MOL0     H30268  -0.050   5.658  10.095  0.8312  0.4866  2.2178
  987MOL0     H30269  -0.011   5.609   9.840  0.6768 -0.7760 -0.5269
  987MOL0     H30270   1.548   5.039   9.776 -0.2053 -0.0843 -0.8426
  987MOL0     H30271   1.439   4.812   9.797  0.0805 -0.4696 -0.1644
  987MOL0     H30272   1.138   4.562  10.299  0.0041 -1.7507  1.2179
  987MOL0     H30273   1.017   4.335  10.311 -2.5823  2.5463  0.2054
  987MOL0     H30274   1.076   4.087   9.982 -0.2672 -2.9312 -2.0507
  987MOL0     H30275   0.896   4.113   9.948 -0.0558 -1.5198 -0.4875
  987MOL0     H30276   1.001   3.933  10.180 -1.7567  1.1328  0.1162
  987MOL0     H30277   0.848   3.935  10.113 -1.6762 -0.8562 -2.5955
  987MOL0     H30278   1.108   3.850   9.983 -0.4980  2.0640  1.5355
  987MOL0     H30279   0.950   3.817   9.908 -0.2757  0.7989  0.1301
  987MOL0     H30280   1.097   3.632  10.050  0.9161  2.3862  0.3638
  987MOL0     H30281   0.997   3.691  10.179 -1.6202 -0.8620  0.2110
  987MOL0     H30282   0.721   3.472   9.960  4.6104 -4.6632  0.1325
  987MOL0     H30283   1.042   4.296   9.889  1.9884 -0.0476 -2.0317
  987MOL0     H30284   1.149   4.524   9.882 -0.1926 -1.6110 -0.5540
  988MOL0     O30285   4.654   1.771   2.436 -0.2833 -0.1143 -1.1630
  988MOL0     C30286   4.634   1.891   2.435 -0.0191  0.7633  0.0846
  988MOL0     O30287   4.613   1.969   2.329  0.4100 -0.0684  1.0312
  988MOL0     C30288   4.648   1.931   2.200  0.2431 -0.1719  1.2291
  988MOL0     C30289   4.711   1.809   2.145  0.7195 -1.1096 -0.1619
  988MOL0     C30290   4.755   1.800   2.009  0.0578  0.0654 -0.9287
  988MOL0     C30291   4.714   1.894   1.916 -0.3214 -0.0079  1.0074
  988MOL0     O30292   4.752   1.871   1.781 -0.4169 -0.0301  0.7908
  988MOL0     C30293   4.829   1.978   1.716 -0.0117  0.1960  0.0421
  988MOL0     C30294   4.859   1.928   1.573  0.0371  0.5198 -0.2031
  988MOL0     C30295   4.961   2.017   1.506  0.4868  1.0788 -0.1122
  988MOL0     C30296   5.101   1.984   1.567  1.3238  0.5689 -0.0378
  988MOL0     C30297   5.162   2.117   1.621 -0.5092  0.6819 -0.4565
  988MOL0     C30298   5.311   2.122   1.573 -0.2430 -0.9698 -0.1445
  988MOL0     C30299   5.382   2.233   1.642 -0.1488  0.3954 -0.4088
  988MOL0     C30300   5.501   2.287   1.564  0.4671 -0.1647  0.5179
  988MOL0     N30301   5.611   2.201   1.581  0.1110 -0.0552 -0.0167
  988MOL0     C30302   5.698   2.202   1.678  0.5004 -0.2312 -0.2515
  988MOL0     C30303   5.790   2.111   1.649 -0.5958 -1.1580  0.4464
  988MOL0     C30304   5.927   2.091   1.721 -0.1744  0.2928 -0.0389
  988MOL0     C30305   6.035   2.052   1.621 -0.2981  1.1882  0.2885
  988MOL0     C30306   6.175   2.034   1.678  0.1514 -0.0051 -0.8098
  988MOL0     C30307   6.192   1.916   1.773  0.1868  0.2241 -0.5078
  988MOL0     O30308   6.329   1.914   1.809 -0.2050 -0.0967 -0.4205
  988MOL0     C30309   6.404   1.800   1.806 -1.2531  0.8527  0.2898
  988MOL0     C30310   6.535   1.818   1.832  0.3663 -0.0221 -0.0326
  988MOL0     C30311   6.622   1.712   1.839  0.3026  0.5884  0.7985
  988MOL0     C30312   6.586   1.584   1.808 -0.1266  0.5437  1.0497
  988MOL0     C30313   6.695   1.475   1.791 -0.9943 -0.0516 -1.0616
  988MOL0     O30314   6.813   1.495   1.869 -0.2559 -0.0071  0.9463
  988MOL0     C30315   6.883   1.385   1.905  0.2574  0.3422  0.2847
  988MOL0     C30316   6.816   1.267   1.949 -1.0262  0.3267  1.0511
  988MOL0     C30317   6.892   1.165   1.998  0.0196  0.4147 -0.2012
  988MOL0     C30318   7.033   1.170   2.002 -0.1822 -0.1657 -0.2850
  988MOL0     O30319   7.097   1.053   2.045 -0.2784  0.5972 -0.0692
  988MOL0     C30320   7.248   1.050   2.025  0.7920 -0.0234 -0.0584
  988MOL0     C30321   7.302   0.934   2.116  0.7594  0.3886  0.4420
  988MOL0     C30322   7.444   0.895   2.049  0.3672  0.4774  0.1564
  988MOL0     C30323   7.520   0.789   2.142 -0.5159 -0.4062  0.7661
  988MOL0     C30324   7.484   0.639   2.102  0.4118 -0.1303  1.3613
  988MOL0     C30325   7.541   0.527   2.189 -0.7318 -0.1542 -0.0657
  988MOL0     C30326   7.505   0.395   2.117  0.2415 -0.0352 -0.3224
  988MOL0     C30327   7.527   0.273   2.194  0.4875  0.4247  0.3039
  988MOL0    Cl30328   7.679   0.212   2.128 -0.0962  0.1644  0.0300
  988MOL0     C30329   7.093   1.294   1.980  0.3692 -0.2651 -0.1089
  988MOL0     C30330   7.015   1.395   1.924  0.1452  0.1045  0.7940
  988MOL0     O30331   6.687   1.392   1.705 -0.7838  0.2680 -0.7064
  988MOL0     C30332   6.455   1.567   1.757 -0.5711  0.8646 -0.0112
  988MOL0     C30333   6.365   1.668   1.769 -0.5499 -0.2585  0.3483
  988MOL0     N30334   5.749   2.047   1.534 -0.0170 -0.1985  0.8193
  988MOL0     N30335   5.638   2.099   1.493  1.2092 -0.0251  0.9759
  988MOL0     C30336   4.635   2.004   1.960  0.2667  0.2171  0.1782
  988MOL0     C30337   4.610   2.022   2.095  0.6342  0.1376 -0.4124
  988MOL0     C30338   4.620   1.960   2.572 -0.2024 -0.1883  0.3634
  988MOL0     C30339   4.614   2.102   2.572  0.4645 -0.3225 -0.3591
  988MOL0     C30340   4.614   2.168   2.701  0.6649  0.5419  0.7926
  988MOL0     C30341   4.616   2.090   2.824  0.0686  0.1961  0.2357
  988MOL0     O30342   4.628   2.134   2.949 -0.6402  0.2849  0.2654
  988MOL0     C30343   4.563   2.260   2.972  0.6302  0.3797  0.1312
  988MOL0     C30344   4.551   2.289   3.119 -0.0605  0.7381 -0.9468
  988MOL0     C30345   4.514   2.435   3.137 -0.1570  0.0975  0.8645
  988MOL0     C30346   4.490   2.458   3.290  1.2401  0.4685  0.5126
  988MOL0     C30347   4.612   2.474   3.378 -0.0401  0.9808 -0.8487
  988MOL0     C30348   4.708   2.470   3.447 -0.1460  0.5127 -0.6316
  988MOL0     C30349   4.608   1.951   2.820  0.3744 -1.0072 -0.2269
  988MOL0     C30350   4.610   1.887   2.694  0.4423 -0.8274  0.7983
  988MOL0     H30351   4.739   1.726   2.210 -4.3028 -1.0066  2.5935
  988MOL0     H30352   4.822   1.723   1.973  3.0203  3.0948 -2.4612
  988MOL0     H30353   4.919   1.982   1.779  0.1467 -2.2831  0.0718
  988MOL0     H30354   4.788   2.079   1.708  1.9868  0.9240 -2.4476
  988MOL0     H30355   4.774   1.918   1.505  2.4224 -1.8606 -3.0924
  988MOL0     H30356   4.913   1.834   1.583 -0.2387  0.5605  5.6652
  988MOL0     H30357   4.927   2.118   1.530 -1.0810 -0.3543  4.9254
  988MOL0     H30358   4.970   2.004   1.397  0.9952 -2.3861  0.2512
  988MOL0     H30359   5.094   1.923   1.658  1.0207  1.1818  0.3596
  988MOL0     H30360   5.163   1.931   1.494 -0.3004 -2.3583  0.5258
  988MOL0     H30361   5.157   2.114   1.730 -1.1617  0.5568 -0.4881
  988MOL0     H30362   5.117   2.211   1.588  1.9052  1.2907 -2.3488
  988MOL0     H30363   5.316   2.132   1.465 -1.5578  1.7245 -0.0288
  988MOL0     H30364   5.368   2.032   1.601  1.6003  0.2415  0.1918
  988MOL0     H30365   5.311   2.314   1.657 -0.7635 -0.4740  1.7278
  988MOL0     H30366   5.415   2.208   1.743  0.7202  2.3513 -0.1679
  988MOL0     H30367   5.523   2.390   1.593 -3.3253  0.7995  0.4870
  988MOL0     H30368   5.476   2.293   1.457 -0.0745  0.2347  0.6582
  988MOL0     H30369   5.701   2.269   1.763 -2.9088 -0.0709 -0.0957
  988MOL0     H30370   5.913   2.005   1.788  0.2923 -0.8303 -1.3287
  988MOL0     H30371   5.956   2.180   1.777  0.0048  0.9917 -1.2111
  988MOL0     H30372   6.030   2.127   1.541 -1.5598  0.2606 -0.5575
  988MOL0     H30373   6.028   1.954   1.573  4.9578  1.6083 -1.9897
  988MOL0     H30374   6.239   2.030   1.590  2.6567  1.6226  0.7948
  988MOL0     H30375   6.197   2.125   1.735  0.2676 -1.3976  1.5044
  988MOL0     H30376   6.161   1.824   1.722 -0.2025  0.6443 -1.0519
  988MOL0     H30377   6.138   1.924   1.868  1.4086 -1.4335  0.3557
  988MOL0     H30378   6.573   1.918   1.851  0.0885  0.5965 -2.3821
  988MOL0     H30379   6.728   1.731   1.855  0.3044  1.0056  0.3059
  988MOL0     H30380   6.707   1.264   1.945 -1.1878  3.5493  0.3604
  988MOL0     H30381   6.845   1.074   2.035 -0.5890  1.6501  2.3233
  988MOL0     H30382   7.307   1.139   2.050 -0.4905  1.2967 -1.5216
  988MOL0     H30383   7.255   1.032   1.918 -0.0550  5.7266 -1.4362
  988MOL0     H30384   7.226   0.855   2.117  1.8999 -0.9264 -2.6786
  988MOL0     H30385   7.325   0.968   2.218 -0.7206 -1.3607  1.4242
  988MOL0     H30386   7.498   0.984   2.017 -0.5641 -0.1484 -3.5704
  988MOL0     H30387   7.418   0.853   1.951 -3.5728  0.7268  0.9153
  988MOL0     H30388   7.627   0.814   2.137 -0.6530  1.1834  3.8086
  988MOL0     H30389   7.492   0.800   2.247 -1.8606 -1.3538  0.5197
  988MOL0     H30390   7.512   0.624   1.997 -1.0259  3.4665  0.3183
  988MOL0     H30391   7.377   0.617   2.107  0.0898 -0.0559 -2.5027
  988MOL0     H30392   7.507   0.522   2.293  3.3817 -3.3076  1.4037
  988MOL0     H30393   7.649   0.541   2.193 -0.4025 -1.2307 -2.8935
  988MOL0     H30394   7.403   0.394   2.077 -0.7884 -3.0002  2.0096
  988MOL0     H30395   7.569   0.394   2.028  1.4939 -1.6886  0.5557
  988MOL0     H30396   7.448   0.208   2.157  0.7108  0.9032 -1.0630
  988MOL0     H30397   7.533   0.288   2.303  2.6969 -3.2408  0.8492
  988MOL0     H30398   7.197   1.307   2.009  0.3537  1.8313 -0.8289
  988MOL0     H30399   7.066   1.488   1.897  0.2284  0.3317  1.7010
  988MOL0     H30400   6.414   1.471   1.729 -1.2580  0.3489  2.4593
  988MOL0     H30401   6.267   1.653   1.725  0.4466 -0.1969 -2.0479
  988MOL0     H30402   4.612   2.081   1.888  3.5868  1.4858  0.2729
  988MOL0     H30403   4.570   2.115   2.134  0.1329 -0.5830  0.8566
  988MOL0     H30404   4.610   2.160   2.480 -0.3007  1.2382  0.6068
  988MOL0     H30405   4.614   2.277   2.699 -1.9471  0.5872  0.2555
  988MOL0     H30406   4.464   2.241   2.929  0.6169 -3.1244  1.3733
  988MOL0     H30407   4.610   2.343   2.919 -1.7438  1.0849 -1.0167
  988MOL0     H30408   4.479   2.225   3.169  1.1691  1.1379  1.5047
  988MOL0     H30409   4.651   2.282   3.163 -1.4583  0.1620  2.4652
  988MOL0     H30410   4.425   2.455   3.077  1.2620  1.7523 -0.7744
  988MOL0     H30411   4.596   2.500   3.108  1.1139 -1.3931  0.9469
  988MOL0     H30412   4.441   2.555   3.295  3.1667  1.4622  1.4722
  988MOL0     H30413   4.426   2.380   3.333  1.5631 -1.2025 -1.8611
  988MOL0     H30414   4.788   2.472   3.518 -0.3933  2.3627 -0.3692
  988MOL0     H30415   4.615   1.900   2.915  2.3868 -0.6504 -0.1430
  988MOL0     H30416   4.612   1.779   2.683 -1.8939 -1.1027  2.3530
  989MOL0     O30417   0.760   7.165   6.212  0.1342  0.3817  0.1972
  989MOL0     C30418   0.638   7.199   6.206 -0.1576 -0.7472  0.7306
  989MOL0     O30419   0.558   7.211   6.318  0.3127 -0.3462  0.0034
  989MOL0     C30420   0.610   7.178   6.440 -0.3686 -0.3883  0.1843
  989MOL0     C30421   0.693   7.271   6.496 -0.6077  0.7946 -0.8711
  989MOL0     C30422   0.754   7.230   6.615 -0.4515  0.6640  0.5399
  989MOL0     C30423   0.721   7.121   6.689  0.4119 -0.2017  0.4890
  989MOL0     O30424   0.778   7.111   6.813  0.5501  0.9552 -0.3336
  989MOL0     C30425   0.850   6.985   6.858 -0.3468 -0.2431 -0.2908
  989MOL0     C30426   0.935   7.006   6.982  0.3199 -0.0018 -0.6079
  989MOL0     C30427   1.075   7.060   6.950 -0.3434  0.5931 -0.0978
  989MOL0     C30428   1.153   7.102   7.082  0.1858  0.1219  1.0566
  989MOL0     C30429   1.309   7.112   7.070 -0.1624 -0.7737 -0.9899
  989MOL0     C30430   1.348   7.190   6.950  0.0622 -0.5499 -0.0720
  989MOL0     C30431   1.486   7.256   6.945 -0.8694  0.7718 -0.1309
  989MOL0     C30432   1.492   7.378   7.031 -0.3747 -0.1764  0.9554
  989MOL0     N30433   1.405   7.494   6.994  0.5813  0.5494 -0.2612
  989MOL0     C30434   1.327   7.505   6.880  0.1505 -0.5738 -0.6159
  989MOL0     C30435   1.221   7.588   6.920  0.8239  1.4293 -0.0671
  989MOL0     C30436   1.106   7.606   6.820  0.6347 -0.4340  0.0933
  989MOL0     C30437   0.999   7.490   6.830 -0.8739 -0.4498 -0.1482
  989MOL0     C30438   0.913   7.522   6.959  0.1395 -0.1769 -0.4501
  989MOL0     C30439   0.809   7.421   7.000  0.2259  0.2103  0.8117
  989MOL0     O30440   0.692   7.442   6.929  0.0184 -0.1544  0.6164
  989MOL0     C30441   0.590   7.351   6.939 -0.0453 -0.1903  0.1017
  989MOL0     C30442   0.482   7.378   6.866  0.7396 -0.5736  0.3160
  989MOL0     C30443   0.366   7.293   6.863  0.5041 -0.2216  0.5234
  989MOL0     C30444   0.370   7.166   6.936 -0.1580  0.4448  0.7490
  989MOL0     C30445   0.268   7.068   6.921 -0.0131 -0.2460 -0.1457
  989MOL0     O30446   0.157   7.103   6.857  0.1407 -0.1261 -0.1303
  989MOL0     C30447   0.035   7.038   6.864 -0.4588 -0.4829  0.2700
  989MOL0     C30448  -0.051   7.072   6.749  0.2989  0.4097 -0.0108
  989MOL0     C30449  -0.181   7.007   6.744  0.6578  1.0527 -0.6159
  989MOL0     C30450  -0.216   6.918   6.845  0.4001 -0.4825 -0.1637
  989MOL0     O30451  -0.339   6.846   6.823 -0.7448 -0.0435 -0.5748
  989MOL0     C30452  -0.397   6.762   6.920  0.2958  0.2581  0.1042
  989MOL0     C30453  -0.348   6.616   6.908  0.1451 -0.7131 -0.3108
  989MOL0     C30454  -0.427   6.530   7.005 -0.2766  0.3606 -0.1932
  989MOL0     C30455  -0.333   6.440   7.083  0.7676 -1.4292 -0.4628
  989MOL0     C30456  -0.394   6.413   7.220 -0.1284 -0.2730  1.2058
  989MOL0     C30457  -0.298   6.321   7.295 -0.0032  0.0395  0.3703
  989MOL0     C30458  -0.333   6.330   7.449 -0.9403 -0.2569 -0.5788
  989MOL0     C30459  -0.472   6.319   7.494 -0.3239 -0.9812 -0.3337
  989MOL0    Cl30460  -0.467   6.266   7.663 -0.0450  0.1564  0.0446
  989MOL0     C30461  -0.134   6.901   6.954 -0.1841  1.0124  0.0589
  989MOL0     C30462  -0.011   6.956   6.967 -0.8115  0.0964 -0.9108
  989MOL0     O30463   0.285   6.949   6.956  0.7158 -0.5042  0.9403
  989MOL0     C30464   0.480   7.149   7.018 -0.3499 -0.4116  1.8062
  989MOL0     C30465   0.587   7.236   7.015  0.3244 -0.5792 -0.7273
  989MOL0     N30466   1.230   7.623   7.053  0.4231 -0.2235 -0.4254
  989MOL0     N30467   1.336   7.557   7.089 -0.0615 -0.5203 -0.3674
  989MOL0     C30468   0.634   7.030   6.626  0.7421 -0.0703  0.2250
  989MOL0     C30469   0.573   7.065   6.506  0.2296  0.1770 -0.0290
  989MOL0     C30470   0.571   7.223   6.080 -0.5529 -0.0635 -0.1509
  989MOL0     C30471   0.647   7.277   5.971 -0.0571 -0.2689 -0.4269
  989MOL0     C30472   0.589   7.310   5.853 -0.5350 -0.2412  0.4796
  989MOL0     C30473   0.452   7.283   5.834  0.0130  0.0879 -0.1358
  989MOL0     O30474   0.388   7.309   5.715 -0.2900 -0.6231  0.0959
  989MOL0     C30475   0.416   7.447   5.679 -0.0780 -0.5302 -0.2185
  989MOL0     C30476   0.297   7.505   5.607 -0.0050 -0.7733 -0.0341
  989MOL0     C30477   0.168   7.519   5.691  1.1257 -0.3773 -0.4482
  989MOL0     C30478   0.189   7.564   5.835 -1.0900 -0.0951  0.2541
  989MOL0     C30479   0.083   7.660   5.887 -0.5778 -0.1481 -0.8259
  989MOL0     C30480   0.004   7.730   5.946 -0.0752 -0.3642  0.0389
  989MOL0     C30481   0.377   7.216   5.934  0.4660  0.4463 -0.0791
  989MOL0     C30482   0.434   7.199   6.061  0.2605 -0.5119  0.3497
  989MOL0     H30483   0.725   7.368   6.459 -0.5590  0.6795 -1.1316
  989MOL0     H30484   0.834   7.298   6.644 -1.6705  1.5650  1.9235
  989MOL0     H30485   0.912   6.950   6.775 -2.1880 -1.3009 -1.2931
  989MOL0     H30486   0.780   6.903   6.878  1.4992 -0.9021  5.4795
  989MOL0     H30487   0.945   6.919   7.047  3.0351  1.7796  1.6039
  989MOL0     H30488   0.879   7.073   7.048 -1.0076 -0.9208 -0.7759
  989MOL0     H30489   1.074   7.141   6.878  1.4469  0.9164  0.1876
  989MOL0     H30490   1.129   6.978   6.901 -0.6597 -1.1644  2.2789
  989MOL0     H30491   1.130   7.206   7.105  3.7573  0.7849  2.2380
  989MOL0     H30492   1.138   7.030   7.162 -1.6723 -0.2356  0.4236
  989MOL0     H30493   1.354   7.012   7.076  2.6618  0.4676  3.3113
  989MOL0     H30494   1.343   7.166   7.159 -2.4064  1.2570 -1.2715
  989MOL0     H30495   1.280   7.274   6.932 -0.7422 -0.9484  0.9550
  989MOL0     H30496   1.336   7.123   6.864  0.9076 -0.9708  0.1322
  989MOL0     H30497   1.566   7.193   6.984  1.5675  0.8175 -4.3625
  989MOL0     H30498   1.521   7.283   6.845  0.3719  1.0784  0.3639
  989MOL0     H30499   1.593   7.420   7.029 -0.3803 -0.1628  0.9480
  989MOL0     H30500   1.481   7.359   7.138  4.7293 -2.3645  1.3565
  989MOL0     H30501   1.339   7.448   6.788 -1.3062 -0.9310 -0.6164
  989MOL0     H30502   1.148   7.595   6.719  1.1320  1.1172  0.1094
  989MOL0     H30503   1.057   7.703   6.810  1.9045  0.3058  0.8146
  989MOL0     H30504   1.043   7.390   6.834 -2.5309 -1.1976  0.1413
  989MOL0     H30505   0.936   7.487   6.741 -1.8633 -0.1989  0.5343
  989MOL0     H30506   0.966   7.531   7.053  1.8550  1.1025 -1.4828
  989MOL0     H30507   0.869   7.621   6.943  1.6998  0.8622  1.3713
  989MOL0     H30508   0.794   7.430   7.108 -0.9852 -0.5471  0.7345
  989MOL0     H30509   0.844   7.319   6.982 -1.2310  0.0045 -1.1246
  989MOL0     H30510   0.475   7.465   6.802 -0.2334 -2.3935 -2.1940
  989MOL0     H30511   0.283   7.323   6.799  2.2690  1.6795 -1.0056
  989MOL0     H30512  -0.016   7.138   6.671 -1.1109  0.3716 -0.7232
  989MOL0     H30513  -0.263   7.014   6.674 -1.7000 -0.1345  1.8319
  989MOL0     H30514  -0.502   6.755   6.890  1.0928 -1.3817 -2.7332
  989MOL0     H30515  -0.403   6.801   7.022 -0.4074 -0.3719  0.3074
  989MOL0     H30516  -0.241   6.623   6.926  0.5208 -1.7812 -1.9240
  989MOL0     H30517  -0.357   6.584   6.803 -3.4855 -3.4074  0.6067
  989MOL0     H30518  -0.517   6.480   6.969  1.0252 -1.3513 -1.1885
  989MOL0     H30519  -0.463   6.610   7.071 -1.7096 -0.3825 -0.0441
  989MOL0     H30520  -0.323   6.338   7.045 -1.3924 -0.7432 -3.1900
  989MOL0     H30521  -0.238   6.493   7.090 -0.0089 -0.0225 -0.2852
  989MOL0     H30522  -0.493   6.368   7.210 -0.2661 -1.0887  4.7983
  989MOL0     H30523  -0.400   6.512   7.267 -0.3906  0.1197  0.3635
  989MOL0     H30524  -0.195   6.357   7.288  1.0503 -2.7578  0.3429
  989MOL0     H30525  -0.291   6.220   7.254  1.1008  0.6892 -1.1124
  989MOL0     H30526  -0.272   6.251   7.493  0.6305  1.2271  0.0077
  989MOL0     H30527  -0.286   6.418   7.494  1.1092 -0.4363 -2.1912
  989MOL0     H30528  -0.541   6.256   7.437 -1.1414  1.2545 -1.9301
  989MOL0     H30529  -0.522   6.416   7.494 -2.4545 -2.0369  0.8029
  989MOL0     H30530  -0.170   6.847   7.041  1.6934 -1.1800 -0.4071
  989MOL0     H30531   0.056   6.933   7.049 -0.7652  2.3274 -0.2790
  989MOL0     H30532   0.482   7.061   7.082  0.9722 -3.7248 -2.3025
  989MOL0     H30533   0.672   7.215   7.079 -0.0933  3.2354  1.3287
  989MOL0     H30534   0.605   6.942   6.682  1.0344 -0.2028  0.1711
  989MOL0     H30535   0.506   6.996   6.457  1.1044 -0.2075 -0.7135
  989MOL0     H30536   0.755   7.284   5.976 -0.0125 -1.5231  2.6613
  989MOL0     H30537   0.643   7.373   5.783 -2.8415  0.2953 -0.9156
  989MOL0     H30538   0.505   7.456   5.616 -0.6996  3.9503 -0.8141
  989MOL0     H30539   0.434   7.508   5.768  0.5434  2.0967 -2.0211
  989MOL0     H30540   0.313   7.603   5.562 -0.9906 -0.1270  1.0013
  989MOL0     H30541   0.267   7.438   5.525 -1.6306 -0.0213 -0.0846
  989MOL0     H30542   0.117   7.422   5.696 -0.9343  0.7061  1.6202
  989MOL0     H30543   0.106   7.599   5.650 -0.1961 -0.3385  1.4736
  989MOL0     H30544   0.193   7.480   5.905  1.5101 -2.0156 -1.9943
  989MOL0     H30545   0.285   7.614   5.853 -0.4259 -0.0646 -2.8787
  989MOL0     H30546  -0.079   7.777   5.996 -1.0560 -0.3721 -1.5101
  989MOL0     H30547   0.278   7.188   5.898  1.1064 -1.7547 -0.2729
  989MOL0     H30548   0.375   7.168   6.148  1.2211 -0.7492  0.9265
  990MOL0     O30549   8.867   1.701   5.504 -0.2661 -0.2085  0.2460
  990MOL0     C30550   8.780   1.784   5.551 -0.3392 -0.6247  0.2334
  990MOL0     O30551   8.650   1.756   5.585 -0.1118  0.6231  0.3323
  990MOL0     C30552   8.587   1.631   5.570  0.5930 -0.1887  0.4795
  990MOL0     C30553   8.651   1.506   5.565 -0.7461 -0.6662 -0.1350
  990MOL0     C30554   8.587   1.383   5.545 -0.5176  0.3325 -0.2268
  990MOL0     C30555   8.445   1.382   5.539  0.7265 -0.2042  0.5056
  990MOL0     O30556   8.366   1.276   5.511  0.7092  0.0454  0.0679
  990MOL0     C30557   8.418   1.147   5.542 -0.4723  0.0219 -0.5506
  990MOL0     C30558   8.494   1.068   5.433 -0.4852 -0.8846 -0.1832
  990MOL0     C30559   8.492   0.918   5.462  1.0242  0.1880 -0.6366
  990MOL0     C30560   8.557   0.873   5.596 -0.2619 -0.6534  0.3360
  990MOL0     C30561   8.708   0.870   5.579 -0.1429 -0.5822 -0.6116
  990MOL0     C30562   8.765   0.798   5.704  0.3461 -0.7131 -0.3166
  990MOL0     C30563   8.918   0.778   5.688 -0.3500 -1.0444  0.3424
  990MOL0     C30564   9.001   0.909   5.677 -1.0453  0.4429 -1.2743
  990MOL0     N30565   9.002   0.975   5.548 -0.1353  0.7915 -0.9210
  990MOL0     C30566   8.957   1.101   5.525 -0.0733 -0.0581  0.8694
  990MOL0     C30567   8.946   1.102   5.387 -0.5113  0.2264 -0.0830
  990MOL0     C30568   8.910   1.236   5.324 -0.7906 -0.0132 -0.3083
  990MOL0     C30569   9.020   1.261   5.223 -0.0769  0.1588  0.4688
  990MOL0     C30570   9.017   1.403   5.168  0.4185  0.6802  0.6551
  990MOL0     C30571   9.102   1.417   5.034  0.0382  0.1260 -0.1936
  990MOL0     O30572   9.095   1.554   4.973  0.1615 -0.4096 -0.0020
  990MOL0     C30573   9.163   1.565   4.851 -0.9407 -0.2096 -0.3074
  990MOL0     C30574   9.157   1.697   4.799  0.3054  0.3219 -0.6454
  990MOL0     C30575   9.226   1.727   4.682  0.3219  0.6239 -0.1278
  990MOL0     C30576   9.292   1.633   4.612 -0.3641  0.1626  0.1478
  990MOL0     C30577   9.360   1.657   4.489  0.4345  1.0677 -0.5107
  990MOL0     O30578   9.399   1.554   4.405 -0.1085 -0.3280 -0.5541
  990MOL0     C30579   9.528   1.560   4.353  0.3880  0.3877  0.1765
  990MOL0     C30580   9.610   1.444   4.373 -0.7910 -0.0924 -0.3943
  990MOL0     C30581   9.750   1.440   4.325 -0.5819 -0.2673  1.8528
  990MOL0     C30582   9.797   1.548   4.251  0.2163  0.2408 -0.6938
  990MOL0     O30583   9.920   1.555   4.200  0.2314 -0.0051 -0.4891
  990MOL0     C30584  10.000   1.651   4.262 -1.4504  0.7295  0.6848
  990MOL0     C30585  10.140   1.650   4.192  0.2659 -0.2167 -0.8736
  990MOL0     C30586  10.233   1.530   4.251 -0.2951  0.0174  0.2265
  990MOL0     C30587  10.236   1.528   4.404 -0.1137 -0.0736 -0.2318
  990MOL0     C30588  10.377   1.542   4.463 -0.3082  0.2719 -0.9435
  990MOL0     C30589  10.424   1.688   4.435 -0.2770  0.4117  0.1151
  990MOL0     C30590  10.571   1.693   4.465 -1.1458  0.0925 -0.1506
  990MOL0     C30591  10.641   1.827   4.450 -0.9438  0.2889  0.5522
  990MOL0    Cl30592  10.816   1.833   4.485  0.1234 -0.0654  0.4893
  990MOL0     C30593   9.713   1.660   4.238  0.6245  0.1487  0.2719
  990MOL0     C30594   9.585   1.674   4.296 -0.0609  0.4253  0.7014
  990MOL0     O30595   9.387   1.775   4.468 -0.1889  0.1575  0.1522
  990MOL0     C30596   9.292   1.503   4.662  0.6178  0.7046  0.2056
  990MOL0     C30597   9.230   1.464   4.774 -0.5506 -0.0622 -0.6937
  990MOL0     N30598   8.974   0.976   5.343  0.7871 -0.8750  0.5356
  990MOL0     N30599   9.019   0.900   5.435 -0.2933 -0.0735 -0.6070
  990MOL0     C30600   8.378   1.504   5.536  0.0261  0.4274  0.3025
  990MOL0     C30601   8.446   1.624   5.553  0.4131  0.6141  0.4151
  990MOL0     C30602   8.838   1.920   5.586 -0.2591  0.7055  0.2949
  990MOL0     C30603   8.970   1.959   5.597 -0.1478  0.5273 -0.2827
  990MOL0     C30604   9.014   2.091   5.644  0.5715 -0.7093  0.1857
  990MOL0     C30605   8.917   2.188   5.668  0.7674 -0.6338 -0.0414
  990MOL0     O30606   8.941   2.312   5.717  0.3369  0.3844  0.5236
  990MOL0     C30607   8.971   2.414   5.622  0.2999  0.0077 -0.3087
  990MOL0     C30608   9.114   2.445   5.597  0.8535 -0.9884  0.4494
  990MOL0     C30609   9.182   2.519   5.710 -0.4033 -0.3860 -0.6589
  990MOL0     C30610   9.105   2.640   5.776  0.6217  0.3176  0.7855
  990MOL0     C30611   9.099   2.751   5.683  0.3304  0.8802 -0.2187
  990MOL0     C30612   9.109   2.837   5.598  0.7022  0.3257 -0.0909
  990MOL0     C30613   8.783   2.153   5.646  0.6847 -0.0350  0.1548
  990MOL0     C30614   8.747   2.023   5.612 -0.4075  0.4234  0.0567
  990MOL0     H30615   8.759   1.497   5.565 -0.6792 -1.0224 -3.3061
  990MOL0     H30616   8.647   1.293   5.546  2.2222  2.0080 -0.8706
  990MOL0     H30617   8.331   1.087   5.571 -0.2423 -1.3687 -2.5649
  990MOL0     H30618   8.482   1.153   5.630  1.5443 -2.8496 -1.6807
  990MOL0     H30619   8.599   1.099   5.425  0.5159 -3.6893  0.7568
  990MOL0     H30620   8.457   1.084   5.332  0.2547  0.6444 -0.2412
  990MOL0     H30621   8.553   0.878   5.380  1.3194 -2.2305  0.6740
  990MOL0     H30622   8.391   0.876   5.459  1.8254 -2.9231  4.2319
  990MOL0     H30623   8.516   0.934   5.678 -0.9810 -0.3691 -0.2196
  990MOL0     H30624   8.518   0.772   5.612 -2.0681  0.0717  0.7681
  990MOL0     H30625   8.739   0.975   5.578  0.5225 -0.7758 -1.4932
  990MOL0     H30626   8.743   0.822   5.487 -2.4197 -1.8343 -0.8992
  990MOL0     H30627   8.710   0.703   5.712 -1.7704  0.5162  0.4085
  990MOL0     H30628   8.757   0.847   5.801  2.1583  1.5042 -1.2065
  990MOL0     H30629   8.952   0.718   5.772 -3.2883 -2.9559  0.2949
  990MOL0     H30630   8.939   0.719   5.598 -2.4493 -0.2234 -0.7400
  990MOL0     H30631   9.103   0.875   5.698 -2.1824 -2.7004 -0.1631
  990MOL0     H30632   8.962   0.983   5.748 -0.6608  3.6548 -4.1762
  990MOL0     H30633   8.942   1.187   5.589 -4.0306  1.3582 -1.5502
  990MOL0     H30634   8.890   1.314   5.398 -1.6165 -0.0077 -0.5299
  990MOL0     H30635   8.817   1.231   5.267 -2.6443 -0.9966  2.5739
  990MOL0     H30636   9.010   1.198   5.134  1.6403  2.5752 -1.5792
  990MOL0     H30637   9.124   1.246   5.255  0.0537 -1.8427 -0.7427
  990MOL0     H30638   8.912   1.431   5.162  0.5951  1.9333  2.4310
  990MOL0     H30639   9.072   1.463   5.242 -1.2565 -0.3079  2.8007
  990MOL0     H30640   9.059   1.345   4.964  0.3902 -2.7200  2.3451
  990MOL0     H30641   9.205   1.389   5.055 -0.2341  0.6928  2.1866
  990MOL0     H30642   9.094   1.773   4.845  4.9341  2.7056  2.5333
  990MOL0     H30643   9.221   1.823   4.631  2.4482 -1.2104 -4.2306
  990MOL0     H30644   9.577   1.355   4.425  1.1383 -0.3860  0.4333
  990MOL0     H30645   9.825   1.362   4.338 -0.9091 -1.5219 -2.1651
  990MOL0     H30646   9.995   1.627   4.368 -3.6937 -2.3185  0.0251
  990MOL0     H30647   9.963   1.750   4.235 -0.1806  0.9310 -0.4645
  990MOL0     H30648  10.195   1.744   4.203  0.4147 -0.4319  0.4863
  990MOL0     H30649  10.126   1.641   4.084 -1.1783  2.6223 -1.0141
  990MOL0     H30650  10.331   1.551   4.209 -1.8825 -0.3186 -4.1934
  990MOL0     H30651  10.190   1.436   4.212 -0.0915  1.0273 -2.6874
  990MOL0     H30652  10.187   1.623   4.428  0.1449  0.0303 -0.1148
  990MOL0     H30653  10.193   1.435   4.440  3.1546 -1.2473  1.0522
  990MOL0     H30654  10.446   1.464   4.431  2.9450  0.8846  3.5524
  990MOL0     H30655  10.378   1.549   4.572 -4.3812 -1.3429 -0.6400
  990MOL0     H30656  10.374   1.756   4.504  0.6481 -1.5835  2.8865
  990MOL0     H30657  10.419   1.724   4.331  1.0871  3.6615  1.0377
  990MOL0     H30658  10.578   1.657   4.568  3.6068 -0.5283 -0.4921
  990MOL0     H30659  10.622   1.612   4.413 -0.0071 -1.9738  3.8475
  990MOL0     H30660  10.597   1.901   4.518 -2.6578 -0.5787  0.4296
  990MOL0     H30661  10.635   1.854   4.345 -0.7720 -2.2868 -0.1848
  990MOL0     H30662   9.739   1.745   4.177  1.5762  0.5679  1.2191
  990MOL0     H30663   9.529   1.763   4.268  2.3517  1.4015 -1.5469
  990MOL0     H30664   9.346   1.431   4.601 -0.4787  0.6672 -0.7566
  990MOL0     H30665   9.237   1.361   4.809  1.1229 -0.1588 -1.2225
  990MOL0     H30666   8.269   1.506   5.539  0.0236 -0.8777  1.8491
  990MOL0     H30667   8.384   1.712   5.566  0.7472  0.5741  2.6772
  990MOL0     H30668   9.049   1.886   5.584  0.3285  1.0292 -0.2301
  990MOL0     H30669   9.117   2.118   5.661 -0.3325  3.9307 -0.2725
  990MOL0     H30670   8.908   2.498   5.652 -0.4538 -1.1130  1.4029
  990MOL0     H30671   8.921   2.388   5.528 -2.1155  0.0327  0.8778
  990MOL0     H30672   9.166   2.350   5.583  1.2142 -0.4517 -2.8068
  990MOL0     H30673   9.125   2.502   5.504 -0.6362 -1.5812 -0.1324
  990MOL0     H30674   9.279   2.550   5.669  2.2323 -1.7873  3.8144
  990MOL0     H30675   9.215   2.453   5.790  0.9254 -0.7202 -1.4503
  990MOL0     H30676   9.001   2.619   5.799  0.5205  1.0788  1.0619
  990MOL0     H30677   9.153   2.677   5.867 -2.3250  1.0892  2.1407
  990MOL0     H30678   9.130   2.905   5.518  5.6123  0.4710  1.0592
  990MOL0     H30679   8.698   2.220   5.649 -0.4878 -1.4630  3.7570
  990MOL0     H30680   8.642   2.006   5.589 -0.3933  1.4063 -0.8065
  991MOL0     O30681   7.645   2.418   2.474  0.2197  0.1011  0.2141
  991MOL0     C30682   7.584   2.354   2.562 -0.0449  0.2226  0.1604
  991MOL0     O30683   7.458   2.303   2.542  0.0893 -0.0167  0.0333
  991MOL0     C30684   7.419   2.265   2.419 -0.5906 -0.1345 -0.3736
  991MOL0     C30685   7.396   2.129   2.392 -0.0038 -0.2920 -0.0438
  991MOL0     C30686   7.351   2.095   2.271 -0.3680 -0.9414  1.1666
  991MOL0     C30687   7.311   2.187   2.173  0.7144  0.7376 -0.8191
  991MOL0     O30688   7.262   2.140   2.051 -0.3038 -0.4413 -0.1063
  991MOL0     C30689   7.310   2.217   1.942 -0.1615  0.2567  1.2149
  991MOL0     C30690   7.260   2.168   1.806 -0.0400 -0.7324 -1.0569
  991MOL0     C30691   7.275   2.276   1.693 -0.0383  0.0433  0.1102
  991MOL0     C30692   7.176   2.259   1.582 -0.0386 -0.4371  0.0897
  991MOL0     C30693   7.174   2.387   1.481 -0.2611  0.0457 -1.4146
  991MOL0     C30694   7.039   2.395   1.404 -1.1130  0.0456 -0.4018
  991MOL0     C30695   7.059   2.483   1.291 -0.1214 -0.4262  1.0216
  991MOL0     C30696   6.949   2.467   1.192 -0.4798 -1.0976  1.4045
  991MOL0     N30697   6.944   2.346   1.122 -0.6503 -0.1842 -0.2979
  991MOL0     C30698   6.865   2.240   1.157  0.1758 -0.1646 -1.1812
  991MOL0     C30699   6.887   2.142   1.067  0.5925 -0.2784 -0.8838
  991MOL0     C30700   6.798   2.024   1.037  0.1205 -0.5129  0.4519
  991MOL0     C30701   6.861   1.884   1.036 -1.1784 -0.3057 -1.8093
  991MOL0     C30702   6.918   1.858   1.173  0.1361  0.1643  0.0486
  991MOL0     C30703   6.949   1.705   1.166  0.1508  0.1996 -0.1867
  991MOL0     O30704   6.902   1.635   1.282 -0.0096  0.2715  0.5909
  991MOL0     C30705   6.787   1.560   1.275 -0.5106 -0.6594 -1.2766
  991MOL0     C30706   6.779   1.464   1.377  0.0859 -0.1964 -0.0301
  991MOL0     C30707   6.658   1.400   1.402  0.6275 -0.1136  0.8264
  991MOL0     C30708   6.540   1.444   1.333  0.7158 -0.2425 -0.1782
  991MOL0     C30709   6.402   1.397   1.376  0.4701 -1.0546 -0.1899
  991MOL0     O30710   6.295   1.389   1.297 -0.2875 -0.0408 -0.4843
  991MOL0     C30711   6.166   1.354   1.344 -0.0871  1.2070  0.1149
  991MOL0     C30712   6.103   1.385   1.464  0.8490  0.1393  0.0190
  991MOL0     C30713   5.964   1.347   1.487 -1.3936  0.0736  1.0700
  991MOL0     C30714   5.897   1.268   1.404  0.1810  0.4332 -0.0739
  991MOL0     O30715   5.764   1.248   1.440 -0.3648 -0.5284 -0.7531
  991MOL0     C30716   5.713   1.122   1.413  0.5619  0.2159  0.4965
  991MOL0     C30717   5.564   1.111   1.460 -0.3098  0.3159 -0.1983
  991MOL0     C30718   5.534   1.102   1.598 -0.2347 -0.0466 -0.0852
  991MOL0     C30719   5.524   0.963   1.660  0.2952  0.3654  0.3144
  991MOL0     C30720   5.653   0.903   1.693 -0.4362 -0.7061  0.3367
  991MOL0     C30721   5.638   0.775   1.774 -0.0008 -0.0513  0.6647
  991MOL0     C30722   5.769   0.701   1.799  0.5379 -0.2820  0.8182
  991MOL0     C30723   5.831   0.641   1.675 -0.0930 -0.6484 -0.9779
  991MOL0    Cl30724   5.720   0.503   1.606  0.0335  0.6549 -0.2291
  991MOL0     C30725   5.969   1.220   1.293  0.0831  0.0102 -0.6018
  991MOL0     C30726   6.098   1.266   1.260  0.4374  0.5667  0.4399
  991MOL0     O30727   6.404   1.350   1.489  0.0374  0.2529  0.5905
  991MOL0     C30728   6.548   1.534   1.228  0.4467  0.2838  0.3260
  991MOL0     C30729   6.674   1.590   1.204  0.4637  0.6378  0.1874
  991MOL0     N30730   6.987   2.190   0.985 -0.0639  0.8741 -0.5963
  991MOL0     N30731   7.017   2.305   1.016 -0.6763 -0.0682 -0.6338
  991MOL0     C30732   7.334   2.325   2.201 -0.2649 -0.3222 -0.6334
  991MOL0     C30733   7.377   2.358   2.331  0.4259 -0.2291 -1.2055
  991MOL0     C30734   7.643   2.328   2.688 -0.9144 -0.1663  0.6369
  991MOL0     C30735   7.783   2.339   2.700  1.0200 -0.0104  0.5127
  991MOL0     C30736   7.846   2.286   2.816  0.0055  0.3077  0.0824
  991MOL0     C30737   7.775   2.235   2.923  0.0421 -0.2355 -0.3284
  991MOL0     O30738   7.861   2.194   3.029  0.2232 -0.5219  0.3412
  991MOL0     C30739   7.781   2.150   3.139 -0.8238 -0.6366  0.4073
  991MOL0     C30740   7.859   2.129   3.272 -0.8263 -0.2473  1.3634
  991MOL0     C30741   7.760   2.108   3.395  0.8425  0.9959 -0.5212
  991MOL0     C30742   7.822   2.056   3.512 -0.4198  0.3882 -0.3160
  991MOL0     C30743   7.876   1.921   3.493 -1.2645 -0.9118  0.2000
  991MOL0     C30744   7.929   1.814   3.496  0.1780  0.3954 -0.0779
  991MOL0     C30745   7.636   2.223   2.907 -0.6237  0.0167 -0.0837
  991MOL0     C30746   7.569   2.273   2.789  0.2749  0.1423  0.1378
  991MOL0     H30747   7.411   2.050   2.465 -0.8267 -1.2713 -0.9103
  991MOL0     H30748   7.338   1.991   2.243 -1.4704 -0.4386 -0.3213
  991MOL0     H30749   7.418   2.225   1.935 -0.1964 -0.3954 -2.3975
  991MOL0     H30750   7.262   2.315   1.954 -1.7088 -0.3805  0.6281
  991MOL0     H30751   7.155   2.152   1.833  0.2509 -3.9933 -1.4055
  991MOL0     H30752   7.310   2.075   1.775  2.3201  0.9244 -2.5429
  991MOL0     H30753   7.375   2.258   1.653 -1.4629 -3.4846 -2.4484
  991MOL0     H30754   7.265   2.378   1.731  0.9537  0.9094 -1.8205
  991MOL0     H30755   7.215   2.178   1.520 -0.3046 -1.5341  1.3115
  991MOL0     H30756   7.076   2.243   1.623  0.0787  0.8814  0.9653
  991MOL0     H30757   7.261   2.371   1.416  0.8310 -1.0450  0.2281
  991MOL0     H30758   7.197   2.467   1.553 -0.4265  0.3145 -1.6582
  991MOL0     H30759   6.960   2.439   1.465 -2.6986  0.5997 -2.7550
  991MOL0     H30760   7.015   2.291   1.382 -0.8070 -0.4462  1.4068
  991MOL0     H30761   7.050   2.588   1.320 -0.5419  0.1207 -0.9498
  991MOL0     H30762   7.161   2.478   1.250  0.3028 -1.0558  2.1161
  991MOL0     H30763   6.955   2.550   1.122  3.5821 -3.5093 -1.5217
  991MOL0     H30764   6.865   2.474   1.262  1.0102 -5.5167  4.1249
  991MOL0     H30765   6.793   2.250   1.238  2.6893  0.7878  1.0869
  991MOL0     H30766   6.752   2.048   0.941  3.9601  1.1244 -1.1959
  991MOL0     H30767   6.718   2.033   1.111 -0.6709 -1.3512 -0.2784
  991MOL0     H30768   6.946   1.903   0.969 -1.3469 -1.9314 -2.5401
  991MOL0     H30769   6.793   1.805   1.001  0.9376 -3.1361  0.0031
  991MOL0     H30770   7.003   1.925   1.189 -0.6151  1.1699 -0.0619
  991MOL0     H30771   6.836   1.878   1.242  0.1221 -0.8835  0.3549
  991MOL0     H30772   7.056   1.702   1.144  0.0835  3.0993 -1.3174
  991MOL0     H30773   6.896   1.648   1.089  3.8312  0.2661 -3.0184
  991MOL0     H30774   6.866   1.441   1.439  1.0030  3.9832  0.5713
  991MOL0     H30775   6.650   1.310   1.462  3.3741 -1.1421 -0.1927
  991MOL0     H30776   6.160   1.449   1.531 -0.2517  1.2179 -0.0311
  991MOL0     H30777   5.917   1.377   1.580  0.8953  2.5256  1.5974
  991MOL0     H30778   5.783   1.048   1.453  1.8309  0.0875 -1.7781
  991MOL0     H30779   5.713   1.097   1.306  1.6501  1.2991  0.2210
  991MOL0     H30780   5.514   1.028   1.410 -2.3248  2.8015 -2.6258
  991MOL0     H30781   5.510   1.197   1.420  0.1521  1.5617  1.7297
  991MOL0     H30782   5.451   1.171   1.615  2.5271  3.4876  0.1696
  991MOL0     H30783   5.612   1.154   1.655  0.6411 -0.6033 -0.7472
  991MOL0     H30784   5.473   0.984   1.754  2.9776 -1.5792  2.3572
  991MOL0     H30785   5.456   0.901   1.602  2.5313  2.3147 -5.0578
  991MOL0     H30786   5.728   0.967   1.740 -0.4825 -0.0375 -0.4674
  991MOL0     H30787   5.703   0.878   1.599  2.2317  2.1665  0.8037
  991MOL0     H30788   5.568   0.703   1.731  1.2432 -0.4873 -0.7048
  991MOL0     H30789   5.603   0.814   1.870  0.5015 -1.2015  1.3399
  991MOL0     H30790   5.840   0.769   1.847  0.3366 -0.8021  1.8800
  991MOL0     H30791   5.762   0.620   1.872  0.2919 -0.9870  0.0178
  991MOL0     H30792   5.921   0.589   1.706 -0.1577 -1.5560 -2.2233
  991MOL0     H30793   5.854   0.720   1.602 -0.4578  0.6992  0.3120
  991MOL0     H30794   5.910   1.155   1.230 -0.0099 -0.3184 -0.1817
  991MOL0     H30795   6.140   1.227   1.168 -1.6091 -0.8166  0.0341
  991MOL0     H30796   6.466   1.565   1.164  0.6850 -0.6132 -0.4402
  991MOL0     H30797   6.662   1.671   1.132  0.9925  0.6869  0.1511
  991MOL0     H30798   7.343   2.411   2.135 -0.6897  1.1215  1.1234
  991MOL0     H30799   7.380   2.464   2.358  2.9778  0.5978 -4.2185
  991MOL0     H30800   7.854   2.365   2.623  2.2401  0.9119  1.8839
  991MOL0     H30801   7.953   2.296   2.828 -0.3311  0.9344  3.6341
  991MOL0     H30802   7.748   2.051   3.106 -1.8198 -0.0779 -0.3319
  991MOL0     H30803   7.706   2.227   3.158 -0.7977 -0.5311  0.0934
  991MOL0     H30804   7.934   2.050   3.268  0.6241  1.1193 -2.0086
  991MOL0     H30805   7.921   2.218   3.284 -1.3177  0.0853  1.4665
  991MOL0     H30806   7.683   2.040   3.359  1.4872  0.2287 -0.4741
  991MOL0     H30807   7.712   2.202   3.423  1.5792  1.1052  0.4045
  991MOL0     H30808   7.905   2.125   3.531  0.3995  0.2330 -2.8965
  991MOL0     H30809   7.751   2.051   3.595  0.4227 -2.3114  0.3368
  991MOL0     H30810   7.996   1.730   3.503  2.5448  2.0713 -1.4122
  991MOL0     H30811   7.576   2.175   2.984  0.5593 -0.3832  0.6138
  991MOL0     H30812   7.462   2.258   2.776  0.6176 -3.2754  0.1965
  992MOL0     O30813  10.489   0.317   1.240 -0.2274  0.0406 -0.0601
  992MOL0     C30814  10.437   0.355   1.344  0.4081  0.6205 -1.2388
  992MOL0     O30815  10.316   0.409   1.366  0.5224  0.2603 -0.0762
  992MOL0     C30816  10.219   0.392   1.269  0.4765  0.2587 -0.2046
  992MOL0     C30817  10.215   0.304   1.158 -0.1345 -0.0428 -0.3756
  992MOL0     C30818  10.112   0.293   1.078  0.3138 -0.0187 -0.0473
  992MOL0     C30819  10.009   0.380   1.086 -0.2072 -0.2213 -0.4896
  992MOL0     O30820   9.890   0.377   1.018 -0.4441 -0.4301  1.1222
  992MOL0     C30821   9.860   0.272   0.914 -0.5670 -0.0727  0.3869
  992MOL0     C30822   9.830   0.123   0.963 -0.8901 -0.6818 -0.0236
  992MOL0     C30823   9.724   0.111   1.068  0.8755  0.2723 -0.3710
  992MOL0     C30824   9.611   0.211   1.055 -0.1781 -0.3220 -0.7851
  992MOL0     C30825   9.492   0.176   1.152  0.5821  0.2603  0.0016
  992MOL0     C30826   9.367   0.273   1.147  0.5789  0.4330 -1.4504
  992MOL0     C30827   9.261   0.221   1.250 -0.2818  0.2213  1.4338
  992MOL0     C30828   9.310   0.249   1.394 -0.8320 -0.0102 -0.6197
  992MOL0     N30829   9.276   0.387   1.426 -0.5411  0.3039 -0.7611
  992MOL0     C30830   9.354   0.459   1.513 -0.1600 -1.0332  0.1328
  992MOL0     C30831   9.266   0.544   1.572  0.4560 -0.4732 -0.0118
  992MOL0     C30832   9.309   0.642   1.690  0.2405 -0.2830 -0.4915
  992MOL0     C30833   9.277   0.799   1.681 -0.2476  0.3503  0.6805
  992MOL0     C30834   9.253   0.856   1.821  0.8370 -0.4793  0.2653
  992MOL0     C30835   9.362   0.819   1.926  0.4341 -0.7232 -0.0127
  992MOL0     O30836   9.496   0.821   1.871  0.9367 -0.0462  0.4597
  992MOL0     C30837   9.603   0.845   1.951 -0.4971 -0.0039  0.6302
  992MOL0     C30838   9.607   0.788   2.079 -0.2449  0.7907 -0.0153
  992MOL0     C30839   9.714   0.819   2.164 -0.8144 -0.2988  0.1749
  992MOL0     C30840   9.831   0.888   2.125  0.4722  0.4328 -0.0022
  992MOL0     C30841   9.946   0.924   2.209  0.2455 -0.0234 -0.5320
  992MOL0     O30842  10.070   0.900   2.161 -0.2563 -0.0071  0.3484
  992MOL0     C30843  10.176   0.931   2.244 -0.3133 -0.8063  0.5711
  992MOL0     C30844  10.187   1.063   2.294  0.2235  0.2890 -0.0157
  992MOL0     C30845  10.296   1.090   2.376  0.4279 -0.3982 -0.6862
  992MOL0     C30846  10.395   0.993   2.408 -1.5938 -0.0197 -0.2871
  992MOL0     O30847  10.507   1.020   2.484  0.3692  0.4283 -0.6155
  992MOL0     C30848  10.612   1.058   2.386 -0.1786 -0.3700 -0.0215
  992MOL0     C30849  10.752   1.059   2.453 -0.0560 -0.0112 -0.6114
  992MOL0     C30850  10.872   1.091   2.357  1.3054  0.2069 -0.7430
  992MOL0     C30851  11.001   1.084   2.428  0.2197  0.1190 -0.0699
  992MOL0     C30852  11.113   1.097   2.331 -0.0181 -0.1510 -0.1656
  992MOL0     C30853  11.246   1.109   2.414  0.3328  0.1013 -0.1385
  992MOL0     C30854  11.281   0.987   2.503 -0.3629  1.0164 -0.6425
  992MOL0     C30855  11.435   0.990   2.544  1.0101 -0.1673 -0.1374
  992MOL0    Cl30856  11.458   0.879   2.684 -0.3531  0.3217 -0.4938
  992MOL0     C30857  10.380   0.867   2.363 -0.1932  0.1867  0.3234
  992MOL0     C30858  10.269   0.833   2.281 -0.2961  0.6728 -0.6789
  992MOL0     O30859   9.912   0.943   2.327 -0.5562 -0.3885  0.5211
  992MOL0     C30860   9.827   0.931   1.992 -0.7435 -0.3545 -0.0617
  992MOL0     C30861   9.715   0.910   1.910  0.1556 -1.1184  0.1039
  992MOL0     N30862   9.144   0.518   1.526  0.4695  0.1949 -0.0733
  992MOL0     N30863   9.146   0.422   1.442  0.2569  0.3733  0.2733
  992MOL0     C30864  10.017   0.487   1.177 -0.3027  0.3865 -0.5341
  992MOL0     C30865  10.114   0.486   1.276 -0.5747 -0.1589 -0.5439
  992MOL0     C30866  10.538   0.358   1.455  0.0784  0.6234  0.4275
  992MOL0     C30867  10.482   0.372   1.576 -0.1656  0.6810  0.2802
  992MOL0     C30868  10.564   0.410   1.687 -0.1380  0.0936 -0.0965
  992MOL0     C30869  10.702   0.383   1.684  0.1947 -0.5956  0.7247
  992MOL0     O30870  10.777   0.393   1.800  0.2217 -0.3061  0.0485
  992MOL0     C30871  10.907   0.336   1.797 -1.1139  0.5787 -1.0635
  992MOL0     C30872  10.989   0.367   1.926 -0.1183  0.0067 -0.8214
  992MOL0     C30873  11.106   0.270   1.940 -0.5688  0.3637  0.0656
  992MOL0     C30874  11.201   0.301   2.049 -0.8170  0.7862 -0.4933
  992MOL0     C30875  11.129   0.288   2.178 -1.5439  0.0943 -0.0796
  992MOL0     C30876  11.081   0.282   2.292  0.3021  0.1672 -0.0371
  992MOL0     C30877  10.755   0.340   1.557  0.0296 -1.3341  0.6914
  992MOL0     C30878  10.674   0.345   1.443 -0.0986  0.0782  1.1388
  992MOL0     H30879  10.286   0.221   1.156 -1.3750 -1.1516  0.2721
  992MOL0     H30880  10.117   0.215   1.002  0.3664  0.2340 -0.3044
  992MOL0     H30881   9.941   0.267   0.841 -1.7636  0.9856 -1.0952
  992MOL0     H30882   9.772   0.312   0.861 -0.6540 -0.1005  0.5099
  992MOL0     H30883   9.928   0.087   0.993  0.9744  2.5552 -1.5662
  992MOL0     H30884   9.806   0.062   0.875  0.1350 -1.5756  0.2997
  992MOL0     H30885   9.774   0.115   1.165  0.8547  0.9310 -0.3827
  992MOL0     H30886   9.675   0.014   1.063  2.3408 -0.6738  2.0222
  992MOL0     H30887   9.631   0.315   1.084  0.7111 -1.1019  1.6662
  992MOL0     H30888   9.573   0.199   0.954 -0.7909  0.6779 -0.6878
  992MOL0     H30889   9.528   0.178   1.256 -1.3922  1.4851  0.7166
  992MOL0     H30890   9.463   0.073   1.132 -0.3757  0.0212  2.3408
  992MOL0     H30891   9.319   0.244   1.053 -2.5412  1.6421 -0.3600
  992MOL0     H30892   9.386   0.381   1.150  0.3904  0.4428  0.8388
  992MOL0     H30893   9.162   0.261   1.229 -0.5569 -0.5506  1.2220
  992MOL0     H30894   9.254   0.113   1.232  3.3352 -0.1206  1.2232
  992MOL0     H30895   9.418   0.260   1.406 -0.9850  1.3444 -0.3205
  992MOL0     H30896   9.270   0.179   1.469 -0.9194  2.2635  1.5766
  992MOL0     H30897   9.462   0.460   1.529 -0.6150  0.5822  4.3848
  992MOL0     H30898   9.418   0.647   1.705  0.0939 -0.4400  0.7085
  992MOL0     H30899   9.263   0.610   1.784  1.8675 -0.8819  0.1470
  992MOL0     H30900   9.194   0.808   1.611  0.0822 -0.2925  0.1973
  992MOL0     H30901   9.366   0.851   1.644 -0.0236 -0.8668 -0.5715
  992MOL0     H30902   9.250   0.966   1.819 -0.9794 -0.5117 -0.7763
  992MOL0     H30903   9.154   0.824   1.853  1.6105 -3.3589  0.0693
  992MOL0     H30904   9.354   0.715   1.959 -0.1810 -0.6061  0.2295
  992MOL0     H30905   9.361   0.885   2.013 -0.7534  1.5368 -1.6097
  992MOL0     H30906   9.519   0.736   2.114 -2.4580  3.5262 -1.1715
  992MOL0     H30907   9.707   0.786   2.267  0.7123 -1.4548 -0.0661
  992MOL0     H30908  10.120   1.139   2.256  0.1245 -0.5218 -1.5524
  992MOL0     H30909  10.316   1.192   2.408  2.2526 -0.7160 -0.7001
  992MOL0     H30910  10.597   1.152   2.332 -0.5367 -0.6045 -0.3428
  992MOL0     H30911  10.624   0.978   2.312 -0.1694 -0.5996  0.2301
  992MOL0     H30912  10.772   0.963   2.501 -0.5019  0.4814  0.5887
  992MOL0     H30913  10.755   1.139   2.527 -2.1376  0.3320 -0.8309
  992MOL0     H30914  10.845   1.189   2.319 -4.5158 -0.5483  0.4673
  992MOL0     H30915  10.876   1.025   2.270  4.6202  0.1495 -0.6423
  992MOL0     H30916  11.022   1.165   2.499  0.2287 -0.6686  0.8467
  992MOL0     H30917  11.023   0.992   2.483  2.1833  1.6649  1.9185
  992MOL0     H30918  11.097   1.183   2.266  1.4846  1.3508  1.3556
  992MOL0     H30919  11.108   1.006   2.271  2.7933 -0.2742 -0.3602
  992MOL0     H30920  11.220   1.193   2.479 -2.8478 -1.4057  0.7674
  992MOL0     H30921  11.319   1.123   2.334  1.9389 -2.6989  0.6931
  992MOL0     H30922  11.234   0.991   2.601 -1.5675 -2.2021 -0.9666
  992MOL0     H30923  11.253   0.889   2.462  1.3255 -1.8452  4.2679
  992MOL0     H30924  11.467   1.085   2.586  1.1372  1.2479 -3.1552
  992MOL0     H30925  11.514   0.959   2.475  3.6384 -0.7332  2.8999
  992MOL0     H30926  10.454   0.794   2.395 -0.6348 -0.1052  0.6914
  992MOL0     H30927  10.256   0.731   2.248 -0.6268 -0.0920  1.6225
  992MOL0     H30928   9.921   0.968   1.954  1.0121 -2.8728  1.5510
  992MOL0     H30929   9.716   0.941   1.806 -3.6959 -0.9149 -0.0022
  992MOL0     H30930   9.942   0.565   1.186 -2.4829 -1.5497 -0.8510
  992MOL0     H30931  10.124   0.553   1.360  2.3907 -0.9815 -0.1087
  992MOL0     H30932  10.375   0.385   1.580 -0.2180  0.6463 -0.8521
  992MOL0     H30933  10.511   0.428   1.780 -1.0064 -0.8765 -0.3809
  992MOL0     H30934  10.971   0.371   1.716 -1.0475 -3.4501 -2.9971
  992MOL0     H30935  10.907   0.228   1.779 -0.3319  0.6833 -1.7548
  992MOL0     H30936  11.031   0.467   1.923  1.1477 -0.4465  0.5844
  992MOL0     H30937  10.926   0.353   2.014 -0.3428 -1.4314 -1.1740
  992MOL0     H30938  11.159   0.284   1.846  0.5814 -0.6690  0.5310
  992MOL0     H30939  11.064   0.170   1.953 -2.8015  1.0009 -1.6045
  992MOL0     H30940  11.287   0.235   2.037 -1.0973  0.5427 -1.2232
  992MOL0     H30941  11.233   0.405   2.044 -0.1161  0.5085 -3.4450
  992MOL0     H30942  11.033   0.272   2.387  1.4185  3.1164  0.9520
  992MOL0     H30943  10.857   0.306   1.547 -0.0133 -1.8729  1.9748
  992MOL0     H30944  10.722   0.313   1.352  0.4496 -0.5229  1.6316
  993MOL0     O30945  10.460   0.861   9.490 -0.1487 -0.1691 -0.2204
  993MOL0     C30946  10.460   0.943   9.402  0.7160  0.2040 -0.5946
  993MOL0     O30947  10.483   1.081   9.412  0.2675 -0.3192 -0.5229
  993MOL0     C30948  10.493   1.145   9.535  0.1377  0.3290 -0.4027
  993MOL0     C30949  10.407   1.114   9.644 -0.6647  0.9107 -0.0740
  993MOL0     C30950  10.425   1.192   9.769  0.6173 -0.9595  0.9055
  993MOL0     C30951  10.529   1.275   9.794  0.7253 -0.9567 -0.4023
  993MOL0     O30952  10.555   1.331   9.916 -0.1305 -0.1474 -0.2886
  993MOL0     C30953  10.512   1.269  10.032 -0.1347  0.9696  0.2002
  993MOL0     C30954  10.540   1.365  10.144  0.4891  0.3700 -0.7754
  993MOL0     C30955  10.523   1.280  10.272 -0.4867  0.2171  0.3436
  993MOL0     C30956  10.506   1.342  10.411  0.8352 -0.4591  0.2799
  993MOL0     C30957  10.624   1.408  10.481 -0.2041  0.4478 -0.1615
  993MOL0     C30958  10.744   1.328  10.477 -0.9035 -0.2721  0.1383
  993MOL0     C30959  10.866   1.400  10.547  1.0733  0.6796 -0.8959
  993MOL0     C30960  10.962   1.285  10.597  0.4387 -0.1636 -0.4349
  993MOL0     N30961  10.987   1.167  10.518 -0.5603 -1.3054  0.5214
  993MOL0     C30962  10.938   1.046  10.548 -0.0364  0.5473  0.1893
  993MOL0     C30963  10.970   0.961  10.448  0.4605 -0.2869  0.2944
  993MOL0     C30964  10.933   0.810  10.437  0.4819 -0.7175 -0.8585
  993MOL0     C30965  11.002   0.710  10.524  0.3476 -0.0462  0.2060
  993MOL0     C30966  11.091   0.607  10.455 -0.5681  0.4432 -0.8337
  993MOL0     C30967  11.026   0.516  10.353 -0.5526 -0.3814  0.7789
  993MOL0     O30968  10.931   0.424  10.421  0.4806  0.8458  0.7464
  993MOL0     C30969  10.799   0.429  10.387  0.3249 -0.2365 -1.1461
  993MOL0     C30970  10.703   0.416  10.495  0.4259  0.1154  0.1810
  993MOL0     C30971  10.564   0.417  10.459 -0.1357 -0.5872  0.5040
  993MOL0     C30972  10.529   0.423  10.322 -0.1985 -0.1380 -0.0872
  993MOL0     C30973  10.388   0.422  10.288  0.3224  0.4469  0.7317
  993MOL0     O30974  10.366   0.397  10.157  0.6926  0.0665  0.2857
  993MOL0     C30975  10.241   0.375  10.103 -0.9883 -0.8307 -1.0744
  993MOL0     C30976  10.222   0.258  10.039 -0.4818 -0.0356 -0.5273
  993MOL0     C30977  10.098   0.233   9.978  0.4512 -0.0902 -0.5252
  993MOL0     C30978   9.995   0.325   9.987 -0.4149 -0.5549  0.1847
  993MOL0     O30979   9.875   0.298   9.929  0.1082 -1.1262  0.0989
  993MOL0     C30980   9.852   0.364   9.797 -0.7114  0.2717 -0.5523
  993MOL0     C30981   9.726   0.296   9.731  0.2950 -0.5308 -0.8736
  993MOL0     C30982   9.589   0.371   9.758  0.3396 -0.2477  0.5211
  993MOL0     C30983   9.466   0.288   9.717  0.5900  0.8216  0.2069
  993MOL0     C30984   9.336   0.368   9.750  0.2324  0.0253 -0.2799
  993MOL0     C30985   9.309   0.506   9.684  0.0292 -0.2939 -0.4594
  993MOL0     C30986   9.165   0.553   9.711  1.5314 -0.0998  0.0968
  993MOL0     C30987   9.152   0.670   9.815 -0.1750 -0.4633  0.1623
  993MOL0    Cl30988   8.991   0.761   9.770  0.1729  0.0692  0.1692
  993MOL0     C30989  10.015   0.450  10.048 -1.1644 -0.2900  0.2124
  993MOL0     C30990  10.142   0.473  10.107  0.4385 -0.0774 -0.4850
  993MOL0     O30991  10.305   0.446  10.375 -0.1827  0.3319  0.9255
  993MOL0     C30992  10.632   0.440  10.225  0.8558  0.7652 -0.0268
  993MOL0     C30993  10.760   0.449  10.257 -0.3007  0.0614 -0.0379
  993MOL0     N30994  11.043   1.031  10.351  0.0450  0.4541 -0.7698
  993MOL0     N30995  11.051   1.158  10.389  0.0001  0.2214 -0.8414
  993MOL0     C30996  10.610   1.310   9.682 -0.3379 -0.3456  0.8710
  993MOL0     C30997  10.595   1.243   9.547  0.0164 -0.4759 -0.6632
  993MOL0     C30998  10.474   0.893   9.258  0.4798  0.0424 -0.0847
  993MOL0     C30999  10.506   0.765   9.227 -0.6323  0.4127  0.2933
  993MOL0     C31000  10.537   0.733   9.093 -0.1404 -0.0203  0.2273
  993MOL0     C31001  10.518   0.824   8.984  0.6738 -0.3195 -0.8369
  993MOL0     O31002  10.562   0.791   8.859 -0.2663 -0.3320  0.4330
  993MOL0     C31003  10.553   0.652   8.821 -0.1016 -0.4208 -0.7846
  993MOL0     C31004  10.695   0.593   8.839  0.1368 -0.2035 -0.6296
  993MOL0     C31005  10.716   0.439   8.825 -0.5236 -0.4858 -0.2961
  993MOL0     C31006  10.737   0.395   8.682 -0.0199  0.4296 -0.4802
  993MOL0     C31007  10.618   0.416   8.601  0.2830 -0.1357  0.6903
  993MOL0     C31008  10.519   0.422   8.542  1.0975 -0.4556  1.3329
  993MOL0     C31009  10.483   0.958   9.022 -0.1539 -0.8941 -0.0155
  993MOL0     C31010  10.467   0.990   9.154  0.1753  0.2491 -0.3494
  993MOL0     H31011  10.331   1.038   9.631  0.2667  0.0940 -0.8621
  993MOL0     H31012  10.358   1.176   9.853 -0.1709  0.2192  0.5284
  993MOL0     H31013  10.554   1.168  10.038 -3.5602 -0.5587  2.4012
  993MOL0     H31014  10.406   1.242  10.019  0.9142 -2.5172 -2.7614
  993MOL0     H31015  10.475   1.453  10.143  2.4932  1.9915  1.6901
  993MOL0     H31016  10.639   1.413  10.138  0.4231  0.5860 -0.1573
  993MOL0     H31017  10.609   1.212  10.268 -0.5006  0.1649  0.8477
  993MOL0     H31018  10.426   1.230  10.264 -0.7758  0.7532  0.4362
  993MOL0     H31019  10.430   1.421  10.404 -0.2008 -1.5137 -1.0231
  993MOL0     H31020  10.471   1.260  10.474  0.5724 -2.5779 -2.4655
  993MOL0     H31021  10.587   1.441  10.578  0.6650  1.9050 -0.3062
  993MOL0     H31022  10.641   1.493  10.414 -0.2607 -0.7832 -1.8150
  993MOL0     H31023  10.769   1.320  10.371  0.1744  1.8871  0.1664
  993MOL0     H31024  10.725   1.225  10.507 -0.1781 -0.3291  0.4363
  993MOL0     H31025  10.918   1.468  10.478 -0.9002  0.3911 -2.7822
  993MOL0     H31026  10.841   1.464  10.632  1.5069  1.1362 -1.1074
  993MOL0     H31027  10.928   1.257  10.697  2.1581  1.2307  0.6261
  993MOL0     H31028  11.055   1.340  10.614  1.0983 -1.2614 -0.4010
  993MOL0     H31029  10.873   1.024  10.633 -0.2104  1.7764  0.3999
  993MOL0     H31030  10.930   0.770  10.335  0.7968 -0.0323 -1.1440
  993MOL0     H31031  10.826   0.812  10.457  0.5474 -0.2263 -0.5249
  993MOL0     H31032  10.922   0.663  10.581 -2.4591 -0.6203 -3.7852
  993MOL0     H31033  11.063   0.769  10.594  0.7964  0.7494 -0.8285
  993MOL0     H31034  11.179   0.660  10.417  2.4379 -1.7851  2.4029
  993MOL0     H31035  11.135   0.551  10.538  0.5359  1.5919 -0.6252
  993MOL0     H31036  11.112   0.460  10.313  0.8411  0.1519  2.8375
  993MOL0     H31037  10.977   0.570  10.273  1.8163  1.9034  0.7431
  993MOL0     H31038  10.733   0.409  10.599  3.9023  0.3780 -0.6871
  993MOL0     H31039  10.484   0.392  10.528 -0.0606  2.1366  1.7054
  993MOL0     H31040  10.307   0.192  10.031  2.0214  2.9056 -0.2297
  993MOL0     H31041  10.070   0.144   9.923 -1.9019  0.2728  0.0112
  993MOL0     H31042   9.940   0.354   9.733  1.6972 -3.2889  2.8338
  993MOL0     H31043   9.831   0.470   9.813 -1.7037  0.7618 -4.3115
  993MOL0     H31044   9.708   0.193   9.763 -4.3030  0.7180  1.3968
  993MOL0     H31045   9.739   0.288   9.623 -0.8554  0.8439 -1.1319
  993MOL0     H31046   9.594   0.460   9.695 -0.0661 -0.9696 -0.5661
  993MOL0     H31047   9.571   0.394   9.863  0.8300 -3.1688  1.3379
  993MOL0     H31048   9.466   0.252   9.613  2.7449  0.9338  0.1161
  993MOL0     H31049   9.463   0.198   9.779  0.3669  2.0969  2.1121
  993MOL0     H31050   9.327   0.378   9.858  0.5394  1.1791 -0.3515
  993MOL0     H31051   9.259   0.295   9.722 -0.7996  0.6775  0.7734
  993MOL0     H31052   9.335   0.501   9.577  0.9113 -0.7422 -0.2375
  993MOL0     H31053   9.368   0.578   9.741 -0.0910 -0.1533 -0.5130
  993MOL0     H31054   9.128   0.597   9.617  0.8216 -1.0040 -0.0575
  993MOL0     H31055   9.111   0.466   9.748  1.0347  0.9381  1.9610
  993MOL0     H31056   9.228   0.736   9.773 -1.0964  0.2936 -0.3364
  993MOL0     H31057   9.180   0.649   9.919  0.7427  0.8680  0.2017
  993MOL0     H31058   9.937   0.525  10.060  0.3861  1.2679  1.1143
  993MOL0     H31059  10.151   0.573  10.150 -2.1736  0.2216 -0.4904
  993MOL0     H31060  10.607   0.440  10.120  2.5884  0.9436 -0.4630
  993MOL0     H31061  10.842   0.466  10.188 -0.4593  3.0279  0.3997
  993MOL0     H31062  10.685   1.384   9.707 -0.0911 -0.8382  1.6194
  993MOL0     H31063  10.658   1.265   9.462 -0.4640  2.9535 -0.2904
  993MOL0     H31064  10.530   0.688   9.300  2.6535  0.7352 -0.2865
  993MOL0     H31065  10.571   0.635   9.062 -1.0981  0.4238 -2.5207
  993MOL0     H31066  10.511   0.642   8.721  2.2694  1.3750 -2.0523
  993MOL0     H31067  10.481   0.603   8.887  1.2895  0.5580  1.5957
  993MOL0     H31068  10.755   0.638   8.760  0.9508 -1.0292 -0.4913
  993MOL0     H31069  10.746   0.615   8.933  2.8156 -4.1638 -0.9427
  993MOL0     H31070  10.624   0.405   8.874 -0.0211 -0.2133  0.8521
  993MOL0     H31071  10.800   0.409   8.887 -0.6851  0.8611  0.6151
  993MOL0     H31072  10.822   0.456   8.651 -0.1871  1.3688  0.7898
  993MOL0     H31073  10.777   0.294   8.678 -1.4745 -0.2904  1.3155
  993MOL0     H31074  10.427   0.436   8.490  1.2750 -0.0012  1.1355
  993MOL0     H31075  10.474   1.041   8.953 -3.9586 -1.8947 -0.9830
  993MOL0     H31076  10.442   1.090   9.186 -0.1485  0.3034 -0.7733
  994MOL0     O31077   1.224   4.746   2.485  0.3893  0.8313  0.6639
  994MOL0     C31078   1.174   4.815   2.395  0.4757  0.4165  0.1628
  994MOL0     O31079   1.060   4.887   2.414 -0.9960 -0.3578  0.2515
  994MOL0     C31080   1.019   4.911   2.546  1.0447  0.1444  0.6534
  994MOL0     C31081   1.063   5.024   2.622  0.5148 -0.2768 -1.2914
  994MOL0     C31082   1.003   5.051   2.743  0.3664  0.1627 -0.0460
  994MOL0     C31083   0.925   4.945   2.814  0.2938 -0.8155 -0.1260
  994MOL0     O31084   0.873   4.964   2.941  0.4685 -0.0932  0.5264
  994MOL0     C31085   0.856   5.099   2.998 -0.0966  0.0551 -0.6348
  994MOL0     C31086   0.712   5.089   3.068 -1.1884  0.5043  0.9509
  994MOL0     C31087   0.713   5.159   3.201 -0.1639  0.1494 -0.7233
  994MOL0     C31088   0.577   5.167   3.267 -0.8390  0.8046 -0.0294
  994MOL0     C31089   0.572   5.223   3.399  0.5537 -0.0642  1.2135
  994MOL0     C31090   0.584   5.374   3.394 -0.3331  0.2109  0.3743
  994MOL0     C31091   0.524   5.443   3.520 -1.1686 -0.3795 -1.3088
  994MOL0     C31092   0.380   5.490   3.508  0.2103  0.1116 -1.1758
  994MOL0     N31093   0.333   5.599   3.597 -0.5060 -0.7521 -0.4424
  994MOL0     C31094   0.223   5.592   3.683 -0.1178  0.2496 -0.7947
  994MOL0     C31095   0.199   5.724   3.720  0.4664  0.6160 -0.5229
  994MOL0     C31096   0.088   5.778   3.799 -0.2889  0.9801  0.3797
  994MOL0     C31097   0.108   5.800   3.951 -0.3742 -0.0019 -0.2103
  994MOL0     C31098   0.230   5.903   3.984 -0.6861  0.0356 -0.6284
  994MOL0     C31099   0.377   5.852   3.981  0.6165  0.7995 -0.0970
  994MOL0     O31100   0.459   5.965   4.019 -0.4714  0.1745  0.6492
  994MOL0     C31101   0.502   6.042   3.919 -0.8527 -0.9115 -0.6455
  994MOL0     C31102   0.557   6.165   3.960 -0.2979  0.1587  0.2248
  994MOL0     C31103   0.598   6.265   3.871  0.6941 -0.0044 -0.5651
  994MOL0     C31104   0.582   6.253   3.741 -0.2736  0.0709  0.3150
  994MOL0     C31105   0.637   6.363   3.652 -0.2299 -0.7215 -0.1561
  994MOL0     O31106   0.738   6.445   3.688 -0.3862 -0.0113  1.3297
  994MOL0     C31107   0.812   6.522   3.592  0.0864 -0.8974 -0.4915
  994MOL0     C31108   0.873   6.637   3.645  0.3504  0.5813  0.2518
  994MOL0     C31109   0.950   6.724   3.564 -1.3008  0.5912  0.0956
  994MOL0     C31110   0.958   6.688   3.424  0.4492 -0.8201  1.1890
  994MOL0     O31111   1.031   6.768   3.338  0.0477 -0.2603  0.1006
  994MOL0     C31112   1.158   6.824   3.378  0.2188 -0.1640 -0.8076
  994MOL0     C31113   1.234   6.888   3.255 -1.0680 -0.4480  0.1039
  994MOL0     C31114   1.357   6.981   3.296  0.2929  0.1422 -0.8837
  994MOL0     C31115   1.354   7.125   3.243  0.0005 -0.4607 -0.3716
  994MOL0     C31116   1.492   7.195   3.249 -0.4467  0.1089  0.9482
  994MOL0     C31117   1.501   7.348   3.221  0.7508 -0.3535  0.1443
  994MOL0     C31118   1.630   7.421   3.259 -0.1981 -0.1698  0.4962
  994MOL0     C31119   1.643   7.548   3.187 -0.2423 -0.8052  0.9662
  994MOL0    Cl31120   1.725   7.535   3.026  0.0884  0.3660  0.1409
  994MOL0     C31121   0.888   6.578   3.373 -0.5212 -0.1108  0.7980
  994MOL0     C31122   0.820   6.488   3.454  0.4056  0.4105 -0.3476
  994MOL0     O31123   0.587   6.362   3.542  0.4115 -0.7736 -0.4993
  994MOL0     C31124   0.525   6.136   3.695 -0.8596  0.1929 -0.5092
  994MOL0     C31125   0.478   6.038   3.787  0.8941  1.3938  0.3068
  994MOL0     N31126   0.288   5.800   3.650 -0.1962  0.4658  0.3340
  994MOL0     N31127   0.369   5.729   3.575  0.5371 -0.3602 -0.8378
  994MOL0     C31128   0.894   4.827   2.742  0.4148 -0.0540 -0.1115
  994MOL0     C31129   0.936   4.812   2.612  0.2804 -0.0052  0.1773
  994MOL0     C31130   1.234   4.810   2.269  0.0577  0.3560  1.7213
  994MOL0     C31131   1.194   4.903   2.170 -0.9500  0.7433  0.9298
  994MOL0     C31132   1.252   4.898   2.047 -0.0374  0.3787  0.2079
  994MOL0     C31133   1.364   4.812   2.025  0.0274  0.2762 -0.0211
  994MOL0     O31134   1.423   4.808   1.899 -0.8203  0.3690  0.6112
  994MOL0     C31135   1.414   4.915   1.813 -0.3642 -0.3887  1.0562
  994MOL0     C31136   1.479   4.883   1.671  0.0972 -0.6994  0.3756
  994MOL0     C31137   1.408   4.775   1.590  0.1596  0.4389 -0.2331
  994MOL0     C31138   1.502   4.657   1.563 -0.7029  0.1495  0.1628
  994MOL0     C31139   1.458   4.566   1.459  0.0784  0.5040 -0.5372
  994MOL0     C31140   1.425   4.490   1.374 -0.1234 -0.6080 -0.0505
  994MOL0     C31141   1.398   4.720   2.119 -0.6447 -0.1342 -0.2657
  994MOL0     C31142   1.345   4.726   2.246 -0.1203 -0.6240  1.0938
  994MOL0     H31143   1.138   5.091   2.581  0.9118  2.6364  3.4195
  994MOL0     H31144   1.037   5.148   2.779  0.4987  1.1745 -2.6845
  994MOL0     H31145   0.855   5.174   2.918 -0.9791  1.4488  0.6193
  994MOL0     H31146   0.940   5.127   3.062  1.3884  1.6557 -3.0959
  994MOL0     H31147   0.688   4.982   3.069 -5.2825  1.1236 -2.0685
  994MOL0     H31148   0.638   5.128   2.998  1.1277  1.6373 -1.0023
  994MOL0     H31149   0.754   5.258   3.181  0.2635  1.2426  4.1665
  994MOL0     H31150   0.786   5.121   3.273 -0.0109  1.3351 -0.2183
  994MOL0     H31151   0.526   5.227   3.191 -0.9308 -1.9810 -2.3483
  994MOL0     H31152   0.524   5.071   3.267  0.6061 -0.0946 -2.4359
  994MOL0     H31153   0.655   5.178   3.455 -0.7620 -2.3053  1.4723
  994MOL0     H31154   0.476   5.196   3.443 -2.1384  4.6116 -0.9530
  994MOL0     H31155   0.525   5.422   3.315 -2.1862 -1.6230  0.5454
  994MOL0     H31156   0.688   5.401   3.375  0.7131 -3.1765  0.6338
  994MOL0     H31157   0.540   5.389   3.614 -0.6800  1.8415 -0.0250
  994MOL0     H31158   0.574   5.539   3.535 -1.5716 -0.4772  1.1829
  994MOL0     H31159   0.313   5.403   3.518  2.0549 -1.3402 -0.8970
  994MOL0     H31160   0.363   5.528   3.407 -0.7977  0.8673 -0.7332
  994MOL0     H31161   0.181   5.504   3.731  0.9372 -0.4867 -1.1949
  994MOL0     H31162   0.010   5.703   3.784 -0.3660  0.8277  1.4613
  994MOL0     H31163   0.048   5.872   3.758  0.2105  0.5220 -1.2105
  994MOL0     H31164   0.140   5.705   3.996  1.8305 -0.6961 -2.9119
  994MOL0     H31165   0.015   5.831   3.998  0.1134  0.3729  0.5217
  994MOL0     H31166   0.221   5.986   3.913 -2.8069  0.8162  0.4894
  994MOL0     H31167   0.208   5.941   4.084  1.8749 -0.9821  0.4146
  994MOL0     H31168   0.415   5.802   3.891 -0.5293 -0.2859 -0.0082
  994MOL0     H31169   0.384   5.765   4.047 -0.0040 -0.6531 -1.8521
  994MOL0     H31170   0.583   6.167   4.065  3.5532 -2.3568 -0.4739
  994MOL0     H31171   0.657   6.345   3.916  0.1247  1.5791 -2.5025
  994MOL0     H31172   0.884   6.650   3.753 -1.8638 -0.8931  0.7312
  994MOL0     H31173   1.017   6.797   3.607  1.6518 -1.2327 -1.0748
  994MOL0     H31174   1.229   6.750   3.414  0.6426  1.2515  1.4041
  994MOL0     H31175   1.142   6.907   3.447 -1.8664 -1.1197 -0.0374
  994MOL0     H31176   1.157   6.941   3.199 -2.6361 -0.3658  2.2285
  994MOL0     H31177   1.275   6.810   3.190 -0.4286  1.7446 -2.2775
  994MOL0     H31178   1.445   6.940   3.244 -0.0501  2.2839 -3.3772
  994MOL0     H31179   1.369   6.990   3.404 -2.1741 -0.6777 -0.4876
  994MOL0     H31180   1.326   7.126   3.137  3.1180 -0.1436 -1.2784
  994MOL0     H31181   1.288   7.190   3.302  1.0229 -0.7291  1.1272
  994MOL0     H31182   1.560   7.145   3.179 -0.6214 -0.4504  1.1728
  994MOL0     H31183   1.537   7.168   3.346 -0.3502  1.2831  1.2432
  994MOL0     H31184   1.416   7.400   3.266  1.0807  0.1260  0.2205
  994MOL0     H31185   1.493   7.360   3.112 -5.2431 -0.5757  0.2269
  994MOL0     H31186   1.632   7.443   3.366 -1.8437 -1.2145  0.7730
  994MOL0     H31187   1.713   7.357   3.226 -0.1712  1.7609 -3.8093
  994MOL0     H31188   1.711   7.616   3.240  3.4232 -0.2912 -3.7438
  994MOL0     H31189   1.550   7.605   3.184  1.7157  2.6621  0.1049
  994MOL0     H31190   0.893   6.554   3.267 -0.4611 -0.2635  0.8350
  994MOL0     H31191   0.775   6.398   3.415  1.7332 -0.0742 -0.8000
  994MOL0     H31192   0.518   6.110   3.589  1.8238 -2.0829 -0.2333
  994MOL0     H31193   0.430   5.948   3.750  1.7024  1.3384 -0.6377
  994MOL0     H31194   0.838   4.750   2.792 -1.3294  0.9529 -0.4319
  994MOL0     H31195   0.915   4.720   2.559  2.1391 -2.6968  3.6914
  994MOL0     H31196   1.105   4.965   2.184 -3.5102 -2.9434  2.5484
  994MOL0     H31197   1.217   4.971   1.975 -1.9283  0.9258  1.5925
  994MOL0     H31198   1.468   4.997   1.860 -3.9537  0.8847  3.2981
  994MOL0     H31199   1.308   4.932   1.790  0.1312 -1.5975 -2.9201
  994MOL0     H31200   1.474   4.975   1.612  1.0075  0.2683  1.7413
  994MOL0     H31201   1.587   4.878   1.686  1.0428  1.6695 -3.8349
  994MOL0     H31202   1.381   4.817   1.493  1.9228  0.1977 -0.8641
  994MOL0     H31203   1.311   4.749   1.632 -1.0939  2.2167 -1.8712
  994MOL0     H31204   1.595   4.689   1.515 -0.6692  0.0144  0.1358
  994MOL0     H31205   1.523   4.601   1.654  2.8346 -0.3666 -0.8405
  994MOL0     H31206   1.386   4.421   1.303  0.3161  0.6746 -1.5880
  994MOL0     H31207   1.468   4.642   2.093 -0.1201  0.5967 -1.0866
  994MOL0     H31208   1.390   4.670   2.328  4.5404  1.1797  0.0581
  995MOL0     O31209   2.704   3.067   7.862  0.5238  0.2086  0.5516
  995MOL0     C31210   2.662   2.947   7.860 -0.4707 -0.2055 -0.0530
  995MOL0     O31211   2.559   2.900   7.928  0.6664 -0.5656 -0.0576
  995MOL0     C31212   2.476   2.996   7.989  0.1954  0.7180  0.2839
  995MOL0     C31213   2.355   3.028   7.940  0.8788  0.0866  0.3892
  995MOL0     C31214   2.277   3.133   8.000 -0.0280  0.3844  0.8852
  995MOL0     C31215   2.319   3.207   8.107 -0.4478  0.2825 -0.0630
  995MOL0     O31216   2.253   3.314   8.169  0.3424 -0.2326 -0.2423
  995MOL0     C31217   2.184   3.416   8.090 -0.1732  0.0473  0.6007
  995MOL0     C31218   2.188   3.542   8.173 -0.1110 -0.1221 -0.6287
  995MOL0     C31219   2.104   3.520   8.306  0.3655 -0.3547 -0.0228
  995MOL0     C31220   2.068   3.653   8.383 -0.2626  0.6572 -0.0753
  995MOL0     C31221   1.983   3.617   8.507 -0.0409  0.0596 -0.0127
  995MOL0     C31222   1.940   3.748   8.576 -0.0803 -0.0307  1.0438
  995MOL0     C31223   1.838   3.712   8.677 -0.1086  0.0353 -0.4148
  995MOL0     C31224   1.766   3.837   8.721 -0.5083 -0.6189  0.1482
  995MOL0     N31225   1.843   3.924   8.816 -0.2166 -0.6340  0.4917
  995MOL0     C31226   1.884   4.051   8.788  0.4556  0.4275 -0.5033
  995MOL0     C31227   1.963   4.081   8.897 -0.3498 -0.0086  0.4008
  995MOL0     C31228   2.037   4.197   8.931  0.2439 -0.3499  0.6553
  995MOL0     C31229   2.126   4.173   9.056  0.1400  0.5049  0.6055
  995MOL0     C31230   2.223   4.280   9.082 -0.1579 -0.5275 -0.8565
  995MOL0     C31231   2.338   4.225   9.168  0.7370 -0.2252 -1.2527
  995MOL0     O31232   2.293   4.132   9.278 -0.2940 -0.7772  0.3234
  995MOL0     C31233   2.376   4.081   9.382 -0.5886 -0.4792  0.6910
  995MOL0     C31234   2.324   3.976   9.454 -0.9611 -1.2912  0.3717
  995MOL0     C31235   2.391   3.933   9.569  0.7724 -0.1390  0.4532
  995MOL0     C31236   2.518   3.981   9.618  0.9104 -0.3868 -0.3324
  995MOL0     C31237   2.597   3.931   9.741 -0.6511  0.7740  0.3182
  995MOL0     O31238   2.703   4.002   9.774 -0.2853 -0.4655  0.3665
  995MOL0     C31239   2.774   3.955   9.881  0.3118 -0.0392  0.1408
  995MOL0     C31240   2.852   3.836   9.861  0.9140 -0.4105  0.0428
  995MOL0     C31241   2.926   3.779   9.958 -1.1309  0.0819 -0.3502
  995MOL0     C31242   2.937   3.847  10.076 -1.2966  0.6196  0.4624
  995MOL0     O31243   3.024   3.803  10.176 -0.1185 -0.5107 -0.6622
  995MOL0     C31244   2.995   3.673  10.216  0.2380 -0.6667  0.1883
  995MOL0     C31245   3.057   3.649  10.360  0.3685  0.1443  0.4258
  995MOL0     C31246   2.961   3.726  10.455 -0.0285 -0.0216  0.3728
  995MOL0     C31247   3.005   3.743  10.596 -0.2878  0.6250  0.6883
  995MOL0     C31248   3.117   3.848  10.614  0.8959  0.2805  0.2262
  995MOL0     C31249   3.146   3.868  10.763 -0.5427  0.0665 -0.3303
  995MOL0     C31250   3.035   3.918  10.852 -0.0146 -0.3351  0.1388
  995MOL0     C31251   3.072   3.951  10.994  0.3319  0.4570 -0.1714
  995MOL0    Cl31252   2.947   4.055  11.068 -0.1753  0.2206 -0.6217
  995MOL0     C31253   2.879   3.976  10.096 -0.4705  0.3006 -0.4260
  995MOL0     C31254   2.787   4.024  10.003  0.2269  0.8060 -0.7562
  995MOL0     O31255   2.545   3.842   9.812 -0.1264 -0.7182 -0.0068
  995MOL0     C31256   2.567   4.092   9.543  0.2256 -1.7455 -0.6466
  995MOL0     C31257   2.497   4.140   9.430 -0.0884  0.0198  0.6214
  995MOL0     N31258   1.976   3.960   8.973 -0.2188  0.7432 -0.5296
  995MOL0     N31259   1.898   3.867   8.925 -0.0118 -0.2698  0.0734
  995MOL0     C31260   2.434   3.160   8.168 -0.4971 -0.0795 -0.0165
  995MOL0     C31261   2.521   3.074   8.107 -0.1342  0.9067 -0.0142
  995MOL0     C31262   2.738   2.863   7.769 -0.0616 -0.1439 -0.3397
  995MOL0     C31263   2.718   2.726   7.780  0.4274  0.1391  0.5675
  995MOL0     C31264   2.789   2.653   7.695  0.1895  0.4696  0.1478
  995MOL0     C31265   2.868   2.711   7.593  0.2969 -0.3302 -0.5184
  995MOL0     O31266   2.954   2.651   7.499 -0.0860  0.6580 -0.0882
  995MOL0     C31267   2.997   2.513   7.526  0.0920  0.1549  0.7590
  995MOL0     C31268   2.898   2.418   7.457 -0.1744  0.4070  0.3206
  995MOL0     C31269   2.938   2.273   7.423 -0.5041  0.3803  0.3839
  995MOL0     C31270   3.025   2.288   7.300 -0.2719  0.2301  0.3745
  995MOL0     C31271   3.063   2.152   7.241  0.5199  0.0639  0.0548
  995MOL0     C31272   3.096   2.044   7.170  0.4658  0.2167 -0.4228
  995MOL0     C31273   2.864   2.849   7.577 -0.7411  0.6452  0.5037
  995MOL0     C31274   2.808   2.925   7.668 -0.3692 -0.4347 -0.1672
  995MOL0     H31275   2.330   2.989   7.842  4.3333  1.3521 -1.1505
  995MOL0     H31276   2.194   3.181   7.949  0.7102  1.6151  0.8044
  995MOL0     H31277   2.082   3.378   8.076  0.2989 -1.1617  0.2969
  995MOL0     H31278   2.229   3.437   7.993  1.4095 -0.7183  1.1406
  995MOL0     H31279   2.146   3.630   8.121  4.3819  4.2815  2.2878
  995MOL0     H31280   2.291   3.561   8.205 -0.9787 -1.4087  3.5022
  995MOL0     H31281   2.152   3.454   8.379 -0.2643 -1.5011 -0.6176
  995MOL0     H31282   2.005   3.477   8.287 -0.5585  0.9890  1.4751
  995MOL0     H31283   2.164   3.692   8.418 -0.9018  1.1430  1.2050
  995MOL0     H31284   2.017   3.725   8.319 -1.7095 -1.2146 -1.1651
  995MOL0     H31285   2.042   3.553   8.573 -0.7153 -1.4833 -0.8414
  995MOL0     H31286   1.897   3.557   8.477 -0.2083  0.5055 -0.4423
  995MOL0     H31287   1.907   3.822   8.502  0.8882  1.1695  1.7752
  995MOL0     H31288   2.034   3.786   8.616  0.1459  2.0708 -1.2428
  995MOL0     H31289   1.766   3.639   8.639  1.1229 -2.6102  1.9327
  995MOL0     H31290   1.881   3.668   8.767 -1.3542 -0.6207 -0.1214
  995MOL0     H31291   1.679   3.811   8.781 -1.5588  2.0597 -0.0685
  995MOL0     H31292   1.736   3.897   8.634 -1.1241 -0.4691  0.4620
  995MOL0     H31293   1.855   4.120   8.710  0.0415  0.6688 -0.1393
  995MOL0     H31294   1.968   4.279   8.952  0.3243 -0.2931  0.6972
  995MOL0     H31295   2.098   4.231   8.846 -1.6568 -0.4127 -0.7916
  995MOL0     H31296   2.188   4.085   9.040 -0.6300 -0.1792  1.3084
  995MOL0     H31297   2.061   4.158   9.143  0.2511 -3.7939  0.1703
  995MOL0     H31298   2.259   4.323   8.988 -2.0160 -0.9522 -1.8016
  995MOL0     H31299   2.168   4.363   9.128  1.5369 -0.2897  0.8434
  995MOL0     H31300   2.395   4.310   9.208  1.1071  0.7604 -3.7197
  995MOL0     H31301   2.396   4.166   9.097  0.1232  0.1673 -2.0905
  995MOL0     H31302   2.237   3.921   9.419 -3.1342  1.8630  0.3934
  995MOL0     H31303   2.347   3.848   9.621 -2.9694  1.2964 -0.0690
  995MOL0     H31304   2.843   3.779   9.768  0.9815  1.1093 -0.9282
  995MOL0     H31305   2.971   3.683   9.933 -0.5632  0.4502 -0.7563
  995MOL0     H31306   3.062   3.609  10.157  2.7170  2.1107 -0.2445
  995MOL0     H31307   2.892   3.642  10.200  0.4159 -0.5088 -1.3586
  995MOL0     H31308   3.155   3.697  10.354 -0.4806  2.1196  1.3989
  995MOL0     H31309   3.072   3.548  10.398  2.5809  1.0448  2.1789
  995MOL0     H31310   2.862   3.680  10.448 -0.1463  0.2337  0.3594
  995MOL0     H31311   2.955   3.828  10.416 -0.9334  0.6131  2.0772
  995MOL0     H31312   2.912   3.770  10.647  0.1066 -1.1745  2.4807
  995MOL0     H31313   3.045   3.655  10.647 -0.3118  0.4136  0.3431
  995MOL0     H31314   3.095   3.947  10.571  0.1116 -0.6279 -1.5630
  995MOL0     H31315   3.201   3.806  10.558  0.8416  1.0792 -0.4760
  995MOL0     H31316   3.238   3.929  10.759  0.8115 -1.8591  0.1418
  995MOL0     H31317   3.167   3.766  10.797 -3.8154  0.0482  2.0668
  995MOL0     H31318   3.001   4.005  10.794  0.8397 -0.7605 -1.0177
  995MOL0     H31319   2.948   3.851  10.853  0.3284 -0.7780  0.4129
  995MOL0     H31320   3.164   4.005  11.014  1.4672 -1.7908  1.1010
  995MOL0     H31321   3.068   3.853  11.042 -0.7012  0.2802 -0.5873
  995MOL0     H31322   2.908   4.036  10.182 -1.8456  0.7402 -0.2463
  995MOL0     H31323   2.743   4.121  10.022 -0.6788 -0.0555  1.8839
  995MOL0     H31324   2.657   4.150   9.562  0.7976 -2.6668 -0.4976
  995MOL0     H31325   2.526   4.234   9.385 -0.7487  0.0833  0.3127
  995MOL0     H31326   2.453   3.213   8.260 -1.7174  0.9467 -0.3288
  995MOL0     H31327   2.622   3.058   8.142 -0.6709 -0.3706  1.0462
  995MOL0     H31328   2.675   2.693   7.874  1.0582 -0.1079  0.7801
  995MOL0     H31329   2.802   2.547   7.714  4.9535  1.2954  3.2088
  995MOL0     H31330   3.019   2.487   7.630 -0.5419  0.8675  1.0862
  995MOL0     H31331   3.096   2.500   7.483  0.7981  0.6724  2.1710
  995MOL0     H31332   2.808   2.405   7.517 -2.7670 -1.1211 -3.5121
  995MOL0     H31333   2.863   2.466   7.365 -3.4631  0.9394  1.6951
  995MOL0     H31334   2.846   2.223   7.392  1.6103 -2.2817 -2.1721
  995MOL0     H31335   2.988   2.221   7.506  1.4831  2.3428  0.5035
  995MOL0     H31336   2.972   2.344   7.223 -3.4424 -1.1384  1.3641
  995MOL0     H31337   3.114   2.347   7.323  1.8649 -1.3593 -3.0388
  995MOL0     H31338   3.133   1.960   7.115 -2.6655 -1.2744 -0.4434
  995MOL0     H31339   2.903   2.901   7.491  2.5329  0.0712  1.5260
  995MOL0     H31340   2.804   3.033   7.657 -1.8336 -0.5838 -1.6067
  996MOL0     O31341  10.591   9.669   7.642  0.7642 -0.4643  0.0802
  996MOL0     C31342  10.475   9.657   7.685  0.3444  0.1588  0.9412
  996MOL0     O31343  10.379   9.756   7.671 -0.1803 -0.0250 -0.5006
  996MOL0     C31344  10.418   9.874   7.609  0.7672  0.5232 -0.8883
  996MOL0     C31345  10.449  10.001   7.669  0.7637  0.3832  0.7444
  996MOL0     C31346  10.487  10.106   7.593  0.4274 -0.5422  0.5606
  996MOL0     C31347  10.492  10.102   7.452  0.2118  0.9448  0.3825
  996MOL0     O31348  10.514  10.198   7.363  0.5130 -0.1075  0.8200
  996MOL0     C31349  10.449  10.325   7.374 -0.2662  0.1062  0.5131
  996MOL0     C31350  10.506  10.429   7.276 -0.5629 -0.6557 -0.4760
  996MOL0     C31351  10.420  10.554   7.274  1.3118  0.2681  0.5368
  996MOL0     C31352  10.379  10.598   7.412  0.2790 -0.2905 -0.4148
  996MOL0     C31353  10.336  10.744   7.410 -0.6896 -0.3456 -0.6791
  996MOL0     C31354  10.336  10.787   7.553  0.2665 -1.2973  0.3586
  996MOL0     C31355  10.302  10.939   7.572 -0.3156  0.0613  0.8583
  996MOL0     C31356  10.415  11.040   7.513  0.5711  0.6025 -0.3755
  996MOL0     N31357  10.374  11.183   7.508  0.0240 -0.3689 -0.3952
  996MOL0     C31358  10.329  11.251   7.398  0.1903 -0.4374  0.0737
  996MOL0     C31359  10.300  11.373   7.447  0.0224 -0.8648 -0.5080
  996MOL0     C31360  10.238  11.478   7.353  0.5486  0.3730  0.0025
  996MOL0     C31361  10.326  11.594   7.309 -0.1174  0.2019 -0.0601
  996MOL0     C31362  10.305  11.717   7.392 -0.4676 -0.1052 -0.6282
  996MOL0     C31363  10.355  11.835   7.310 -0.3085 -0.1457  0.3958
  996MOL0     O31364  10.494  11.823   7.307 -0.6293  0.4161  0.7039
  996MOL0     C31365  10.556  11.852   7.185  0.0647 -1.4042 -0.0886
  996MOL0     C31366  10.678  11.787   7.156  0.4431  0.2296 -0.2471
  996MOL0     C31367  10.763  11.829   7.047  0.1319 -0.5427 -0.4670
  996MOL0     C31368  10.723  11.926   6.960  0.1529  0.0368  0.5273
  996MOL0     C31369  10.799  11.964   6.839 -0.2777 -0.2200 -1.1933
  996MOL0     O31370  10.754  12.059   6.755  0.4380 -1.1604  0.2734
  996MOL0     C31371  10.833  12.092   6.648  0.5217  0.1520 -0.3607
  996MOL0     C31372  10.966  12.125   6.660  0.6697 -0.1151 -0.4481
  996MOL0     C31373  11.043  12.147   6.549  0.8811  0.4646  0.8483
  996MOL0     C31374  10.990  12.150   6.421  0.2284  0.8253 -0.2809
  996MOL0     O31375  11.073  12.186   6.322  0.3993 -0.6390  0.2867
  996MOL0     C31376  11.034  12.174   6.184  0.8470  0.7234 -0.8146
  996MOL0     C31377  11.151  12.144   6.091 -0.2201 -0.2671 -0.1230
  996MOL0     C31378  11.113  12.123   5.950  1.2772 -0.5525  0.0133
  996MOL0     C31379  11.237  12.069   5.882 -0.2926 -0.0329  0.3642
  996MOL0     C31380  11.215  12.062   5.731  0.1228  0.3152  0.3314
  996MOL0     C31381  11.317  11.979   5.647 -0.1101 -0.1398 -0.3421
  996MOL0     C31382  11.284  11.975   5.498 -1.2551 -0.1828 -0.5174
  996MOL0     C31383  11.186  11.865   5.457  0.4166 -0.6339 -0.2635
  996MOL0    Cl31384  11.156  11.895   5.286  0.0448  0.0754  0.0888
  996MOL0     C31385  10.853  12.123   6.413  0.8327 -0.7980  0.1344
  996MOL0     C31386  10.778  12.091   6.524  0.2327 -1.1835  1.1581
  996MOL0     O31387  10.912  11.912   6.832 -0.3839  0.3977  0.3461
  996MOL0     C31388  10.602  11.984   6.983 -0.0526  0.1037  0.8899
  996MOL0     C31389  10.511  11.954   7.094  0.2001 -0.3776  0.0689
  996MOL0     N31390  10.340  11.376   7.577 -0.3350 -0.7771 -0.2082
  996MOL0     N31391  10.385  11.265   7.616  0.4889 -1.1735  0.5798
  996MOL0     C31392  10.483   9.976   7.393 -0.6781 -0.8814 -0.0934
  996MOL0     C31393  10.445   9.869   7.472 -0.0467  0.0516  1.1354
  996MOL0     C31394  10.428   9.528   7.744  0.3652  0.0400 -0.2908
  996MOL0     C31395  10.516   9.456   7.818 -0.1327 -0.1397 -0.1383
  996MOL0     C31396  10.480   9.331   7.879 -0.6726 -0.6546  0.2754
  996MOL0     C31397  10.352   9.278   7.871 -0.4336 -1.0209  0.5697
  996MOL0     O31398  10.333   9.164   7.937  0.0950  0.0422  0.9630
  996MOL0     C31399  10.218   9.078   7.899 -0.6800  0.3045  0.1930
  996MOL0     C31400  10.233   9.009   7.768  0.1086 -0.4262 -0.7133
  996MOL0     C31401  10.103   8.941   7.731  0.1488 -0.1698 -0.6133
  996MOL0     C31402  10.069   8.806   7.810  0.5753 -1.0594  0.4312
  996MOL0     C31403   9.969   8.717   7.740  0.7667 -0.1122  0.1927
  996MOL0     C31404   9.900   8.634   7.682  0.8922  0.0030  1.2080
  996MOL0     C31405  10.264   9.348   7.787 -0.3471 -0.0141 -0.4307
  996MOL0     C31406  10.298   9.474   7.725 -0.1625 -0.0701 -0.0927
  996MOL0     H31407  10.427  10.009   7.775 -1.7899 -1.1815  0.4117
  996MOL0     H31408  10.504  10.203   7.638  1.3043  0.6172 -2.0396
  996MOL0     H31409  10.475  10.357   7.475  3.1397 -2.1168  0.4978
  996MOL0     H31410  10.341  10.314   7.363 -0.3432 -0.3236  1.5536
  996MOL0     H31411  10.513  10.382   7.178  0.8749 -0.9542 -0.2529
  996MOL0     H31412  10.608  10.456   7.304 -1.9567  1.4236  3.5328
  996MOL0     H31413  10.329  10.540   7.215  0.8754 -0.2200  1.3179
  996MOL0     H31414  10.475  10.637   7.228  2.6633  1.4969  4.0195
  996MOL0     H31415  10.288  10.542   7.437 -1.1679  0.5173 -3.3465
  996MOL0     H31416  10.455  10.576   7.487 -0.2134  2.8637  1.1733
  996MOL0     H31417  10.242  10.774   7.363 -0.9560 -2.0859 -1.3460
  996MOL0     H31418  10.419  10.796   7.361  0.4171 -0.5945  0.8539
  996MOL0     H31419  10.435  10.770   7.598  1.1949  4.0005  1.0376
  996MOL0     H31420  10.258  10.730   7.602 -1.8289  1.5562  0.6089
  996MOL0     H31421  10.213  10.960   7.512  2.1270  1.2740 -2.7019
  996MOL0     H31422  10.284  10.972   7.675  1.1789 -1.9841  1.8384
  996MOL0     H31423  10.438  11.021   7.408  0.8686  3.1119 -0.8257
  996MOL0     H31424  10.505  11.024   7.573 -0.1554  1.1460  0.9055
  996MOL0     H31425  10.306  11.202   7.305 -0.2050 -2.0816  1.0006
  996MOL0     H31426  10.159  11.530   7.409  0.0010  0.5271 -0.8883
  996MOL0     H31427  10.188  11.429   7.270  0.2317  0.2850  0.2429
  996MOL0     H31428  10.298  11.605   7.204 -0.4257  0.6095  0.0624
  996MOL0     H31429  10.429  11.560   7.320 -0.4334 -1.2015 -1.0838
  996MOL0     H31430  10.201  11.736   7.418 -0.2066 -1.9701  2.1774
  996MOL0     H31431  10.350  11.712   7.491 -0.9983  0.4119 -0.3522
  996MOL0     H31432  10.327  11.929   7.358  1.2669  1.4910 -1.7456
  996MOL0     H31433  10.304  11.828   7.214  0.0539  0.6136  0.1482
  996MOL0     H31434  10.717  11.703   7.212 -0.2406  0.3515  0.4134
  996MOL0     H31435  10.859  11.779   7.036  0.2866 -0.5149  0.6791
  996MOL0     H31436  11.019  12.138   6.754  2.9070  2.4072 -1.8847
  996MOL0     H31437  11.142  12.189   6.566  0.8695  1.1672 -0.6577
  996MOL0     H31438  10.973  12.259   6.153 -0.1020  0.0114 -0.9448
  996MOL0     H31439  10.980  12.079   6.178  2.5745 -0.2165 -2.6056
  996MOL0     H31440  11.197  12.052   6.127 -2.5877 -0.9670  1.3600
  996MOL0     H31441  11.229  12.220   6.087  2.5202 -2.9391 -1.4996
  996MOL0     H31442  11.092  12.221   5.906  3.4952  0.7465  1.6140
  996MOL0     H31443  11.033  12.048   5.943 -1.1175  1.7679  0.9059
  996MOL0     H31444  11.325  12.123   5.919  0.4030 -1.1700  0.4112
  996MOL0     H31445  11.242  11.963   5.906 -3.4148 -0.5098 -0.6013
  996MOL0     H31446  11.203  12.166   5.700  0.2811  0.3716  0.4548
  996MOL0     H31447  11.118  12.017   5.707  0.4433  0.7200 -1.9270
  996MOL0     H31448  11.323  11.877   5.686 -0.6107 -0.7238 -1.7243
  996MOL0     H31449  11.413  12.027   5.666  0.1542  0.3644 -2.7641
  996MOL0     H31450  11.241  12.067   5.459 -2.4082 -0.4411  0.0939
  996MOL0     H31451  11.374  11.952   5.441 -1.5226 -0.9033 -0.6638
  996MOL0     H31452  11.105  11.894   5.525  0.7061 -0.4994  0.0275
  996MOL0     H31453  11.220  11.763   5.478 -2.5527 -2.0591 -1.8372
  996MOL0     H31454  10.792  12.112   6.324  1.0338 -2.2254  0.1522
  996MOL0     H31455  10.675  12.059   6.510 -0.0653  0.5141 -1.2735
  996MOL0     H31456  10.573  12.068   6.920  0.2032 -0.8558 -0.5616
  996MOL0     H31457  10.411  11.995   7.093 -0.4764 -1.9312  0.5622
  996MOL0     H31458  10.496   9.965   7.286 -0.7234 -1.7906 -0.0160
  996MOL0     H31459  10.422   9.777   7.421 -2.1287  0.4352  1.3103
  996MOL0     H31460  10.614   9.502   7.830  1.7845 -3.7893 -0.5436
  996MOL0     H31461  10.556   9.293   7.946  2.5469  5.5366  0.8734
  996MOL0     H31462  10.125   9.135   7.896  0.8772  3.2748  2.6628
  996MOL0     H31463  10.207   9.009   7.984  0.3107  1.8507  1.6359
  996MOL0     H31464  10.251   9.069   7.678  1.1375 -1.9546 -1.5747
  996MOL0     H31465  10.313   8.934   7.774 -2.8542 -3.8240 -0.5014
  996MOL0     H31466  10.092   8.913   7.626 -2.2038 -2.8522  0.2247
  996MOL0     H31467  10.024   9.013   7.756  0.0355 -0.5376  0.1229
  996MOL0     H31468  10.158   8.744   7.818  0.9466 -0.2657  4.7694
  996MOL0     H31469  10.034   8.826   7.912  2.0450 -1.6754  1.0779
  996MOL0     H31470   9.833   8.568   7.631 -1.8067  1.3710  2.7977
  996MOL0     H31471  10.166   9.304   7.773  0.3210 -1.4271 -0.8647
  996MOL0     H31472  10.232   9.540   7.670  1.4060  1.2965 -0.4465
  997MOL0     O31473   7.057   3.136   4.565 -0.3105 -0.4318  0.0806
  997MOL0     C31474   7.025   3.175   4.454  0.2285 -0.9699  0.4704
  997MOL0     O31475   6.898   3.210   4.410 -0.6595 -0.6947 -1.0945
  997MOL0     C31476   6.794   3.214   4.498  0.5575 -0.7005  0.9045
  997MOL0     C31477   6.763   3.119   4.589 -0.4202  0.2477 -0.5958
  997MOL0     C31478   6.646   3.127   4.669 -1.0509 -0.4022  0.6271
  997MOL0     C31479   6.567   3.245   4.669  0.6700 -0.3550  0.6102
  997MOL0     O31480   6.454   3.242   4.747 -0.1776 -0.0704  0.3812
  997MOL0     C31481   6.351   3.335   4.718 -1.0096 -0.0934  0.2428
  997MOL0     C31482   6.232   3.318   4.815 -0.2543 -0.1617  0.2254
  997MOL0     C31483   6.127   3.428   4.813 -0.0386  0.2495  0.3947
  997MOL0     C31484   6.025   3.433   4.695  0.3985 -0.0543 -0.0650
  997MOL0     C31485   5.910   3.537   4.710  0.1697 -0.4024 -0.9287
  997MOL0     C31486   5.821   3.531   4.585  0.3782  1.2228  0.0863
  997MOL0     C31487   5.724   3.646   4.574 -0.1112  0.0400 -0.3678
  997MOL0     C31488   5.600   3.629   4.664 -0.2847  0.4225  0.2990
  997MOL0     N31489   5.533   3.756   4.686 -0.0220 -0.1472  0.2999
  997MOL0     C31490   5.593   3.862   4.753  0.1116  0.3071  0.5092
  997MOL0     C31491   5.517   3.969   4.709  0.3852  0.3468  0.1685
  997MOL0     C31492   5.521   4.111   4.743  0.2424  0.2307 -0.3873
  997MOL0     C31493   5.658   4.179   4.765  0.7247  0.0329 -0.2419
  997MOL0     C31494   5.660   4.334   4.780 -0.4940  0.7537 -0.0834
  997MOL0     C31495   5.790   4.399   4.829  0.6795 -1.0780  0.4146
  997MOL0     O31496   5.888   4.353   4.732  0.2322 -0.1822 -0.0445
  997MOL0     C31497   5.987   4.448   4.706 -0.2762  0.7929 -0.0661
  997MOL0     C31498   5.960   4.577   4.655 -0.0039 -0.0983 -0.6157
  997MOL0     C31499   6.063   4.653   4.597  0.0195  0.0247 -0.5597
  997MOL0     C31500   6.195   4.603   4.576  0.2682  0.9971 -0.3190
  997MOL0     C31501   6.283   4.683   4.496  0.0888 -1.2864  0.0332
  997MOL0     O31502   6.413   4.665   4.530 -0.7517 -0.3478  0.7581
  997MOL0     C31503   6.495   4.738   4.445 -0.2992  0.2974 -0.8522
  997MOL0     C31504   6.515   4.687   4.320  0.5580  0.8283 -0.8972
  997MOL0     C31505   6.577   4.775   4.228  0.0181  0.3802  0.1261
  997MOL0     C31506   6.632   4.895   4.261 -1.0513 -1.3430 -0.3790
  997MOL0     O31507   6.682   4.965   4.159 -0.0193  0.6805 -0.3286
  997MOL0     C31508   6.714   5.106   4.171 -0.3443  0.4641 -1.0021
  997MOL0     C31509   6.755   5.155   4.042 -0.0723  0.1417  0.0293
  997MOL0     C31510   6.781   5.308   4.042  0.2791  0.0940  1.0017
  997MOL0     C31511   6.658   5.398   4.037  0.4478 -0.1556  0.4099
  997MOL0     C31512   6.607   5.443   3.893 -0.5922  0.2744 -0.0122
  997MOL0     C31513   6.703   5.504   3.790  0.3191 -0.6711 -0.1569
  997MOL0     C31514   6.711   5.665   3.819  0.1612 -0.0804 -0.9555
  997MOL0     C31515   6.627   5.761   3.735  0.5482  1.3157 -0.3987
  997MOL0    Cl31516   6.656   5.923   3.780  0.1248 -0.2322 -0.1199
  997MOL0     C31517   6.611   4.941   4.397 -0.3173  0.2907  1.2232
  997MOL0     C31518   6.548   4.861   4.485  0.8786  0.8765  0.1451
  997MOL0     O31519   6.239   4.771   4.407 -0.1507 -1.1642 -0.1278
  997MOL0     C31520   6.224   4.481   4.632  0.5077  0.6973 -0.2272
  997MOL0     C31521   6.126   4.404   4.705  0.3556 -0.3216 -0.0321
  997MOL0     N31522   5.436   3.928   4.609 -0.5728  0.4407 -0.0782
  997MOL0     N31523   5.444   3.799   4.597 -0.4598 -0.4153 -0.1062
  997MOL0     C31524   6.593   3.331   4.562 -0.4249  1.0259  0.3239
  997MOL0     C31525   6.706   3.326   4.489 -0.1171  0.2615 -0.3595
  997MOL0     C31526   7.131   3.178   4.351  0.7661 -0.5859 -0.0439
  997MOL0     C31527   7.260   3.127   4.387  0.3558 -0.2526  0.8725
  997MOL0     C31528   7.366   3.152   4.294  0.8860  0.5195 -0.4339
  997MOL0     C31529   7.348   3.217   4.173  1.6483 -0.6974  1.3485
  997MOL0     O31530   7.456   3.238   4.098 -0.0051  0.0632  0.7281
  997MOL0     C31531   7.445   3.315   3.975  0.1139 -0.4550 -0.2851
  997MOL0     C31532   7.465   3.464   4.018  0.1767 -0.2674  0.4947
  997MOL0     C31533   7.494   3.536   3.881  1.2921  0.4378 -0.1546
  997MOL0     C31534   7.397   3.657   3.857  0.3993  0.3900 -0.4278
  997MOL0     C31535   7.400   3.708   3.721  0.4870  0.5487  0.1546
  997MOL0     C31536   7.383   3.746   3.605  0.5588 -0.2937 -0.2633
  997MOL0     C31537   7.211   3.248   4.133  0.1647  1.3549  0.1111
  997MOL0     C31538   7.110   3.228   4.220  0.4357 -0.3778  0.0781
  997MOL0     H31539   6.836   3.044   4.618 -1.5713  0.6545  4.1292
  997MOL0     H31540   6.647   3.039   4.733  1.2727 -5.0043 -4.8520
  997MOL0     H31541   6.309   3.325   4.617  0.0704  1.4693 -0.4155
  997MOL0     H31542   6.387   3.438   4.721 -2.1279  0.3136  0.4207
  997MOL0     H31543   6.261   3.307   4.920 -0.6930 -0.9055  0.2823
  997MOL0     H31544   6.187   3.225   4.776  0.8412  0.7766 -3.7089
  997MOL0     H31545   6.187   3.520   4.816  1.2802 -0.5473 -0.3682
  997MOL0     H31546   6.057   3.430   4.897  0.7105  0.7326  1.0199
  997MOL0     H31547   6.087   3.465   4.611 -0.3961 -0.0418 -0.6559
  997MOL0     H31548   5.980   3.336   4.673 -1.1923  0.6687 -0.1125
  997MOL0     H31549   5.947   3.639   4.723 -0.8439 -0.1560  0.1704
  997MOL0     H31550   5.851   3.520   4.801 -1.2205  0.4244 -1.6496
  997MOL0     H31551   5.764   3.440   4.604  1.8558 -0.0463 -1.2697
  997MOL0     H31552   5.878   3.513   4.494 -0.6842 -1.7742 -0.1021
  997MOL0     H31553   5.773   3.740   4.602 -3.3866  1.3484  1.6091
  997MOL0     H31554   5.702   3.645   4.467  1.2626 -2.3588 -0.6882
  997MOL0     H31555   5.626   3.577   4.756  3.9013 -1.8873 -1.9097
  997MOL0     H31556   5.536   3.563   4.605  0.8620 -2.2075  1.8199
  997MOL0     H31557   5.656   3.867   4.840 -1.3802  1.8822  1.5717
  997MOL0     H31558   5.465   4.131   4.835 -1.6564 -0.8603 -1.2564
  997MOL0     H31559   5.474   4.180   4.672 -1.8745  1.2416  1.8257
  997MOL0     H31560   5.707   4.159   4.669 -0.9195  1.0484 -1.3467
  997MOL0     H31561   5.720   4.134   4.842  2.6043  1.7196 -0.6789
  997MOL0     H31562   5.638   4.370   4.679 -3.5235 -1.3377 -0.2795
  997MOL0     H31563   5.579   4.354   4.851 -1.4728 -2.1601 -0.2487
  997MOL0     H31564   5.823   4.371   4.929  2.6030 -3.4732 -0.7909
  997MOL0     H31565   5.787   4.509   4.835  0.7724 -0.9325 -1.4798
  997MOL0     H31566   5.856   4.605   4.639  0.3627 -0.0977 -3.3990
  997MOL0     H31567   6.036   4.753   4.564 -0.8637 -0.1377 -0.3639
  997MOL0     H31568   6.472   4.590   4.297  1.1805  0.6238 -1.2162
  997MOL0     H31569   6.595   4.733   4.130 -0.0388 -2.0321  1.0730
  997MOL0     H31570   6.787   5.105   4.252 -0.4157 -4.7868 -0.6841
  997MOL0     H31571   6.628   5.161   4.211 -0.5846 -0.6222  0.0471
  997MOL0     H31572   6.683   5.130   3.964  1.2840 -0.0729 -1.1818
  997MOL0     H31573   6.847   5.104   4.011  0.1332  0.8558 -0.5615
  997MOL0     H31574   6.835   5.309   3.947  1.1722 -3.9709  1.2819
  997MOL0     H31575   6.851   5.337   4.121  2.0910 -1.9527  0.2523
  997MOL0     H31576   6.568   5.360   4.086 -0.6550  0.7468 -0.8475
  997MOL0     H31577   6.680   5.491   4.092 -2.5796 -0.2731  2.0526
  997MOL0     H31578   6.526   5.512   3.916  1.8776  2.4609  2.8236
  997MOL0     H31579   6.572   5.349   3.849  2.1292 -0.3871 -0.8990
  997MOL0     H31580   6.670   5.487   3.687  3.3289  4.6412 -2.3875
  997MOL0     H31581   6.805   5.467   3.803  0.8566  1.1261  1.0705
  997MOL0     H31582   6.690   5.679   3.926  1.8801 -1.5953 -0.3711
  997MOL0     H31583   6.812   5.703   3.800 -0.2005  1.2505 -0.3556
  997MOL0     H31584   6.520   5.744   3.727  0.6366  0.1063  0.6299
  997MOL0     H31585   6.664   5.751   3.633 -0.0284 -0.1853 -0.4808
  997MOL0     H31586   6.627   5.047   4.415  3.3644 -0.1584  1.2439
  997MOL0     H31587   6.499   4.906   4.571 -0.7106 -0.3769 -0.0558
  997MOL0     H31588   6.325   4.444   4.646  0.5686  0.8707 -0.2059
  997MOL0     H31589   6.147   4.307   4.749 -3.6625 -0.7151  1.4544
  997MOL0     H31590   6.520   3.409   4.541  0.1234  2.1897  2.5027
  997MOL0     H31591   6.725   3.416   4.433 -0.3211  0.3013 -0.3666
  997MOL0     H31592   7.274   3.079   4.484 -0.7201 -1.0482  0.6523
  997MOL0     H31593   7.462   3.110   4.323  0.3842 -0.4286 -0.1070
  997MOL0     H31594   7.355   3.292   3.918  0.1224  1.4948 -1.1806
  997MOL0     H31595   7.531   3.288   3.913 -0.6179 -0.7394 -1.2056
  997MOL0     H31596   7.380   3.503   4.074 -0.5782 -1.6189  0.3456
  997MOL0     H31597   7.553   3.459   4.083 -0.8885 -2.9067  1.9159
  997MOL0     H31598   7.482   3.463   3.800  1.0252 -2.6355  2.4331
  997MOL0     H31599   7.596   3.575   3.884 -0.0510  4.3726 -0.2529
  997MOL0     H31600   7.292   3.631   3.874 -0.3049  2.3403 -1.5148
  997MOL0     H31601   7.421   3.739   3.925 -1.1297  1.6160 -1.3066
  997MOL0     H31602   7.364   3.774   3.503 -2.5846  1.7299  0.7498
  997MOL0     H31603   7.192   3.294   4.037  2.6592  0.4826 -0.8847
  997MOL0     H31604   7.011   3.270   4.203  0.2288 -0.3004  1.3760
  998MOL0     O31605   3.517   8.790   4.712 -0.4232 -1.2621 -0.1245
  998MOL0     C31606   3.409   8.790   4.769 -0.3839  0.0850  0.2592
  998MOL0     O31607   3.282   8.795   4.708  0.2508  0.0461 -0.8827
  998MOL0     C31608   3.276   8.807   4.571  0.3051  0.2508  0.3118
  998MOL0     C31609   3.207   8.713   4.494  0.5084  0.0068  0.0335
  998MOL0     C31610   3.189   8.718   4.360 -0.2306 -0.1282  0.2692
  998MOL0     C31611   3.248   8.826   4.291 -0.7725  0.6451  0.8719
  998MOL0     O31612   3.231   8.835   4.159  0.0504 -0.0583  0.3187
  998MOL0     C31613   3.233   8.962   4.089  0.5582  0.4956 -0.0447
  998MOL0     C31614   3.369   8.998   4.047  0.3392 -0.3805 -0.4223
  998MOL0     C31615   3.418   8.906   3.929 -0.0255  0.5403 -0.0545
  998MOL0     C31616   3.565   8.948   3.902  0.2894  0.0979 -0.1774
  998MOL0     C31617   3.630   8.838   3.825 -0.2894  0.4776  0.7541
  998MOL0     C31618   3.572   8.821   3.681  0.6162 -0.7668  0.3041
  998MOL0     C31619   3.645   8.715   3.607  0.5322  0.8225 -0.0089
  998MOL0     C31620   3.565   8.684   3.477 -0.8375  0.2641 -0.8763
  998MOL0     N31621   3.459   8.587   3.519  0.6004 -0.1498 -0.7889
  998MOL0     C31622   3.333   8.615   3.559 -0.2362 -0.5628 -0.1263
  998MOL0     C31623   3.280   8.491   3.576 -0.5374 -0.2088 -0.8076
  998MOL0     C31624   3.136   8.464   3.598  0.1291  0.0481 -0.7742
  998MOL0     C31625   3.048   8.476   3.476 -0.5992  0.1492  0.4835
  998MOL0     C31626   2.917   8.405   3.487 -0.1960  0.3619  0.9288
  998MOL0     C31627   2.825   8.474   3.591 -0.6454  0.9141 -0.2910
  998MOL0     O31628   2.686   8.435   3.558  0.2231  0.1733 -0.5080
  998MOL0     C31629   2.594   8.538   3.569 -0.7130 -0.1181 -0.2807
  998MOL0     C31630   2.592   8.611   3.693 -0.4317 -0.3463 -0.8393
  998MOL0     C31631   2.509   8.719   3.708  0.3208 -0.3889  0.2460
  998MOL0     C31632   2.438   8.779   3.599 -0.5457  0.1590 -0.1481
  998MOL0     C31633   2.327   8.884   3.616 -0.3227 -0.8365  0.3145
  998MOL0     O31634   2.357   8.987   3.714  0.9511  0.5090  0.2178
  998MOL0     C31635   2.294   9.107   3.725 -0.2537 -0.2172 -0.4246
  998MOL0     C31636   2.202   9.158   3.636 -0.5813 -0.7695  0.7053
  998MOL0     C31637   2.129   9.272   3.656 -1.1519  0.0726  1.1583
  998MOL0     C31638   2.157   9.340   3.772  0.0173 -0.3482  0.3326
  998MOL0     O31639   2.097   9.460   3.780  0.1585  0.9088  0.9376
  998MOL0     C31640   2.088   9.535   3.896 -0.0229  0.1120 -0.5619
  998MOL0     C31641   1.985   9.644   3.885 -0.5654 -0.7030 -0.0718
  998MOL0     C31642   1.991   9.732   4.003  0.0328 -0.4559 -0.4125
  998MOL0     C31643   2.089   9.850   3.977  0.2819 -0.2481  0.1020
  998MOL0     C31644   2.107   9.937   4.109  1.0611  0.1513  0.0349
  998MOL0     C31645   2.214  10.041   4.081 -0.5614 -0.2815  0.1647
  998MOL0     C31646   2.351   9.982   4.094 -0.9502 -0.1644 -0.2076
  998MOL0     C31647   2.451  10.083   4.119 -0.2373  0.0213 -0.2151
  998MOL0    Cl31648   2.617  10.010   4.099  0.0054  0.5338 -0.4497
  998MOL0     C31649   2.250   9.301   3.859 -0.1382  1.2181  0.1885
  998MOL0     C31650   2.314   9.178   3.839 -0.6381  0.2599 -0.1882
  998MOL0     O31651   2.222   8.870   3.553  0.1706 -0.2103  0.3501
  998MOL0     C31652   2.441   8.707   3.478 -0.5053  0.2048  0.2397
  998MOL0     C31653   2.515   8.590   3.458 -1.2714 -0.2295  1.2175
  998MOL0     N31654   3.381   8.392   3.543  0.9208 -0.0199 -0.4489
  998MOL0     N31655   3.485   8.451   3.523  0.6684 -0.7204  0.2276
  998MOL0     C31656   3.310   8.924   4.374  0.1670 -0.6109  0.1614
  998MOL0     C31657   3.328   8.920   4.507 -0.1406  0.1695 -0.6677
  998MOL0     C31658   3.427   8.797   4.915 -0.9902  0.1484  0.6592
  998MOL0     C31659   3.555   8.782   4.973  0.2570 -0.5226 -0.6522
  998MOL0     C31660   3.566   8.779   5.108 -0.5765 -0.6988 -0.1651
  998MOL0     C31661   3.452   8.796   5.192 -0.0908 -0.3856 -0.6065
  998MOL0     O31662   3.464   8.810   5.327  0.9404  0.3889  0.1802
  998MOL0     C31663   3.430   8.940   5.389 -0.2351 -0.4666 -1.3249
  998MOL0     C31664   3.515   8.965   5.507 -0.3895 -0.0819  0.3928
  998MOL0     C31665   3.663   8.981   5.462  0.6392 -0.3396  0.2798
  998MOL0     C31666   3.758   8.970   5.585 -0.5040  0.1810  0.1520
  998MOL0     C31667   3.895   9.026   5.571  0.1472  0.8270  0.2659
  998MOL0     C31668   4.001   9.087   5.557  0.4444 -1.4295 -0.7239
  998MOL0     C31669   3.325   8.808   5.132 -0.2894 -0.3132  0.3668
  998MOL0     C31670   3.315   8.800   4.998 -0.4169 -0.3589  0.4083
  998MOL0     H31671   3.138   8.652   4.551  2.7118  0.3475  3.3995
  998MOL0     H31672   3.137   8.646   4.299  2.4255 -0.5745 -1.6103
  998MOL0     H31673   3.191   9.041   4.152 -3.5593 -0.2700 -1.4942
  998MOL0     H31674   3.170   8.949   4.000  0.4973 -0.1760  0.0887
  998MOL0     H31675   3.435   8.987   4.133 -0.7019  1.0516  0.6208
  998MOL0     H31676   3.365   9.100   4.006 -0.0130  0.3106  1.2465
  998MOL0     H31677   3.353   8.931   3.845 -2.9353  1.2071  2.2464
  998MOL0     H31678   3.415   8.800   3.954 -0.1718  0.6886  0.5839
  998MOL0     H31679   3.562   9.047   3.856  2.5495 -0.7684 -2.4443
  998MOL0     H31680   3.630   8.949   3.989  1.7835 -0.9103 -1.2360
  998MOL0     H31681   3.633   8.738   3.868 -0.1887 -0.0808 -0.5298
  998MOL0     H31682   3.733   8.866   3.800  0.9030 -3.8507 -0.0652
  998MOL0     H31683   3.581   8.902   3.608 -1.1461 -0.7419  0.0816
  998MOL0     H31684   3.468   8.790   3.695  0.9752 -2.0963  0.2095
  998MOL0     H31685   3.749   8.743   3.587  1.7158 -3.4513 -0.9991
  998MOL0     H31686   3.664   8.628   3.671 -1.6703 -0.4933 -1.0144
  998MOL0     H31687   3.631   8.626   3.411 -1.7412 -1.5204 -0.2741
  998MOL0     H31688   3.521   8.779   3.445  0.9708  2.2804  2.1145
  998MOL0     H31689   3.282   8.711   3.559  0.5951 -0.1159 -0.2178
  998MOL0     H31690   3.107   8.531   3.680 -1.0245 -0.8766 -0.4012
  998MOL0     H31691   3.119   8.367   3.646 -2.4745  0.1813 -1.2513
  998MOL0     H31692   3.095   8.437   3.386 -2.8083 -1.0619 -0.2306
  998MOL0     H31693   3.030   8.582   3.456  0.9411  0.3869  0.2845
  998MOL0     H31694   2.884   8.410   3.383  2.3601  0.5689  0.0526
  998MOL0     H31695   2.933   8.298   3.504 -4.6007 -0.8944 -1.2665
  998MOL0     H31696   2.828   8.583   3.587 -1.6052  0.9146 -2.6684
  998MOL0     H31697   2.858   8.436   3.689  1.6881 -1.6512 -1.9113
  998MOL0     H31698   2.651   8.576   3.777  0.5741 -1.1789 -1.8561
  998MOL0     H31699   2.498   8.772   3.802 -0.6568 -2.1658  1.1837
  998MOL0     H31700   2.203   9.115   3.536 -2.1827  3.2874 -1.2718
  998MOL0     H31701   2.061   9.305   3.579  0.1803 -0.9857 -0.5503
  998MOL0     H31702   2.187   9.576   3.920 -0.5613 -0.4210  3.1591
  998MOL0     H31703   2.059   9.473   3.981 -4.7984 -0.5545 -2.3414
  998MOL0     H31704   1.889   9.592   3.890 -0.0018 -1.8878 -1.0222
  998MOL0     H31705   2.003   9.699   3.793  0.8042  1.7828  1.5568
  998MOL0     H31706   2.024   9.671   4.088  0.3289 -1.2952 -1.1160
  998MOL0     H31707   1.891   9.774   4.018  0.3764 -0.3412  1.9074
  998MOL0     H31708   2.180   9.800   3.943  0.4590  0.2725 -0.2041
  998MOL0     H31709   2.047   9.916   3.900  1.5588 -1.0974 -1.3855
  998MOL0     H31710   2.145   9.867   4.184  0.0152 -1.4132 -0.8245
  998MOL0     H31711   2.012   9.978   4.144 -0.3682 -0.0951 -3.1609
  998MOL0     H31712   2.198  10.117   4.158 -2.5567  2.1878 -2.4735
  998MOL0     H31713   2.198  10.088   3.984  4.3686 -0.9133 -1.1877
  998MOL0     H31714   2.358   9.911   4.177  0.3000  1.7046  1.3559
  998MOL0     H31715   2.379   9.917   4.011 -1.7919  1.8687 -2.1801
  998MOL0     H31716   2.439  10.125   4.219  0.1660  0.3625 -0.3053
  998MOL0     H31717   2.445  10.164   4.045 -0.5604  0.0341 -0.1746
  998MOL0     H31718   2.277   9.348   3.954  0.5636  0.5870  0.3077
  998MOL0     H31719   2.380   9.138   3.915  2.7478  0.7940 -2.6640
  998MOL0     H31720   2.375   8.735   3.396 -0.7018  0.1870  0.3919
  998MOL0     H31721   2.518   8.541   3.361  1.9827 -2.1224  2.0949
  998MOL0     H31722   3.363   9.007   4.327  0.8137 -1.0517  0.0872
  998MOL0     H31723   3.369   9.004   4.563  1.5450 -0.3668 -1.0242
  998MOL0     H31724   3.644   8.785   4.911 -1.0803 -1.9962 -2.7962
  998MOL0     H31725   3.667   8.789   5.147  0.1982  2.1108 -2.5687
  998MOL0     H31726   3.325   8.951   5.419 -0.1138 -1.4399 -0.4882
  998MOL0     H31727   3.447   9.019   5.315  2.1986  0.0009 -0.3522
  998MOL0     H31728   3.480   9.049   5.567 -1.2399 -1.0488  1.2886
  998MOL0     H31729   3.514   8.872   5.565 -1.3671 -1.6727 -2.0446
  998MOL0     H31730   3.670   9.085   5.428 -2.4381 -0.4111 -0.8441
  998MOL0     H31731   3.674   8.904   5.385 -2.0811 -0.3670 -0.1618
  998MOL0     H31732   3.710   9.016   5.672  0.5705  2.1593 -0.2569
  998MOL0     H31733   3.775   8.865   5.612  2.3556  0.1397 -1.4017
  998MOL0     H31734   4.098   9.124   5.533  1.3967 -3.6403 -0.5328
  998MOL0     H31735   3.234   8.821   5.190 -1.2628 -0.6282 -1.0468
  998MOL0     H31736   3.219   8.821   4.952  0.1865  0.3404 -0.5592
  999MOL0     O31737   3.028   3.393   3.660 -0.2321 -0.6846 -0.3915
  999MOL0     C31738   3.098   3.495   3.671 -0.0053 -0.0443  0.0675
  999MOL0     O31739   3.102   3.589   3.580  0.6418  0.1028 -0.5197
  999MOL0     C31740   3.028   3.568   3.469  0.5935 -0.0409 -0.1889
  999MOL0     C31741   3.081   3.488   3.372  0.4500  0.8400  0.8320
  999MOL0     C31742   3.004   3.453   3.256  1.6039  0.4433 -0.0429
  999MOL0     C31743   2.870   3.494   3.245 -0.1375  0.4871  0.3876
  999MOL0     O31744   2.793   3.464   3.132  0.0965  0.5986  0.3207
  999MOL0     C31745   2.822   3.344   3.056 -0.6582  0.1515 -0.2369
  999MOL0     C31746   2.688   3.314   2.984 -1.3586 -0.0767  0.1116
  999MOL0     C31747   2.702   3.192   2.887  0.3726 -0.8513  0.2016
  999MOL0     C31748   2.566   3.149   2.826  0.1987  0.5828 -0.5136
  999MOL0     C31749   2.562   3.071   2.702  0.3140 -0.4532  0.8241
  999MOL0     C31750   2.617   3.154   2.581 -0.6572 -0.4159 -0.3485
  999MOL0     C31751   2.571   3.095   2.452 -0.3060 -0.5446 -0.1767
  999MOL0     C31752   2.637   2.963   2.411  0.2967  0.2786  0.6138
  999MOL0     N31753   2.774   2.978   2.355 -0.6291  0.3829 -0.2410
  999MOL0     C31754   2.802   2.991   2.221 -0.0038  0.1883 -0.5218
  999MOL0     C31755   2.940   3.012   2.214 -1.3342 -0.1138  0.8934
  999MOL0     C31756   3.025   3.049   2.100 -0.5015  0.1157  0.4338
  999MOL0     C31757   3.150   2.955   2.094 -0.2450  0.1574  0.3882
  999MOL0     C31758   3.248   2.983   1.980 -0.4413  0.3859 -0.1877
  999MOL0     C31759   3.188   2.951   1.840  0.7664  0.4670  0.4998
  999MOL0     O31760   3.303   2.977   1.749 -0.5541  0.9143 -0.3888
  999MOL0     C31761   3.334   2.888   1.651  0.2884  1.1359  0.2181
  999MOL0     C31762   3.395   2.946   1.542  0.1806  0.0594 -0.0103
  999MOL0     C31763   3.430   2.867   1.432  0.3293  0.5665 -0.3664
  999MOL0     C31764   3.421   2.728   1.430 -0.5593 -0.6432 -0.4091
  999MOL0     C31765   3.466   2.639   1.321  0.2024  0.1256 -0.6958
  999MOL0     O31766   3.502   2.514   1.352 -0.6146 -0.3808  0.2641
  999MOL0     C31767   3.515   2.418   1.257 -0.8835 -0.8673  0.2759
  999MOL0     C31768   3.641   2.376   1.211 -1.0765 -0.6345  0.0992
  999MOL0     C31769   3.657   2.283   1.106  0.6929  0.0756  0.7731
  999MOL0     C31770   3.539   2.224   1.052  0.4465 -0.6856 -0.0852
  999MOL0     O31771   3.555   2.114   0.967  0.2745  0.1422 -0.3829
  999MOL0     C31772   3.442   2.070   0.885 -0.4556 -0.0912 -0.3208
  999MOL0     C31773   3.483   1.965   0.788 -0.1582 -0.3667  0.3967
  999MOL0     C31774   3.477   1.826   0.859 -0.1889 -0.0273 -0.0020
  999MOL0     C31775   3.564   1.828   0.984  0.0743  0.1531 -0.2044
  999MOL0     C31776   3.609   1.689   1.043 -0.7202  0.1681 -0.5674
  999MOL0     C31777   3.491   1.589   1.073  1.2274 -0.3487 -0.1241
  999MOL0     C31778   3.542   1.463   1.142 -0.2718  0.2512  0.2155
  999MOL0     C31779   3.462   1.341   1.115  0.2064  0.4773 -0.6449
  999MOL0    Cl31780   3.453   1.272   0.949  0.1625  0.2107  0.2768
  999MOL0     C31781   3.411   2.276   1.098 -0.8007  0.5912 -0.3494
  999MOL0     C31782   3.398   2.369   1.201  0.3804 -0.4726  0.3778
  999MOL0     O31783   3.466   2.688   1.205 -0.3439 -0.3953  0.0299
  999MOL0     C31784   3.360   2.674   1.539 -0.6404  0.1572 -0.2936
  999MOL0     C31785   3.315   2.750   1.650 -0.2243  0.5948 -0.2791
  999MOL0     N31786   2.983   3.023   2.345 -0.0625  0.2502  0.4202
  999MOL0     N31787   2.889   2.999   2.435  0.7870 -0.5383  0.6497
  999MOL0     C31788   2.812   3.576   3.347  0.0886  1.2248 -0.1972
  999MOL0     C31789   2.893   3.607   3.464 -0.4533  0.3904  1.5749
  999MOL0     C31790   3.194   3.503   3.780  0.0200  0.4011  0.3079
  999MOL0     C31791   3.323   3.567   3.769  0.1208  1.1627  0.3622
  999MOL0     C31792   3.404   3.582   3.883  0.8915  0.1015  0.5758
  999MOL0     C31793   3.355   3.540   4.007 -0.3756  0.2959  0.1502
  999MOL0     O31794   3.426   3.559   4.130 -0.7392  0.5493 -0.2889
  999MOL0     C31795   3.562   3.516   4.140  0.0089 -1.1456 -0.6521
  999MOL0     C31796   3.605   3.543   4.286 -0.5535 -0.5324 -0.4047
  999MOL0     C31797   3.555   3.437   4.386 -0.0832  0.0848  0.7182
  999MOL0     C31798   3.621   3.445   4.525  0.3763 -0.2393  0.0392
  999MOL0     C31799   3.765   3.411   4.535 -0.1172 -1.3020  0.4342
  999MOL0     C31800   3.879   3.390   4.513 -0.4476 -0.7898  0.0203
  999MOL0     C31801   3.230   3.471   4.020  0.7269  0.2012  0.3471
  999MOL0     C31802   3.148   3.453   3.906  0.1758  0.4222  0.7057
  999MOL0     H31803   3.186   3.461   3.365  0.1397  0.0989 -2.5048
  999MOL0     H31804   3.041   3.391   3.176  1.2549  2.1022 -1.5450
  999MOL0     H31805   2.862   3.261   3.115 -0.8091 -0.6211 -1.1915
  999MOL0     H31806   2.898   3.362   2.979 -0.9653 -2.0913 -1.1447
  999MOL0     H31807   2.667   3.403   2.923  1.0577  0.2999 -0.2777
  999MOL0     H31808   2.613   3.304   3.064 -2.3811  2.6080 -0.3912
  999MOL0     H31809   2.757   3.110   2.935  1.0914 -0.3965  0.1768
  999MOL0     H31810   2.763   3.235   2.807 -2.0303  3.5213  0.4549
  999MOL0     H31811   2.528   3.073   2.895  2.2189 -0.1705 -0.1705
  999MOL0     H31812   2.486   3.223   2.834  0.3025  0.5198  1.7347
  999MOL0     H31813   2.457   3.046   2.685 -0.2764  0.3832  2.9144
  999MOL0     H31814   2.625   2.983   2.720  2.4889  0.8611  0.1047
  999MOL0     H31815   2.725   3.162   2.593 -0.8206  0.2480  0.8419
  999MOL0     H31816   2.566   3.251   2.582  1.3703  0.7141 -1.5377
  999MOL0     H31817   2.462   3.083   2.455 -0.8449  3.2174  1.5596
  999MOL0     H31818   2.603   3.157   2.367  2.6964 -1.3255  0.2638
  999MOL0     H31819   2.573   2.915   2.337 -0.2597  1.9690 -0.0476
  999MOL0     H31820   2.621   2.892   2.493 -0.7788  0.2827  0.4214
  999MOL0     H31821   2.730   2.998   2.140 -1.9405  0.4216  1.1443
  999MOL0     H31822   3.055   3.151   2.124  1.1114 -0.4766  1.0637
  999MOL0     H31823   2.976   3.040   2.003 -2.8877 -1.0519  1.6763
  999MOL0     H31824   3.116   2.851   2.092 -0.8543  0.3633 -0.4089
  999MOL0     H31825   3.202   2.972   2.189  1.2616  1.9756 -0.6996
  999MOL0     H31826   3.267   3.089   2.002 -0.3217  0.8222 -2.2067
  999MOL0     H31827   3.341   2.930   2.000  0.1858  0.5024 -2.4367
  999MOL0     H31828   3.101   3.016   1.830 -0.0027  0.3174  4.7221
  999MOL0     H31829   3.151   2.848   1.830 -0.1963  0.9744 -1.8133
  999MOL0     H31830   3.410   3.052   1.529  0.9574 -0.1677 -1.1274
  999MOL0     H31831   3.485   2.908   1.348  1.2930  3.6259  1.5936
  999MOL0     H31832   3.726   2.424   1.259 -2.4934 -0.0544  2.1780
  999MOL0     H31833   3.751   2.259   1.059 -0.4648 -2.6979 -0.3227
  999MOL0     H31834   3.391   2.157   0.843 -0.1042  2.5633  4.1962
  999MOL0     H31835   3.380   2.023   0.961  2.0608  0.9594  2.5748
  999MOL0     H31836   3.573   1.995   0.733  0.9258 -0.9459  1.8074
  999MOL0     H31837   3.412   1.962   0.704  2.6975 -0.7809 -2.1730
  999MOL0     H31838   3.508   1.742   0.795  1.3709  0.2468  0.3561
  999MOL0     H31839   3.376   1.816   0.900 -0.2182  6.0618  2.5173
  999MOL0     H31840   3.651   1.892   0.967  0.5385 -0.7119 -1.2288
  999MOL0     H31841   3.502   1.867   1.064  0.8061 -4.3250  2.9250
  999MOL0     H31842   3.657   1.718   1.137  0.2621 -2.0516 -0.3219
  999MOL0     H31843   3.685   1.641   0.982  0.6547 -2.0489  2.6422
  999MOL0     H31844   3.438   1.563   0.982 -0.9115  2.4351  0.1948
  999MOL0     H31845   3.417   1.639   1.136 -0.5729 -3.0551  0.0599
  999MOL0     H31846   3.643   1.441   1.108 -0.8116 -2.3529  0.0317
  999MOL0     H31847   3.535   1.488   1.248  1.3870  2.4986 -0.1473
  999MOL0     H31848   3.364   1.369   1.155 -0.0862 -0.2810 -0.8101
  999MOL0     H31849   3.496   1.262   1.182 -0.1503  0.3993 -0.5520
  999MOL0     H31850   3.324   2.224   1.058 -1.4080  0.1251  1.4929
  999MOL0     H31851   3.296   2.384   1.236 -0.3795 -1.8374 -1.0973
  999MOL0     H31852   3.338   2.568   1.548 -0.2704 -0.0206 -1.3952
  999MOL0     H31853   3.269   2.698   1.733  2.0898 -2.1058 -0.5219
  999MOL0     H31854   2.711   3.617   3.337  0.2385  1.3705 -1.2449
  999MOL0     H31855   2.841   3.667   3.538 -2.8579 -2.2419  2.1746
  999MOL0     H31856   3.355   3.591   3.668  0.0522 -1.5167 -0.3723
  999MOL0     H31857   3.502   3.628   3.888  0.1708  1.6554  1.1109
  999MOL0     H31858   3.642   3.557   4.078  0.2651  0.7202  0.8302
  999MOL0     H31859   3.574   3.407   4.141 -1.5892 -1.3484 -0.2477
  999MOL0     H31860   3.715   3.538   4.293 -0.5925 -0.9611 -0.0944
  999MOL0     H31861   3.572   3.643   4.313 -2.1748 -1.0028 -0.5764
  999MOL0     H31862   3.579   3.341   4.340 -3.6932 -0.2752 -0.7857
  999MOL0     H31863   3.447   3.443   4.405 -0.2275 -1.8360  0.6896
  999MOL0     H31864   3.601   3.538   4.580 -2.8310 -0.8878  0.1772
  999MOL0     H31865   3.573   3.364   4.580  2.3321  1.6674  5.1048
  999MOL0     H31866   3.980   3.366   4.486 -0.1737  1.3784 -1.0976
  999MOL0     H31867   3.190   3.426   4.110 -1.6820  1.2472 -0.1105
  999MOL0     H31868   3.055   3.398   3.918  1.1488 -1.1215  1.4016
 1000MOL0     O31869  10.719   4.479   1.246 -0.4703 -0.1433 -0.0636
 1000MOL0     C31870  10.768   4.368   1.226 -0.0526  0.4338 -0.0202
 1000MOL0     O31871  10.848   4.337   1.115  0.1973 -0.3929  0.0686
 1000MOL0     C31872  10.851   4.437   1.020 -0.2616 -0.1533 -0.2193
 1000MOL0     C31873  10.895   4.566   1.044 -0.1198  0.1247 -0.3039
 1000MOL0     C31874  10.876   4.663   0.946 -0.5373 -0.0899  0.0384
 1000MOL0     C31875  10.829   4.632   0.815 -0.6377 -0.4063  0.0139
 1000MOL0     O31876  10.828   4.736   0.725 -0.2816 -0.5135  0.4081
 1000MOL0     C31877  10.810   4.677   0.589 -1.2162 -0.7118  0.2707
 1000MOL0     C31878  10.797   4.800   0.498  0.2171  0.4538 -0.0496
 1000MOL0     C31879  10.930   4.878   0.483  0.1992 -0.8760 -0.4570
 1000MOL0     C31880  11.041   4.785   0.415 -1.0496 -0.1976  0.3441
 1000MOL0     C31881  11.192   4.824   0.463  1.1655  0.4883 -0.0361
 1000MOL0     C31882  11.292   4.737   0.380 -0.9261  0.2973 -0.0038
 1000MOL0     C31883  11.433   4.766   0.441  0.0565 -0.3438  0.4811
 1000MOL0     C31884  11.459   4.911   0.473 -0.7425 -0.4422  0.5154
 1000MOL0     N31885  11.596   4.909   0.533  0.3995 -0.0839  0.3505
 1000MOL0     C31886  11.616   4.938   0.662 -0.6051  0.1746 -0.0859
 1000MOL0     C31887  11.747   4.913   0.686  0.4182 -0.8250  0.4975
 1000MOL0     C31888  11.834   4.932   0.820  0.4167  0.3755 -0.6352
 1000MOL0     C31889  11.959   5.020   0.797 -0.4902  0.6953  0.2170
 1000MOL0     C31890  11.929   5.143   0.711  0.4897 -0.4911 -0.8297
 1000MOL0     C31891  12.027   5.249   0.761  0.8298  0.3269 -0.0386
 1000MOL0     O31892  12.168   5.216   0.744  0.8191 -0.6269 -0.3269
 1000MOL0     C31893  12.269   5.302   0.784  0.8543  0.3366 -0.7071
 1000MOL0     C31894  12.396   5.251   0.829 -1.5279  0.3682 -0.7512
 1000MOL0     C31895  12.499   5.329   0.869 -0.6486 -0.3268 -0.1314
 1000MOL0     C31896  12.476   5.466   0.878  0.5409 -0.5043  0.2767
 1000MOL0     C31897  12.578   5.560   0.929 -0.3655 -0.6203 -0.1102
 1000MOL0     O31898  12.548   5.700   0.936 -0.1901 -0.2786 -0.1602
 1000MOL0     C31899  12.621   5.795   1.012  0.5626 -0.7272  0.7761
 1000MOL0     C31900  12.556   5.923   1.042  0.5486 -0.7976 -0.1557
 1000MOL0     C31901  12.618   6.022   1.116 -0.6242 -0.1971 -0.9098
 1000MOL0     C31902  12.736   5.997   1.176  0.7758  0.1511 -0.3792
 1000MOL0     O31903  12.804   6.100   1.243 -0.2945  0.0806 -0.1860
 1000MOL0     C31904  12.828   6.055   1.381 -0.1399  0.5535 -0.1946
 1000MOL0     C31905  12.874   6.176   1.461 -0.0882 -0.7874 -0.0004
 1000MOL0     C31906  12.952   6.122   1.585  0.0481 -0.4701  0.3837
 1000MOL0     C31907  13.005   6.233   1.671 -0.4830 -0.4970 -0.2662
 1000MOL0     C31908  12.890   6.294   1.759 -0.2110 -0.4223  0.2624
 1000MOL0     C31909  12.937   6.373   1.884 -0.4634  0.1772 -0.5147
 1000MOL0     C31910  13.017   6.493   1.840  0.1076 -0.1156 -0.6048
 1000MOL0     C31911  13.021   6.579   1.969  0.3515 -0.8718  0.3746
 1000MOL0    Cl31912  13.124   6.512   2.100  0.3957  0.4034  0.1921
 1000MOL0     C31913  12.794   5.869   1.168  0.8404 -0.6771  0.2231
 1000MOL0     C31914  12.743   5.779   1.074 -0.3470  0.1862 -1.4097
 1000MOL0     O31915  12.686   5.506   0.956  0.0338 -0.3717  1.0280
 1000MOL0     C31916  12.357   5.523   0.822 -0.3048  1.1466  0.4921
 1000MOL0     C31917  12.249   5.443   0.790 -0.6199  0.4661 -0.4856
 1000MOL0     N31918  11.813   4.891   0.557 -0.6381 -0.0762  0.0470
 1000MOL0     N31919  11.718   4.893   0.472 -0.1992  0.2823 -0.0386
 1000MOL0     C31920  10.792   4.498   0.794  0.7511  0.2241  0.1559
 1000MOL0     C31921  10.797   4.399   0.894  0.4422  0.4260  0.7392
 1000MOL0     C31922  10.749   4.258   1.331  0.5262 -0.6509  0.5294
 1000MOL0     C31923  10.650   4.273   1.424  0.0411 -0.0308 -0.2973
 1000MOL0     C31924  10.650   4.177   1.523 -0.2059  0.2358  0.3794
 1000MOL0     C31925  10.725   4.060   1.526  0.7558  0.1729  0.0251
 1000MOL0     O31926  10.690   3.969   1.617  0.1951 -0.6207 -0.8081
 1000MOL0     C31927  10.790   3.878   1.651 -0.4488 -0.3118  0.4935
 1000MOL0     C31928  10.755   3.832   1.785 -0.2327 -0.6549 -0.4658
 1000MOL0     C31929  10.836   3.712   1.815 -0.7169 -1.3391  0.0290
 1000MOL0     C31930  10.776   3.635   1.941  0.8751  0.1610 -0.3442
 1000MOL0     C31931  10.791   3.700   2.072 -0.4026 -0.0378  0.2342
 1000MOL0     C31932  10.814   3.769   2.165  0.2201  0.6577 -0.1864
 1000MOL0     C31933  10.820   4.051   1.420 -0.0721  0.0590 -0.3892
 1000MOL0     C31934  10.829   4.149   1.317 -0.9653  0.6345 -0.4215
 1000MOL0     H31935  10.936   4.594   1.141 -1.9662 -1.1623  0.9209
 1000MOL0     H31936  10.903   4.768   0.951  0.3571 -0.1483 -2.3428
 1000MOL0     H31937  10.713   4.629   0.574 -2.1194  0.8889  0.7081
 1000MOL0     H31938  10.885   4.603   0.562 -1.6226 -0.6416 -1.0944
 1000MOL0     H31939  10.725   4.869   0.542  1.2465  1.8229 -0.4301
 1000MOL0     H31940  10.758   4.764   0.402  2.4088 -3.3665  0.2883
 1000MOL0     H31941  10.961   4.918   0.580 -1.5631  0.3040 -0.3446
 1000MOL0     H31942  10.903   4.967   0.426 -4.0204  0.0631  2.5658
 1000MOL0     H31943  11.019   4.679   0.430 -0.4187 -0.7718 -2.2294
 1000MOL0     H31944  11.031   4.800   0.307  0.5707  2.5120  0.4780
 1000MOL0     H31945  11.205   4.805   0.570  0.6888 -1.8035 -0.3469
 1000MOL0     H31946  11.215   4.929   0.443 -0.3586  0.5516 -1.7443
 1000MOL0     H31947  11.287   4.759   0.273 -3.0469  0.7971  0.1494
 1000MOL0     H31948  11.268   4.632   0.399 -2.1006  0.7766  1.3083
 1000MOL0     H31949  11.426   4.709   0.534  0.3607 -2.0533 -0.5144
 1000MOL0     H31950  11.517   4.728   0.384  1.7478  2.9156  0.5615
 1000MOL0     H31951  11.386   4.965   0.533 -2.5770 -0.7218 -1.3571
 1000MOL0     H31952  11.462   4.959   0.374 -1.2267  0.6655  1.0245
 1000MOL0     H31953  11.529   4.955   0.726 -3.3895 -3.7346 -2.4075
 1000MOL0     H31954  11.867   4.834   0.856 -1.8950 -0.1846  0.1601
 1000MOL0     H31955  11.778   4.984   0.898  0.6768  0.7374 -0.6891
 1000MOL0     H31956  12.034   4.954   0.751 -1.3013 -0.0463 -0.0742
 1000MOL0     H31957  11.991   5.041   0.900 -3.0847  0.5792  1.1153
 1000MOL0     H31958  11.953   5.121   0.607 -1.0945  0.9074 -1.5337
 1000MOL0     H31959  11.827   5.183   0.710  1.3505  2.3964  2.7474
 1000MOL0     H31960  12.000   5.271   0.864 -2.1098  0.0584 -0.6556
 1000MOL0     H31961  12.018   5.334   0.693 -2.9607  2.2013  2.4745
 1000MOL0     H31962  12.417   5.145   0.819  2.0735  0.7558  1.0183
 1000MOL0     H31963  12.586   5.282   0.915  0.6985  3.8009  1.9841
 1000MOL0     H31964  12.457   5.950   1.007  0.6341 -1.0237 -0.5824
 1000MOL0     H31965  12.582   6.121   1.141  0.8749 -0.1394  1.3140
 1000MOL0     H31966  12.905   5.980   1.397 -1.3210 -0.4256  1.1638
 1000MOL0     H31967  12.743   6.004   1.427 -0.2796 -0.2968 -1.3442
 1000MOL0     H31968  12.785   6.233   1.488  0.1040  0.9239 -2.6386
 1000MOL0     H31969  12.948   6.236   1.408 -1.9322  0.8028 -0.9063
 1000MOL0     H31970  13.024   6.046   1.553 -0.8144 -1.4337  0.6697
 1000MOL0     H31971  12.889   6.066   1.655  0.6281 -0.5071  0.8892
 1000MOL0     H31972  13.096   6.206   1.725  0.7694  1.4018 -1.3112
 1000MOL0     H31973  13.038   6.312   1.603 -2.1182 -1.6755 -2.5660
 1000MOL0     H31974  12.837   6.210   1.806  2.9630 -0.8801  3.5583
 1000MOL0     H31975  12.820   6.353   1.700 -0.4360 -0.5619  0.3869
 1000MOL0     H31976  12.989   6.304   1.951  3.3510  2.3827 -0.8861
 1000MOL0     H31977  12.855   6.409   1.947  0.5783  4.0663 -1.1179
 1000MOL0     H31978  13.119   6.473   1.808  0.6226  0.6860  0.4451
 1000MOL0     H31979  12.979   6.536   1.747  1.9626 -3.3490 -3.0490
 1000MOL0     H31980  12.919   6.595   2.006  0.0759 -2.7432  0.5283
 1000MOL0     H31981  13.063   6.676   1.943 -0.4880 -1.2969 -3.0475
 1000MOL0     H31982  12.896   5.852   1.199  0.7426 -0.0307  0.9213
 1000MOL0     H31983  12.796   5.685   1.060  0.3409  0.8449 -3.5596
 1000MOL0     H31984  12.345   5.630   0.806  0.9975  1.8631  3.4631
 1000MOL0     H31985  12.147   5.474   0.773 -1.5541 -2.3251 -0.5701
 1000MOL0     H31986  10.771   4.458   0.695  0.0140  1.2200 -0.1098
 1000MOL0     H31987  10.759   4.300   0.871  2.1447  0.1345 -1.0866
 1000MOL0     H31988  10.593   4.365   1.428  2.0983  1.4121  5.1611
 1000MOL0     H31989  10.572   4.159   1.597  0.8825  1.1493  1.7851
 1000MOL0     H31990  10.897   3.903   1.652  0.1053 -2.2780 -1.7140
 1000MOL0     H31991  10.782   3.795   1.581 -3.7520  0.7048 -0.5206
 1000MOL0     H31992  10.777   3.904   1.864 -3.2689  0.1339 -0.2225
 1000MOL0     H31993  10.647   3.814   1.791 -0.2785 -1.0689 -2.2254
 1000MOL0     H31994  10.938   3.746   1.835  0.2187 -2.6306 -2.2887
 1000MOL0     H31995  10.842   3.651   1.725  2.7546  0.9509 -1.5185
 1000MOL0     H31996  10.671   3.611   1.923  0.2856  0.0182  2.7181
 1000MOL0     H31997  10.833   3.542   1.948  1.3728  0.4118 -0.9388
 1000MOL0     H31998  10.827   3.835   2.248 -2.5461  1.1230 -0.0138
 1000MOL0     H31999  10.875   3.959   1.402 -3.4604 -2.0581 -0.8481
 1000MOL0     H32000  10.901   4.115   1.242 -0.6097  3.1314 -1.3189
 1001MOL0     O32001   1.432   8.959   8.134 -0.3404 -0.8575  0.0533
 1001MOL0     C32002   1.325   8.998   8.188 -0.0547  1.5764 -0.2161
 1001MOL0     O32003   1.216   9.049   8.125  0.2343  0.3385  0.4339
 1001MOL0     C32004   1.230   9.092   8.002  0.4440 -0.5630  0.1773
 1001MOL0     C32005   1.234   9.002   7.895 -0.1000 -0.0857 -0.0024
 1001MOL0     C32006   1.245   9.055   7.773  0.1582 -0.3558 -0.6169
 1001MOL0     C32007   1.245   9.195   7.748 -0.8599 -0.5004 -0.5910
 1001MOL0     O32008   1.262   9.235   7.618  0.1641  0.3182 -0.0338
 1001MOL0     C32009   1.267   9.372   7.571 -0.3422  0.0934  0.2304
 1001MOL0     C32010   1.408   9.433   7.604 -0.4715 -0.3764 -0.1278
 1001MOL0     C32011   1.381   9.582   7.567 -0.1048 -0.4006 -0.2253
 1001MOL0     C32012   1.510   9.659   7.576 -0.8184  0.3810 -0.4966
 1001MOL0     C32013   1.523   9.790   7.506  0.1250  0.1264 -0.0069
 1001MOL0     C32014   1.429   9.909   7.548 -0.3169 -0.0538  0.2990
 1001MOL0     C32015   1.419  10.003   7.423 -0.2822  0.5157 -0.0588
 1001MOL0     C32016   1.347  10.140   7.445 -0.1249  0.4870  0.6866
 1001MOL0     N32017   1.318  10.216   7.320  0.0087  0.2192 -1.1311
 1001MOL0     C32018   1.378  10.199   7.198 -0.2718  0.1824 -0.5714
 1001MOL0     C32019   1.307  10.272   7.109  0.2412 -0.2732 -0.6878
 1001MOL0     C32020   1.344  10.285   6.965 -1.5804 -0.9338  0.7058
 1001MOL0     C32021   1.302  10.152   6.892 -0.0403  0.6581  0.6545
 1001MOL0     C32022   1.148  10.157   6.872  0.1737  0.3164  0.6237
 1001MOL0     C32023   1.099  10.040   6.805  1.0243 -0.0484  0.3047
 1001MOL0     O32024   1.045   9.948   6.898 -0.1925  0.5458  0.1355
 1001MOL0     C32025   0.980   9.835   6.842  0.9324  0.2534  0.0280
 1001MOL0     C32026   0.983   9.786   6.708 -1.0395 -0.1766  0.1714
 1001MOL0     C32027   0.908   9.674   6.671 -0.4190  1.1791 -0.4448
 1001MOL0     C32028   0.836   9.603   6.770 -0.2842 -0.0584  0.7353
 1001MOL0     C32029   0.775   9.474   6.742 -0.7240  0.3543  0.1512
 1001MOL0     O32030   0.709   9.414   6.850  0.0373 -0.1191 -0.0533
 1001MOL0     C32031   0.651   9.288   6.830  0.4040 -0.1493  0.5046
 1001MOL0     C32032   0.715   9.171   6.785 -0.7934  0.3782 -0.6183
 1001MOL0     C32033   0.636   9.055   6.772 -0.3411 -0.1591 -0.0611
 1001MOL0     C32034   0.501   9.051   6.806  0.5632 -0.9700 -0.1097
 1001MOL0     O32035   0.434   8.935   6.784  0.0136  0.9349 -0.2710
 1001MOL0     C32036   0.332   8.906   6.885  0.3728 -0.5154  0.4269
 1001MOL0     C32037   0.244   8.790   6.847  0.0334  0.4296 -0.5533
 1001MOL0     C32038   0.145   8.841   6.738  0.1568 -0.6205 -0.2447
 1001MOL0     C32039   0.155   8.767   6.598  1.0074  1.4025 -0.4090
 1001MOL0     C32040   0.153   8.613   6.601  0.3832  0.4109  0.1052
 1001MOL0     C32041   0.042   8.550   6.671 -1.4958 -0.3294 -0.1986
 1001MOL0     C32042   0.048   8.403   6.636  0.2792  0.5387 -0.4720
 1001MOL0     C32043  -0.070   8.360   6.541  0.0868  0.1016  0.1882
 1001MOL0    Cl32044  -0.093   8.473   6.401 -0.4910  0.1276  0.6320
 1001MOL0     C32045   0.438   9.170   6.831 -0.9239 -0.9383 -0.1822
 1001MOL0     C32046   0.510   9.291   6.844 -0.5048 -0.7862 -0.5610
 1001MOL0     O32047   0.775   9.426   6.627 -0.9855 -0.1860 -0.2612
 1001MOL0     C32048   0.828   9.657   6.899  0.0724  0.2492 -0.2604
 1001MOL0     C32049   0.904   9.766   6.939  0.3253 -0.2679  0.7267
 1001MOL0     N32050   1.204  10.335   7.187 -0.7582 -0.7167 -0.6899
 1001MOL0     N32051   1.214  10.300   7.312  0.0023  0.4601  0.8547
 1001MOL0     C32052   1.245   9.285   7.855  0.8209  0.0879 -0.4629
 1001MOL0     C32053   1.225   9.234   7.984 -0.1194  0.2551 -0.8583
 1001MOL0     C32054   1.302   8.994   8.334  0.9705  0.2412  0.8547
 1001MOL0     C32055   1.394   8.933   8.416 -0.0841  0.9966 -0.3330
 1001MOL0     C32056   1.374   8.913   8.556  0.4323  0.2688  0.3520
 1001MOL0     C32057   1.242   8.936   8.607  0.3100 -0.5394 -0.8365
 1001MOL0     O32058   1.202   8.923   8.739  1.2254 -0.2947 -0.0577
 1001MOL0     C32059   1.205   8.787   8.800  0.2753  0.0934 -1.5221
 1001MOL0     C32060   1.332   8.760   8.875 -0.9234 -1.0050  0.8562
 1001MOL0     C32061   1.407   8.886   8.922 -1.2713  0.3540  0.4115
 1001MOL0     C32062   1.337   8.968   9.040  0.1219 -0.2276  0.1928
 1001MOL0     C32063   1.272   8.881   9.130 -0.0705  0.7209 -0.2624
 1001MOL0     C32064   1.216   8.799   9.210 -0.1864 -0.1401 -0.6087
 1001MOL0     C32065   1.142   9.000   8.522 -0.6362 -0.3182 -0.4264
 1001MOL0     C32066   1.171   9.027   8.390 -0.2766  0.5040  0.0683
 1001MOL0     H32067   1.264   8.899   7.914  0.5610 -0.5277 -3.0189
 1001MOL0     H32068   1.275   8.995   7.688  0.7164 -1.7382  0.5306
 1001MOL0     H32069   1.184   9.426   7.616 -2.1327 -1.0157 -1.5924
 1001MOL0     H32070   1.247   9.368   7.463 -4.3236 -1.1853  0.8674
 1001MOL0     H32071   1.491   9.398   7.542  1.0125  0.2680  1.4146
 1001MOL0     H32072   1.448   9.422   7.705  1.8461  2.5008 -0.6344
 1001MOL0     H32073   1.301   9.627   7.626 -0.7946  0.3582 -1.6759
 1001MOL0     H32074   1.343   9.589   7.464 -1.4512  1.8804  0.3625
 1001MOL0     H32075   1.521   9.671   7.684 -1.3868  3.4453 -0.6808
 1001MOL0     H32076   1.596   9.595   7.554 -2.1254 -0.8896 -2.2371
 1001MOL0     H32077   1.489   9.773   7.404  0.9423  2.5686 -0.7546
 1001MOL0     H32078   1.627   9.817   7.525  0.9686 -2.9409  0.1229
 1001MOL0     H32079   1.474   9.967   7.630  0.1076 -0.9856  0.7400
 1001MOL0     H32080   1.333   9.869   7.582 -0.8284 -1.8232 -2.8982
 1001MOL0     H32081   1.524  10.017   7.394 -0.5230  0.6400 -0.8840
 1001MOL0     H32082   1.358   9.937   7.361  0.7247  1.6364 -2.3459
 1001MOL0     H32083   1.398  10.201   7.520  2.8243 -2.2679  1.1273
 1001MOL0     H32084   1.250  10.129   7.495 -0.9763  2.9631 -0.2641
 1001MOL0     H32085   1.461  10.140   7.161  0.5354  2.3955 -2.5663
 1001MOL0     H32086   1.452  10.296   6.967 -1.7325  1.4081 -0.4674
 1001MOL0     H32087   1.288  10.364   6.913 -4.2118 -3.6498 -0.9002
 1001MOL0     H32088   1.332  10.069   6.958 -0.0732 -0.4025 -0.6367
 1001MOL0     H32089   1.361  10.137   6.801 -2.2452 -0.8401 -0.6038
 1001MOL0     H32090   1.098  10.176   6.968 -3.5562 -0.8673 -0.8803
 1001MOL0     H32091   1.106  10.230   6.803 -0.2780 -1.8079 -1.4829
 1001MOL0     H32092   1.182   9.989   6.755  1.6481  1.4238 -0.2215
 1001MOL0     H32093   1.034  10.067   6.721  2.4592 -1.1397 -1.2271
 1001MOL0     H32094   1.054   9.831   6.639 -0.1547  2.0346  2.3727
 1001MOL0     H32095   0.912   9.638   6.568 -1.3096 -1.1308  0.2710
 1001MOL0     H32096   0.823   9.164   6.774 -0.6270  2.8270 -1.1692
 1001MOL0     H32097   0.686   8.962   6.747 -2.4935 -1.7449  1.1929
 1001MOL0     H32098   0.262   8.990   6.892 -0.1017 -0.1629 -4.8571
 1001MOL0     H32099   0.380   8.882   6.981  0.0619  2.3646  1.3959
 1001MOL0     H32100   0.189   8.764   6.938  0.1283  0.2895 -0.5360
 1001MOL0     H32101   0.295   8.699   6.816 -3.1517 -1.7339  0.0301
 1001MOL0     H32102   0.153   8.949   6.721  1.4478 -0.7554 -0.6559
 1001MOL0     H32103   0.043   8.825   6.775 -0.8450 -0.6447 -2.8556
 1001MOL0     H32104   0.065   8.795   6.542  2.2715  1.5668 -2.4378
 1001MOL0     H32105   0.241   8.793   6.537  3.4668 -3.2997  0.6282
 1001MOL0     H32106   0.253   8.577   6.628  0.2735 -0.3777 -0.5041
 1001MOL0     H32107   0.144   8.577   6.498 -1.7351 -0.5544  0.5831
 1001MOL0     H32108  -0.048   8.593   6.624 -3.0235 -1.3189  1.6772
 1001MOL0     H32109   0.050   8.572   6.778  1.3391  3.6316 -1.0171
 1001MOL0     H32110   0.144   8.374   6.592 -0.3903  0.4975 -1.9744
 1001MOL0     H32111   0.032   8.346   6.728 -4.0354  0.7839 -0.8668
 1001MOL0     H32112  -0.160   8.367   6.602  0.0815  0.0974  0.1793
 1001MOL0     H32113  -0.073   8.259   6.499 -3.6659  1.3547 -3.2234
 1001MOL0     H32114   0.330   9.178   6.817 -1.0775 -4.5279 -2.2561
 1001MOL0     H32115   0.471   9.391   6.854  1.0215 -0.3026  1.1957
 1001MOL0     H32116   0.781   9.612   6.986 -2.4782  2.5778 -0.2769
 1001MOL0     H32117   0.900   9.807   7.040  2.3509  3.1303 -0.3923
 1001MOL0     H32118   1.249   9.393   7.845  0.9509  0.4873  2.9125
 1001MOL0     H32119   1.219   9.305   8.065  0.8710  1.4765 -1.8131
 1001MOL0     H32120   1.491   8.905   8.377 -1.7899 -1.5687 -3.1149
 1001MOL0     H32121   1.451   8.872   8.621  0.0400 -1.1664 -0.0439
 1001MOL0     H32122   1.191   8.713   8.722  1.5541  0.0366 -1.7264
 1001MOL0     H32123   1.119   8.774   8.866  1.2164  1.9070  0.1884
 1001MOL0     H32124   1.317   8.694   8.961  0.7629  1.1054  2.9022
 1001MOL0     H32125   1.402   8.714   8.804 -1.4260  2.3110 -2.0759
 1001MOL0     H32126   1.433   8.958   8.844 -2.7161 -0.6866 -1.1162
 1001MOL0     H32127   1.506   8.856   8.957 -0.1852  0.0273 -2.6200
 1001MOL0     H32128   1.417   9.014   9.098  0.5803 -1.4123  0.5324
 1001MOL0     H32129   1.278   9.054   9.008 -1.5585  0.5922  4.6954
 1001MOL0     H32130   1.158   8.719   9.253  0.1512 -0.3305 -0.5047
 1001MOL0     H32131   1.036   9.022   8.537 -0.3591  0.9477 -0.1737
 1001MOL0     H32132   1.081   9.063   8.343  0.5731  2.2849 -0.2886
 1002MOL0     O32133   3.336   5.000   3.483 -0.5746 -0.3005 -0.1793
 1002MOL0     C32134   3.224   4.950   3.464  0.0560 -0.0723 -0.8744
 1002MOL0     O32135   3.125   4.943   3.556 -0.0460  0.1533  0.1664
 1002MOL0     C32136   3.148   5.014   3.673 -0.1439 -0.5628  0.2722
 1002MOL0     C32137   3.162   5.152   3.680  1.2326 -0.2194 -0.7093
 1002MOL0     C32138   3.171   5.207   3.805  0.1652  0.6741 -0.1360
 1002MOL0     C32139   3.162   5.130   3.926  0.1196 -0.8633  0.3119
 1002MOL0     O32140   3.165   5.177   4.054 -0.7683 -0.3735 -0.4175
 1002MOL0     C32141   3.225   5.303   4.076  0.2039 -0.7307  1.3431
 1002MOL0     C32142   3.245   5.332   4.231  1.0134  0.1472  0.1202
 1002MOL0     C32143   3.325   5.461   4.252 -0.0409 -0.0344  0.2521
 1002MOL0     C32144   3.476   5.426   4.281  0.0522  0.1176  0.1853
 1002MOL0     C32145   3.567   5.554   4.311  1.2624 -0.5217 -0.4812
 1002MOL0     C32146   3.520   5.628   4.435 -0.0849 -0.6492 -0.5814
 1002MOL0     C32147   3.620   5.731   4.474 -0.0282 -0.2804  0.4743
 1002MOL0     C32148   3.745   5.679   4.538 -0.0944  0.3031  0.1144
 1002MOL0     N32149   3.834   5.806   4.526  0.4053 -0.3672 -0.7407
 1002MOL0     C32150   3.856   5.899   4.628  0.5084 -0.6907 -0.3010
 1002MOL0     C32151   3.961   5.976   4.581  0.9458  1.0481  0.5413
 1002MOL0     C32152   4.024   6.100   4.637  0.2322  0.3115  0.9491
 1002MOL0     C32153   4.177   6.095   4.634 -0.7791 -0.3141  0.4569
 1002MOL0     C32154   4.235   5.967   4.684 -0.4939  0.2867  0.0702
 1002MOL0     C32155   4.371   6.003   4.740 -0.3282  1.0309 -0.3171
 1002MOL0     O32156   4.435   5.900   4.815 -0.6177 -0.4448  0.2142
 1002MOL0     C32157   4.441   5.897   4.955 -0.5044 -0.4323  0.9511
 1002MOL0     C32158   4.334   5.917   5.031  0.4692  0.1298  0.1618
 1002MOL0     C32159   4.339   5.905   5.163 -0.5583  0.0006  0.1427
 1002MOL0     C32160   4.456   5.861   5.231  1.0084 -0.4431  0.2821
 1002MOL0     C32161   4.465   5.833   5.376  0.6237 -0.0695 -0.2322
 1002MOL0     O32162   4.355   5.868   5.449  0.2395  0.3831 -0.0422
 1002MOL0     C32163   4.336   5.822   5.578 -1.2179 -0.5227 -0.0109
 1002MOL0     C32164   4.231   5.884   5.653  0.0550 -0.3842 -0.3478
 1002MOL0     C32165   4.234   5.862   5.793  0.7358 -0.1702 -0.1851
 1002MOL0     C32166   4.284   5.743   5.846 -0.0412  0.5253 -1.1344
 1002MOL0     O32167   4.253   5.692   5.973  0.2906  0.2257 -0.9110
 1002MOL0     C32168   4.164   5.770   6.066 -0.0705  0.5438  0.6831
 1002MOL0     C32169   4.151   5.716   6.204 -0.1310  0.1829  0.3758
 1002MOL0     C32170   4.065   5.812   6.297  0.0178  0.6747  0.3520
 1002MOL0     C32171   4.015   5.732   6.418  0.2678 -0.6847 -0.2694
 1002MOL0     C32172   3.926   5.814   6.506  0.6344 -0.5406 -0.0507
 1002MOL0     C32173   3.791   5.828   6.434 -0.5446  0.5064  0.1177
 1002MOL0     C32174   3.692   5.908   6.524 -0.7273 -0.3565  0.0325
 1002MOL0     C32175   3.600   6.007   6.443  0.0966  0.6531 -0.1599
 1002MOL0    Cl32176   3.473   5.914   6.358  0.0567 -0.1242  0.3428
 1002MOL0     C32177   4.356   5.659   5.762  0.7109  0.8880 -0.2753
 1002MOL0     C32178   4.392   5.704   5.634 -0.6038  0.0436 -0.4412
 1002MOL0     O32179   4.575   5.786   5.424  0.8074  0.0747 -0.5648
 1002MOL0     C32180   4.570   5.827   5.150  0.4555  0.1978  0.0549
 1002MOL0     C32181   4.557   5.850   5.012  0.2609  1.5243 -0.2431
 1002MOL0     N32182   4.010   5.922   4.458  0.6628  0.0786 -0.9300
 1002MOL0     N32183   3.938   5.820   4.440  0.0876  0.9108  0.2680
 1002MOL0     C32184   3.137   4.992   3.907 -0.8530 -1.2756  0.2762
 1002MOL0     C32185   3.125   4.935   3.788 -0.0668 -0.8529  0.0546
 1002MOL0     C32186   3.204   4.888   3.335  0.9984  0.4831 -0.1025
 1002MOL0     C32187   3.297   4.896   3.238  0.3921 -0.4630  0.0976
 1002MOL0     C32188   3.296   4.817   3.127  0.1762 -0.0125  0.3431
 1002MOL0     C32189   3.185   4.738   3.101  0.1156 -0.3045 -0.1869
 1002MOL0     O32190   3.176   4.657   2.990  0.4072  0.1319  0.0733
 1002MOL0     C32191   3.227   4.697   2.862 -0.5915 -1.1952 -0.5188
 1002MOL0     C32192   3.123   4.674   2.761 -0.0407 -0.2788  0.3034
 1002MOL0     C32193   3.044   4.539   2.780 -0.5802 -0.9561  0.2598
 1002MOL0     C32194   2.985   4.524   2.644 -0.2792 -0.3747 -0.1992
 1002MOL0     C32195   2.905   4.407   2.620 -0.1951 -0.3794 -0.6814
 1002MOL0     C32196   2.828   4.321   2.608  0.0959  0.3569 -1.0588
 1002MOL0     C32197   3.087   4.738   3.184  0.7864 -0.6711  0.6442
 1002MOL0     C32198   3.090   4.815   3.302 -0.3934  1.9666 -0.1025
 1002MOL0     H32199   3.161   5.203   3.584  0.9937 -1.0304 -1.1396
 1002MOL0     H32200   3.176   5.315   3.818  1.5379  0.7271 -0.9994
 1002MOL0     H32201   3.169   5.382   4.025 -0.2108 -2.3667 -0.9114
 1002MOL0     H32202   3.316   5.298   4.016 -0.0739  2.8287  0.4070
 1002MOL0     H32203   3.305   5.251   4.273  2.0561 -0.4029 -2.2525
 1002MOL0     H32204   3.147   5.335   4.280  2.5893  1.3268  3.5427
 1002MOL0     H32205   3.286   5.507   4.343  1.3352 -1.8176  1.8212
 1002MOL0     H32206   3.306   5.527   4.167 -0.8363 -2.1000 -1.2934
 1002MOL0     H32207   3.486   5.363   4.370 -0.2866  2.3002  1.8415
 1002MOL0     H32208   3.524   5.374   4.197 -0.0940  0.4202 -0.0852
 1002MOL0     H32209   3.577   5.625   4.228  3.5473 -1.7929 -1.3644
 1002MOL0     H32210   3.668   5.515   4.325  0.7141 -2.9739 -2.6311
 1002MOL0     H32211   3.494   5.567   4.522 -1.1467  1.7950  0.9051
 1002MOL0     H32212   3.424   5.675   4.415  1.7775  2.3368 -3.5079
 1002MOL0     H32213   3.634   5.779   4.377 -4.6864 -1.0804 -0.8508
 1002MOL0     H32214   3.566   5.795   4.545 -0.1542  0.3845 -0.2103
 1002MOL0     H32215   3.800   5.596   4.493 -0.0648  0.9091 -1.0124
 1002MOL0     H32216   3.728   5.648   4.641 -0.3866 -0.0693 -0.0436
 1002MOL0     H32217   3.790   5.915   4.713  0.8281 -2.9055  0.4472
 1002MOL0     H32218   3.992   6.112   4.741 -1.4083  2.0081  0.3215
 1002MOL0     H32219   3.990   6.180   4.570 -0.2764 -0.8098 -0.1698
 1002MOL0     H32220   4.208   6.184   4.691 -0.2843 -2.2611  3.4291
 1002MOL0     H32221   4.225   6.114   4.537  1.3926  1.8132  1.8314
 1002MOL0     H32222   4.171   5.918   4.758 -0.5160  1.9785  1.2312
 1002MOL0     H32223   4.240   5.905   4.594  1.8135  0.9637 -0.3382
 1002MOL0     H32224   4.355   6.084   4.812  0.1184  1.1901 -0.3929
 1002MOL0     H32225   4.432   6.041   4.658  0.5774 -0.9971 -0.6254
 1002MOL0     H32226   4.234   5.931   4.991  1.1642  1.6440 -1.1966
 1002MOL0     H32227   4.252   5.926   5.225 -0.5126  1.0469 -0.1388
 1002MOL0     H32228   4.170   5.961   5.608  1.5456 -0.8243 -3.3449
 1002MOL0     H32229   4.182   5.921   5.868  3.6472  1.8803  0.3952
 1002MOL0     H32230   4.069   5.758   6.014  0.0039  0.3034  0.6012
 1002MOL0     H32231   4.188   5.877   6.066  1.4492  0.2908 -1.8825
 1002MOL0     H32232   4.248   5.702   6.251 -0.6514 -1.3989  1.0699
 1002MOL0     H32233   4.112   5.613   6.199  1.8582 -0.5732 -0.8355
 1002MOL0     H32234   3.969   5.841   6.252  0.1314  0.5026 -0.0087
 1002MOL0     H32235   4.093   5.907   6.342 -2.4040  0.6648  2.1110
 1002MOL0     H32236   3.975   5.637   6.381  1.0094 -1.3911  0.7056
 1002MOL0     H32237   4.106   5.708   6.474  0.5639 -1.7869 -1.1791
 1002MOL0     H32238   3.973   5.911   6.527  1.7326 -0.5916 -2.0604
 1002MOL0     H32239   3.908   5.760   6.600 -1.8898  2.1431  1.1953
 1002MOL0     H32240   3.755   5.732   6.397  1.3176 -0.5206  0.8097
 1002MOL0     H32241   3.797   5.891   6.345 -1.8618  1.6167  0.7681
 1002MOL0     H32242   3.630   5.839   6.581 -1.5241  0.7987  0.6036
 1002MOL0     H32243   3.750   5.973   6.590 -2.1283  1.1307 -0.1243
 1002MOL0     H32244   3.664   6.059   6.371  1.4196 -1.6613 -0.7416
 1002MOL0     H32245   3.546   6.075   6.510 -0.0191  1.8338 -1.4128
 1002MOL0     H32246   4.387   5.559   5.788 -3.1102 -0.5618 -0.6894
 1002MOL0     H32247   4.445   5.624   5.584 -2.2976 -0.6374 -1.2140
 1002MOL0     H32248   4.653   5.773   5.195  1.0334 -0.3099 -1.5596
 1002MOL0     H32249   4.641   5.828   4.947 -0.7810 -4.1428 -0.2475
 1002MOL0     H32250   3.131   4.926   3.993  0.0642 -0.2565  1.1513
 1002MOL0     H32251   3.094   4.832   3.774  1.0885 -0.9805 -1.8745
 1002MOL0     H32252   3.379   4.964   3.258 -0.8572  0.4721  2.5712
 1002MOL0     H32253   3.368   4.806   3.046  0.0607 -0.1216  0.2547
 1002MOL0     H32254   3.318   4.640   2.839 -1.3164 -1.4997 -2.8726
 1002MOL0     H32255   3.257   4.802   2.870 -5.4762  0.3415  1.2676
 1002MOL0     H32256   3.052   4.756   2.772 -0.1573 -0.4262  0.6852
 1002MOL0     H32257   3.174   4.678   2.664 -1.5476  0.0463 -0.4985
 1002MOL0     H32258   2.969   4.541   2.859 -1.6831 -1.5487 -0.7546
 1002MOL0     H32259   3.115   4.463   2.815  0.6053 -0.2221 -0.4695
 1002MOL0     H32260   2.911   4.605   2.633 -0.8914 -0.8212  0.5553
 1002MOL0     H32261   3.050   4.542   2.558 -0.2343  0.1278 -0.0646
 1002MOL0     H32262   2.754   4.245   2.592  0.9286 -1.1293  1.6634
 1002MOL0     H32263   3.001   4.681   3.151 -1.3172  1.4530  2.1271
 1002MOL0     H32264   3.012   4.810   3.377 -1.1086  0.1497 -0.8864
 1003MOL0     O32265   8.200   6.491   6.137 -0.1903 -0.1524 -1.1980
 1003MOL0     C32266   8.149   6.379   6.125 -1.0814 -0.4147 -0.3425
 1003MOL0     O32267   8.212   6.260   6.097 -0.5269  0.0588  0.5004
 1003MOL0     C32268   8.342   6.238   6.052  0.4788 -0.6748  0.3955
 1003MOL0     C32269   8.433   6.339   6.016 -0.7370 -0.3724 -0.5175
 1003MOL0     C32270   8.546   6.309   5.938 -0.1196  0.6894 -0.0988
 1003MOL0     C32271   8.573   6.175   5.897  0.0402 -0.1354  0.5908
 1003MOL0     O32272   8.685   6.155   5.823 -0.1492  0.6596  0.3087
 1003MOL0     C32273   8.809   6.229   5.835  0.1321 -0.2414 -0.0512
 1003MOL0     C32274   8.814   6.315   5.706  0.1812  1.0284 -0.0926
 1003MOL0     C32275   8.815   6.238   5.571 -0.5043 -0.1042 -0.5317
 1003MOL0     C32276   8.818   6.337   5.454 -1.0272  0.2711  0.0088
 1003MOL0     C32277   8.939   6.445   5.455  0.0898 -0.2108 -0.5880
 1003MOL0     C32278   8.941   6.514   5.312  0.6548  0.1877 -0.9752
 1003MOL0     C32279   8.808   6.579   5.282  0.2626 -0.4898 -1.2791
 1003MOL0     C32280   8.814   6.678   5.168 -0.3600 -0.1677  0.0188
 1003MOL0     N32281   8.885   6.807   5.185  0.5034 -0.5480 -0.3465
 1003MOL0     C32282   9.010   6.843   5.190  0.4055  0.2879 -0.1360
 1003MOL0     C32283   9.011   6.978   5.199 -0.5322 -0.4062  0.2798
 1003MOL0     C32284   9.145   7.068   5.216 -0.3264  0.0301 -0.3350
 1003MOL0     C32285   9.146   7.182   5.126  0.0809 -0.0915 -0.1136
 1003MOL0     C32286   9.272   7.284   5.134  0.0152 -0.1055 -0.3001
 1003MOL0     C32287   9.264   7.392   5.023  0.4684  0.7271 -0.4734
 1003MOL0     O32288   9.383   7.471   5.023  0.0106  0.1977  0.8084
 1003MOL0     C32289   9.500   7.425   4.963 -1.3330 -0.6297  0.0621
 1003MOL0     C32290   9.591   7.337   5.025  0.9996  0.3421 -0.2055
 1003MOL0     C32291   9.705   7.296   4.962 -0.0397 -0.5420  0.3299
 1003MOL0     C32292   9.741   7.330   4.829  0.4975  1.3392 -1.1228
 1003MOL0     C32293   9.877   7.311   4.774  0.1816  0.3457 -0.7136
 1003MOL0     O32294   9.955   7.231   4.845 -0.6244  0.2254  0.0168
 1003MOL0     C32295  10.089   7.217   4.819 -0.3760 -0.8465 -0.0533
 1003MOL0     C32296  10.182   7.232   4.918  0.1307 -0.5429  1.4078
 1003MOL0     C32297  10.319   7.209   4.895 -0.0081  0.1121  0.4455
 1003MOL0     C32298  10.366   7.154   4.771  0.4312  0.1662  0.1671
 1003MOL0     O32299  10.494   7.155   4.738 -0.4467  0.3349 -0.0944
 1003MOL0     C32300  10.558   7.026   4.761  0.2024  0.5792  0.2194
 1003MOL0     C32301  10.670   7.010   4.658  0.8012 -1.0244 -0.0259
 1003MOL0     C32302  10.729   6.870   4.660 -0.2113 -0.5534 -0.0876
 1003MOL0     C32303  10.837   6.845   4.548 -0.5879  0.5794 -0.0540
 1003MOL0     C32304  10.968   6.906   4.589  0.1869 -0.4328  0.6356
 1003MOL0     C32305  11.084   6.883   4.498  0.4848 -0.6187 -0.1597
 1003MOL0     C32306  11.118   6.743   4.465  0.7535  0.1139  0.0739
 1003MOL0     C32307  11.249   6.730   4.398  0.1588  0.2919  0.1457
 1003MOL0    Cl32308  11.233   6.698   4.233  0.2720 -0.2138 -0.0287
 1003MOL0     C32309  10.270   7.133   4.670 -0.7486  0.2809 -0.5687
 1003MOL0     C32310  10.138   7.172   4.692 -0.7921  0.5580 -0.2633
 1003MOL0     O32311   9.912   7.380   4.680 -0.3180 -0.1558 -0.4630
 1003MOL0     C32312   9.651   7.422   4.761 -0.2894  0.3526  1.1256
 1003MOL0     C32313   9.538   7.470   4.827 -0.4339 -0.7316 -0.3655
 1003MOL0     N32314   8.879   7.024   5.194 -0.3843  0.6348  0.8332
 1003MOL0     N32315   8.804   6.917   5.174 -0.4747 -0.0959  0.4563
 1003MOL0     C32316   8.479   6.075   5.931 -0.5158  0.2834 -0.4179
 1003MOL0     C32317   8.368   6.102   6.007  0.5701 -0.5279 -0.3182
 1003MOL0     C32318   8.007   6.368   6.138  0.0257 -0.7372 -0.7578
 1003MOL0     C32319   7.938   6.251   6.168 -0.1146 -0.3058  0.3649
 1003MOL0     C32320   7.795   6.253   6.184  0.4103 -1.0441  0.8537
 1003MOL0     C32321   7.723   6.369   6.177  1.1346  0.4911  0.4254
 1003MOL0     O32322   7.584   6.378   6.180  0.2650  0.7044  1.0179
 1003MOL0     C32323   7.516   6.267   6.237 -0.8583 -0.3767 -0.6281
 1003MOL0     C32324   7.540   6.249   6.391 -0.1964 -0.4677 -1.1518
 1003MOL0     C32325   7.460   6.124   6.453  1.0382 -0.6662 -0.1897
 1003MOL0     C32326   7.554   6.058   6.553 -0.0707  0.4970  0.7160
 1003MOL0     C32327   7.664   5.999   6.485  0.0288 -0.0024  0.7378
 1003MOL0     C32328   7.757   5.933   6.444  0.1130 -0.3923  0.0911
 1003MOL0     C32329   7.787   6.488   6.170 -0.2514  0.1278  0.8818
 1003MOL0     C32330   7.924   6.483   6.134 -0.1657  0.1758 -0.8738
 1003MOL0     H32331   8.427   6.443   6.044  1.1366  0.0375 -1.4605
 1003MOL0     H32332   8.608   6.392   5.904  0.8277 -0.1581 -0.4620
 1003MOL0     H32333   8.886   6.152   5.823 -1.2855 -1.4668 -1.9882
 1003MOL0     H32334   8.818   6.295   5.922 -0.8095 -1.3723  0.9427
 1003MOL0     H32335   8.904   6.376   5.689  0.7173  0.1312 -0.5540
 1003MOL0     H32336   8.723   6.374   5.701 -2.5120 -2.6284  1.3589
 1003MOL0     H32337   8.727   6.173   5.561 -1.6538  1.1471  0.8562
 1003MOL0     H32338   8.906   6.178   5.567 -1.4174 -1.4820 -1.2108
 1003MOL0     H32339   8.831   6.268   5.370 -2.8570 -1.1688  0.8318
 1003MOL0     H32340   8.721   6.386   5.443 -3.6429 -4.2110  0.7764
 1003MOL0     H32341   9.027   6.387   5.484 -1.0414 -1.7417 -0.0742
 1003MOL0     H32342   8.921   6.519   5.534  0.4679 -0.5489 -0.1848
 1003MOL0     H32343   8.970   6.454   5.225  3.3014  2.7553 -2.0146
 1003MOL0     H32344   9.022   6.587   5.299  2.1943 -0.7577  2.4040
 1003MOL0     H32345   8.740   6.497   5.255 -2.1494  1.0407 -0.2194
 1003MOL0     H32346   8.776   6.627   5.375 -0.0782  0.2433 -1.7549
 1003MOL0     H32347   8.708   6.694   5.145 -0.0059 -0.4894 -2.0410
 1003MOL0     H32348   8.847   6.636   5.072 -3.2612  2.5187 -2.3631
 1003MOL0     H32349   9.088   6.768   5.176  0.6924 -0.3125  3.6205
 1003MOL0     H32350   9.235   7.009   5.199 -1.4817 -1.6698 -0.8295
 1003MOL0     H32351   9.152   7.095   5.322 -2.1557  1.0254 -0.4321
 1003MOL0     H32352   9.064   7.247   5.158 -1.1126 -1.7777  0.3791
 1003MOL0     H32353   9.122   7.148   5.025  1.7054  0.7396 -0.8086
 1003MOL0     H32354   9.283   7.333   5.231  6.1447  1.6117 -1.4578
 1003MOL0     H32355   9.363   7.228   5.114 -1.9753 -2.5927 -3.4392
 1003MOL0     H32356   9.181   7.456   5.053  0.3799  0.2556  0.3314
 1003MOL0     H32357   9.264   7.343   4.925 -3.3681 -0.5810 -0.0055
 1003MOL0     H32358   9.562   7.291   5.118 -3.4584  0.2296 -1.4004
 1003MOL0     H32359   9.771   7.227   5.015 -0.0717 -2.0254 -1.4560
 1003MOL0     H32360  10.173   7.266   5.021  3.2056 -2.7144  2.5480
 1003MOL0     H32361  10.394   7.223   4.973  0.6470 -2.5924  0.3844
 1003MOL0     H32362  10.480   6.950   4.750  0.5003  0.5740 -2.4679
 1003MOL0     H32363  10.605   7.024   4.860 -0.5388  0.4148  0.5713
 1003MOL0     H32364  10.750   7.067   4.706  0.1757 -1.8628  2.1225
 1003MOL0     H32365  10.643   7.052   4.560  2.5159  1.1997  0.3682
 1003MOL0     H32366  10.643   6.807   4.636 -0.3919  0.1017 -1.2158
 1003MOL0     H32367  10.771   6.850   4.759 -0.6839 -2.5508 -0.2536
 1003MOL0     H32368  10.844   6.737   4.532 -3.6090  0.6085 -2.7070
 1003MOL0     H32369  10.801   6.866   4.446 -0.4513  0.9264 -0.0326
 1003MOL0     H32370  11.008   6.873   4.685  1.7958  1.6277  0.7529
 1003MOL0     H32371  10.949   7.012   4.609  0.8555 -0.8950  4.4630
 1003MOL0     H32372  11.173   6.937   4.533  2.7925 -3.7364 -0.7633
 1003MOL0     H32373  11.048   6.934   4.408 -2.3670 -1.4536  0.4039
 1003MOL0     H32374  11.117   6.677   4.552 -1.0146 -0.4761 -0.3666
 1003MOL0     H32375  11.045   6.694   4.401  0.8715  0.0709 -0.0291
 1003MOL0     H32376  11.301   6.645   4.446 -0.4170 -0.4649 -0.5521
 1003MOL0     H32377  11.314   6.817   4.408  1.4360 -0.5991 -0.1555
 1003MOL0     H32378  10.300   7.108   4.569  0.5123  2.2745 -0.7432
 1003MOL0     H32379  10.060   7.171   4.616 -2.2400  0.6602  1.1660
 1003MOL0     H32380   9.689   7.464   4.668  2.9480 -0.5769  1.8867
 1003MOL0     H32381   9.475   7.544   4.776  0.9058 -0.1084 -1.1610
 1003MOL0     H32382   8.496   5.972   5.901  1.3752  0.3775  0.2038
 1003MOL0     H32383   8.290   6.031   6.033  0.2552 -0.5264 -1.2406
 1003MOL0     H32384   7.989   6.156   6.182  1.0437 -0.2402 -2.6011
 1003MOL0     H32385   7.746   6.157   6.197 -1.3369 -0.2686  0.3457
 1003MOL0     H32386   7.533   6.175   6.179 -1.7148  0.0009 -1.5148
 1003MOL0     H32387   7.412   6.292   6.214  0.1454  2.5168 -2.5090
 1003MOL0     H32388   7.649   6.245   6.406 -0.3349 -0.9424 -0.1858
 1003MOL0     H32389   7.506   6.334   6.451 -2.9330 -2.0819 -0.2682
 1003MOL0     H32390   7.433   6.053   6.375  1.4703 -0.2284 -0.7445
 1003MOL0     H32391   7.371   6.160   6.506  2.0379  1.3546  0.1997
 1003MOL0     H32392   7.576   6.131   6.632 -4.7438 -2.4461  5.4214
 1003MOL0     H32393   7.507   5.980   6.613  0.5086 -0.2894  0.1768
 1003MOL0     H32394   7.824   5.861   6.401 -0.0833  0.4503 -1.7077
 1003MOL0     H32395   7.726   6.577   6.179 -3.6316 -2.0367  1.2291
 1003MOL0     H32396   7.978   6.576   6.119  0.9836 -0.0260  1.5172
 1004MOL0     O32397   5.630  10.014   1.749 -1.2723 -0.4270  0.1618
 1004MOL0     C32398   5.633   9.927   1.661  1.3771 -0.6886 -0.4894
 1004MOL0     O32399   5.553   9.930   1.551 -0.0764 -0.1192  0.1003
 1004MOL0     C32400   5.458  10.026   1.535  0.2247 -0.1686  0.3109
 1004MOL0     C32401   5.464  10.123   1.427 -0.6164  0.2239 -0.9897
 1004MOL0     C32402   5.371  10.225   1.425  0.3994 -1.0861 -0.2740
 1004MOL0     C32403   5.259  10.221   1.505  0.0733  0.2125  0.1185
 1004MOL0     O32404   5.157  10.310   1.503  0.2308  0.1342  0.8069
 1004MOL0     C32405   5.162  10.441   1.441 -0.3708 -0.4884 -0.4396
 1004MOL0     C32406   5.034  10.514   1.434 -0.1092 -0.2279 -0.2987
 1004MOL0     C32407   5.035  10.670   1.428  0.0046  0.4350 -0.1239
 1004MOL0     C32408   5.070  10.716   1.286  0.3902  0.7122  0.3539
 1004MOL0     C32409   5.103  10.867   1.280 -0.0708 -0.2887  0.6159
 1004MOL0     C32410   5.254  10.889   1.300  0.6943 -0.1634  1.2656
 1004MOL0     C32411   5.296  11.041   1.304 -0.0451  0.2097  0.0379
 1004MOL0     C32412   5.228  11.126   1.411 -0.3344  0.1617 -0.7114
 1004MOL0     N32413   5.281  11.267   1.399  0.0729  0.5499  0.2101
 1004MOL0     C32414   5.376  11.308   1.483 -0.2319 -1.7678 -0.2313
 1004MOL0     C32415   5.416  11.430   1.432 -1.3060  1.5161  0.4087
 1004MOL0     C32416   5.527  11.521   1.478  0.5811  0.4384  0.1482
 1004MOL0     C32417   5.469  11.630   1.574  1.0226 -0.0956 -0.5718
 1004MOL0     C32418   5.416  11.580   1.708 -0.0866  0.1981  0.3368
 1004MOL0     C32419   5.372  11.689   1.802  0.5169 -0.4078  0.1279
 1004MOL0     O32420   5.255  11.752   1.750  0.0872  0.0014  0.4722
 1004MOL0     C32421   5.251  11.882   1.758  0.0587 -0.3043  0.2017
 1004MOL0     C32422   5.314  11.969   1.847  0.0116 -1.6635  0.3940
 1004MOL0     C32423   5.309  12.110   1.825 -0.0865 -0.0939 -0.0304
 1004MOL0     C32424   5.220  12.169   1.731  0.3639 -0.4551  0.4167
 1004MOL0     C32425   5.203  12.311   1.723  0.3344 -0.2140  0.5167
 1004MOL0     O32426   5.145  12.349   1.601  0.2728  0.3711 -0.1971
 1004MOL0     C32427   5.113  12.482   1.597  0.0445  0.3736 -0.1610
 1004MOL0     C32428   5.190  12.570   1.516  0.2045 -0.1559 -0.3075
 1004MOL0     C32429   5.163  12.708   1.526 -0.6419 -0.0850 -0.1646
 1004MOL0     C32430   5.057  12.750   1.594 -0.5450  0.9175 -0.2921
 1004MOL0     O32431   5.043  12.888   1.617  0.0038 -0.3928  0.2194
 1004MOL0     C32432   5.003  12.932   1.745 -0.3150 -0.5560  0.9590
 1004MOL0     C32433   5.084  13.056   1.772  0.7598 -0.0649  0.6656
 1004MOL0     C32434   5.237  13.045   1.790  0.1299  0.8428  0.5211
 1004MOL0     C32435   5.312  13.163   1.728  0.7587 -0.2852  0.1357
 1004MOL0     C32436   5.465  13.162   1.760  0.6588  0.0264  0.4247
 1004MOL0     C32437   5.523  13.013   1.730  1.0386  0.3052  0.9010
 1004MOL0     C32438   5.669  13.036   1.701 -0.2293 -0.6292 -1.4477
 1004MOL0     C32439   5.754  13.061   1.826  0.2843  1.2778 -0.2939
 1004MOL0    Cl32440   5.797  12.893   1.907 -0.2384 -0.3738  0.2802
 1004MOL0     C32441   4.973  12.660   1.656  0.5528 -1.0357  0.7497
 1004MOL0     C32442   5.004  12.533   1.672 -0.5611 -0.1370  0.2312
 1004MOL0     O32443   5.239  12.386   1.817 -0.5161  0.2966 -0.5376
 1004MOL0     C32444   5.144  12.082   1.647  0.5437 -0.1223 -0.6523
 1004MOL0     C32445   5.166  11.945   1.662 -1.3133  0.8843 -0.2893
 1004MOL0     N32446   5.350  11.447   1.307  0.9694 -0.6710 -0.2338
 1004MOL0     N32447   5.251  11.353   1.300  0.0163 -0.2917  0.2602
 1004MOL0     C32448   5.248  10.118   1.605  0.2639 -0.5056  0.1030
 1004MOL0     C32449   5.351  10.030   1.618 -0.1939 -0.7283  0.6545
 1004MOL0     C32450   5.716   9.802   1.681 -0.3705 -1.5913  0.6814
 1004MOL0     C32451   5.700   9.698   1.580  0.3360 -0.8593  0.1323
 1004MOL0     C32452   5.767   9.584   1.598  0.2890 -0.1603  1.2510
 1004MOL0     C32453   5.852   9.561   1.699  0.4237 -0.3115  0.0748
 1004MOL0     O32454   5.912   9.435   1.709  0.1479 -0.1828 -0.5573
 1004MOL0     C32455   5.983   9.414   1.820  0.2405 -0.4163 -0.2591
 1004MOL0     C32456   6.058   9.285   1.797  0.2785  0.1173  0.0561
 1004MOL0     C32457   6.020   9.171   1.887  0.4365 -0.3119 -0.6025
 1004MOL0     C32458   5.874   9.137   1.881  1.4324 -0.2620 -0.7248
 1004MOL0     C32459   5.860   9.030   1.787  0.5501  0.0512  0.3126
 1004MOL0     C32460   5.865   8.936   1.716 -0.8877  1.1111  0.7429
 1004MOL0     C32461   5.871   9.663   1.796 -0.0120 -1.0378  0.7447
 1004MOL0     C32462   5.807   9.786   1.792  0.4098 -0.0805  0.2562
 1004MOL0     H32463   5.557  10.129   1.371  0.3650  0.4373  0.5954
 1004MOL0     H32464   5.374  10.313   1.361 -1.1470  0.8775  2.1692
 1004MOL0     H32465   5.195  10.432   1.337  1.9294 -1.6246  0.3353
 1004MOL0     H32466   5.238  10.504   1.488 -0.5939 -1.4012  1.2145
 1004MOL0     H32467   4.983  10.491   1.528  0.7686 -0.4718  0.1297
 1004MOL0     H32468   4.968  10.480   1.354  1.2304  1.2806 -2.1353
 1004MOL0     H32469   5.090  10.715   1.510 -0.5598  2.4349 -0.7851
 1004MOL0     H32470   4.930  10.696   1.444 -0.9236 -1.5610 -2.3585
 1004MOL0     H32471   5.143  10.655   1.232 -0.0084  0.0584  0.5387
 1004MOL0     H32472   4.978  10.695   1.231  2.2657 -1.5955 -2.1742
 1004MOL0     H32473   5.049  10.907   1.366  0.7154 -0.3234  1.1332
 1004MOL0     H32474   5.084  10.905   1.180  3.0977 -0.4085 -0.1265
 1004MOL0     H32475   5.287  10.826   1.218 -2.5224 -3.4102  2.2197
 1004MOL0     H32476   5.289  10.832   1.387  2.8004  1.0993  1.3259
 1004MOL0     H32477   5.402  11.049   1.330  0.1887  1.2423 -1.1382
 1004MOL0     H32478   5.274  11.090   1.209 -1.7347 -0.9440 -0.1966
 1004MOL0     H32479   5.223  11.084   1.512 -1.5763  1.2862 -0.2787
 1004MOL0     H32480   5.120  11.125   1.392 -0.8026 -0.6626  1.6905
 1004MOL0     H32481   5.417  11.260   1.571 -1.0243  4.1180  4.0120
 1004MOL0     H32482   5.563  11.578   1.392 -0.2925 -0.4686 -0.8507
 1004MOL0     H32483   5.604  11.453   1.514 -0.9899 -0.6392  1.6254
 1004MOL0     H32484   5.391  11.680   1.516  1.2633 -0.9800 -1.6840
 1004MOL0     H32485   5.540  11.707   1.606  1.4135 -1.9953  4.0061
 1004MOL0     H32486   5.335  11.512   1.681  1.0351 -0.4313 -1.5702
 1004MOL0     H32487   5.500  11.524   1.748  1.6478 -0.7899 -4.1763
 1004MOL0     H32488   5.450  11.766   1.810 -1.9159  2.1186  1.1130
 1004MOL0     H32489   5.362  11.658   1.906  0.2379  3.3765  1.3940
 1004MOL0     H32490   5.380  11.938   1.928  0.9357  0.6883  0.6186
 1004MOL0     H32491   5.366  12.176   1.890  3.1084 -0.2765 -2.4132
 1004MOL0     H32492   5.264  12.546   1.440  0.9066  3.1234 -0.7843
 1004MOL0     H32493   5.221  12.781   1.470  1.9027 -0.1174  2.2289
 1004MOL0     H32494   5.021  12.850   1.816 -1.5117 -1.5154  0.1861
 1004MOL0     H32495   4.898  12.961   1.745  0.3738  2.1637  1.3155
 1004MOL0     H32496   5.034  13.101   1.858 -1.9641 -0.9707 -0.3694
 1004MOL0     H32497   5.071  13.125   1.688  0.5278 -0.9246 -0.0182
 1004MOL0     H32498   5.275  12.949   1.756 -2.5565 -0.9320  2.1187
 1004MOL0     H32499   5.251  13.054   1.898 -1.1720  1.4026  0.6616
 1004MOL0     H32500   5.315  13.155   1.619 -0.2311  0.8381  0.0073
 1004MOL0     H32501   5.271  13.257   1.766  2.3002  0.6449 -0.4029
 1004MOL0     H32502   5.484  13.189   1.865  0.3239 -0.0170  0.4968
 1004MOL0     H32503   5.523  13.231   1.699 -0.4045  0.4074 -0.1736
 1004MOL0     H32504   5.476  12.964   1.644 -1.2069  1.0499  1.6456
 1004MOL0     H32505   5.501  12.943   1.811 -0.2597 -1.3802 -0.8291
 1004MOL0     H32506   5.697  12.944   1.649  1.8670 -0.3661 -0.8688
 1004MOL0     H32507   5.677  13.117   1.628  1.4092 -1.2836 -2.0611
 1004MOL0     H32508   5.687  13.121   1.888 -1.3610  1.0052 -1.7238
 1004MOL0     H32509   5.843  13.117   1.797  0.9966  0.3004 -0.0137
 1004MOL0     H32510   4.887  12.697   1.711  2.3588 -1.6806  4.2559
 1004MOL0     H32511   4.944  12.481   1.745 -0.9657 -1.0441 -0.7190
 1004MOL0     H32512   5.066  12.110   1.577  0.1347  2.1774  0.6310
 1004MOL0     H32513   5.117  11.877   1.593  1.0308 -2.6125  1.2067
 1004MOL0     H32514   5.164  10.111   1.673  1.2234 -4.1901  1.1824
 1004MOL0     H32515   5.354   9.958   1.699  1.8367 -1.2700  0.1626
 1004MOL0     H32516   5.630   9.694   1.497 -0.1284 -1.2221  0.5283
 1004MOL0     H32517   5.751   9.494   1.539 -1.0728  1.3970 -0.9018
 1004MOL0     H32518   5.935   9.415   1.919  0.7087 -1.2564 -0.0102
 1004MOL0     H32519   6.062   9.489   1.819 -1.4205  1.4684  1.3462
 1004MOL0     H32520   6.047   9.252   1.693  1.2764  0.8751 -0.3045
 1004MOL0     H32521   6.167   9.299   1.804 -0.0348  2.3792  1.5059
 1004MOL0     H32522   6.047   9.210   1.986 -1.6573 -0.4650  0.0906
 1004MOL0     H32523   6.078   9.085   1.854 -1.5486 -0.6986 -3.3716
 1004MOL0     H32524   5.849   9.102   1.982  0.8613  1.8995 -0.0762
 1004MOL0     H32525   5.804   9.212   1.845 -0.8363 -2.7453 -1.8044
 1004MOL0     H32526   5.873   8.848   1.656 -3.1347  0.7165  0.9306
 1004MOL0     H32527   5.936   9.637   1.879 -0.3340 -2.6116  0.5444
 1004MOL0     H32528   5.822   9.865   1.864 -2.9026  2.8158 -1.9131
 1005MOL0     O32529  10.608   3.473   8.851  0.2651  0.7616 -0.8351
 1005MOL0     C32530  10.534   3.537   8.775 -0.0702  0.9602 -0.7228
 1005MOL0     O32531  10.452   3.490   8.676 -0.3222  0.0093 -0.8414
 1005MOL0     C32532  10.433   3.355   8.669 -0.1049 -0.8986  0.7979
 1005MOL0     C32533  10.487   3.278   8.576  0.1865 -0.2090  0.8258
 1005MOL0     C32534  10.460   3.135   8.576  0.2544  0.6190 -0.0800
 1005MOL0     C32535  10.383   3.075   8.672  0.9434  0.7051 -1.3346
 1005MOL0     O32536  10.375   2.935   8.690 -0.4573  0.7764 -0.0160
 1005MOL0     C32537  10.244   2.886   8.653  0.0084 -0.5032 -0.4576
 1005MOL0     C32538  10.227   2.725   8.682 -0.8448  0.0367 -0.0540
 1005MOL0     C32539  10.076   2.701   8.671 -0.7506 -0.1764  0.1904
 1005MOL0     C32540  10.059   2.546   8.689  0.0523  0.2877 -0.4949
 1005MOL0     C32541   9.913   2.510   8.674  0.5945  0.5483 -0.9979
 1005MOL0     C32542   9.868   2.384   8.754  0.2473 -0.0523  0.9638
 1005MOL0     C32543   9.718   2.366   8.719  0.7600  0.4611 -0.2167
 1005MOL0     C32544   9.666   2.256   8.805 -0.7560  0.3086  0.7307
 1005MOL0     N32545   9.645   2.281   8.945  0.4135  0.3416  0.5697
 1005MOL0     C32546   9.528   2.318   9.003  0.9594  0.7192 -0.3998
 1005MOL0     C32547   9.561   2.334   9.134  1.0197 -0.1769 -0.4516
 1005MOL0     C32548   9.467   2.382   9.246  0.1185 -0.1530 -0.9733
 1005MOL0     C32549   9.341   2.297   9.282  0.6472  1.1421  0.1117
 1005MOL0     C32550   9.365   2.196   9.392  0.5444 -0.0796 -0.7880
 1005MOL0     C32551   9.250   2.092   9.417  0.2474  0.2609  0.3460
 1005MOL0     O32552   9.142   2.160   9.479 -0.2682 -0.0004  0.4610
 1005MOL0     C32553   9.040   2.089   9.529  0.5210 -1.2863  0.1287
 1005MOL0     C32554   8.977   1.992   9.458 -0.0132  0.1920 -0.3456
 1005MOL0     C32555   8.861   1.935   9.505 -0.7606  0.6839  0.6271
 1005MOL0     C32556   8.808   1.965   9.624 -0.2839 -0.3088  0.4374
 1005MOL0     C32557   8.698   1.890   9.678 -0.8757 -0.0023 -0.4057
 1005MOL0     O32558   8.697   1.875   9.821  0.7668 -0.9478  0.0299
 1005MOL0     C32559   8.608   1.798   9.896  0.3195  0.3033 -1.1252
 1005MOL0     C32560   8.472   1.777   9.848 -0.2333  0.1579 -0.5570
 1005MOL0     C32561   8.379   1.694   9.912 -0.5846  0.2522 -0.2384
 1005MOL0     C32562   8.425   1.634  10.034 -0.7487  0.3377  0.7386
 1005MOL0     O32563   8.355   1.542  10.108  0.7088 -0.2638 -0.2208
 1005MOL0     C32564   8.374   1.404  10.075  0.1684  0.2545 -0.3468
 1005MOL0     C32565   8.424   1.327  10.192 -0.3013 -0.5869 -0.4386
 1005MOL0     C32566   8.308   1.295  10.281 -0.2376  0.0368 -0.0673
 1005MOL0     C32567   8.335   1.200  10.405  0.1656 -0.4629  1.1241
 1005MOL0     C32568   8.211   1.196  10.493 -0.8052 -0.7408  0.8012
 1005MOL0     C32569   8.225   1.118  10.625  0.7045  0.0414 -0.7568
 1005MOL0     C32570   8.080   1.115  10.688  0.5378  0.7966  0.2319
 1005MOL0     C32571   8.054   1.203  10.806 -0.0742 -0.3670 -1.0060
 1005MOL0    Cl32572   8.022   1.374  10.747  0.4305  0.0182 -0.6379
 1005MOL0     C32573   8.558   1.655  10.078  0.3078  0.7520 -0.3022
 1005MOL0     C32574   8.644   1.736  10.014 -0.3952 -0.2595  0.2754
 1005MOL0     O32575   8.629   1.828   9.602  0.9812  0.7142  0.1522
 1005MOL0     C32576   8.870   2.060   9.710 -0.0039  0.5964  0.9269
 1005MOL0     C32577   8.989   2.119   9.659  0.7591 -0.3183  0.2538
 1005MOL0     N32578   9.693   2.329   9.152  0.0748 -0.9185  0.9329
 1005MOL0     N32579   9.743   2.279   9.040 -0.6815 -0.3882 -0.3965
 1005MOL0     C32580  10.337   3.160   8.781 -0.5488 -0.6444  0.0339
 1005MOL0     C32581  10.351   3.302   8.772  0.4721  0.1749  0.1172
 1005MOL0     C32582  10.537   3.684   8.791 -0.1981 -0.5237 -0.0469
 1005MOL0     C32583  10.451   3.767   8.725  0.5117  0.0877  0.1073
 1005MOL0     C32584  10.444   3.903   8.750  0.6383  0.3288 -0.5269
 1005MOL0     C32585  10.513   3.961   8.853  0.0677  0.3885 -0.3681
 1005MOL0     O32586  10.484   4.095   8.872 -0.9250  0.3662  0.0482
 1005MOL0     C32587  10.529   4.160   8.984  0.4163 -0.4782 -1.7788
 1005MOL0     C32588  10.436   4.292   8.994 -0.4893 -0.8772 -1.1862
 1005MOL0     C32589  10.471   4.404   8.903 -0.5566 -0.6149 -0.3522
 1005MOL0     C32590  10.480   4.373   8.751 -0.2163  0.1555  0.0866
 1005MOL0     C32591  10.342   4.335   8.706  0.0774 -0.0293 -0.7707
 1005MOL0     C32592  10.230   4.294   8.686 -0.9067 -0.7089 -0.1564
 1005MOL0     C32593  10.604   3.883   8.931  0.8240  0.4911 -0.6176
 1005MOL0     C32594  10.611   3.744   8.899  0.0642 -0.0222 -0.5439
 1005MOL0     H32595  10.538   3.335   8.499  1.1143  0.1945  1.7084
 1005MOL0     H32596  10.484   3.071   8.491 -1.9607 -1.2798  0.6249
 1005MOL0     H32597  10.219   2.914   8.550 -1.6673  1.3132  0.3784
 1005MOL0     H32598  10.171   2.931   8.721  1.3979  0.1300  0.6511
 1005MOL0     H32599  10.270   2.714   8.781  3.1029  3.1529 -1.1877
 1005MOL0     H32600  10.289   2.675   8.607 -0.1106 -1.3684  1.4475
 1005MOL0     H32601  10.038   2.733   8.573  0.5770 -0.0233 -0.3069
 1005MOL0     H32602  10.013   2.757   8.740 -0.9810 -0.1966 -0.0022
 1005MOL0     H32603  10.120   2.506   8.607  0.4560 -0.2883  0.0791
 1005MOL0     H32604  10.094   2.510   8.787 -1.4912 -1.7803 -0.6496
 1005MOL0     H32605   9.896   2.499   8.567  0.8301  1.3129 -1.1175
 1005MOL0     H32606   9.848   2.590   8.711 -0.6615 -0.8419 -0.0736
 1005MOL0     H32607   9.891   2.396   8.861 -4.8354  2.6979  2.0814
 1005MOL0     H32608   9.916   2.294   8.716 -2.1636 -0.6217 -0.9814
 1005MOL0     H32609   9.662   2.458   8.733 -2.1508 -1.1892 -0.3186
 1005MOL0     H32610   9.689   2.341   8.617  0.9555 -0.7805  0.0156
 1005MOL0     H32611   9.739   2.175   8.797  0.0625  1.2334 -4.1148
 1005MOL0     H32612   9.567   2.228   8.769 -0.7449 -1.1080  1.7458
 1005MOL0     H32613   9.431   2.336   8.958  0.6092 -0.5018 -0.1492
 1005MOL0     H32614   9.442   2.482   9.210  2.3704  0.5128 -0.8383
 1005MOL0     H32615   9.518   2.397   9.342 -2.0994  2.1931 -0.0429
 1005MOL0     H32616   9.314   2.244   9.190  4.0776 -1.3357  0.3399
 1005MOL0     H32617   9.269   2.374   9.310  2.0972  1.1982  4.5274
 1005MOL0     H32618   9.455   2.146   9.356  1.0161  0.3913 -0.2681
 1005MOL0     H32619   9.384   2.243   9.489 -1.9583  2.7238 -1.5079
 1005MOL0     H32620   9.284   2.009   9.479  1.7105  0.5592 -0.0196
 1005MOL0     H32621   9.233   2.056   9.315 -0.9692 -0.3170  0.7447
 1005MOL0     H32622   9.023   1.963   9.364 -0.2289 -0.0202 -0.3873
 1005MOL0     H32623   8.817   1.861   9.439  1.8219 -0.8764  0.5219
 1005MOL0     H32624   8.433   1.828   9.760 -1.6534  0.1623  0.0429
 1005MOL0     H32625   8.285   1.668   9.867 -2.0422 -1.6194  3.4460
 1005MOL0     H32626   8.449   1.400   9.996  2.2377  0.0762  1.5330
 1005MOL0     H32627   8.277   1.363  10.047 -0.1670  1.0263 -0.3360
 1005MOL0     H32628   8.501   1.378  10.249  1.4353 -2.8311 -0.6468
 1005MOL0     H32629   8.462   1.234  10.149 -1.9043 -1.5635  0.1530
 1005MOL0     H32630   8.224   1.243  10.234  1.8292 -5.4816  1.5967
 1005MOL0     H32631   8.279   1.392  10.323  4.2023  0.6402  2.1987
 1005MOL0     H32632   8.366   1.106  10.358  0.3053  1.7120 -3.7744
 1005MOL0     H32633   8.420   1.244  10.458  0.5313  1.2660 -0.7555
 1005MOL0     H32634   8.123   1.163  10.438 -0.4380  1.3685 -1.2136
 1005MOL0     H32635   8.192   1.297  10.531  3.0131 -0.1458  1.5728
 1005MOL0     H32636   8.287   1.168  10.701 -0.5458  2.2559 -1.1071
 1005MOL0     H32637   8.260   1.015  10.618  1.0488  0.0192  0.7816
 1005MOL0     H32638   8.016   1.157  10.610  0.0275  2.9994  1.7374
 1005MOL0     H32639   8.063   1.009  10.710  0.0686  0.5966 -1.0407
 1005MOL0     H32640   8.138   1.200  10.877  0.2643  4.3187 -0.9464
 1005MOL0     H32641   7.971   1.161  10.864  2.5688 -1.5577  2.3112
 1005MOL0     H32642   8.587   1.603  10.169  0.7622  2.4556  0.5720
 1005MOL0     H32643   8.732   1.760  10.073 -1.3107  3.9020  0.2519
 1005MOL0     H32644   8.829   2.097   9.804 -0.5312  0.7238  0.6504
 1005MOL0     H32645   9.039   2.195   9.718  0.0010 -2.4792  3.9840
 1005MOL0     H32646  10.292   3.115   8.869  0.6249  0.1891  1.1052
 1005MOL0     H32647  10.298   3.362   8.846  1.0697 -1.3183  1.8246
 1005MOL0     H32648  10.393   3.735   8.639  1.8006  1.8539 -1.4962
 1005MOL0     H32649  10.390   3.977   8.692  1.3861  2.7697  1.7052
 1005MOL0     H32650  10.634   4.191   8.980 -0.2308  1.9362 -1.4782
 1005MOL0     H32651  10.502   4.100   9.072 -0.5709  4.0554  1.3659
 1005MOL0     H32652  10.335   4.253   8.978 -0.9360 -0.7969  1.0740
 1005MOL0     H32653  10.437   4.331   9.096  3.3140  1.7383 -2.0169
 1005MOL0     H32654  10.561   4.449   8.944 -1.3438  0.0499  0.6973
 1005MOL0     H32655  10.392   4.479   8.908 -1.1255 -1.1638 -0.8812
 1005MOL0     H32656  10.529   4.454   8.696  0.8375  0.0393  0.8436
 1005MOL0     H32657  10.557   4.296   8.742 -1.8350 -1.7022  1.2273
 1005MOL0     H32658  10.132   4.258   8.665 -0.4590 -1.3844 -1.1319
 1005MOL0     H32659  10.657   3.917   9.019 -1.3794  1.0145  0.5659
 1005MOL0     H32660  10.680   3.687   8.961 -0.1244  1.4581  1.0815
 1006MOL0     O32661   6.594   8.396   9.567 -0.2200 -0.6144 -0.3363
 1006MOL0     C32662   6.587   8.353   9.682 -0.7188 -0.0152 -1.7059
 1006MOL0     O32663   6.493   8.259   9.717 -0.1533  0.2473 -0.2773
 1006MOL0     C32664   6.421   8.183   9.629  0.2710 -0.7161  0.1387
 1006MOL0     C32665   6.360   8.234   9.511 -0.1994  0.8200  0.7276
 1006MOL0     C32666   6.279   8.156   9.426 -0.3878  0.5151  0.3821
 1006MOL0     C32667   6.254   8.016   9.469 -1.1371 -0.2436  0.6792
 1006MOL0     O32668   6.179   7.939   9.385 -0.0772  0.0701 -0.4201
 1006MOL0     C32669   6.161   7.799   9.425  0.5927  0.2698  0.4283
 1006MOL0     C32670   6.091   7.722   9.313  0.8202 -0.0919  0.0601
 1006MOL0     C32671   6.148   7.577   9.302  0.5968 -0.1261 -0.2264
 1006MOL0     C32672   6.075   7.496   9.196  0.1988  0.5934 -0.0564
 1006MOL0     C32673   6.109   7.551   9.059 -0.5455  0.4399  0.2520
 1006MOL0     C32674   6.123   7.431   8.964  0.0750  0.2435 -0.0394
 1006MOL0     C32675   6.136   7.492   8.825 -0.3801 -0.2837  0.2535
 1006MOL0     C32676   6.093   7.415   8.706 -0.2222 -0.2772  0.6115
 1006MOL0     N32677   5.953   7.418   8.671  0.2444 -0.4195  0.7869
 1006MOL0     C32678   5.909   7.426   8.535 -0.0755  0.1993  0.4399
 1006MOL0     C32679   5.776   7.404   8.540  0.5580  0.6360 -0.2979
 1006MOL0     C32680   5.681   7.394   8.416 -0.3882  0.4532  0.4370
 1006MOL0     C32681   5.723   7.286   8.315 -0.3862  0.2195  0.7685
 1006MOL0     C32682   5.639   7.300   8.193 -0.1113 -0.5757  1.0259
 1006MOL0     C32683   5.631   7.169   8.113  0.3132 -0.8362  0.0253
 1006MOL0     O32684   5.750   7.093   8.103 -0.4895  0.4906  0.0728
 1006MOL0     C32685   5.840   7.132   8.011 -0.4227  0.5651  0.4808
 1006MOL0     C32686   5.817   7.197   7.888 -0.1138 -0.2958 -0.1944
 1006MOL0     C32687   5.920   7.221   7.805 -0.1183 -0.1061  0.8287
 1006MOL0     C32688   6.053   7.193   7.841  0.7006 -1.1366  0.6761
 1006MOL0     C32689   6.178   7.236   7.761  0.1154  0.5254  1.5697
 1006MOL0     O32690   6.161   7.298   7.645 -0.1896  0.1059 -0.2354
 1006MOL0     C32691   6.265   7.357   7.579 -0.1719  0.2625 -0.6649
 1006MOL0     C32692   6.314   7.482   7.624 -0.3225  0.3361  0.4316
 1006MOL0     C32693   6.393   7.562   7.550 -0.2564  0.2276  0.1450
 1006MOL0     C32694   6.433   7.523   7.424  1.0688 -0.0411 -0.3404
 1006MOL0     O32695   6.508   7.621   7.366 -0.0128 -0.2016  0.1936
 1006MOL0     C32696   6.515   7.597   7.220 -0.4453  0.6392 -0.8447
 1006MOL0     C32697   6.582   7.715   7.139  0.5529 -0.8662 -0.9345
 1006MOL0     C32698   6.551   7.858   7.194  0.7336 -0.2935 -0.2447
 1006MOL0     C32699   6.606   7.977   7.111  0.9733  0.0571 -1.9108
 1006MOL0     C32700   6.545   8.109   7.155 -0.1558  0.3802  0.6902
 1006MOL0     C32701   6.578   8.214   7.050 -0.5084  0.2404  0.4883
 1006MOL0     C32702   6.491   8.339   7.062  0.5437 -0.0654  0.7364
 1006MOL0     C32703   6.565   8.462   7.002  1.0838 -0.8448  0.1603
 1006MOL0    Cl32704   6.631   8.457   6.833 -0.2663 -0.1227  0.0769
 1006MOL0     C32705   6.389   7.400   7.383  0.9953 -0.0548  0.2626
 1006MOL0     C32706   6.304   7.313   7.459 -0.2074  0.2791 -0.7672
 1006MOL0     O32707   6.289   7.218   7.812  0.0290 -0.6004 -0.3661
 1006MOL0     C32708   6.074   7.128   7.967  0.0557  0.7267 -0.2927
 1006MOL0     C32709   5.968   7.104   8.049 -0.9450  0.9003  0.7505
 1006MOL0     N32710   5.745   7.387   8.680  0.5003 -0.7037  0.4106
 1006MOL0     N32711   5.850   7.377   8.748  0.3620 -0.3533  0.2575
 1006MOL0     C32712   6.319   7.968   9.589  0.4837  0.6845 -0.1872
 1006MOL0     C32713   6.400   8.052   9.665  0.2195  0.2699 -0.4642
 1006MOL0     C32714   6.672   8.405   9.792 -0.6732  0.5713 -0.0821
 1006MOL0     C32715   6.641   8.372   9.923  0.6153  0.7199 -0.3466
 1006MOL0     C32716   6.704   8.420  10.035 -0.5402  1.2650  0.7157
 1006MOL0     C32717   6.804   8.518  10.025 -0.1184 -0.0171  0.1658
 1006MOL0     O32718   6.872   8.577  10.128 -0.3742  0.6700  0.1582
 1006MOL0     C32719   6.860   8.524  10.259 -0.4001 -0.0463  0.0488
 1006MOL0     C32720   6.754   8.594  10.351  0.4490  0.4662  1.1166
 1006MOL0     C32721   6.784   8.740  10.336 -0.5825 -0.2438 -0.0523
 1006MOL0     C32722   6.739   8.817  10.460  0.2747  0.0489  0.1853
 1006MOL0     C32723   6.592   8.809  10.501  0.1822  0.2134  0.3760
 1006MOL0     C32724   6.472   8.805  10.514 -0.2834  0.7356 -0.1639
 1006MOL0     C32725   6.840   8.554   9.893 -0.6126 -0.1349 -0.2535
 1006MOL0     C32726   6.776   8.496   9.779  1.0923 -0.6147  0.2406
 1006MOL0     H32727   6.383   8.336   9.480  0.2650  0.5730  0.2404
 1006MOL0     H32728   6.259   8.186   9.324  0.2641 -2.5214 -0.7484
 1006MOL0     H32729   6.111   7.791   9.522 -2.6851 -1.1769 -1.2496
 1006MOL0     H32730   6.253   7.747   9.454  0.0548 -0.0041  1.7393
 1006MOL0     H32731   6.113   7.780   9.223  0.3904 -1.1687 -0.7649
 1006MOL0     H32732   5.983   7.720   9.327  0.5347 -0.7748 -2.0120
 1006MOL0     H32733   6.139   7.519   9.394  1.0860  1.2693  0.7276
 1006MOL0     H32734   6.254   7.586   9.276  0.2283  1.5465 -1.3474
 1006MOL0     H32735   6.109   7.392   9.190 -1.4175  0.0921 -0.9881
 1006MOL0     H32736   5.966   7.490   9.199  0.1563  1.2764 -0.0342
 1006MOL0     H32737   6.194   7.620   9.066 -1.6871  1.9814 -0.5466
 1006MOL0     H32738   6.037   7.623   9.020  1.2513  1.4933 -1.2839
 1006MOL0     H32739   6.032   7.371   8.967 -0.9037  1.6580  3.2828
 1006MOL0     H32740   6.204   7.359   8.982 -0.1342  0.0429  0.1035
 1006MOL0     H32741   6.084   7.586   8.807 -2.1393 -1.3511 -0.4830
 1006MOL0     H32742   6.236   7.534   8.814 -0.8878  0.4568 -2.0818
 1006MOL0     H32743   6.129   7.312   8.713 -2.3563 -1.1406 -0.1672
 1006MOL0     H32744   6.138   7.458   8.616 -0.4581 -2.8811 -0.8433
 1006MOL0     H32745   5.971   7.439   8.446 -1.2259 -1.2443 -0.6082
 1006MOL0     H32746   5.664   7.488   8.362 -2.2788 -1.1550 -2.0450
 1006MOL0     H32747   5.578   7.380   8.451 -0.2777 -0.1974  0.5216
 1006MOL0     H32748   5.707   7.186   8.359  1.3541  0.9951  3.4526
 1006MOL0     H32749   5.828   7.308   8.296 -0.7489  1.8327  0.5229
 1006MOL0     H32750   5.539   7.330   8.225 -1.3660 -1.9254 -1.3280
 1006MOL0     H32751   5.695   7.368   8.130  2.3664 -1.7345  1.8629
 1006MOL0     H32752   5.586   7.193   8.016  2.2714 -0.1763 -0.7647
 1006MOL0     H32753   5.558   7.111   8.170  1.5994 -0.7565  1.8242
 1006MOL0     H32754   5.712   7.210   7.866  0.0974 -2.3919 -3.1652
 1006MOL0     H32755   5.893   7.263   7.709 -0.9949  0.6945  1.4032
 1006MOL0     H32756   6.292   7.516   7.725  2.2728 -5.8143  3.5993
 1006MOL0     H32757   6.432   7.656   7.587  1.3845 -0.2250 -0.3531
 1006MOL0     H32758   6.416   7.575   7.181 -1.2666 -0.4001  1.6235
 1006MOL0     H32759   6.588   7.519   7.196 -0.0870  0.2555  1.2331
 1006MOL0     H32760   6.546   7.711   7.036 -0.8274 -1.2862 -0.4520
 1006MOL0     H32761   6.689   7.693   7.130  0.7075 -0.5300 -0.0116
 1006MOL0     H32762   6.586   7.880   7.295  0.1500  1.0605 -0.3104
 1006MOL0     H32763   6.443   7.864   7.211  0.6585 -0.5140 -0.6318
 1006MOL0     H32764   6.715   7.979   7.120  0.9222  2.2200 -1.1902
 1006MOL0     H32765   6.588   7.950   7.007 -1.0544  3.3555 -2.5487
 1006MOL0     H32766   6.604   8.123   7.247 -2.0830  1.1945  1.8684
 1006MOL0     H32767   6.438   8.095   7.175 -0.7448  0.5805 -1.9308
 1006MOL0     H32768   6.581   8.173   6.948  3.6398  1.1508  0.0818
 1006MOL0     H32769   6.681   8.247   7.068 -0.0630 -0.8122 -0.0083
 1006MOL0     H32770   6.396   8.325   7.009  0.8308  0.3011  0.1150
 1006MOL0     H32771   6.461   8.362   7.165 -2.3156  0.7559 -0.1853
 1006MOL0     H32772   6.638   8.496   7.076 -0.9325  0.7567  1.5038
 1006MOL0     H32773   6.486   8.538   6.997  0.6302 -1.2923  0.5490
 1006MOL0     H32774   6.420   7.373   7.282 -0.0147 -0.0343 -0.0673
 1006MOL0     H32775   6.282   7.215   7.417  2.7808 -1.4923  1.3838
 1006MOL0     H32776   6.173   7.091   7.992 -0.8048 -2.4917 -1.0912
 1006MOL0     H32777   5.992   7.052   8.141  0.6979  1.0955  0.4631
 1006MOL0     H32778   6.311   7.868   9.631 -2.6857  0.1644 -1.7101
 1006MOL0     H32779   6.448   8.012   9.754 -0.1663 -0.4232 -0.5577
 1006MOL0     H32780   6.570   8.293   9.943  1.1754 -0.5635 -2.9574
 1006MOL0     H32781   6.673   8.368  10.125  1.1663  1.1615  1.2662
 1006MOL0     H32782   6.965   8.534  10.288 -0.2566 -0.5870 -0.2663
 1006MOL0     H32783   6.836   8.418  10.257  0.6469 -0.3885  2.4606
 1006MOL0     H32784   6.655   8.572  10.310  1.7536 -0.6196 -1.6450
 1006MOL0     H32785   6.779   8.561  10.452  2.7596 -0.2807  0.3659
 1006MOL0     H32786   6.736   8.783  10.248 -1.9937  0.1820  0.8784
 1006MOL0     H32787   6.890   8.765  10.332 -0.9955  2.7278  2.9101
 1006MOL0     H32788   6.786   8.781  10.552 -2.9338 -0.7422  1.6405
 1006MOL0     H32789   6.771   8.921  10.457 -3.4323  1.2968 -1.0514
 1006MOL0     H32790   6.366   8.820  10.524 -0.1539  2.5413 -0.9381
 1006MOL0     H32791   6.924   8.620   9.871 -2.3866  1.7216 -1.9338
 1006MOL0     H32792   6.802   8.519   9.677 -3.3445  1.2553 -0.7000
 1007MOL0     O32793   2.541   0.904   4.051  1.2392  0.0519  0.3092
 1007MOL0     C32794   2.467   0.836   4.127  0.9445  0.2522  0.5812
 1007MOL0     O32795   2.504   0.723   4.199  0.2084 -0.0154 -0.1813
 1007MOL0     C32796   2.636   0.675   4.209 -0.1517  0.5222  0.3347
 1007MOL0     C32797   2.653   0.563   4.285  0.6494  0.3182  0.4996
 1007MOL0     C32798   2.783   0.525   4.316  0.1080  0.1286 -0.2916
 1007MOL0     C32799   2.897   0.590   4.270 -0.2368 -0.9371 -0.4053
 1007MOL0     O32800   3.018   0.543   4.316 -0.3188  0.7454  0.1739
 1007MOL0     C32801   3.135   0.623   4.287  0.4724  0.1317  0.1494
 1007MOL0     C32802   3.146   0.766   4.362  0.0550  0.5136 -0.3078
 1007MOL0     C32803   3.233   0.882   4.309  0.9214  0.5355  0.3001
 1007MOL0     C32804   3.166   1.027   4.325 -0.6007 -0.2565  0.2104
 1007MOL0     C32805   3.214   1.121   4.214 -0.5846  1.1945 -1.0586
 1007MOL0     C32806   3.110   1.133   4.101  0.0539  0.0537  0.1788
 1007MOL0     C32807   3.146   1.238   3.997 -0.1714  0.0174 -1.0372
 1007MOL0     C32808   3.035   1.259   3.899 -0.5904  0.2564 -1.2020
 1007MOL0     N32809   2.914   1.316   3.952  0.0247 -0.3148  0.0518
 1007MOL0     C32810   2.803   1.246   3.986 -0.4149  0.7342  0.1992
 1007MOL0     C32811   2.704   1.346   4.008 -0.9584  0.6303 -0.6886
 1007MOL0     C32812   2.551   1.311   4.028 -0.1402 -0.2351 -0.3219
 1007MOL0     C32813   2.532   1.254   4.165  0.4055  0.0968 -0.5196
 1007MOL0     C32814   2.423   1.320   4.239  0.3617  0.4680 -0.4205
 1007MOL0     C32815   2.287   1.264   4.202 -0.0436 -0.4973 -0.7887
 1007MOL0     O32816   2.230   1.367   4.109 -0.4838  0.7033 -0.4389
 1007MOL0     C32817   2.100   1.369   4.063 -0.5677 -0.3232 -0.1317
 1007MOL0     C32818   1.993   1.284   4.101 -0.8741  0.7083 -0.1975
 1007MOL0     C32819   1.869   1.289   4.039 -0.1675  0.4897 -0.3914
 1007MOL0     C32820   1.840   1.378   3.938 -0.7639  0.0386  0.2373
 1007MOL0     C32821   1.703   1.392   3.893 -0.4211 -0.8195 -0.1101
 1007MOL0     O32822   1.633   1.277   3.877  0.0539 -0.2727 -0.5921
 1007MOL0     C32823   1.501   1.277   3.838  0.3524  0.3489  0.9567
 1007MOL0     C32824   1.411   1.378   3.851  0.2984 -0.6812 -0.1753
 1007MOL0     C32825   1.283   1.379   3.786 -0.6158  0.9248  0.0366
 1007MOL0     C32826   1.243   1.267   3.709  0.4450  0.1895  0.8297
 1007MOL0     O32827   1.116   1.267   3.647  0.2426  0.0692 -0.3755
 1007MOL0     C32828   1.068   1.149   3.587 -0.0283  0.9616  0.2987
 1007MOL0     C32829   0.959   1.192   3.494 -0.1740 -0.3961  0.2809
 1007MOL0     C32830   0.898   1.078   3.427 -0.1762 -0.5701  1.4382
 1007MOL0     C32831   0.776   1.142   3.353  0.9763 -0.2560  0.0114
 1007MOL0     C32832   0.727   1.035   3.250 -0.3541 -0.1995 -0.5826
 1007MOL0     C32833   0.647   0.920   3.300  0.2922  0.6785 -0.6878
 1007MOL0     C32834   0.604   0.814   3.188  0.4759 -0.1289  0.2660
 1007MOL0     C32835   0.489   0.714   3.235  0.3740 -0.4365 -0.0600
 1007MOL0    Cl32836   0.541   0.587   3.343  0.4937  0.0400 -0.0638
 1007MOL0     C32837   1.337   1.162   3.697 -0.4573  0.7619  1.0111
 1007MOL0     C32838   1.460   1.170   3.756 -0.5726 -0.7994 -0.9599
 1007MOL0     O32839   1.662   1.507   3.866  0.2181  0.3574  0.4203
 1007MOL0     C32840   1.946   1.465   3.899 -0.3419 -0.6889 -0.3814
 1007MOL0     C32841   2.067   1.461   3.962 -0.1393  0.4012 -0.1351
 1007MOL0     N32842   2.765   1.475   3.982  0.2090  0.2956  0.4002
 1007MOL0     N32843   2.885   1.451   3.944 -0.7923 -0.2494 -0.0754
 1007MOL0     C32844   2.875   0.684   4.166 -0.2229  0.4352 -0.8306
 1007MOL0     C32845   2.745   0.733   4.148 -1.0266 -0.2664 -0.6548
 1007MOL0     C32846   2.325   0.846   4.116 -0.2144 -1.1957 -0.7440
 1007MOL0     C32847   2.275   0.857   3.989 -0.3178 -0.3403 -0.2071
 1007MOL0     C32848   2.134   0.863   3.977 -0.1090 -0.0861 -0.3260
 1007MOL0     C32849   2.051   0.862   4.090 -1.0971 -0.3247 -0.7860
 1007MOL0     O32850   1.913   0.870   4.086  0.0708  0.5753  0.4334
 1007MOL0     C32851   1.859   0.926   3.966 -1.0757  0.2070  0.2482
 1007MOL0     C32852   1.708   0.930   4.005 -0.4885 -0.2445 -0.3811
 1007MOL0     C32853   1.656   0.785   4.054 -0.0334  0.0857 -0.5913
 1007MOL0     C32854   1.509   0.775   4.072  0.2440  0.2556  0.5704
 1007MOL0     C32855   1.429   0.790   3.952 -0.1463  0.2274 -0.8932
 1007MOL0     C32856   1.347   0.786   3.880 -0.7850 -0.3569  1.1208
 1007MOL0     C32857   2.109   0.848   4.219 -1.1217 -0.3938  0.0572
 1007MOL0     C32858   2.245   0.839   4.230 -0.0392  0.2691 -0.3127
 1007MOL0     H32859   2.564   0.518   4.328  1.7311  0.5085  3.1027
 1007MOL0     H32860   2.794   0.437   4.378  0.4420 -0.2721 -0.9053
 1007MOL0     H32861   3.138   0.638   4.178 -0.1061 -0.1481  0.0877
 1007MOL0     H32862   3.223   0.562   4.304  0.5120  0.0097 -0.4475
 1007MOL0     H32863   3.178   0.751   4.465  1.0431 -0.2894 -0.7154
 1007MOL0     H32864   3.043   0.801   4.375  0.5494  2.0989 -0.4650
 1007MOL0     H32865   3.245   0.859   4.202  3.7199  0.4774  0.5680
 1007MOL0     H32866   3.330   0.873   4.357  0.6525 -1.5576  0.5655
 1007MOL0     H32867   3.057   1.015   4.325 -0.6053 -0.5934 -1.9377
 1007MOL0     H32868   3.195   1.080   4.416  1.0034  0.8841 -0.9203
 1007MOL0     H32869   3.301   1.084   4.159 -1.8794 -3.2996 -0.5294
 1007MOL0     H32870   3.235   1.214   4.268 -1.2861  1.5381 -1.3670
 1007MOL0     H32871   3.018   1.161   4.154  0.0039 -1.0055  0.6807
 1007MOL0     H32872   3.116   1.033   4.056  1.5605 -0.8654  2.2732
 1007MOL0     H32873   3.166   1.333   4.048  4.0565 -0.3758 -1.6797
 1007MOL0     H32874   3.229   1.199   3.939 -0.3467 -0.3958 -1.0134
 1007MOL0     H32875   3.020   1.165   3.845  0.7014  0.8917 -2.7711
 1007MOL0     H32876   3.077   1.340   3.838 -2.9105  0.9162 -2.0003
 1007MOL0     H32877   2.785   1.139   3.982 -1.5738  0.9481 -1.4163
 1007MOL0     H32878   2.511   1.237   3.957  1.2370  0.9431 -2.4467
 1007MOL0     H32879   2.491   1.402   4.017 -0.0965 -0.1821 -0.1097
 1007MOL0     H32880   2.621   1.274   4.226 -1.6617  2.1955  2.0808
 1007MOL0     H32881   2.525   1.145   4.160  1.0298  0.0446 -0.4313
 1007MOL0     H32882   2.446   1.287   4.341 -0.2823  3.7539  0.9286
 1007MOL0     H32883   2.430   1.429   4.244  0.7588  0.4019  2.1106
 1007MOL0     H32884   2.225   1.249   4.291 -1.3134  0.3969 -1.4806
 1007MOL0     H32885   2.296   1.166   4.155  0.6214 -0.4509 -0.7733
 1007MOL0     H32886   2.010   1.212   4.181 -2.4660  0.4993 -0.0127
 1007MOL0     H32887   1.790   1.223   4.073  0.0886 -0.1351 -0.9791
 1007MOL0     H32888   1.429   1.461   3.919 -0.3189 -1.6329  1.2119
 1007MOL0     H32889   1.220   1.467   3.797 -0.3589  1.1177 -0.0095
 1007MOL0     H32890   1.040   1.075   3.662 -0.4642  2.8652  2.1097
 1007MOL0     H32891   1.149   1.105   3.528  0.7977  2.1238  0.5394
 1007MOL0     H32892   0.986   1.263   3.415 -0.6172 -0.3502  0.1708
 1007MOL0     H32893   0.876   1.244   3.541 -2.2236 -2.6151 -0.7085
 1007MOL0     H32894   0.858   0.994   3.485 -2.8001 -0.4849 -0.1031
 1007MOL0     H32895   0.971   1.043   3.353 -0.5425 -0.3188  0.9509
 1007MOL0     H32896   0.691   1.171   3.415  0.2885 -0.7133 -0.6982
 1007MOL0     H32897   0.803   1.228   3.290  0.6073  0.5316  0.9113
 1007MOL0     H32898   0.804   0.998   3.181 -1.5177 -0.5974 -1.6960
 1007MOL0     H32899   0.660   1.093   3.186 -1.2154 -0.5687 -0.0360
 1007MOL0     H32900   0.563   0.972   3.348  3.0957  2.8757  2.2892
 1007MOL0     H32901   0.706   0.866   3.375 -0.5488  2.4198  1.3259
 1007MOL0     H32902   0.591   0.862   3.091  0.1926 -0.0836  0.3248
 1007MOL0     H32903   0.685   0.743   3.169  0.1498  0.0365 -2.0673
 1007MOL0     H32904   0.436   0.674   3.148  2.1666  0.8235 -1.8105
 1007MOL0     H32905   0.420   0.774   3.294  0.7383 -0.2152  0.1391
 1007MOL0     H32906   1.312   1.074   3.638  0.6415 -1.5062  3.7273
 1007MOL0     H32907   1.529   1.087   3.760  1.4488  0.7924  3.4385
 1007MOL0     H32908   1.938   1.539   3.821 -0.1893  1.2540  1.3675
 1007MOL0     H32909   2.144   1.532   3.932 -0.5983  2.2425  2.7532
 1007MOL0     H32910   2.960   0.734   4.122 -1.4341 -0.0804 -4.0115
 1007MOL0     H32911   2.739   0.817   4.080 -1.2491 -0.8303 -1.3393
 1007MOL0     H32912   2.333   0.886   3.902  1.5235 -0.4131  0.9589
 1007MOL0     H32913   2.094   0.863   3.877  1.8633 -0.5035 -1.1497
 1007MOL0     H32914   1.874   0.857   3.883  0.2213 -0.7742  1.2443
 1007MOL0     H32915   1.903   1.026   3.954  2.8549 -1.3716 -0.1646
 1007MOL0     H32916   1.677   1.001   4.082 -2.0806  0.8975 -1.9793
 1007MOL0     H32917   1.647   0.953   3.917 -2.0083 -0.9305  0.4340
 1007MOL0     H32918   1.708   0.778   4.151  0.3996 -0.5192 -0.8641
 1007MOL0     H32919   1.678   0.703   3.986  1.3379  0.4943 -0.6734
 1007MOL0     H32920   1.474   0.683   4.120 -0.3672 -0.3829 -1.0226
 1007MOL0     H32921   1.487   0.861   4.137  0.6442  0.8801 -0.1067
 1007MOL0     H32922   1.261   0.770   3.818 -1.2317 -0.0056  1.6352
 1007MOL0     H32923   2.041   0.847   4.303 -2.7866  0.9732 -1.1845
 1007MOL0     H32924   2.293   0.832   4.327  0.1205 -1.4620 -0.4864
 1008MOL0     O32925   5.678   6.732   8.835  0.3085  0.2182  0.1843
 1008MOL0     C32926   5.744   6.828   8.882  0.5516 -0.7683 -0.6877
 1008MOL0     O32927   5.709   6.962   8.867 -0.4791  0.4475 -0.2153
 1008MOL0     C32928   5.591   7.007   8.811 -0.8052 -0.1578 -0.3693
 1008MOL0     C32929   5.491   6.941   8.733 -0.3507 -0.6763  0.6726
 1008MOL0     C32930   5.393   7.005   8.653 -0.5034 -0.1577 -0.6611
 1008MOL0     C32931   5.393   7.144   8.648  0.4915 -0.6370  0.0756
 1008MOL0     O32932   5.291   7.217   8.592  0.4779  0.1823  0.6816
 1008MOL0     C32933   5.156   7.186   8.610  1.0426 -0.8684 -0.7925
 1008MOL0     C32934   5.057   7.295   8.555  0.5670 -0.0715 -0.8667
 1008MOL0     C32935   4.928   7.222   8.557  0.8118 -0.0283  0.0639
 1008MOL0     C32936   4.821   7.314   8.489 -0.5025  0.1796  0.2812
 1008MOL0     C32937   4.686   7.243   8.458  0.6539 -0.0826  0.7360
 1008MOL0     C32938   4.590   7.361   8.437 -1.0714  0.1904  0.3959
 1008MOL0     C32939   4.451   7.312   8.391 -0.8656  0.3445 -0.3343
 1008MOL0     C32940   4.426   7.319   8.228  0.0749 -0.2933 -0.4594
 1008MOL0     N32941   4.287   7.313   8.178 -0.1914  0.7704  0.0564
 1008MOL0     C32942   4.175   7.354   8.252 -0.7553  0.2255 -0.0671
 1008MOL0     C32943   4.071   7.329   8.173 -0.2915  0.0824 -1.1911
 1008MOL0     C32944   3.938   7.382   8.198  0.9512  0.7664 -0.5017
 1008MOL0     C32945   3.927   7.537   8.206 -1.3566 -0.7706  0.3339
 1008MOL0     C32946   3.784   7.592   8.179 -0.2847  0.0946 -0.3907
 1008MOL0     C32947   3.786   7.748   8.157 -0.7674  0.2056 -0.1737
 1008MOL0     O32948   3.832   7.829   8.272  0.2280 -0.2603  0.0977
 1008MOL0     C32949   3.805   7.959   8.273 -1.0164 -1.0608  1.1624
 1008MOL0     C32950   3.796   8.022   8.395  1.0232 -0.2757 -0.1089
 1008MOL0     C32951   3.816   8.160   8.409 -0.5267  0.4280  0.2392
 1008MOL0     C32952   3.835   8.241   8.294 -0.1757 -0.7552  0.4383
 1008MOL0     C32953   3.858   8.392   8.310  0.5524  0.6544 -0.1544
 1008MOL0     O32954   3.831   8.438   8.444  0.5834  0.1626  0.4150
 1008MOL0     C32955   3.871   8.564   8.478 -0.4794  0.9276 -0.7766
 1008MOL0     C32956   4.004   8.596   8.483  0.5058 -0.0285  0.6426
 1008MOL0     C32957   4.037   8.723   8.532  1.1648 -0.2281 -0.0714
 1008MOL0     C32958   3.938   8.825   8.557  0.7755  0.6131 -0.4055
 1008MOL0     O32959   3.956   8.949   8.600 -0.4777  0.1555  0.0231
 1008MOL0     C32960   4.088   9.018   8.583  0.1848 -0.6813  0.6246
 1008MOL0     C32961   4.106   9.129   8.681  0.0885 -0.7668 -0.9731
 1008MOL0     C32962   4.181   9.087   8.806  0.7224 -0.2198  0.4147
 1008MOL0     C32963   4.182   9.200   8.920 -0.0143  1.5864  0.2130
 1008MOL0     C32964   4.070   9.195   9.015  0.7344  0.1144 -0.1879
 1008MOL0     C32965   4.089   9.317   9.119  0.3712  0.1753  0.0024
 1008MOL0     C32966   3.955   9.328   9.202  0.6245 -0.8554  0.1991
 1008MOL0     C32967   3.841   9.395   9.130  0.7424 -0.2113  0.8450
 1008MOL0    Cl32968   3.890   9.565   9.078 -0.3281 -0.1350 -0.1249
 1008MOL0     C32969   3.794   8.782   8.531 -0.5365 -0.3963  0.7171
 1008MOL0     C32970   3.765   8.645   8.493  0.0005 -0.8271  0.5098
 1008MOL0     O32971   3.903   8.464   8.215 -0.0982  0.0009 -0.4334
 1008MOL0     C32972   3.822   8.170   8.170  0.7686 -0.8104  0.6737
 1008MOL0     C32973   3.812   8.032   8.154  0.6915  0.7794 -0.5628
 1008MOL0     N32974   4.122   7.271   8.054  0.4590  0.9258  0.1412
 1008MOL0     N32975   4.258   7.272   8.055  0.7706  0.3451 -0.3882
 1008MOL0     C32976   5.495   7.217   8.721  0.4584  0.4949  0.1822
 1008MOL0     C32977   5.583   7.150   8.808 -0.2730 -0.0412 -1.6767
 1008MOL0     C32978   5.850   6.788   8.978  0.2927  0.0006 -0.1538
 1008MOL0     C32979   5.904   6.882   9.068 -0.7341 -0.0422 -0.2452
 1008MOL0     C32980   6.005   6.848   9.162  0.2992 -0.6582 -0.3689
 1008MOL0     C32981   6.035   6.712   9.178 -0.1325  1.0013  0.5611
 1008MOL0     O32982   6.137   6.667   9.260 -0.0070 -0.5356 -0.1686
 1008MOL0     C32983   6.167   6.746   9.385 -0.0395  0.4684  0.0478
 1008MOL0     C32984   6.174   6.665   9.512 -0.3918  0.6528 -1.2453
 1008MOL0     C32985   6.290   6.570   9.525 -0.2620 -1.0118  0.5411
 1008MOL0     C32986   6.317   6.501   9.656 -0.0451  0.2969 -0.2761
 1008MOL0     C32987   6.212   6.412   9.698 -0.5891 -0.1869 -0.3804
 1008MOL0     C32988   6.147   6.312   9.726  0.0359 -0.9815  0.2313
 1008MOL0     C32989   5.967   6.608   9.104 -0.5034  0.0805  0.6820
 1008MOL0     C32990   5.887   6.652   8.994 -0.5692  0.0102 -0.1530
 1008MOL0     H32991   5.495   6.834   8.715  2.2725 -0.1317 -3.3481
 1008MOL0     H32992   5.312   6.948   8.609  0.4815 -0.7246 -1.8061
 1008MOL0     H32993   5.125   7.164   8.712  1.2345  1.3059 -0.2077
 1008MOL0     H32994   5.152   7.088   8.563  1.1343 -1.8178  1.0908
 1008MOL0     H32995   5.082   7.315   8.450 -0.9040  3.0857 -0.7281
 1008MOL0     H32996   5.052   7.389   8.610  0.1261  0.3050 -1.5409
 1008MOL0     H32997   4.897   7.196   8.659  1.2573 -2.6091 -0.3935
 1008MOL0     H32998   4.936   7.131   8.498  0.3651 -1.0043  1.4650
 1008MOL0     H32999   4.798   7.401   8.550 -1.5566  2.0398 -2.5579
 1008MOL0     H33000   4.868   7.346   8.396  1.8811  3.0970  2.3180
 1008MOL0     H33001   4.655   7.172   8.535 -0.8003 -1.7336 -1.2485
 1008MOL0     H33002   4.691   7.179   8.370 -1.8372  1.1286 -0.3868
 1008MOL0     H33003   4.630   7.427   8.359  0.8640 -1.6489 -0.2421
 1008MOL0     H33004   4.594   7.422   8.528  2.4257  0.7908 -0.0175
 1008MOL0     H33005   4.424   7.218   8.441  1.1714  0.8361  1.8791
 1008MOL0     H33006   4.374   7.381   8.427 -1.1795 -0.6621  1.0315
 1008MOL0     H33007   4.497   7.265   8.165  1.3131  2.0619 -1.2053
 1008MOL0     H33008   4.459   7.422   8.209  0.0785 -0.4353 -1.2751
 1008MOL0     H33009   4.170   7.371   8.359  2.5000 -0.4919  0.3107
 1008MOL0     H33010   3.896   7.342   8.291 -2.9047  1.4642 -1.7476
 1008MOL0     H33011   3.865   7.353   8.122  1.3078 -2.8115  0.3474
 1008MOL0     H33012   3.998   7.584   8.137 -0.6562 -0.6977  1.0927
 1008MOL0     H33013   3.962   7.557   8.307  1.5713 -5.4262  0.5354
 1008MOL0     H33014   3.751   7.550   8.084 -1.3678  1.1593 -0.5186
 1008MOL0     H33015   3.715   7.574   8.261 -0.6758 -0.0048 -0.7357
 1008MOL0     H33016   3.681   7.760   8.132 -0.8438  1.2531  0.5672
 1008MOL0     H33017   3.845   7.772   8.068  1.0459  2.8948  1.5935
 1008MOL0     H33018   3.771   7.959   8.480 -1.1315 -2.0299 -1.8979
 1008MOL0     H33019   3.815   8.195   8.512 -1.5368  0.4490  0.2299
 1008MOL0     H33020   4.079   8.521   8.464 -1.6645 -2.0094 -0.6264
 1008MOL0     H33021   4.139   8.746   8.559  1.0737  0.8154 -0.5744
 1008MOL0     H33022   4.089   9.074   8.490 -0.1956 -3.5410 -1.2376
 1008MOL0     H33023   4.166   8.942   8.589  0.1572 -0.9453 -1.5301
 1008MOL0     H33024   4.015   9.169   8.727  1.8580 -0.2362  2.3107
 1008MOL0     H33025   4.163   9.212   8.638  0.7502  1.4122  3.5195
 1008MOL0     H33026   4.281   9.070   8.765  0.6261 -2.2822  0.8825
 1008MOL0     H33027   4.151   8.991   8.849  0.1984 -0.0911  0.3424
 1008MOL0     H33028   4.273   9.186   8.979  0.0074 -1.1323 -0.3295
 1008MOL0     H33029   4.194   9.294   8.865 -2.5087  1.3883 -0.8037
 1008MOL0     H33030   4.060   9.101   9.070 -1.3269 -0.9075 -2.1524
 1008MOL0     H33031   3.984   9.219   8.953  0.8601 -0.1834 -0.4822
 1008MOL0     H33032   4.098   9.412   9.066 -1.0369  0.6820  0.6404
 1008MOL0     H33033   4.172   9.303   9.188  1.3690  3.3284 -0.3859
 1008MOL0     H33034   3.928   9.230   9.241 -0.2202 -0.2594  1.1733
 1008MOL0     H33035   3.974   9.395   9.287 -4.4645  1.0191  0.2140
 1008MOL0     H33036   3.757   9.401   9.200 -4.2354 -0.4066 -4.3849
 1008MOL0     H33037   3.807   9.339   9.043 -3.0838  0.9741  1.4069
 1008MOL0     H33038   3.724   8.860   8.559 -2.2868 -1.4428 -0.5069
 1008MOL0     H33039   3.668   8.598   8.487  0.0502 -0.8084 -0.6836
 1008MOL0     H33040   3.820   8.218   8.073  0.3306  0.0211  1.0739
 1008MOL0     H33041   3.811   7.991   8.054 -0.7265  2.9605 -1.5304
 1008MOL0     H33042   5.475   7.320   8.694 -0.9823  0.2434  0.1962
 1008MOL0     H33043   5.656   7.210   8.862 -1.2467 -0.1084 -0.2145
 1008MOL0     H33044   5.875   6.985   9.079  6.0624  2.2596  0.9492
 1008MOL0     H33045   6.047   6.917   9.234 -2.5274  0.5341  0.2776
 1008MOL0     H33046   6.085   6.816   9.403 -1.9375 -0.7948 -3.0408
 1008MOL0     H33047   6.263   6.798   9.376  1.8851 -2.9609 -1.4950
 1008MOL0     H33048   6.163   6.724   9.603 -1.6966 -1.5102  0.1001
 1008MOL0     H33049   6.080   6.609   9.508 -0.2250  0.1594  0.7923
 1008MOL0     H33050   6.375   6.638   9.509  0.3648 -1.9848 -0.3439
 1008MOL0     H33051   6.294   6.495   9.446  2.6718 -1.9966  1.4812
 1008MOL0     H33052   6.414   6.451   9.649  1.7650  3.0094  2.6307
 1008MOL0     H33053   6.337   6.577   9.732  3.2519 -0.7461  0.0366
 1008MOL0     H33054   6.088   6.223   9.725 -1.6482  0.0833 -0.9882
 1008MOL0     H33055   5.982   6.501   9.109  0.7294 -0.1074 -3.4255
 1008MOL0     H33056   5.847   6.574   8.930 -5.6957  0.2824  2.2382
 1009MOL0     O33057  11.127  11.406   5.631 -0.0024  0.0149  0.4739
 1009MOL0     C33058  11.101  11.495   5.548 -0.4685 -0.6659  0.4884
 1009MOL0     O33059  11.029  11.610   5.571 -0.4373  0.4760 -0.7106
 1009MOL0     C33060  10.975  11.636   5.692  0.3967  0.4745  0.0881
 1009MOL0     C33061  11.061  11.645   5.804  0.0511  0.5723  0.2918
 1009MOL0     C33062  11.014  11.694   5.927 -0.2420  0.9568 -1.2585
 1009MOL0     C33063  10.872  11.730   5.947 -0.4074 -0.4763  0.5500
 1009MOL0     O33064  10.808  11.774   6.065 -0.1044  0.4306  0.3421
 1009MOL0     C33065  10.869  11.767   6.194  0.4211 -0.2824  0.2591
 1009MOL0     C33066  10.876  11.626   6.229  0.5177  0.5572  0.0102
 1009MOL0     C33067  10.888  11.610   6.380 -0.1954 -0.6762  0.9422
 1009MOL0     C33068  10.947  11.477   6.426  0.2782 -0.2172 -0.7358
 1009MOL0     C33069  10.957  11.473   6.580  0.3699 -0.9061 -0.2915
 1009MOL0     C33070  11.060  11.566   6.645 -0.2851 -0.7739 -0.3456
 1009MOL0     C33071  11.079  11.542   6.796 -0.4973 -0.0302 -0.7838
 1009MOL0     C33072  11.174  11.638   6.866  0.0394  0.4397 -0.0679
 1009MOL0     N33073  11.216  11.585   6.993  0.4536 -0.3373 -0.7112
 1009MOL0     C33074  11.129  11.551   7.103 -0.0015  0.5056  0.2889
 1009MOL0     C33075  11.223  11.508   7.194 -0.4151  0.7528  0.0444
 1009MOL0     C33076  11.203  11.478   7.339 -0.4819  0.1079 -0.6946
 1009MOL0     C33077  11.167  11.602   7.416  0.3021  0.0669 -0.5588
 1009MOL0     C33078  11.179  11.572   7.565 -0.0950  0.5487 -0.3253
 1009MOL0     C33079  11.072  11.643   7.646  0.3623 -0.1910 -0.6445
 1009MOL0     O33080  11.112  11.770   7.690 -0.3715  0.2592  0.6600
 1009MOL0     C33081  11.002  11.846   7.728 -1.0079 -0.4510 -0.1141
 1009MOL0     C33082  10.928  11.801   7.837 -0.1352  0.2232  0.4950
 1009MOL0     C33083  10.841  11.892   7.890  0.0040  0.9116 -0.7084
 1009MOL0     C33084  10.824  12.022   7.833  0.2187  0.6272 -0.1769
 1009MOL0     C33085  10.731  12.116   7.902 -0.2076  0.2476  0.0619
 1009MOL0     O33086  10.675  12.061   8.016 -0.3588 -0.1613 -0.0524
 1009MOL0     C33087  10.620  12.152   8.103 -0.0865 -0.2945  0.9856
 1009MOL0     C33088  10.519  12.251   8.064 -0.1638  0.6499 -1.1665
 1009MOL0     C33089  10.464  12.348   8.154 -0.2369  0.0564  0.1201
 1009MOL0     C33090  10.517  12.341   8.291  0.6044 -0.5723  0.0848
 1009MOL0     O33091  10.455  12.427   8.375 -0.3694  0.2745  0.9500
 1009MOL0     C33092  10.508  12.458   8.501 -0.7383  0.1399  0.1018
 1009MOL0     C33093  10.473  12.605   8.540  0.3589  0.2828 -0.0408
 1009MOL0     C33094  10.459  12.616   8.692  0.4624  0.8532  0.2253
 1009MOL0     C33095  10.370  12.732   8.724  0.2923 -0.5926  0.5880
 1009MOL0     C33096  10.367  12.753   8.871 -0.1825 -0.3133  0.4771
 1009MOL0     C33097  10.237  12.708   8.937 -0.1679 -0.2543  0.2796
 1009MOL0     C33098  10.211  12.779   9.074 -0.8667 -0.2320 -0.3129
 1009MOL0     C33099  10.067  12.749   9.135 -0.8900 -0.2747 -0.5089
 1009MOL0    Cl33100   9.956  12.833   9.020 -0.5639  0.1312  0.4146
 1009MOL0     C33101  10.620  12.251   8.327 -0.1104 -0.0756  0.2215
 1009MOL0     C33102  10.670  12.165   8.235  0.2514 -0.6262  0.4580
 1009MOL0     O33103  10.716  12.233   7.869  0.0999 -0.7095 -0.1084
 1009MOL0     C33104  10.889  12.057   7.719 -0.3538 -1.0428  0.6955
 1009MOL0     C33105  10.979  11.967   7.662 -0.6564  0.2888 -0.2945
 1009MOL0     N33106  11.345  11.497   7.130 -1.0008  0.5290  0.4156
 1009MOL0     N33107  11.342  11.540   7.006  0.2359  0.1257 -0.8516
 1009MOL0     C33108  10.793  11.717   5.835 -0.1782 -0.2444  0.3586
 1009MOL0     C33109  10.841  11.683   5.707 -0.6037  0.0465 -0.6747
 1009MOL0     C33110  11.151  11.465   5.414  0.5473  0.1500 -0.2555
 1009MOL0     C33111  11.126  11.549   5.305 -0.5926 -0.2768 -0.7557
 1009MOL0     C33112  11.197  11.533   5.189  0.5202  0.5234 -0.0090
 1009MOL0     C33113  11.269  11.412   5.163  0.1252  0.5359 -0.1850
 1009MOL0     O33114  11.324  11.395   5.039 -0.7626  0.3391  0.8243
 1009MOL0     C33115  11.353  11.253   4.992 -0.3713  0.0756  0.4369
 1009MOL0     C33116  11.232  11.150   4.998 -0.2971 -0.6519  0.1481
 1009MOL0     C33117  11.132  11.174   4.879  0.0201  0.2002  0.9526
 1009MOL0     C33118  11.060  11.304   4.879  0.0334  0.0236 -0.1420
 1009MOL0     C33119  10.957  11.320   4.776 -0.1050  0.0275  0.1993
 1009MOL0     C33120  10.892  11.319   4.673  0.1649 -0.0387 -0.6030
 1009MOL0     C33121  11.271  11.312   5.266 -0.0656 -0.6945  0.7515
 1009MOL0     C33122  11.209  11.338   5.380 -1.1909 -1.1722 -0.4247
 1009MOL0     H33123  11.167  11.623   5.798 -0.1581 -0.4059  0.1428
 1009MOL0     H33124  11.073  11.703   6.017  1.8443  0.4149 -2.5162
 1009MOL0     H33125  10.812  11.819   6.273  2.1345 -0.9400  2.0146
 1009MOL0     H33126  10.965  11.819   6.183  0.1728 -0.0032 -0.6818
 1009MOL0     H33127  10.963  11.582   6.180  1.3012  0.8642  1.0770
 1009MOL0     H33128  10.784  11.586   6.186 -0.0457  3.4774 -1.8144
 1009MOL0     H33129  10.785  11.625   6.413 -1.3014  1.4077 -2.8856
 1009MOL0     H33130  10.957  11.685   6.417 -0.1150  0.3691 -1.1456
 1009MOL0     H33131  10.895  11.393   6.378  0.5364 -0.1615 -1.1171
 1009MOL0     H33132  11.036  11.461   6.365  1.2958 -1.1461  0.9205
 1009MOL0     H33133  10.987  11.371   6.604  5.3955  0.0686 -1.3403
 1009MOL0     H33134  10.857  11.494   6.620  0.6369 -1.5733  0.7359
 1009MOL0     H33135  11.031  11.669   6.626  1.3996 -0.4589 -1.4628
 1009MOL0     H33136  11.158  11.545   6.600 -0.2980 -1.1919 -0.1861
 1009MOL0     H33137  10.978  11.553   6.838 -0.8716 -0.8307 -1.4383
 1009MOL0     H33138  11.109  11.439   6.812 -0.0551  0.4328  1.7532
 1009MOL0     H33139  11.099  11.718   6.873 -1.0508 -0.1925 -2.8918
 1009MOL0     H33140  11.266  11.661   6.812  1.6828 -0.7158  2.1243
 1009MOL0     H33141  11.027  11.585   7.120 -0.0878  0.7077 -0.5916
 1009MOL0     H33142  11.291  11.434   7.387 -2.4753 -3.5617 -0.0781
 1009MOL0     H33143  11.120  11.408   7.332 -1.3665  1.0464  0.1043
 1009MOL0     H33144  11.065  11.630   7.388  1.4234  2.8268 -2.3587
 1009MOL0     H33145  11.239  11.682   7.397  1.2613  1.3224  6.0168
 1009MOL0     H33146  11.153  11.472   7.601 -0.5953  0.5476 -0.6716
 1009MOL0     H33147  11.275  11.607   7.601 -0.0939  1.4639 -1.1713
 1009MOL0     H33148  11.053  11.584   7.736 -1.7120 -1.1086 -1.6115
 1009MOL0     H33149  10.978  11.647   7.591  1.0353  0.6833 -1.7807
 1009MOL0     H33150  10.947  11.708   7.890  0.3501 -0.4486 -0.8169
 1009MOL0     H33151  10.786  11.851   7.974 -1.6275 -1.0522 -2.6254
 1009MOL0     H33152  10.481  12.241   7.962  0.5272 -3.0710 -1.2079
 1009MOL0     H33153  10.381  12.411   8.124 -1.6373 -2.2363 -1.1286
 1009MOL0     H33154  10.614  12.443   8.479 -0.2385  0.1489  2.2746
 1009MOL0     H33155  10.461  12.393   8.576 -2.6016  2.0641  0.6873
 1009MOL0     H33156  10.379  12.625   8.488  0.8578 -1.0433 -1.5129
 1009MOL0     H33157  10.544  12.679   8.503 -1.1030  2.4360  1.1566
 1009MOL0     H33158  10.555  12.601   8.740  0.3126 -0.7420  0.0959
 1009MOL0     H33159  10.409  12.524   8.725 -2.1263  1.5999 -1.3096
 1009MOL0     H33160  10.399  12.825   8.673 -1.7446  1.8730  3.5564
 1009MOL0     H33161  10.269  12.726   8.684  0.7943  0.7620 -1.0290
 1009MOL0     H33162  10.395  12.855   8.901  0.8257 -0.3930 -0.1527
 1009MOL0     H33163  10.446  12.699   8.923  2.7334  1.7107 -1.5017
 1009MOL0     H33164  10.239  12.599   8.932  0.2104 -0.3242  1.4567
 1009MOL0     H33165  10.151  12.745   8.880  0.2335  1.8756  0.9408
 1009MOL0     H33166  10.287  12.748   9.147 -2.0694 -2.6657 -0.0008
 1009MOL0     H33167  10.214  12.888   9.065 -0.8477 -0.3025 -1.2264
 1009MOL0     H33168  10.047  12.775   9.240 -1.9234 -1.4725 -0.3732
 1009MOL0     H33169  10.043  12.643   9.123  2.1244 -1.1558  0.2865
 1009MOL0     H33170  10.648  12.254   8.432 -2.6885 -0.8208  0.9850
 1009MOL0     H33171  10.745  12.091   8.262  0.8808 -1.6633 -3.4477
 1009MOL0     H33172  10.870  12.155   7.676 -1.3472 -1.2840  0.5779
 1009MOL0     H33173  11.050  11.994   7.585 -2.7255  0.8279 -2.1212
 1009MOL0     H33174  10.690  11.751   5.837  0.2524  2.0100 -4.0841
 1009MOL0     H33175  10.793  11.664   5.612 -0.6751 -0.3265 -0.5640
 1009MOL0     H33176  11.065  11.639   5.313 -1.6626 -1.1488  2.4369
 1009MOL0     H33177  11.171  11.596   5.105  1.5001 -0.0503 -0.7627
 1009MOL0     H33178  11.428  11.210   5.060  0.1070  2.2492  1.4015
 1009MOL0     H33179  11.393  11.250   4.890  2.0622 -3.5326  1.3008
 1009MOL0     H33180  11.277  11.050   4.996  1.7138  0.0371  3.3705
 1009MOL0     H33181  11.181  11.162   5.094  0.7534  3.0898  0.3891
 1009MOL0     H33182  11.058  11.093   4.874 -2.1842  2.0920  0.9950
 1009MOL0     H33183  11.192  11.161   4.788 -1.3288  0.3741 -0.0025
 1009MOL0     H33184  11.008  11.328   4.973  0.2468  0.5041 -0.1422
 1009MOL0     H33185  11.121  11.394   4.871  1.5997 -0.6952  2.5139
 1009MOL0     H33186  10.828  11.297   4.590 -1.1974 -3.0333  1.1115
 1009MOL0     H33187  11.330  11.222   5.254  3.2250  1.6774 -4.8750
 1009MOL0     H33188  11.212  11.266   5.462 -0.9501 -0.2613  0.3863
 1010MOL0     O33189   9.560   9.908   0.169  0.1657 -0.5413  0.1892
 1010MOL0     C33190   9.611   9.847   0.072 -0.2233 -0.5816 -1.3350
 1010MOL0     O33191   9.576   9.865  -0.053 -0.6945 -0.4979  0.4692
 1010MOL0     C33192   9.459   9.917  -0.082 -1.0638  0.3686  0.0488
 1010MOL0     C33193   9.461  10.037  -0.159  0.3584  1.3102 -0.9644
 1010MOL0     C33194   9.337  10.098  -0.188  0.8526 -0.9505  0.0522
 1010MOL0     C33195   9.212  10.050  -0.146 -0.0471 -0.2737  0.0567
 1010MOL0     O33196   9.100  10.127  -0.183 -0.2910  0.2958 -0.3370
 1010MOL0     C33197   8.990  10.044  -0.219 -0.1265  0.6675  0.1477
 1010MOL0     C33198   8.882  10.125  -0.303 -0.3055 -0.3362 -0.0791
 1010MOL0     C33199   8.816  10.217  -0.207  1.0559 -0.7648 -0.6164
 1010MOL0     C33200   8.691  10.285  -0.267  0.1893 -0.2601 -1.5162
 1010MOL0     C33201   8.639  10.407  -0.193 -0.4270  0.2716  0.5475
 1010MOL0     C33202   8.560  10.496  -0.280 -0.5615 -0.6870 -0.2563
 1010MOL0     C33203   8.535  10.645  -0.228 -0.5650  0.2552  1.3563
 1010MOL0     C33204   8.461  10.648  -0.098  0.3027  0.0920 -0.7401
 1010MOL0     N33205   8.457  10.791  -0.059 -0.5717 -0.2224 -0.3457
 1010MOL0     C33206   8.528  10.858   0.045  0.1125  0.3948 -0.2465
 1010MOL0     C33207   8.458  10.974   0.062  0.1805  0.4361  0.2263
 1010MOL0     C33208   8.503  11.071   0.171 -1.0332 -0.1189  0.4120
 1010MOL0     C33209   8.470  11.013   0.312 -0.6747 -0.2256  0.6599
 1010MOL0     C33210   8.553  11.091   0.413  0.5869 -0.4268  0.4851
 1010MOL0     C33211   8.528  11.027   0.542  0.4493 -0.5920 -0.2674
 1010MOL0     O33212   8.591  11.095   0.646  0.4586 -0.2591 -0.2336
 1010MOL0     C33213   8.573  11.225   0.675  0.2194  0.1457  0.3600
 1010MOL0     C33214   8.649  11.331   0.610  0.3272  0.5653 -0.6705
 1010MOL0     C33215   8.626  11.463   0.647 -0.5512  0.0836 -0.5065
 1010MOL0     C33216   8.533  11.505   0.744  0.5439 -0.7027  0.3130
 1010MOL0     C33217   8.508  11.639   0.776 -0.5859  0.3525 -0.1050
 1010MOL0     O33218   8.596  11.730   0.721  0.1699  0.1920 -0.4901
 1010MOL0     C33219   8.585  11.863   0.746  0.3962 -0.2795  0.3910
 1010MOL0     C33220   8.714  11.919   0.743  0.6371  0.1250 -0.2257
 1010MOL0     C33221   8.723  12.061   0.764 -0.4889  0.2433 -0.5111
 1010MOL0     C33222   8.612  12.139   0.788 -0.6917 -0.6033  0.1955
 1010MOL0     O33223   8.621  12.278   0.807  0.5253  0.3705 -0.2961
 1010MOL0     C33224   8.708  12.362   0.731 -0.2875 -0.4349  0.4988
 1010MOL0     C33225   8.698  12.508   0.775  0.7576 -0.0486  0.6958
 1010MOL0     C33226   8.792  12.602   0.691  0.7341 -0.1573 -0.0263
 1010MOL0     C33227   8.757  12.748   0.738 -0.4301 -0.2645  0.2738
 1010MOL0     C33228   8.804  12.862   0.640  0.1416  0.1512  0.0572
 1010MOL0     C33229   8.923  12.820   0.550 -0.0347 -0.5047 -0.1556
 1010MOL0     C33230   8.976  12.937   0.463  0.7948  0.4898  0.4814
 1010MOL0     C33231   9.099  12.885   0.386  0.4849  0.9802  0.2285
 1010MOL0    Cl33232   9.249  12.843   0.482  0.9180 -0.0962 -0.4058
 1010MOL0     C33233   8.486  12.079   0.801 -0.2663 -0.3547 -0.2063
 1010MOL0     C33234   8.469  11.941   0.783 -0.3721 -0.0294  0.6010
 1010MOL0     O33235   8.399  11.665   0.826  0.2861  0.4190  0.3902
 1010MOL0     C33236   8.455  11.401   0.808 -0.2389  0.3330 -0.1019
 1010MOL0     C33237   8.477  11.267   0.779  0.4312  0.4519 -0.4815
 1010MOL0     N33238   8.351  10.979  -0.029  0.2960  0.5648  0.2968
 1010MOL0     N33239   8.348  10.866  -0.091 -0.0367 -0.3251 -0.3078
 1010MOL0     C33240   9.213   9.930  -0.070 -0.3354 -0.2844  0.6121
 1010MOL0     C33241   9.335   9.869  -0.040  0.4568  0.0044 -0.1538
 1010MOL0     C33242   9.728   9.754   0.096  0.1972 -0.5971  0.4404
 1010MOL0     C33243   9.751   9.706   0.224 -0.0331  0.6578 -0.6327
 1010MOL0     C33244   9.867   9.630   0.248 -0.8765 -0.0701 -0.3057
 1010MOL0     C33245   9.966   9.595   0.147  0.1644  0.4149 -0.9794
 1010MOL0     O33246  10.078   9.516   0.167  0.0985 -0.9155 -0.0974
 1010MOL0     C33247  10.066   9.377   0.130 -0.5465  0.9834 -0.4246
 1010MOL0     C33248  10.187   9.304   0.191 -0.0058  0.0495 -0.2954
 1010MOL0     C33249  10.210   9.166   0.153  0.6445 -0.4990 -0.0204
 1010MOL0     C33250  10.295   9.090   0.246 -0.4555 -0.5450  0.0086
 1010MOL0     C33251  10.325   8.970   0.170 -1.0371 -0.5163  0.6799
 1010MOL0     C33252  10.341   8.869   0.109  0.2830  0.7803 -0.5216
 1010MOL0     C33253   9.944   9.647   0.020 -0.1544 -0.1418  0.9360
 1010MOL0     C33254   9.829   9.729  -0.004  0.5636  0.2948  0.0669
 1010MOL0     H33255   9.559  10.061  -0.198  1.3480  1.6119  1.5547
 1010MOL0     H33256   9.332  10.187  -0.250  2.0555 -0.7008  0.2858
 1010MOL0     H33257   8.936  10.007  -0.131 -1.0443  1.5295 -0.0334
 1010MOL0     H33258   9.031   9.967  -0.285  3.6687  2.5021  0.0908
 1010MOL0     H33259   8.809  10.047  -0.327  0.3162 -1.5120  1.6415
 1010MOL0     H33260   8.919  10.180  -0.390  2.4221 -0.1294  1.1285
 1010MOL0     H33261   8.880  10.302  -0.180  0.8678 -1.0117  0.6912
 1010MOL0     H33262   8.787  10.156  -0.121  0.2668 -0.6889 -0.8211
 1010MOL0     H33263   8.718  10.304  -0.372  0.9699 -0.8650 -1.4315
 1010MOL0     H33264   8.606  10.216  -0.265 -0.0698  0.0221  1.2889
 1010MOL0     H33265   8.723  10.455  -0.143 -1.5345  0.4965  2.2827
 1010MOL0     H33266   8.573  10.387  -0.108 -2.2707 -0.5521 -0.9901
 1010MOL0     H33267   8.461  10.452  -0.290 -1.1086  0.6963 -1.2757
 1010MOL0     H33268   8.596  10.501  -0.384 -2.1293  0.5842 -0.7784
 1010MOL0     H33269   8.629  10.700  -0.225 -0.7517  0.5980  1.0199
 1010MOL0     H33270   8.473  10.688  -0.307 -0.3472 -0.2467  0.9030
 1010MOL0     H33271   8.517  10.597  -0.019  0.3138  1.3214  0.0732
 1010MOL0     H33272   8.360  10.608  -0.104 -0.7030  2.3331  0.2911
 1010MOL0     H33273   8.627  10.835   0.082  0.3623  0.8990 -0.6057
 1010MOL0     H33274   8.457  11.170   0.158 -1.9369 -0.6419 -0.4955
 1010MOL0     H33275   8.610  11.093   0.165 -1.3222  1.1830 -0.7730
 1010MOL0     H33276   8.500  10.908   0.317  0.3085 -0.0477 -0.8073
 1010MOL0     H33277   8.363  11.028   0.330 -0.7174 -0.7147  0.8309
 1010MOL0     H33278   8.660  11.084   0.393  0.9201  3.3526  0.2395
 1010MOL0     H33279   8.523  11.196   0.416  1.7487 -0.0880  0.4081
 1010MOL0     H33280   8.554  10.921   0.547 -1.6060 -1.0541  2.0022
 1010MOL0     H33281   8.422  11.034   0.567  0.8729  0.4995  1.3573
 1010MOL0     H33282   8.712  11.303   0.526 -0.6587  1.0027 -1.5795
 1010MOL0     H33283   8.681  11.539   0.591  1.4294 -1.7457 -1.1737
 1010MOL0     H33284   8.796  11.854   0.714 -0.7182 -1.8913  0.2744
 1010MOL0     H33285   8.820  12.105   0.745 -1.1362  3.3910  2.4382
 1010MOL0     H33286   8.684  12.347   0.626 -0.0942  0.3505  0.3396
 1010MOL0     H33287   8.812  12.327   0.735  0.0322 -0.1294 -2.7256
 1010MOL0     H33288   8.729  12.508   0.879 -2.7451 -1.6769  1.8957
 1010MOL0     H33289   8.598  12.552   0.762  0.7877 -0.7001 -3.0862
 1010MOL0     H33290   8.772  12.598   0.583 -0.3431  0.0461  0.1565
 1010MOL0     H33291   8.895  12.568   0.703  0.3923 -1.3529 -0.3521
 1010MOL0     H33292   8.657  12.774   0.774  0.1566  0.6886  1.2686
 1010MOL0     H33293   8.817  12.758   0.829  3.0236 -1.0330 -1.7328
 1010MOL0     H33294   8.832  12.956   0.688  2.9376  1.9289 -4.4348
 1010MOL0     H33295   8.719  12.888   0.578  0.0895 -2.1540 -0.9403
 1010MOL0     H33296   8.890  12.752   0.471  1.7032 -0.7865 -0.6880
 1010MOL0     H33297   8.997  12.780   0.620  2.4676  2.0489 -1.1330
 1010MOL0     H33298   8.885  12.957   0.405 -0.8552  0.0042  2.7616
 1010MOL0     H33299   9.002  13.021   0.528 -2.9399  1.8971  0.3726
 1010MOL0     H33300   9.119  12.954   0.304 -1.5687  0.6721 -0.6074
 1010MOL0     H33301   9.079  12.790   0.335  0.1874 -0.7283  3.2919
 1010MOL0     H33302   8.399  12.141   0.817  0.8118  0.4987  3.0990
 1010MOL0     H33303   8.366  11.907   0.781 -0.8945  1.4741 -0.0945
 1010MOL0     H33304   8.364  11.434   0.857 -0.4985 -0.5267  0.0105
 1010MOL0     H33305   8.418  11.188   0.825  1.6031 -0.4118 -0.4110
 1010MOL0     H33306   9.129   9.881  -0.022 -0.5317 -1.3408 -0.7491
 1010MOL0     H33307   9.339   9.779   0.020  0.6759  1.9324  2.9219
 1010MOL0     H33308   9.679   9.708   0.305  1.2431 -1.0037  0.6071
 1010MOL0     H33309   9.882   9.582   0.344  0.8969 -0.6226 -0.8242
 1010MOL0     H33310  10.067   9.365   0.021  2.7085  1.0823 -0.5052
 1010MOL0     H33311   9.972   9.336   0.168  0.3089  0.2813  1.0247
 1010MOL0     H33312  10.284   9.351   0.172  0.6412 -0.5783  1.2893
 1010MOL0     H33313  10.169   9.309   0.298  1.8063  2.3067 -0.0336
 1010MOL0     H33314  10.260   9.183   0.057  0.0404  0.6345 -0.1494
 1010MOL0     H33315  10.120   9.105   0.146  0.1702  0.2124 -0.2613
 1010MOL0     H33316  10.381   9.151   0.275  1.8640 -3.5082 -0.0326
 1010MOL0     H33317  10.247   9.061   0.339  0.2699 -4.6307 -0.6963
 1010MOL0     H33318  10.347   8.775   0.058 -1.1173  0.6428 -0.4845
 1010MOL0     H33319  10.029   9.643  -0.048  0.3952  0.9112  1.5393
 1010MOL0     H33320   9.822   9.772  -0.104  1.0856  1.5590  0.5555
 1011MOL0     O33321   2.289   2.025   1.142  0.7862  0.1954 -0.5226
 1011MOL0     C33322   2.250   2.140   1.123 -0.2627 -0.0993 -0.1825
 1011MOL0     O33323   2.310   2.226   1.029  0.0601  0.3649 -0.4390
 1011MOL0     C33324   2.411   2.181   0.941  0.2801  0.3792  0.2645
 1011MOL0     C33325   2.398   2.046   0.879  0.1398 -0.1585  0.5552
 1011MOL0     C33326   2.487   2.016   0.776 -0.6642  0.1684 -0.6049
 1011MOL0     C33327   2.600   2.090   0.745  0.1718  0.2316 -0.4883
 1011MOL0     O33328   2.709   2.068   0.655  0.5713 -0.3830 -1.2275
 1011MOL0     C33329   2.728   1.929   0.618 -0.6778  0.4146 -0.0384
 1011MOL0     C33330   2.851   1.912   0.530  0.1443  0.2720 -0.4689
 1011MOL0     C33331   2.976   1.928   0.616  0.4452  0.2660  0.4515
 1011MOL0     C33332   3.097   1.959   0.531 -0.5277 -0.5061 -0.8292
 1011MOL0     C33333   3.098   2.101   0.479  0.0424  0.6491 -0.9586
 1011MOL0     C33334   3.216   2.137   0.388  0.4788  0.3878  0.0511
 1011MOL0     C33335   3.210   2.280   0.345  0.8694 -1.0614 -0.3082
 1011MOL0     C33336   3.112   2.299   0.230  0.0103 -0.2132  0.6163
 1011MOL0     N33337   3.084   2.442   0.210  0.3828  0.2561  0.6046
 1011MOL0     C33338   3.167   2.514   0.129  0.8055 -1.0668  0.8867
 1011MOL0     C33339   3.111   2.639   0.132 -0.2412  1.0413  0.9889
 1011MOL0     C33340   3.148   2.777   0.064  0.5478 -0.2054 -0.4634
 1011MOL0     C33341   3.050   2.798  -0.062  0.1219 -0.4754 -0.3514
 1011MOL0     C33342   3.097   2.715  -0.192  1.3435 -0.3562 -1.2377
 1011MOL0     C33343   3.012   2.743  -0.314  0.1172  0.9594  1.4470
 1011MOL0     O33344   3.079   2.701  -0.438 -0.4387 -0.0742 -0.1118
 1011MOL0     C33345   3.008   2.712  -0.557 -0.2683  0.2432  1.0541
 1011MOL0     C33346   2.866   2.711  -0.572  0.8787  0.6405  0.2321
 1011MOL0     C33347   2.791   2.720  -0.697  0.9520  1.0208 -0.4129
 1011MOL0     C33348   2.870   2.730  -0.810  1.2128 -0.6695  0.0945
 1011MOL0     C33349   2.795   2.737  -0.937 -0.3433 -0.3783  0.1677
 1011MOL0     O33350   2.873   2.771  -1.040  0.0706  0.7013 -0.1605
 1011MOL0     C33351   2.824   2.738  -1.166  0.8463 -0.4367  0.2587
 1011MOL0     C33352   2.863   2.836  -1.262 -0.6840  0.2728 -0.1019
 1011MOL0     C33353   2.815   2.828  -1.401 -0.8915  0.6647 -1.4523
 1011MOL0     C33354   2.746   2.715  -1.442 -0.5255 -0.4934  0.2215
 1011MOL0     O33355   2.698   2.686  -1.567  0.9536 -0.3948 -0.7562
 1011MOL0     C33356   2.774   2.737  -1.681 -0.1271  0.3356 -0.1660
 1011MOL0     C33357   2.725   2.678  -1.815  0.0149 -0.7336  0.5275
 1011MOL0     C33358   2.704   2.522  -1.815  0.4970 -0.1227  0.7246
 1011MOL0     C33359   2.655   2.450  -1.950  0.7967 -0.3734 -1.2244
 1011MOL0     C33360   2.645   2.297  -1.933 -1.0527  0.4874  0.6076
 1011MOL0     C33361   2.783   2.226  -1.924  0.3500  0.1769 -0.5476
 1011MOL0     C33362   2.775   2.067  -1.931  0.4258  0.3551  0.0027
 1011MOL0     C33363   2.738   2.002  -1.799  0.7625 -0.1096  0.8524
 1011MOL0    Cl33364   2.789   1.824  -1.808  0.1707 -0.0924 -0.0750
 1011MOL0     C33365   2.713   2.618  -1.342  0.5794  0.6851 -0.1661
 1011MOL0     C33366   2.744   2.632  -1.203 -0.3383 -0.1443  0.3429
 1011MOL0     O33367   2.670   2.723  -0.947 -0.1375  0.7317 -0.0373
 1011MOL0     C33368   3.008   2.734  -0.799 -0.2322  0.3703 -0.7053
 1011MOL0     C33369   3.075   2.712  -0.680  0.3411  0.8344 -0.7387
 1011MOL0     N33370   2.992   2.620   0.201 -0.5988 -0.0310 -0.0196
 1011MOL0     N33371   2.983   2.511   0.270  0.9254 -0.7821  0.0288
 1011MOL0     C33372   2.605   2.221   0.801  0.9348  0.2292  0.6088
 1011MOL0     C33373   2.512   2.271   0.890 -0.1842  0.2817 -0.5992
 1011MOL0     C33374   2.141   2.180   1.207  0.9235 -0.3838 -0.4343
 1011MOL0     C33375   2.098   2.309   1.204 -0.6725  0.4217 -0.5999
 1011MOL0     C33376   1.983   2.353   1.271 -0.4177 -0.8325  0.5132
 1011MOL0     C33377   1.925   2.270   1.374 -0.2315 -0.2797 -0.8607
 1011MOL0     O33378   1.806   2.321   1.430 -0.1668  0.6034  0.6478
 1011MOL0     C33379   1.722   2.209   1.481 -0.0258 -1.1412 -0.2140
 1011MOL0     C33380   1.584   2.271   1.513  0.8277 -0.0856  1.1720
 1011MOL0     C33381   1.514   2.331   1.385  0.1173 -0.8517 -0.9145
 1011MOL0     C33382   1.360   2.324   1.385 -0.7501  0.4404  0.0567
 1011MOL0     C33383   1.297   2.406   1.278  0.0238 -0.5853 -0.0711
 1011MOL0     C33384   1.247   2.477   1.190  0.6613 -0.8818  0.1512
 1011MOL0     C33385   1.985   2.140   1.399 -0.5488 -0.2464 -0.1457
 1011MOL0     C33386   2.081   2.099   1.309  0.9331  0.4071  0.0078
 1011MOL0     H33387   2.312   1.980   0.881  0.4968 -0.7232 -1.4266
 1011MOL0     H33388   2.492   1.925   0.717  1.3607  1.8746 -3.3427
 1011MOL0     H33389   2.639   1.887   0.569 -0.9459  1.0974 -0.1423
 1011MOL0     H33390   2.739   1.871   0.710 -2.1017 -3.4199 -2.0631
 1011MOL0     H33391   2.851   1.981   0.445 -2.0925  1.6921  0.5724
 1011MOL0     H33392   2.857   1.810   0.492 -0.8720 -1.1884  2.9104
 1011MOL0     H33393   2.997   1.841   0.679 -0.5418  0.9004  1.7119
 1011MOL0     H33394   2.962   2.020   0.674  1.6401  2.6317 -2.6998
 1011MOL0     H33395   3.186   1.946   0.594  0.4057  0.5943 -1.8636
 1011MOL0     H33396   3.087   1.895   0.443 -3.4051 -1.2596 -0.0460
 1011MOL0     H33397   3.094   2.170   0.564 -0.6690 -0.5311 -0.0217
 1011MOL0     H33398   3.002   2.114   0.429 -0.8591 -0.1137  0.5201
 1011MOL0     H33399   3.221   2.066   0.305  3.6203  0.0293  0.4294
 1011MOL0     H33400   3.310   2.119   0.441  1.6264 -1.2359 -2.3851
 1011MOL0     H33401   3.207   2.349   0.430  1.2133  3.6175 -3.6913
 1011MOL0     H33402   3.302   2.308   0.292  0.6501  2.5173  0.9364
 1011MOL0     H33403   3.021   2.242   0.253  0.4948 -1.8419 -1.2523
 1011MOL0     H33404   3.149   2.260   0.135 -3.3256 -1.8841 -0.1354
 1011MOL0     H33405   3.262   2.487   0.083  1.5821  1.4866  0.8243
 1011MOL0     H33406   3.255   2.776   0.039  0.5049 -1.5748 -0.6716
 1011MOL0     H33407   3.130   2.859   0.135  3.3378  2.1667 -2.2493
 1011MOL0     H33408   3.055   2.904  -0.085  1.7913 -0.7624 -1.5356
 1011MOL0     H33409   2.951   2.776  -0.021  1.8510 -1.4499  3.7423
 1011MOL0     H33410   3.192   2.757  -0.228  1.3138  0.0012 -0.9027
 1011MOL0     H33411   3.107   2.608  -0.174  0.1752  0.1422  3.6511
 1011MOL0     H33412   2.973   2.845  -0.318 -2.6805 -0.0478 -1.4188
 1011MOL0     H33413   2.913   2.696  -0.308 -1.9910  5.0620  1.9631
 1011MOL0     H33414   2.798   2.710  -0.488 -2.0749 -1.2985 -1.9800
 1011MOL0     H33415   2.683   2.729  -0.685  1.1065  5.0604 -0.6485
 1011MOL0     H33416   2.934   2.916  -1.247 -1.6312  1.3031 -0.9271
 1011MOL0     H33417   2.839   2.906  -1.472 -0.1422  2.0931  0.2814
 1011MOL0     H33418   2.879   2.706  -1.672 -0.1067 -0.6623 -2.8819
 1011MOL0     H33419   2.783   2.846  -1.688 -1.3514  0.3958 -1.0475
 1011MOL0     H33420   2.797   2.702  -1.894  3.1218 -2.1962  2.6976
 1011MOL0     H33421   2.633   2.729  -1.845  1.2563  1.6476  0.5261
 1011MOL0     H33422   2.619   2.504  -1.748 -0.8142  1.3640 -0.4542
 1011MOL0     H33423   2.796   2.473  -1.782 -0.4092 -1.7099  0.9967
 1011MOL0     H33424   2.554   2.486  -1.970  1.3238  0.5496 -2.3203
 1011MOL0     H33425   2.720   2.471  -2.035 -0.7535  0.6292 -2.1980
 1011MOL0     H33426   2.593   2.253  -2.018  0.9629  1.1571 -1.0630
 1011MOL0     H33427   2.588   2.265  -1.845 -1.7421 -1.6709 -0.5500
 1011MOL0     H33428   2.834   2.261  -1.833 -0.2632 -2.5811  0.9778
 1011MOL0     H33429   2.844   2.245  -2.012  3.3536 -0.8520  1.1671
 1011MOL0     H33430   2.706   2.031  -2.008 -0.4158 -1.0505  1.3687
 1011MOL0     H33431   2.879   2.046  -1.957  0.9312  2.9378 -0.2732
 1011MOL0     H33432   2.632   2.015  -1.777 -0.1435 -1.2011 -2.2665
 1011MOL0     H33433   2.794   2.048  -1.717  1.2578 -1.8622  1.5622
 1011MOL0     H33434   2.654   2.535  -1.378  2.2899  0.0984 -1.8319
 1011MOL0     H33435   2.704   2.567  -1.125  1.7432 -0.5160  1.1531
 1011MOL0     H33436   3.058   2.749  -0.894 -2.0272 -1.3906 -2.0274
 1011MOL0     H33437   3.181   2.689  -0.682  0.1084 -0.3398 -2.7096
 1011MOL0     H33438   2.676   2.296   0.768  0.9345 -0.0863 -0.1405
 1011MOL0     H33439   2.519   2.378   0.902  1.2521  0.0173  1.4188
 1011MOL0     H33440   2.154   2.366   1.131  0.9712 -1.1348 -0.6307
 1011MOL0     H33441   1.942   2.451   1.250 -0.6065 -0.9646  0.2440
 1011MOL0     H33442   1.774   2.157   1.562  1.6713  0.7370 -0.0081
 1011MOL0     H33443   1.713   2.138   1.399 -1.6819  1.9430 -2.8963
 1011MOL0     H33444   1.532   2.191   1.565  0.6647 -0.1848  0.8580
 1011MOL0     H33445   1.598   2.349   1.588  0.8351 -0.5577  1.6678
 1011MOL0     H33446   1.553   2.287   1.293 -1.5449 -5.4241  0.2573
 1011MOL0     H33447   1.540   2.436   1.398  0.8251 -0.7100 -3.1643
 1011MOL0     H33448   1.315   2.225   1.372  1.8228 -1.1566  2.1568
 1011MOL0     H33449   1.320   2.353   1.483  0.0325  1.8189 -0.0025
 1011MOL0     H33450   1.211   2.534   1.107  2.0700 -0.5108 -0.2245
 1011MOL0     H33451   1.951   2.072   1.476 -1.2915 -0.5998 -0.7759
 1011MOL0     H33452   2.120   1.998   1.312 -1.1364 -0.4175  0.8607
 1012MOL0     O33453   4.843   5.236   2.155  0.7630 -0.9197 -0.0619
 1012MOL0     C33454   4.807   5.223   2.038  0.6397 -0.0073 -0.5132
 1012MOL0     O33455   4.839   5.303   1.939 -0.2436 -0.4867  0.5800
 1012MOL0     C33456   4.861   5.434   1.974 -1.7600  0.1038 -0.3807
 1012MOL0     C33457   4.979   5.484   1.919 -0.0733  0.5938  0.1687
 1012MOL0     C33458   5.028   5.607   1.961 -0.3972 -1.1528 -0.1482
 1012MOL0     C33459   4.961   5.684   2.055  0.8271  0.8467  0.7603
 1012MOL0     O33460   5.014   5.792   2.092  0.4135  0.0378  0.6868
 1012MOL0     C33461   4.969   5.909   2.004  0.3026 -0.2359 -0.5354
 1012MOL0     C33462   4.969   6.027   2.102 -0.5166  0.0933  0.4989
 1012MOL0     C33463   5.013   6.160   2.035 -0.0834 -0.5727  0.1303
 1012MOL0     C33464   5.025   6.277   2.134  0.2863  0.4804  1.5968
 1012MOL0     C33465   5.040   6.414   2.074 -0.0029  0.0029 -0.1029
 1012MOL0     C33466   4.908   6.475   2.025  0.3710 -1.3443 -0.1121
 1012MOL0     C33467   4.910   6.618   1.972 -0.6063  0.0733  0.5205
 1012MOL0     C33468   5.000   6.644   1.851 -0.2862 -1.3125 -0.5746
 1012MOL0     N33469   4.964   6.562   1.737 -0.9214 -0.6945 -0.3536
 1012MOL0     C33470   4.851   6.575   1.663  0.8702  0.8687 -0.5590
 1012MOL0     C33471   4.875   6.523   1.546 -0.1231  0.7701  0.3920
 1012MOL0     C33472   4.797   6.532   1.417 -0.2538  0.1664  0.8404
 1012MOL0     C33473   4.661   6.462   1.420 -0.2650 -0.0216 -0.1244
 1012MOL0     C33474   4.597   6.455   1.281  0.1006 -0.8306  0.3454
 1012MOL0     C33475   4.444   6.430   1.286 -0.1486 -0.0460 -0.0760
 1012MOL0     O33476   4.375   6.436   1.158  0.1418 -0.5704  0.1724
 1012MOL0     C33477   4.294   6.332   1.124 -0.4315 -0.2193 -0.3212
 1012MOL0     C33478   4.342   6.205   1.135 -0.7489  0.9200 -1.0187
 1012MOL0     C33479   4.261   6.096   1.084  0.1882 -0.3675  0.0699
 1012MOL0     C33480   4.129   6.124   1.034  0.3600  0.7589 -0.5108
 1012MOL0     C33481   4.041   6.007   1.007  0.4618 -0.2688  0.2176
 1012MOL0     O33482   4.095   5.884   1.005  0.1634  0.9188 -0.0811
 1012MOL0     C33483   4.017   5.782   0.967  0.2541  0.1279  0.6620
 1012MOL0     C33484   3.985   5.755   0.834 -0.3428  0.0111 -0.3642
 1012MOL0     C33485   3.922   5.632   0.800 -0.3914 -0.4029 -0.5224
 1012MOL0     C33486   3.877   5.542   0.899 -0.5821  0.4367 -0.4349
 1012MOL0     O33487   3.812   5.424   0.879  0.8191 -0.5533 -0.3732
 1012MOL0     C33488   3.829   5.366   0.749 -0.0384  0.4979 -0.0241
 1012MOL0     C33489   3.910   5.235   0.776 -0.4429  0.4464 -0.4258
 1012MOL0     C33490   3.913   5.139   0.659 -0.5821  0.5390 -0.2159
 1012MOL0     C33491   3.991   5.179   0.531  0.7501  0.4955 -0.3313
 1012MOL0     C33492   4.140   5.221   0.547 -0.3076  0.2731 -0.0185
 1012MOL0     C33493   4.227   5.100   0.586 -0.1264 -0.4381 -0.3511
 1012MOL0     C33494   4.371   5.123   0.592 -0.5060  0.1225  0.1712
 1012MOL0     C33495   4.455   5.007   0.638  1.6551 -0.4056  0.6247
 1012MOL0    Cl33496   4.448   4.849   0.534 -0.0726  0.0729  0.2961
 1012MOL0     C33497   3.897   5.582   1.035  0.4543  1.5725  0.1839
 1012MOL0     C33498   3.979   5.690   1.060  1.2585 -0.0231  0.3372
 1012MOL0     O33499   3.926   6.031   0.976 -0.0721 -0.1006  0.0493
 1012MOL0     C33500   4.084   6.254   1.032  0.7357  0.1780  0.6191
 1012MOL0     C33501   4.166   6.352   1.066  0.4291  0.3581  0.3336
 1012MOL0     N33502   4.990   6.445   1.560  0.0476 -0.2738 -0.1625
 1012MOL0     N33503   5.047   6.479   1.678 -1.2983  0.5306 -0.5043
 1012MOL0     C33504   4.843   5.636   2.112  0.0618  1.4894  0.5632
 1012MOL0     C33505   4.795   5.503   2.079 -0.6973 -0.3845  0.1939
 1012MOL0     C33506   4.742   5.099   2.002 -1.2605  0.9843  0.6072
 1012MOL0     C33507   4.737   5.066   1.871 -0.8195 -0.9907  0.3703
 1012MOL0     C33508   4.691   4.945   1.828 -0.2361 -1.0596  0.5009
 1012MOL0     C33509   4.640   4.849   1.923  0.3314 -0.9012  0.0008
 1012MOL0     O33510   4.605   4.728   1.866  0.6313  0.1848  0.0685
 1012MOL0     C33511   4.523   4.636   1.949  0.1940 -0.5605  0.2263
 1012MOL0     C33512   4.506   4.519   1.864 -0.0125  1.1804  0.0006
 1012MOL0     C33513   4.415   4.409   1.921 -0.6395 -0.1361 -0.6180
 1012MOL0     C33514   4.415   4.282   1.824  0.0078  0.6561  0.0867
 1012MOL0     C33515   4.404   4.325   1.682 -0.2259  0.5545 -0.2140
 1012MOL0     C33516   4.409   4.353   1.561 -0.1555 -0.5305  0.0185
 1012MOL0     C33517   4.640   4.877   2.061  0.3715  1.1555  0.1252
 1012MOL0     C33518   4.696   5.001   2.099  0.2378 -0.0113  0.6638
 1012MOL0     H33519   5.024   5.421   1.843  1.7914 -0.5055  2.0613
 1012MOL0     H33520   5.114   5.645   1.907 -0.3623 -1.6500 -0.4493
 1012MOL0     H33521   4.866   5.907   1.969  1.1169 -0.8170 -3.1039
 1012MOL0     H33522   5.040   5.924   1.923 -0.8297  2.8958 -1.0800
 1012MOL0     H33523   5.038   6.002   2.183  1.7056  0.4233 -1.2315
 1012MOL0     H33524   4.871   6.030   2.151 -1.4892 -1.3712 -1.2291
 1012MOL0     H33525   4.938   6.204   1.968  1.8544  1.0964 -1.0484
 1012MOL0     H33526   5.107   6.150   1.980 -2.2300 -1.1331 -3.8047
 1012MOL0     H33527   4.932   6.279   2.191 -0.9435  1.0118 -0.3410
 1012MOL0     H33528   5.111   6.254   2.199  0.9028 -1.6160  0.1683
 1012MOL0     H33529   5.114   6.412   1.993 -0.8014 -3.6131 -0.9216
 1012MOL0     H33530   5.089   6.473   2.153  1.8995 -4.2349  2.2096
 1012MOL0     H33531   4.838   6.481   2.109  1.9880  0.3305  1.2169
 1012MOL0     H33532   4.865   6.410   1.949 -2.6103  1.5837 -1.1452
 1012MOL0     H33533   4.803   6.637   1.961 -1.4851 -2.8910  2.6794
 1012MOL0     H33534   4.955   6.680   2.049  0.6553  0.5142 -0.5302
 1012MOL0     H33535   5.100   6.617   1.883 -0.3331 -1.6296 -0.6929
 1012MOL0     H33536   5.002   6.752   1.839  1.9274 -0.6194  4.1012
 1012MOL0     H33537   4.776   6.645   1.698  1.0194 -0.6104  3.1801
 1012MOL0     H33538   4.856   6.489   1.336 -2.4713 -1.5992  0.0720
 1012MOL0     H33539   4.773   6.636   1.392 -1.4551 -0.4381 -0.6060
 1012MOL0     H33540   4.593   6.508   1.492  1.7319 -1.4445  2.8603
 1012MOL0     H33541   4.677   6.360   1.458 -1.4858  0.4519  1.8111
 1012MOL0     H33542   4.612   6.556   1.243  3.6527 -0.4172  2.3856
 1012MOL0     H33543   4.641   6.381   1.214  0.0703  0.4769 -1.1664
 1012MOL0     H33544   4.401   6.499   1.359  0.7725 -0.6491  1.0720
 1012MOL0     H33545   4.423   6.332   1.329 -0.4334  1.4235  3.4307
 1012MOL0     H33546   4.446   6.195   1.164 -0.0322  5.0607 -1.6207
 1012MOL0     H33547   4.294   5.993   1.097  0.6441  0.0802  3.2432
 1012MOL0     H33548   4.030   5.817   0.757 -0.8889 -0.3872 -1.0238
 1012MOL0     H33549   3.913   5.613   0.694 -0.6999  0.5472 -0.6749
 1012MOL0     H33550   3.875   5.420   0.666 -1.3493 -0.3939 -1.3877
 1012MOL0     H33551   3.728   5.337   0.717 -0.2196  0.1568  0.8220
 1012MOL0     H33552   3.873   5.187   0.867  1.1248 -0.8582 -0.4323
 1012MOL0     H33553   4.016   5.258   0.790 -0.4850  0.1418  0.4554
 1012MOL0     H33554   3.817   5.114   0.614  0.2990  1.0842 -2.5747
 1012MOL0     H33555   3.955   5.042   0.688 -0.3995  0.5814 -0.3298
 1012MOL0     H33556   3.987   5.090   0.467 -0.9367  1.3632 -1.5115
 1012MOL0     H33557   3.930   5.259   0.487 -0.7346  1.9578  3.8753
 1012MOL0     H33558   4.144   5.296   0.627 -2.3133 -1.2911  1.6936
 1012MOL0     H33559   4.174   5.249   0.447 -1.6152 -1.6867 -1.0840
 1012MOL0     H33560   4.212   5.031   0.503 -2.5087 -0.9384  0.4076
 1012MOL0     H33561   4.196   5.060   0.683  2.9624 -0.1879  0.8662
 1012MOL0     H33562   4.409   5.148   0.492 -1.0210 -3.2497 -0.9846
 1012MOL0     H33563   4.385   5.202   0.667 -0.2935 -0.0706  0.3358
 1012MOL0     H33564   4.434   4.972   0.739  1.6889  0.3615  0.9009
 1012MOL0     H33565   4.562   5.028   0.647  1.2655  0.8312  3.2283
 1012MOL0     H33566   3.880   5.515   1.119 -0.9823  1.0087 -0.5235
 1012MOL0     H33567   4.019   5.708   1.159 -1.4301  2.3854  1.1235
 1012MOL0     H33568   3.984   6.277   0.995 -0.1466 -1.3611  1.8937
 1012MOL0     H33569   4.131   6.455   1.060 -1.8861 -0.4355 -1.0800
 1012MOL0     H33570   4.797   5.684   2.198 -1.1135  2.5946 -0.6450
 1012MOL0     H33571   4.706   5.464   2.128  1.2816 -4.4325  1.0427
 1012MOL0     H33572   4.788   5.119   1.792 -1.7578  1.3315  1.2062
 1012MOL0     H33573   4.701   4.919   1.723  3.3334 -0.8794  0.6811
 1012MOL0     H33574   4.423   4.677   1.960 -0.4487 -2.3806  1.6571
 1012MOL0     H33575   4.581   4.611   2.038  1.4770  1.8842  0.1694
 1012MOL0     H33576   4.478   4.548   1.763 -1.8589 -2.2218 -0.5987
 1012MOL0     H33577   4.604   4.472   1.854  0.9251  2.8558  0.9669
 1012MOL0     H33578   4.310   4.439   1.922 -0.6875 -0.2736  0.7923
 1012MOL0     H33579   4.446   4.386   2.023 -1.7690 -1.1747 -0.4847
 1012MOL0     H33580   4.504   4.221   1.839 -0.0631  0.9574  1.9873
 1012MOL0     H33581   4.337   4.221   1.870  0.5010  0.6515  0.9473
 1012MOL0     H33582   4.432   4.363   1.457  2.1943  0.0336  0.5271
 1012MOL0     H33583   4.624   4.801   2.137  0.7516  2.1329  1.2180
 1012MOL0     H33584   4.682   5.028   2.203  0.3426  2.9658 -0.0053
 1013MOL0     O33585   2.224   7.102   3.812 -0.5963 -0.2837  0.9695
 1013MOL0     C33586   2.297   7.122   3.706  0.0367  0.6321  0.0663
 1013MOL0     O33587   2.434   7.117   3.708 -0.0409  0.2980  0.3224
 1013MOL0     C33588   2.507   7.134   3.828  0.3693  0.4416  0.5017
 1013MOL0     C33589   2.507   7.251   3.905 -0.3388 -0.2050 -0.7746
 1013MOL0     C33590   2.570   7.258   4.032 -0.3806 -1.1765  0.5542
 1013MOL0     C33591   2.639   7.144   4.084  0.9468 -0.1703  0.5843
 1013MOL0     O33592   2.691   7.124   4.215  0.3908  0.4337 -0.1586
 1013MOL0     C33593   2.650   7.215   4.317  0.2387  0.9228  0.5842
 1013MOL0     C33594   2.727   7.197   4.450 -0.2732 -0.1412  0.7429
 1013MOL0     C33595   2.654   7.124   4.562 -0.3588  0.8533  0.6750
 1013MOL0     C33596   2.608   6.982   4.514 -0.0357 -0.1773  1.2616
 1013MOL0     C33597   2.550   6.913   4.637  0.0337 -0.2432  0.6481
 1013MOL0     C33598   2.651   6.876   4.749 -0.3062  0.4347  0.2704
 1013MOL0     C33599   2.584   6.828   4.883  0.2574  0.2896 -0.2687
 1013MOL0     C33600   2.687   6.776   4.980  0.2116  0.3438 -0.3267
 1013MOL0     N33601   2.628   6.732   5.111 -0.0122 -0.2147  0.6886
 1013MOL0     C33602   2.512   6.794   5.171 -0.0217 -0.7796  0.5504
 1013MOL0     C33603   2.511   6.739   5.289  1.0507 -0.3645 -0.6019
 1013MOL0     C33604   2.411   6.767   5.403  0.3252 -0.3963 -0.1545
 1013MOL0     C33605   2.472   6.828   5.519 -0.1859  0.3172 -0.5601
 1013MOL0     C33606   2.494   6.976   5.502 -0.1077  0.1212 -0.7241
 1013MOL0     C33607   2.588   7.043   5.593  0.6237 -0.5390 -0.0700
 1013MOL0     O33608   2.565   7.020   5.735 -0.5880  0.6369 -0.3326
 1013MOL0     C33609   2.665   7.015   5.824 -0.2364  0.0159  0.2943
 1013MOL0     C33610   2.669   6.917   5.921 -1.1372  0.8673 -0.6920
 1013MOL0     C33611   2.771   6.908   6.015  0.4009 -0.3010  0.4001
 1013MOL0     C33612   2.880   7.005   6.014  0.3328 -0.0267 -0.4892
 1013MOL0     C33613   2.982   6.997   6.108 -1.3747 -0.1080 -0.1595
 1013MOL0     O33614   2.973   6.909   6.212 -0.2294 -0.0283  0.2550
 1013MOL0     C33615   3.072   6.915   6.303 -0.6302  0.4103 -0.4579
 1013MOL0     C33616   3.187   6.847   6.292  0.2577  0.5951 -0.8661
 1013MOL0     C33617   3.289   6.867   6.387 -0.3573  0.4547 -0.1980
 1013MOL0     C33618   3.270   6.975   6.478  0.4872  0.0680  0.4967
 1013MOL0     O33619   3.374   7.019   6.563  0.2030  0.3145 -0.2317
 1013MOL0     C33620   3.389   6.945   6.689 -0.0002 -0.4952 -0.5695
 1013MOL0     C33621   3.537   6.956   6.736 -0.0274  1.1060  0.7058
 1013MOL0     C33622   3.561   6.825   6.792 -0.7992  0.0534  0.6616
 1013MOL0     C33623   3.717   6.806   6.815  0.5516  0.4410 -0.5870
 1013MOL0     C33624   3.736   6.689   6.911  0.0907  0.0850 -0.6521
 1013MOL0     C33625   3.884   6.651   6.942  0.8007  0.0939 -1.1854
 1013MOL0     C33626   3.971   6.634   6.821  0.4605  0.1207 -0.3828
 1013MOL0     C33627   4.115   6.597   6.859  0.4063  0.7377  0.1080
 1013MOL0    Cl33628   4.217   6.739   6.859  0.3426 -0.1986 -0.1542
 1013MOL0     C33629   3.148   7.049   6.482 -0.2230  0.5575 -1.1528
 1013MOL0     C33630   3.044   7.015   6.398 -0.3985  0.4190  0.8882
 1013MOL0     O33631   3.073   7.072   6.086  0.4541  0.5706  0.0326
 1013MOL0     C33632   2.880   7.103   5.916 -0.1452 -0.1016  0.1392
 1013MOL0     C33633   2.768   7.111   5.827  0.2191  0.0696 -0.5903
 1013MOL0     N33634   2.600   6.627   5.299  0.6338 -0.4228 -0.2545
 1013MOL0     N33635   2.670   6.624   5.192  0.2656 -0.0280  0.6139
 1013MOL0     C33636   2.637   7.036   4.003  0.9443  1.5807  0.0465
 1013MOL0     C33637   2.583   7.025   3.878  0.3001 -0.0058 -0.3983
 1013MOL0     C33638   2.229   7.126   3.576  0.0785 -0.4432 -0.7743
 1013MOL0     C33639   2.089   7.125   3.571  0.4467  0.5122  0.7249
 1013MOL0     C33640   2.024   7.124   3.440  0.1128 -0.3215 -0.2073
 1013MOL0     C33641   2.093   7.140   3.320 -0.2570  0.9867  0.4912
 1013MOL0     O33642   2.013   7.148   3.201  0.1838  0.9999 -0.3801
 1013MOL0     C33643   2.054   7.224   3.088 -0.2437 -0.1721 -0.7424
 1013MOL0     C33644   2.071   7.374   3.133  0.4108 -0.0853  0.3109
 1013MOL0     C33645   2.123   7.466   3.015 -0.1434 -0.6063  0.2265
 1013MOL0     C33646   2.083   7.618   3.027 -0.0406 -0.8732  0.9777
 1013MOL0     C33647   2.139   7.671   3.150 -0.4908  0.1424  1.1145
 1013MOL0     C33648   2.198   7.723   3.243 -0.1134  0.2674  0.0994
 1013MOL0     C33649   2.233   7.127   3.323  0.8892  0.2243 -0.2482
 1013MOL0     C33650   2.296   7.123   3.452  0.1189  0.1760  0.4457
 1013MOL0     H33651   2.462   7.341   3.865  1.1840 -0.7912 -4.2275
 1013MOL0     H33652   2.580   7.351   4.087 -1.4123 -2.5444  3.1867
 1013MOL0     H33653   2.542   7.204   4.335 -0.7284 -0.0721 -4.3967
 1013MOL0     H33654   2.672   7.317   4.282  0.0164  0.1758 -1.9471
 1013MOL0     H33655   2.749   7.296   4.491  2.0440 -1.3957  2.7264
 1013MOL0     H33656   2.820   7.144   4.429  0.3361  0.8394  0.9473
 1013MOL0     H33657   2.559   7.167   4.593  0.2774  3.7115 -0.9933
 1013MOL0     H33658   2.735   7.108   4.634  2.9904 -2.4857 -3.2454
 1013MOL0     H33659   2.535   6.978   4.433  2.8365 -0.2212 -1.5337
 1013MOL0     H33660   2.697   6.937   4.469  0.3269  2.0710 -0.4646
 1013MOL0     H33661   2.497   6.828   4.592  1.9721 -0.6663 -0.9747
 1013MOL0     H33662   2.474   6.976   4.684  2.6405  1.7623  2.4337
 1013MOL0     H33663   2.716   6.963   4.767  0.0131  0.5839 -1.4244
 1013MOL0     H33664   2.723   6.805   4.708  2.2156  1.9601  1.7935
 1013MOL0     H33665   2.522   6.903   4.932 -0.6043 -0.0083 -0.8822
 1013MOL0     H33666   2.525   6.746   4.839  1.2681  1.7760 -5.0175
 1013MOL0     H33667   2.758   6.855   5.004 -0.9279  0.4609  3.2037
 1013MOL0     H33668   2.731   6.688   4.932 -2.6617 -0.6402 -1.3767
 1013MOL0     H33669   2.445   6.870   5.134  2.1466  1.2234  0.4578
 1013MOL0     H33670   2.366   6.672   5.432  0.5108 -0.7318 -0.9378
 1013MOL0     H33671   2.332   6.832   5.366 -1.5072 -0.5151  3.2069
 1013MOL0     H33672   2.556   6.768   5.554  1.2355  3.2170  1.3856
 1013MOL0     H33673   2.410   6.812   5.608  1.1713 -2.7413 -0.0218
 1013MOL0     H33674   2.541   6.991   5.404 -0.4707 -3.3021 -1.5459
 1013MOL0     H33675   2.398   7.024   5.519 -0.3904 -0.7339  0.1676
 1013MOL0     H33676   2.578   7.152   5.588  1.5758 -0.5068 -2.1379
 1013MOL0     H33677   2.690   7.020   5.561  0.4688 -1.1144 -0.1575
 1013MOL0     H33678   2.600   6.834   5.911  0.0654  0.0078 -2.5163
 1013MOL0     H33679   2.750   6.837   6.095  1.3652 -0.3493  0.6221
 1013MOL0     H33680   3.199   6.781   6.207 -1.0212  2.2757 -2.4258
 1013MOL0     H33681   3.392   6.832   6.394  0.0156  1.2917 -1.2486
 1013MOL0     H33682   3.356   6.841   6.682 -2.0181 -0.1460  1.9378
 1013MOL0     H33683   3.327   6.981   6.772 -1.0136  1.4291 -2.0827
 1013MOL0     H33684   3.560   7.040   6.803  1.2070  1.2531  0.1193
 1013MOL0     H33685   3.606   6.966   6.652 -3.8332 -2.7528 -3.3986
 1013MOL0     H33686   3.541   6.744   6.721  0.9542 -1.1911  1.5139
 1013MOL0     H33687   3.494   6.803   6.876 -1.1152 -2.0641 -0.0712
 1013MOL0     H33688   3.757   6.786   6.715 -1.8499  0.5513 -1.6406
 1013MOL0     H33689   3.758   6.892   6.869 -0.1946  0.8418 -0.6565
 1013MOL0     H33690   3.666   6.612   6.877 -3.0075  2.2344  0.4544
 1013MOL0     H33691   3.685   6.726   7.000  0.7101  2.6881 -1.3064
 1013MOL0     H33692   3.887   6.567   7.011  1.1482  2.0810  1.3742
 1013MOL0     H33693   3.917   6.739   6.999 -1.4410 -1.1202  2.2993
 1013MOL0     H33694   3.932   6.553   6.759 -3.5062 -1.1740  3.3425
 1013MOL0     H33695   3.968   6.733   6.774 -0.4127  2.0012  3.3104
 1013MOL0     H33696   4.154   6.520   6.791 -1.4462 -2.0975  2.0320
 1013MOL0     H33697   4.115   6.544   6.955 -0.5749 -0.6395 -0.6146
 1013MOL0     H33698   3.132   7.129   6.554  1.0826  0.9486 -1.2725
 1013MOL0     H33699   2.951   7.069   6.411 -1.3981 -0.8191 -0.6782
 1013MOL0     H33700   2.955   7.181   5.910  2.9065 -2.9240 -3.0997
 1013MOL0     H33701   2.753   7.202   5.770 -1.0781  1.3545  1.6600
 1013MOL0     H33702   2.693   6.951   4.040 -1.0655 -0.7977 -1.9744
 1013MOL0     H33703   2.593   6.934   3.819  0.7816 -0.1729 -0.0648
 1013MOL0     H33704   2.032   7.118   3.663 -0.8531 -0.3044 -0.1070
 1013MOL0     H33705   1.917   7.118   3.426  0.3703  0.3015 -3.4142
 1013MOL0     H33706   1.968   7.222   3.020 -1.2103 -1.7770  0.4597
 1013MOL0     H33707   2.153   7.195   3.052  0.0970  1.1884 -0.9535
 1013MOL0     H33708   1.971   7.409   3.160  0.5803 -0.1753  1.0958
 1013MOL0     H33709   2.142   7.384   3.217  1.1022  2.5583 -0.4944
 1013MOL0     H33710   2.086   7.425   2.921  1.9492 -3.0465  0.3809
 1013MOL0     H33711   2.232   7.458   3.017  0.2703  1.0933 -4.2434
 1013MOL0     H33712   2.102   7.684   2.942 -0.4705 -2.1340 -0.1199
 1013MOL0     H33713   1.974   7.627   3.031  0.0825  1.8348  5.6332
 1013MOL0     H33714   2.242   7.764   3.332  0.7336  0.4471 -0.3873
 1013MOL0     H33715   2.296   7.103   3.238  1.6226 -0.8814  0.5675
 1013MOL0     H33716   2.404   7.106   3.453 -0.1866 -2.6539 -1.6493
 1014MOL0     O33717   8.668   9.247   6.921 -0.0669 -0.0834  0.4731
 1014MOL0     C33718   8.757   9.185   6.867  0.3357 -0.3494 -0.7013
 1014MOL0     O33719   8.742   9.064   6.800  1.0555  0.4165  0.0481
 1014MOL0     C33720   8.622   9.010   6.745  0.2619 -0.0522  0.7891
 1014MOL0     C33721   8.495   9.076   6.752 -0.2441 -0.5346 -0.0267
 1014MOL0     C33722   8.385   9.026   6.684 -0.6011  0.3158  0.3496
 1014MOL0     C33723   8.401   8.898   6.611  0.7107 -0.2205 -0.2127
 1014MOL0     O33724   8.282   8.852   6.559  0.0260 -0.2097  0.0735
 1014MOL0     C33725   8.281   8.750   6.458  0.4866 -0.6068 -0.6731
 1014MOL0     C33726   8.315   8.799   6.321  0.1225 -0.5242 -0.8379
 1014MOL0     C33727   8.200   8.880   6.255 -0.1421 -0.3621 -0.0046
 1014MOL0     C33728   8.061   8.816   6.236 -0.4834 -0.3789 -0.3870
 1014MOL0     C33729   8.063   8.709   6.127  0.3968 -0.0422  0.2636
 1014MOL0     C33730   8.140   8.748   5.998  0.0489  0.0452  2.2999
 1014MOL0     C33731   8.106   8.871   5.912  0.0682 -0.6714  0.1886
 1014MOL0     C33732   8.216   8.895   5.799 -0.4003 -0.9427 -0.3461
 1014MOL0     N33733   8.340   8.944   5.867 -0.1309  0.0668  0.2194
 1014MOL0     C33734   8.461   8.886   5.869 -0.1988 -0.1500  0.2412
 1014MOL0     C33735   8.543   8.990   5.897  0.6295  0.2787 -0.5152
 1014MOL0     C33736   8.687   8.958   5.906 -0.3717  0.7824  0.5502
 1014MOL0     C33737   8.713   8.876   6.036 -0.0405 -0.1056  0.3587
 1014MOL0     C33738   8.708   8.961   6.171 -0.1714  0.2194  0.1532
 1014MOL0     C33739   8.754   8.867   6.289 -1.1135  0.2945 -0.4734
 1014MOL0     O33740   8.881   8.826   6.254  0.5874 -0.2693  0.8105
 1014MOL0     C33741   8.944   8.764   6.350  0.3727  0.1791  0.4651
 1014MOL0     C33742   8.897   8.638   6.384 -1.0257  0.4965 -0.5338
 1014MOL0     C33743   8.951   8.575   6.502 -0.8815 -0.0707  0.1499
 1014MOL0     C33744   9.048   8.633   6.579  0.1331 -1.4591 -0.0325
 1014MOL0     C33745   9.102   8.571   6.705 -0.0745  0.4360  0.7242
 1014MOL0     O33746   9.095   8.642   6.821 -0.1918  0.2734  0.0551
 1014MOL0     C33747   9.114   8.586   6.945  0.5503 -0.8665  0.1171
 1014MOL0     C33748   9.212   8.650   7.030  0.8327  0.1002  0.4601
 1014MOL0     C33749   9.235   8.589   7.156 -0.8614 -0.6804 -0.2756
 1014MOL0     C33750   9.159   8.489   7.207 -0.8773  0.1172 -0.4192
 1014MOL0     O33751   9.165   8.435   7.329  1.5635  0.3649  0.1262
 1014MOL0     C33752   9.137   8.531   7.431  0.3033 -0.6932 -0.3481
 1014MOL0     C33753   8.994   8.590   7.425  0.0575  0.5211  0.8580
 1014MOL0     C33754   8.978   8.709   7.516 -0.2613 -0.1262 -0.3915
 1014MOL0     C33755   8.838   8.778   7.499 -0.6056 -0.6365  0.3539
 1014MOL0     C33756   8.836   8.907   7.577 -0.0302  0.9904 -0.5936
 1014MOL0     C33757   8.806   8.853   7.726  0.3221  0.6648  1.2368
 1014MOL0     C33758   8.797   8.967   7.830  1.0270  0.6478  0.8137
 1014MOL0     C33759   8.693   8.934   7.943  0.6269  0.1201 -0.7136
 1014MOL0    Cl33760   8.533   8.947   7.851  0.1681 -0.5467  0.7224
 1014MOL0     C33761   9.064   8.437   7.131  0.6216 -0.1886  0.3780
 1014MOL0     C33762   9.029   8.485   7.001  0.3174 -0.4054  1.2084
 1014MOL0     O33763   9.142   8.459   6.687 -1.5388 -0.3612 -0.8896
 1014MOL0     C33764   9.081   8.768   6.545 -0.0085  0.4068  0.3699
 1014MOL0     C33765   9.023   8.831   6.436 -0.9205 -0.3564 -0.7898
 1014MOL0     N33766   8.476   9.107   5.915  1.1048  0.4326  0.7432
 1014MOL0     N33767   8.355   9.073   5.886  0.3375 -0.0037  0.1100
 1014MOL0     C33768   8.521   8.842   6.602  0.4519 -0.5798  0.0721
 1014MOL0     C33769   8.632   8.897   6.671  0.2715  0.5542  0.1601
 1014MOL0     C33770   8.891   9.220   6.900  0.1782  0.4188  0.0636
 1014MOL0     C33771   8.989   9.121   6.890 -0.3962  0.6545  0.6953
 1014MOL0     C33772   9.122   9.147   6.913  0.4617 -0.8396  0.8374
 1014MOL0     C33773   9.161   9.269   6.961  0.5975 -0.4025 -0.9310
 1014MOL0     O33774   9.295   9.300   6.972  0.1901  0.0500  0.5063
 1014MOL0     C33775   9.355   9.401   7.058  0.1139  1.0544 -0.1781
 1014MOL0     C33776   9.389   9.527   6.980  0.0012  0.6831  0.3771
 1014MOL0     C33777   9.435   9.640   7.084 -0.1042 -0.3066  0.1529
 1014MOL0     C33778   9.499   9.766   7.021  1.2042  0.1746 -0.8526
 1014MOL0     C33779   9.635   9.755   6.982 -0.1614  0.3173 -0.1213
 1014MOL0     C33780   9.744   9.733   6.923 -0.3082  0.4660 -0.2097
 1014MOL0     C33781   9.056   9.369   6.992  0.6550  0.7330 -0.5171
 1014MOL0     C33782   8.926   9.340   6.957 -0.6603 -0.8577  0.4681
 1014MOL0     H33783   8.493   9.180   6.784 -1.8921 -0.5684  0.0657
 1014MOL0     H33784   8.291   9.080   6.676 -0.1401  1.5527  2.4309
 1014MOL0     H33785   8.182   8.702   6.456 -0.9012  2.0224 -0.3380
 1014MOL0     H33786   8.356   8.681   6.498 -0.1247  1.7658  5.7003
 1014MOL0     H33787   8.345   8.726   6.245  0.7539 -1.4350  0.2624
 1014MOL0     H33788   8.397   8.868   6.339  3.1801 -3.8245 -0.9429
 1014MOL0     H33789   8.236   8.907   6.155 -0.0987 -2.1033 -0.4789
 1014MOL0     H33790   8.187   8.968   6.319  1.7498 -1.1651  1.5679
 1014MOL0     H33791   8.023   8.773   6.329  0.4498  0.2978  0.3152
 1014MOL0     H33792   8.003   8.905   6.206  1.7861  0.9424 -1.0917
 1014MOL0     H33793   7.956   8.697   6.110  0.7933 -3.5982 -0.4911
 1014MOL0     H33794   8.109   8.617   6.167 -2.2030 -1.5070  0.0956
 1014MOL0     H33795   8.141   8.662   5.931 -1.6455  1.3323  0.5446
 1014MOL0     H33796   8.245   8.772   6.019  0.0346  1.6331  0.7523
 1014MOL0     H33797   8.011   8.855   5.859 -0.4647  1.2368  0.4880
 1014MOL0     H33798   8.090   8.956   5.978  0.8585 -1.3538  1.2880
 1014MOL0     H33799   8.168   8.969   5.735 -0.9927 -0.8403  0.2128
 1014MOL0     H33800   8.234   8.800   5.747 -1.6689 -0.7318 -1.2033
 1014MOL0     H33801   8.500   8.786   5.852  0.3100 -0.3288  2.1906
 1014MOL0     H33802   8.735   9.056   5.916 -1.5807  1.2089  3.1956
 1014MOL0     H33803   8.706   8.903   5.814  2.1451 -0.0427  1.4898
 1014MOL0     H33804   8.817   8.843   6.041 -0.7026 -2.1927  3.2094
 1014MOL0     H33805   8.642   8.793   6.039  0.6041 -0.7723 -1.5397
 1014MOL0     H33806   8.772   9.048   6.155 -0.8656  1.0895  1.8205
 1014MOL0     H33807   8.604   8.992   6.182 -1.0206 -0.7459 -3.7790
 1014MOL0     H33808   8.694   8.776   6.301 -1.0299  0.2339 -0.4993
 1014MOL0     H33809   8.758   8.918   6.385 -1.0527  1.3250 -1.0107
 1014MOL0     H33810   8.823   8.580   6.328 -1.8385  2.8815 -2.0940
 1014MOL0     H33811   8.907   8.480   6.531  1.2715 -1.0275  0.4388
 1014MOL0     H33812   9.278   8.732   7.004 -1.6588  1.2388 -2.9739
 1014MOL0     H33813   9.311   8.623   7.226  0.3546 -2.6457 -0.5450
 1014MOL0     H33814   9.205   8.616   7.432  2.0080 -1.9904  1.1741
 1014MOL0     H33815   9.140   8.486   7.531 -4.0558  3.4529  2.0776
 1014MOL0     H33816   8.915   8.515   7.427 -0.0941  0.5634 -1.3598
 1014MOL0     H33817   8.979   8.632   7.326  2.8676  1.7779  0.8756
 1014MOL0     H33818   9.065   8.772   7.494  0.5083 -0.4579  1.4278
 1014MOL0     H33819   8.990   8.686   7.623  1.0530  1.0272 -0.2577
 1014MOL0     H33820   8.819   8.814   7.398  0.3928  1.0668  0.7418
 1014MOL0     H33821   8.752   8.713   7.522 -0.4172  0.0393  3.4056
 1014MOL0     H33822   8.754   8.971   7.544 -0.8069  1.8801  2.6881
 1014MOL0     H33823   8.933   8.955   7.566  0.6676 -0.5762 -1.7611
 1014MOL0     H33824   8.882   8.787   7.770  0.5530  1.6911  2.4480
 1014MOL0     H33825   8.713   8.799   7.708  1.1292  0.7949 -6.6594
 1014MOL0     H33826   8.896   8.994   7.868  1.8415  2.8096 -2.3703
 1014MOL0     H33827   8.758   9.049   7.768 -0.1867 -1.3018 -1.1346
 1014MOL0     H33828   8.714   9.012   8.017  1.6540 -1.7317  1.0522
 1014MOL0     H33829   8.715   8.839   7.994 -1.4036  0.9409  1.9249
 1014MOL0     H33830   9.003   8.365   7.184  1.7880  0.2018  2.3659
 1014MOL0     H33831   8.948   8.435   6.947 -0.6017 -0.3601  2.5053
 1014MOL0     H33832   9.156   8.831   6.593 -2.0983  1.2953  2.6908
 1014MOL0     H33833   9.045   8.932   6.403 -0.4562 -0.3611 -0.4896
 1014MOL0     H33834   8.537   8.748   6.549  2.5290 -0.2290 -0.0157
 1014MOL0     H33835   8.731   8.858   6.650 -0.5903 -1.2061 -0.8705
 1014MOL0     H33836   8.975   9.023   6.847 -2.5652  0.2249  2.2565
 1014MOL0     H33837   9.184   9.062   6.889 -1.0741 -2.0249  0.9301
 1014MOL0     H33838   9.442   9.358   7.107  0.3051  1.3831 -0.2247
 1014MOL0     H33839   9.294   9.432   7.143  1.6095  0.3303  1.2167
 1014MOL0     H33840   9.466   9.492   6.910  0.1380 -1.0230  1.3193
 1014MOL0     H33841   9.305   9.569   6.926 -2.5087 -1.5973  2.2090
 1014MOL0     H33842   9.501   9.598   7.161 -2.9047 -3.2716  1.1444
 1014MOL0     H33843   9.347   9.669   7.141 -2.2844 -2.3603 -1.9871
 1014MOL0     H33844   9.443   9.792   6.931 -1.9657 -2.8924 -0.0266
 1014MOL0     H33845   9.486   9.841   7.100  0.4156 -0.1672 -0.6414
 1014MOL0     H33846   9.841   9.708   6.885 -0.5375 -0.6995 -0.0590
 1014MOL0     H33847   9.082   9.455   7.054 -0.6281 -0.2887  1.5689
 1014MOL0     H33848   8.842   9.408   6.967 -0.8462 -1.2033  1.3376
 1015MOL0     O33849   3.923   6.093   7.324  0.0268 -0.4418  0.2165
 1015MOL0     C33850   4.021   6.163   7.308  1.4210  0.2002  0.3894
 1015MOL0     O33851   4.053   6.276   7.375 -0.0192 -0.0981 -1.0738
 1015MOL0     C33852   3.981   6.304   7.485 -1.0921 -0.1699  0.5020
 1015MOL0     C33853   4.040   6.278   7.607  0.6163  0.1224 -0.6411
 1015MOL0     C33854   3.981   6.307   7.737  0.2975  0.1140 -0.1424
 1015MOL0     C33855   3.861   6.381   7.735 -1.3987 -0.1782 -0.5099
 1015MOL0     O33856   3.803   6.406   7.856 -0.0999 -0.5418  0.2437
 1015MOL0     C33857   3.701   6.507   7.859 -0.0105 -0.0958 -0.5608
 1015MOL0     C33858   3.761   6.643   7.870  1.0627 -0.5437  0.3206
 1015MOL0     C33859   3.821   6.643   8.011  0.5641  0.8883 -0.1580
 1015MOL0     C33860   3.918   6.760   8.009  0.9166  1.1364  0.2033
 1015MOL0     C33861   3.985   6.778   8.139 -0.8553 -0.1751  0.8942
 1015MOL0     C33862   4.107   6.866   8.131  1.2520 -0.4546 -0.7579
 1015MOL0     C33863   4.190   6.829   8.257  0.4073  0.2055  0.5515
 1015MOL0     C33864   4.307   6.921   8.263 -0.0581  0.5966 -0.2587
 1015MOL0     N33865   4.390   6.872   8.378 -0.1182  0.4510 -0.2867
 1015MOL0     C33866   4.444   6.741   8.389 -0.8727 -0.2139 -0.4138
 1015MOL0     C33867   4.536   6.765   8.485 -0.0097 -0.4303  0.0360
 1015MOL0     C33868   4.635   6.658   8.528 -0.4596 -1.1245  0.0826
 1015MOL0     C33869   4.767   6.676   8.451 -1.7145  0.0431  0.4645
 1015MOL0     C33870   4.848   6.552   8.481  0.2152 -0.1171  0.7311
 1015MOL0     C33871   4.976   6.533   8.399  0.0746 -0.4599  0.7478
 1015MOL0     O33872   4.944   6.504   8.263 -0.1513 -0.2545 -0.0793
 1015MOL0     C33873   5.042   6.437   8.191 -0.3118 -0.3799  0.7004
 1015MOL0     C33874   4.993   6.405   8.064  0.0702 -0.4448 -0.2573
 1015MOL0     C33875   5.060   6.313   7.981 -0.3160  0.6732  1.3253
 1015MOL0     C33876   5.189   6.257   8.023  0.0511 -0.3757  0.3660
 1015MOL0     C33877   5.256   6.162   7.942 -1.0016  0.4589 -0.5008
 1015MOL0     O33878   5.381   6.129   7.977  0.2729 -0.6480  0.7029
 1015MOL0     C33879   5.450   6.026   7.913  0.6729  0.9586  0.1952
 1015MOL0     C33880   5.399   5.899   7.880  0.2724 -0.4692  0.6593
 1015MOL0     C33881   5.490   5.797   7.854 -1.2755 -0.4557  0.6532
 1015MOL0     C33882   5.614   5.838   7.792  0.3981 -0.6246  0.7885
 1015MOL0     O33883   5.692   5.740   7.733 -0.8303  0.4129 -0.4079
 1015MOL0     C33884   5.727   5.617   7.812 -0.2439  0.3942 -0.4733
 1015MOL0     C33885   5.701   5.486   7.734  0.5075  0.2109 -0.4148
 1015MOL0     C33886   5.803   5.443   7.625  0.4961 -0.3646 -0.3506
 1015MOL0     C33887   5.765   5.305   7.558  0.2952  0.0996 -0.3041
 1015MOL0     C33888   5.845   5.300   7.422  1.4154  0.7708 -0.1707
 1015MOL0     C33889   5.786   5.207   7.316  0.5650  0.0325 -0.1165
 1015MOL0     C33890   5.797   5.067   7.374 -0.2676  0.3135  0.2906
 1015MOL0     C33891   5.753   4.949   7.282  0.9084 -0.8429 -0.0616
 1015MOL0    Cl33892   5.848   4.959   7.134 -0.0291 -0.3017 -0.0622
 1015MOL0     C33893   5.661   5.965   7.815 -0.7506 -0.9202  0.0502
 1015MOL0     C33894   5.583   6.055   7.886 -1.6839  1.5887  0.0200
 1015MOL0     O33895   5.198   6.117   7.846  0.6568 -0.1483 -0.7513
 1015MOL0     C33896   5.239   6.302   8.147 -0.2996  0.0130  0.4955
 1015MOL0     C33897   5.163   6.380   8.225  0.1865  0.1430 -1.3875
 1015MOL0     N33898   4.524   6.893   8.546  0.3315 -0.0361 -0.0289
 1015MOL0     N33899   4.435   6.957   8.477 -0.2018 -0.4169  0.6207
 1015MOL0     C33900   3.812   6.430   7.610  1.0026 -0.0720 -0.5630
 1015MOL0     C33901   3.868   6.384   7.488 -0.3365  0.5319  0.0216
 1015MOL0     C33902   4.123   6.112   7.213 -0.8134  0.0234 -0.2718
 1015MOL0     C33903   4.100   6.014   7.117 -0.7286  0.4585  0.3625
 1015MOL0     C33904   4.202   5.976   7.029  0.0942  0.1637  0.3225
 1015MOL0     C33905   4.322   6.040   7.014 -0.5808  0.0617  0.8930
 1015MOL0     O33906   4.409   6.005   6.926 -0.7807  0.6016 -0.3786
 1015MOL0     C33907   4.476   5.871   6.955 -0.2830 -0.1764 -0.4425
 1015MOL0     C33908   4.588   5.826   6.861  1.1189 -0.9129  0.0462
 1015MOL0     C33909   4.686   5.721   6.919  0.2856  0.5188 -0.3751
 1015MOL0     C33910   4.621   5.607   7.001  1.1831  0.2725  0.0484
 1015MOL0     C33911   4.556   5.517   6.904 -0.3088  0.6805  0.7346
 1015MOL0     C33912   4.497   5.442   6.837 -0.4381 -0.2891  0.8169
 1015MOL0     C33913   4.342   6.153   7.098  0.2271 -0.4817  0.3216
 1015MOL0     C33914   4.248   6.184   7.202  0.2871 -0.3845  0.5401
 1015MOL0     H33915   4.130   6.217   7.606  1.5466  1.4559 -0.8924
 1015MOL0     H33916   4.024   6.270   7.830 -1.0829  1.8338  1.2541
 1015MOL0     H33917   3.656   6.484   7.956 -0.2789  1.7100 -0.2358
 1015MOL0     H33918   3.621   6.488   7.787  1.1553  0.9750 -2.2024
 1015MOL0     H33919   3.682   6.720   7.871 -1.4533 -2.9025 -1.3982
 1015MOL0     H33920   3.824   6.676   7.786  0.8754  0.8886  0.7171
 1015MOL0     H33921   3.884   6.556   8.027  0.0860  0.7744  1.2908
 1015MOL0     H33922   3.738   6.647   8.082  0.8897 -1.0348  0.3693
 1015MOL0     H33923   3.992   6.746   7.929  1.6951 -0.4080  1.1453
 1015MOL0     H33924   3.857   6.845   7.979 -1.4603 -0.7060 -0.4903
 1015MOL0     H33925   4.020   6.676   8.161 -2.3232 -0.6708  1.0465
 1015MOL0     H33926   3.921   6.812   8.221 -0.9881 -0.4760  0.9171
 1015MOL0     H33927   4.072   6.969   8.142  1.6868 -0.0212 -3.0145
 1015MOL0     H33928   4.157   6.842   8.037 -3.4300  0.2369 -3.7252
 1015MOL0     H33929   4.143   6.826   8.356 -0.8543 -1.3183 -0.0548
 1015MOL0     H33930   4.217   6.724   8.239  1.4992  0.6342 -0.4509
 1015MOL0     H33931   4.291   7.028   8.278 -1.1867  0.2769  0.9648
 1015MOL0     H33932   4.368   6.909   8.173  1.6116  0.0890  0.8834
 1015MOL0     H33933   4.444   6.658   8.320  0.1500  1.4517 -2.5327
 1015MOL0     H33934   4.586   6.560   8.518 -0.1762 -1.0975 -1.9024
 1015MOL0     H33935   4.650   6.672   8.635  3.2542  2.0288 -0.6445
 1015MOL0     H33936   4.822   6.766   8.479 -1.9505  0.2475  0.2811
 1015MOL0     H33937   4.736   6.683   8.346  3.7330 -1.3340 -1.6015
 1015MOL0     H33938   4.864   6.538   8.588 -2.2265 -3.0477  0.8755
 1015MOL0     H33939   4.778   6.479   8.439 -0.3495  0.7954  0.0315
 1015MOL0     H33940   5.035   6.456   8.451 -0.0400 -0.8540  0.2939
 1015MOL0     H33941   5.043   6.620   8.397  0.2332 -0.5632  1.2849
 1015MOL0     H33942   4.892   6.437   8.041  0.7076  1.8643 -0.0053
 1015MOL0     H33943   5.020   6.288   7.884  6.2646  0.4326 -1.8846
 1015MOL0     H33944   5.293   5.877   7.879  0.4387 -1.2758  0.6906
 1015MOL0     H33945   5.465   5.693   7.832  2.2556 -0.9212 -2.3057
 1015MOL0     H33946   5.673   5.609   7.907 -1.7664 -3.8099 -1.4984
 1015MOL0     H33947   5.833   5.630   7.834 -0.8924  0.2076  3.4853
 1015MOL0     H33948   5.607   5.505   7.681  0.2351  2.1648  0.6566
 1015MOL0     H33949   5.698   5.404   7.806  0.9220  0.2508 -0.3498
 1015MOL0     H33950   5.905   5.447   7.665  1.4912 -1.2287 -2.6010
 1015MOL0     H33951   5.799   5.512   7.540  2.1052 -1.7546 -1.6639
 1015MOL0     H33952   5.807   5.225   7.618  0.7066  1.7611  1.7315
 1015MOL0     H33953   5.657   5.292   7.550  0.1703 -0.6841  2.0188
 1015MOL0     H33954   5.946   5.260   7.426  0.6961 -1.1067 -0.1367
 1015MOL0     H33955   5.851   5.398   7.372 -0.8419  1.5375  0.9076
 1015MOL0     H33956   5.837   5.210   7.220 -2.3983  1.1663 -1.7859
 1015MOL0     H33957   5.679   5.224   7.303 -0.2517 -3.6890  0.5528
 1015MOL0     H33958   5.896   5.039   7.412 -0.7132 -0.3224  0.9913
 1015MOL0     H33959   5.739   5.058   7.466 -0.4993  1.7583  0.3150
 1015MOL0     H33960   5.645   4.955   7.269  1.0531  3.7917 -0.9438
 1015MOL0     H33961   5.771   4.853   7.330 -3.9868 -1.1851  1.6433
 1015MOL0     H33962   5.750   5.991   7.758  0.0441  0.4884  1.8290
 1015MOL0     H33963   5.620   6.154   7.912  1.2233  0.7669 -0.6303
 1015MOL0     H33964   5.337   6.267   8.179  0.8393 -0.8893 -3.4850
 1015MOL0     H33965   5.209   6.407   8.320  2.9171  0.2583 -2.6508
 1015MOL0     H33966   3.734   6.504   7.608  2.3056  1.3381 -1.2255
 1015MOL0     H33967   3.828   6.415   7.392 -0.2753  3.6565  0.8901
 1015MOL0     H33968   4.009   5.955   7.117 -0.3872 -0.0766  0.0181
 1015MOL0     H33969   4.188   5.891   6.963 -1.3710 -0.6892  1.6472
 1015MOL0     H33970   4.409   5.784   6.952 -0.5217 -0.0263  0.3285
 1015MOL0     H33971   4.517   5.868   7.057  1.0053 -2.1188 -0.9709
 1015MOL0     H33972   4.537   5.787   6.772  0.0697 -0.3762  0.3904
 1015MOL0     H33973   4.645   5.915   6.832  0.5763 -0.9973 -1.3595
 1015MOL0     H33974   4.751   5.775   6.989 -2.0391  2.9403  0.0751
 1015MOL0     H33975   4.745   5.676   6.839  1.4522 -0.1034  0.7948
 1015MOL0     H33976   4.694   5.550   7.060 -0.1717  0.0391  1.5652
 1015MOL0     H33977   4.550   5.636   7.079  2.0770 -1.6372  1.6651
 1015MOL0     H33978   4.437   5.378   6.775  1.4043  0.5853 -2.0043
 1015MOL0     H33979   4.431   6.214   7.087  0.3779 -0.1748  2.6773
 1015MOL0     H33980   4.268   6.276   7.256  2.3894 -0.1566 -0.5243
 1016MOL0     O33981   0.773   2.931   6.531 -0.1268  0.4620 -0.0235
 1016MOL0     C33982   0.737   3.036   6.571 -0.0335 -0.1957 -0.1626
 1016MOL0     O33983   0.821   3.129   6.622  0.0607  0.1293 -0.2832
 1016MOL0     C33984   0.934   3.079   6.675 -0.8711 -1.1087 -0.3424
 1016MOL0     C33985   1.046   3.066   6.603 -0.0985  1.4363  0.0936
 1016MOL0     C33986   1.163   3.016   6.667 -0.3100  0.1441  0.4155
 1016MOL0     C33987   1.169   2.979   6.801 -0.4176  1.0482 -0.4669
 1016MOL0     O33988   1.289   2.928   6.858 -0.9040 -0.5850  0.5068
 1016MOL0     C33989   1.419   2.952   6.796 -0.5886 -0.5081 -0.3957
 1016MOL0     C33990   1.510   2.925   6.907 -1.4193  0.3627  0.4114
 1016MOL0     C33991   1.669   2.926   6.894 -0.1146 -0.1105 -0.5307
 1016MOL0     C33992   1.719   2.918   7.039 -0.0660  0.0851 -0.2456
 1016MOL0     C33993   1.851   2.989   7.054  0.1046 -0.2187 -0.0959
 1016MOL0     C33994   1.939   2.950   7.167 -0.4782  0.1209  1.0107
 1016MOL0     C33995   2.006   3.078   7.221 -0.4204  0.0949  0.4809
 1016MOL0     C33996   2.116   3.136   7.131 -0.8642 -0.0922 -0.4902
 1016MOL0     N33997   2.195   3.246   7.194  0.1109  0.7142  0.2792
 1016MOL0     C33998   2.152   3.370   7.234  1.8416  0.9029 -0.0841
 1016MOL0     C33999   2.256   3.421   7.298 -0.8410 -0.0037  0.0595
 1016MOL0     C34000   2.267   3.543   7.377 -0.9208 -1.1314  1.0673
 1016MOL0     C34001   2.390   3.612   7.361 -0.0091  0.6190  0.0174
 1016MOL0     C34002   2.421   3.733   7.457  0.0966 -0.7280  0.9449
 1016MOL0     C34003   2.363   3.852   7.382  0.1987  0.0800  0.3068
 1016MOL0     O34004   2.389   3.974   7.451 -0.2913  0.2598 -0.1305
 1016MOL0     C34005   2.373   4.092   7.385 -0.3286  0.4840  1.0827
 1016MOL0     C34006   2.420   4.203   7.453  0.7423  0.2357 -0.4821
 1016MOL0     C34007   2.396   4.332   7.404 -0.6451  0.0967  0.2737
 1016MOL0     C34008   2.315   4.361   7.294 -0.0745  0.4302 -0.6471
 1016MOL0     C34009   2.283   4.497   7.257  0.4673  0.0313  1.1270
 1016MOL0     O34010   2.362   4.600   7.306 -1.1780 -0.2995  0.4162
 1016MOL0     C34011   2.319   4.728   7.267  0.6914 -0.1525  0.7369
 1016MOL0     C34012   2.322   4.763   7.129  0.5085 -0.7459  1.0537
 1016MOL0     C34013   2.281   4.891   7.088 -0.0492  0.1119 -0.5853
 1016MOL0     C34014   2.240   4.992   7.183  0.5089 -1.1523 -0.3839
 1016MOL0     O34015   2.173   5.109   7.147 -0.1998 -0.2020 -0.1362
 1016MOL0     C34016   2.254   5.205   7.087  0.5409  0.0561  0.0309
 1016MOL0     C34017   2.167   5.326   7.068 -0.8335 -0.0845  0.5586
 1016MOL0     C34018   2.242   5.419   6.960  0.3959 -0.3864  0.0280
 1016MOL0     C34019   2.151   5.544   6.936  0.1688 -0.2210  0.1077
 1016MOL0     C34020   2.207   5.623   6.816 -0.2014  0.5578  0.6329
 1016MOL0     C34021   2.140   5.752   6.766  0.1612  0.7755  1.7400
 1016MOL0     C34022   2.218   5.832   6.663 -0.1649  0.2040 -0.1542
 1016MOL0     C34023   2.289   5.946   6.733  0.0808 -0.3606  0.1384
 1016MOL0    Cl34024   2.176   6.070   6.775  0.4687  0.0478 -0.6542
 1016MOL0     C34025   2.255   4.961   7.323 -0.3058  0.2223  0.7498
 1016MOL0     C34026   2.291   4.829   7.360  0.2028  0.5055  0.4257
 1016MOL0     O34027   2.180   4.504   7.192 -0.8766 -0.1397  0.8297
 1016MOL0     C34028   2.271   4.247   7.221  0.2297  0.0858 -1.2468
 1016MOL0     C34029   2.292   4.110   7.269 -0.0992  0.1743  0.3176
 1016MOL0     N34030   2.357   3.326   7.295  0.0569 -0.4434 -0.6869
 1016MOL0     N34031   2.318   3.227   7.233  0.7480  0.2969 -0.2447
 1016MOL0     C34032   1.056   2.996   6.884 -0.8285  0.7042  0.8791
 1016MOL0     C34033   0.942   3.055   6.813  0.0906  0.2609 -0.2544
 1016MOL0     C34034   0.599   3.070   6.580 -0.1197 -0.0115  0.0884
 1016MOL0     C34035   0.562   3.205   6.566  0.5096 -0.3492  0.5741
 1016MOL0     C34036   0.431   3.248   6.576  1.0819 -0.2053 -0.0328
 1016MOL0     C34037   0.331   3.154   6.589  0.4848 -0.1288 -0.1134
 1016MOL0     O34038   0.203   3.194   6.584 -0.2230  0.8270 -0.6570
 1016MOL0     C34039   0.161   3.273   6.697  0.1564  0.0339 -0.5200
 1016MOL0     C34040   0.011   3.296   6.671  0.5372  0.2886 -0.3959
 1016MOL0     C34041  -0.073   3.175   6.698  0.4788 -0.1979  0.8675
 1016MOL0     C34042  -0.207   3.187   6.631  0.7655  0.9259 -0.4023
 1016MOL0     C34043  -0.272   3.316   6.666  0.3637 -0.6339  0.0504
 1016MOL0     C34044  -0.323   3.430   6.676  0.0036  0.3030 -0.0557
 1016MOL0     C34045   0.365   3.021   6.618 -0.8351  0.4293 -0.1390
 1016MOL0     C34046   0.495   2.977   6.612 -0.0863 -0.6926  0.7321
 1016MOL0     H34047   1.046   3.088   6.497  4.2149  0.2162 -0.3844
 1016MOL0     H34048   1.250   2.992   6.607 -0.1056 -0.6929  1.0272
 1016MOL0     H34049   1.423   3.058   6.769 -2.4583  0.1272  1.5138
 1016MOL0     H34050   1.443   2.896   6.705 -0.5923  0.7293 -1.1889
 1016MOL0     H34051   1.486   2.833   6.962  1.2887 -1.4056 -1.1304
 1016MOL0     H34052   1.502   3.011   6.974  1.4232  1.1365 -0.1287
 1016MOL0     H34053   1.700   3.022   6.851  4.2235 -0.4024  1.4907
 1016MOL0     H34054   1.694   2.843   6.828 -1.1459  0.3305 -1.5107
 1016MOL0     H34055   1.657   2.962   7.118  1.6607  2.2495  0.0120
 1016MOL0     H34056   1.725   2.816   7.079 -1.4100  1.3021  3.5221
 1016MOL0     H34057   1.837   3.097   7.044  0.1138 -0.2101 -0.0182
 1016MOL0     H34058   1.900   2.965   6.959  0.7567 -1.6174  0.5539
 1016MOL0     H34059   2.009   2.875   7.129 -0.6215 -0.9453  2.7413
 1016MOL0     H34060   1.890   2.909   7.256  1.1373  2.3908  3.1064
 1016MOL0     H34061   1.924   3.145   7.249  1.1181  1.5125  1.8469
 1016MOL0     H34062   2.050   3.063   7.320 -2.2797 -1.8383  1.0868
 1016MOL0     H34063   2.075   3.186   7.043  0.2131  1.7078 -0.0205
 1016MOL0     H34064   2.187   3.059   7.099  1.7395  2.9005 -2.4955
 1016MOL0     H34065   2.049   3.399   7.245  1.5019 -0.5559  0.8982
 1016MOL0     H34066   2.259   3.520   7.484  1.1794 -0.2365  1.4700
 1016MOL0     H34067   2.185   3.608   7.346 -0.7195 -1.5770 -0.4630
 1016MOL0     H34068   2.399   3.630   7.253 -1.4851 -0.4540 -0.3187
 1016MOL0     H34069   2.466   3.535   7.372 -1.3898 -0.9056 -0.7518
 1016MOL0     H34070   2.395   3.719   7.562  2.8612  1.9288  2.1366
 1016MOL0     H34071   2.530   3.737   7.455  0.5249 -5.5493 -0.9092
 1016MOL0     H34072   2.256   3.846   7.358  0.0497 -0.6515  1.1237
 1016MOL0     H34073   2.420   3.841   7.289  1.5727 -2.3686  1.3632
 1016MOL0     H34074   2.482   4.195   7.542  3.3994  3.6888 -1.7616
 1016MOL0     H34075   2.442   4.413   7.460  1.4791 -1.1704  0.4605
 1016MOL0     H34076   2.347   4.693   7.049  1.2749  1.1483 -0.4430
 1016MOL0     H34077   2.291   4.905   6.981 -0.5044 -0.6230 -0.7319
 1016MOL0     H34078   2.287   5.170   6.989 -0.8530  2.5641 -1.4490
 1016MOL0     H34079   2.339   5.226   7.153 -0.8652 -1.1246  2.3516
 1016MOL0     H34080   2.154   5.383   7.160  3.0851  0.6036  0.8706
 1016MOL0     H34081   2.067   5.296   7.036 -0.3983 -0.5923 -0.3818
 1016MOL0     H34082   2.253   5.360   6.868  0.1718 -1.2708  0.5558
 1016MOL0     H34083   2.336   5.454   7.004 -1.1886  0.6105  2.8437
 1016MOL0     H34084   2.044   5.530   6.920 -0.2260  3.1354 -0.9530
 1016MOL0     H34085   2.160   5.608   7.024  2.4945  0.2740 -0.4157
 1016MOL0     H34086   2.200   5.555   6.731  1.3894 -1.3956  1.9525
 1016MOL0     H34087   2.310   5.639   6.847  0.5813 -2.4912 -0.0931
 1016MOL0     H34088   2.108   5.817   6.848 -3.4624  0.7196  0.5787
 1016MOL0     H34089   2.046   5.710   6.728  0.4398  0.2482  1.6203
 1016MOL0     H34090   2.302   5.770   6.629  2.2747  0.5962  4.4721
 1016MOL0     H34091   2.150   5.871   6.587 -2.0079 -2.5991 -0.1197
 1016MOL0     H34092   2.344   6.003   6.658 -0.9717 -0.5124 -0.7752
 1016MOL0     H34093   2.361   5.911   6.808  0.1826  1.5117  0.9651
 1016MOL0     H34094   2.245   5.042   7.395  0.8300  1.4250 -0.3911
 1016MOL0     H34095   2.311   4.805   7.464  0.3953 -2.1803 -0.1468
 1016MOL0     H34096   2.209   4.247   7.131  0.5447 -2.5013 -1.5394
 1016MOL0     H34097   2.248   4.029   7.212 -0.4621  0.8891 -0.4561
 1016MOL0     H34098   1.059   2.958   6.985 -0.8130 -2.4011 -0.2065
 1016MOL0     H34099   0.852   3.093   6.861 -0.5643 -0.6300 -0.7435
 1016MOL0     H34100   0.638   3.280   6.545 -0.0939 -0.4739 -2.5496
 1016MOL0     H34101   0.405   3.351   6.550  0.2942 -0.9345 -2.4433
 1016MOL0     H34102   0.207   3.372   6.703  2.0358 -0.8732  0.7658
 1016MOL0     H34103   0.170   3.208   6.785 -1.5728 -1.5406 -1.4350
 1016MOL0     H34104  -0.018   3.378   6.737 -1.8247 -1.0620  0.3868
 1016MOL0     H34105  -0.005   3.333   6.570 -0.0760  2.5239  0.4629
 1016MOL0     H34106  -0.083   3.160   6.806 -1.4726  1.7316  1.0240
 1016MOL0     H34107  -0.014   3.096   6.651  1.3472 -2.8666  5.7748
 1016MOL0     H34108  -0.193   3.173   6.523  2.6844 -0.7752  0.0108
 1016MOL0     H34109  -0.275   3.106   6.656  2.2073 -1.0855 -2.5617
 1016MOL0     H34110  -0.358   3.529   6.697 -0.1276  0.7021 -1.9557
 1016MOL0     H34111   0.299   2.944   6.656  0.6339 -0.4722  0.6728
 1016MOL0     H34112   0.523   2.875   6.635 -1.5529 -1.0943  0.8810
 1017MOL0     O34113   6.185   8.811  10.776 -0.0067  1.1751  0.1603
 1017MOL0     C34114   6.253   8.911  10.814 -0.5709  0.2253 -0.2230
 1017MOL0     O34115   6.207   9.041  10.816  0.4432 -0.1570  0.0516
 1017MOL0     C34116   6.068   9.057  10.799 -0.7380 -0.1299 -0.3120
 1017MOL0     C34117   6.022   9.137  10.693 -0.0332  0.6494  0.6085
 1017MOL0     C34118   5.889   9.183  10.685  0.6598 -0.5867  0.1779
 1017MOL0     C34119   5.794   9.150  10.781  0.7106  0.1338 -1.1545
 1017MOL0     O34120   5.663   9.183  10.780  0.0043  0.5209 -1.2764
 1017MOL0     C34121   5.588   9.215  10.661  0.6750 -0.4279  0.3199
 1017MOL0     C34122   5.482   9.331  10.666 -0.9586  0.0035 -0.5235
 1017MOL0     C34123   5.535   9.470  10.622  0.7786 -0.6872  0.4178
 1017MOL0     C34124   5.538   9.575  10.733  0.1510 -0.6630 -0.3601
 1017MOL0     C34125   5.549   9.724  10.688  0.4384  0.2470  0.5535
 1017MOL0     C34126   5.685   9.747  10.606  0.4067  0.4527 -0.6529
 1017MOL0     C34127   5.719   9.892  10.594 -0.4222 -1.1441  0.2445
 1017MOL0     C34128   5.812   9.928  10.475  0.0656  0.3597  0.3959
 1017MOL0     N34129   5.744   9.924  10.342 -0.7034 -0.2153  0.1061
 1017MOL0     C34130   5.626   9.985  10.322 -0.3181  0.0674  0.7433
 1017MOL0     C34131   5.586   9.934  10.208 -1.0586  0.2268 -1.2910
 1017MOL0     C34132   5.456   9.976  10.154 -0.1076  0.1292  1.3196
 1017MOL0     C34133   5.478  10.035  10.011  0.4894  0.3132 -0.0211
 1017MOL0     C34134   5.344  10.010   9.927  0.6617 -0.5075  0.0867
 1017MOL0     C34135   5.312   9.866   9.896 -0.0408 -0.3754 -0.2788
 1017MOL0     O34136   5.403   9.815   9.791 -0.3951 -0.2470  0.1089
 1017MOL0     C34137   5.408   9.872   9.666  0.1807 -0.9215 -0.4168
 1017MOL0     C34138   5.301   9.955   9.617  0.3197  0.9664  0.1643
 1017MOL0     C34139   5.308  10.005   9.482  0.7112 -0.5924 -0.7460
 1017MOL0     C34140   5.416   9.990   9.401 -0.1439 -0.3927 -0.5242
 1017MOL0     C34141   5.440  10.063   9.276  0.7005  1.5125 -0.3566
 1017MOL0     O34142   5.324  10.120   9.225  0.6828 -0.3340  0.6003
 1017MOL0     C34143   5.324  10.199   9.110 -0.3877 -0.0820 -0.5251
 1017MOL0     C34144   5.350  10.153   8.986 -0.1639 -0.4729 -0.2386
 1017MOL0     C34145   5.356  10.241   8.879  0.4106  0.0681 -0.1479
 1017MOL0     C34146   5.347  10.381   8.898 -0.5951  0.1092  0.7248
 1017MOL0     O34147   5.307  10.459   8.790 -0.3576 -0.2479 -0.4201
 1017MOL0     C34148   5.406  10.563   8.756  0.4718  0.2022  0.4739
 1017MOL0     C34149   5.449  10.548   8.613 -0.1801 -1.0266  0.5500
 1017MOL0     C34150   5.333  10.557   8.513 -1.2048 -0.1338  0.4492
 1017MOL0     C34151   5.399  10.532   8.372 -1.0977 -0.1736  0.9854
 1017MOL0     C34152   5.294  10.508   8.264 -0.4791 -0.2905  0.1774
 1017MOL0     C34153   5.361  10.460   8.140  0.6385 -0.0948 -0.4950
 1017MOL0     C34154   5.414  10.316   8.129 -0.3309 -0.1446  0.1824
 1017MOL0     C34155   5.486  10.295   8.000 -0.2578  0.4200  1.2106
 1017MOL0    Cl34156   5.570  10.139   8.037 -0.1699 -0.7038  0.0463
 1017MOL0     C34157   5.322  10.422   9.030  0.9262 -0.3546  0.6933
 1017MOL0     C34158   5.296  10.332   9.132 -0.5145 -0.1428 -0.4301
 1017MOL0     O34159   5.545  10.051   9.216 -0.3585  0.6696  0.0236
 1017MOL0     C34160   5.518   9.912   9.453 -0.0226 -1.4839  0.2732
 1017MOL0     C34161   5.516   9.845   9.577 -0.5003  0.1909 -0.5864
 1017MOL0     N34162   5.686   9.844  10.164 -0.1503 -0.1719 -0.5657
 1017MOL0     N34163   5.776   9.834  10.250  0.2920 -0.2540 -0.0282
 1017MOL0     C34164   5.838   9.070  10.890  0.7131 -1.0848 -0.0797
 1017MOL0     C34165   5.971   9.029  10.901 -0.3418 -0.4669  0.3984
 1017MOL0     C34166   6.381   8.878  10.879  0.5970 -0.3117  0.0912
 1017MOL0     C34167   6.450   8.968  10.956  0.8560  0.2929 -0.2687
 1017MOL0     C34168   6.581   8.952  10.995 -0.2175 -0.1041 -0.4414
 1017MOL0     C34169   6.649   8.836  10.967  0.3320  0.4360 -0.0684
 1017MOL0     O34170   6.779   8.843  11.004  0.3461 -0.2098 -0.1636
 1017MOL0     C34171   6.853   8.721  11.028 -0.4753 -0.1654  0.4156
 1017MOL0     C34172   6.810   8.630  11.135 -0.8752  0.4845  0.0376
 1017MOL0     C34173   6.758   8.703  11.256 -1.2798 -0.9197  0.0946
 1017MOL0     C34174   6.755   8.612  11.369  0.5721 -0.4335  0.2478
 1017MOL0     C34175   6.883   8.568  11.424 -0.8838  0.6284 -0.2516
 1017MOL0     C34176   6.998   8.532  11.466 -0.3898  0.1091  0.5059
 1017MOL0     C34177   6.587   8.735  10.882  0.4445  0.8037 -0.4812
 1017MOL0     C34178   6.453   8.756  10.842  0.2406 -0.6922  0.3502
 1017MOL0     H34179   6.098   9.167  10.621 -0.2753 -0.8269 -0.3154
 1017MOL0     H34180   5.879   9.251  10.601  5.2050 -1.6278 -1.5024
 1017MOL0     H34181   5.545   9.125  10.618  0.7103 -0.6541  0.7486
 1017MOL0     H34182   5.657   9.243  10.581 -3.0093  0.8895 -2.6739
 1017MOL0     H34183   5.429   9.329  10.762 -0.6513 -0.1018 -0.3534
 1017MOL0     H34184   5.411   9.297  10.590  0.5944 -2.0630 -1.1363
 1017MOL0     H34185   5.470   9.517  10.547  1.6239  1.6949  1.0780
 1017MOL0     H34186   5.626   9.454  10.563  2.4145  1.9269  2.0519
 1017MOL0     H34187   5.446   9.568  10.792  0.6692 -2.1475  0.3256
 1017MOL0     H34188   5.614   9.550  10.808 -1.2023 -0.2973  1.1957
 1017MOL0     H34189   5.523   9.786  10.774 -4.0370  1.6715 -1.5314
 1017MOL0     H34190   5.470   9.742  10.615 -1.0803 -3.0641  1.1787
 1017MOL0     H34191   5.694   9.708  10.505  1.5095  0.1329 -0.4434
 1017MOL0     H34192   5.761   9.695  10.665 -0.9913 -0.4051  0.4507
 1017MOL0     H34193   5.629   9.953  10.582  2.4650  3.6110  0.0012
 1017MOL0     H34194   5.765   9.936  10.683  1.1570 -0.5053 -0.8254
 1017MOL0     H34195   5.896   9.859  10.488 -0.4751 -0.4676 -0.4599
 1017MOL0     H34196   5.840  10.033  10.489 -1.4391  0.7779  0.4393
 1017MOL0     H34197   5.564  10.046  10.387 -3.7473  0.4737 -2.6000
 1017MOL0     H34198   5.407  10.062  10.202 -0.3970  3.4010 -4.0041
 1017MOL0     H34199   5.391   9.888  10.150  1.5005 -1.0560  0.6835
 1017MOL0     H34200   5.559   9.979   9.963  0.6001 -0.5027  1.0631
 1017MOL0     H34201   5.508  10.139  10.027 -0.9022  0.6743  0.3485
 1017MOL0     H34202   5.262  10.047   9.990 -0.8222 -0.9550 -1.5105
 1017MOL0     H34203   5.344  10.075   9.839  1.9800 -0.2039  0.2960
 1017MOL0     H34204   5.209   9.858   9.858 -0.2050  1.0398 -0.1840
 1017MOL0     H34205   5.324   9.791   9.975  4.6688 -0.1040 -0.4477
 1017MOL0     H34206   5.212   9.981   9.675 -1.4644  0.0066 -1.9822
 1017MOL0     H34207   5.232  10.073   9.446  1.4314 -0.2115 -1.5715
 1017MOL0     H34208   5.347  10.049   8.955 -0.8916  0.1794 -2.6313
 1017MOL0     H34209   5.375  10.227   8.773 -1.0213  0.6551 -0.5035
 1017MOL0     H34210   5.490  10.553   8.825 -0.6446 -1.3237  1.6624
 1017MOL0     H34211   5.355  10.660   8.766  0.2313  0.3010 -1.2929
 1017MOL0     H34212   5.506  10.455   8.607  0.7655 -0.8757  4.5314
 1017MOL0     H34213   5.502  10.635   8.574 -4.2611 -0.1665 -4.1515
 1017MOL0     H34214   5.274  10.649   8.515 -2.9509 -1.1907 -0.3156
 1017MOL0     H34215   5.274  10.467   8.531  1.5022 -2.8064 -2.7376
 1017MOL0     H34216   5.459  10.618   8.340 -1.9348  0.5139  1.2382
 1017MOL0     H34217   5.458  10.440   8.370 -2.2935 -1.0225 -3.3115
 1017MOL0     H34218   5.245  10.604   8.248 -0.6496 -0.2554  0.8886
 1017MOL0     H34219   5.221  10.428   8.281 -0.6910 -0.3398 -0.8980
 1017MOL0     H34220   5.437  10.531   8.108 -2.5835  3.6391 -0.6250
 1017MOL0     H34221   5.282  10.469   8.065 -0.3811 -2.8320  0.1486
 1017MOL0     H34222   5.483  10.290   8.210 -2.1612 -1.5723  1.3626
 1017MOL0     H34223   5.335  10.240   8.132 -1.3920  0.8702 -0.7899
 1017MOL0     H34224   5.560  10.375   7.999 -0.8933  1.0505 -1.1737
 1017MOL0     H34225   5.423  10.288   7.911 -0.0091 -0.8187  1.1116
 1017MOL0     H34226   5.313  10.529   9.043 -4.6220 -0.6240  1.3665
 1017MOL0     H34227   5.254  10.365   9.227  3.4052 -1.9427  2.2239
 1017MOL0     H34228   5.605   9.894   9.390  0.6629  1.4508  0.2556
 1017MOL0     H34229   5.598   9.784   9.615  0.6232  2.1307  0.2420
 1017MOL0     H34230   5.775   9.064  10.979 -0.9164  2.5714 -0.8049
 1017MOL0     H34231   5.979   8.973  10.994 -0.5977 -0.4570  0.4279
 1017MOL0     H34232   6.406   9.065  10.976 -0.7829 -0.6538  1.0470
 1017MOL0     H34233   6.632   9.033  11.045  0.0581 -1.0749  0.9006
 1017MOL0     H34234   6.956   8.744  11.055  0.3913 -2.2755 -0.8406
 1017MOL0     H34235   6.867   8.667  10.934  2.1013  1.1940 -0.0621
 1017MOL0     H34236   6.735   8.558  11.103  0.9446 -2.1253  1.2980
 1017MOL0     H34237   6.897   8.566  11.152 -1.7106 -1.5472 -2.6212
 1017MOL0     H34238   6.667   8.757  11.228 -0.6700  0.1335  0.0936
 1017MOL0     H34239   6.833   8.782  11.260 -1.0291 -1.1586  0.0961
 1017MOL0     H34240   6.694   8.649  11.452  1.5378  1.7198  0.0461
 1017MOL0     H34241   6.700   8.521  11.344 -1.0366  0.5274  0.0845
 1017MOL0     H34242   7.095   8.499  11.499  1.0347  0.4567 -2.9034
 1017MOL0     H34243   6.646   8.648  10.856 -1.0622  0.1517 -1.7951
 1017MOL0     H34244   6.402   8.684  10.778 -0.9871 -0.5183  1.1022
 1018MOL0     O34245  11.056   3.902  11.231 -0.2389  0.2905 -0.7573
 1018MOL0     C34246  10.991   3.997  11.276  0.0019  0.2244 -0.1366
 1018MOL0     O34247  10.948   4.108  11.203  1.0293  0.4642 -0.0545
 1018MOL0     C34248  10.947   4.094  11.062 -0.3691 -0.2701  0.0995
 1018MOL0     C34249  10.858   4.010  10.999 -0.4440 -0.2732  0.2117
 1018MOL0     C34250  10.850   4.002  10.861 -0.4747  0.0454  0.2519
 1018MOL0     C34251  10.940   4.076  10.783 -1.0657  0.1731  0.4510
 1018MOL0     O34252  10.956   4.034  10.655 -0.1359  0.3257 -0.6121
 1018MOL0     C34253  10.845   4.074  10.576  0.4354  0.1011  0.7623
 1018MOL0     C34254  10.876   4.016  10.431 -0.1132  0.7424 -0.6903
 1018MOL0     C34255  11.016   4.061  10.386 -0.2854 -0.5792 -0.5588
 1018MOL0     C34256  11.055   3.985  10.265 -0.6623 -0.8584  0.1789
 1018MOL0     C34257  11.201   4.005  10.225 -1.1000 -0.2307  0.7285
 1018MOL0     C34258  11.309   3.935  10.322  0.8703 -0.3154 -0.2103
 1018MOL0     C34259  11.276   3.818  10.422  0.2428  0.1804  0.1952
 1018MOL0     C34260  11.380   3.791  10.535 -0.3209  0.1515  0.6050
 1018MOL0     N34261  11.335   3.689  10.636 -0.4372  0.1022 -0.4620
 1018MOL0     C34262  11.221   3.697  10.701  0.4924  0.8345 -0.5135
 1018MOL0     C34263  11.206   3.577  10.762  0.5435 -0.5462  0.3676
 1018MOL0     C34264  11.079   3.541  10.844  0.3215  0.9876 -0.1034
 1018MOL0     C34265  11.101   3.554  10.995 -1.0425  0.2027  0.0314
 1018MOL0     C34266  10.991   3.529  11.097  0.8865  0.4599 -0.4014
 1018MOL0     C34267  10.861   3.617  11.069  0.5270 -0.1972 -0.4924
 1018MOL0     O34268  10.791   3.580  10.953  0.9796 -0.3685 -0.8056
 1018MOL0     C34269  10.688   3.663  10.925 -0.2314 -0.2146  0.5600
 1018MOL0     C34270  10.608   3.736  11.012  0.4232 -0.4546 -0.5910
 1018MOL0     C34271  10.496   3.803  10.970 -0.4441  0.0394 -0.8307
 1018MOL0     C34272  10.465   3.809  10.835  0.3344  0.9897 -0.6766
 1018MOL0     C34273  10.345   3.883  10.788 -0.2095 -0.1814 -0.2695
 1018MOL0     O34274  10.318   3.865  10.660 -0.0707 -0.3959 -0.1921
 1018MOL0     C34275  10.222   3.946  10.599 -0.1359 -0.8970  0.0926
 1018MOL0     C34276  10.184   4.078  10.640  0.4575 -0.3654  0.6446
 1018MOL0     C34277  10.072   4.141  10.586  0.2716 -0.4641 -0.7312
 1018MOL0     C34278   9.994   4.069  10.495  0.1143 -0.0288 -0.7396
 1018MOL0     O34279   9.869   4.122  10.468  0.3524 -0.0825 -0.5656
 1018MOL0     C34280   9.837   4.149  10.334  0.7912  0.7197 -0.2318
 1018MOL0     C34281   9.691   4.125  10.293  0.3190  0.5923 -0.2861
 1018MOL0     C34282   9.659   3.996  10.219 -0.6848 -0.0742  0.2904
 1018MOL0     C34283   9.690   3.878  10.313 -0.5061 -0.0831  1.2094
 1018MOL0     C34284   9.583   3.770  10.307 -0.2992  0.6737 -0.7845
 1018MOL0     C34285   9.442   3.820  10.370 -0.1464  0.4157  0.2877
 1018MOL0     C34286   9.340   3.709  10.335  0.2739 -0.8317 -0.5155
 1018MOL0     C34287   9.201   3.743  10.325 -0.5411  0.7687  0.5042
 1018MOL0    Cl34288   9.184   3.853  10.179 -0.4730 -0.2377 -0.0864
 1018MOL0     C34289  10.023   3.934  10.460 -0.5666  0.6684  0.1479
 1018MOL0     C34290  10.143   3.874  10.509  0.8482 -0.7176 -0.7076
 1018MOL0     O34291  10.278   3.951  10.863 -0.1024  0.2688  0.5404
 1018MOL0     C34292  10.537   3.734  10.748 -0.1181 -1.2840  1.8523
 1018MOL0     C34293  10.647   3.655  10.789  0.1292 -0.2199  0.4159
 1018MOL0     N34294  11.312   3.502  10.737  0.3020 -0.1960  0.4050
 1018MOL0     N34295  11.390   3.568  10.658 -0.0789 -0.1906  0.3308
 1018MOL0     C34296  11.026   4.160  10.845 -0.7078  0.3607  0.1193
 1018MOL0     C34297  11.028   4.172  10.981 -0.9786 -0.4575 -0.2578
 1018MOL0     C34298  10.992   4.011  11.423 -0.5807 -0.0537  0.0366
 1018MOL0     C34299  10.915   4.111  11.481 -0.2066  0.1090 -0.0332
 1018MOL0     C34300  10.929   4.143  11.614  0.3301  0.5130 -0.7400
 1018MOL0     C34301  11.020   4.070  11.700 -0.8756  0.3385  0.7449
 1018MOL0     O34302  11.045   4.078  11.827 -0.4069 -0.4632  0.4924
 1018MOL0     C34303  10.982   4.163  11.923  0.3074 -0.5654 -0.1396
 1018MOL0     C34304  11.042   4.302  11.942 -0.0107  0.4703  0.2575
 1018MOL0     C34305  11.149   4.311  12.047 -0.4398 -0.2767  0.0324
 1018MOL0     C34306  11.156   4.448  12.110  0.1538 -0.2147 -0.7774
 1018MOL0     C34307  11.268   4.468  12.199 -0.4256 -0.3390 -0.4373
 1018MOL0     C34308  11.367   4.484  12.256 -0.2159 -0.0016 -0.8312
 1018MOL0     C34309  11.111   3.978  11.640 -0.4124 -0.1904  0.3805
 1018MOL0     C34310  11.085   3.943  11.505  0.7518 -0.1851 -0.0586
 1018MOL0     H34311  10.796   3.950  11.065 -0.6416  0.7179  0.9530
 1018MOL0     H34312  10.792   3.923  10.814 -2.5894  0.7811  1.5005
 1018MOL0     H34313  10.844   4.183  10.580  2.6792  0.2328 -0.6369
 1018MOL0     H34314  10.754   4.030  10.619  1.9317 -0.5322  3.5158
 1018MOL0     H34315  10.807   4.040  10.350  1.9533 -0.4114 -2.9396
 1018MOL0     H34316  10.874   3.907  10.441  2.1959  0.8367  2.8274
 1018MOL0     H34317  11.094   4.036  10.459  1.3257 -0.1117 -2.0647
 1018MOL0     H34318  11.022   4.170  10.374  0.8429 -0.5990 -0.3520
 1018MOL0     H34319  11.010   3.886  10.276 -3.0784  0.3156  1.8977
 1018MOL0     H34320  10.992   4.034  10.190  0.3239 -0.8482 -0.6578
 1018MOL0     H34321  11.228   4.111  10.231 -1.7894 -0.0439  0.6282
 1018MOL0     H34322  11.211   3.983  10.118 -1.4732 -0.7175  0.7882
 1018MOL0     H34323  11.339   4.025  10.377  1.7324  0.0079 -1.1711
 1018MOL0     H34324  11.395   3.915  10.257 -1.9367 -1.3422 -4.0258
 1018MOL0     H34325  11.185   3.836  10.480 -1.2047 -0.1212 -1.8481
 1018MOL0     H34326  11.248   3.726  10.369  0.9226 -0.9256  1.6699
 1018MOL0     H34327  11.415   3.884  10.581 -0.2367 -0.0031  0.8508
 1018MOL0     H34328  11.469   3.748  10.489 -0.8979 -0.4975  0.0625
 1018MOL0     H34329  11.173   3.794  10.709  1.9554  1.5401  0.0806
 1018MOL0     H34330  11.045   3.444  10.808  2.6086  0.0650  0.0180
 1018MOL0     H34331  10.997   3.609  10.822 -2.7456 -2.0426  1.0769
 1018MOL0     H34332  11.148   3.648  11.025  0.5087  0.2491 -2.3245
 1018MOL0     H34333  11.175   3.476  11.016 -0.7260  0.2561 -0.8478
 1018MOL0     H34334  10.968   3.422  11.096  1.7670  0.2554 -0.0362
 1018MOL0     H34335  11.031   3.542  11.198  0.9566 -0.1278 -0.3504
 1018MOL0     H34336  10.883   3.723  11.053  2.6055 -0.8540 -2.6674
 1018MOL0     H34337  10.790   3.604  11.151  0.3785  0.1898 -0.5586
 1018MOL0     H34338  10.608   3.733  11.120 -3.0636 -0.1074 -0.4553
 1018MOL0     H34339  10.433   3.859  11.039 -3.6582 -3.0281 -0.9960
 1018MOL0     H34340  10.251   4.120  10.715  1.4125 -0.6839 -0.0134
 1018MOL0     H34341  10.037   4.236  10.626 -2.2390 -1.9529  0.8416
 1018MOL0     H34342   9.894   4.078  10.274 -1.0533 -1.0540  0.0083
 1018MOL0     H34343   9.871   4.251  10.313  0.6698  0.6637 -0.6984
 1018MOL0     H34344   9.650   4.207  10.232  1.8856  1.5970 -0.0640
 1018MOL0     H34345   9.618   4.131  10.374 -1.4933  1.3302 -1.8921
 1018MOL0     H34346   9.726   3.978  10.134  0.0182  0.9907  0.5956
 1018MOL0     H34347   9.559   4.004  10.176 -0.8105  0.9429  0.7384
 1018MOL0     H34348   9.791   3.849  10.284 -1.5603 -1.7717 -1.0541
 1018MOL0     H34349   9.694   3.914  10.416 -2.0575  1.5217  0.7662
 1018MOL0     H34350   9.617   3.680  10.359  0.4271  1.1781 -0.3648
 1018MOL0     H34351   9.574   3.745  10.201 -1.4291 -0.2173 -0.4879
 1018MOL0     H34352   9.415   3.915  10.324 -0.1184  0.4954  0.4367
 1018MOL0     H34353   9.442   3.831  10.478  0.9506  0.2654  0.3132
 1018MOL0     H34354   9.368   3.672  10.236 -0.7119  0.5119 -1.3202
 1018MOL0     H34355   9.354   3.623  10.402  2.4634  1.3753  2.1268
 1018MOL0     H34356   9.170   3.787  10.420 -0.0241  0.6602  0.7202
 1018MOL0     H34357   9.147   3.648  10.320 -1.4766  1.1059  3.0439
 1018MOL0     H34358   9.968   3.880  10.384 -3.6127  0.2934  2.4398
 1018MOL0     H34359  10.180   3.773  10.497  1.4709 -0.5098 -0.6088
 1018MOL0     H34360  10.509   3.730  10.643 -3.2770  1.4839  2.4367
 1018MOL0     H34361  10.693   3.590  10.715 -2.8973 -0.2038 -1.6429
 1018MOL0     H34362  11.103   4.219  10.798  1.2945 -2.3761 -0.3047
 1018MOL0     H34363  11.091   4.247  11.027 -2.5015  0.8159 -0.1497
 1018MOL0     H34364  10.837   4.166  11.428 -0.1661  0.0181 -0.1896
 1018MOL0     H34365  10.859   4.219  11.647  0.9327  0.8979 -0.3328
 1018MOL0     H34366  10.984   4.116  12.022  1.6186 -0.3235 -0.0300
 1018MOL0     H34367  10.877   4.175  11.895  0.3121  1.2623  0.4991
 1018MOL0     H34368  11.083   4.334  11.845 -4.1035  1.6531 -1.2906
 1018MOL0     H34369  10.957   4.365  11.969  0.4325  0.7464  1.0353
 1018MOL0     H34370  11.241   4.275  11.999 -2.0537 -1.2318 -2.5808
 1018MOL0     H34371  11.135   4.229  12.118  1.2864 -0.3915  0.2806
 1018MOL0     H34372  11.168   4.531  12.040  0.4572  2.2744  2.0114
 1018MOL0     H34373  11.066   4.474  12.166 -0.7041  0.3349 -2.3467
 1018MOL0     H34374  11.461   4.479  12.307 -0.2255 -2.5687 -0.8970
 1018MOL0     H34375  11.192   3.927  11.691  0.1458 -0.4422 -0.7247
 1018MOL0     H34376  11.132   3.864  11.447 -3.4503 -1.4734 -2.1643
 1019MOL0     O34377   2.934   7.380   0.244 -0.3080  0.0542 -0.1338
 1019MOL0     C34378   2.850   7.425   0.322 -0.2097  0.0615  0.5368
 1019MOL0     O34379   2.717   7.397   0.329  0.2764 -0.1612  0.8094
 1019MOL0     C34380   2.670   7.301   0.242 -0.1302 -0.2062  0.1626
 1019MOL0     C34381   2.664   7.165   0.274  0.6076  0.4250 -1.1636
 1019MOL0     C34382   2.619   7.061   0.183  0.5253  0.0337 -0.8338
 1019MOL0     C34383   2.563   7.097   0.063 -0.5675 -1.2980 -0.9879
 1019MOL0     O34384   2.507   7.005  -0.015 -0.0629  0.5224 -0.3466
 1019MOL0     C34385   2.449   7.031  -0.141  0.3687  0.5031  0.5854
 1019MOL0     C34386   2.391   6.899  -0.196  0.0278 -0.7204  0.4795
 1019MOL0     C34387   2.426   6.893  -0.347 -0.7623 -0.2664  0.0499
 1019MOL0     C34388   2.374   6.784  -0.425 -0.0929  1.1378  0.3969
 1019MOL0     C34389   2.421   6.804  -0.573  0.3771 -0.0143 -1.0139
 1019MOL0     C34390   2.355   6.708  -0.674  0.8004 -0.4051  0.2256
 1019MOL0     C34391   2.197   6.717  -0.673 -0.4855  0.6960  0.2430
 1019MOL0     C34392   2.136   6.859  -0.671 -0.7525  0.4216  0.6067
 1019MOL0     N34393   1.996   6.851  -0.653  0.8602  0.0226  0.1626
 1019MOL0     C34394   1.923   6.957  -0.602 -1.2382  0.6468  0.6910
 1019MOL0     C34395   1.797   6.911  -0.601 -0.3451 -0.8972 -0.8286
 1019MOL0     C34396   1.684   6.981  -0.541 -0.7896  0.3822 -0.1791
 1019MOL0     C34397   1.671   6.952  -0.394 -0.0430  0.5644 -0.5384
 1019MOL0     C34398   1.538   7.017  -0.339  0.7208 -0.2124  0.8700
 1019MOL0     C34399   1.501   6.961  -0.195  0.3590 -0.6720 -0.2364
 1019MOL0     O34400   1.569   7.055  -0.105 -0.7552 -0.2464 -0.0021
 1019MOL0     C34401   1.565   7.038   0.031  0.1047 -0.6384 -0.5168
 1019MOL0     C34402   1.468   6.954   0.089  0.3664  0.0476 -0.2402
 1019MOL0     C34403   1.463   6.940   0.231  0.4331 -0.0962 -0.9655
 1019MOL0     C34404   1.563   7.005   0.311  0.6475 -0.0094 -0.4440
 1019MOL0     C34405   1.553   6.979   0.461  0.7288 -0.7161 -1.0512
 1019MOL0     O34406   1.474   6.877   0.508 -0.0504  0.4178 -0.2320
 1019MOL0     C34407   1.481   6.834   0.639  0.2918 -0.7750  0.6839
 1019MOL0     C34408   1.361   6.805   0.708  1.0133  0.0037  1.0634
 1019MOL0     C34409   1.371   6.775   0.839  0.1941  0.1378  0.0772
 1019MOL0     C34410   1.487   6.771   0.911 -0.7201  0.0801 -0.5145
 1019MOL0     O34411   1.478   6.751   1.050  0.0817 -0.0940  0.0045
 1019MOL0     C34412   1.588   6.752   1.135  0.0324 -0.0458  0.1120
 1019MOL0     C34413   1.551   6.732   1.280 -0.1762 -0.4710 -0.3727
 1019MOL0     C34414   1.693   6.746   1.359  0.4842 -0.3561 -0.3175
 1019MOL0     C34415   1.776   6.624   1.337  0.1144  0.3185  0.1977
 1019MOL0     C34416   1.927   6.641   1.313  0.1679  1.3824  0.5425
 1019MOL0     C34417   1.995   6.504   1.295 -0.4095  0.2910 -0.1308
 1019MOL0     C34418   2.143   6.521   1.279  0.3499  0.0478  0.3145
 1019MOL0     C34419   2.217   6.400   1.322  0.5648 -0.4714 -0.2178
 1019MOL0    Cl34420   2.386   6.415   1.269  0.2791 -0.0223 -0.2628
 1019MOL0     C34421   1.600   6.814   0.853  0.0306 -1.2811 -0.3193
 1019MOL0     C34422   1.598   6.836   0.711  0.9612  0.8780 -0.0207
 1019MOL0     O34423   1.625   7.053   0.535  0.0820 -0.7111  0.2383
 1019MOL0     C34424   1.655   7.088   0.250  0.4127 -0.0847 -0.8572
 1019MOL0     C34425   1.655   7.108   0.107 -0.0546 -0.5138 -0.4514
 1019MOL0     N34426   1.783   6.795  -0.661  0.4599  0.3399  0.0864
 1019MOL0     N34427   1.894   6.765  -0.698  0.1149  0.7892 -0.4551
 1019MOL0     C34428   2.574   7.237   0.029 -0.8313  1.1682  0.2805
 1019MOL0     C34429   2.620   7.332   0.113 -0.7419  0.9245  0.5675
 1019MOL0     C34430   2.894   7.530   0.418  0.3754  0.0962 -0.6141
 1019MOL0     C34431   3.027   7.579   0.407 -0.1917  0.0955 -1.2528
 1019MOL0     C34432   3.081   7.668   0.507  1.0050  0.0942 -0.1652
 1019MOL0     C34433   3.003   7.709   0.613  0.9811  0.5155 -0.7075
 1019MOL0     O34434   3.059   7.799   0.696  0.4444  0.3991  0.0925
 1019MOL0     C34435   3.049   7.780   0.837 -1.2087  0.2433  0.2048
 1019MOL0     C34436   3.102   7.901   0.911  0.3802  0.9017  0.0208
 1019MOL0     C34437   3.065   8.042   0.844  0.3522  0.0626 -0.3228
 1019MOL0     C34438   3.095   8.161   0.942 -0.0571  0.1540  0.2466
 1019MOL0     C34439   3.057   8.280   0.858  0.1616  0.6161 -0.6532
 1019MOL0     C34440   3.044   8.379   0.792 -0.9679 -1.0547 -0.2109
 1019MOL0     C34441   2.869   7.670   0.623  0.2620 -1.5994  0.2463
 1019MOL0     C34442   2.810   7.582   0.526 -0.2059 -0.6724  0.2548
 1019MOL0     H34443   2.704   7.148   0.373 -0.4427  0.5371 -0.6982
 1019MOL0     H34444   2.606   6.962   0.225 -3.4952  1.0009  0.6145
 1019MOL0     H34445   2.533   7.058  -0.206  2.5110 -3.6015  1.3073
 1019MOL0     H34446   2.373   7.109  -0.134  0.7271  0.8168  1.0695
 1019MOL0     H34447   2.283   6.890  -0.180 -0.3541  3.0200  1.0777
 1019MOL0     H34448   2.451   6.819  -0.151  0.8167 -0.3429  0.1167
 1019MOL0     H34449   2.533   6.904  -0.362 -0.6083 -1.0217  0.5213
 1019MOL0     H34450   2.374   6.973  -0.400 -2.4760 -2.7291 -2.2883
 1019MOL0     H34451   2.440   6.705  -0.388 -2.9612 -2.4971 -1.6516
 1019MOL0     H34452   2.267   6.765  -0.411  0.2995  0.9392  4.5380
 1019MOL0     H34453   2.528   6.780  -0.571  0.5370  0.6605  0.9848
 1019MOL0     H34454   2.399   6.908  -0.596 -0.8360  1.0073  3.6690
 1019MOL0     H34455   2.377   6.602  -0.662 -0.9335 -0.6188  2.1726
 1019MOL0     H34456   2.396   6.734  -0.772  0.7098 -2.6628 -0.4584
 1019MOL0     H34457   2.161   6.668  -0.764 -2.0596 -1.4594  1.9044
 1019MOL0     H34458   2.166   6.656  -0.587 -3.2928 -0.8508 -1.7098
 1019MOL0     H34459   2.153   6.904  -0.769 -2.1160 -1.9355 -0.7944
 1019MOL0     H34460   2.178   6.924  -0.594  4.0419 -1.9168  0.3214
 1019MOL0     H34461   1.957   7.049  -0.555  0.6937 -0.5963  1.8582
 1019MOL0     H34462   1.591   6.961  -0.596 -0.0328  0.7449 -1.6582
 1019MOL0     H34463   1.708   7.088  -0.548  2.2390 -0.2792 -1.6430
 1019MOL0     H34464   1.750   7.001  -0.336  2.4546 -0.5891 -2.7386
 1019MOL0     H34465   1.685   6.847  -0.368  3.6841  0.0167 -3.7096
 1019MOL0     H34466   1.548   7.126  -0.348  1.2092 -0.3063  0.2053
 1019MOL0     H34467   1.464   6.985  -0.413  2.2485 -0.4970 -0.5999
 1019MOL0     H34468   1.531   6.857  -0.180 -0.7755 -0.9075  0.5163
 1019MOL0     H34469   1.393   6.969  -0.178  0.5446  0.4712  0.5207
 1019MOL0     H34470   1.398   6.896   0.031 -0.7421  0.6457  0.4773
 1019MOL0     H34471   1.385   6.890   0.287  1.0745 -0.2947 -0.2284
 1019MOL0     H34472   1.260   6.812   0.667  0.3303 -2.7947  2.0198
 1019MOL0     H34473   1.276   6.733   0.870 -1.9586  1.1997 -4.2901
 1019MOL0     H34474   1.633   6.852   1.126 -0.3968  0.4167  2.5012
 1019MOL0     H34475   1.657   6.678   1.093  1.1827  0.4900  0.9757
 1019MOL0     H34476   1.506   6.633   1.293  2.0540 -1.3759  1.1868
 1019MOL0     H34477   1.488   6.818   1.304  2.0892  1.0712  0.4022
 1019MOL0     H34478   1.663   6.773   1.460 -1.3741  0.3771 -1.0258
 1019MOL0     H34479   1.751   6.828   1.315  2.4502  1.1889  4.5312
 1019MOL0     H34480   1.757   6.553   1.419 -1.0076 -0.5705 -0.8085
 1019MOL0     H34481   1.724   6.572   1.257  4.3710 -1.8111 -1.5261
 1019MOL0     H34482   1.982   6.703   1.385  2.7898  1.5993 -1.4981
 1019MOL0     H34483   1.938   6.686   1.214  1.4159  0.7835  0.3880
 1019MOL0     H34484   1.954   6.449   1.209  1.2196 -1.8437  0.3572
 1019MOL0     H34485   1.986   6.439   1.382 -1.1739 -2.0665 -1.8590
 1019MOL0     H34486   2.169   6.544   1.175 -4.4386 -0.1126 -1.1693
 1019MOL0     H34487   2.167   6.606   1.343  3.1871  1.1402 -1.9352
 1019MOL0     H34488   2.172   6.310   1.279  3.0298 -1.7490 -0.3196
 1019MOL0     H34489   2.223   6.394   1.431 -0.2615  1.1700 -0.0576
 1019MOL0     H34490   1.690   6.820   0.913 -0.3969  2.1580  0.1610
 1019MOL0     H34491   1.697   6.863   0.675  2.6517 -0.8492  2.8861
 1019MOL0     H34492   1.736   7.136   0.304 -1.4309  1.2500  0.8664
 1019MOL0     H34493   1.726   7.167   0.049 -0.5299  0.6427  0.1192
 1019MOL0     H34494   2.550   7.266  -0.073  0.2818  4.3013  0.8026
 1019MOL0     H34495   2.626   7.431   0.070 -2.7794  0.9294  0.2055
 1019MOL0     H34496   3.087   7.538   0.327  0.0445  1.1274 -1.6109
 1019MOL0     H34497   3.181   7.708   0.500  0.8073  0.7074  0.3730
 1019MOL0     H34498   3.113   7.692   0.850 -0.3958  0.6907 -0.5907
 1019MOL0     H34499   2.949   7.758   0.876 -0.4695 -0.8763  1.5462
 1019MOL0     H34500   3.089   7.903   1.020  1.6285  0.4046  0.2061
 1019MOL0     H34501   3.211   7.911   0.898  0.4704 -0.6540 -0.6170
 1019MOL0     H34502   2.957   8.040   0.829  0.3265  2.1891 -0.7490
 1019MOL0     H34503   3.102   8.063   0.743 -0.5554  1.8746 -0.3211
 1019MOL0     H34504   3.037   8.150   1.034  1.1233  1.7622  1.2505
 1019MOL0     H34505   3.202   8.171   0.965 -0.1551 -2.4585  2.3306
 1019MOL0     H34506   3.032   8.457   0.720  0.6941 -2.6434 -2.3435
 1019MOL0     H34507   2.813   7.709   0.707  0.6407 -2.1987  0.7868
 1019MOL0     H34508   2.712   7.537   0.536  0.2310 -2.2352 -1.7534
 1020MOL0     O34509  11.038   4.320   2.754 -0.3381 -0.6514 -0.5517
 1020MOL0     C34510  10.978   4.374   2.668 -0.6260  1.1340  0.5458
 1020MOL0     O34511  10.847   4.385   2.657  0.7754 -0.4016 -0.0834
 1020MOL0     C34512  10.764   4.365   2.760 -0.5279 -0.4357 -0.6602
 1020MOL0     C34513  10.633   4.341   2.726  0.8794 -0.2370 -1.5548
 1020MOL0     C34514  10.531   4.331   2.822  1.0841 -1.0212  0.8436
 1020MOL0     C34515  10.558   4.377   2.954 -0.3719 -0.0349  0.7290
 1020MOL0     O34516  10.456   4.393   3.047  0.2231 -0.0256  0.1073
 1020MOL0     C34517  10.463   4.305   3.150  0.5065 -0.0566  0.1180
 1020MOL0     C34518  10.353   4.199   3.153  0.4622  0.3728 -0.3921
 1020MOL0     C34519  10.382   4.084   3.056  0.3411 -0.8832 -0.2194
 1020MOL0     C34520  10.266   3.985   3.065 -0.5042  0.2749 -0.2059
 1020MOL0     C34521  10.321   3.841   3.049  0.6288 -0.4141  0.0947
 1020MOL0     C34522  10.415   3.789   3.160 -0.0305 -0.6796 -0.1299
 1020MOL0     C34523  10.407   3.632   3.161  0.5220 -0.4231  0.6647
 1020MOL0     C34524  10.461   3.564   3.032  0.7461 -0.1224 -0.1215
 1020MOL0     N34525  10.599   3.608   2.993 -0.3492  0.0616  0.2585
 1020MOL0     C34526  10.665   3.572   2.872  0.8713 -0.0625  0.3873
 1020MOL0     C34527  10.792   3.591   2.882  0.1751 -0.5355  0.1440
 1020MOL0     C34528  10.901   3.565   2.780  0.3745  0.3732 -0.3242
 1020MOL0     C34529  10.946   3.421   2.750 -0.5266 -0.0404 -0.4848
 1020MOL0     C34530  11.003   3.371   2.879  0.1003 -0.4067  0.7075
 1020MOL0     C34531  11.023   3.219   2.873 -0.4290 -0.2466  0.8573
 1020MOL0     O34532  11.118   3.172   2.770  0.0150  0.3056 -0.5613
 1020MOL0     C34533  11.245   3.214   2.779  0.8278 -1.4726  0.6466
 1020MOL0     C34534  11.317   3.254   2.897  0.1956  0.9037  0.1729
 1020MOL0     C34535  11.455   3.278   2.891 -0.1610 -1.0444 -0.3463
 1020MOL0     C34536  11.522   3.264   2.766  1.0168 -0.2104 -0.8047
 1020MOL0     C34537  11.664   3.288   2.760  0.1217  0.1498 -0.3433
 1020MOL0     O34538  11.729   3.319   2.872 -0.2145 -0.4509 -0.4408
 1020MOL0     C34539  11.865   3.341   2.868 -1.2159 -0.0161 -1.1088
 1020MOL0     C34540  11.953   3.257   2.940 -0.4624 -0.0165 -1.3868
 1020MOL0     C34541  12.091   3.268   2.924 -0.8253 -0.1286  0.9594
 1020MOL0     C34542  12.144   3.358   2.827  0.1298  0.5537  0.5654
 1020MOL0     O34543  12.284   3.382   2.812 -0.4573 -0.1108  0.1729
 1020MOL0     C34544  12.373   3.263   2.811  0.0594  0.8288  0.6595
 1020MOL0     C34545  12.518   3.291   2.778  0.0902 -0.6979  0.0763
 1020MOL0     C34546  12.608   3.174   2.801 -0.1844  0.6111  0.3581
 1020MOL0     C34547  12.757   3.192   2.795 -0.1646 -0.1647  0.4446
 1020MOL0     C34548  12.844   3.078   2.843 -0.5697  0.3390  0.3173
 1020MOL0     C34549  12.990   3.107   2.845  0.1392 -0.4145  0.0024
 1020MOL0     C34550  13.057   2.995   2.933 -0.6281 -0.1154  0.2529
 1020MOL0     C34551  13.064   2.868   2.843  0.2412  0.8434  0.4848
 1020MOL0    Cl34552  13.209   2.774   2.889  0.4771  0.2889 -0.1948
 1020MOL0     C34553  12.060   3.453   2.762  0.8656 -0.6081  0.3391
 1020MOL0     C34554  11.920   3.443   2.786 -0.0188  0.5029 -0.4870
 1020MOL0     O34555  11.717   3.283   2.650  0.0113 -0.5980 -0.1399
 1020MOL0     C34556  11.445   3.237   2.650 -0.3342 -0.0055 -0.3406
 1020MOL0     C34557  11.314   3.204   2.658  1.1175  0.1925 -0.5842
 1020MOL0     N34558  10.809   3.638   3.011  0.0443 -0.0822  0.0328
 1020MOL0     N34559  10.703   3.610   3.080 -0.2465 -0.1840 -0.1605
 1020MOL0     C34560  10.692   4.401   2.990  0.4659 -0.0960 -0.5930
 1020MOL0     C34561  10.793   4.393   2.890  0.1827 -0.1996  0.2570
 1020MOL0     C34562  11.059   4.397   2.554 -0.1449  0.3185 -0.2320
 1020MOL0     C34563  11.005   4.391   2.424  0.0854 -0.2759 -0.2335
 1020MOL0     C34564  11.078   4.418   2.305 -0.5908  0.4859  0.5760
 1020MOL0     C34565  11.212   4.457   2.319 -0.2732  0.1384 -0.1199
 1020MOL0     O34566  11.294   4.477   2.210 -0.1923  0.6048 -0.7141
 1020MOL0     C34567  11.221   4.573   2.129 -0.4033 -0.2383 -0.9057
 1020MOL0     C34568  11.312   4.648   2.036  0.0795  0.7292 -0.5018
 1020MOL0     C34569  11.412   4.740   2.113  1.9626 -0.2287  0.1498
 1020MOL0     C34570  11.491   4.818   2.010 -0.1264  0.3905 -0.6939
 1020MOL0     C34571  11.615   4.872   2.058  0.3641 -0.4141 -0.0839
 1020MOL0     C34572  11.701   4.940   2.110  0.2008 -0.1837  0.2376
 1020MOL0     C34573  11.275   4.467   2.440  0.7732  0.4657  0.1806
 1020MOL0     C34574  11.199   4.425   2.551 -0.0582 -0.0308 -0.4759
 1020MOL0     H34575  10.615   4.324   2.621 -2.0907  0.5145 -1.2602
 1020MOL0     H34576  10.433   4.301   2.785  1.1383 -0.6245  0.3671
 1020MOL0     H34577  10.443   4.352   3.247 -0.9436 -0.5890  0.0939
 1020MOL0     H34578  10.563   4.260   3.148  2.1419  3.2897 -3.2473
 1020MOL0     H34579  10.261   4.248   3.120  2.2035  3.9401 -0.4608
 1020MOL0     H34580  10.341   4.164   3.256  0.7707 -1.1607 -0.8480
 1020MOL0     H34581  10.481   4.043   3.076  2.6528  3.9851 -0.0621
 1020MOL0     H34582  10.381   4.136   2.959  1.0587 -0.1793  0.1372
 1020MOL0     H34583  10.241   4.000   3.171  4.3042  0.8065  1.1021
 1020MOL0     H34584  10.187   4.013   2.994 -0.3548 -1.3211 -1.0397
 1020MOL0     H34585  10.367   3.820   2.952 -0.9238 -1.9096 -0.3690
 1020MOL0     H34586  10.235   3.774   3.059  1.6199 -2.1426 -2.0179
 1020MOL0     H34587  10.378   3.804   3.262  2.9705 -2.5380  1.3577
 1020MOL0     H34588  10.518   3.824   3.150 -0.6461  0.7044 -2.1213
 1020MOL0     H34589  10.468   3.617   3.250  0.5075  0.2824  0.8014
 1020MOL0     H34590  10.303   3.604   3.179  0.8903 -1.6968  0.8844
 1020MOL0     H34591  10.391   3.599   2.955  1.8579 -0.9549 -1.5596
 1020MOL0     H34592  10.464   3.455   3.029  0.8108 -0.1417  0.5788
 1020MOL0     H34593  10.624   3.530   2.780  1.6577 -0.2084  0.0965
 1020MOL0     H34594  10.989   3.614   2.824  0.7658 -0.2489 -0.4031
 1020MOL0     H34595  10.865   3.626   2.696  1.4381  0.5190 -0.6943
 1020MOL0     H34596  11.033   3.424   2.683  0.2213  2.8542  0.4477
 1020MOL0     H34597  10.862   3.358   2.720 -1.7683  0.6159  1.4525
 1020MOL0     H34598  11.096   3.425   2.901 -1.2465  2.6192 -0.5120
 1020MOL0     H34599  10.926   3.375   2.956 -1.4338 -1.6528 -0.6623
 1020MOL0     H34600  10.925   3.173   2.860 -0.1682 -1.0064  1.4978
 1020MOL0     H34601  11.053   3.203   2.977 -3.4307 -0.4195  1.7875
 1020MOL0     H34602  11.277   3.245   2.997  0.5499  1.1583  0.3399
 1020MOL0     H34603  11.519   3.286   2.979  0.6681  2.3637 -1.0872
 1020MOL0     H34604  11.905   3.184   3.005 -2.9044  1.8124 -0.9914
 1020MOL0     H34605  12.151   3.203   2.987 -0.3003  2.0359  2.8126
 1020MOL0     H34606  12.351   3.175   2.749  5.7950 -1.4268  1.2111
 1020MOL0     H34607  12.373   3.225   2.913  2.4151 -2.9071 -0.5225
 1020MOL0     H34608  12.538   3.377   2.842  2.4241 -1.7454  0.8429
 1020MOL0     H34609  12.525   3.329   2.676 -3.6179  0.6211  0.1294
 1020MOL0     H34610  12.585   3.081   2.748  1.6559 -0.2911  1.0739
 1020MOL0     H34611  12.591   3.142   2.904  2.1567  0.5116  0.7608
 1020MOL0     H34612  12.797   3.217   2.696 -0.7489 -0.5930  0.0952
 1020MOL0     H34613  12.778   3.278   2.859  0.6254 -1.2928  1.7350
 1020MOL0     H34614  12.836   2.981   2.794  2.1131  1.0218 -1.7222
 1020MOL0     H34615  12.807   3.060   2.944 -1.4429 -0.8108 -0.1929
 1020MOL0     H34616  13.002   3.206   2.891 -2.2468 -0.5248  1.0072
 1020MOL0     H34617  13.033   3.114   2.745 -1.8732  1.2936 -0.8361
 1020MOL0     H34618  13.152   3.035   2.970 -2.3434  2.9761  1.7575
 1020MOL0     H34619  12.992   2.972   3.019 -0.7554  0.1081  0.2178
 1020MOL0     H34620  13.059   2.872   2.734  1.1954  1.5495  0.4509
 1020MOL0     H34621  12.970   2.820   2.872  0.6022 -0.7671 -0.8566
 1020MOL0     H34622  12.089   3.528   2.689  0.1921 -0.2119  0.4707
 1020MOL0     H34623  11.850   3.503   2.729 -1.3778  0.7515  1.3563
 1020MOL0     H34624  11.492   3.219   2.554  0.2697 -1.1176  0.1383
 1020MOL0     H34625  11.268   3.164   2.568 -1.2186 -0.3232  0.7538
 1020MOL0     H34626  10.704   4.433   3.093 -5.7569  0.2721  0.3469
 1020MOL0     H34627  10.888   4.433   2.923  0.1844  0.2898 -0.3342
 1020MOL0     H34628  10.903   4.354   2.412 -0.7788  2.0732 -0.7070
 1020MOL0     H34629  11.029   4.407   2.209  1.3934 -0.9389 -0.3351
 1020MOL0     H34630  11.171   4.646   2.193 -1.2572  0.0179 -1.8324
 1020MOL0     H34631  11.149   4.529   2.059  0.1386 -0.9923 -0.9988
 1020MOL0     H34632  11.361   4.566   1.982 -0.3184  0.1873 -0.0523
 1020MOL0     H34633  11.251   4.705   1.965  0.5942  0.5496 -1.0924
 1020MOL0     H34634  11.475   4.677   2.177  1.2283 -0.5837  0.5374
 1020MOL0     H34635  11.373   4.817   2.180  0.9833 -1.3139  0.8739
 1020MOL0     H34636  11.517   4.752   1.927 -1.2674 -1.3150  0.2261
 1020MOL0     H34637  11.426   4.897   1.974 -0.4544  0.3018 -0.3092
 1020MOL0     H34638  11.743   5.010   2.180 -0.4519  0.7217 -0.2519
 1020MOL0     H34639  11.381   4.490   2.443  0.6231  1.1275  2.4642
 1020MOL0     H34640  11.243   4.436   2.649 -4.7005  2.8562  1.6327
 1021MOL0     O34641  10.774   2.192   2.221 -0.1219 -0.4664 -1.8555
 1021MOL0     C34642  10.666   2.230   2.270  0.1014 -0.7210  0.2675
 1021MOL0     O34643  10.551   2.149   2.293 -0.3056 -0.2150 -0.0706
 1021MOL0     C34644  10.544   2.013   2.266 -0.6941 -0.7454  1.5476
 1021MOL0     C34645  10.418   1.978   2.245  0.1499  0.5409 -0.1886
 1021MOL0     C34646  10.386   1.854   2.202 -0.1879  0.3123  0.5683
 1021MOL0     C34647  10.484   1.759   2.168 -0.6224  0.0858 -0.1971
 1021MOL0     O34648  10.452   1.627   2.136 -0.8494  0.4090  0.0444
 1021MOL0     C34649  10.359   1.571   2.237  0.0365 -0.4139 -0.4292
 1021MOL0     C34650  10.406   1.438   2.290  0.2021  0.2039 -0.1117
 1021MOL0     C34651  10.422   1.436   2.445  0.1064 -0.0818 -0.3435
 1021MOL0     C34652  10.295   1.453   2.520  0.3651 -0.4147 -0.6263
 1021MOL0     C34653  10.330   1.407   2.663  0.0611 -1.0936  0.7183
 1021MOL0     C34654  10.202   1.418   2.755  0.2078 -0.9423  0.4412
 1021MOL0     C34655  10.100   1.312   2.726  0.7947 -0.2699 -0.0909
 1021MOL0     C34656   9.956   1.368   2.683 -0.0308  0.3182 -0.8232
 1021MOL0     N34657   9.854   1.263   2.696 -0.0766  0.5054  0.5761
 1021MOL0     C34658   9.854   1.149   2.626 -0.8864 -0.2205 -0.7003
 1021MOL0     C34659   9.750   1.083   2.674  0.8587  0.5158  0.5042
 1021MOL0     C34660   9.710   0.939   2.636 -0.0311  0.2483  0.0713
 1021MOL0     C34661   9.562   0.936   2.576  0.2956 -0.0165 -0.2818
 1021MOL0     C34662   9.539   1.030   2.454 -0.3141 -0.5993  0.1368
 1021MOL0     C34663   9.416   1.000   2.372  0.2880  0.3848 -0.1922
 1021MOL0     O34664   9.402   0.856   2.358 -0.0824  0.2696  0.3700
 1021MOL0     C34665   9.292   0.811   2.282  0.7523 -0.2923  0.6938
 1021MOL0     C34666   9.191   0.889   2.217  0.4865  0.0960  0.3266
 1021MOL0     C34667   9.098   0.844   2.124 -0.5545 -0.9253  0.4976
 1021MOL0     C34668   9.094   0.706   2.100 -0.5738 -0.4818 -0.2613
 1021MOL0     C34669   8.985   0.656   2.017  0.0358  0.6036  0.0444
 1021MOL0     O34670   8.934   0.737   1.917  0.7174  0.2174 -0.5955
 1021MOL0     C34671   8.812   0.710   1.851 -0.5199 -0.7523  0.1753
 1021MOL0     C34672   8.699   0.633   1.894 -0.2610  0.5948  0.2890
 1021MOL0     C34673   8.574   0.627   1.827 -0.4818 -0.0692 -0.9765
 1021MOL0     C34674   8.549   0.723   1.731  0.3292  0.1081 -0.3053
 1021MOL0     O34675   8.431   0.730   1.663 -0.5898  0.5045 -0.6360
 1021MOL0     C34676   8.414   0.823   1.551 -0.4029  0.5428  0.3485
 1021MOL0     C34677   8.281   0.818   1.487 -0.6378  0.3703  0.3083
 1021MOL0     C34678   8.182   0.876   1.580  0.2550  0.5631  0.2803
 1021MOL0     C34679   8.156   0.812   1.711  0.6079 -0.1446  0.3743
 1021MOL0     C34680   8.084   0.675   1.695 -1.0112 -0.2982 -0.0704
 1021MOL0     C34681   8.096   0.593   1.825  0.0506  0.0867 -0.9268
 1021MOL0     C34682   8.025   0.672   1.937  0.2368 -0.8803 -0.1166
 1021MOL0     C34683   7.981   0.580   2.051  0.4529 -0.5041  1.0034
 1021MOL0    Cl34684   8.130   0.514   2.136 -0.5779 -0.0421 -0.0082
 1021MOL0     C34685   8.654   0.805   1.683 -0.4977 -0.3704 -0.1213
 1021MOL0     C34686   8.784   0.792   1.740 -0.0321 -0.1569 -0.5016
 1021MOL0     O34687   8.944   0.547   2.052 -0.0867  0.1703 -0.7733
 1021MOL0     C34688   9.178   0.628   2.176  0.2302 -0.3203 -0.5081
 1021MOL0     C34689   9.278   0.681   2.253  0.2899  0.2532 -0.1393
 1021MOL0     N34690   9.679   1.169   2.762 -0.1439 -1.0380 -0.2079
 1021MOL0     N34691   9.746   1.278   2.775  0.4149 -0.3612  0.1253
 1021MOL0     C34692  10.615   1.791   2.192  0.2574  0.9658 -0.2619
 1021MOL0     C34693  10.650   1.923   2.236  1.1195 -0.2983 -0.0950
 1021MOL0     C34694  10.659   2.369   2.319  0.0035  0.3502 -0.3269
 1021MOL0     C34695  10.540   2.409   2.377 -0.0601 -0.0560  0.8774
 1021MOL0     C34696  10.519   2.531   2.430 -0.3548 -0.4856 -0.3628
 1021MOL0     C34697  10.625   2.622   2.415 -0.7251 -0.7860  0.2345
 1021MOL0     O34698  10.614   2.750   2.465 -0.8376  0.6049 -1.3433
 1021MOL0     C34699  10.620   2.842   2.355  0.7234 -0.0344  0.2538
 1021MOL0     C34700  10.507   2.823   2.253 -0.5639 -0.4696 -1.1621
 1021MOL0     C34701  10.496   2.960   2.181  0.0316  0.9401 -0.1893
 1021MOL0     C34702  10.445   3.084   2.248 -1.6024  0.7697 -0.4471
 1021MOL0     C34703  10.349   3.071   2.357 -0.1140  0.2161 -0.7749
 1021MOL0     C34704  10.269   3.046   2.441  1.4886 -1.1180  1.2783
 1021MOL0     C34705  10.743   2.583   2.356 -0.5458 -0.3479 -0.2114
 1021MOL0     C34706  10.769   2.450   2.314  0.3415  0.0022  0.5365
 1021MOL0     H34707  10.344   2.056   2.266 -2.0827 -2.0345  2.3800
 1021MOL0     H34708  10.281   1.846   2.176 -0.7328  4.2982  1.0314
 1021MOL0     H34709  10.259   1.572   2.194  0.8590  2.6878 -2.6470
 1021MOL0     H34710  10.353   1.644   2.319  2.9457 -1.8622  1.2674
 1021MOL0     H34711  10.494   1.413   2.230  0.1545 -1.0479  0.3168
 1021MOL0     H34712  10.333   1.360   2.263 -0.2515  1.1443 -1.7759
 1021MOL0     H34713  10.499   1.504   2.482  0.2542 -0.9099  0.9503
 1021MOL0     H34714  10.468   1.339   2.468  3.3202  0.6053 -3.0382
 1021MOL0     H34715  10.264   1.558   2.527  1.6454 -0.0166 -0.6121
 1021MOL0     H34716  10.207   1.400   2.482 -1.0852  1.3770  0.0691
 1021MOL0     H34717  10.418   1.453   2.710 -1.9735  0.6557  3.0547
 1021MOL0     H34718  10.351   1.301   2.647 -1.6359 -1.1965 -1.2783
 1021MOL0     H34719  10.159   1.517   2.734  0.1024 -1.3425 -1.3114
 1021MOL0     H34720  10.240   1.402   2.857  0.3869 -0.5146  0.4465
 1021MOL0     H34721  10.124   1.241   2.647 -0.7600 -0.0142 -0.8175
 1021MOL0     H34722  10.082   1.248   2.813  1.8680  2.5092  2.3795
 1021MOL0     H34723   9.959   1.389   2.576 -1.4676  0.3188 -0.8815
 1021MOL0     H34724   9.920   1.455   2.739 -0.4480  1.1826 -2.3707
 1021MOL0     H34725   9.926   1.108   2.556  0.7849  0.0598  0.7981
 1021MOL0     H34726   9.711   0.877   2.726  1.1398  1.5152  0.9675
 1021MOL0     H34727   9.780   0.902   2.560 -0.5812 -2.6632  0.8724
 1021MOL0     H34728   9.505   0.979   2.658  1.3971  1.5096 -0.2556
 1021MOL0     H34729   9.532   0.832   2.563  0.4710 -0.4572  2.2503
 1021MOL0     H34730   9.549   1.136   2.477 -1.7455  0.9431 -5.0886
 1021MOL0     H34731   9.616   0.997   2.384 -1.3900 -2.8968 -0.0707
 1021MOL0     H34732   9.416   1.048   2.274 -2.5033  2.0825  0.5279
 1021MOL0     H34733   9.327   1.036   2.424 -0.3560  0.7259 -1.4985
 1021MOL0     H34734   9.209   0.996   2.216  0.3929  0.1120  0.3669
 1021MOL0     H34735   9.036   0.917   2.073 -1.4488 -1.8825  0.1603
 1021MOL0     H34736   8.714   0.559   1.973  0.3497  0.5385  0.1279
 1021MOL0     H34737   8.503   0.558   1.873  1.6288 -1.0589  1.0071
 1021MOL0     H34738   8.493   0.796   1.481  0.5076  1.8844  0.8186
 1021MOL0     H34739   8.435   0.921   1.595 -1.1252  0.7624  0.2185
 1021MOL0     H34740   8.261   0.714   1.459  1.6648  0.0720 -0.3902
 1021MOL0     H34741   8.270   0.877   1.395  1.2560  1.0088  0.4570
 1021MOL0     H34742   8.091   0.874   1.519 -1.2189 -0.2622  2.3721
 1021MOL0     H34743   8.219   0.978   1.596  0.1073  0.4168  1.7162
 1021MOL0     H34744   8.242   0.807   1.778  3.3640  1.4129 -2.7647
 1021MOL0     H34745   8.084   0.883   1.751 -1.3291 -2.0373  0.4268
 1021MOL0     H34746   8.134   0.625   1.611 -0.6643  0.0038 -0.0468
 1021MOL0     H34747   7.983   0.688   1.654 -1.1651  2.0294  0.9099
 1021MOL0     H34748   8.199   0.591   1.861 -1.0568  1.1790  2.7707
 1021MOL0     H34749   8.057   0.492   1.807 -0.8349  0.0921  0.7565
 1021MOL0     H34750   8.096   0.740   1.984  1.3281  1.3589 -4.4787
 1021MOL0     H34751   7.938   0.731   1.906 -1.0454 -2.3850  0.4997
 1021MOL0     H34752   7.918   0.498   2.015  0.7856 -0.9145  1.3329
 1021MOL0     H34753   7.915   0.633   2.119 -2.1905 -3.1480  0.6951
 1021MOL0     H34754   8.654   0.894   1.620 -2.1409 -0.2352  0.0341
 1021MOL0     H34755   8.866   0.856   1.710  0.4110 -0.9483 -0.9911
 1021MOL0     H34756   9.164   0.520   2.172  3.4118 -0.8903  0.6449
 1021MOL0     H34757   9.353   0.610   2.287 -0.7790 -1.6518 -1.4909
 1021MOL0     H34758  10.692   1.720   2.164 -1.3112 -0.1382 -2.0356
 1021MOL0     H34759  10.756   1.941   2.254  1.2398 -0.0030 -1.0635
 1021MOL0     H34760  10.450   2.349   2.388 -1.9452  2.0380 -1.6588
 1021MOL0     H34761  10.427   2.551   2.483  0.7221 -0.0557  1.4491
 1021MOL0     H34762  10.723   2.854   2.322  0.4649 -0.3897 -0.7072
 1021MOL0     H34763  10.610   2.940   2.402 -0.1600 -0.8672  1.9206
 1021MOL0     H34764  10.542   2.742   2.188  0.7140 -1.7939  1.0313
 1021MOL0     H34765  10.408   2.803   2.293  1.5586 -2.6470  3.9014
 1021MOL0     H34766  10.422   2.934   2.104 -0.8235 -0.4605  1.0379
 1021MOL0     H34767  10.588   2.986   2.130  0.9110  1.1912  1.4559
 1021MOL0     H34768  10.533   3.127   2.295 -0.4598 -0.6744 -1.2121
 1021MOL0     H34769  10.407   3.158   2.176  0.6402  1.6197 -0.8298
 1021MOL0     H34770  10.202   3.040   2.524 -0.0598 -1.3519  0.0380
 1021MOL0     H34771  10.824   2.653   2.341 -1.1700  0.8986  1.9850
 1021MOL0     H34772  10.870   2.437   2.274 -0.8851 -2.4481 -2.1031
 1022MOL0     O34773   8.818   0.446   5.678 -0.2208 -0.0438  0.3055
 1022MOL0     C34774   8.914   0.379   5.722 -0.1171 -0.5470 -0.2548
 1022MOL0     O34775   8.910   0.257   5.782  0.4987  0.2680 -0.7536
 1022MOL0     C34776   8.800   0.187   5.798  0.7484  0.2491 -0.2638
 1022MOL0     C34777   8.668   0.231   5.806 -0.4666 -0.2905 -0.5902
 1022MOL0     C34778   8.573   0.138   5.856 -0.1563  0.3853  0.4703
 1022MOL0     C34779   8.611   0.002   5.891 -0.1255  0.0750  0.1105
 1022MOL0     O34780   8.518  -0.083   5.943 -0.5050  0.2659  0.0994
 1022MOL0     C34781   8.541  -0.222   5.934 -0.8588  0.5701  0.0789
 1022MOL0     C34782   8.407  -0.296   5.928  0.7395  0.4031 -0.5728
 1022MOL0     C34783   8.423  -0.444   5.901 -0.6213  0.4082 -0.7255
 1022MOL0     C34784   8.513  -0.521   5.998 -0.0856  0.3356  0.2731
 1022MOL0     C34785   8.459  -0.532   6.143 -0.9413 -0.0966 -1.3498
 1022MOL0     C34786   8.565  -0.585   6.243 -0.3117 -0.1143 -0.5758
 1022MOL0     C34787   8.539  -0.558   6.386 -0.6533  0.4182 -0.9572
 1022MOL0     C34788   8.652  -0.624   6.466  0.4205 -0.0346 -0.5274
 1022MOL0     N34789   8.639  -0.586   6.605 -0.5861 -0.3847  0.2301
 1022MOL0     C34790   8.729  -0.505   6.680 -0.2350  0.5810 -0.6710
 1022MOL0     C34791   8.676  -0.478   6.800  0.2897  0.0205 -0.5613
 1022MOL0     C34792   8.740  -0.403   6.911 -0.3684 -0.2136 -0.6469
 1022MOL0     C34793   8.882  -0.363   6.893 -0.1525  0.1302  0.1548
 1022MOL0     C34794   8.957  -0.322   7.021 -0.7388  0.2765  0.5308
 1022MOL0     C34795   9.103  -0.293   6.987  1.1228 -0.7985 -0.5188
 1022MOL0     O34796   9.122  -0.189   6.898  0.3751 -0.2197  0.2090
 1022MOL0     C34797   9.232  -0.115   6.905  1.2969 -0.3768  0.1162
 1022MOL0     C34798   9.226  -0.000   6.826 -0.4056 -0.0453 -0.4787
 1022MOL0     C34799   9.343   0.084   6.818 -0.0091  0.1729 -0.6064
 1022MOL0     C34800   9.450   0.070   6.907 -0.1880  0.3949  0.5731
 1022MOL0     C34801   9.579   0.156   6.891 -0.2344  0.4620 -0.0468
 1022MOL0     O34802   9.691   0.105   6.953 -0.3605  0.0493 -1.2830
 1022MOL0     C34803   9.796   0.188   6.939  1.4037  0.0364 -0.7689
 1022MOL0     C34804   9.881   0.182   6.825 -0.0389  0.5241  0.3477
 1022MOL0     C34805   9.990   0.263   6.808  1.0137 -0.1816  0.1594
 1022MOL0     C34806  10.027   0.357   6.902  0.0997  0.7177 -0.0766
 1022MOL0     O34807  10.128   0.439   6.897 -0.5251  0.8851  0.4745
 1022MOL0     C34808  10.199   0.472   6.767 -0.0657  0.3621  0.1624
 1022MOL0     C34809  10.334   0.397   6.750  0.2405 -0.6037  0.1053
 1022MOL0     C34810  10.412   0.425   6.616 -0.3908 -0.0988 -0.0326
 1022MOL0     C34811  10.476   0.291   6.572 -0.5338  0.1344  1.1069
 1022MOL0     C34812  10.528   0.289   6.427 -0.3682 -0.4083 -0.6034
 1022MOL0     C34813  10.411   0.276   6.324 -0.1822 -0.8531 -0.6447
 1022MOL0     C34814  10.478   0.265   6.184  0.2992 -0.5182  0.2012
 1022MOL0     C34815  10.379   0.269   6.076  0.8389  0.9671 -0.4351
 1022MOL0    Cl34816  10.310   0.100   6.069 -0.8942 -0.3648 -0.4167
 1022MOL0     C34817   9.943   0.365   7.013 -0.3134 -0.0143 -0.6140
 1022MOL0     C34818   9.825   0.287   7.036  0.3454 -0.5216 -0.4351
 1022MOL0     O34819   9.568   0.267   6.837 -0.2862 -0.2332  0.5876
 1022MOL0     C34820   9.451  -0.039   7.000 -0.9931 -1.3537  0.2706
 1022MOL0     C34821   9.342  -0.129   6.996 -0.7026 -0.5286  1.2121
 1022MOL0     N34822   8.553  -0.547   6.805  0.0968  1.2579  0.6334
 1022MOL0     N34823   8.534  -0.601   6.687 -0.4129  0.0726 -0.3351
 1022MOL0     C34824   8.739  -0.042   5.864 -0.8825  0.9810  0.3137
 1022MOL0     C34825   8.832   0.053   5.826 -0.2644 -0.7323  0.0306
 1022MOL0     C34826   9.048   0.438   5.689 -0.4112 -0.2514  0.5941
 1022MOL0     C34827   9.086   0.485   5.563  0.1948  0.3046 -0.9642
 1022MOL0     C34828   9.213   0.549   5.551  0.7803 -0.1377  0.3889
 1022MOL0     C34829   9.286   0.581   5.663  0.2524 -0.6923 -0.1159
 1022MOL0     O34830   9.403   0.653   5.636 -0.1384 -0.0608 -0.3703
 1022MOL0     C34831   9.433   0.767   5.722  0.5731 -0.2056  1.0845
 1022MOL0     C34832   9.498   0.881   5.634  0.0308  0.2130 -0.1399
 1022MOL0     C34833   9.419   0.963   5.523  0.0454  0.9081  0.2623
 1022MOL0     C34834   9.414   0.890   5.399  0.1595  0.5971 -0.6433
 1022MOL0     C34835   9.357   0.978   5.292 -0.5748  0.0012 -0.1718
 1022MOL0     C34836   9.311   1.039   5.193 -0.1060 -0.3250 -0.2434
 1022MOL0     C34837   9.247   0.545   5.785  0.1325  0.4388 -0.2976
 1022MOL0     C34838   9.125   0.477   5.800 -0.5201  0.0234  1.0235
 1022MOL0     H34839   8.634   0.331   5.781  0.5397  0.3854  0.6362
 1022MOL0     H34840   8.470   0.170   5.866  0.3452  1.5357  3.0431
 1022MOL0     H34841   8.609  -0.256   6.013  0.5191 -0.7372 -1.6229
 1022MOL0     H34842   8.602  -0.251   5.849 -0.2329 -1.6003  1.2090
 1022MOL0     H34843   8.337  -0.259   5.852  0.2221 -3.0899 -1.9604
 1022MOL0     H34844   8.358  -0.277   6.024  1.1457 -4.6200  0.8962
 1022MOL0     H34845   8.485  -0.450   5.811  2.9793  1.8390  1.4785
 1022MOL0     H34846   8.329  -0.499   5.889  0.3068 -1.3065 -0.5140
 1022MOL0     H34847   8.530  -0.623   5.962  2.9061  0.6914  0.4033
 1022MOL0     H34848   8.609  -0.474   6.022  0.0251  0.4058 -0.2821
 1022MOL0     H34849   8.370  -0.595   6.145 -1.2798  0.3862  0.3591
 1022MOL0     H34850   8.430  -0.431   6.174  1.2818  0.3064 -0.3663
 1022MOL0     H34851   8.660  -0.535   6.220  0.7201  1.9893  6.1898
 1022MOL0     H34852   8.579  -0.693   6.231  3.6275 -0.1213  2.1497
 1022MOL0     H34853   8.534  -0.452   6.412  2.5347  0.4594 -0.0301
 1022MOL0     H34854   8.449  -0.611   6.416 -0.6284  0.2656 -1.1496
 1022MOL0     H34855   8.753  -0.590   6.439  0.5719  0.3369  0.4368
 1022MOL0     H34856   8.636  -0.731   6.455 -0.3918  0.1261 -0.9469
 1022MOL0     H34857   8.828  -0.470   6.651 -0.7925  0.1148 -3.4172
 1022MOL0     H34858   8.733  -0.473   6.995 -1.2714 -0.9445 -1.3123
 1022MOL0     H34859   8.683  -0.310   6.925 -0.6152 -0.4937  0.2865
 1022MOL0     H34860   8.888  -0.284   6.817 -2.8493 -0.9514 -1.3308
 1022MOL0     H34861   8.930  -0.453   6.853  2.3556  1.8081 -0.9010
 1022MOL0     H34862   8.926  -0.231   7.072  1.8597  1.3951  0.3057
 1022MOL0     H34863   8.960  -0.402   7.096 -0.1179 -0.6405 -0.4522
 1022MOL0     H34864   9.172  -0.375   6.965  1.5470 -0.3036 -1.0405
 1022MOL0     H34865   9.144  -0.258   7.082 -2.2558 -0.8631  1.1123
 1022MOL0     H34866   9.152   0.027   6.753 -0.1988 -0.0586 -0.6947
 1022MOL0     H34867   9.351   0.160   6.741 -1.4296  1.1711  0.1793
 1022MOL0     H34868   9.867   0.108   6.747  1.5240  1.0812 -0.5132
 1022MOL0     H34869  10.039   0.239   6.714 -1.4036 -0.6576 -1.0616
 1022MOL0     H34870  10.231   0.576   6.763  0.7729  0.0943 -0.2966
 1022MOL0     H34871  10.139   0.456   6.677 -0.2488 -0.3643  0.4034
 1022MOL0     H34872  10.305   0.291   6.743  0.9202 -0.7077 -1.9994
 1022MOL0     H34873  10.397   0.410   6.838 -2.4553 -1.1748  2.2525
 1022MOL0     H34874  10.485   0.506   6.613  3.7628 -3.5008 -0.6020
 1022MOL0     H34875  10.347   0.442   6.530  0.9077 -1.5042 -1.3630
 1022MOL0     H34876  10.558   0.269   6.641 -0.6225 -0.5685  0.9939
 1022MOL0     H34877  10.415   0.201   6.571  0.9846 -1.0983 -3.2697
 1022MOL0     H34878  10.582   0.196   6.407  2.1468  1.1575 -1.4855
 1022MOL0     H34879  10.602   0.363   6.396  0.2143 -1.6377 -2.2376
 1022MOL0     H34880  10.337   0.356   6.329  0.0717 -0.5557 -1.5677
 1022MOL0     H34881  10.353   0.186   6.350  1.5363 -1.7827  0.1344
 1022MOL0     H34882  10.544   0.352   6.181 -1.9467  1.6255  4.0412
 1022MOL0     H34883  10.530   0.169   6.186 -0.3476 -0.8952  2.6315
 1022MOL0     H34884  10.438   0.292   5.987 -0.1997  1.8542 -0.9123
 1022MOL0     H34885  10.305   0.346   6.099  1.3671  1.2226  0.4586
 1022MOL0     H34886   9.957   0.437   7.093  1.5787 -3.4783  2.4826
 1022MOL0     H34887   9.763   0.293   7.125 -0.2461  0.6320 -0.8983
 1022MOL0     H34888   9.530  -0.051   7.073 -0.3189  1.0806  0.0308
 1022MOL0     H34889   9.357  -0.216   7.059  0.7805 -0.6763  0.6791
 1022MOL0     H34890   8.764  -0.143   5.895 -2.5428 -0.4767 -2.6183
 1022MOL0     H34891   8.934   0.019   5.814  0.8755  2.0699  1.0234
 1022MOL0     H34892   9.029   0.466   5.472 -1.0727  1.4886 -0.4490
 1022MOL0     H34893   9.238   0.588   5.453 -3.4947  1.0195 -0.4814
 1022MOL0     H34894   9.506   0.746   5.800  4.3440 -3.7154 -2.9044
 1022MOL0     H34895   9.335   0.802   5.758 -1.6881 -0.6678 -3.8620
 1022MOL0     H34896   9.522   0.957   5.708 -0.2241  0.8858 -0.7406
 1022MOL0     H34897   9.585   0.837   5.584  2.8417  3.3860  1.5334
 1022MOL0     H34898   9.461   1.064   5.517 -1.0539  1.3435 -0.3467
 1022MOL0     H34899   9.312   0.961   5.545 -0.1616  1.2305 -0.6704
 1022MOL0     H34900   9.521   0.880   5.377  0.3439 -0.1017  0.5031
 1022MOL0     H34901   9.375   0.788   5.399  1.6869 -0.0542  1.2737
 1022MOL0     H34902   9.272   1.073   5.099  0.1136 -0.0623 -0.2416
 1022MOL0     H34903   9.306   0.581   5.868 -0.3405  1.2174 -0.2911
 1022MOL0     H34904   9.091   0.443   5.897 -1.0357 -1.9606  0.1958
 1023MOL0     O34905   4.396   7.039  10.826  0.7309 -0.5429  0.3136
 1023MOL0     C34906   4.291   7.013  10.876 -0.6216  0.4852 -0.6099
 1023MOL0     O34907   4.199   6.918  10.838 -0.3319  0.4546 -0.2148
 1023MOL0     C34908   4.237   6.804  10.756  0.2384 -1.2134 -1.5001
 1023MOL0     C34909   4.158   6.692  10.775 -0.2395 -0.4927 -0.7290
 1023MOL0     C34910   4.180   6.582  10.700  0.1184  0.3818  0.5587
 1023MOL0     C34911   4.269   6.581  10.600  0.1276 -0.7307 -0.5764
 1023MOL0     O34912   4.271   6.482  10.508  0.5545  0.0703  0.5241
 1023MOL0     C34913   4.239   6.343  10.543  0.5693  0.1916 -0.0236
 1023MOL0     C34914   4.328   6.260  10.451  0.0138 -0.8883  0.3338
 1023MOL0     C34915   4.289   6.278  10.303  0.1007 -0.3130  0.0359
 1023MOL0     C34916   4.389   6.183  10.215  0.3571 -0.5588  0.4324
 1023MOL0     C34917   4.366   6.028  10.236 -0.1889  0.0739  0.1919
 1023MOL0     C34918   4.464   5.941  10.157 -0.5142 -0.0263  0.6271
 1023MOL0     C34919   4.610   5.938  10.206 -0.1012 -0.2479 -0.4655
 1023MOL0     C34920   4.637   5.904  10.359  1.1806  0.4765  0.9117
 1023MOL0     N34921   4.638   6.015  10.448  0.2029 -0.5561  0.3219
 1023MOL0     C34922   4.706   6.136  10.427 -0.0146  0.9636 -1.0348
 1023MOL0     C34923   4.688   6.200  10.553 -0.3671 -0.8700  0.1491
 1023MOL0     C34924   4.776   6.330  10.568 -0.0315  0.2188 -0.0921
 1023MOL0     C34925   4.721   6.465  10.605 -0.2008 -0.4370  0.4290
 1023MOL0     C34926   4.639   6.460  10.734 -0.0960  0.9038 -0.2329
 1023MOL0     C34927   4.625   6.596  10.791 -0.6789  0.0637  0.2369
 1023MOL0     O34928   4.714   6.614  10.907 -0.1461  0.2771  0.4700
 1023MOL0     C34929   4.686   6.726  10.981 -0.1702 -0.0601 -0.8314
 1023MOL0     C34930   4.627   6.848  10.942  0.0248 -0.0005  0.2526
 1023MOL0     C34931   4.620   6.957  11.035 -0.1792 -0.2045  0.5645
 1023MOL0     C34932   4.665   6.944  11.171  0.1029 -0.1757  0.4657
 1023MOL0     C34933   4.655   7.059  11.269 -0.1708 -0.1785  0.3444
 1023MOL0     O34934   4.582   7.165  11.228  0.0549 -0.1461 -0.0696
 1023MOL0     C34935   4.561   7.263  11.323 -1.3035  0.2776 -0.7162
 1023MOL0     C34936   4.643   7.376  11.325  0.5732 -0.0010  0.0841
 1023MOL0     C34937   4.620   7.477  11.420 -1.3392  0.4630  0.5856
 1023MOL0     C34938   4.515   7.471  11.508  0.1690  0.0532 -0.9262
 1023MOL0     O34939   4.504   7.570  11.611 -0.4896  0.3637 -0.1462
 1023MOL0     C34940   4.376   7.582  11.684  0.8528  0.2794 -0.4848
 1023MOL0     C34941   4.268   7.653  11.600 -0.4697 -0.4691  0.0138
 1023MOL0     C34942   4.138   7.668  11.688  0.6193 -0.3731  0.3261
 1023MOL0     C34943   4.054   7.542  11.711 -0.5876  0.7143  0.3868
 1023MOL0     C34944   3.903   7.575  11.708  0.2064  0.3833 -0.0238
 1023MOL0     C34945   3.867   7.662  11.834 -0.3154 -0.3233  0.9039
 1023MOL0     C34946   3.713   7.672  11.837  1.5591  0.6417 -0.1817
 1023MOL0     C34947   3.669   7.747  11.959 -0.7123 -0.0364  0.5236
 1023MOL0    Cl34948   3.729   7.914  11.952  0.1178  0.1159 -0.0349
 1023MOL0     C34949   4.425   7.367  11.500 -0.4302  0.8943 -0.7499
 1023MOL0     C34950   4.450   7.263  11.401 -0.2265  0.4252 -1.1533
 1023MOL0     O34951   4.717   7.044  11.377  0.4545 -0.0995  0.9383
 1023MOL0     C34952   4.712   6.819  11.205 -0.3336 -0.2281  0.7743
 1023MOL0     C34953   4.712   6.708  11.121 -0.0975  0.0213 -0.3857
 1023MOL0     N34954   4.628   6.113  10.642  0.6249 -0.7784  0.1124
 1023MOL0     N34955   4.601   6.004  10.576 -0.4241  0.3560 -0.2114
 1023MOL0     C34956   4.359   6.685  10.579  0.0121  0.4497 -0.4213
 1023MOL0     C34957   4.341   6.795  10.660  0.5547  0.0036  0.7229
 1023MOL0     C34958   4.245   7.080  11.005  0.3847 -0.6106 -0.4153
 1023MOL0     C34959   4.275   7.208  11.026  0.1844  0.1493  1.8764
 1023MOL0     C34960   4.240   7.283  11.140 -0.2644  0.3037 -0.2877
 1023MOL0     C34961   4.156   7.218  11.230 -1.0784 -0.5537  0.5835
 1023MOL0     O34962   4.106   7.273  11.342  0.1246  0.1468  0.6190
 1023MOL0     C34963   4.013   7.383  11.312 -0.0268 -0.0968 -0.1231
 1023MOL0     C34964   3.885   7.337  11.402 -1.2351 -0.7933  0.1547
 1023MOL0     C34965   3.778   7.265  11.306  0.4970 -0.1518  0.1080
 1023MOL0     C34966   3.660   7.197  11.381 -0.5937 -0.5658  0.3957
 1023MOL0     C34967   3.613   7.268  11.500  0.5103  0.0200  0.8508
 1023MOL0     C34968   3.590   7.328  11.601  0.6516  0.1893 -0.5857
 1023MOL0     C34969   4.113   7.090  11.204  0.5936 -0.0475  0.2547
 1023MOL0     C34970   4.150   7.015  11.085  0.1705  0.3883 -0.3011
 1023MOL0     H34971   4.079   6.689  10.849  2.2178 -0.8645  2.0797
 1023MOL0     H34972   4.128   6.489  10.717  3.1477 -1.6188 -0.3242
 1023MOL0     H34973   4.140   6.314  10.508  0.7252  0.1071 -0.3971
 1023MOL0     H34974   4.263   6.325  10.649  1.1038  2.0796  0.2264
 1023MOL0     H34975   4.309   6.152  10.459 -1.5115 -1.0601 -3.4271
 1023MOL0     H34976   4.432   6.294  10.463 -0.1374 -0.7335  1.2411
 1023MOL0     H34977   4.303   6.380  10.269  2.2863 -0.1941  1.1407
 1023MOL0     H34978   4.186   6.240  10.303 -0.4180  1.0337  0.1907
 1023MOL0     H34979   4.379   6.208  10.109  1.1226 -4.4549 -0.7428
 1023MOL0     H34980   4.494   6.200  10.242  0.4718 -2.9195  1.7438
 1023MOL0     H34981   4.267   5.997  10.202  0.6761 -3.5289  0.6057
 1023MOL0     H34982   4.373   5.999  10.341  0.1195  1.3795  0.5557
 1023MOL0     H34983   4.464   5.967  10.051  1.3209  0.2124  0.6585
 1023MOL0     H34984   4.424   5.839  10.159 -1.3654  0.2335 -1.2767
 1023MOL0     H34985   4.663   5.860  10.151  0.7760 -1.5704  2.1072
 1023MOL0     H34986   4.660   6.032  10.179 -1.1361  0.6520  0.6310
 1023MOL0     H34987   4.739   5.865  10.351  0.3668 -1.5958 -0.5911
 1023MOL0     H34988   4.570   5.828  10.400  0.2602  0.9279  0.2934
 1023MOL0     H34989   4.769   6.164  10.344  4.0658 -1.1197  1.0280
 1023MOL0     H34990   4.836   6.336  10.477 -1.8687  4.4398 -1.2701
 1023MOL0     H34991   4.850   6.312  10.647 -0.8673 -0.7411  0.4951
 1023MOL0     H34992   4.662   6.500  10.519  0.3304  0.2136  0.3175
 1023MOL0     H34993   4.795   6.543  10.624 -1.6566  0.2960  3.8793
 1023MOL0     H34994   4.545   6.408  10.715  0.6808 -0.8285  0.3967
 1023MOL0     H34995   4.697   6.399  10.803 -0.8112  1.2781  0.7140
 1023MOL0     H34996   4.524   6.614  10.828 -1.5759 -3.4951 -0.0846
 1023MOL0     H34997   4.639   6.668  10.711  2.0695  0.8234  1.2928
 1023MOL0     H34998   4.600   6.867  10.838 -1.1940 -0.3673  0.4867
 1023MOL0     H34999   4.597   7.054  10.993  1.6714 -0.4666 -1.2048
 1023MOL0     H35000   4.710   7.387  11.241  0.1610  1.8889 -0.0396
 1023MOL0     H35001   4.690   7.560  11.413 -1.9506  0.8870 -0.9072
 1023MOL0     H35002   4.386   7.655  11.765  1.1471 -1.0985  0.7564
 1023MOL0     H35003   4.338   7.489  11.727  0.6186 -0.3029 -1.8806
 1023MOL0     H35004   4.252   7.595  11.508 -0.3934 -1.9742  0.9193
 1023MOL0     H35005   4.306   7.752  11.575  0.9331 -1.1733 -0.8010
 1023MOL0     H35006   4.074   7.738  11.635  0.8141  1.4515  2.3552
 1023MOL0     H35007   4.168   7.714  11.783  0.6009 -0.1873  0.2417
 1023MOL0     H35008   4.069   7.471  11.629  1.8527  2.6201 -0.9592
 1023MOL0     H35009   4.078   7.493  11.806  0.2719 -1.6494 -0.9573
 1023MOL0     H35010   3.846   7.483  11.692 -2.3131  2.1953 -2.2836
 1023MOL0     H35011   3.872   7.631  11.620  1.7791 -1.1580 -1.6503
 1023MOL0     H35012   3.909   7.762  11.823 -3.1302  1.1713  2.4827
 1023MOL0     H35013   3.894   7.610  11.926 -1.9963 -1.7324  0.6504
 1023MOL0     H35014   3.674   7.713  11.744 -1.1605 -1.3998 -0.0601
 1023MOL0     H35015   3.674   7.570  11.838  1.8205  0.5303 -1.0744
 1023MOL0     H35016   3.698   7.690  12.048  0.3546 -1.4373 -0.6566
 1023MOL0     H35017   3.560   7.754  11.954 -0.6181  0.6539 -1.0709
 1023MOL0     H35018   4.332   7.365  11.556 -0.6325 -0.7855 -1.1071
 1023MOL0     H35019   4.380   7.181  11.390  1.3908 -1.0222 -0.9694
 1023MOL0     H35020   4.741   6.785  11.304 -3.9119  3.8926  3.6277
 1023MOL0     H35021   4.743   6.615  11.167  2.3669  1.3377  0.7858
 1023MOL0     H35022   4.425   6.670  10.495 -0.9867 -2.0394 -0.8596
 1023MOL0     H35023   4.414   6.874  10.644 -0.7873  1.1974  0.3127
 1023MOL0     H35024   4.329   7.258  10.947 -0.2016 -1.3570  0.6005
 1023MOL0     H35025   4.289   7.378  11.158  1.2181  0.0390 -2.4517
 1023MOL0     H35026   3.980   7.383  11.207 -4.3717  1.2678  1.0254
 1023MOL0     H35027   4.059   7.475  11.349  0.2625 -0.2963  0.0148
 1023MOL0     H35028   3.923   7.276  11.485 -0.7585 -1.6878 -0.6904
 1023MOL0     H35029   3.839   7.426  11.447  3.3373  1.4134  1.0320
 1023MOL0     H35030   3.839   7.196  11.248  1.2800 -0.4958  1.2954
 1023MOL0     H35031   3.731   7.322  11.226  0.5112 -1.2939 -0.7358
 1023MOL0     H35032   3.575   7.199  11.313  0.7145  0.1667 -1.2737
 1023MOL0     H35033   3.686   7.096  11.414  2.4222 -0.2481 -0.7405
 1023MOL0     H35034   3.593   7.373  11.697 -1.3956  1.6499 -1.1413
 1023MOL0     H35035   4.045   7.043  11.273  0.4576 -0.2325 -0.0034
 1023MOL0     H35036   4.113   6.914  11.079  0.4600  0.1503  1.4549
 1024MOL0     O35037   2.354   7.804   8.236 -0.2486 -0.5230  0.5883
 1024MOL0     C35038   2.316   7.816   8.349 -0.4570 -0.0153  0.0382
 1024MOL0     O35039   2.391   7.777   8.456  1.2571 -0.5911  0.1186
 1024MOL0     C35040   2.524   7.732   8.442  0.1839 -0.9786  1.1317
 1024MOL0     C35041   2.577   7.645   8.538  0.2466  1.0293  0.5098
 1024MOL0     C35042   2.713   7.608   8.538  0.6615 -0.8070  1.7797
 1024MOL0     C35043   2.785   7.656   8.434 -0.8686  0.8828 -0.0917
 1024MOL0     O35044   2.912   7.610   8.453 -0.0428 -0.0662 -0.6002
 1024MOL0     C35045   3.018   7.651   8.367 -0.6568  0.3027  0.3630
 1024MOL0     C35046   3.108   7.531   8.356 -0.2463  0.0452 -0.6616
 1024MOL0     C35047   3.037   7.414   8.276 -0.4377 -0.7060  0.6149
 1024MOL0     C35048   3.136   7.305   8.249 -0.0047  0.0264  0.0099
 1024MOL0     C35049   3.090   7.207   8.139  0.0267 -0.0533 -0.3192
 1024MOL0     C35050   3.194   7.110   8.088  0.5176  0.6258 -0.3356
 1024MOL0     C35051   3.235   7.005   8.195  1.1941 -1.0216  0.1910
 1024MOL0     C35052   3.358   6.913   8.151  0.1904  0.0026 -0.7960
 1024MOL0     N35053   3.352   6.781   8.230  0.8098  0.2874  0.3746
 1024MOL0     C35054   3.254   6.688   8.218 -0.1682 -0.4031  0.0295
 1024MOL0     C35055   3.289   6.593   8.311 -0.5795 -0.0344 -0.4909
 1024MOL0     C35056   3.236   6.450   8.341  0.4960  0.5426 -0.7138
 1024MOL0     C35057   3.119   6.404   8.272 -0.3282 -0.8998  0.7555
 1024MOL0     C35058   3.103   6.247   8.268  0.1071 -0.9807 -0.7309
 1024MOL0     C35059   3.081   6.180   8.398  0.3123  0.4598 -1.0461
 1024MOL0     O35060   2.993   6.257   8.482  0.0163  0.5417  0.0417
 1024MOL0     C35061   2.984   6.241   8.612 -0.5889  0.0652 -0.2173
 1024MOL0     C35062   3.057   6.147   8.690  0.2920 -0.2913 -0.1028
 1024MOL0     C35063   3.013   6.115   8.820  0.0865  1.4532 -0.0348
 1024MOL0     C35064   2.910   6.185   8.879 -0.4269 -0.0100 -0.1679
 1024MOL0     C35065   2.875   6.167   9.023 -0.7807 -0.2185 -0.7438
 1024MOL0     O35066   2.796   6.254   9.089  1.1154  0.2782  0.0505
 1024MOL0     C35067   2.761   6.235   9.218 -0.6353 -0.3868  0.1237
 1024MOL0     C35068   2.629   6.232   9.249 -0.0551 -0.4157 -0.0792
 1024MOL0     C35069   2.583   6.224   9.380 -0.1609  0.1214  0.5383
 1024MOL0     C35070   2.661   6.221   9.490 -0.4320  0.5563  1.2032
 1024MOL0     O35071   2.603   6.205   9.619 -0.2529  0.0373  0.8215
 1024MOL0     C35072   2.660   6.261   9.742 -0.5827  0.7063 -0.8548
 1024MOL0     C35073   2.576   6.238   9.866 -0.4372  0.4489  0.3708
 1024MOL0     C35074   2.636   6.332   9.975  0.2947  0.3588 -0.4177
 1024MOL0     C35075   2.565   6.306  10.106  0.1556  0.0024 -0.3166
 1024MOL0     C35076   2.610   6.415  10.198 -0.3292 -0.6118 -0.6468
 1024MOL0     C35077   2.534   6.412  10.331 -0.1743  0.1171  0.7728
 1024MOL0     C35078   2.545   6.281  10.403 -0.5988 -0.2157  0.1587
 1024MOL0     C35079   2.476   6.274  10.548  0.2587 -0.0838  0.5499
 1024MOL0    Cl35080   2.564   6.360  10.674 -0.3935  0.0719  0.1079
 1024MOL0     C35081   2.800   6.229   9.460  0.8687  0.0550  0.3542
 1024MOL0     C35082   2.852   6.247   9.326  0.1050  0.0173  1.1981
 1024MOL0     O35083   2.926   6.071   9.075  0.1876  0.6263 -0.0330
 1024MOL0     C35084   2.856   6.291   8.811 -0.7641 -0.2875  0.2971
 1024MOL0     C35085   2.885   6.317   8.672 -0.8243 -0.2577 -0.8781
 1024MOL0     N35086   3.399   6.640   8.382 -0.3699  0.8320 -0.8409
 1024MOL0     N35087   3.431   6.742   8.335  0.9570 -0.3283  0.4370
 1024MOL0     C35088   2.744   7.749   8.337  0.9849  0.2073  0.4103
 1024MOL0     C35089   2.611   7.788   8.351  0.3610  0.7159  0.0867
 1024MOL0     C35090   2.176   7.845   8.376 -0.2094  0.1970 -0.6880
 1024MOL0     C35091   2.088   7.847   8.265  0.2340  0.9681 -0.3673
 1024MOL0     C35092   1.953   7.889   8.280 -0.2214  0.2636  0.3812
 1024MOL0     C35093   1.905   7.904   8.409  0.1265 -0.5185  0.3835
 1024MOL0     O35094   1.770   7.948   8.445 -0.4312 -0.4175  0.3951
 1024MOL0     C35095   1.680   7.979   8.343  0.5703 -0.0693  0.0772
 1024MOL0     C35096   1.586   8.087   8.378  1.2085 -0.8867 -0.5979
 1024MOL0     C35097   1.625   8.227   8.319 -0.7362 -1.2306 -0.6966
 1024MOL0     C35098   1.773   8.261   8.359  0.0469  0.2215 -0.1653
 1024MOL0     C35099   1.807   8.397   8.346 -0.3630 -0.8071  0.2590
 1024MOL0     C35100   1.821   8.517   8.343 -0.2779 -0.5729  0.7174
 1024MOL0     C35101   1.987   7.896   8.518  0.2559  0.3048 -0.7592
 1024MOL0     C35102   2.128   7.868   8.509  0.0590  0.7272 -0.5211
 1024MOL0     H35103   2.506   7.614   8.614  0.0263 -1.4441 -0.6085
 1024MOL0     H35104   2.749   7.542   8.617  1.0734 -0.3864  1.9464
 1024MOL0     H35105   3.066   7.735   8.418 -1.1623  0.1377  1.1263
 1024MOL0     H35106   2.995   7.679   8.264 -0.9577 -0.4769  0.2125
 1024MOL0     H35107   3.131   7.503   8.459  1.2262  2.3676 -0.2817
 1024MOL0     H35108   3.198   7.568   8.307 -1.5760  0.7419 -2.6916
 1024MOL0     H35109   3.002   7.460   8.183 -2.8314 -0.8418  1.3989
 1024MOL0     H35110   2.961   7.375   8.344  0.1876  1.2528  2.5867
 1024MOL0     H35111   3.238   7.344   8.239  1.2746 -2.9010  0.5783
 1024MOL0     H35112   3.132   7.261   8.350 -1.3956  0.0650 -0.0139
 1024MOL0     H35113   3.066   7.261   8.047  3.4654  0.1285 -1.2502
 1024MOL0     H35114   3.005   7.158   8.188  0.3905 -1.1654 -0.7594
 1024MOL0     H35115   3.287   7.163   8.067  1.5818 -0.6619  0.8880
 1024MOL0     H35116   3.162   7.061   7.996  2.5071 -1.1933 -0.1360
 1024MOL0     H35117   3.262   7.054   8.289  1.1697  0.4609 -0.5431
 1024MOL0     H35118   3.151   6.942   8.225  1.1071 -0.9815  0.0315
 1024MOL0     H35119   3.447   6.969   8.182  0.5462 -0.7566 -0.3924
 1024MOL0     H35120   3.362   6.883   8.046  0.3539  1.3397 -1.1917
 1024MOL0     H35121   3.172   6.688   8.147 -0.7849 -0.6692  0.7270
 1024MOL0     H35122   3.211   6.467   8.446 -0.5173 -0.7248 -0.7403
 1024MOL0     H35123   3.314   6.374   8.338 -0.7296 -0.8522  0.9328
 1024MOL0     H35124   3.128   6.446   8.171  0.2389  3.2110  2.3357
 1024MOL0     H35125   3.025   6.448   8.305  0.8776  0.8412  2.0264
 1024MOL0     H35126   3.015   6.224   8.208 -2.1718  3.7685  0.3079
 1024MOL0     H35127   3.194   6.204   8.225  0.7703 -0.0678 -0.2905
 1024MOL0     H35128   3.172   6.166   8.457  0.4626  1.7105 -0.9666
 1024MOL0     H35129   3.027   6.086   8.385 -0.8262  0.1132  4.0825
 1024MOL0     H35130   3.137   6.078   8.667 -0.7385 -1.1750 -1.1754
 1024MOL0     H35131   3.073   6.035   8.861  1.1334  0.7182 -2.8026
 1024MOL0     H35132   2.554   6.245   9.171  0.3302 -0.0540 -0.3922
 1024MOL0     H35133   2.477   6.221   9.405 -0.0651  2.9579  1.6893
 1024MOL0     H35134   2.673   6.369   9.727  0.6910  0.2951 -3.1397
 1024MOL0     H35135   2.762   6.224   9.747 -0.8775 -0.1212 -0.9015
 1024MOL0     H35136   2.585   6.134   9.899 -0.4177  0.4878  0.4878
 1024MOL0     H35137   2.470   6.255   9.846  0.4963  2.0194 -4.3436
 1024MOL0     H35138   2.621   6.438   9.949  0.1725  1.1124  2.4419
 1024MOL0     H35139   2.744   6.315   9.983  0.6908  1.6922 -2.1156
 1024MOL0     H35140   2.457   6.317  10.094  0.4058  2.3687 -0.7266
 1024MOL0     H35141   2.584   6.204  10.141  0.8765  0.5901  1.0985
 1024MOL0     H35142   2.601   6.517  10.159  0.9910 -0.0772  0.3650
 1024MOL0     H35143   2.716   6.411  10.224  0.0627  1.2247 -1.7742
 1024MOL0     H35144   2.430   6.429  10.303  0.3650  0.6382 -1.0821
 1024MOL0     H35145   2.567   6.497  10.392 -0.0695  1.1326 -0.6331
 1024MOL0     H35146   2.512   6.198  10.340 -1.4909  0.8496 -0.8228
 1024MOL0     H35147   2.652   6.265  10.419  0.1889  0.9783 -3.0774
 1024MOL0     H35148   2.477   6.170  10.581 -2.3732 -0.2945  0.2008
 1024MOL0     H35149   2.372   6.309  10.550  0.0891 -0.6003  2.0073
 1024MOL0     H35150   2.868   6.217   9.544  0.7947 -1.4661  0.2254
 1024MOL0     H35151   2.958   6.239   9.304 -0.0098  0.7335  0.3332
 1024MOL0     H35152   2.785   6.363   8.851 -0.5650  0.9570 -1.4990
 1024MOL0     H35153   2.839   6.389   8.605 -1.6101 -0.9431 -1.0849
 1024MOL0     H35154   2.791   7.796   8.251 -3.1489  1.8768 -1.2507
 1024MOL0     H35155   2.585   7.866   8.279 -1.8739  0.9710  1.0706
 1024MOL0     H35156   2.128   7.822   8.167 -0.4143 -0.9460 -0.1988
 1024MOL0     H35157   1.900   7.912   8.188 -2.9853 -2.1345  1.2146
 1024MOL0     H35158   1.619   7.893   8.314 -1.2764  1.1450  0.1524
 1024MOL0     H35159   1.734   8.004   8.251  3.4390 -3.5887  0.5673
 1024MOL0     H35160   1.488   8.059   8.340  0.8477  0.7572 -0.9454
 1024MOL0     H35161   1.586   8.100   8.487  0.2507  4.8762 -0.9910
 1024MOL0     H35162   1.568   8.300   8.377  1.7527 -1.5210  2.3795
 1024MOL0     H35163   1.607   8.226   8.211 -0.5349  0.0324 -0.7621
 1024MOL0     H35164   1.789   8.223   8.461 -0.4185 -3.3277 -1.2659
 1024MOL0     H35165   1.846   8.215   8.291  1.4367  2.4980 -0.3141
 1024MOL0     H35166   1.846   8.618   8.317 -0.3223 -0.5240  0.8692
 1024MOL0     H35167   1.943   7.923   8.614 -1.0415  0.7297 -1.4555
 1024MOL0     H35168   2.196   7.886   8.592  0.7192  0.2064 -0.9403
  11.45934  11.45934  11.45934
